Title
42773
    1SAPS     N    1   3.104   0.834   7.218  0.1815 -0.1114 -0.1446
    1SAPS   HN1    2   3.059   0.879   7.301  0.4207 -1.0864  0.5369
    1SAPS   HN2    3   3.187   0.888   7.186  0.8626 -0.6786  0.6187
    1SAPS   HN3    4   3.034   0.822   7.142 -0.7353 -0.8302  0.7740
    1SAPS   C12    5   3.160   0.699   7.255 -0.2984  0.3385 -0.0028
    1SAPS  H12A    6   3.266   0.718   7.258 -0.2989  0.5516 -0.8973
    1SAPS   C13    7   3.119   0.652   7.396  1.1598 -0.0004  0.3385
    1SAPS  O13A    8   3.040   0.723   7.460  0.4092 -0.1939 -0.2877
    1SAPS  O13B    9   3.160   0.544   7.447  0.1195 -0.3792  0.7238
    1SAPS   C11   10   3.132   0.595   7.141 -0.4721 -0.3004 -0.2506
    1SAPS  H11A   11   3.025   0.563   7.141  0.2197 -3.1323 -3.1343
    1SAPS  H11B   12   3.180   0.501   7.175 -1.4988  0.0373  2.3492
    1SAPS     P   13   3.316   0.617   6.956  0.9073  0.2714  0.2322
    1SAPS   O13   14   3.403   0.705   7.036  0.5414 -0.4799  0.0959
    1SAPS   O14   15   3.337   0.474   6.965 -0.3953  0.1179  0.9374
    1SAPS   O12   16   3.167   0.639   7.010 -0.4482  0.4566 -0.7831
    1SAPS   O11   17   3.304   0.653   6.803  0.0457  0.5828 -0.6712
    1SAPS    C1   18   3.187   0.622   6.728 -0.0753  0.2271  0.4937
    1SAPS    HA   19   3.150   0.523   6.762  1.1860 -0.0049  1.3004
    1SAPS    HB   20   3.109   0.700   6.741  1.0432  1.6897 -1.1087
    1SAPS    C2   21   3.222   0.606   6.577  0.0430  0.1422 -0.2782
    1SAPS    HS   22   3.294   0.522   6.579 -0.8003 -0.5870 -0.0718
    1SAPS   O21   23   3.284   0.725   6.533 -0.4993  0.2689 -0.1019
    1SAPS   C21   24   3.377   0.719   6.443 -0.1213  0.0299 -0.3402
    1SAPS   O22   25   3.439   0.622   6.410 -0.4373 -0.0899  0.9797
    1SAPS   C22   26   3.392   0.861   6.377  0.1638  1.0174 -0.0050
    1SAPS   H2R   27   3.300   0.877   6.316  0.4267 -3.0594 -1.7590
    1SAPS   H2S   28   3.390   0.930   6.464 -2.4341  3.0024 -1.4802
    1SAPS    C3   29   3.113   0.569   6.478  0.1487  0.6213 -0.7814
    1SAPS    HX   30   3.037   0.649   6.474 -1.1874 -0.2834  2.5617
    1SAPS    HY   31   3.055   0.488   6.528 -1.9184  0.7387 -2.8253
    1SAPS   O31   32   3.157   0.510   6.355  0.3829 -0.3817 -0.3330
    1SAPS   C31   33   3.182   0.383   6.348 -0.7698  0.2874 -0.2989
    1SAPS   O32   34   3.176   0.295   6.437  0.1799 -0.2809  0.5252
    1SAPS   C32   35   3.244   0.350   6.206  0.5051  0.0861 -0.5737
    1SAPS   H2X   36   3.176   0.359   6.119  0.1563 -1.0218 -0.4302
    1SAPS   H2Y   37   3.257   0.240   6.208  0.1300  0.0513  1.3865
    1SAPS   C23   38   3.521   0.888   6.292 -0.3248  0.3253  0.4233
    1SAPS   H3R   39   3.601   0.854   6.360 -2.0708  0.5313  2.6750
    1SAPS   H3S   40   3.528   0.999   6.292  0.7502  0.2675  1.4614
    1SAPS   C24   41   3.523   0.814   6.162  0.3690 -0.1417  0.0452
    1SAPS   H4R   42   3.442   0.858   6.099 -1.0614 -2.4131  0.1736
    1SAPS   H4S   43   3.469   0.718   6.181 -0.9922  0.7858  1.0859
    1SAPS   C25   44   3.648   0.762   6.105  0.3846  0.9669 -0.4862
    1SAPS   H5R   45   3.682   0.668   6.150 -1.8562 -0.8357 -2.2754
    1SAPS   C26   46   3.719   0.819   6.011 -0.2802  0.0545  0.1078
    1SAPS   H6R   47   3.814   0.770   5.984  0.1688  1.1531 -0.3846
    1SAPS   C27   48   3.684   0.947   5.934 -0.6297  0.2780 -0.6937
    1SAPS   H7R   49   3.573   0.954   5.932 -0.8371 -2.2451 -0.7398
    1SAPS   H7S   50   3.719   0.938   5.829 -0.4925  1.4694 -0.7641
    1SAPS   C28   51   3.742   1.068   5.999 -0.0408 -0.1072 -0.2769
    1SAPS   H8R   52   3.743   1.061   6.109 -1.4638  1.3885 -0.1346
    1SAPS   C29   53   3.799   1.176   5.946 -0.1158 -0.4301  0.3845
    1SAPS   H9R   54   3.826   1.264   6.007 -3.0240  1.5768 -0.9660
    1SAPS  C210   55   3.822   1.209   5.803 -0.5818 -0.0216 -0.4452
    1SAPS  H10R   56   3.851   1.115   5.751 -0.2715 -0.0756 -0.1792
    1SAPS  H10S   57   3.910   1.275   5.786  0.4918 -1.1616  0.4935
    1SAPS  C211   58   3.695   1.264   5.742 -0.3776 -0.6199 -0.1362
    1SAPS  H11R   59   3.607   1.268   5.808 -0.3608  0.1217 -0.1548
    1SAPS  C212   60   3.686   1.301   5.613 -0.2587  0.7249  0.9922
    1SAPS  H12R   61   3.593   1.333   5.564 -0.9245 -1.9569  0.3003
    1SAPS  C213   62   3.802   1.306   5.512  0.0626  0.1935 -0.1023
    1SAPS  H13R   63   3.894   1.255   5.546 -0.5097  1.2803  3.4453
    1SAPS  H13S   64   3.827   1.409   5.480  1.8195 -0.0365  0.4851
    1SAPS  C214   65   3.747   1.234   5.388 -0.4477 -0.2554  0.2860
    1SAPS  H14R   66   3.723   1.127   5.393  0.1163 -0.4928 -1.4654
    1SAPS  C215   67   3.714   1.284   5.266  0.3352 -0.6447 -0.6878
    1SAPS  H15R   68   3.658   1.224   5.193  2.0253  0.0733 -2.6627
    1SAPS  C216   69   3.749   1.424   5.219 -1.0497 -0.6510 -0.4082
    1SAPS  H16R   70   3.701   1.494   5.291 -1.8836 -1.3369 -0.2880
    1SAPS  H16S   71   3.705   1.449   5.120 -0.6221  0.7397 -0.2769
    1SAPS  C217   72   3.903   1.450   5.216  0.8125 -0.7318 -0.0385
    1SAPS  H17R   73   3.955   1.447   5.314  0.5465  0.7214  0.1731
    1SAPS  H17S   74   3.918   1.553   5.176  0.4300 -0.7100 -0.1246
    1SAPS  C218   75   3.973   1.359   5.113 -0.5890  0.7096  0.7113
    1SAPS  H18R   76   3.938   1.257   5.140 -0.3815  0.9523  1.9607
    1SAPS  H18S   77   4.079   1.364   5.147 -0.9991  2.1689  1.8819
    1SAPS  C219   78   3.974   1.397   4.968 -0.7485 -0.2896 -0.2566
    1SAPS  H19R   79   4.010   1.501   4.957  0.1146 -0.6185 -0.5607
    1SAPS  H19S   80   3.868   1.388   4.935 -0.7937 -0.9702  0.0498
    1SAPS  C220   81   4.060   1.326   4.864 -0.1089  0.3815  0.9589
    1SAPS  H20R   82   4.012   1.230   4.835  0.9906 -0.0959  0.6791
    1SAPS  H20S   83   4.165   1.300   4.890  0.0315 -0.8763 -0.7107
    1SAPS  H20T   84   4.070   1.395   4.778  1.3338  0.8650  1.4875
    1SAPS   C33   85   3.387   0.404   6.171  1.2097 -0.8002  0.0162
    1SAPS   H3X   86   3.465   0.402   6.250  0.9928  3.7705  0.5894
    1SAPS   H3Y   87   3.378   0.514   6.164  0.9204 -0.8102  0.2260
    1SAPS   C34   88   3.444   0.351   6.034 -0.1601 -0.2932  0.9880
    1SAPS   H4X   89   3.399   0.417   5.956  2.4358  0.6956  0.2254
    1SAPS   H4Y   90   3.423   0.242   6.027  1.2314 -0.5175 -0.0078
    1SAPS   C35   91   3.592   0.370   6.018  0.3414  0.6025 -0.2539
    1SAPS   H5X   92   3.644   0.327   6.106 -0.6819 -0.4990 -0.1632
    1SAPS   H5Y   93   3.617   0.478   6.011  2.2748  0.3316  1.4935
    1SAPS   C36   94   3.643   0.301   5.890 -0.4121  0.1629 -0.4995
    1SAPS   H6X   95   3.575   0.213   5.879  0.6534 -0.6609 -0.6620
    1SAPS   H6Y   96   3.746   0.260   5.904 -0.9758 -0.9546  0.5801
    1SAPS   C37   97   3.645   0.393   5.761  0.4869 -0.5220  0.6091
    1SAPS   H7X   98   3.717   0.477   5.770 -0.7488  0.9567 -2.1141
    1SAPS   H7Y   99   3.542   0.434   5.764 -0.0440 -1.7586 -0.0660
    1SAPS   C38  100   3.699   0.308   5.650 -0.4552  0.1089  0.8641
    1SAPS   H8X  101   3.630   0.221   5.651 -0.0396 -0.4249 -2.8776
    1SAPS   H8Y  102   3.801   0.277   5.680 -0.4291 -1.3932 -0.6737
    1SAPS   C39  103   3.695   0.377   5.510 -0.4182  0.0550 -0.3590
    1SAPS   H9X  104   3.728   0.297   5.441  0.9845 -1.3849  1.8453
    1SAPS   H9Y  105   3.747   0.475   5.500 -1.1237  0.2504 -2.6859
    1SAPS  C310  106   3.550   0.398   5.467 -0.2689  0.1550  0.9492
    1SAPS  H10X  107   3.497   0.474   5.528 -2.4484 -0.9496  0.5271
    1SAPS  H10Y  108   3.478   0.313   5.465 -1.6368  1.2816  0.4718
    1SAPS  C311  109   3.536   0.468   5.327  0.1230 -0.2840  0.0795
    1SAPS  H11X  110   3.600   0.559   5.325 -0.5624  0.1983 -0.9681
    1SAPS  H11Y  111   3.434   0.505   5.303 -0.1889 -1.0867  0.1518
    1SAPS  C312  112   3.583   0.378   5.212 -0.0639  0.4436  0.4693
    1SAPS  H12X  113   3.564   0.269   5.212  0.8265  0.2080 -2.5927
    1SAPS  H12Y  114   3.694   0.385   5.217 -0.1129  0.3875  2.8013
    1SAPS  C313  115   3.555   0.429   5.067 -0.0295  0.1066  0.3584
    1SAPS  H13X  116   3.583   0.537   5.061  0.6863 -0.0812  0.2385
    1SAPS  H13Y  117   3.445   0.437   5.054  0.0337 -0.1255 -0.3433
    1SAPS  C314  118   3.597   0.338   4.949  0.3587 -0.5915 -0.2374
    1SAPS  H14X  119   3.564   0.236   4.976  0.3306 -0.9550 -1.5637
    1SAPS  H14Y  120   3.707   0.331   4.945  0.3716 -0.8475  0.3944
    1SAPS  C315  121   3.544   0.393   4.819 -0.1560  0.7187  0.6558
    1SAPS  H15X  122   3.433   0.398   4.827 -0.1126  0.0104  2.0584
    1SAPS  H15Y  123   3.583   0.325   4.740 -0.1372  2.4449 -0.8798
    1SAPS  C316  124   3.612   0.525   4.767 -0.0733 -0.2447  0.1802
    1SAPS  H16X  125   3.718   0.500   4.789 -0.3422 -0.3525  1.4251
    1SAPS  H16Y  126   3.587   0.616   4.825 -0.0436 -0.7523  1.0007
    1SAPS  C317  127   3.592   0.547   4.615  0.3987  0.2198 -0.4567
    1SAPS  H17X  128   3.484   0.540   4.590  0.6030  3.1239 -2.8186
    1SAPS  H17Y  129   3.645   0.476   4.549 -0.3825 -0.1332 -0.7153
    1SAPS  C318  130   3.642   0.681   4.568  0.0195 -0.4986 -0.2372
    1SAPS  H18X  131   3.582   0.761   4.615  1.2369  0.7948 -0.8157
    1SAPS  H18Y  132   3.636   0.696   4.458 -1.4859 -1.7826 -0.3605
    1SAPS  H18Z  133   3.747   0.695   4.602  0.5142 -1.9877 -1.0613
    2SAPS     N  134   1.806   5.016   6.711  0.2707  0.1670 -0.3434
    2SAPS   HN1  135   1.840   5.113   6.727 -0.4640  0.2105  1.1006
    2SAPS   HN2  136   1.863   4.949   6.766 -1.7611 -1.7981 -0.4695
    2SAPS   HN3  137   1.799   4.989   6.610 -0.1364  1.4296 -0.6687
    2SAPS   C12  138   1.670   5.012   6.772 -0.3656 -0.0886  0.3067
    2SAPS  H12A  139   1.655   5.096   6.838  2.1554 -1.1764  2.5170
    2SAPS   C13  140   1.548   5.018   6.676 -0.7524 -0.2438 -0.3084
    2SAPS  O13A  141   1.569   5.039   6.555  0.4429 -1.2020  0.1638
    2SAPS  O13B  142   1.436   5.040   6.724  0.3364 -0.4583 -0.0618
    2SAPS   C11  143   1.664   4.878   6.862 -0.0439 -0.1259  0.2847
    2SAPS  H11A  144   1.677   4.794   6.791  3.0316  0.7719 -0.3759
    2SAPS  H11B  145   1.561   4.862   6.902 -1.0590 -1.6081 -2.6372
    2SAPS     P  146   1.874   4.765   6.956 -0.1277  0.2547 -0.3842
    2SAPS   O13  147   1.967   4.779   7.070 -0.2299  0.2150 -1.0633
    2SAPS   O14  148   1.815   4.632   6.944 -0.2898  0.2741  0.4069
    2SAPS   O12  149   1.763   4.871   6.971  1.1707 -0.3631  0.4809
    2SAPS   O11  150   1.947   4.813   6.828 -0.7743 -0.0003  0.6346
    2SAPS    C1  151   2.025   4.730   6.737 -0.1780 -0.1313  0.4371
    2SAPS    HA  152   2.068   4.638   6.780  1.4700 -0.1620 -1.1385
    2SAPS    HB  153   1.952   4.696   6.661  0.4194 -3.2606  1.1577
    2SAPS    C2  154   2.154   4.794   6.680  0.3967  0.7545 -0.5014
    2SAPS    HS  155   2.214   4.826   6.768 -1.5515  1.8186  0.5085
    2SAPS   O21  156   2.118   4.904   6.598 -0.3226 -0.0685 -0.0804
    2SAPS   C21  157   2.217   4.993   6.571  0.8790  0.1853 -0.8042
    2SAPS   O22  158   2.329   4.987   6.612 -0.0517 -0.5714 -0.3669
    2SAPS   C22  159   2.156   5.096   6.483 -0.4432 -0.6629  0.4195
    2SAPS   H2R  160   2.091   5.061   6.400  0.1459 -0.9703  0.0775
    2SAPS   H2S  161   2.102   5.154   6.561 -1.0341  2.6610 -2.2483
    2SAPS    C3  162   2.241   4.690   6.613  0.1175  0.1628 -0.1092
    2SAPS    HX  163   2.273   4.615   6.688  0.9492 -0.9386 -1.4950
    2SAPS    HY  164   2.334   4.723   6.564 -0.9914  1.1458 -1.6610
    2SAPS   O31  165   2.174   4.627   6.491 -0.0826  0.2714  0.1938
    2SAPS   C31  166   2.129   4.507   6.504 -0.1295 -0.3523  0.2467
    2SAPS   O32  167   2.118   4.439   6.606  0.0041 -0.1045 -0.4542
    2SAPS   C32  168   2.070   4.454   6.364 -0.2130 -0.0090 -0.4746
    2SAPS   H2X  169   1.960   4.474   6.366  0.0499  1.4702  0.0894
    2SAPS   H2Y  170   2.083   4.343   6.370 -0.2737 -0.0088 -0.3218
    2SAPS   C23  171   2.267   5.191   6.421 -0.1390  0.3752 -0.9972
    2SAPS   H3R  172   2.361   5.187   6.480  0.3345 -0.0336 -1.7566
    2SAPS   H3S  173   2.231   5.296   6.414  0.3619  0.4551 -2.7171
    2SAPS   C24  174   2.310   5.148   6.275  1.0888  0.1614  0.2067
    2SAPS   H4R  175   2.362   5.241   6.246  1.3197  0.6635  2.1031
    2SAPS   H4S  176   2.219   5.136   6.212  0.9872 -0.1752  0.4127
    2SAPS   C25  177   2.397   5.026   6.267  1.0260 -0.1071  0.7182
    2SAPS   H5R  178   2.383   4.951   6.346  1.3157 -0.5005  0.4010
    2SAPS   C26  179   2.494   5.000   6.181  0.3028 -0.7311 -0.1257
    2SAPS   H6R  180   2.554   4.908   6.186 -1.1234 -1.7881 -1.1735
    2SAPS   C27  181   2.525   5.084   6.057 -0.4514 -0.4062 -0.4471
    2SAPS   H7R  182   2.623   5.050   6.018 -0.5251 -3.4045  1.6022
    2SAPS   H7S  183   2.533   5.185   6.102 -2.4740 -0.2830 -0.2583
    2SAPS   C28  184   2.410   5.082   5.954 -0.3416 -0.0018  0.2252
    2SAPS   H8R  185   2.332   5.005   5.963 -2.0254  1.3043 -2.1602
    2SAPS   C29  186   2.375   5.175   5.868  0.3855 -0.0471  0.1562
    2SAPS   H9R  187   2.283   5.166   5.807  0.8670  1.4355 -0.8449
    2SAPS  C210  188   2.461   5.294   5.823  0.3839 -0.8599 -0.2826
    2SAPS  H10R  189   2.561   5.250   5.804 -0.3098 -2.3840 -0.5613
    2SAPS  H10S  190   2.473   5.359   5.913 -1.3519  0.3306 -0.8689
    2SAPS  C211  191   2.413   5.372   5.703  0.1083 -0.8424  0.5938
    2SAPS  H11R  192   2.305   5.373   5.685  0.1658  0.3465  0.1932
    2SAPS  C212  193   2.485   5.444   5.616 -0.2766  0.8392 -0.1440
    2SAPS  H12R  194   2.425   5.494   5.539  0.1835 -0.4292 -1.3543
    2SAPS  C213  195   2.630   5.479   5.638 -0.3402 -0.1891  0.4100
    2SAPS  H13R  196   2.689   5.396   5.594 -1.5815 -0.5477 -0.6145
    2SAPS  H13S  197   2.647   5.487   5.748  1.8206 -0.4290  0.1426
    2SAPS  C214  198   2.660   5.618   5.581 -0.0658 -0.4602  0.4971
    2SAPS  H14R  199   2.639   5.697   5.654  0.5223 -0.4202  0.6268
    2SAPS  C215  200   2.712   5.649   5.458  0.2610 -0.2504  0.3625
    2SAPS  H15R  201   2.731   5.753   5.428  1.0137 -0.4973 -0.0436
    2SAPS  C216  202   2.763   5.557   5.347  0.1186  0.3339 -0.0577
    2SAPS  H16R  203   2.755   5.448   5.368 -3.3204  0.3755 -0.6006
    2SAPS  H16S  204   2.870   5.578   5.326  0.3073 -1.6390 -1.3925
    2SAPS  C217  205   2.674   5.567   5.220 -0.4710  0.6069  0.1103
    2SAPS  H17R  206   2.634   5.669   5.201 -0.0993  1.1253  1.9032
    2SAPS  H17S  207   2.595   5.491   5.238  0.3256 -1.0515 -2.8255
    2SAPS  C218  208   2.750   5.518   5.095 -0.1614  0.7970  0.1327
    2SAPS  H18R  209   2.824   5.440   5.125 -0.5299 -0.2085 -1.4589
    2SAPS  H18S  210   2.807   5.602   5.050 -1.0757  0.7882 -1.0910
    2SAPS  C219  211   2.663   5.454   4.986  0.7461 -0.5013 -0.1343
    2SAPS  H19R  212   2.608   5.370   5.034  2.3195 -0.3878  1.9970
    2SAPS  H19S  213   2.723   5.405   4.907  0.0528 -0.0673 -0.9437
    2SAPS  C220  214   2.562   5.556   4.932  0.3229  0.0913 -0.5179
    2SAPS  H20R  215   2.614   5.654   4.927 -2.7202  1.8003 -1.4119
    2SAPS  H20S  216   2.472   5.563   4.996  0.6740  2.1157 -0.1669
    2SAPS  H20T  217   2.537   5.536   4.826 -1.3084 -0.1004 -0.1271
    2SAPS   C33  218   2.142   4.518   6.246  0.5568  0.9857  0.0451
    2SAPS   H3X  219   2.250   4.491   6.251  0.5008  0.5995 -0.7670
    2SAPS   H3Y  220   2.130   4.629   6.241 -0.0354  1.1981  3.5245
    2SAPS   C34  221   2.099   4.460   6.113  0.1225  0.0219  0.0369
    2SAPS   H4X  222   1.989   4.478   6.115 -0.1845 -1.7013  2.3679
    2SAPS   H4Y  223   2.112   4.350   6.123 -1.6364 -0.1940  0.3646
    2SAPS   C35  224   2.173   4.506   5.985  0.3773  0.3831  0.7983
    2SAPS   H5X  225   2.275   4.468   6.008 -0.9339 -3.2331  1.2337
    2SAPS   H5Y  226   2.167   4.616   5.971 -3.9237  0.5782  2.5292
    2SAPS   C36  227   2.119   4.437   5.859 -0.2315 -0.0538  0.0912
    2SAPS   H6X  228   2.014   4.465   5.838  0.0936 -0.2289 -1.9320
    2SAPS   H6Y  229   2.124   4.331   5.890  0.1599  0.2490  1.1467
    2SAPS   C37  230   2.206   4.453   5.738 -0.7532 -0.0290 -1.5549
    2SAPS   H7X  231   2.301   4.398   5.755 -1.7161 -1.3436 -0.1733
    2SAPS   H7Y  232   2.223   4.563   5.735  0.0578 -0.1606 -2.1310
    2SAPS   C38  233   2.149   4.393   5.610  1.0880 -0.0443 -0.4374
    2SAPS   H8X  234   2.049   4.437   5.593 -0.2781 -2.1482  1.5600
    2SAPS   H8Y  235   2.141   4.283   5.620  2.7996 -0.0508  1.8495
    2SAPS   C39  236   2.238   4.425   5.491 -0.4463 -0.4121  0.0825
    2SAPS   H9X  237   2.339   4.385   5.514  0.0711  0.9434  0.2625
    2SAPS   H9Y  238   2.239   4.536   5.485 -0.7801 -0.4076  0.1121
    2SAPS  C310  239   2.194   4.376   5.358 -0.0927 -0.1497  0.2381
    2SAPS  H10X  240   2.084   4.390   5.359 -0.0218  0.4058  0.3569
    2SAPS  H10Y  241   2.212   4.266   5.360  0.0412 -0.2148  4.1355
    2SAPS  C311  242   2.262   4.449   5.241 -0.0788 -0.1391 -0.6066
    2SAPS  H11X  243   2.373   4.454   5.237 -0.0896  1.6897  0.5336
    2SAPS  H11Y  244   2.238   4.557   5.255 -0.0298 -0.3162  1.0543
    2SAPS  C312  245   2.222   4.390   5.107 -0.0481 -0.5043  0.3944
    2SAPS  H12X  246   2.113   4.401   5.090 -0.3978 -2.4295  1.1977
    2SAPS  H12Y  247   2.235   4.281   5.123  0.1954 -0.5953 -0.3810
    2SAPS  C313  248   2.303   4.445   4.988 -0.0201  0.1149 -0.3394
    2SAPS  H13X  249   2.408   4.427   5.020 -0.2521  1.2643  1.1937
    2SAPS  H13Y  250   2.297   4.555   4.980  0.2307  0.2781  1.2264
    2SAPS  C314  251   2.255   4.382   4.860  0.7973 -0.2409  1.0732
    2SAPS  H14X  252   2.146   4.404   4.855  0.7505 -0.6337  0.3490
    2SAPS  H14Y  253   2.262   4.271   4.857 -0.4918 -0.3686  1.8912
    2SAPS  C315  254   2.323   4.445   4.739 -0.5253  0.2236  0.6383
    2SAPS  H15X  255   2.428   4.413   4.755  0.2918  1.6502 -1.4629
    2SAPS  H15Y  256   2.324   4.556   4.725 -2.6744 -0.0034 -2.0223
    2SAPS  C316  257   2.267   4.364   4.615 -0.0276 -0.3791  0.2846
    2SAPS  H16X  258   2.157   4.347   4.617 -0.1657 -0.4851 -2.8245
    2SAPS  H16Y  259   2.307   4.261   4.622 -2.4808 -1.7673 -3.0990
    2SAPS  C317  260   2.330   4.419   4.485 -0.4309 -0.1724 -0.0362
    2SAPS  H17X  261   2.341   4.339   4.410 -2.0007 -0.1477 -0.3156
    2SAPS  H17Y  262   2.436   4.450   4.502  0.3370 -0.6100 -3.4080
    2SAPS  C318  263   2.260   4.547   4.434  0.1286  0.0617  0.0093
    2SAPS  H18X  264   2.237   4.618   4.516  0.0943  1.3303 -1.0739
    2SAPS  H18Y  265   2.162   4.516   4.394 -0.8559  0.8031  1.7527
    2SAPS  H18Z  266   2.332   4.591   4.362  0.0892 -0.0083 -0.0730
    3SAPS     N  267   2.884   3.099   6.832 -0.1014  0.1163 -0.4166
    3SAPS   HN1  268   2.958   3.172   6.841  1.7666 -1.5214 -1.8414
    3SAPS   HN2  269   2.833   3.109   6.742 -0.3902  1.4259 -0.1336
    3SAPS   HN3  270   2.814   3.119   6.907  0.9023 -0.1093  0.5974
    3SAPS   C12  271   2.933   2.966   6.856 -0.3609  0.3041 -0.2345
    3SAPS  H12A  272   3.008   2.957   6.933  0.2174 -0.5689 -0.8726
    3SAPS   C13  273   2.824   2.860   6.890  0.6361 -0.4106  0.4859
    3SAPS  O13A  274   2.713   2.895   6.928 -0.2207  0.6366 -0.4883
    3SAPS  O13B  275   2.844   2.737   6.877  0.0816 -0.1597  0.1774
    3SAPS   C11  276   2.995   2.913   6.722  0.0155 -0.3652 -0.6368
    3SAPS  H11A  277   2.914   2.912   6.646 -0.0520 -2.1867 -0.5798
    3SAPS  H11B  278   3.025   2.807   6.739  2.6433  0.3757 -0.1962
    3SAPS     P  279   3.260   2.927   6.725  0.1404 -0.0373  0.3094
    3SAPS   O13  280   3.353   3.037   6.739 -0.0852  0.0046 -0.4721
    3SAPS   O14  281   3.238   2.856   6.853 -0.6619  0.1934  0.2231
    3SAPS   O12  282   3.113   2.982   6.677 -0.3846 -0.0535 -0.3389
    3SAPS   O11  283   3.314   2.834   6.607 -0.1339 -0.0862  0.6569
    3SAPS    C1  284   3.273   2.695   6.606  0.3735 -0.1921 -0.8308
    3SAPS    HA  285   3.363   2.638   6.637  0.5965  1.2091  1.3628
    3SAPS    HB  286   3.212   2.660   6.693  1.7269  1.4429  0.8725
    3SAPS    C2  287   3.206   2.640   6.478  0.3549  0.4988  0.5727
    3SAPS    HS  288   3.141   2.553   6.500 -1.4725  1.5958 -0.2646
    3SAPS   O21  289   3.315   2.612   6.387  0.2099 -0.0955 -0.2338
    3SAPS   C21  290   3.361   2.486   6.393 -0.1959  0.5684 -0.1826
    3SAPS   O22  291   3.325   2.409   6.484 -0.1303  0.6158  0.1662
    3SAPS   C22  292   3.458   2.460   6.283  0.1139  0.1609 -0.7744
    3SAPS   H2R  293   3.405   2.484   6.189 -2.6837 -0.0365  0.6490
    3SAPS   H2S  294   3.530   2.543   6.298  0.9450 -0.6590 -0.0962
    3SAPS    C3  295   3.103   2.731   6.398  0.4056  0.0963  0.1403
    3SAPS    HX  296   3.016   2.749   6.464  1.5343 -0.7171  1.9002
    3SAPS    HY  297   3.063   2.680   6.307  1.5876  1.3792 -1.1520
    3SAPS   O31  298   3.159   2.862   6.363  0.3510  0.0427  0.3333
    3SAPS   C31  299   3.220   2.864   6.245 -0.3930 -0.1976 -0.0849
    3SAPS   O32  300   3.221   2.781   6.154  0.1367 -0.5745 -0.0416
    3SAPS   C32  301   3.291   2.995   6.230 -0.4670 -0.4698  0.8951
    3SAPS   H2X  302   3.400   2.977   6.219  0.0204  0.6666  3.1935
    3SAPS   H2Y  303   3.274   3.042   6.329 -1.9080 -0.2856  0.5852
    3SAPS   C23  304   3.530   2.327   6.276  0.5424 -0.5606  0.0711
    3SAPS   H3R  305   3.463   2.241   6.253  2.0130 -1.7499  0.0999
    3SAPS   H3S  306   3.567   2.314   6.380 -0.8231  2.1201  0.9823
    3SAPS   C24  307   3.624   2.320   6.156 -0.0119 -0.2800  0.3262
    3SAPS   H4R  308   3.574   2.362   6.066  2.2633 -0.4192 -1.0680
    3SAPS   H4S  309   3.658   2.216   6.140 -2.3998 -1.0271 -0.2013
    3SAPS   C25  310   3.745   2.403   6.181  0.1878 -0.4304  0.1549
    3SAPS   H5R  311   3.761   2.427   6.287 -1.5933  0.2098  0.3061
    3SAPS   C26  312   3.839   2.448   6.094  0.1558 -0.2957  0.5906
    3SAPS   H6R  313   3.934   2.490   6.131  1.0380 -3.2344  1.8945
    3SAPS   C27  314   3.849   2.427   5.946 -0.5946  0.1759 -0.3219
    3SAPS   H7R  315   3.755   2.402   5.892 -1.1556  0.5133  0.4861
    3SAPS   H7S  316   3.909   2.335   5.927 -0.1052  1.1508 -4.5226
    3SAPS   C28  317   3.920   2.540   5.866 -0.9616 -0.2513  0.1367
    3SAPS   H8R  318   3.967   2.618   5.927 -1.3151 -0.7283  1.0445
    3SAPS   C29  319   3.906   2.546   5.731 -0.6089  0.2764 -0.9671
    3SAPS   H9R  320   3.966   2.627   5.687 -0.8105  1.0802  0.1835
    3SAPS  C210  321   3.847   2.441   5.647 -0.6845 -0.2121  0.7605
    3SAPS  H10R  322   3.750   2.486   5.616 -0.1423 -0.0134 -0.7317
    3SAPS  H10S  323   3.809   2.351   5.701 -1.6666  0.1889  0.7593
    3SAPS  C211  324   3.931   2.397   5.528  0.3998  0.7505 -0.9042
    3SAPS  H11R  325   4.013   2.326   5.548 -2.0138 -1.3021  2.9787
    3SAPS  C212  326   3.930   2.463   5.410  0.7083 -1.0350 -0.3272
    3SAPS  H12R  327   3.977   2.426   5.318  1.4349  1.8834 -1.2295
    3SAPS  C213  328   3.835   2.586   5.379 -0.0569 -0.3423  0.2935
    3SAPS  H13R  329   3.893   2.681   5.378 -3.4461  1.8725 -0.8403
    3SAPS  H13S  330   3.762   2.605   5.461  2.9583 -1.4073  3.4936
    3SAPS  C214  331   3.767   2.566   5.242  0.5105  0.1418  0.0981
    3SAPS  H14R  332   3.667   2.522   5.240  0.6507 -0.1721 -0.1051
    3SAPS  C215  333   3.813   2.612   5.125  0.4337  0.3935 -0.3417
    3SAPS  H15R  334   3.743   2.601   5.041 -2.3103  2.4540  1.4913
    3SAPS  C216  335   3.934   2.693   5.088  0.4833  0.1125  0.0560
    3SAPS  H16R  336   4.028   2.637   5.109  1.3579  2.2990  2.5663
    3SAPS  H16S  337   3.941   2.774   5.164  0.8434  1.5905 -1.5038
    3SAPS  C217  338   3.944   2.757   4.949  0.0981  0.2592 -0.0868
    3SAPS  H17R  339   4.034   2.823   4.950  1.7673 -1.5864  4.8615
    3SAPS  H17S  340   3.854   2.817   4.925 -1.7301 -1.9885  0.9041
    3SAPS  C218  341   3.971   2.654   4.839 -0.2302 -0.0258 -0.0175
    3SAPS  H18R  342   3.892   2.577   4.849 -0.6389  0.4072  0.1146
    3SAPS  H18S  343   4.070   2.606   4.851  1.2393  2.4684 -1.3733
    3SAPS  C219  344   3.968   2.714   4.697 -0.0949 -0.4119 -0.0594
    3SAPS  H19R  345   3.887   2.790   4.686  1.3586  1.2558  0.2067
    3SAPS  H19S  346   4.058   2.780   4.696  0.6438 -1.3951  0.6412
    3SAPS  C220  347   3.968   2.601   4.596 -0.6096  0.2161  0.0217
    3SAPS  H20R  348   3.962   2.637   4.491  0.7215  2.6224  0.7103
    3SAPS  H20S  349   3.881   2.533   4.612  0.2329 -1.2009 -1.1829
    3SAPS  H20T  350   4.066   2.550   4.606 -0.4453  0.2958 -1.0508
    3SAPS   C33  351   3.247   3.089   6.121 -0.2552 -0.2526  0.3279
    3SAPS   H3X  352   3.154   3.143   6.150 -0.2881 -1.4687  2.6931
    3SAPS   H3Y  353   3.228   3.037   6.025 -0.9551  0.5792 -0.0064
    3SAPS   C34  354   3.350   3.191   6.083 -0.1335 -0.9403  0.2467
    3SAPS   H4X  355   3.444   3.132   6.071  0.8662  0.6373 -0.0418
    3SAPS   H4Y  356   3.367   3.257   6.172  1.0661 -0.2339 -0.4722
    3SAPS   C35  357   3.311   3.297   5.971 -0.4271 -0.4149 -0.3408
    3SAPS   H5X  358   3.202   3.321   5.975 -0.2547  0.3039  1.9345
    3SAPS   H5Y  359   3.373   3.387   5.994 -0.1590 -1.1259  1.9821
    3SAPS   C36  360   3.339   3.240   5.830  0.3731 -0.3053 -0.4086
    3SAPS   H6X  361   3.277   3.153   5.800 -1.7933  0.9208  0.2562
    3SAPS   H6Y  362   3.445   3.215   5.811  0.3252 -0.2076 -0.8223
    3SAPS   C37  363   3.309   3.335   5.711  0.6293 -0.2687  0.6065
    3SAPS   H7X  364   3.376   3.423   5.713  1.3089 -0.5846 -2.5486
    3SAPS   H7Y  365   3.210   3.380   5.733  0.2044  0.4088 -2.2716
    3SAPS   C38  366   3.313   3.263   5.577  1.0543 -0.0787 -0.5424
    3SAPS   H8X  367   3.240   3.180   5.587  1.2975 -0.3008 -0.5949
    3SAPS   H8Y  368   3.410   3.213   5.556  1.4714 -0.1925  1.5244
    3SAPS   C39  369   3.274   3.347   5.462  0.0960 -0.2273 -0.0323
    3SAPS   H9X  370   3.352   3.424   5.444 -1.3520  2.7226  4.4871
    3SAPS   H9Y  371   3.182   3.400   5.496  1.8126  3.6061 -0.8466
    3SAPS  C310  372   3.263   3.267   5.339 -1.0069  0.1578 -0.5874
    3SAPS  H10X  373   3.191   3.183   5.348 -1.4177  0.4492 -1.0735
    3SAPS  H10Y  374   3.365   3.225   5.329 -1.0244 -0.1813  0.5744
    3SAPS  C311  375   3.247   3.357   5.214 -0.1919 -0.5992 -0.5724
    3SAPS  H11X  376   3.322   3.438   5.224  0.0586 -1.0103  1.2626
    3SAPS  H11Y  377   3.147   3.405   5.205 -0.8054 -1.6427  0.4207
    3SAPS  C312  378   3.270   3.286   5.076 -0.5424  0.1082  0.3410
    3SAPS  H12X  379   3.192   3.207   5.065  0.5730 -1.4405  2.6622
    3SAPS  H12Y  380   3.372   3.242   5.082 -0.1596  0.8245 -0.6364
    3SAPS  C313  381   3.275   3.388   4.966 -0.4230 -0.4812  0.0723
    3SAPS  H13X  382   3.290   3.336   4.869 -4.9059 -0.9585 -0.5985
    3SAPS  H13Y  383   3.364   3.454   4.976 -0.1109 -0.9465  0.4348
    3SAPS  C314  384   3.146   3.475   4.933  0.1161  1.0038  0.1237
    3SAPS  H14X  385   3.118   3.532   5.023 -1.1515  0.3777  0.1588
    3SAPS  H14Y  386   3.064   3.404   4.910  0.1313  1.0914 -0.2133
    3SAPS  C315  387   3.175   3.573   4.808  0.1911 -0.5633 -0.1880
    3SAPS  H15X  388   3.191   3.511   4.718 -1.7463  0.8895 -1.6186
    3SAPS  H15Y  389   3.273   3.624   4.817  0.0597 -0.1974 -0.7696
    3SAPS  C316  390   3.059   3.682   4.790 -0.1991 -0.0785 -0.3022
    3SAPS  H16X  391   3.043   3.725   4.891 -0.6348  0.5720 -0.6427
    3SAPS  H16Y  392   2.969   3.623   4.764 -0.8981  0.2178  1.3256
    3SAPS  C317  393   3.088   3.773   4.679  0.0520  0.5013  0.3673
    3SAPS  H17X  394   3.124   3.727   4.584 -0.1980  0.9170  0.0638
    3SAPS  H17Y  395   3.167   3.848   4.703  0.2306 -0.1765  1.9931
    3SAPS  C318  396   2.973   3.867   4.634 -0.6146  0.0857  1.3305
    3SAPS  H18X  397   3.003   3.948   4.565 -2.5835 -2.1103 -2.4209
    3SAPS  H18Y  398   2.933   3.922   4.722 -2.4212 -0.4801  0.8981
    3SAPS  H18Z  399   2.891   3.811   4.584 -0.4738  1.8176 -1.0026
    4SAPS     N  400   3.337   5.854   7.094 -0.7468 -0.1758  0.0447
    4SAPS   HN1  401   3.371   5.875   7.190 -1.8745 -2.3533  0.9863
    4SAPS   HN2  402   3.422   5.817   7.047 -1.0627  0.0855 -0.7446
    4SAPS   HN3  403   3.297   5.940   7.050  0.2924 -0.3490 -1.2915
    4SAPS   C12  404   3.242   5.738   7.095  0.2472 -0.6529  0.2478
    4SAPS  H12A  405   3.220   5.713   6.992 -1.1194  2.3726 -0.3112
    4SAPS   C13  406   3.290   5.621   7.176 -0.5113 -0.0320 -0.5385
    4SAPS  O13A  407   3.401   5.615   7.231 -1.1600  0.4932 -0.2117
    4SAPS  O13B  408   3.226   5.513   7.168  0.1021  0.5494  0.5511
    4SAPS   C11  409   3.100   5.778   7.152  0.3259  0.3776 -0.8439
    4SAPS  H11A  410   3.122   5.821   7.252 -0.7526  0.0861 -0.4644
    4SAPS  H11B  411   3.039   5.687   7.169  1.7740 -0.0655  2.8112
    4SAPS     P  412   2.916   5.844   6.975  0.0371 -0.2346 -0.3527
    4SAPS   O13  413   2.836   5.739   7.047  0.1870 -0.7093  0.1354
    4SAPS   O14  414   2.863   5.981   6.951 -0.1861  0.0152  0.2223
    4SAPS   O12  415   3.037   5.879   7.070  0.1061  0.1700  0.4989
    4SAPS   O11  416   2.997   5.786   6.849  0.6806 -0.6972 -0.7237
    4SAPS    C1  417   3.101   5.864   6.782 -0.5115  0.5391  0.1041
    4SAPS    HA  418   3.147   5.938   6.851 -1.1657 -1.1966  2.5463
    4SAPS    HB  419   3.182   5.792   6.760  0.0197  0.8831  0.9167
    4SAPS    C2  420   3.042   5.910   6.645  0.2857 -0.3810  0.0923
    4SAPS    HS  421   2.962   5.986   6.652  2.0922  1.8208 -1.7573
    4SAPS   O21  422   3.008   5.806   6.555 -0.0621 -0.0223 -0.6530
    4SAPS   C21  423   2.879   5.777   6.550  0.4595  0.2788  0.1784
    4SAPS   O22  424   2.789   5.817   6.620 -0.6071  0.0305  0.0259
    4SAPS   C22  425   2.860   5.683   6.430  0.3653 -0.6846 -0.5990
    4SAPS   H2R  426   2.938   5.604   6.438  1.2747  0.1804 -0.6948
    4SAPS   H2S  427   2.759   5.638   6.433 -0.5679  1.3384  0.2478
    4SAPS    C3  428   3.161   5.985   6.568  0.5186  0.1230 -0.7747
    4SAPS    HX  429   3.248   5.917   6.552  0.6407 -0.2111  1.0502
    4SAPS    HY  430   3.194   6.076   6.621 -0.0961  1.5237 -2.7085
    4SAPS   O31  431   3.120   6.023   6.427  0.4499  0.5302 -0.4019
    4SAPS   C31  432   3.042   6.130   6.432 -0.5693  0.4382 -0.6016
    4SAPS   O32  433   3.013   6.200   6.527 -0.3408 -0.0656  0.4796
    4SAPS   C32  434   2.990   6.148   6.291  0.0213 -0.4714 -0.1275
    4SAPS   H2X  435   2.897   6.087   6.286  0.4402 -1.0356 -1.5820
    4SAPS   H2Y  436   3.074   6.105   6.232  0.7777 -0.2152  0.7423
    4SAPS   C23  437   2.893   5.757   6.298 -0.2829  0.3950  0.2215
    4SAPS   H3R  438   2.914   5.667   6.237 -2.3943  1.3780 -2.1055
    4SAPS   H3S  439   2.984   5.821   6.296 -0.1825  0.2559 -2.4334
    4SAPS   C24  440   2.778   5.840   6.248  0.4343 -0.0506  0.2055
    4SAPS   H4R  441   2.812   5.890   6.155  1.7245  0.5225  0.9626
    4SAPS   H4S  442   2.744   5.932   6.301  1.5578  2.5033 -3.1559
    4SAPS   C25  443   2.651   5.759   6.228 -0.1614  0.4144  0.2893
    4SAPS   H5R  444   2.597   5.726   6.319  0.2576 -1.1379 -0.0024
    4SAPS   C26  445   2.611   5.712   6.106  0.2587 -0.1289 -0.6692
    4SAPS   H6R  446   2.504   5.690   6.099 -0.5346  3.5944 -2.1323
    4SAPS   C27  447   2.681   5.728   5.979 -0.4963  0.1241 -0.1820
    4SAPS   H7R  448   2.654   5.639   5.918 -1.7925  0.0132  0.5334
    4SAPS   H7S  449   2.787   5.705   6.006 -1.4957 -2.8109  1.7569
    4SAPS   C28  450   2.653   5.859   5.904 -0.3269 -0.1141  0.3496
    4SAPS   H8R  451   2.548   5.894   5.898 -0.2020  0.4262  1.2094
    4SAPS   C29  452   2.742   5.928   5.841 -0.5406  0.1029  0.4171
    4SAPS   H9R  453   2.707   6.019   5.791 -2.7790  0.5989  2.6797
    4SAPS  C210  454   2.891   5.892   5.809 -0.1485 -0.7327  0.2797
    4SAPS  H10R  455   2.908   5.785   5.835 -1.6758 -0.6174  2.0039
    4SAPS  H10S  456   2.954   5.960   5.869 -2.2579  1.2246  0.4197
    4SAPS  C211  457   2.913   5.910   5.659 -0.0679 -0.6205  0.2699
    4SAPS  H11R  458   2.861   5.832   5.602  1.6450 -1.2714 -0.4973
    4SAPS  C212  459   2.971   6.014   5.602 -0.1687  0.0937  0.6757
    4SAPS  H12R  460   2.969   6.018   5.492 -2.1314 -2.4585  0.5355
    4SAPS  C213  461   3.036   6.129   5.680  0.2963  0.0214 -0.2765
    4SAPS  H13R  462   3.116   6.098   5.751 -0.0040  0.4851  0.2785
    4SAPS  H13S  463   2.955   6.167   5.746 -1.1752 -1.5163 -1.1415
    4SAPS  C214  464   3.095   6.240   5.589  1.0308 -0.1766 -0.1086
    4SAPS  H14R  465   3.189   6.217   5.536  0.6367  0.0442 -0.9066
    4SAPS  C215  466   3.027   6.357   5.561 -0.8359  0.7559 -0.5282
    4SAPS  H15R  467   3.076   6.426   5.490 -1.6554  0.5843 -1.2815
    4SAPS  C216  468   2.899   6.403   5.628  0.5279 -0.0133  0.3442
    4SAPS  H16R  469   2.851   6.333   5.699 -1.5710  1.4435  0.4544
    4SAPS  H16S  470   2.820   6.427   5.554  1.7588  0.7115 -0.7802
    4SAPS  C217  471   2.943   6.533   5.704  0.3323 -0.2910 -0.5620
    4SAPS  H17R  472   2.994   6.496   5.796  0.5165  0.6069 -0.2903
    4SAPS  H17S  473   2.858   6.594   5.743  0.4680 -0.1690 -0.4560
    4SAPS  C218  474   3.024   6.635   5.627  0.3730 -0.1451 -0.5805
    4SAPS  H18R  475   3.127   6.602   5.603  1.3544  2.4968 -0.4092
    4SAPS  H18S  476   3.048   6.720   5.694 -0.6867 -0.3428  0.0791
    4SAPS  C219  477   2.947   6.695   5.512  0.2412 -0.2838  1.3275
    4SAPS  H19R  478   2.854   6.739   5.553  0.6918  0.1208  1.9355
    4SAPS  H19S  479   2.919   6.617   5.439 -0.6955 -0.4593  1.8621
    4SAPS  C220  480   3.019   6.811   5.443  0.9419 -0.4595 -0.1513
    4SAPS  H20R  481   3.059   6.881   5.519  0.3024  1.3167 -1.3844
    4SAPS  H20S  482   2.960   6.871   5.371  0.8514  1.1949  1.2396
    4SAPS  H20T  483   3.110   6.772   5.391  1.0142  0.6500 -0.8904
    4SAPS   C33  484   2.957   6.295   6.245 -0.0659  0.2059  0.0702
    4SAPS   H3X  485   3.058   6.332   6.219 -1.1350  1.8198 -2.1296
    4SAPS   H3Y  486   2.898   6.349   6.323  1.4701  2.7874 -0.4378
    4SAPS   C34  487   2.877   6.309   6.119  0.1348 -0.7795 -0.1897
    4SAPS   H4X  488   2.924   6.263   6.030 -0.5002  0.4661 -1.1992
    4SAPS   H4Y  489   2.875   6.415   6.088 -0.1544 -1.1766 -1.6173
    4SAPS   C35  490   2.735   6.250   6.132  0.2489 -0.2799  0.9425
    4SAPS   H5X  491   2.698   6.283   6.232  0.7325 -0.5559  1.2189
    4SAPS   H5Y  492   2.750   6.140   6.140  3.1675  0.0252  1.0238
    4SAPS   C36  493   2.637   6.268   6.009 -0.2967 -0.6638 -0.1211
    4SAPS   H6X  494   2.675   6.216   5.918  2.1569 -1.3949  1.2300
    4SAPS   H6Y  495   2.628   6.376   5.988 -0.1882 -0.6389 -0.0443
    4SAPS   C37  496   2.495   6.221   6.040 -0.0886 -0.2955 -0.3709
    4SAPS   H7X  497   2.457   6.261   6.136 -1.6637 -0.4687 -0.9014
    4SAPS   H7Y  498   2.491   6.111   6.053  0.1398 -0.2772 -0.1297
    4SAPS   C38  499   2.384   6.266   5.941  0.0106 -0.1012  0.0858
    4SAPS   H8X  500   2.378   6.376   5.933  1.7473 -0.0767 -1.8032
    4SAPS   H8Y  501   2.289   6.223   5.979  0.0847 -1.9635 -1.6350
    4SAPS   C39  502   2.403   6.210   5.796 -0.2884  0.5438 -0.4668
    4SAPS   H9X  503   2.433   6.103   5.799 -1.2037  0.2668 -0.9101
    4SAPS   H9Y  504   2.491   6.271   5.763 -0.8570  1.5864 -0.1068
    4SAPS  C310  505   2.281   6.221   5.704  0.2746  0.1614  0.4322
    4SAPS  H10X  506   2.251   6.328   5.703 -2.1712 -0.4782 -0.1503
    4SAPS  H10Y  507   2.190   6.163   5.729  0.6561 -0.4571  0.3969
    4SAPS  C311  508   2.321   6.200   5.558 -0.5131  0.9732  0.3957
    4SAPS  H11X  509   2.362   6.096   5.558 -2.6904  0.0259 -0.9798
    4SAPS  H11Y  510   2.404   6.265   5.523 -0.7228  0.6320 -0.7873
    4SAPS  C312  511   2.197   6.202   5.459  0.4121  1.0757 -0.3564
    4SAPS  H12X  512   2.169   6.309   5.449 -0.0753  0.8959 -0.9624
    4SAPS  H12Y  513   2.121   6.133   5.502  0.4134  2.0271  1.2647
    4SAPS  C313  514   2.234   6.149   5.317  0.0139  0.6515  0.5214
    4SAPS  H13X  515   2.295   6.057   5.331  0.3208  0.5519 -1.1603
    4SAPS  H13Y  516   2.294   6.217   5.253  0.4598 -0.5523 -0.3916
    4SAPS  C314  517   2.110   6.106   5.231  0.3234  0.8574 -0.5278
    4SAPS  H14X  518   2.038   6.188   5.252  0.7502  0.9574  0.6137
    4SAPS  H14Y  519   2.068   6.011   5.269  0.3492  1.3386  0.7528
    4SAPS  C315  520   2.160   6.090   5.088  0.4503  0.3270  0.4566
    4SAPS  H15X  521   2.234   6.167   5.057 -1.3721  1.6573 -0.8626
    4SAPS  H15Y  522   2.079   6.107   5.013  1.7139  1.2011 -0.7562
    4SAPS  C316  523   2.226   5.948   5.062 -0.4263  0.4542  0.5425
    4SAPS  H16X  524   2.162   5.867   5.102  1.6042 -1.9022 -0.7399
    4SAPS  H16Y  525   2.322   5.925   5.114 -0.7518 -2.1962  0.1058
    4SAPS  C317  526   2.230   5.919   4.908 -0.4012 -0.7597 -0.2126
    4SAPS  H17X  527   2.300   5.835   4.890  0.2119 -0.8483  2.2034
    4SAPS  H17Y  528   2.274   6.005   4.853 -0.5595 -2.0805 -2.5233
    4SAPS  C318  529   2.092   5.885   4.842 -0.7742 -0.6188 -0.2645
    4SAPS  H18X  530   2.056   5.790   4.888  0.9839 -1.6564 -0.9387
    4SAPS  H18Y  531   2.100   5.864   4.733  3.2726 -0.2869 -0.1707
    4SAPS  H18Z  532   2.011   5.958   4.865 -1.7993 -2.1529  1.2621
    5SAPS     N  533   5.886   2.361   6.804 -0.0527 -0.4269  0.0506
    5SAPS   HN1  534   5.960   2.423   6.844 -1.8518  2.5989 -1.0035
    5SAPS   HN2  535   5.905   2.336   6.705  3.5873 -2.9168  1.1570
    5SAPS   HN3  536   5.790   2.396   6.822  0.5334  1.0826  0.4416
    5SAPS   C12  537   5.923   2.233   6.877  0.7514  0.9890  0.3982
    5SAPS  H12A  538   6.011   2.195   6.827 -0.0800 -1.7702  0.8950
    5SAPS   C13  539   5.945   2.243   7.026  0.1890  0.3940  0.3790
    5SAPS  O13A  540   5.992   2.144   7.093  0.1033 -0.1594  0.3316
    5SAPS  O13B  541   5.934   2.357   7.080 -0.2211  0.4875 -0.6414
    5SAPS   C11  542   5.814   2.131   6.845  0.1885  0.0031 -0.4431
    5SAPS  H11A  543   5.722   2.148   6.904  0.2977  0.5289 -0.4170
    5SAPS  H11B  544   5.858   2.034   6.876 -1.4188  0.5878  4.4696
    5SAPS     P  545   5.726   1.993   6.644  0.1225 -0.0446 -0.0526
    5SAPS   O13  546   5.834   1.901   6.646 -0.3600  1.3724 -0.1008
    5SAPS   O14  547   5.609   1.960   6.723  0.2673 -0.1875 -0.6311
    5SAPS   O12  548   5.778   2.129   6.706  0.1600 -0.8087  0.0345
    5SAPS   O11  549   5.695   2.015   6.495  0.1695 -0.0483 -0.1030
    5SAPS    C1  550   5.565   2.039   6.444 -0.6170  0.2070  0.0452
    5SAPS    HA  551   5.493   2.068   6.524 -0.2563  0.9333  0.1172
    5SAPS    HB  552   5.567   2.123   6.370  2.5493  0.2159  0.0151
    5SAPS    C2  553   5.516   1.917   6.364 -0.0769  0.1308 -0.4339
    5SAPS    HS  554   5.509   1.836   6.439 -0.7846 -0.7192 -1.3870
    5SAPS   O21  555   5.602   1.882   6.260  0.2303  0.0346  0.1109
    5SAPS   C21  556   5.589   1.755   6.229  0.7311  0.5834  0.4470
    5SAPS   O22  557   5.536   1.667   6.295 -0.4484 -0.2760 -0.4176
    5SAPS   C22  558   5.647   1.733   6.086  0.3092 -0.5390  0.4664
    5SAPS   H2R  559   5.554   1.738   6.025 -0.6853  2.5334  2.0113
    5SAPS   H2S  560   5.705   1.822   6.056  0.4631 -0.6602  0.4041
    5SAPS    C3  561   5.378   1.944   6.313 -0.0036  0.3018  0.1808
    5SAPS    HX  562   5.315   1.959   6.403  1.5499  0.5880  1.2533
    5SAPS    HY  563   5.338   1.854   6.263 -2.5072  2.0829 -1.2761
    5SAPS   O31  564   5.372   2.067   6.235  0.1820  0.3473  0.0086
    5SAPS   C31  565   5.385   2.060   6.098  0.5971  0.5350 -0.1425
    5SAPS   O32  566   5.405   1.959   6.038  0.4780  0.4373  0.1488
    5SAPS   C32  567   5.366   2.202   6.044 -0.2705  0.2646  0.3102
    5SAPS   H2X  568   5.407   2.208   5.941 -1.7787  1.2626 -0.2639
    5SAPS   H2Y  569   5.420   2.276   6.106 -0.0477  1.2629 -1.0143
    5SAPS   C23  570   5.737   1.610   6.073 -0.5302  0.1411  0.1991
    5SAPS   H3R  571   5.692   1.512   6.098  1.3203 -0.7667  0.1721
    5SAPS   H3S  572   5.827   1.614   6.138 -0.6708 -0.1418  0.4126
    5SAPS   C24  573   5.792   1.605   5.926 -0.1856  0.2694 -0.9021
    5SAPS   H4R  574   5.876   1.532   5.932  0.2514  0.8106 -0.2614
    5SAPS   H4S  575   5.837   1.702   5.897  0.6926 -0.2640 -1.3737
    5SAPS   C25  576   5.683   1.568   5.831 -0.3293  0.1468 -0.1534
    5SAPS   H5R  577   5.606   1.501   5.872  1.0639 -1.5768 -0.2312
    5SAPS   C26  578   5.666   1.614   5.707 -0.2408 -0.2790  0.2712
    5SAPS   H6R  579   5.577   1.586   5.649  0.3605  1.4288 -1.5545
    5SAPS   C27  580   5.756   1.707   5.622  0.0456  0.3504 -0.3861
    5SAPS   H7R  581   5.808   1.662   5.536 -0.7774  1.0218 -1.2568
    5SAPS   H7S  582   5.834   1.754   5.686  0.7232 -0.7037 -0.4193
    5SAPS   C28  583   5.664   1.820   5.586 -0.1799 -0.0268 -0.1135
    5SAPS   H8R  584   5.617   1.873   5.671  1.2493 -2.2609  2.2329
    5SAPS   C29  585   5.644   1.874   5.467  0.5937 -0.4172 -0.5443
    5SAPS   H9R  586   5.565   1.951   5.457 -2.0214 -2.8207  0.1295
    5SAPS  C210  587   5.695   1.820   5.343  0.4347 -0.0908  1.2878
    5SAPS  H10R  588   5.780   1.750   5.356  2.3752  2.0408  0.8082
    5SAPS  H10S  589   5.735   1.902   5.279 -1.1507  0.7420  1.3036
    5SAPS  C211  590   5.589   1.736   5.274  0.3293 -0.6505 -0.4354
    5SAPS  H11R  591   5.528   1.671   5.338 -1.9388  2.0344  0.3362
    5SAPS  C212  592   5.561   1.737   5.141  0.2534 -0.0631  0.4142
    5SAPS  H12R  593   5.474   1.676   5.111  0.0143  0.9594 -1.1206
    5SAPS  C213  594   5.631   1.809   5.024  0.2536  0.7987  0.2666
    5SAPS  H13R  595   5.725   1.856   5.058 -0.5881  1.2437  2.1384
    5SAPS  H13S  596   5.569   1.891   4.982  0.7146  1.0208  0.0201
    5SAPS  C214  597   5.662   1.727   4.903  0.5190  0.2984  0.3104
    5SAPS  H14R  598   5.747   1.659   4.920  0.4208  0.4253  1.4117
    5SAPS  C215  599   5.608   1.720   4.779 -0.5745  0.0873 -0.1189
    5SAPS  H15R  600   5.656   1.658   4.702 -2.6716  2.1992 -3.4133
    5SAPS  C216  601   5.490   1.797   4.725 -0.5290  0.0795 -0.2424
    5SAPS  H16R  602   5.427   1.850   4.799  2.2984 -1.2761  3.4331
    5SAPS  H16S  603   5.430   1.709   4.694  0.3010 -0.9216  0.8971
    5SAPS  C217  604   5.505   1.880   4.592  0.2770  0.2739  0.1208
    5SAPS  H17R  605   5.411   1.883   4.532  0.8705  2.3339 -0.7944
    5SAPS  H17S  606   5.572   1.819   4.527 -1.5220 -0.5416 -1.0541
    5SAPS  C218  607   5.564   2.016   4.623  0.2490 -0.7514 -0.2201
    5SAPS  H18R  608   5.654   1.990   4.682 -1.1352 -1.9484  1.4936
    5SAPS  H18S  609   5.500   2.060   4.702  1.4423 -2.1411  1.5978
    5SAPS  C219  610   5.587   2.105   4.500  0.4034  0.7775 -1.3234
    5SAPS  H19R  611   5.483   2.115   4.463  0.0988 -0.8893 -0.9648
    5SAPS  H19S  612   5.641   2.042   4.427  0.0448 -1.1096 -0.0441
    5SAPS  C220  613   5.655   2.238   4.528 -0.1774 -0.2953  0.2226
    5SAPS  H20R  614   5.592   2.313   4.581  0.4243 -0.9324  1.8951
    5SAPS  H20S  615   5.686   2.289   4.434  0.1575 -2.2215 -0.7594
    5SAPS  H20T  616   5.748   2.215   4.584  1.1832  1.1800 -1.3099
    5SAPS   C33  617   5.217   2.240   6.031  0.3536 -0.1924 -0.3146
    5SAPS   H3X  618   5.211   2.348   6.005 -0.1268 -0.0322  0.4260
    5SAPS   H3Y  619   5.178   2.226   6.134  1.3178 -0.0067  0.0790
    5SAPS   C34  620   5.145   2.168   5.914  0.2269 -0.4396  0.0779
    5SAPS   H4X  621   5.036   2.170   5.935  0.4807  0.9286  1.3372
    5SAPS   H4Y  622   5.171   2.060   5.923 -2.6446 -1.2487 -0.4878
    5SAPS   C35  623   5.167   2.214   5.771 -0.2399  0.2590  1.0066
    5SAPS   H5X  624   5.269   2.205   5.728 -1.0861 -0.4307 -0.9658
    5SAPS   H5Y  625   5.135   2.318   5.750  0.2189  0.2259  0.1117
    5SAPS   C36  626   5.088   2.123   5.669 -0.0285 -0.2540 -0.0486
    5SAPS   H6X  627   5.129   2.022   5.689 -0.5594 -0.3546  0.5445
    5SAPS   H6Y  628   5.118   2.134   5.562  1.1341 -2.5339 -0.0053
    5SAPS   C37  629   4.934   2.119   5.685 -0.5605 -0.0779  0.6744
    5SAPS   H7X  630   4.887   2.220   5.675 -2.7205 -1.1310 -0.4845
    5SAPS   H7Y  631   4.924   2.084   5.789 -1.3171 -2.8770 -0.2569
    5SAPS   C38  632   4.864   2.050   5.568  0.5382  0.1738 -0.4505
    5SAPS   H8X  633   4.868   2.104   5.471 -0.8228  0.1941 -0.5206
    5SAPS   H8Y  634   4.755   2.034   5.587  1.1276 -1.9220  1.6851
    5SAPS   C39  635   4.904   1.908   5.561  0.0572 -0.0299  0.5985
    5SAPS   H9X  636   4.927   1.864   5.661  1.5859  2.6854  1.5477
    5SAPS   H9Y  637   4.996   1.910   5.499 -0.0576  1.3675  0.4550
    5SAPS  C310  638   4.799   1.812   5.501 -0.2296 -0.1710  0.0891
    5SAPS  H10X  639   4.700   1.836   5.545  0.7385  1.4362  1.5066
    5SAPS  H10Y  640   4.826   1.710   5.534  1.5557 -0.6751 -2.5697
    5SAPS  C311  641   4.788   1.813   5.344  0.1038 -0.7059  0.3107
    5SAPS  H11X  642   4.725   1.725   5.318 -0.6529 -0.7691  2.2217
    5SAPS  H11Y  643   4.892   1.800   5.306  1.0899 -0.9728  2.8953
    5SAPS  C312  644   4.707   1.930   5.279 -0.1935  0.4006 -0.9579
    5SAPS  H12X  645   4.759   2.026   5.295  0.8161 -0.4079  0.9628
    5SAPS  H12Y  646   4.619   1.935   5.348  1.8378  2.8700  1.7207
    5SAPS  C313  647   4.675   1.890   5.138  0.1165 -0.9927  0.1194
    5SAPS  H13X  648   4.601   1.807   5.128 -1.3890  0.3373 -0.1118
    5SAPS  H13Y  649   4.769   1.855   5.088  0.3352 -1.6481  0.9707
    5SAPS  C314  650   4.628   2.008   5.045  0.4114 -0.2734 -0.0636
    5SAPS  H14X  651   4.703   2.088   5.068 -2.8365  2.3939  2.3104
    5SAPS  H14Y  652   4.531   2.051   5.079  0.7069  0.6821 -0.3976
    5SAPS  C315  653   4.616   1.972   4.897 -0.5160  0.0187  0.7901
    5SAPS  H15X  654   4.531   1.903   4.883  0.2406 -0.8976  0.5908
    5SAPS  H15Y  655   4.707   1.918   4.864 -0.0835  0.2484  1.5800
    5SAPS  C316  656   4.587   2.102   4.815  0.0756  0.2458 -0.5259
    5SAPS  H16X  657   4.662   2.179   4.843  0.2569  0.3173 -1.2025
    5SAPS  H16Y  658   4.492   2.155   4.838  1.2203  1.3354  2.0926
    5SAPS  C317  659   4.586   2.073   4.669 -0.8380 -0.2604  0.3226
    5SAPS  H17X  660   4.514   1.990   4.649 -0.9072  0.2700 -1.9378
    5SAPS  H17Y  661   4.686   2.032   4.644 -0.9058 -0.6147  0.6266
    5SAPS  C318  662   4.553   2.192   4.570  0.0937  0.4707  0.4252
    5SAPS  H18X  663   4.625   2.276   4.584  0.6951  0.2123 -0.9805
    5SAPS  H18Y  664   4.454   2.230   4.603 -1.0966 -1.9294 -0.1656
    5SAPS  H18Z  665   4.568   2.163   4.464 -1.7067 -1.5333  0.6688
    6SAPS     N  666   0.372   0.527   7.022 -0.0998  0.4289  0.0441
    6SAPS   HN1  667   0.428   0.612   7.042 -1.9850  1.7205  0.1232
    6SAPS   HN2  668   0.311   0.555   6.943 -1.1301 -0.3616  0.5311
    6SAPS   HN3  669   0.309   0.496   7.099 -1.3807  3.0509  0.1621
    6SAPS   C12  670   0.453   0.417   6.973  0.2146  1.3265 -0.6441
    6SAPS  H12A  671   0.500   0.460   6.886 -0.6555  0.7388 -1.4328
    6SAPS   C13  672   0.566   0.367   7.061  0.6089  0.4913 -0.2921
    6SAPS  O13A  673   0.599   0.441   7.159  0.6174 -0.1907  0.4366
    6SAPS  O13B  674   0.654   0.281   7.017  0.1220 -0.2300  0.1809
    6SAPS   C11  675   0.368   0.290   6.941 -0.1022  0.2990 -0.1715
    6SAPS  H11A  676   0.317   0.253   7.033  1.5276 -1.3712  0.1312
    6SAPS  H11B  677   0.440   0.209   6.916  2.0811  1.5291  1.6959
    6SAPS     P  678   0.229   0.205   6.734 -0.5626  0.1479 -0.2335
    6SAPS   O13  679   0.215   0.079   6.807 -0.0154 -0.2375  0.4429
    6SAPS   O14  680   0.112   0.254   6.662  0.1315 -0.2164 -0.7289
    6SAPS   O12  681   0.274   0.318   6.840 -0.3293  0.0022  0.2702
    6SAPS   O11  682   0.348   0.188   6.638 -0.6763  0.3791 -0.0313
    6SAPS    C1  683   0.418   0.300   6.587  0.2926 -0.5575 -0.2473
    6SAPS    HA  684   0.442   0.372   6.668  2.4238 -1.4942  0.0282
    6SAPS    HB  685   0.516   0.267   6.546  0.1227  0.6052 -1.6981
    6SAPS    C2  686   0.353   0.371   6.465  0.1715 -0.4317 -0.2220
    6SAPS    HS  687   0.249   0.401   6.491 -0.6861 -2.4951 -1.0051
    6SAPS   O21  688   0.352   0.278   6.354 -0.1452 -0.1692  0.2798
    6SAPS   C21  689   0.271   0.323   6.250  0.5940  0.4913 -0.7242
    6SAPS   O22  690   0.191   0.418   6.252 -0.3010  0.4867 -0.2417
    6SAPS   C22  691   0.282   0.215   6.143 -1.0812 -0.2937 -0.2926
    6SAPS   H2R  692   0.391   0.192   6.131 -0.8702 -0.2371  1.3790
    6SAPS   H2S  693   0.235   0.120   6.177 -0.0633  0.4002  3.3996
    6SAPS    C3  694   0.438   0.494   6.437 -0.1479  0.1220  0.1118
    6SAPS    HX  695   0.443   0.549   6.533  1.4740 -0.3714  0.3280
    6SAPS    HY  696   0.397   0.570   6.367  0.7037  2.3536  1.9273
    6SAPS   O31  697   0.571   0.452   6.416 -0.2359 -0.6790  0.0323
    6SAPS   C31  698   0.620   0.457   6.283  0.7290 -0.1921  0.5477
    6SAPS   O32  699   0.554   0.494   6.188 -0.0589 -0.0571 -0.0098
    6SAPS   C32  700   0.762   0.398   6.283 -0.8429 -0.1937  0.1022
    6SAPS   H2X  701   0.758   0.326   6.367 -2.8203  0.2392  0.4285
    6SAPS   H2Y  702   0.818   0.492   6.301 -1.9256  0.1825  1.7678
    6SAPS   C23  703   0.214   0.264   6.019 -0.4190 -0.2527 -0.2124
    6SAPS   H3R  704   0.108   0.282   6.044  0.4500  2.3941  2.0798
    6SAPS   H3S  705   0.232   0.187   5.940  4.3262 -0.8538  1.1122
    6SAPS   C24  706   0.274   0.392   5.947  0.4757 -0.2872 -0.4804
    6SAPS   H4R  707   0.283   0.477   6.017 -1.8627 -0.7798  0.5254
    6SAPS   H4S  708   0.201   0.413   5.865  0.3860  1.2404 -0.0506
    6SAPS   C25  709   0.408   0.378   5.875 -0.4078  0.3187  0.4365
    6SAPS   H5R  710   0.491   0.366   5.947 -1.1101  0.1980  1.2365
    6SAPS   C26  711   0.439   0.397   5.746  0.0303  0.6338  0.2145
    6SAPS   H6R  712   0.544   0.385   5.713 -0.4250 -1.5208 -0.6080
    6SAPS   C27  713   0.346   0.442   5.636  0.4749 -0.1490 -0.5728
    6SAPS   H7R  714   0.406   0.474   5.548  0.7450  1.3347  0.1193
    6SAPS   H7S  715   0.297   0.534   5.673  1.5267 -0.2506  1.1778
    6SAPS   C28  716   0.236   0.353   5.589 -0.1520 -0.6266  0.5221
    6SAPS   H8R  717   0.176   0.317   5.674  2.4706 -0.7493  2.4203
    6SAPS   C29  718   0.199   0.314   5.464 -0.0489  0.0266  0.5707
    6SAPS   H9R  719   0.120   0.237   5.462 -0.3396  0.3304  0.1642
    6SAPS  C210  720   0.249   0.366   5.331  0.2104  1.2969 -0.1015
    6SAPS  H10R  721   0.360   0.375   5.337  0.2308  0.7120  0.5161
    6SAPS  H10S  722   0.214   0.470   5.315 -0.3100  1.3166  1.0859
    6SAPS  C211  723   0.218   0.272   5.210 -0.1135 -0.7670  0.5526
    6SAPS  H11R  724   0.264   0.172   5.215  2.7041  0.4150  0.4835
    6SAPS  C212  725   0.141   0.297   5.106 -0.2967  0.2964  0.2959
    6SAPS  H12R  726   0.122   0.212   5.039 -2.6038  0.3011  0.8618
    6SAPS  C213  727   0.066   0.420   5.075  0.3136  0.1222  0.0756
    6SAPS  H13R  728   0.028   0.468   5.168  0.1931 -1.7062  1.0163
    6SAPS  H13S  729  -0.024   0.393   5.014  0.3486  3.4346 -1.6639
    6SAPS  C214  730   0.151   0.525   5.005 -0.3897  0.3656  0.2935
    6SAPS  H14R  731   0.251   0.535   5.050  0.0144  2.8942 -0.9845
    6SAPS  C215  732   0.129   0.598   4.892  0.2614  0.1506 -0.6277
    6SAPS  H15R  733   0.191   0.684   4.863 -1.0460  1.5523  0.4944
    6SAPS  C216  734  -0.006   0.610   4.823  0.0470 -0.1410  0.0270
    6SAPS  H16R  735  -0.037   0.716   4.817 -0.7649 -0.4360 -1.3075
    6SAPS  H16S  736  -0.090   0.545   4.856  0.1757 -1.7183 -2.4906
    6SAPS  C217  737   0.005   0.563   4.672  0.3102 -0.5087 -0.1964
    6SAPS  H17R  738   0.061   0.467   4.681  2.7004  1.0144  4.2181
    6SAPS  H17S  739   0.067   0.640   4.621 -0.4338 -0.8641 -1.6933
    6SAPS  C218  740  -0.126   0.557   4.596  0.1586 -0.2435  0.0503
    6SAPS  H18R  741  -0.107   0.564   4.487  0.8886 -0.4098  0.1613
    6SAPS  H18S  742  -0.182   0.651   4.613 -1.1463 -0.9998  0.0776
    6SAPS  C219  743  -0.220   0.445   4.627 -0.4169  0.3345 -0.4694
    6SAPS  H19R  744  -0.256   0.461   4.731 -0.9071  0.8670 -0.7139
    6SAPS  H19S  745  -0.170   0.347   4.612 -1.6840 -0.1806 -1.4981
    6SAPS  C220  746  -0.344   0.443   4.537  0.7304 -0.1603 -0.1462
    6SAPS  H20R  747  -0.332   0.438   4.426 -2.7121 -1.2588 -0.5767
    6SAPS  H20S  748  -0.411   0.522   4.575  2.3463 -0.6949  4.3546
    6SAPS  H20T  749  -0.404   0.349   4.542  0.6144 -0.1655 -1.3122
    6SAPS   C33  750   0.795   0.333   6.153  0.0228  0.7799 -0.3414
    6SAPS   H3X  751   0.903   0.309   6.150 -0.4411 -1.4080 -1.5269
    6SAPS   H3Y  752   0.768   0.406   6.074  0.7695  0.3088 -1.0410
    6SAPS   C34  753   0.718   0.203   6.120  0.4981  0.2994  0.4144
    6SAPS   H4X  754   0.611   0.219   6.148  0.8230  1.0178  1.2998
    6SAPS   H4Y  755   0.755   0.115   6.175  1.6386 -0.9413 -2.1646
    6SAPS   C35  756   0.730   0.173   5.966  0.4295  0.4273 -0.5072
    6SAPS   H5X  757   0.834   0.143   5.942  0.1354 -1.2928  0.2525
    6SAPS   H5Y  758   0.693   0.255   5.900  2.3296 -0.8482 -3.3614
    6SAPS   C36  759   0.647   0.051   5.927 -0.5182  0.1328  0.2557
    6SAPS   H6X  760   0.544   0.063   5.967 -0.3655 -0.9956  1.0373
    6SAPS   H6Y  761   0.671  -0.046   5.976 -1.8328 -0.2759  0.1237
    6SAPS   C37  762   0.677   0.018   5.782 -0.6110  0.4884 -0.3841
    6SAPS   H7X  763   0.623  -0.076   5.759 -0.1176  0.6701 -2.4659
    6SAPS   H7Y  764   0.784  -0.005   5.765 -0.4047  0.5967  0.6821
    6SAPS   C38  765   0.640   0.127   5.679  0.1323  0.2741  0.5250
    6SAPS   H8X  766   0.697   0.222   5.687 -0.9888  0.9222  1.0254
    6SAPS   H8Y  767   0.533   0.151   5.695  0.3244  0.8607  0.9526
    6SAPS   C39  768   0.653   0.065   5.536 -0.4649 -0.7127 -0.5288
    6SAPS   H9X  769   0.590  -0.025   5.518  1.5617 -2.1197 -0.9813
    6SAPS   H9Y  770   0.763   0.048   5.525  0.3229  1.2056  3.0328
    6SAPS  C310  771   0.615   0.170   5.435 -0.7856  0.2340  0.1597
    6SAPS  H10X  772   0.669   0.266   5.445 -0.6358  0.1356  0.3174
    6SAPS  H10Y  773   0.506   0.191   5.434 -0.7227  0.5421 -0.1513
    6SAPS  C311  774   0.641   0.120   5.290  0.0510 -0.6185 -0.1302
    6SAPS  H11X  775   0.604   0.016   5.275 -0.2419 -0.8252  1.7917
    6SAPS  H11Y  776   0.752   0.119   5.281  0.4722 -3.1904  3.4077
    6SAPS  C312  777   0.590   0.210   5.177 -0.4220  0.9217  0.5060
    6SAPS  H12X  778   0.484   0.241   5.195  0.2007  1.5807  3.5754
    6SAPS  H12Y  779   0.598   0.139   5.092  2.8389 -0.3302  1.7352
    6SAPS  C313  780   0.677   0.329   5.151  0.5956  0.0163 -0.7243
    6SAPS  H13X  781   0.775   0.284   5.122  0.2572  0.0983 -2.0898
    6SAPS  H13Y  782   0.690   0.383   5.246 -0.5868 -0.5031 -0.2498
    6SAPS  C314  783   0.641   0.410   5.027 -0.5332  0.4857 -0.0730
    6SAPS  H14X  784   0.545   0.461   5.051  0.7060  2.3402  1.2328
    6SAPS  H14Y  785   0.633   0.336   4.944  0.1597 -0.0485  0.3257
    6SAPS  C315  786   0.756   0.510   4.988 -0.2951  0.2683  1.0957
    6SAPS  H15X  787   0.842   0.448   4.955  0.1613  0.2330  2.3033
    6SAPS  H15Y  788   0.782   0.566   5.081  0.1974  1.1209  0.4619
    6SAPS  C316  789   0.708   0.616   4.890 -0.2117  0.3296 -0.1375
    6SAPS  H16X  790   0.602   0.642   4.905 -0.4027 -0.8236  0.6351
    6SAPS  H16Y  791   0.707   0.568   4.790  2.2386 -2.5408  1.0373
    6SAPS  C317  792   0.795   0.744   4.879  0.0802 -0.1200 -0.5101
    6SAPS  H17X  793   0.804   0.794   4.978  2.9269 -0.7275 -0.3844
    6SAPS  H17Y  794   0.737   0.814   4.815  0.1559 -1.2093 -1.8236
    6SAPS  C318  795   0.931   0.720   4.817 -0.7318 -0.1861 -0.4074
    6SAPS  H18X  796   0.960   0.617   4.845  1.1228  0.8940  1.9690
    6SAPS  H18Y  797   1.006   0.796   4.849 -1.0445 -0.8131  1.9556
    6SAPS  H18Z  798   0.929   0.719   4.705  1.6369 -1.5756 -0.4913
    7SAPS     N  799   2.653   2.949   7.179 -0.8643  0.2641  0.0622
    7SAPS   HN1  800   2.687   2.882   7.251  0.0892  0.4508 -0.2029
    7SAPS   HN2  801   2.549   2.941   7.177 -0.9339  0.9798  0.3926
    7SAPS   HN3  802   2.693   2.917   7.089  0.7415  0.6990  0.5897
    7SAPS   C12  803   2.689   3.089   7.218 -0.0887 -0.2603 -0.0401
    7SAPS  H12A  804   2.676   3.099   7.325  0.6827 -2.5255  0.3116
    7SAPS   C13  805   2.840   3.120   7.209  0.5035  0.0401 -0.4018
    7SAPS  O13A  806   2.920   3.028   7.173  0.4201 -0.2217  0.2480
    7SAPS  O13B  807   2.889   3.223   7.256 -0.2207 -0.0263  0.1438
    7SAPS   C11  808   2.604   3.199   7.144 -0.1334  0.5449 -0.0668
    7SAPS  H11A  809   2.613   3.292   7.204 -0.8019 -0.9333  2.4496
    7SAPS  H11B  810   2.497   3.170   7.140 -0.3674  1.4544 -3.5878
    7SAPS     P  811   2.579   3.311   6.903  0.0767  0.2414  0.0494
    7SAPS   O13  812   2.550   3.438   6.972  1.0272  0.0090  0.1728
    7SAPS   O14  813   2.662   3.318   6.782 -0.3070  0.1704  0.4485
    7SAPS   O12  814   2.656   3.218   7.008  0.4191 -0.4961  0.8016
    7SAPS   O11  815   2.457   3.228   6.873 -0.2731  0.1433  0.3982
    7SAPS    C1  816   2.453   3.089   6.839 -0.2533  0.2571  0.0777
    7SAPS    HA  817   2.545   3.037   6.875  0.1752 -0.0253 -1.3848
    7SAPS    HB  818   2.356   3.054   6.880  0.3549 -1.4676  0.0985
    7SAPS    C2  819   2.441   3.065   6.687  0.3902 -0.0920 -0.4189
    7SAPS    HS  820   2.533   3.111   6.644  0.8562  0.1650  0.8237
    7SAPS   O21  821   2.321   3.134   6.642  0.0203 -0.2844 -0.2512
    7SAPS   C21  822   2.331   3.187   6.516  1.0209  0.2059  0.2269
    7SAPS   O22  823   2.438   3.196   6.455 -0.1892 -0.1841 -0.1342
    7SAPS   C22  824   2.191   3.231   6.480 -0.4184 -0.4033 -0.4632
    7SAPS   H2R  825   2.120   3.145   6.485  0.7634 -1.5214 -1.8692
    7SAPS   H2S  826   2.158   3.309   6.552 -1.2459 -2.3755  1.4118
    7SAPS    C3  827   2.436   2.915   6.644  0.9024 -0.2598 -0.3487
    7SAPS    HX  828   2.347   2.864   6.686 -1.0486  1.7213 -1.7987
    7SAPS    HY  829   2.524   2.874   6.698  2.6186  0.3070 -2.5546
    7SAPS   O31  830   2.442   2.886   6.504  0.3502  0.3106 -0.0275
    7SAPS   C31  831   2.565   2.887   6.446  0.9814 -0.0351 -0.0873
    7SAPS   O32  832   2.666   2.905   6.505 -0.2680 -0.3348 -0.1136
    7SAPS   C32  833   2.556   2.844   6.297  0.3079 -0.7497 -0.2300
    7SAPS   H2X  834   2.457   2.879   6.262  0.3330 -1.5130 -1.1055
    7SAPS   H2Y  835   2.560   2.733   6.285  0.1769 -0.7010 -0.7072
    7SAPS   C23  836   2.186   3.295   6.336 -0.4841  0.6672  0.6444
    7SAPS   H3R  837   2.286   3.343   6.328 -1.4276  3.2479  3.1187
    7SAPS   H3S  838   2.114   3.379   6.336 -0.6523  0.5642 -1.1903
    7SAPS   C24  839   2.156   3.196   6.217  0.4951  0.2394  0.6834
    7SAPS   H4R  840   2.051   3.163   6.232  0.3513 -1.3605 -2.8499
    7SAPS   H4S  841   2.211   3.100   6.221  0.1328 -0.0491 -0.5501
    7SAPS   C25  842   2.187   3.269   6.088  0.6295 -0.5888  0.1805
    7SAPS   H5R  843   2.133   3.364   6.086 -0.9670 -1.4764 -0.4654
    7SAPS   C26  844   2.279   3.224   5.995 -0.1807  0.1899 -0.1765
    7SAPS   H6R  845   2.312   3.285   5.910  2.4784 -0.8928 -0.0137
    7SAPS   C27  846   2.357   3.088   6.006 -0.1321 -0.0609  0.3292
    7SAPS   H7R  847   2.292   2.998   5.997  1.1176 -0.9148 -0.3894
    7SAPS   H7S  848   2.394   3.079   6.110 -1.4352  0.0950  0.8290
    7SAPS   C28  849   2.465   3.084   5.905 -0.6359  0.0143  1.0557
    7SAPS   H8R  850   2.562   3.117   5.945  1.0561 -1.0798 -1.8617
    7SAPS   C29  851   2.451   3.047   5.775 -0.0027  0.2599  0.1722
    7SAPS   H9R  852   2.537   3.059   5.708 -0.7761 -1.0214 -1.1140
    7SAPS  C210  853   2.325   3.001   5.705 -0.6921  0.0831  0.0983
    7SAPS  H10R  854   2.270   2.945   5.784 -0.0667  0.9818  1.1976
    7SAPS  H10S  855   2.371   2.938   5.626  0.0071  1.0863 -0.3018
    7SAPS  C211  856   2.260   3.125   5.650  0.3763 -0.0816  0.0967
    7SAPS  H11R  857   2.233   3.195   5.730 -1.2367 -0.2013 -0.2898
    7SAPS  C212  858   2.244   3.151   5.515  0.2228  0.4317 -0.8278
    7SAPS  H12R  859   2.202   3.248   5.486 -0.2235  0.8553  1.0938
    7SAPS  C213  860   2.289   3.067   5.395  0.3752 -0.2487 -0.0221
    7SAPS  H13R  861   2.204   3.009   5.354  0.3317 -0.1465 -0.0761
    7SAPS  H13S  862   2.362   2.989   5.426  1.5454  1.5576  2.1112
    7SAPS  C214  863   2.344   3.159   5.283  0.0184  0.1523 -0.2516
    7SAPS  H14R  864   2.385   3.255   5.318 -1.4791  0.6200  0.3100
    7SAPS  C215  865   2.312   3.151   5.149 -0.8683 -0.3509 -0.1860
    7SAPS  H15R  866   2.333   3.227   5.073 -2.0157 -1.0034 -1.1768
    7SAPS  C216  867   2.237   3.037   5.079 -0.3413 -0.3609 -0.2057
    7SAPS  H16R  868   2.227   2.953   5.151  1.7090 -0.3256  0.1857
    7SAPS  H16S  869   2.283   2.993   4.988 -2.1455  0.0599 -1.3859
    7SAPS  C217  870   2.091   3.056   5.052  0.1164  0.7631  1.5344
    7SAPS  H17R  871   2.039   3.061   5.150 -0.9287  0.5361  0.9996
    7SAPS  H17S  872   2.060   2.966   4.995 -0.7296  2.0878 -0.1712
    7SAPS  C218  873   2.058   3.178   4.963 -0.3376 -0.5623  0.2734
    7SAPS  H18R  874   2.111   3.164   4.867  1.2309 -1.0856  1.1889
    7SAPS  H18S  875   2.098   3.263   5.023 -0.2353 -1.2752  1.2279
    7SAPS  C219  876   1.909   3.207   4.940 -0.1328  0.2273 -0.5432
    7SAPS  H19R  877   1.855   3.112   4.916 -1.6887  0.5654  1.3295
    7SAPS  H19S  878   1.906   3.273   4.851  0.9703  2.3886  0.9342
    7SAPS  C220  879   1.840   3.285   5.050  1.0348  0.3595  0.7386
    7SAPS  H20R  880   1.837   3.214   5.136  2.1983 -0.1683  0.3568
    7SAPS  H20S  881   1.732   3.304   5.029  1.2685  1.5748  0.5522
    7SAPS  H20T  882   1.878   3.386   5.076  0.6614  0.1431  2.2343
    7SAPS   C33  883   2.664   2.896   6.202 -0.1760 -0.4911 -0.9536
    7SAPS   H3X  884   2.689   3.004   6.209  2.3556 -1.0597 -0.2993
    7SAPS   H3Y  885   2.623   2.890   6.099  0.3049  0.9064 -1.2499
    7SAPS   C34  886   2.791   2.812   6.196 -0.3322 -0.4525  0.0708
    7SAPS   H4X  887   2.774   2.703   6.207  0.8290 -0.9466 -2.4034
    7SAPS   H4Y  888   2.852   2.836   6.285 -1.4165 -1.6190  1.1698
    7SAPS   C35  889   2.868   2.834   6.063 -0.0527 -0.9251  0.7611
    7SAPS   H5X  890   2.800   2.801   5.981 -1.9858  3.4223  0.3583
    7SAPS   H5Y  891   2.956   2.767   6.058 -0.7232 -1.8005  0.3284
    7SAPS   C36  892   2.917   2.973   6.038 -0.3484 -0.4572 -1.1046
    7SAPS   H6X  893   2.988   2.998   6.119 -1.7724  2.5785 -0.6668
    7SAPS   H6Y  894   2.824   3.033   6.043 -0.6488 -0.9913  0.3568
    7SAPS   C37  895   2.981   2.982   5.896  0.7085 -0.1830 -0.0855
    7SAPS   H7X  896   3.050   2.898   5.871  1.3235  0.2181  0.2477
    7SAPS   H7Y  897   3.030   3.081   5.888 -1.2076  0.6674 -2.9466
    7SAPS   C38  898   2.878   2.978   5.782  0.4673 -0.2526 -0.2959
    7SAPS   H8X  899   2.816   3.069   5.795  2.4872  1.2499 -0.5414
    7SAPS   H8Y  900   2.815   2.888   5.799 -0.6797  0.5812 -0.0216
    7SAPS   C39  901   2.954   2.963   5.652  0.1957 -0.4477  0.0147
    7SAPS   H9X  902   3.012   2.868   5.663  3.1745  1.0722 -1.2895
    7SAPS   H9Y  903   3.037   3.036   5.639  1.9692 -2.6635 -2.0195
    7SAPS  C310  904   2.876   2.959   5.520  0.9950  0.6698 -0.3619
    7SAPS  H10X  905   2.835   3.060   5.498 -0.2632  0.4146  0.7294
    7SAPS  H10Y  906   2.789   2.893   5.541  1.5629  0.0315  0.0182
    7SAPS  C311  907   2.956   2.898   5.408 -0.7458 -0.4086 -0.1910
    7SAPS  H11X  908   3.020   2.813   5.440  1.3127  0.9016 -0.6476
    7SAPS  H11Y  909   3.037   2.971   5.383  0.8475 -1.8497  0.5452
    7SAPS  C312  910   2.883   2.861   5.275 -0.8390  0.1756 -0.0831
    7SAPS  H12X  911   2.820   2.946   5.243  2.3544  3.0933  0.7001
    7SAPS  H12Y  912   2.825   2.769   5.297  0.7295 -1.4043 -2.0954
    7SAPS  C313  913   2.978   2.821   5.158  0.3505  0.1851  0.0788
    7SAPS  H13X  914   3.051   2.740   5.180 -1.2458 -1.8808 -1.7418
    7SAPS  H13Y  915   3.041   2.909   5.130  1.7821 -0.7579  0.2389
    7SAPS  C314  916   2.910   2.765   5.036  0.6504  0.2148 -0.0208
    7SAPS  H14X  917   2.883   2.659   5.055  1.5702 -0.2677 -1.2442
    7SAPS  H14Y  918   2.996   2.767   4.965  1.3916  1.3276  0.8786
    7SAPS  C315  919   2.786   2.841   4.978 -0.4551  0.4455  0.4662
    7SAPS  H15X  920   2.703   2.847   5.051 -0.6618  1.9522  0.1295
    7SAPS  H15Y  921   2.749   2.802   4.881  0.9231 -1.3805  0.6228
    7SAPS  C316  922   2.829   2.990   4.951  1.0565 -0.3040  0.4921
    7SAPS  H16X  923   2.935   2.994   4.918  1.0169 -0.3943  0.3532
    7SAPS  H16Y  924   2.837   3.058   5.039  2.1894  0.7483 -0.3879
    7SAPS  C317  925   2.738   3.064   4.854  0.5632  0.4192  0.0675
    7SAPS  H17X  926   2.724   3.003   4.763 -1.7303 -0.3053  0.8390
    7SAPS  H17Y  927   2.775   3.166   4.831 -0.7362  0.8667 -0.1515
    7SAPS  C318  928   2.589   3.076   4.896 -0.2137 -0.4774  0.4378
    7SAPS  H18X  929   2.589   3.149   4.979 -0.6870 -0.3417  0.3205
    7SAPS  H18Y  930   2.548   2.987   4.948 -0.2930  0.1002  1.3835
    7SAPS  H18Z  931   2.518   3.102   4.815 -0.4726 -0.2015  0.7528
    8SAPS     N  932   1.011   4.030   6.957  0.1032 -0.4240  0.1039
    8SAPS   HN1  933   0.928   4.086   6.985 -0.0293 -0.4722 -0.1910
    8SAPS   HN2  934   1.000   3.991   6.862 -1.9701 -1.4189  0.6947
    8SAPS   HN3  935   1.014   3.948   7.021  0.2616 -0.2595  0.3101
    8SAPS   C12  936   1.138   4.112   6.964 -0.5241 -0.2827 -0.0342
    8SAPS  H12A  937   1.115   4.191   6.894 -0.0438 -1.1371 -1.1976
    8SAPS   C13  938   1.183   4.180   7.093  0.9741 -0.2587 -0.0193
    8SAPS  O13A  939   1.118   4.163   7.201  0.0895  0.7084  0.3258
    8SAPS  O13B  940   1.272   4.273   7.085  0.2053  0.1494 -0.1472
    8SAPS   C11  941   1.250   4.024   6.899  0.0124 -0.1704 -0.1751
    8SAPS  H11A  942   1.342   4.082   6.875  0.1458 -1.1253 -2.2372
    8SAPS  H11B  943   1.210   3.980   6.805  0.3605  1.2914 -1.0266
    8SAPS     P  944   1.303   3.775   6.948 -0.2501  0.3508  0.4209
    8SAPS   O13  945   1.413   3.711   7.017  0.3621  0.5590  0.1952
    8SAPS   O14  946   1.167   3.714   6.973  0.1454  0.0381 -0.5066
    8SAPS   O12  947   1.295   3.922   6.988 -0.1550  0.1569  0.4566
    8SAPS   O11  948   1.337   3.775   6.792  0.4964  0.4044 -0.3786
    8SAPS    C1  949   1.466   3.811   6.744 -0.2287  0.5341 -0.6815
    8SAPS    HA  950   1.519   3.876   6.817 -0.8479 -0.9237  1.1649
    8SAPS    HB  951   1.530   3.727   6.707  1.9398  2.2614 -1.0905
    8SAPS    C2  952   1.450   3.892   6.618  0.1538  0.1309 -0.3876
    8SAPS    HS  953   1.398   3.985   6.648  1.1492  0.3135  0.8204
    8SAPS   O21  954   1.385   3.803   6.526 -1.0831 -1.2220 -0.1423
    8SAPS   C21  955   1.321   3.879   6.438 -0.5234  0.3748 -0.6548
    8SAPS   O22  956   1.306   3.998   6.432 -0.1342 -0.3917 -0.3156
    8SAPS   C22  957   1.256   3.782   6.334 -0.2131 -0.2357  0.0145
    8SAPS   H2R  958   1.344   3.732   6.288  1.2516  0.7813  1.6232
    8SAPS   H2S  959   1.181   3.714   6.380 -0.3138  0.9217  1.6249
    8SAPS    C3  960   1.598   3.909   6.571 -0.2816 -0.5126 -0.3173
    8SAPS    HX  961   1.653   3.813   6.566  0.3202 -0.1413 -0.9696
    8SAPS    HY  962   1.647   3.972   6.648  0.2743 -0.6958 -0.5153
    8SAPS   O31  963   1.609   3.978   6.445 -0.6034  0.6517 -0.2513
    8SAPS   C31  964   1.594   4.118   6.455 -0.4520 -0.0307  0.2613
    8SAPS   O32  965   1.588   4.178   6.562  0.0271 -0.3013 -0.2678
    8SAPS   C32  966   1.587   4.173   6.311 -0.4906 -0.0196  0.1930
    8SAPS   H2X  967   1.484   4.169   6.269  0.7556  2.3018 -3.5565
    8SAPS   H2Y  968   1.648   4.106   6.248 -0.6495 -0.2601  0.2953
    8SAPS   C23  969   1.167   3.858   6.224 -0.5452  0.6554 -0.1813
    8SAPS   H3R  970   1.212   3.956   6.196 -1.6684  0.5943 -2.4043
    8SAPS   H3S  971   1.079   3.893   6.283 -0.3926  0.0341  0.4231
    8SAPS   C24  972   1.113   3.768   6.109  0.2213 -0.3869  0.0008
    8SAPS   H4R  973   1.038   3.695   6.147  0.7005 -0.1788  1.3726
    8SAPS   H4S  974   1.203   3.719   6.067  0.9394 -0.6635  1.7830
    8SAPS   C25  975   1.043   3.866   6.011  0.6375 -0.0879  0.5333
    8SAPS   H5R  976   0.986   3.949   6.055 -0.5123 -0.4469 -0.2177
    8SAPS   C26  977   1.038   3.852   5.880 -0.5149  0.0243  0.6273
    8SAPS   H6R  978   0.996   3.940   5.829 -0.3055 -0.3488 -0.2046
    8SAPS   C27  979   1.078   3.746   5.791  0.4407 -0.3060 -0.3072
    8SAPS   H7R  980   1.048   3.652   5.842 -0.7099  0.3404  0.2281
    8SAPS   H7S  981   1.189   3.754   5.796  0.4688 -0.4881 -0.5972
    8SAPS   C28  982   1.021   3.736   5.654 -0.5356  0.2956  0.3254
    8SAPS   H8R  983   0.911   3.740   5.662 -0.5984  1.6105 -0.7269
    8SAPS   C29  984   1.089   3.720   5.534 -0.1655 -0.2537 -0.5978
    8SAPS   H9R  985   1.035   3.731   5.439  0.7541 -2.3156 -1.4060
    8SAPS  C210  986   1.241   3.695   5.509  0.5512 -0.3952  0.1500
    8SAPS  H10R  987   1.295   3.693   5.606 -1.6649  1.9084  1.5432
    8SAPS  H10S  988   1.294   3.771   5.447 -1.7833 -0.8971 -2.6977
    8SAPS  C211  989   1.233   3.563   5.433  0.5121  0.6026 -0.3081
    8SAPS  H11R  990   1.202   3.483   5.503 -2.0361 -0.0878 -2.0709
    8SAPS  C212  991   1.250   3.535   5.302  0.1027 -0.1301  0.2780
    8SAPS  H12R  992   1.246   3.427   5.284 -0.3996 -0.1806  0.6485
    8SAPS  C213  993   1.302   3.624   5.191 -0.2832 -0.3266  0.4214
    8SAPS  H13R  994   1.381   3.564   5.141 -1.6288 -0.2410 -1.9516
    8SAPS  H13S  995   1.336   3.721   5.234 -0.4774 -0.4720  0.9015
    8SAPS  C214  996   1.180   3.651   5.103  0.7103  0.4148  0.3874
    8SAPS  H14R  997   1.086   3.671   5.157  0.4586 -0.9586  0.4975
    8SAPS  C215  998   1.179   3.650   4.965 -0.2689 -0.2502 -0.7685
    8SAPS  H15R  999   1.091   3.691   4.913 -1.5220  0.0935  1.5191
    8SAPS  C216 1000   1.282   3.601   4.867  0.6971  0.7200  0.2798
    8SAPS  H16R 1001   1.381   3.597   4.918  0.1817  3.1706  1.6443
    8SAPS  H16S 1002   1.287   3.678   4.788  1.1862 -0.0280 -0.4434
    8SAPS  C217 1003   1.246   3.471   4.796 -0.1910 -0.2548  0.2282
    8SAPS  H17R 1004   1.161   3.493   4.728  0.8180 -0.0999 -1.0192
    8SAPS  H17S 1005   1.209   3.396   4.869  1.9506 -1.4238  0.2018
    8SAPS  C218 1006   1.355   3.388   4.730 -0.0029  0.2800  0.1201
    8SAPS  H18R 1007   1.327   3.282   4.746 -0.8010  0.5791  0.7682
    8SAPS  H18S 1008   1.450   3.412   4.783 -1.0006  1.1741  1.5771
    8SAPS  C219 1009   1.379   3.419   4.582 -0.6201  0.2051 -0.3471
    8SAPS  H19R 1010   1.402   3.526   4.567  0.1273  0.3379  1.5984
    8SAPS  H19S 1011   1.286   3.396   4.525  0.3539  0.1110 -1.9734
    8SAPS  C220 1012   1.497   3.345   4.518 -0.5273  0.3323  0.1135
    8SAPS  H20R 1013   1.587   3.331   4.581 -0.7660  1.6549  0.7922
    8SAPS  H20S 1014   1.510   3.384   4.414  0.0763 -2.1024 -0.7863
    8SAPS  H20T 1015   1.453   3.243   4.509 -2.1598  0.8535  1.5772
    8SAPS   C33 1016   1.651   4.315   6.306  0.4652  0.3211  0.3360
    8SAPS   H3X 1017   1.709   4.337   6.397 -0.6549 -0.1641  1.1944
    8SAPS   H3Y 1018   1.571   4.392   6.307  0.5535  0.4386 -0.5480
    8SAPS   C34 1019   1.729   4.344   6.184  1.0118  0.4943  0.1136
    8SAPS   H4X 1020   1.808   4.266   6.191 -0.1651 -0.5860  1.9335
    8SAPS   H4Y 1021   1.772   4.445   6.202  1.1830  0.6151 -0.8885
    8SAPS   C35 1022   1.658   4.339   6.044  0.1868 -0.4233 -0.7492
    8SAPS   H5X 1023   1.573   4.411   6.043  0.3944 -0.1252  0.5404
    8SAPS   H5Y 1024   1.610   4.241   6.024  0.6987 -0.6726 -0.7689
    8SAPS   C36 1025   1.739   4.363   5.917  0.0257 -0.2582 -0.0319
    8SAPS   H6X 1026   1.843   4.323   5.920  0.0934 -0.0461  1.7319
    8SAPS   H6Y 1027   1.741   4.474   5.914 -0.6696 -0.2593 -0.7770
    8SAPS   C37 1028   1.677   4.316   5.790 -0.2402  0.2364  0.1959
    8SAPS   H7X 1029   1.568   4.333   5.791 -0.1282  0.9716  0.3795
    8SAPS   H7Y 1030   1.688   4.206   5.776 -3.0161  0.2255 -3.6342
    8SAPS   C38 1031   1.739   4.367   5.654  0.4979  0.7134 -0.3711
    8SAPS   H8X 1032   1.848   4.346   5.648  0.3944  0.1358 -0.3026
    8SAPS   H8Y 1033   1.727   4.477   5.647  0.7324  0.6823 -1.4963
    8SAPS   C39 1034   1.672   4.302   5.530  0.6877 -0.7942 -0.0716
    8SAPS   H9X 1035   1.565   4.327   5.517  0.8935 -1.3073 -4.1945
    8SAPS   H9Y 1036   1.673   4.191   5.522 -0.3313 -0.6862 -3.1579
    8SAPS  C310 1037   1.741   4.361   5.403  0.0661  0.2008  0.3750
    8SAPS  H10X 1038   1.836   4.309   5.381 -2.2188 -4.2533 -0.1012
    8SAPS  H10Y 1039   1.763   4.469   5.413 -0.5588  0.4913 -1.0816
    8SAPS  C311 1040   1.652   4.340   5.277 -0.6100  0.1322  0.2562
    8SAPS  H11X 1041   1.547   4.369   5.299 -0.1136  0.5359  2.2955
    8SAPS  H11Y 1042   1.672   4.233   5.260 -1.0621  0.4824 -3.1039
    8SAPS  C312 1043   1.703   4.417   5.151  0.7175  0.0139  0.0259
    8SAPS  H12X 1044   1.811   4.395   5.141  0.5702 -1.3996  1.1820
    8SAPS  H12Y 1045   1.684   4.523   5.176  0.6729  0.0826 -0.2962
    8SAPS  C313 1046   1.620   4.390   5.031 -0.6805  0.1676 -0.2526
    8SAPS  H13X 1047   1.519   4.432   5.050 -0.0953  1.0715  0.9657
    8SAPS  H13Y 1048   1.611   4.281   5.013 -0.2489  0.1309 -0.2511
    8SAPS  C314 1049   1.662   4.456   4.897  0.2785  0.4499  1.2930
    8SAPS  H14X 1050   1.744   4.391   4.860 -0.6272  0.4492 -0.8179
    8SAPS  H14Y 1051   1.698   4.560   4.907 -3.2525  2.3258 -2.7484
    8SAPS  C315 1052   1.542   4.483   4.797 -0.0581  0.1612  0.0676
    8SAPS  H15X 1053   1.479   4.393   4.781  0.3631  0.2299 -2.3994
    8SAPS  H15Y 1054   1.594   4.495   4.699 -1.4193 -1.1194 -0.8475
    8SAPS  C316 1055   1.465   4.609   4.827 -0.4955  0.5315 -0.4868
    8SAPS  H16X 1056   1.507   4.695   4.771  0.7669  0.2995  0.0635
    8SAPS  H16Y 1057   1.463   4.637   4.934 -0.2912  1.8794 -0.8205
    8SAPS  C317 1058   1.314   4.597   4.787 -0.4172 -0.0739 -0.1319
    8SAPS  H17X 1059   1.256   4.538   4.861  1.2673 -0.3704  0.9998
    8SAPS  H17Y 1060   1.330   4.542   4.692 -2.2333 -0.8777 -0.0126
    8SAPS  C318 1061   1.238   4.729   4.768 -0.0269  0.0229 -0.0768
    8SAPS  H18X 1062   1.134   4.698   4.748  0.0960  0.7924 -2.2773
    8SAPS  H18Y 1063   1.276   4.790   4.682  2.2975 -1.0749  0.0982
    8SAPS  H18Z 1064   1.226   4.786   4.863  0.3282  0.5473 -0.3356
    9SAPS     N 1065   3.285   0.933   6.753 -0.8495 -0.0581  0.3644
    9SAPS   HN1 1066   3.206   0.938   6.821  0.1204 -0.7516  1.6028
    9SAPS   HN2 1067   3.254   0.976   6.664  0.8211  2.1510  0.7461
    9SAPS   HN3 1068   3.300   0.832   6.733  0.4385  0.4157 -1.2150
    9SAPS   C12 1069   3.393   1.005   6.816 -0.8876  0.1089 -0.0923
    9SAPS  H12A 1070   3.387   0.981   6.921 -2.6613  1.1464  0.1013
    9SAPS   C13 1071   3.544   0.975   6.777 -0.4401  0.6990 -0.1167
    9SAPS  O13A 1072   3.569   0.876   6.702  0.3870  0.2189 -0.3167
    9SAPS  O13B 1073   3.629   1.051   6.827  0.2865  0.3159 -0.1940
    9SAPS   C11 1074   3.372   1.159   6.795  0.7833  0.5821  0.3357
    9SAPS  H11A 1075   3.349   1.183   6.689  1.7233  1.3469  0.2937
    9SAPS  H11B 1076   3.458   1.224   6.825 -0.1672  2.6983 -1.2416
    9SAPS     P 1077   3.204   1.352   6.867 -0.2155  0.2630 -0.1889
    9SAPS   O13 1078   3.097   1.367   6.970 -0.8141  0.3145  0.4257
    9SAPS   O14 1079   3.323   1.445   6.878  0.0068  0.2628  0.1069
    9SAPS   O12 1080   3.262   1.204   6.882  0.0946  0.0003 -0.2910
    9SAPS   O11 1081   3.132   1.341   6.728 -0.0536 -0.3447 -0.3575
    9SAPS    C1 1082   3.112   1.459   6.655  0.6553 -0.0837  0.5820
    9SAPS    HA 1083   3.003   1.484   6.656  0.3848 -1.0908 -0.6990
    9SAPS    HB 1084   3.179   1.543   6.682  0.3687  0.5728 -0.6816
    9SAPS    C2 1085   3.128   1.436   6.506 -0.0768  0.9561 -0.7846
    9SAPS    HS 1086   3.055   1.355   6.489  0.1137  0.4751  0.5806
    9SAPS   O21 1087   3.270   1.397   6.475  0.7609  0.6665 -0.0663
    9SAPS   C21 1088   3.272   1.303   6.378 -0.2875  0.1006  0.8802
    9SAPS   O22 1089   3.179   1.234   6.355  0.2244  0.5978 -0.2407
    9SAPS   C22 1090   3.411   1.282   6.310  0.4548 -0.8826  0.1673
    9SAPS   H2R 1091   3.459   1.381   6.293 -3.7464  1.3373 -0.2800
    9SAPS   H2S 1092   3.469   1.218   6.379  1.8928  1.5498  1.3547
    9SAPS    C3 1093   3.084   1.560   6.424  0.2303  0.3475 -0.3167
    9SAPS    HX 1094   3.163   1.638   6.423  0.1040  0.4841 -1.7016
    9SAPS    HY 1095   2.995   1.593   6.483  1.2065  0.7942  0.9460
    9SAPS   O31 1096   3.052   1.504   6.299 -0.8417  0.1272 -0.0914
    9SAPS   C31 1097   3.046   1.595   6.208  0.2817 -0.4659  0.7213
    9SAPS   O32 1098   3.081   1.713   6.217 -0.2699 -0.0492  0.2220
    9SAPS   C32 1099   2.982   1.539   6.085  0.1255  0.3305 -0.2113
    9SAPS   H2X 1100   2.890   1.486   6.118 -1.4465  2.7403 -0.4770
    9SAPS   H2Y 1101   3.057   1.474   6.034  1.0781  1.8338 -0.8152
    9SAPS   C23 1102   3.390   1.209   6.171 -0.2222  1.1845  0.0744
    9SAPS   H3R 1103   3.326   1.119   6.188 -0.1596  1.2315  0.5715
    9SAPS   H3S 1104   3.487   1.161   6.149  0.1502  1.6320  0.7302
    9SAPS   C24 1105   3.346   1.301   6.057  0.3779 -0.0263 -0.2627
    9SAPS   H4R 1106   3.249   1.348   6.083  0.0578 -0.2921 -0.9355
    9SAPS   H4S 1107   3.332   1.239   5.965 -2.1549  0.4915 -0.3004
    9SAPS   C25 1108   3.445   1.408   6.033  0.2741 -0.6020 -0.1885
    9SAPS   H5R 1109   3.538   1.408   6.092  1.2986 -0.1749 -1.7522
    9SAPS   C26 1110   3.434   1.520   5.957  0.2699 -0.7604 -0.0611
    9SAPS   H6R 1111   3.522   1.586   5.952 -0.0670 -0.3849 -1.5840
    9SAPS   C27 1112   3.317   1.552   5.867  0.2237  0.2601  0.0523
    9SAPS   H7R 1113   3.233   1.596   5.926  2.5625  1.8743  2.3959
    9SAPS   H7S 1114   3.279   1.456   5.825 -0.6892  0.3272  0.6979
    9SAPS   C28 1115   3.357   1.649   5.754 -0.5438 -0.3981 -0.0915
    9SAPS   H8R 1116   3.424   1.730   5.786  0.6902 -1.2042 -0.5864
    9SAPS   C29 1117   3.318   1.626   5.626  0.1331 -0.7743 -1.0799
    9SAPS   H9R 1118   3.345   1.709   5.559  1.1759  0.2981  0.5901
    9SAPS  C210 1119   3.213   1.521   5.573 -0.4356  0.8145 -0.3592
    9SAPS  H10R 1120   3.169   1.558   5.478 -0.3968  2.5085  0.2497
    9SAPS  H10S 1121   3.136   1.516   5.653  0.9929 -0.9314  1.0098
    9SAPS  C211 1122   3.263   1.378   5.560 -0.2107 -0.5650  0.4763
    9SAPS  H11R 1123   3.242   1.310   5.644  0.5651 -2.1002 -0.5180
    9SAPS  C212 1124   3.308   1.320   5.446  0.0845 -0.2698  0.6603
    9SAPS  H12R 1125   3.341   1.215   5.448  2.1282  0.2931 -0.7391
    9SAPS  C213 1126   3.336   1.380   5.312  0.4529  0.0474  0.6786
    9SAPS  H13R 1127   3.446   1.399   5.304  0.0449  2.5391  0.1254
    9SAPS  H13S 1128   3.281   1.475   5.295 -2.6586 -1.8280 -0.4847
    9SAPS  C214 1129   3.289   1.300   5.198  0.2696  0.5265  0.3734
    9SAPS  H14R 1130   3.217   1.220   5.224  1.1686 -0.2214  0.6024
    9SAPS  C215 1131   3.348   1.317   5.079 -0.1440  0.4678 -0.6089
    9SAPS  H15R 1132   3.304   1.268   4.991  0.1737  0.8017 -0.9594
    9SAPS  C216 1133   3.443   1.423   5.037 -0.6943 -0.7239  0.0485
    9SAPS  H16R 1134   3.538   1.381   4.998  0.1566  0.2359  1.0201
    9SAPS  H16S 1135   3.466   1.497   5.117 -2.6042 -1.4440  1.3250
    9SAPS  C217 1136   3.394   1.504   4.916  0.1930  0.2497 -0.3724
    9SAPS  H17R 1137   3.308   1.568   4.947 -1.0041 -0.1995 -2.5705
    9SAPS  H17S 1138   3.350   1.435   4.841 -2.0160  1.4479 -0.2427
    9SAPS  C218 1139   3.514   1.579   4.852 -0.0173  0.3764 -0.2113
    9SAPS  H18R 1140   3.576   1.501   4.804 -1.0175 -1.6554  1.6250
    9SAPS  H18S 1141   3.568   1.645   4.924  0.8493  0.9651 -1.3778
    9SAPS  C219 1142   3.464   1.676   4.747 -0.1598  0.6951  0.0454
    9SAPS  H19R 1143   3.407   1.744   4.813  0.0745  0.1803  0.7838
    9SAPS  H19S 1144   3.396   1.632   4.671  0.6709 -0.6694  0.0550
    9SAPS  C220 1145   3.581   1.735   4.669 -0.2675  0.1626  0.9266
    9SAPS  H20R 1146   3.544   1.820   4.607  1.3507  1.6023  1.8368
    9SAPS  H20S 1147   3.625   1.655   4.605 -0.3505 -1.8278  3.2143
    9SAPS  H20T 1148   3.653   1.777   4.742  1.2910  0.0780 -0.4988
    9SAPS   C33 1149   2.929   1.644   5.987 -0.0173 -0.1457 -0.3101
    9SAPS   H3X 1150   3.016   1.692   5.937  0.2409  0.1439  0.4043
    9SAPS   H3Y 1151   2.882   1.723   6.049  0.8722  1.1480 -1.2381
    9SAPS   C34 1152   2.841   1.579   5.882  0.1296  0.3414 -0.2089
    9SAPS   H4X 1153   2.741   1.559   5.925  0.0275 -3.4767 -1.8651
    9SAPS   H4Y 1154   2.888   1.480   5.864  1.5056  1.1561 -1.2955
    9SAPS   C35 1155   2.847   1.649   5.749  0.3982  0.3252 -0.1570
    9SAPS   H5X 1156   2.942   1.622   5.699  1.6113 -1.1240  2.6692
    9SAPS   H5Y 1157   2.834   1.759   5.749  0.0396  0.2892  0.6442
    9SAPS   C36 1158   2.731   1.585   5.667 -0.3800  0.0941  0.0223
    9SAPS   H6X 1159   2.636   1.629   5.702 -0.4898  0.9550 -1.2910
    9SAPS   H6Y 1160   2.723   1.476   5.687 -1.9034  0.4179  1.4003
    9SAPS   C37 1161   2.739   1.610   5.514 -0.1629 -0.5368  0.2247
    9SAPS   H7X 1162   2.767   1.715   5.493  1.7461 -1.2434 -1.0300
    9SAPS   H7Y 1163   2.642   1.590   5.462  0.4846 -0.1658 -1.1729
    9SAPS   C38 1164   2.844   1.527   5.447 -0.0893 -0.5260  0.3022
    9SAPS   H8X 1165   2.799   1.436   5.403 -1.1628  0.0237  0.2487
    9SAPS   H8Y 1166   2.916   1.494   5.525 -1.1622 -1.4050  0.9464
    9SAPS   C39 1167   2.908   1.600   5.332  0.1592 -0.3826 -0.8328
    9SAPS   H9X 1168   2.992   1.550   5.280 -1.0801  1.4330 -4.9938
    9SAPS   H9Y 1169   2.948   1.696   5.374  1.7300 -1.3659  0.0202
    9SAPS  C310 1170   2.808   1.627   5.226 -0.3261  0.0546  0.9208
    9SAPS  H10X 1171   2.741   1.706   5.266  0.0769  1.4880 -1.1346
    9SAPS  H10Y 1172   2.747   1.537   5.204  1.5365 -0.8644 -0.9109
    9SAPS  C311 1173   2.893   1.679   5.107  0.2553 -0.6226  0.7213
    9SAPS  H11X 1174   2.972   1.607   5.079  0.2577  0.1926 -1.5940
    9SAPS  H11Y 1175   2.950   1.770   5.138 -0.5911  0.1104  0.1633
    9SAPS  C312 1176   2.813   1.699   4.979  0.3642 -0.0471 -0.8606
    9SAPS  H12X 1177   2.738   1.779   4.995  2.4627  1.6675  1.1107
    9SAPS  H12Y 1178   2.758   1.606   4.954  0.4969  0.3505 -2.8400
    9SAPS  C313 1179   2.901   1.743   4.864 -0.9540 -0.2301  0.3505
    9SAPS  H13X 1180   2.944   1.844   4.879 -1.3053  0.1328 -0.9506
    9SAPS  H13Y 1181   2.832   1.748   4.777 -0.0876 -1.8092 -0.4611
    9SAPS  C314 1182   3.014   1.644   4.818 -0.1907 -1.1316 -0.2703
    9SAPS  H14X 1183   3.093   1.631   4.896  1.7283 -0.2423 -1.9631
    9SAPS  H14Y 1184   3.059   1.686   4.725  0.6984 -0.1692  0.5765
    9SAPS  C315 1185   2.951   1.510   4.797 -0.4332 -0.0218  0.1956
    9SAPS  H15X 1186   2.885   1.525   4.709 -1.3398  0.0928  0.8940
    9SAPS  H15Y 1187   2.888   1.476   4.882  1.6979 -0.6184  1.6200
    9SAPS  C316 1188   3.051   1.398   4.761  0.3976 -0.4185 -0.0711
    9SAPS  H16X 1189   3.098   1.353   4.851 -0.5234 -1.1566  0.0602
    9SAPS  H16Y 1190   3.124   1.435   4.687 -0.8726  0.8564 -0.7363
    9SAPS  C317 1191   2.969   1.290   4.681  0.1556  1.0866  0.3796
    9SAPS  H17X 1192   3.036   1.205   4.658 -1.3045  0.1356 -0.5243
    9SAPS  H17Y 1193   2.929   1.331   4.586 -0.8916  1.8092  1.0988
    9SAPS  C318 1194   2.850   1.233   4.762  0.2371  0.2597 -0.6624
    9SAPS  H18X 1195   2.776   1.171   4.707  0.2989 -0.6417  0.2620
    9SAPS  H18Y 1196   2.788   1.316   4.803  2.0647  0.0882  2.7433
    9SAPS  H18Z 1197   2.884   1.179   4.853 -1.6304  0.2538  0.0677
   10SAPS     N 1198   1.552   0.509   7.194  0.4768 -0.1618 -0.1554
   10SAPS   HN1 1199   1.460   0.472   7.164  0.0855 -0.5232  1.3743
   10SAPS   HN2 1200   1.627   0.457   7.143  1.3346 -0.8060  1.6798
   10SAPS   HN3 1201   1.566   0.479   7.293 -2.1349 -0.1876  0.2745
   10SAPS   C12 1202   1.548   0.655   7.167  0.4208 -0.0103  0.6588
   10SAPS  H12A 1203   1.462   0.703   7.211  0.1065 -0.3489  0.4218
   10SAPS   C13 1204   1.680   0.724   7.208  0.0731 -0.1353 -0.1958
   10SAPS  O13A 1205   1.772   0.657   7.261  0.3739 -1.1927 -0.6846
   10SAPS  O13B 1206   1.676   0.851   7.222  0.3159 -0.2846  0.1702
   10SAPS   C11 1207   1.547   0.663   7.013 -0.1020 -0.0102 -0.2566
   10SAPS  H11A 1208   1.628   0.599   6.972 -1.0796 -2.1887  1.0914
   10SAPS  H11B 1209   1.549   0.771   6.986  0.5087  0.4172  1.3751
   10SAPS     P 1210   1.306   0.685   6.892 -0.3772 -0.4244  0.1500
   10SAPS   O13 1211   1.200   0.583   6.861 -0.5029  0.5810  0.1145
   10SAPS   O14 1212   1.270   0.799   6.978 -0.0540 -0.6838  0.2892
   10SAPS   O12 1213   1.426   0.607   6.965  0.0460  0.1675 -0.1766
   10SAPS   O11 1214   1.368   0.735   6.755 -0.6024 -0.0547 -0.0850
   10SAPS    C1 1215   1.421   0.646   6.658  0.8416  0.4262  0.2657
   10SAPS    HA 1216   1.532   0.644   6.663  0.9857 -2.0683 -1.6468
   10SAPS    HB 1217   1.383   0.543   6.678  0.5129  0.4914 -0.0047
   10SAPS    C2 1218   1.379   0.674   6.508 -0.6746  0.2818 -0.3842
   10SAPS    HS 1219   1.435   0.604   6.442 -1.0472 -0.0859 -0.3164
   10SAPS   O21 1220   1.424   0.803   6.483 -0.2384  0.2589  0.0966
   10SAPS   C21 1221   1.450   0.837   6.355  0.7618 -0.2406  0.8755
   10SAPS   O22 1222   1.442   0.759   6.256 -0.0931 -0.4820 -0.0058
   10SAPS   C22 1223   1.471   0.984   6.347  0.1077  0.0822  0.0152
   10SAPS   H2R 1224   1.395   1.016   6.421  1.1156  1.1627  0.6183
   10SAPS   H2S 1225   1.569   1.014   6.389  0.9123  1.1967 -2.4974
   10SAPS    C3 1226   1.226   0.672   6.490  0.1853  0.3414  0.1603
   10SAPS    HX 1227   1.184   0.760   6.544 -2.2728 -1.4779  1.3926
   10SAPS    HY 1228   1.173   0.585   6.533 -0.2162 -0.1518 -1.2648
   10SAPS   O31 1229   1.185   0.697   6.353  0.2780  0.2314  0.1698
   10SAPS   C31 1230   1.174   0.586   6.277 -0.1037  1.2558  0.4840
   10SAPS   O32 1231   1.194   0.475   6.323 -0.5613  0.2795  0.8704
   10SAPS   C32 1232   1.122   0.623   6.138 -0.3989  0.3503 -0.3211
   10SAPS   H2X 1233   1.177   0.714   6.106  1.2689 -0.2529  0.7277
   10SAPS   H2Y 1234   1.015   0.654   6.147 -1.4242 -2.3501 -1.8651
   10SAPS   C23 1235   1.445   1.044   6.207 -0.4303 -0.1904  0.8514
   10SAPS   H3R 1236   1.423   1.153   6.210 -1.0252 -0.2806  0.0775
   10SAPS   H3S 1237   1.349   1.005   6.168 -1.5714  3.1487  0.0053
   10SAPS   C24 1238   1.562   1.022   6.113  0.1793  0.4349 -0.3597
   10SAPS   H4R 1239   1.532   1.045   6.008 -0.7830  0.5303 -0.0718
   10SAPS   H4S 1240   1.575   0.912   6.116 -2.1305  0.0354 -2.1565
   10SAPS   C25 1241   1.687   1.099   6.149 -0.0431  0.7055  1.1535
   10SAPS   H5R 1242   1.719   1.090   6.254 -0.0133  2.3560  1.3103
   10SAPS   C26 1243   1.752   1.178   6.060 -0.2686 -0.3117 -0.0031
   10SAPS   H6R 1244   1.843   1.232   6.090  0.0505 -0.1474 -1.2056
   10SAPS   C27 1245   1.728   1.193   5.911 -0.2306  0.2884 -0.2076
   10SAPS   H7R 1246   1.692   1.097   5.869 -0.1560 -0.0221  0.4292
   10SAPS   H7S 1247   1.823   1.216   5.859 -0.1716 -1.3450 -0.8778
   10SAPS   C28 1248   1.616   1.290   5.877  0.3449 -0.0443 -0.3666
   10SAPS   H8R 1249   1.534   1.312   5.947  1.1445  0.1433  0.5262
   10SAPS   C29 1250   1.617   1.365   5.764 -0.6064 -0.3511  0.4237
   10SAPS   H9R 1251   1.540   1.442   5.753 -1.1830 -0.8993  0.5130
   10SAPS  C210 1252   1.733   1.362   5.669  0.3302  0.7010  0.1739
   10SAPS  H10R 1253   1.831   1.353   5.720  1.3854 -1.1926 -2.0472
   10SAPS  H10S 1254   1.720   1.461   5.619  1.2345  1.9628  2.2859
   10SAPS  C211 1255   1.727   1.258   5.562  0.5280 -0.0469  0.2186
   10SAPS  H11R 1256   1.703   1.156   5.596  0.5296  0.1650  0.8577
   10SAPS  C212 1257   1.745   1.280   5.430  0.1899 -0.1959 -0.3248
   10SAPS  H12R 1258   1.741   1.195   5.360  2.5190 -0.5932 -0.0445
   10SAPS  C213 1259   1.785   1.413   5.358 -0.2462  0.1762 -0.0599
   10SAPS  H13R 1260   1.847   1.471   5.429 -0.4212  1.0926 -0.6364
   10SAPS  H13S 1261   1.694   1.469   5.328 -0.4412  0.9714  1.8427
   10SAPS  C214 1262   1.872   1.400   5.235  0.1180  0.2259  0.3051
   10SAPS  H14R 1263   1.930   1.309   5.217  2.2682  1.8080 -1.2419
   10SAPS  C215 1264   1.891   1.495   5.139 -0.0064  0.4465  0.4787
   10SAPS  H15R 1265   1.957   1.471   5.053  1.0522  0.1386  1.3501
   10SAPS  C216 1266   1.838   1.638   5.133 -0.2702 -0.3994 -0.6158
   10SAPS  H16R 1267   1.918   1.706   5.097 -0.0261  0.4583  1.4263
   10SAPS  H16S 1268   1.821   1.668   5.239 -1.6650  1.6211 -1.3572
   10SAPS  C217 1269   1.715   1.661   5.042 -0.3842 -0.7086 -0.3949
   10SAPS  H17R 1270   1.683   1.765   5.063  0.8789 -0.2961 -0.4394
   10SAPS  H17S 1271   1.644   1.578   5.065  0.9048 -1.4943  0.8583
   10SAPS  C218 1272   1.751   1.648   4.897 -0.7726 -0.2384 -1.0539
   10SAPS  H18R 1273   1.772   1.541   4.875 -0.8066 -0.4629 -0.0629
   10SAPS  H18S 1274   1.847   1.702   4.891 -0.1535 -1.1832 -0.0947
   10SAPS  C219 1275   1.649   1.707   4.791 -0.5302  0.2058 -0.3157
   10SAPS  H19R 1276   1.625   1.808   4.830  1.3894  0.9661 -0.9709
   10SAPS  H19S 1277   1.565   1.635   4.804 -0.2001 -0.1821 -0.3200
   10SAPS  C220 1278   1.691   1.691   4.641 -0.0800  0.2985 -0.3374
   10SAPS  H20R 1279   1.793   1.733   4.651  0.6595 -1.7403  1.7114
   10SAPS  H20S 1280   1.625   1.747   4.572 -0.6558  2.8344  2.1067
   10SAPS  H20T 1281   1.697   1.581   4.626  0.2430 -0.0051  1.6463
   10SAPS   C33 1282   1.148   0.513   6.032  0.7258 -0.1977  0.2693
   10SAPS   H3X 1283   1.127   0.410   6.070  0.5165 -0.8482 -1.4881
   10SAPS   H3Y 1284   1.256   0.506   6.009  0.2165 -0.7508 -2.2669
   10SAPS   C34 1285   1.058   0.529   5.905  0.4754 -0.0119  0.0501
   10SAPS   H4X 1286   1.077   0.628   5.857 -1.3355  0.1993 -0.2769
   10SAPS   H4Y 1287   0.951   0.525   5.934  1.0089 -1.0241  2.0489
   10SAPS   C35 1288   1.074   0.412   5.806  0.0311 -0.3785 -0.0491
   10SAPS   H5X 1289   1.085   0.320   5.868  2.9432  1.0494  1.8189
   10SAPS   H5Y 1290   1.167   0.420   5.745  1.2535 -1.2274  1.6004
   10SAPS   C36 1291   0.963   0.400   5.699  0.6100 -0.0651  0.0083
   10SAPS   H6X 1292   0.870   0.435   5.749  0.7617 -0.5360  0.6421
   10SAPS   H6Y 1293   0.961   0.294   5.668 -0.0831 -0.2759  0.7259
   10SAPS   C37 1294   0.994   0.495   5.585  0.2317 -0.2445 -0.3492
   10SAPS   H7X 1295   1.073   0.460   5.515 -2.9273 -3.1178 -2.8495
   10SAPS   H7Y 1296   1.035   0.592   5.621  0.9656  0.1015 -2.0195
   10SAPS   C38 1297   0.881   0.507   5.481  0.1200  0.4487 -0.0530
   10SAPS   H8X 1298   0.799   0.554   5.539  1.1439  1.4931  0.5925
   10SAPS   H8Y 1299   0.848   0.405   5.451  1.2678 -0.0974  0.4744
   10SAPS   C39 1300   0.903   0.605   5.364 -0.3054  0.4156  0.1254
   10SAPS   H9X 1301   0.923   0.708   5.403 -1.6508  1.2979 -1.3785
   10SAPS   H9Y 1302   0.811   0.606   5.302  0.4415 -1.7654 -1.1032
   10SAPS  C310 1303   1.017   0.573   5.276 -0.1561 -0.3327  0.2664
   10SAPS  H10X 1304   0.978   0.496   5.207 -2.4222  1.4630 -0.5958
   10SAPS  H10Y 1305   1.104   0.526   5.328  0.9948 -1.4147 -2.4801
   10SAPS  C311 1306   1.078   0.691   5.194  0.1184 -0.0782  0.2193
   10SAPS  H11X 1307   1.146   0.741   5.266 -0.2104  1.7267 -0.6802
   10SAPS  H11Y 1308   1.000   0.762   5.160  0.5557  0.4401  0.2779
   10SAPS  C312 1309   1.163   0.644   5.072  0.2533 -0.3344 -0.6423
   10SAPS  H12X 1310   1.092   0.595   5.001 -1.5180  1.0171  0.1202
   10SAPS  H12Y 1311   1.233   0.567   5.107 -0.1512 -0.8351 -0.9218
   10SAPS  C313 1312   1.223   0.760   4.992  0.2405  0.4128 -0.3248
   10SAPS  H13X 1313   1.148   0.841   4.981  1.0793  1.8766  3.4770
   10SAPS  H13Y 1314   1.249   0.731   4.888  1.2268  0.8025 -0.1981
   10SAPS  C314 1315   1.356   0.818   5.048 -0.2689 -0.5085 -0.2858
   10SAPS  H14X 1316   1.428   0.736   5.025 -0.4183 -0.1047 -2.3605
   10SAPS  H14Y 1317   1.350   0.837   5.157 -0.0403  2.0289 -0.6557
   10SAPS  C315 1318   1.395   0.939   4.953  0.4327 -0.1926  0.7472
   10SAPS  H15X 1319   1.310   1.008   4.936  2.0222  1.3640 -1.4518
   10SAPS  H15Y 1320   1.414   0.897   4.852 -2.1934  0.1011  0.0635
   10SAPS  C316 1321   1.517   1.019   5.001  0.2464  0.1462 -0.0481
   10SAPS  H16X 1322   1.609   0.984   4.950 -0.6773 -1.0733 -0.9356
   10SAPS  H16Y 1323   1.527   0.997   5.109 -0.7195  2.0061  0.4730
   10SAPS  C317 1324   1.514   1.171   4.974  0.2780 -0.2274  0.2186
   10SAPS  H17X 1325   1.437   1.212   5.043 -0.8767  1.8588 -2.1470
   10SAPS  H17Y 1326   1.481   1.198   4.871  3.7583  4.3606  0.0060
   10SAPS  C318 1327   1.634   1.245   5.001  0.4653  0.0428 -0.0412
   10SAPS  H18X 1328   1.722   1.217   4.939  1.4290 -1.8954  2.0428
   10SAPS  H18Y 1329   1.669   1.239   5.106  1.1582  1.1033 -0.2027
   10SAPS  H18Z 1330   1.615   1.350   4.970 -1.3164 -0.1393  0.3103
   11SAPS     N 1331   2.247   0.414   2.183  0.0607  0.4279  0.1423
   11SAPS   HN1 1332   2.185   0.492   2.151 -3.2950 -1.6912  0.9492
   11SAPS   HN2 1333   2.209   0.368   2.268 -1.8225 -1.4351 -1.5809
   11SAPS   HN3 1334   2.337   0.460   2.208  0.2614  1.0150 -1.5211
   11SAPS   C12 1335   2.291   0.323   2.078 -0.3656  0.3404 -0.1181
   11SAPS  H12A 1336   2.211   0.253   2.058 -1.2828  0.7962  1.7064
   11SAPS   C13 1337   2.340   0.384   1.943  0.2362 -0.4218  0.2014
   11SAPS  O13A 1338   2.329   0.506   1.925 -0.2672 -0.0272 -0.2734
   11SAPS  O13B 1339   2.346   0.304   1.846 -0.8983 -0.2075 -0.3792
   11SAPS   C11 1340   2.400   0.239   2.134  0.1839 -0.1297 -0.6072
   11SAPS  H11A 1341   2.487   0.302   2.160  2.2440 -2.2173 -2.0219
   11SAPS  H11B 1342   2.418   0.162   2.056  3.7977  0.1841 -0.2221
   11SAPS     P 1343   2.444   0.059   2.329  0.1679  0.1656 -0.2980
   11SAPS   O13 1344   2.471  -0.053   2.235  0.4198  0.3941  0.1547
   11SAPS   O14 1345   2.560   0.104   2.404  1.1432 -0.4862  0.0139
   11SAPS   O12 1346   2.359   0.166   2.256  0.6119 -0.2599 -0.2595
   11SAPS   O11 1347   2.335   0.026   2.435  0.2391  0.1745  0.5440
   11SAPS    C1 1348   2.358  -0.104   2.506 -0.7024 -0.4569  0.0928
   11SAPS    HA 1349   2.407  -0.181   2.442  1.2251 -0.7402  1.8118
   11SAPS    HB 1350   2.433  -0.087   2.586  0.0869  1.5417 -1.0234
   11SAPS    C2 1351   2.229  -0.151   2.577 -0.6132 -0.0132 -0.6407
   11SAPS    HS 1352   2.159  -0.191   2.502 -0.6324  2.1913 -1.8825
   11SAPS   O21 1353   2.174  -0.041   2.645  0.5946 -0.2837 -0.0160
   11SAPS   C21 1354   2.062  -0.067   2.703 -0.3224  0.9467  0.6760
   11SAPS   O22 1355   1.984  -0.154   2.674 -0.8440 -0.0115  0.1840
   11SAPS   C22 1356   2.034   0.041   2.808 -0.4833 -0.3528  0.4698
   11SAPS   H2R 1357   2.124   0.074   2.864 -0.9988 -1.0782  1.7941
   11SAPS   H2S 1358   2.007   0.124   2.739 -0.5339 -1.7579 -1.2718
   11SAPS    C3 1359   2.259  -0.277   2.678 -0.6812 -0.4253 -0.5491
   11SAPS    HX 1360   2.321  -0.351   2.623 -0.7714 -2.2633  1.6579
   11SAPS    HY 1361   2.162  -0.327   2.699 -0.4794 -0.6697 -0.1928
   11SAPS   O31 1362   2.326  -0.219   2.792 -0.3622  0.0858 -0.4857
   11SAPS   C31 1363   2.319  -0.288   2.900 -0.0371 -0.1456  0.0135
   11SAPS   O32 1364   2.266  -0.399   2.916  0.4305 -0.2860  0.3112
   11SAPS   C32 1365   2.385  -0.208   3.013 -0.3851  0.4548  0.7502
   11SAPS   H2X 1366   2.354  -0.101   3.014  0.4537  0.7068  0.0801
   11SAPS   H2Y 1367   2.495  -0.209   3.005 -0.2007  1.3194  2.5289
   11SAPS   C23 1368   1.928  -0.004   2.909 -0.5017 -0.2243 -0.0465
   11SAPS   H3R 1369   1.956  -0.104   2.949  0.3083  0.3224  0.8098
   11SAPS   H3S 1370   1.833  -0.016   2.853 -1.0391 -1.7823  1.1235
   11SAPS   C24 1371   1.916   0.085   3.035  0.7001  0.2744  0.0273
   11SAPS   H4R 1372   1.831   0.050   3.096  1.7046 -1.3753  0.5471
   11SAPS   H4S 1373   1.908   0.190   2.999  2.9676  0.2064 -0.8366
   11SAPS   C25 1374   2.044   0.075   3.126  0.1366 -0.0648  0.9205
   11SAPS   H5R 1375   2.140   0.085   3.072  1.5067 -2.7595  2.6197
   11SAPS   C26 1376   2.060   0.054   3.261  0.4843 -0.0486  0.3610
   11SAPS   H6R 1377   2.158   0.056   3.311 -0.5550 -1.6078  2.6795
   11SAPS   C27 1378   1.955   0.038   3.371 -0.0997  0.0272  0.3326
   11SAPS   H7R 1379   1.959  -0.063   3.418  2.6829  0.1319  0.4633
   11SAPS   H7S 1380   1.857   0.042   3.318  0.3430  0.2084 -0.5014
   11SAPS   C28 1381   1.964   0.147   3.468  0.2262 -0.5542  0.0570
   11SAPS   H8R 1382   1.971   0.243   3.413 -1.6310  0.6661  1.8139
   11SAPS   C29 1383   1.960   0.147   3.600  0.5480  0.2252  0.5296
   11SAPS   H9R 1384   1.982   0.239   3.657  0.2472  0.1192  0.8214
   11SAPS  C210 1385   1.952   0.028   3.694 -0.2485  0.1650  0.0198
   11SAPS  H10R 1386   2.037   0.026   3.765 -1.2027 -1.1100  1.1648
   11SAPS  H10S 1387   1.960  -0.064   3.632 -0.4654  1.7209 -2.4671
   11SAPS  C211 1388   1.829   0.001   3.774  0.0852 -0.8145  0.5129
   11SAPS  H11R 1389   1.742  -0.013   3.708  1.1967 -0.0154 -1.1802
   11SAPS  C212 1390   1.806   0.014   3.901  0.5501 -0.2803 -0.3671
   11SAPS  H12R 1391   1.704   0.023   3.940  1.7470  2.8945  2.5342
   11SAPS  C213 1392   1.904   0.033   4.020  0.5116  0.1538 -0.5458
   11SAPS  H13R 1393   1.981  -0.047   4.025 -1.0439 -1.3270  1.2825
   11SAPS  H13S 1394   1.848   0.001   4.111 -0.9105 -0.5899 -1.6293
   11SAPS  C214 1395   1.972   0.166   4.023 -0.9065  0.2722  0.0120
   11SAPS  H14R 1396   2.055   0.178   3.952  1.3880  1.5510  2.7139
   11SAPS  C215 1397   1.940   0.268   4.107 -0.6821  0.0214  0.5720
   11SAPS  H15R 1398   2.008   0.354   4.122  0.1693 -0.5976  0.3023
   11SAPS  C216 1399   1.837   0.269   4.215 -0.0922  0.5029 -0.6093
   11SAPS  H16R 1400   1.769   0.183   4.194  0.9332 -0.0678 -1.6391
   11SAPS  H16S 1401   1.782   0.365   4.204 -0.3244  0.3620 -0.6841
   11SAPS  C217 1402   1.894   0.254   4.358  0.0606 -0.2582  0.4871
   11SAPS  H17R 1403   1.944   0.346   4.395 -1.6562  0.1856  1.7799
   11SAPS  H17S 1404   1.970   0.172   4.362  0.8350  0.3727 -0.6308
   11SAPS  C218 1405   1.776   0.229   4.454 -0.3356 -0.1563 -0.1588
   11SAPS  H18R 1406   1.731   0.131   4.427 -1.0988  0.3633 -0.8073
   11SAPS  H18S 1407   1.698   0.303   4.429 -0.7527  0.8029  3.5178
   11SAPS  C219 1408   1.809   0.237   4.605 -0.1732  0.2231  0.2285
   11SAPS  H19R 1409   1.825   0.343   4.632 -0.6046 -0.4027  3.2500
   11SAPS  H19S 1410   1.901   0.174   4.614  0.0360  0.5274  0.2425
   11SAPS  C220 1411   1.698   0.187   4.691  0.3281 -0.5312 -0.2785
   11SAPS  H20R 1412   1.737   0.185   4.795 -0.0704  0.1253 -0.1069
   11SAPS  H20S 1413   1.667   0.084   4.664  0.4911 -0.8190  0.5931
   11SAPS  H20T 1414   1.611   0.256   4.700  0.6011  0.0535 -1.8572
   11SAPS   C33 1415   2.344  -0.252   3.158 -0.4101 -0.4844 -0.2523
   11SAPS   H3X 1416   2.375  -0.357   3.176 -1.9566 -0.7271  1.1885
   11SAPS   H3Y 1417   2.233  -0.246   3.161 -0.4285  1.9080 -2.1962
   11SAPS   C34 1418   2.387  -0.159   3.264  0.0244  0.2801 -0.1693
   11SAPS   H4X 1419   2.373  -0.055   3.227 -0.5867 -0.1167 -1.0708
   11SAPS   H4Y 1420   2.494  -0.171   3.293 -0.4038  0.4540  1.6503
   11SAPS   C35 1421   2.321  -0.176   3.399 -0.6141 -1.0826  1.0061
   11SAPS   H5X 1422   2.338  -0.283   3.425 -0.4003 -1.7496 -1.6306
   11SAPS   H5Y 1423   2.213  -0.150   3.412  0.0453  1.8831  1.2414
   11SAPS   C36 1424   2.402  -0.093   3.507  0.3176  0.1571 -0.1110
   11SAPS   H6X 1425   2.415   0.012   3.474  0.4161  0.9569  2.2519
   11SAPS   H6Y 1426   2.511  -0.110   3.514  0.5310  1.4848  0.0746
   11SAPS   C37 1427   2.327  -0.097   3.643 -0.7527 -0.3182  0.5187
   11SAPS   H7X 1428   2.313  -0.203   3.676 -0.7274 -0.3044  0.5732
   11SAPS   H7Y 1429   2.224  -0.055   3.640 -0.9892 -0.8737  0.6099
   11SAPS   C38 1430   2.408  -0.040   3.760  0.3705  0.8185 -0.2201
   11SAPS   H8X 1431   2.426   0.069   3.747 -0.4345  1.0316  0.3755
   11SAPS   H8Y 1432   2.501  -0.100   3.772 -0.9515 -1.6364 -1.3254
   11SAPS   C39 1433   2.319  -0.053   3.882 -0.3824  0.0664 -0.1259
   11SAPS   H9X 1434   2.287  -0.155   3.914  0.0253  0.7122  2.5733
   11SAPS   H9Y 1435   2.230   0.005   3.850  1.0945  0.1229 -4.9261
   11SAPS  C310 1436   2.388   0.008   4.004  0.1177  0.3001  0.5339
   11SAPS  H10X 1437   2.383   0.119   3.995 -0.9999  0.1337 -1.6054
   11SAPS  H10Y 1438   2.494  -0.014   4.026  0.9022  2.7401 -0.4255
   11SAPS  C311 1439   2.306  -0.041   4.126 -0.0841  0.3791  0.4756
   11SAPS  H11X 1440   2.318  -0.151   4.124  2.5428  0.5676 -2.9474
   11SAPS  H11Y 1441   2.199  -0.012   4.115  0.3387  1.1393 -2.5117
   11SAPS  C312 1442   2.336   0.031   4.262 -0.0929  0.4169  1.1782
   11SAPS  H12X 1443   2.274  -0.014   4.342  2.5010 -3.7584  1.1919
   11SAPS  H12Y 1444   2.314   0.138   4.242 -1.7974 -0.4229 -2.3562
   11SAPS  C313 1445   2.483   0.018   4.305  0.1637 -0.7218  0.0836
   11SAPS  H13X 1446   2.511   0.087   4.387  1.1509  0.3429 -1.1150
   11SAPS  H13Y 1447   2.549   0.047   4.221 -1.3100  1.5514 -0.4062
   11SAPS  C314 1448   2.512  -0.126   4.348  0.0692 -0.4440  0.5430
   11SAPS  H14X 1449   2.507  -0.196   4.262 -1.2347  0.9214 -0.5459
   11SAPS  H14Y 1450   2.447  -0.162   4.431 -0.4095  1.7577  1.2005
   11SAPS  C315 1451   2.657  -0.150   4.393 -0.3899  0.5853 -0.1103
   11SAPS  H15X 1452   2.690  -0.084   4.476 -0.3603 -1.3002  1.4459
   11SAPS  H15Y 1453   2.724  -0.123   4.308  1.2387  1.3614  1.3624
   11SAPS  C316 1454   2.705  -0.292   4.445  0.1348 -0.2072  0.0920
   11SAPS  H16X 1455   2.721  -0.367   4.364 -0.4422  2.1753 -2.3524
   11SAPS  H16Y 1456   2.622  -0.326   4.511 -0.5048  2.4825  0.7989
   11SAPS  C317 1457   2.833  -0.286   4.524 -0.0305  0.6168  0.3679
   11SAPS  H17X 1458   2.838  -0.206   4.600  2.7104 -0.4531  1.4633
   11SAPS  H17Y 1459   2.921  -0.265   4.459  0.8955 -2.6178  0.4155
   11SAPS  C318 1460   2.859  -0.419   4.584  0.4968 -0.1445 -0.1456
   11SAPS  H18X 1461   2.894  -0.499   4.515  0.9446  0.1810 -0.2989
   11SAPS  H18Y 1462   2.765  -0.454   4.632  0.0021  0.5583 -0.5831
   11SAPS  H18Z 1463   2.931  -0.419   4.668 -0.3049 -0.8443  0.5647
   12SAPS     N 1464   4.785   5.492   2.262 -0.4332  0.8713  0.4806
   12SAPS   HN1 1465   4.714   5.439   2.208 -0.6445  0.2434  1.3528
   12SAPS   HN2 1466   4.833   5.426   2.327 -0.7918  0.4172  0.2899
   12SAPS   HN3 1467   4.744   5.571   2.316  0.7045  0.4447  2.0568
   12SAPS   C12 1468   4.877   5.535   2.162  0.3651 -0.0970 -0.5412
   12SAPS  H12A 1469   4.962   5.579   2.212 -0.4196  0.8249  0.0122
   12SAPS   C13 1470   4.915   5.426   2.067 -0.0854  0.5845  0.1068
   12SAPS  O13A 1471   4.906   5.309   2.103 -0.3051 -0.2592  0.2750
   12SAPS  O13B 1472   5.011   5.469   1.994  0.6915  0.0603  0.0022
   12SAPS   C11 1473   4.809   5.647   2.078  0.9445  0.2992 -0.0560
   12SAPS  H11A 1474   4.707   5.609   2.055  1.4586 -0.4095 -1.2849
   12SAPS  H11B 1475   4.855   5.662   1.978  0.6576  1.3226 -0.0424
   12SAPS     P 1476   4.752   5.896   2.095  0.3658 -0.0858 -0.4018
   12SAPS   O13 1477   4.809   5.899   1.960 -0.4359  0.2626 -0.4146
   12SAPS   O14 1478   4.603   5.887   2.101 -0.2343  0.1582  0.3214
   12SAPS   O12 1479   4.811   5.771   2.156 -0.4690  0.0064  0.0659
   12SAPS   O11 1480   4.820   6.017   2.173 -0.3072 -0.0538 -0.4064
   12SAPS    C1 1481   4.942   6.003   2.237 -0.4871 -0.1703  0.1200
   12SAPS    HA 1482   5.008   5.924   2.194  0.9135  2.0501 -2.0201
   12SAPS    HB 1483   4.995   6.099   2.221  1.1467 -1.4067 -2.5330
   12SAPS    C2 1484   4.935   5.970   2.385  0.4666  0.3676 -0.4327
   12SAPS    HS 1485   4.893   5.867   2.384 -0.8221  0.8546  0.6200
   12SAPS   O21 1486   4.843   6.059   2.443  0.4810 -0.3096  0.2924
   12SAPS   C21 1487   4.719   6.022   2.473 -0.2863  0.3540  0.0217
   12SAPS   O22 1488   4.662   5.918   2.454  0.3123 -0.2835 -0.0541
   12SAPS   C22 1489   4.659   6.138   2.540  0.4271 -0.5572 -0.1298
   12SAPS   H2R 1490   4.718   6.173   2.628 -1.9711  3.2740  0.2140
   12SAPS   H2S 1491   4.662   6.220   2.465 -1.8727 -0.6786 -0.4376
   12SAPS    C3 1492   5.073   5.970   2.457 -0.1005 -0.3241  0.4769
   12SAPS    HX 1493   5.119   6.071   2.449  0.4351 -0.6321 -0.4612
   12SAPS    HY 1494   5.138   5.896   2.406  0.1781 -0.1259  0.5438
   12SAPS   O31 1495   5.042   5.928   2.592 -0.1382 -0.0655  0.3117
   12SAPS   C31 1496   5.073   6.017   2.686  0.4529  0.3425 -0.2275
   12SAPS   O32 1497   5.151   6.108   2.671  0.0777 -0.5707  0.2715
   12SAPS   C32 1498   5.018   5.971   2.820  0.0041 -0.6777 -0.1222
   12SAPS   H2X 1499   5.093   5.904   2.868  1.9886  1.7241  0.2824
   12SAPS   H2Y 1500   4.927   5.910   2.799 -1.2662  0.3705  1.9661
   12SAPS   C23 1501   4.517   6.114   2.594  0.8849  0.2178 -0.0805
   12SAPS   H3R 1502   4.456   6.080   2.508  1.8279 -0.6797 -0.4088
   12SAPS   H3S 1503   4.479   6.217   2.610 -1.1904 -0.7060  1.3499
   12SAPS   C24 1504   4.492   6.033   2.721 -1.1637  0.7405 -0.0096
   12SAPS   H4R 1505   4.565   6.075   2.793 -1.7168 -0.0507  1.0541
   12SAPS   H4S 1506   4.527   5.928   2.711 -0.0236  1.2052 -1.0702
   12SAPS   C25 1507   4.360   6.048   2.787  0.5177  0.4329 -0.6444
   12SAPS   H5R 1508   4.270   6.065   2.727  0.6298 -3.2446 -2.0943
   12SAPS   C26 1509   4.347   6.048   2.925  0.0670  0.5837  0.1555
   12SAPS   H6R 1510   4.241   6.061   2.951 -0.1182 -0.2293 -0.1531
   12SAPS   C27 1511   4.445   6.019   3.033  0.2545  0.9206 -0.3184
   12SAPS   H7R 1512   4.399   6.041   3.132  1.2439  2.2486 -0.1223
   12SAPS   H7S 1513   4.522   6.099   3.025 -0.1566  1.7002  2.3330
   12SAPS   C28 1514   4.513   5.881   3.031 -0.4313 -0.4756 -0.1586
   12SAPS   H8R 1515   4.550   5.836   2.938 -1.4151  0.5211 -1.0638
   12SAPS   C29 1516   4.517   5.806   3.145 -0.1068  0.7287  0.4395
   12SAPS   H9R 1517   4.578   5.714   3.144  0.7582  1.2881  0.3081
   12SAPS  C210 1518   4.470   5.844   3.279 -0.7719 -0.2002 -0.0207
   12SAPS  H10R 1519   4.478   5.952   3.303  2.2502 -0.4115  0.2871
   12SAPS  H10S 1520   4.539   5.807   3.358  0.1105  0.4938 -0.4475
   12SAPS  C211 1521   4.326   5.796   3.298 -0.5172 -0.2117  0.2899
   12SAPS  H11R 1522   4.254   5.797   3.214 -1.0618 -2.3679  0.6838
   12SAPS  C212 1523   4.281   5.725   3.406 -0.8282 -0.1684  0.5028
   12SAPS  H12R 1524   4.176   5.695   3.424 -1.1387  0.3232 -0.4380
   12SAPS  C213 1525   4.366   5.685   3.526  0.0241 -0.0022  0.7416
   12SAPS  H13R 1526   4.463   5.652   3.484 -0.2375  0.0155  0.1124
   12SAPS  H13S 1527   4.329   5.587   3.565 -1.1105 -0.0431 -0.3626
   12SAPS  C214 1528   4.383   5.778   3.642  0.4551 -0.0188 -0.5279
   12SAPS  H14R 1529   4.355   5.883   3.624 -1.5390 -0.5906 -0.9328
   12SAPS  C215 1530   4.418   5.746   3.773  0.5497  0.1767  0.6746
   12SAPS  H15R 1531   4.406   5.819   3.854 -3.7508 -1.6418  1.9586
   12SAPS  C216 1532   4.449   5.606   3.827 -0.6158 -0.1393 -0.0816
   12SAPS  H16R 1533   4.559   5.601   3.845 -0.4537 -3.3522 -1.2401
   12SAPS  H16S 1534   4.426   5.521   3.759 -1.1612 -0.7214  0.8070
   12SAPS  C217 1535   4.386   5.580   3.964  0.0945 -0.3291  0.0972
   12SAPS  H17R 1536   4.422   5.655   4.038 -0.0733 -0.0033 -0.1428
   12SAPS  H17S 1537   4.408   5.474   3.988 -1.2659 -1.3454 -2.6878
   12SAPS  C218 1538   4.228   5.588   3.970 -0.2786 -0.6718  0.3567
   12SAPS  H18R 1539   4.169   5.510   3.916  0.2756  0.3387 -1.8286
   12SAPS  H18S 1540   4.186   5.681   3.927  4.5529  1.1266 -1.0760
   12SAPS  C219 1541   4.172   5.584   4.112 -0.2006  0.3185 -0.3342
   12SAPS  H19R 1542   4.063   5.600   4.105 -0.4253 -1.0246 -0.1220
   12SAPS  H19S 1543   4.209   5.677   4.161  2.0958 -2.0686  2.9717
   12SAPS  C220 1544   4.198   5.461   4.198  0.7281  0.3968 -0.1920
   12SAPS  H20R 1545   4.308   5.442   4.201  1.3937  3.7739  0.9944
   12SAPS  H20S 1546   4.135   5.375   4.166  1.4462 -1.0437  2.0447
   12SAPS  H20T 1547   4.164   5.495   4.298  1.2387 -0.1851  0.1835
   12SAPS   C33 1548   4.975   6.090   2.912  0.6607 -0.6084  0.4504
   12SAPS   H3X 1549   4.921   6.162   2.847  0.3190  0.5040  1.9235
   12SAPS   H3Y 1550   5.060   6.147   2.954  0.1411  0.2337  0.3766
   12SAPS   C34 1551   4.893   6.044   3.038  0.6098 -0.7806  0.0961
   12SAPS   H4X 1552   4.951   5.962   3.087  0.3253 -0.3464  1.2009
   12SAPS   H4Y 1553   4.789   6.011   3.018 -0.1653  1.1521  0.6318
   12SAPS   C35 1554   4.885   6.162   3.142  0.1997  0.0807 -0.2255
   12SAPS   H5X 1555   4.834   6.253   3.104 -1.4317 -0.3507  0.8391
   12SAPS   H5Y 1556   4.990   6.192   3.164 -0.0413  1.7342 -1.1484
   12SAPS   C36 1557   4.817   6.131   3.277 -0.1265 -0.1664 -0.1479
   12SAPS   H6X 1558   4.857   6.035   3.316  1.3595 -0.6320 -2.6247
   12SAPS   H6Y 1559   4.708   6.122   3.258  0.3510 -1.1209 -2.8828
   12SAPS   C37 1560   4.843   6.236   3.383 -0.0214 -0.2852  0.0342
   12SAPS   H7X 1561   4.952   6.259   3.380 -0.0471 -0.1918 -0.3046
   12SAPS   H7Y 1562   4.822   6.194   3.484 -0.2735 -0.6661 -0.1729
   12SAPS   C38 1563   4.756   6.365   3.359  0.2964  0.5189 -0.4531
   12SAPS   H8X 1564   4.653   6.323   3.351  1.3014 -1.9569 -0.9306
   12SAPS   H8Y 1565   4.773   6.427   3.268 -0.5113  1.4948  0.0333
   12SAPS   C39 1566   4.762   6.459   3.486  0.1420 -0.5841  0.2700
   12SAPS   H9X 1567   4.751   6.398   3.578  0.3047 -0.7467  0.1835
   12SAPS   H9Y 1568   4.676   6.529   3.483  0.8646  0.3025 -0.3679
   12SAPS  C310 1569   4.894   6.543   3.491 -0.0326  0.1592  0.1836
   12SAPS  H10X 1570   4.896   6.626   3.417 -0.4041  1.0030  1.1044
   12SAPS  H10Y 1571   4.978   6.480   3.455 -1.0469 -1.1200 -0.0437
   12SAPS  C311 1572   4.912   6.610   3.630 -0.2130  0.8255 -0.0917
   12SAPS  H11X 1573   5.000   6.677   3.619 -0.0393  0.3240 -2.4919
   12SAPS  H11Y 1574   4.937   6.536   3.709 -1.4069 -1.6365 -1.8633
   12SAPS  C312 1575   4.801   6.696   3.695 -0.0993  0.1592  0.3003
   12SAPS  H12X 1576   4.723   6.623   3.726 -0.5990  0.6379  0.1825
   12SAPS  H12Y 1577   4.762   6.760   3.613  0.9640  1.8071  1.0327
   12SAPS  C313 1578   4.845   6.784   3.817 -0.0824  0.9575 -0.6063
   12SAPS  H13X 1579   4.897   6.876   3.784 -1.7463  2.6750  1.3593
   12SAPS  H13Y 1580   4.918   6.717   3.869  0.0187  2.2230  0.9546
   12SAPS  C314 1581   4.732   6.793   3.916  0.5871 -0.6364 -0.2117
   12SAPS  H14X 1582   4.693   6.697   3.955 -0.6015 -0.0433  0.1377
   12SAPS  H14Y 1583   4.655   6.833   3.847 -0.0624 -1.6310 -0.0854
   12SAPS  C315 1584   4.754   6.905   4.021  0.2050 -0.4412  0.4779
   12SAPS  H15X 1585   4.658   6.962   4.023  0.7788  0.6806 -1.5401
   12SAPS  H15Y 1586   4.826   6.983   3.991 -1.3846  0.8081 -0.2642
   12SAPS  C316 1587   4.799   6.848   4.148 -0.4783  0.2012  0.5939
   12SAPS  H16X 1588   4.906   6.826   4.128 -0.3379 -1.7990  3.0485
   12SAPS  H16Y 1589   4.766   6.744   4.170  0.9773 -0.1433  1.2618
   12SAPS  C317 1590   4.785   6.937   4.268 -0.1107  0.0088 -0.1443
   12SAPS  H17X 1591   4.825   6.872   4.348  0.8863  0.5755 -0.1698
   12SAPS  H17Y 1592   4.677   6.955   4.287  0.0936 -0.0112  1.1311
   12SAPS  C318 1593   4.871   7.066   4.263 -0.0519 -0.3246 -0.3855
   12SAPS  H18X 1594   4.851   7.124   4.170  1.6166  0.7476 -0.1247
   12SAPS  H18Y 1595   4.980   7.043   4.268  0.1614  0.3041 -1.6332
   12SAPS  H18Z 1596   4.848   7.115   4.359 -2.2969 -0.5864 -0.7292
   13SAPS     N 1597   6.516   5.233   1.815  0.0567  0.1621 -0.0490
   13SAPS   HN1 1598   6.509   5.192   1.719  2.7416  0.4932 -0.4739
   13SAPS   HN2 1599   6.542   5.152   1.874  0.8470 -0.0477 -0.6555
   13SAPS   HN3 1600   6.426   5.278   1.841  2.3605  3.8047  2.4932
   13SAPS   C12 1601   6.634   5.332   1.810  0.3370 -0.0743 -0.2207
   13SAPS  H12A 1602   6.700   5.287   1.737 -0.0821 -0.0655 -0.6082
   13SAPS   C13 1603   6.590   5.473   1.753  0.8849  0.0634  0.8386
   13SAPS  O13A 1604   6.466   5.499   1.756 -0.1293 -0.8777  0.5856
   13SAPS  O13B 1605   6.670   5.572   1.769  0.5500  0.7711 -0.2828
   13SAPS   C11 1606   6.695   5.344   1.955  0.6277  0.4372  0.1192
   13SAPS  H11A 1607   6.608   5.344   2.023  0.7802 -1.7597  0.3749
   13SAPS  H11B 1608   6.745   5.443   1.967  0.7732  0.3690  0.0868
   13SAPS     P 1609   6.742   5.099   2.049 -0.1187  0.0828 -0.0375
   13SAPS   O13 1610   6.675   5.047   1.926  1.1044  0.8107 -0.2310
   13SAPS   O14 1611   6.857   5.027   2.104 -0.9466 -0.1524 -0.3184
   13SAPS   O12 1612   6.788   5.243   2.001 -0.1156 -0.2392 -0.1833
   13SAPS   O11 1613   6.637   5.119   2.171  0.1257  0.3857  0.5564
   13SAPS    C1 1614   6.658   5.218   2.279 -0.4420 -0.7391 -0.0052
   13SAPS    HA 1615   6.718   5.305   2.243 -0.5158 -0.3941  0.6846
   13SAPS    HB 1616   6.561   5.254   2.320 -0.2978  0.2127 -0.4713
   13SAPS    C2 1617   6.729   5.151   2.401 -0.8542 -0.5231 -0.7104
   13SAPS    HS 1618   6.834   5.124   2.374 -0.0677  0.9438  0.7139
   13SAPS   O21 1619   6.645   5.043   2.445 -0.0869  0.4580 -0.2033
   13SAPS   C21 1620   6.705   4.943   2.510 -0.7732 -0.5587  0.3186
   13SAPS   O22 1621   6.825   4.924   2.514  0.2830  0.2789 -0.5896
   13SAPS   C22 1622   6.594   4.849   2.565  0.0411  0.3974 -0.3708
   13SAPS   H2R 1623   6.526   4.922   2.614  0.5827  0.7400 -0.1161
   13SAPS   H2S 1624   6.554   4.797   2.475  2.9366 -0.7238 -1.1084
   13SAPS    C3 1625   6.748   5.254   2.519  0.2030  0.2289  0.2570
   13SAPS    HX 1626   6.642   5.273   2.548 -0.1610 -0.8482 -0.2859
   13SAPS    HY 1627   6.800   5.343   2.478  1.7794 -1.0974 -0.7475
   13SAPS   O31 1628   6.819   5.209   2.642  0.0430 -0.4808 -0.0282
   13SAPS   C31 1629   6.950   5.209   2.645  0.6714  0.7164 -0.2146
   13SAPS   O32 1630   7.029   5.226   2.556 -0.6815 -0.1168  0.0523
   13SAPS   C32 1631   6.996   5.165   2.784 -0.1432  0.4659 -0.9455
   13SAPS   H2X 1632   6.955   5.064   2.805 -0.2163  0.2496 -2.1098
   13SAPS   H2Y 1633   6.948   5.237   2.855 -1.8467 -0.7241 -0.8060
   13SAPS   C23 1634   6.649   4.752   2.671 -0.0953  0.8107 -0.2417
   13SAPS   H3R 1635   6.719   4.813   2.732 -0.9110  2.1290 -0.5712
   13SAPS   H3S 1636   6.708   4.674   2.617  0.8359  1.1972  0.1911
   13SAPS   C24 1637   6.529   4.701   2.759  0.5554  0.1248  0.9328
   13SAPS   H4R 1638   6.459   4.673   2.678  3.8054 -0.8714 -1.7938
   13SAPS   H4S 1639   6.485   4.778   2.826  0.0608 -0.4468  1.2756
   13SAPS   C25 1640   6.580   4.589   2.846 -0.1839  0.2128  0.0539
   13SAPS   H5R 1641   6.612   4.498   2.793  2.1723  1.4077 -0.7045
   13SAPS   C26 1642   6.591   4.601   2.981  0.4025  0.3733 -0.5675
   13SAPS   H6R 1643   6.648   4.516   3.022  0.0437  1.0525  1.4568
   13SAPS   C27 1644   6.552   4.713   3.079 -0.6004 -0.1190  0.7637
   13SAPS   H7R 1645   6.617   4.803   3.070  0.3504 -0.7645  1.0319
   13SAPS   H7S 1646   6.579   4.674   3.179  1.4250 -1.9266 -0.4162
   13SAPS   C28 1647   6.409   4.760   3.078 -0.2677  0.1313 -0.1303
   13SAPS   H8R 1648   6.358   4.754   2.981 -0.1152 -1.2867 -0.1437
   13SAPS   C29 1649   6.340   4.795   3.186 -0.6183 -0.5798  0.5804
   13SAPS   H9R 1650   6.243   4.845   3.174 -0.7094 -1.1990 -1.7824
   13SAPS  C210 1651   6.395   4.795   3.323 -0.2050  0.4282  0.1646
   13SAPS  H10R 1652   6.491   4.851   3.322 -0.6032  1.2197  1.7846
   13SAPS  H10S 1653   6.417   4.689   3.347  1.8646  0.3048 -1.9427
   13SAPS  C211 1654   6.301   4.845   3.426 -0.0744  0.2611  0.0659
   13SAPS  H11R 1655   6.275   4.778   3.509 -0.9784  0.5959  0.0580
   13SAPS  C212 1656   6.259   4.973   3.448 -0.1067  0.4026 -0.1059
   13SAPS  H12R 1657   6.173   4.986   3.515  1.1637  0.6064  1.5435
   13SAPS  C213 1658   6.290   5.085   3.351 -0.0889  0.1059 -0.1024
   13SAPS  H13R 1659   6.208   5.102   3.278  0.1215  0.3131 -0.2953
   13SAPS  H13S 1660   6.370   5.044   3.287  0.0234 -0.9804  0.7152
   13SAPS  C214 1661   6.334   5.205   3.422 -0.5486 -1.0379  0.3534
   13SAPS  H14R 1662   6.435   5.234   3.389 -0.2504 -1.0336  1.2473
   13SAPS  C215 1663   6.278   5.275   3.521 -0.5194  0.2889  0.0963
   13SAPS  H15R 1664   6.329   5.370   3.544  2.1201 -0.6011 -1.5877
   13SAPS  C216 1665   6.134   5.265   3.562  0.2899  0.1537  0.2304
   13SAPS  H16R 1666   6.135   5.220   3.664 -1.6812  0.3996  0.4052
   13SAPS  H16S 1667   6.079   5.212   3.482  1.9764 -0.0479 -0.8461
   13SAPS  C217 1668   6.058   5.397   3.567  0.2905  0.3016 -0.1312
   13SAPS  H17R 1669   6.066   5.425   3.460  1.4226  0.3002 -0.0571
   13SAPS  H17S 1670   6.106   5.473   3.631 -2.8236  0.4668  2.2476
   13SAPS  C218 1671   5.906   5.375   3.607  0.4064 -0.2697  0.4171
   13SAPS  H18R 1672   5.859   5.319   3.524 -0.9657  1.9945 -0.4433
   13SAPS  H18S 1673   5.861   5.476   3.620 -0.8044 -0.6642 -0.5014
   13SAPS  C219 1674   5.885   5.304   3.743  0.4509 -0.3445 -0.1459
   13SAPS  H19R 1675   5.798   5.355   3.788  1.5599  3.2064 -1.6196
   13SAPS  H19S 1676   5.971   5.322   3.811 -1.2835  2.9209  1.4034
   13SAPS  C220 1677   5.859   5.154   3.730 -0.7982  0.3208  0.2150
   13SAPS  H20R 1678   5.905   5.123   3.634 -1.4514  0.1284 -0.0399
   13SAPS  H20S 1679   5.754   5.120   3.737 -1.7343  2.8440 -0.4678
   13SAPS  H20T 1680   5.904   5.113   3.823 -0.5772  0.0315 -0.0189
   13SAPS   C33 1681   7.145   5.172   2.818 -0.0340 -0.5550  0.4702
   13SAPS   H3X 1682   7.184   5.276   2.811 -0.4493 -0.4569 -0.5097
   13SAPS   H3Y 1683   7.191   5.095   2.753 -0.2429 -1.0754  0.9271
   13SAPS   C34 1684   7.168   5.140   2.965  0.5729  1.3005 -0.1557
   13SAPS   H4X 1685   7.268   5.093   2.976 -0.3085 -0.2842  1.6920
   13SAPS   H4Y 1686   7.093   5.063   2.995  0.5647  1.7393  0.9702
   13SAPS   C35 1687   7.155   5.258   3.059  0.3381 -0.0741  0.1221
   13SAPS   H5X 1688   7.055   5.305   3.052  0.5421  0.3624  0.1295
   13SAPS   H5Y 1689   7.234   5.332   3.034  0.1200  0.7588  1.7670
   13SAPS   C36 1690   7.175   5.223   3.203 -0.4189  0.1148 -0.0123
   13SAPS   H6X 1691   7.278   5.226   3.245  0.4934  2.9325 -2.1720
   13SAPS   H6Y 1692   7.132   5.121   3.213  0.3275 -0.2761 -0.6712
   13SAPS   C37 1693   7.089   5.308   3.293  0.4081 -0.3171 -0.0816
   13SAPS   H7X 1694   6.983   5.290   3.263 -1.3485  2.3772  3.6836
   13SAPS   H7Y 1695   7.098   5.419   3.284 -1.3849 -0.1612 -0.2713
   13SAPS   C38 1696   7.103   5.266   3.443 -0.3250 -0.3237 -0.8750
   13SAPS   H8X 1697   7.205   5.299   3.472 -0.4342  0.4248 -1.3016
   13SAPS   H8Y 1698   7.094   5.155   3.440  0.1481 -0.3725 -0.7095
   13SAPS   C39 1699   6.998   5.327   3.535  0.6303 -0.6622 -0.6200
   13SAPS   H9X 1700   6.896   5.298   3.502 -0.0083  2.4484 -1.6941
   13SAPS   H9Y 1701   7.004   5.437   3.522  3.6346 -0.9648 -2.9372
   13SAPS  C310 1702   7.022   5.297   3.684 -0.1483 -0.3932  0.1901
   13SAPS  H10X 1703   7.127   5.324   3.708 -0.0657 -1.8469  1.7129
   13SAPS  H10Y 1704   7.013   5.189   3.711 -3.5713  0.0303  1.2756
   13SAPS  C311 1705   6.919   5.366   3.775  0.4324 -0.5406 -0.3125
   13SAPS  H11X 1706   6.814   5.328   3.770 -0.6339  2.2416 -0.7942
   13SAPS  H11Y 1707   6.901   5.470   3.742  1.7085  0.2368  1.3292
   13SAPS  C312 1708   6.972   5.369   3.923 -0.0047 -0.7460 -0.4955
   13SAPS  H12X 1709   7.063   5.433   3.919 -0.1331 -0.5732 -0.6539
   13SAPS  H12Y 1710   7.014   5.270   3.953  1.0387 -0.4690 -0.9962
   13SAPS  C313 1711   6.877   5.409   4.033 -0.2163  0.8476  0.1542
   13SAPS  H13X 1712   6.792   5.337   4.024 -0.3190  0.8927  0.7057
   13SAPS  H13Y 1713   6.838   5.511   4.012 -0.9815  0.3075 -1.1838
   13SAPS  C314 1714   6.928   5.385   4.175  0.4426 -0.0349 -1.3435
   13SAPS  H14X 1715   7.027   5.435   4.178  0.4380 -0.0630  0.9072
   13SAPS  H14Y 1716   6.938   5.276   4.190 -1.4448 -0.0373  0.2818
   13SAPS  C315 1717   6.827   5.428   4.281  0.1520 -0.3980 -0.5337
   13SAPS  H15X 1718   6.736   5.427   4.218 -0.1714 -1.9959 -0.0885
   13SAPS  H15Y 1719   6.844   5.536   4.302  1.7329 -0.6732 -0.2116
   13SAPS  C316 1720   6.837   5.344   4.412  0.2002  0.4779  0.2520
   13SAPS  H16X 1721   6.941   5.336   4.450  1.1108 -1.3482 -2.3283
   13SAPS  H16Y 1722   6.803   5.239   4.407 -0.9411  0.8281  0.3195
   13SAPS  C317 1723   6.761   5.415   4.525 -0.0147 -1.1192  0.6118
   13SAPS  H17X 1724   6.662   5.455   4.494  0.9007  0.9571  0.1753
   13SAPS  H17Y 1725   6.819   5.500   4.568 -0.5378 -0.8432  0.7868
   13SAPS  C318 1726   6.739   5.322   4.653 -1.3957 -0.1895  0.2451
   13SAPS  H18X 1727   6.670   5.237   4.631 -0.8171 -1.1715  2.0492
   13SAPS  H18Y 1728   6.697   5.384   4.735  3.9935  1.4180  2.2163
   13SAPS  H18Z 1729   6.834   5.285   4.696 -1.1777  1.3669  1.1919
   14SAPS     N 1730   0.245   0.247   2.315  0.2671 -0.4801 -0.5982
   14SAPS   HN1 1731   0.171   0.187   2.358 -0.9319  0.0424 -1.8369
   14SAPS   HN2 1732   0.291   0.298   2.393  2.2690  0.5954 -2.3759
   14SAPS   HN3 1733   0.200   0.316   2.251  0.4256 -0.3799 -0.6017
   14SAPS   C12 1734   0.353   0.168   2.247 -0.4578 -0.0114  0.2730
   14SAPS  H12A 1735   0.307   0.111   2.168 -0.3271  1.8087 -1.1863
   14SAPS   C13 1736   0.461   0.244   2.176 -0.6094 -0.1051  0.0282
   14SAPS  O13A 1737   0.482   0.366   2.199 -0.2669 -0.1067  0.0595
   14SAPS  O13B 1738   0.541   0.187   2.091  0.9549 -0.5212 -0.3188
   14SAPS   C11 1739   0.420   0.067   2.349  0.0655  0.2267  0.5210
   14SAPS  H11A 1740   0.487   0.126   2.415  0.0793 -0.8528  1.5035
   14SAPS  H11B 1741   0.495   0.013   2.288 -0.2420  2.0544 -1.5819
   14SAPS     P 1742   0.256  -0.145   2.358  0.2023 -0.3510  0.7200
   14SAPS   O13 1743   0.110  -0.140   2.383  0.4411  0.0556  0.3798
   14SAPS   O14 1744   0.299  -0.142   2.216 -0.3828  0.1700 -0.2261
   14SAPS   O12 1745   0.322  -0.017   2.427 -0.2227 -0.3287  0.4188
   14SAPS   O11 1746   0.323  -0.270   2.419 -0.3056  0.0581 -0.1561
   14SAPS    C1 1747   0.440  -0.261   2.494 -0.2549 -0.4076  0.2852
   14SAPS    HA 1748   0.507  -0.185   2.449 -1.0112 -0.0424 -0.2554
   14SAPS    HB 1749   0.419  -0.229   2.598  0.3630  1.5880 -0.1582
   14SAPS    C2 1750   0.515  -0.397   2.503 -0.3159  0.8512 -0.2087
   14SAPS    HS 1751   0.546  -0.420   2.399 -1.3757 -1.4690 -0.0782
   14SAPS   O21 1752   0.431  -0.498   2.555 -0.2165  0.4068 -0.8282
   14SAPS   C21 1753   0.453  -0.619   2.524 -0.4487  0.6832  0.5476
   14SAPS   O22 1754   0.557  -0.666   2.471 -0.1130 -0.4530 -0.4572
   14SAPS   C22 1755   0.335  -0.706   2.584 -0.0962 -0.7728  0.4651
   14SAPS   H2R 1756   0.360  -0.710   2.692 -2.1354 -1.8199  0.9411
   14SAPS   H2S 1757   0.240  -0.650   2.573  0.6133  0.3604 -0.1224
   14SAPS    C3 1758   0.651  -0.401   2.584  0.1906 -0.3818  0.4539
   14SAPS    HX 1759   0.709  -0.316   2.541 -1.8587  0.0423 -1.6278
   14SAPS    HY 1760   0.702  -0.500   2.585 -2.3873 -1.7966  1.6781
   14SAPS   O31 1761   0.633  -0.374   2.723  0.1933 -0.3044 -0.0114
   14SAPS   C31 1762   0.739  -0.321   2.786 -0.1609 -0.0145  0.6648
   14SAPS   O32 1763   0.846  -0.294   2.734 -0.4751 -0.7035 -0.4836
   14SAPS   C32 1764   0.692  -0.282   2.917  0.3248  0.1123  0.2391
   14SAPS   H2X 1765   0.582  -0.295   2.924  0.0045  2.7805  1.3535
   14SAPS   H2Y 1766   0.725  -0.177   2.929 -1.4534  0.6374  0.8672
   14SAPS   C23 1767   0.325  -0.848   2.511 -0.0239 -0.7750 -0.0145
   14SAPS   H3R 1768   0.421  -0.900   2.492  0.1885  0.1598 -1.6983
   14SAPS   H3S 1769   0.281  -0.823   2.412 -1.0665  1.2751  0.8937
   14SAPS   C24 1770   0.235  -0.935   2.597  0.3999  0.0227  0.1593
   14SAPS   H4R 1771   0.130  -0.899   2.593 -0.6594 -2.7062  0.8454
   14SAPS   H4S 1772   0.266  -0.921   2.703  0.2915  1.4272  0.0197
   14SAPS   C25 1773   0.251  -1.080   2.563  0.4455  0.0735  0.3936
   14SAPS   H5R 1774   0.222  -1.103   2.459  0.6494  2.6368 -0.3045
   14SAPS   C26 1775   0.294  -1.184   2.640 -0.5495  0.3256  0.0165
   14SAPS   H6R 1776   0.288  -1.281   2.588  0.0040  0.9776 -1.3141
   14SAPS   C27 1777   0.342  -1.171   2.779  1.0896 -0.7248 -0.0966
   14SAPS   H7R 1778   0.262  -1.117   2.833  2.7236  0.1543  1.5595
   14SAPS   H7S 1779   0.428  -1.101   2.779 -1.5066  2.7872 -2.7637
   14SAPS   C28 1780   0.380  -1.307   2.840 -0.0538 -0.0599 -0.0908
   14SAPS   H8R 1781   0.447  -1.359   2.770  0.4459  0.3084  0.1069
   14SAPS   C29 1782   0.355  -1.370   2.959  0.5460  0.1170 -0.7353
   14SAPS   H9R 1783   0.404  -1.466   2.978 -1.2740 -0.8766 -0.8588
   14SAPS  C210 1784   0.281  -1.312   3.073  0.8694 -0.5943  0.0098
   14SAPS  H10R 1785   0.269  -1.401   3.139  0.5300 -1.0019 -0.5861
   14SAPS  H10S 1786   0.177  -1.284   3.045  0.2899  0.9867  3.2920
   14SAPS  C211 1787   0.346  -1.199   3.143 -0.5193 -0.3025 -0.3963
   14SAPS  H11R 1788   0.384  -1.115   3.083 -1.5880 -0.3804 -1.2073
   14SAPS  C212 1789   0.344  -1.176   3.277  0.0649 -0.2043  0.4169
   14SAPS  H12R 1790   0.383  -1.080   3.316 -0.3572  0.6180 -1.1198
   14SAPS  C213 1791   0.285  -1.263   3.385  0.0963 -0.1264  0.4756
   14SAPS  H13R 1792   0.199  -1.314   3.336  0.1696  1.0288 -0.9054
   14SAPS  H13S 1793   0.241  -1.193   3.459 -0.7173  3.2927 -2.9531
   14SAPS  C214 1794   0.389  -1.361   3.434  0.7999 -0.1087 -0.5413
   14SAPS  H14R 1795   0.407  -1.437   3.356 -0.4903  0.2686 -1.2255
   14SAPS  C215 1796   0.429  -1.380   3.560 -0.4584 -0.2846  0.8985
   14SAPS  H15R 1797   0.509  -1.454   3.575  1.7537  1.9878  0.9552
   14SAPS  C216 1798   0.402  -1.295   3.678 -0.1533 -0.0660 -0.4540
   14SAPS  H16R 1799   0.372  -1.195   3.640 -0.8068 -0.1444 -0.1602
   14SAPS  H16S 1800   0.496  -1.273   3.733  0.3528 -1.4021 -0.7371
   14SAPS  C217 1801   0.313  -1.355   3.790 -0.5938  0.1899  1.1486
   14SAPS  H17R 1802   0.379  -1.432   3.835  0.4567 -2.0034 -3.5543
   14SAPS  H17S 1803   0.226  -1.413   3.753  0.8238 -0.7231 -0.9354
   14SAPS  C218 1804   0.272  -1.251   3.885 -0.4309 -0.3891 -0.0805
   14SAPS  H18R 1805   0.366  -1.208   3.927  0.9435 -0.9440 -2.4299
   14SAPS  H18S 1806   0.229  -1.292   3.979 -0.3982  1.0661  0.6069
   14SAPS  C219 1807   0.180  -1.142   3.815  0.3142 -0.7448 -0.0762
   14SAPS  H19R 1808   0.156  -1.174   3.711  0.8363 -0.1018 -0.3985
   14SAPS  H19S 1809   0.240  -1.049   3.819  1.6241 -1.5977  2.3088
   14SAPS  C220 1810   0.039  -1.116   3.886 -0.5263  0.4542 -0.0454
   14SAPS  H20R 1811  -0.021  -1.054   3.815 -0.3830  0.0732 -0.5059
   14SAPS  H20S 1812   0.058  -1.059   3.979  0.4488 -0.6046  0.4288
   14SAPS  H20T 1813  -0.007  -1.214   3.909  2.6929 -0.7838  1.8257
   14SAPS   C33 1814   0.762  -0.348   3.035  0.3454  0.1808 -0.1378
   14SAPS   H3X 1815   0.871  -0.325   3.035  0.6096 -0.6441  2.4901
   14SAPS   H3Y 1816   0.753  -0.457   3.016 -0.7523  0.4053 -0.9727
   14SAPS   C34 1817   0.712  -0.304   3.174 -0.3505  0.4187  0.0677
   14SAPS   H4X 1818   0.601  -0.306   3.178 -0.6645 -1.2905 -4.4049
   14SAPS   H4Y 1819   0.742  -0.198   3.190  0.4136 -0.0201  1.7146
   14SAPS   C35 1820   0.750  -0.399   3.282 -0.4873 -0.1890 -0.7132
   14SAPS   H5X 1821   0.857  -0.376   3.298 -0.7337 -0.3303  1.6186
   14SAPS   H5Y 1822   0.746  -0.505   3.249 -0.2749 -0.7781  1.0182
   14SAPS   C36 1823   0.693  -0.373   3.416 -0.1155  0.5025  0.6911
   14SAPS   H6X 1824   0.583  -0.368   3.419 -0.2114  0.0592 -0.8713
   14SAPS   H6Y 1825   0.714  -0.270   3.452 -1.0396  0.2472  2.0274
   14SAPS   C37 1826   0.762  -0.469   3.521 -0.3401 -0.1274  0.2282
   14SAPS   H7X 1827   0.869  -0.438   3.516  0.0825 -1.5328  0.0874
   14SAPS   H7Y 1828   0.758  -0.567   3.469 -1.2047  0.4130 -0.7482
   14SAPS   C38 1829   0.703  -0.459   3.666 -0.4174  1.0776 -0.0246
   14SAPS   H8X 1830   0.596  -0.486   3.655  0.1230 -2.4618  1.8162
   14SAPS   H8Y 1831   0.700  -0.356   3.708 -2.5194  0.6400  1.0712
   14SAPS   C39 1832   0.753  -0.562   3.769  0.2810 -0.3892 -1.0046
   14SAPS   H9X 1833   0.863  -0.554   3.775  0.1014  2.1692 -0.0773
   14SAPS   H9Y 1834   0.728  -0.668   3.744  0.7727 -0.4468 -1.2619
   14SAPS  C310 1835   0.707  -0.539   3.922 -0.2554  0.1143  0.5089
   14SAPS  H10X 1836   0.603  -0.576   3.933  0.5986 -1.9679  2.0779
   14SAPS  H10Y 1837   0.706  -0.429   3.934 -2.5983  0.5035 -2.1198
   14SAPS  C311 1838   0.797  -0.608   4.033 -0.0814 -0.0535  0.6390
   14SAPS  H11X 1839   0.904  -0.590   4.010 -0.5726  2.6864  0.1408
   14SAPS  H11Y 1840   0.788  -0.718   4.031 -1.9612  0.0817 -0.7674
   14SAPS  C312 1841   0.754  -0.550   4.170 -0.0417  0.0746 -0.0540
   14SAPS  H12X 1842   0.648  -0.576   4.188  0.0767 -0.1213  0.3842
   14SAPS  H12Y 1843   0.753  -0.440   4.156 -1.6656 -0.0855 -1.6088
   14SAPS  C313 1844   0.852  -0.593   4.284  0.1980  0.1323  0.6134
   14SAPS  H13X 1845   0.955  -0.554   4.277  1.5998 -3.2834  0.0227
   14SAPS  H13Y 1846   0.872  -0.703   4.288  0.1418  0.1447  1.5383
   14SAPS  C314 1847   0.808  -0.545   4.415  0.5784 -0.1203  0.3750
   14SAPS  H14X 1848   0.772  -0.444   4.384  0.8322 -0.4366 -1.0038
   14SAPS  H14Y 1849   0.893  -0.535   4.486  0.8059 -0.3292  0.1279
   14SAPS  C315 1850   0.699  -0.637   4.473  0.6682  0.6507  1.4692
   14SAPS  H15X 1851   0.735  -0.740   4.494 -0.3735 -0.1270 -0.3094
   14SAPS  H15Y 1852   0.615  -0.657   4.403  1.1352 -0.6468  1.2634
   14SAPS  C316 1853   0.625  -0.577   4.595  0.6701  0.3472  0.0714
   14SAPS  H16X 1854   0.595  -0.474   4.565  0.1335  0.0792 -0.3116
   14SAPS  H16Y 1855   0.700  -0.561   4.676  1.9492 -0.4126 -0.9330
   14SAPS  C317 1856   0.506  -0.669   4.640  0.0750 -0.5165  0.5755
   14SAPS  H17X 1857   0.539  -0.773   4.661 -0.1104 -0.8408 -0.6656
   14SAPS  H17Y 1858   0.445  -0.686   4.549 -1.3720  2.5321  0.8526
   14SAPS  C318 1859   0.422  -0.626   4.759 -0.1050 -0.0758  0.1440
   14SAPS  H18X 1860   0.379  -0.527   4.734 -1.4164 -0.8029 -0.5744
   14SAPS  H18Y 1861   0.484  -0.620   4.851  1.3021  0.9279 -0.8437
   14SAPS  H18Z 1862   0.330  -0.688   4.768 -0.2951  0.0929 -0.5809
   15SAPS     N 1863   4.917   0.174   2.388  0.0106 -0.8632  0.7642
   15SAPS   HN1 1864   4.861   0.144   2.471 -2.1032 -1.8291 -0.9028
   15SAPS   HN2 1865   4.995   0.109   2.370  0.9621 -0.2026  2.3357
   15SAPS   HN3 1866   4.953   0.271   2.402 -3.6365  0.9577 -0.9436
   15SAPS   C12 1867   4.814   0.182   2.281  0.5190 -0.2277 -0.0188
   15SAPS  H12A 1868   4.727   0.239   2.312 -0.0818 -1.1701  0.0613
   15SAPS   C13 1869   4.877   0.251   2.159  0.0792 -0.5365  0.4127
   15SAPS  O13A 1870   4.990   0.304   2.156 -0.1870 -0.8047  0.4141
   15SAPS  O13B 1871   4.783   0.283   2.079 -0.1195 -0.1948 -0.1178
   15SAPS   C11 1872   4.773   0.040   2.238 -1.1478  0.4777  0.4559
   15SAPS  H11A 1873   4.852  -0.003   2.173 -1.0647  0.5752  0.4946
   15SAPS  H11B 1874   4.683   0.055   2.175  0.1116 -0.1267 -1.5803
   15SAPS     P 1875   4.646  -0.170   2.316  0.4263  0.0644 -0.1699
   15SAPS   O13 1876   4.510  -0.117   2.286  0.1808  0.2797 -0.5084
   15SAPS   O14 1877   4.695  -0.246   2.200 -0.4179 -0.0384 -0.2119
   15SAPS   O12 1878   4.747  -0.051   2.346 -0.0130 -0.4073 -0.9179
   15SAPS   O11 1879   4.648  -0.264   2.446  0.0256  0.7718  0.4326
   15SAPS    C1 1880   4.754  -0.361   2.466 -0.0475 -0.6254 -0.1205
   15SAPS    HA 1881   4.710  -0.462   2.458 -1.3148 -0.0661 -0.4275
   15SAPS    HB 1882   4.839  -0.352   2.395 -0.8468 -0.3284 -1.0578
   15SAPS    C2 1883   4.821  -0.340   2.605  1.0559 -0.1575 -0.5686
   15SAPS    HS 1884   4.909  -0.405   2.621  1.2573  0.1653 -0.3605
   15SAPS   O21 1885   4.715  -0.350   2.705 -0.1894 -0.1130 -0.0588
   15SAPS   C21 1886   4.702  -0.463   2.775 -0.1055  0.2081  0.2347
   15SAPS   O22 1887   4.778  -0.560   2.761  0.5211  0.0374 -0.0859
   15SAPS   C22 1888   4.604  -0.444   2.891 -0.0035  0.7268 -0.5684
   15SAPS   H2R 1889   4.647  -0.376   2.967 -0.8224 -0.3798  0.9392
   15SAPS   H2S 1890   4.524  -0.381   2.846 -1.4333  0.0955  0.9685
   15SAPS    C3 1891   4.876  -0.194   2.621  0.3832  0.1706 -0.4130
   15SAPS    HX 1892   4.792  -0.126   2.598  0.0257  0.1423  0.7645
   15SAPS    HY 1893   4.955  -0.181   2.543  0.8526 -2.4256 -0.4855
   15SAPS   O31 1894   4.938  -0.169   2.742 -1.1946  0.1284 -0.3075
   15SAPS   C31 1895   4.925  -0.051   2.795 -0.3759 -0.3685  0.2817
   15SAPS   O32 1896   4.887   0.051   2.738  0.2848  0.0328  0.1064
   15SAPS   C32 1897   4.937  -0.046   2.948 -0.0868 -0.0497  0.8919
   15SAPS   H2X 1898   4.860   0.027   2.981 -1.1272  0.5673 -2.5347
   15SAPS   H2Y 1899   5.034  -0.005   2.982 -0.1588  0.9362 -0.0194
   15SAPS   C23 1900   4.546  -0.575   2.961 -0.5860 -0.5972 -0.6290
   15SAPS   H3R 1901   4.623  -0.634   3.014  0.6623  0.3413 -1.3124
   15SAPS   H3S 1902   4.493  -0.631   2.881 -0.1919  0.7632 -1.8842
   15SAPS   C24 1903   4.433  -0.540   3.052 -0.4531  0.4490 -0.3724
   15SAPS   H4R 1904   4.386  -0.638   3.075  1.6340 -0.5204  0.0199
   15SAPS   H4S 1905   4.363  -0.476   2.995 -1.3380  0.3626  0.6014
   15SAPS   C25 1906   4.473  -0.462   3.176  0.3427  0.4258 -0.1663
   15SAPS   H5R 1907   4.532  -0.369   3.170  1.3093 -0.1455  0.3000
   15SAPS   C26 1908   4.419  -0.481   3.297 -0.2838 -0.3774 -0.8530
   15SAPS   H6R 1909   4.438  -0.408   3.377 -0.7799 -0.8511 -0.2972
   15SAPS   C27 1910   4.307  -0.581   3.313  0.0119 -0.1993  0.0307
   15SAPS   H7R 1911   4.241  -0.590   3.224  0.3954 -0.3453 -0.2378
   15SAPS   H7S 1912   4.232  -0.531   3.379 -0.4888  1.4484 -1.7025
   15SAPS   C28 1913   4.346  -0.716   3.364  0.3166  0.2926 -0.9930
   15SAPS   H8R 1914   4.332  -0.796   3.290  0.8039 -0.7243 -0.0253
   15SAPS   C29 1915   4.398  -0.741   3.485 -0.0980  0.7498 -0.0363
   15SAPS   H9R 1916   4.407  -0.849   3.508 -0.0084  0.6520 -0.5214
   15SAPS  C210 1917   4.419  -0.639   3.596  0.0942 -0.4762 -0.0182
   15SAPS  H10R 1918   4.356  -0.548   3.592  1.3953  0.6193  2.3052
   15SAPS  H10S 1919   4.524  -0.609   3.573  0.8941 -2.8333  0.1806
   15SAPS  C211 1920   4.412  -0.698   3.738 -0.1965  0.0002  0.2526
   15SAPS  H11R 1921   4.307  -0.717   3.765 -0.9652  1.8791 -1.1665
   15SAPS  C212 1922   4.513  -0.742   3.818  0.1326 -0.1121  0.3936
   15SAPS  H12R 1923   4.477  -0.803   3.903 -1.4491 -0.0857 -0.2215
   15SAPS  C213 1924   4.665  -0.738   3.789 -0.6766 -0.1692 -0.0241
   15SAPS  H13R 1925   4.676  -0.728   3.679  0.2087  0.3685  0.1025
   15SAPS  H13S 1926   4.712  -0.833   3.821 -2.5351 -2.1767 -2.7810
   15SAPS  C214 1927   4.739  -0.626   3.869 -0.0784 -0.2253  0.3585
   15SAPS  H14R 1928   4.783  -0.558   3.794 -1.5739 -1.2618 -1.5752
   15SAPS  C215 1929   4.754  -0.609   4.005  0.0569 -0.1275  0.0484
   15SAPS  H15R 1930   4.809  -0.520   4.039  0.7253  0.3067 -2.0003
   15SAPS  C216 1931   4.705  -0.699   4.119  0.1393  0.5638 -0.8215
   15SAPS  H16R 1932   4.625  -0.768   4.084 -1.3931  1.4170  0.7866
   15SAPS  H16S 1933   4.659  -0.630   4.194  0.2185  0.1072 -0.3530
   15SAPS  C217 1934   4.822  -0.766   4.196 -0.6934 -0.4422  0.1281
   15SAPS  H17R 1935   4.879  -0.686   4.249  0.1689 -1.6911  1.1393
   15SAPS  H17S 1936   4.890  -0.808   4.120 -0.3336 -0.6970  0.5889
   15SAPS  C218 1937   4.786  -0.879   4.290 -0.6069 -0.1437  0.0369
   15SAPS  H18R 1938   4.743  -0.961   4.228  1.2142 -0.2238 -1.2135
   15SAPS  H18S 1939   4.706  -0.840   4.356 -0.9708  0.4779 -0.7552
   15SAPS  C219 1940   4.904  -0.914   4.378 -0.0491  0.0613  0.6114
   15SAPS  H19R 1941   4.962  -0.824   4.408 -0.0398  0.3772 -0.3102
   15SAPS  H19S 1942   4.981  -0.977   4.328  1.2278  1.2874  0.9435
   15SAPS  C220 1943   4.855  -1.006   4.497  0.1107 -0.5008 -0.2028
   15SAPS  H20R 1944   4.816  -0.956   4.588 -0.4771  1.7920 -1.6218
   15SAPS  H20S 1945   4.942  -1.064   4.535  0.2975 -0.2207 -0.2019
   15SAPS  H20T 1946   4.776  -1.073   4.456 -1.3260  0.5171  0.7786
   15SAPS   C33 1947   4.904  -0.183   3.016  0.1715 -0.0381  0.0021
   15SAPS   H3X 1948   5.002  -0.235   3.013 -0.5894 -1.4912 -1.8768
   15SAPS   H3Y 1949   4.834  -0.240   2.951 -1.2418  1.1032  0.4742
   15SAPS   C34 1950   4.850  -0.182   3.160  0.5380 -0.5761  0.1126
   15SAPS   H4X 1951   4.927  -0.130   3.221  1.9833 -2.5636  0.0673
   15SAPS   H4Y 1952   4.841  -0.286   3.198  0.5599 -0.6653 -0.1265
   15SAPS   C35 1953   4.712  -0.111   3.183 -0.2569  0.9132 -0.1550
   15SAPS   H5X 1954   4.639  -0.154   3.110  1.3229 -3.1427  0.3975
   15SAPS   H5Y 1955   4.717  -0.001   3.167 -1.8782  0.9861 -0.3283
   15SAPS   C36 1956   4.652  -0.146   3.320  0.4271 -0.3255 -0.3500
   15SAPS   H6X 1957   4.724  -0.107   3.396 -0.0564  2.5651 -1.2599
   15SAPS   H6Y 1958   4.636  -0.255   3.334 -0.1953 -0.1429  0.4640
   15SAPS   C37 1959   4.520  -0.072   3.351 -0.4090 -0.6402  0.0591
   15SAPS   H7X 1960   4.439  -0.092   3.278 -1.0288  2.8629 -0.3900
   15SAPS   H7Y 1961   4.537   0.038   3.342 -2.4097 -0.1398  1.5955
   15SAPS   C38 1962   4.453  -0.095   3.489 -0.0414 -0.5760 -0.1111
   15SAPS   H8X 1963   4.466  -0.203   3.507 -1.2271 -0.9525 -1.3670
   15SAPS   H8Y 1964   4.343  -0.091   3.474  0.0843 -0.4020 -1.1015
   15SAPS   C39 1965   4.488   0.000   3.608 -0.0932 -0.4878 -0.0879
   15SAPS   H9X 1966   4.458   0.104   3.582  2.5474  0.5043  0.4922
   15SAPS   H9Y 1967   4.597   0.001   3.627  0.3529  0.0924 -2.3861
   15SAPS  C310 1968   4.401  -0.041   3.731  0.1146  0.2301  0.7060
   15SAPS  H10X 1969   4.468  -0.075   3.813 -1.2167  0.9642  2.1468
   15SAPS  H10Y 1970   4.344  -0.132   3.702 -0.0516  0.7084 -0.5222
   15SAPS  C311 1971   4.299   0.056   3.782 -0.2386  0.3779 -0.3924
   15SAPS  H11X 1972   4.228   0.072   3.698  1.2423  0.2442 -1.7222
   15SAPS  H11Y 1973   4.347   0.156   3.794  1.0139 -0.3691  1.0868
   15SAPS  C312 1974   4.235   0.020   3.922 -0.8016  0.0333  0.5226
   15SAPS  H12X 1975   4.214  -0.087   3.939  0.9122 -0.4325 -0.0581
   15SAPS  H12Y 1976   4.142   0.081   3.927  0.9666  2.9573  0.3474
   15SAPS  C313 1977   4.331   0.066   4.036 -0.0041 -0.1274 -0.1415
   15SAPS  H13X 1978   4.365   0.168   4.009  0.2017  0.0693  0.8428
   15SAPS  H13Y 1979   4.425   0.008   4.038  0.7888  1.0295 -1.6707
   15SAPS  C314 1980   4.266   0.050   4.177 -0.1687 -0.1928  0.1781
   15SAPS  H14X 1981   4.243  -0.058   4.187 -0.6860 -0.1756 -0.7530
   15SAPS  H14Y 1982   4.168   0.102   4.175 -0.0054  0.1816  1.3371
   15SAPS  C315 1983   4.351   0.113   4.284  0.2434  0.3212 -0.1487
   15SAPS  H15X 1984   4.374   0.220   4.264  1.4052  0.7174  2.7179
   15SAPS  H15Y 1985   4.445   0.055   4.290 -0.4209 -0.7655 -0.0555
   15SAPS  C316 1986   4.283   0.116   4.422  0.4460  0.2662 -0.3215
   15SAPS  H16X 1987   4.258   0.011   4.449 -0.4363  0.5920  0.1665
   15SAPS  H16Y 1988   4.185   0.166   4.433 -0.1980 -1.0559  0.1661
   15SAPS  C317 1989   4.372   0.175   4.529 -0.3524  0.2525  0.1182
   15SAPS  H17X 1990   4.393   0.281   4.502 -0.3043  0.3848  0.6759
   15SAPS  H17Y 1991   4.465   0.114   4.528 -0.8240 -0.5065  1.1729
   15SAPS  C318 1992   4.318   0.173   4.671 -0.1897 -0.4542 -0.2213
   15SAPS  H18X 1993   4.402   0.187   4.742  0.8673  0.7269 -1.6359
   15SAPS  H18Y 1994   4.270   0.076   4.693  1.1483 -1.0565  0.0997
   15SAPS  H18Z 1995   4.245   0.256   4.688  1.7033  0.9995  1.1763
   16SAPS     N 1996   6.243   0.067   1.985 -0.4189  0.0808 -0.3146
   16SAPS   HN1 1997   6.180   0.058   1.902 -0.4214 -0.5176 -0.2563
   16SAPS   HN2 1998   6.340   0.074   1.949 -0.4353 -1.4699 -0.7325
   16SAPS   HN3 1999   6.242  -0.016   2.048  0.9035 -0.5165 -1.0360
   16SAPS   C12 2000   6.209   0.195   2.061  0.5429 -0.4342  0.3721
   16SAPS  H12A 2001   6.257   0.202   2.158  2.0809 -3.0088 -0.1184
   16SAPS   C13 2002   6.245   0.328   1.996  0.0757  0.1038 -0.0484
   16SAPS  O13A 2003   6.336   0.331   1.908  0.5923  0.0103 -0.1898
   16SAPS  O13B 2004   6.196   0.434   2.044  0.1982  0.4115  0.2215
   16SAPS   C11 2005   6.051   0.201   2.080 -0.6324 -0.7651  0.5972
   16SAPS  H11A 2006   6.000   0.219   1.983  0.2420 -0.0042  0.2655
   16SAPS  H11B 2007   6.025   0.293   2.137  0.2240 -1.2623  1.8541
   16SAPS     P 2008   5.930   0.082   2.278 -0.1467  0.0532 -0.2524
   16SAPS   O13 2009   5.798   0.153   2.289 -0.0726 -0.0380  0.4254
   16SAPS   O14 2010   5.938  -0.058   2.328 -0.2334  0.3879 -0.1073
   16SAPS   O12 2011   6.004   0.084   2.141  0.3310 -0.1260 -0.2245
   16SAPS   O11 2012   6.026   0.167   2.374 -0.2324  0.4313  0.2082
   16SAPS    C1 2013   5.999   0.311   2.388  0.2206  1.1061  0.1459
   16SAPS    HA 2014   6.089   0.359   2.342  0.4155  0.0983 -0.5555
   16SAPS    HB 2015   5.911   0.345   2.329 -0.6948  0.5524  1.1722
   16SAPS    C2 2016   5.993   0.360   2.535 -0.0488  0.5148 -0.0988
   16SAPS    HS 2017   5.988   0.470   2.527 -0.5249  0.4276 -1.2027
   16SAPS   O21 2018   6.116   0.323   2.609 -0.2551 -0.1338  0.3706
   16SAPS   C21 2019   6.218   0.405   2.574 -0.5883  0.3059 -0.4263
   16SAPS   O22 2020   6.216   0.499   2.497  0.1732 -0.1261  0.0815
   16SAPS   C22 2021   6.342   0.370   2.659 -0.2431 -0.4648  0.3570
   16SAPS   H2R 2022   6.384   0.274   2.622  2.3347 -0.4045  2.8101
   16SAPS   H2S 2023   6.417   0.451   2.651 -0.1539 -0.7391 -2.7570
   16SAPS    C3 2024   5.867   0.297   2.606 -0.4560  0.0014 -0.1995
   16SAPS    HX 2025   5.888   0.188   2.613 -1.1985 -0.2524 -1.4963
   16SAPS    HY 2026   5.776   0.319   2.545 -2.7504  2.4247  3.6511
   16SAPS   O31 2027   5.840   0.346   2.733  0.5517 -0.0126 -0.1097
   16SAPS   C31 2028   5.901   0.284   2.838 -0.8630  0.1177  0.2218
   16SAPS   O32 2029   5.959   0.179   2.829 -0.5417  0.2285 -0.2520
   16SAPS   C32 2030   5.875   0.373   2.959 -0.1981  0.7549 -0.4444
   16SAPS   H2X 2031   5.764   0.372   2.970 -0.2590  1.4089 -0.9542
   16SAPS   H2Y 2032   5.915   0.474   2.935  1.0549 -0.2036 -2.6956
   16SAPS   C23 2033   6.321   0.342   2.807  0.4386  0.6047 -0.2248
   16SAPS   H3R 2034   6.246   0.260   2.820 -0.2113  1.1753 -0.3222
   16SAPS   H3S 2035   6.275   0.428   2.859 -0.9158 -1.3969  2.0840
   16SAPS   C24 2036   6.428   0.270   2.891 -0.3132 -0.0863 -0.1619
   16SAPS   H4R 2037   6.439   0.166   2.853 -1.2618 -1.4166  2.8378
   16SAPS   H4S 2038   6.394   0.266   2.997 -2.7470 -0.0634 -0.8851
   16SAPS   C25 2039   6.565   0.333   2.885  0.0602  0.0100  0.4511
   16SAPS   H5R 2040   6.580   0.372   2.783 -0.9075 -1.8697 -0.4625
   16SAPS   C26 2041   6.653   0.354   2.983  1.0068  0.1867  0.0948
   16SAPS   H6R 2042   6.748   0.406   2.962  1.4328 -1.1377 -1.4930
   16SAPS   C27 2043   6.619   0.319   3.126 -0.7837 -0.0338  0.8527
   16SAPS   H7R 2044   6.541   0.393   3.155  0.0794  1.0387  0.4991
   16SAPS   H7S 2045   6.704   0.360   3.185  0.0560 -0.9036  0.2775
   16SAPS   C28 2046   6.604   0.172   3.155  0.6560  0.4794 -0.3329
   16SAPS   H8R 2047   6.626   0.109   3.067  1.6039 -0.5247  0.5791
   16SAPS   C29 2048   6.572   0.109   3.267  0.0166  0.4800  0.3439
   16SAPS   H9R 2049   6.547   0.002   3.257  0.4150  0.4921 -0.9853
   16SAPS  C210 2050   6.528   0.172   3.396  0.0666 -0.0946  0.5583
   16SAPS  H10R 2051   6.438   0.121   3.437 -2.3943  2.4712 -1.2764
   16SAPS  H10S 2052   6.504   0.280   3.386  1.8827  0.3279  0.3797
   16SAPS  C211 2053   6.634   0.160   3.505 -0.3622 -0.1140 -0.0387
   16SAPS  H11R 2054   6.735   0.184   3.469 -0.6584 -1.6733 -2.0594
   16SAPS  C212 2055   6.614   0.108   3.631 -0.3660 -0.1593 -0.2152
   16SAPS  H12R 2056   6.705   0.111   3.694  0.3216 -0.2046 -1.1739
   16SAPS  C213 2057   6.493   0.054   3.700 -0.0160  0.0607 -0.1964
   16SAPS  H13R 2058   6.519  -0.008   3.789 -2.3281  1.5872  1.6894
   16SAPS  H13S 2059   6.448  -0.029   3.642  1.2080 -0.6147 -0.2067
   16SAPS  C214 2060   6.406   0.167   3.751  0.5199 -0.8009 -0.0852
   16SAPS  H14R 2061   6.457   0.264   3.745  1.2690 -1.2473 -1.1428
   16SAPS  C215 2062   6.279   0.156   3.798  0.1081  0.6014 -0.4119
   16SAPS  H15R 2063   6.241   0.252   3.835  0.2067 -0.1340  1.7728
   16SAPS  C216 2064   6.185   0.035   3.807 -0.5069  0.1626 -0.2178
   16SAPS  H16R 2065   6.188  -0.015   3.906  0.6575 -0.9991 -0.8134
   16SAPS  H16S 2066   6.204  -0.044   3.731  2.1635  1.0146 -0.5148
   16SAPS  C217 2067   6.045   0.082   3.794  1.0135 -0.6009 -0.0813
   16SAPS  H17R 2068   5.978  -0.004   3.772  1.3200 -0.6621 -0.8163
   16SAPS  H17S 2069   6.025   0.155   3.712 -2.7207 -0.0582  1.1295
   16SAPS  C218 2070   5.991   0.155   3.921 -0.1943  0.2723  0.0696
   16SAPS  H18R 2071   6.058   0.239   3.949 -1.3464  0.3848  2.7465
   16SAPS  H18S 2072   6.009   0.089   4.009  0.6356  3.1791  2.2012
   16SAPS  C219 2073   5.842   0.199   3.921  0.2878  0.4861 -0.6725
   16SAPS  H19R 2074   5.776   0.125   3.871 -2.1490  1.5984  0.7570
   16SAPS  H19S 2075   5.830   0.295   3.867 -1.8164  1.1663  0.8678
   16SAPS  C220 2076   5.788   0.231   4.064  0.2609 -0.2075  0.2357
   16SAPS  H20R 2077   5.685   0.271   4.062  1.4967  3.3332 -0.0377
   16SAPS  H20S 2078   5.841   0.319   4.107  0.4656 -0.0276 -0.3743
   16SAPS  H20T 2079   5.803   0.141   4.128  2.1999 -0.2145 -0.1411
   16SAPS   C33 2080   5.939   0.333   3.096 -0.1534 -0.6529 -1.2442
   16SAPS   H3X 2081   5.906   0.236   3.138 -0.6277  0.7048  1.7358
   16SAPS   H3Y 2082   5.902   0.418   3.157  0.4033 -1.1732 -0.1670
   16SAPS   C34 2083   6.096   0.342   3.087 -0.3176  0.3214 -0.0263
   16SAPS   H4X 2084   6.124   0.434   3.031  0.3632  0.5984  0.7509
   16SAPS   H4Y 2085   6.134   0.254   3.031 -0.6958  0.3999 -0.4142
   16SAPS   C35 2086   6.157   0.348   3.227 -0.1574  0.2484  0.2046
   16SAPS   H5X 2087   6.264   0.318   3.227 -0.1129  0.4038  0.7740
   16SAPS   H5Y 2088   6.104   0.273   3.290  1.8856 -0.9047  0.6055
   16SAPS   C36 2089   6.168   0.489   3.295  0.0191  0.1116 -0.0350
   16SAPS   H6X 2090   6.072   0.544   3.293  1.2642  2.3688 -0.9565
   16SAPS   H6Y 2091   6.241   0.549   3.236 -0.0890 -0.9105 -1.2769
   16SAPS   C37 2092   6.215   0.469   3.447 -0.4298  0.0126 -0.3606
   16SAPS   H7X 2093   6.297   0.539   3.473 -1.5194  0.9997  0.5567
   16SAPS   H7Y 2094   6.271   0.376   3.469  1.4202  0.7517 -1.6634
   16SAPS   C38 2095   6.092   0.485   3.544 -0.6016 -0.0417  0.4023
   16SAPS   H8X 2096   6.021   0.405   3.513 -0.4859 -0.4929  1.2916
   16SAPS   H8Y 2097   6.053   0.587   3.524 -2.3293 -0.0906  3.1033
   16SAPS   C39 2098   6.117   0.474   3.696 -0.3894  0.3251 -1.6712
   16SAPS   H9X 2099   6.226   0.492   3.710  0.5817 -3.4001 -3.1909
   16SAPS   H9Y 2100   6.103   0.370   3.733 -1.5526 -0.2495 -3.5685
   16SAPS  C310 2101   6.035   0.568   3.792  0.2628 -0.4218 -0.1281
   16SAPS  H10X 2102   5.931   0.533   3.774  0.3847 -0.1941 -1.3412
   16SAPS  H10Y 2103   6.044   0.669   3.746 -0.2565 -0.5126 -0.4354
   16SAPS  C311 2104   6.092   0.562   3.938 -0.0706 -0.0891 -0.5450
   16SAPS  H11X 2105   6.190   0.612   3.950  0.1542 -0.5986 -0.2476
   16SAPS  H11Y 2106   6.099   0.453   3.955  1.0357  0.1485  0.6245
   16SAPS  C312 2107   6.006   0.619   4.054  0.0639 -0.0607 -0.4802
   16SAPS  H12X 2108   5.901   0.583   4.053 -0.3147  1.0025 -0.7242
   16SAPS  H12Y 2109   6.002   0.728   4.033  0.7735  0.0136 -0.2472
   16SAPS  C313 2110   6.061   0.580   4.186  0.6444 -0.0206 -0.2076
   16SAPS  H13X 2111   6.170   0.562   4.174  0.6540 -0.3504  0.3486
   16SAPS  H13Y 2112   6.012   0.484   4.212  1.8894 -0.5615  0.2271
   16SAPS  C314 2113   6.034   0.686   4.298 -0.2582  0.1587 -0.1321
   16SAPS  H14X 2114   6.102   0.773   4.285 -0.2797  0.1238 -0.5120
   16SAPS  H14Y 2115   6.060   0.636   4.393  0.9566  1.5145  0.2975
   16SAPS  C315 2116   5.892   0.748   4.303  0.3914  0.1923 -0.1279
   16SAPS  H15X 2117   5.815   0.668   4.304 -1.0756  1.5550  0.3766
   16SAPS  H15Y 2118   5.879   0.808   4.211  2.4342  0.0576 -0.5468
   16SAPS  C316 2119   5.866   0.821   4.434 -0.3347  0.2386  0.4776
   16SAPS  H16X 2120   5.936   0.906   4.448  0.6389 -0.0398 -2.0648
   16SAPS  H16Y 2121   5.895   0.745   4.509  1.8949  0.9438  0.3950
   16SAPS  C317 2122   5.728   0.885   4.455 -0.2806 -0.0137 -0.0257
   16SAPS  H17X 2123   5.738   0.916   4.561  2.0064  1.7186 -0.6655
   16SAPS  H17Y 2124   5.655   0.803   4.443  0.3041 -0.7364  1.1455
   16SAPS  C318 2125   5.692   1.003   4.355  0.4068 -0.1489  0.9653
   16SAPS  H18X 2126   5.720   0.967   4.254 -1.3910  1.3044 -0.1172
   16SAPS  H18Y 2127   5.761   1.085   4.384  1.7201  0.0377 -2.2315
   16SAPS  H18Z 2128   5.584   1.022   4.367 -0.1170 -1.3310 -1.2926
   17SAPS     N 2129   2.221   2.339   2.094  0.2170  0.2854  0.0861
   17SAPS   HN1 2130   2.239   2.312   1.996 -1.8779  1.6893 -0.7393
   17SAPS   HN2 2131   2.127   2.307   2.124  0.5496  0.0470  0.9141
   17SAPS   HN3 2132   2.224   2.442   2.103 -0.3029  0.4368 -1.3491
   17SAPS   C12 2133   2.330   2.278   2.184  0.1019 -0.3911  0.5640
   17SAPS  H12A 2134   2.342   2.177   2.149 -0.3728  0.5233 -2.5011
   17SAPS   C13 2135   2.463   2.349   2.176 -0.3240 -0.0126  0.2740
   17SAPS  O13A 2136   2.476   2.447   2.097  0.0900 -0.6523 -0.0431
   17SAPS  O13B 2137   2.558   2.295   2.237  0.0194 -0.8939 -0.6434
   17SAPS   C11 2138   2.270   2.288   2.331  0.1018 -1.1527 -0.5621
   17SAPS  H11A 2139   2.231   2.391   2.338  0.8549 -0.8890 -0.0872
   17SAPS  H11B 2140   2.356   2.273   2.399  0.0981  1.4928  0.1380
   17SAPS     P 2141   2.189   2.047   2.385  0.0891  0.4516 -0.0258
   17SAPS   O13 2142   2.085   1.963   2.320 -0.0811 -0.1167  0.3900
   17SAPS   O14 2143   2.330   2.013   2.368 -0.0564 -0.0180  0.7155
   17SAPS   O12 2144   2.163   2.197   2.336  0.2207 -0.4125  0.1688
   17SAPS   O11 2145   2.164   2.059   2.545  0.5246  0.7035  0.0577
   17SAPS    C1 2146   2.075   2.150   2.609 -0.2007  0.3593 -0.4451
   17SAPS    HA 2147   2.127   2.241   2.645  0.4379  0.0171 -0.4961
   17SAPS    HB 2148   1.987   2.172   2.544 -0.3136 -2.7585 -1.5190
   17SAPS    C2 2149   2.013   2.075   2.735 -0.3943 -1.0016  0.2782
   17SAPS    HS 2150   1.937   2.146   2.774 -0.4507 -0.3697 -0.9161
   17SAPS   O21 2151   2.118   2.045   2.823  0.1412  0.3931  0.3258
   17SAPS   C21 2152   2.185   2.140   2.876 -0.1591  0.6299  0.0253
   17SAPS   O22 2153   2.153   2.254   2.878 -0.6268  0.1742  0.3250
   17SAPS   C22 2154   2.320   2.082   2.925 -0.1807  0.4320 -0.4605
   17SAPS   H2R 2155   2.303   1.979   2.963  2.1500 -0.5150 -1.8087
   17SAPS   H2S 2156   2.377   2.066   2.832 -0.4764 -0.1254 -0.5493
   17SAPS    C3 2157   1.929   1.953   2.700  0.8361 -0.7717 -0.1719
   17SAPS    HX 2158   1.999   1.874   2.666  0.9946 -1.3524  1.4020
   17SAPS    HY 2159   1.859   1.974   2.617 -0.2383  0.2562  0.9549
   17SAPS   O31 2160   1.853   1.895   2.814 -0.6808  0.6013  0.5205
   17SAPS   C31 2161   1.743   1.961   2.850  0.1464  0.0337 -0.6559
   17SAPS   O32 2162   1.703   2.062   2.802 -0.3059  0.1715  0.0888
   17SAPS   C32 2163   1.695   1.899   2.982  0.1938 -0.7632 -0.6458
   17SAPS   H2X 2164   1.778   1.878   3.053 -1.1088 -2.9593  0.3674
   17SAPS   H2Y 2165   1.643   1.802   2.963  0.3760 -1.0938  0.4646
   17SAPS   C23 2166   2.402   2.151   3.033 -0.1929  0.8213 -0.2351
   17SAPS   H3R 2167   2.343   2.211   3.105 -1.5379  2.3232 -2.4910
   17SAPS   H3S 2168   2.463   2.226   2.979 -1.3396  1.1912 -1.0482
   17SAPS   C24 2169   2.493   2.050   3.107 -0.6815  0.0140  0.2944
   17SAPS   H4R 2170   2.550   1.993   3.030 -0.5352  1.4289 -0.6888
   17SAPS   H4S 2171   2.435   1.971   3.160 -0.9206 -0.8144 -1.1546
   17SAPS   C25 2172   2.585   2.130   3.202 -0.1577  0.0750  0.5113
   17SAPS   H5R 2173   2.641   2.205   3.144  1.2879 -1.1342  0.2788
   17SAPS   C26 2174   2.610   2.112   3.335 -0.1539 -0.4638 -0.2786
   17SAPS   H6R 2175   2.690   2.166   3.387 -0.3014 -0.8644  0.3725
   17SAPS   C27 2176   2.554   1.999   3.415 -0.0461 -0.1304 -0.4461
   17SAPS   H7R 2177   2.634   1.955   3.477 -0.3726  0.1789  0.2071
   17SAPS   H7S 2178   2.526   1.920   3.341 -0.0483 -0.1840 -0.3880
   17SAPS   C28 2179   2.430   2.059   3.487  0.1276  0.2157  0.3466
   17SAPS   H8R 2180   2.346   2.088   3.422  0.5300  0.2786 -0.1525
   17SAPS   C29 2181   2.437   2.086   3.619  0.1117 -0.2012 -0.3676
   17SAPS   H9R 2182   2.347   2.124   3.668  1.1211  0.4977  0.9993
   17SAPS  C210 2183   2.547   2.041   3.719 -0.2010 -0.3292 -0.5981
   17SAPS  H10R 2184   2.641   2.018   3.664  0.3504  2.2210 -0.8535
   17SAPS  H10S 2185   2.507   1.948   3.765  0.6920  0.1670  1.2903
   17SAPS  C211 2186   2.570   2.152   3.815 -0.4532 -0.1719 -0.3961
   17SAPS  H11R 2187   2.598   2.249   3.771  2.5702 -0.2420  1.0979
   17SAPS  C212 2188   2.549   2.149   3.952  0.1613  0.5865 -0.6679
   17SAPS  H12R 2189   2.565   2.239   4.013  2.0004 -0.6083  0.7196
   17SAPS  C213 2190   2.502   2.031   4.035  0.0783 -0.0500 -0.1624
   17SAPS  H13R 2191   2.532   2.048   4.141 -1.6718  3.5752 -0.0761
   17SAPS  H13S 2192   2.546   1.939   3.991  0.0780  0.8679 -2.1996
   17SAPS  C214 2193   2.351   2.023   4.034 -0.4424 -0.1799  0.6451
   17SAPS  H14R 2194   2.309   2.038   3.933  0.1562 -0.8897  0.2861
   17SAPS  C215 2195   2.259   2.008   4.137 -0.7107 -0.5286  0.6043
   17SAPS  H15R 2196   2.154   2.003   4.102 -0.4526  1.7674 -0.6436
   17SAPS  C216 2197   2.275   2.000   4.290 -0.1566  0.4424  0.9198
   17SAPS  H16R 2198   2.267   2.100   4.340  2.3834  1.5498 -0.6616
   17SAPS  H16S 2199   2.381   1.975   4.313 -0.1013  0.0217  0.2308
   17SAPS  C217 2200   2.173   1.902   4.347 -0.8174 -0.1233  0.3706
   17SAPS  H17R 2201   2.174   1.805   4.291  1.8503 -0.3344  0.6396
   17SAPS  H17S 2202   2.066   1.933   4.342 -0.1048  2.4439 -3.3533
   17SAPS  C218 2203   2.203   1.875   4.492 -0.0725  0.5628 -0.7721
   17SAPS  H18R 2204   2.245   1.956   4.555  0.8691  0.0679 -0.7384
   17SAPS  H18S 2205   2.288   1.805   4.507 -0.1260  0.8928  1.5344
   17SAPS  C219 2206   2.096   1.812   4.586  0.1601 -0.3304  0.0276
   17SAPS  H19R 2207   2.054   1.724   4.533 -2.7559  0.3310  1.0360
   17SAPS  H19S 2208   2.019   1.892   4.589  0.7060  0.1652  1.3247
   17SAPS  C220 2209   2.146   1.785   4.723  0.3231 -0.4683  0.3229
   17SAPS  H20R 2210   2.221   1.703   4.719 -0.4384 -1.3090  2.2390
   17SAPS  H20S 2211   2.062   1.753   4.789  0.0268 -0.9769 -0.2980
   17SAPS  H20T 2212   2.193   1.874   4.771  1.5981 -1.2689  0.6029
   17SAPS   C33 2213   1.599   1.971   3.079  0.1494  0.0555 -0.9068
   17SAPS   H3X 2214   1.511   2.006   3.021 -0.6299  2.1898  1.4025
   17SAPS   H3Y 2215   1.648   2.063   3.115  0.2221 -0.4613  0.3535
   17SAPS   C34 2216   1.572   1.901   3.210  1.0880 -0.9487  0.1804
   17SAPS   H4X 2217   1.519   1.804   3.199  0.5156 -0.8324  1.6299
   17SAPS   H4Y 2218   1.504   1.966   3.270  0.0601 -1.1971 -0.6908
   17SAPS   C35 2219   1.696   1.873   3.299 -0.4890 -0.4609  0.3277
   17SAPS   H5X 2220   1.771   1.955   3.294  0.6210 -1.1089  3.6859
   17SAPS   H5Y 2221   1.749   1.778   3.275  0.5912  0.6986 -2.2652
   17SAPS   C36 2222   1.659   1.869   3.447 -0.3887 -0.7554 -0.2270
   17SAPS   H6X 2223   1.578   1.943   3.466  1.8700  1.4656  1.3615
   17SAPS   H6Y 2224   1.743   1.899   3.513 -1.2626 -1.2582  1.1579
   17SAPS   C37 2225   1.610   1.730   3.483  0.1375 -0.5579 -0.3789
   17SAPS   H7X 2226   1.704   1.671   3.479  0.5563  0.0675  0.0442
   17SAPS   H7Y 2227   1.536   1.688   3.411  2.0151 -0.3783 -2.5177
   17SAPS   C38 2228   1.560   1.712   3.623 -0.4350  0.1933  0.0361
   17SAPS   H8X 2229   1.494   1.623   3.631  0.2769 -0.5053 -1.4622
   17SAPS   H8Y 2230   1.497   1.798   3.654 -1.7848 -0.5978 -0.4616
   17SAPS   C39 2231   1.678   1.707   3.724 -0.5245 -0.3763 -0.4000
   17SAPS   H9X 2232   1.722   1.804   3.755 -0.3498 -0.5382 -0.1389
   17SAPS   H9Y 2233   1.758   1.648   3.675  0.1390 -1.6795  2.1021
   17SAPS  C310 2234   1.646   1.649   3.858 -0.1427  0.4291 -0.9592
   17SAPS  H10X 2235   1.581   1.560   3.845  0.3428  0.0169 -0.5894
   17SAPS  H10Y 2236   1.592   1.720   3.924  1.1958  0.9036 -0.3303
   17SAPS  C311 2237   1.765   1.592   3.941  0.7352  0.2693 -0.2149
   17SAPS  H11X 2238   1.858   1.650   3.921  0.4217  0.8013 -0.1599
   17SAPS  H11Y 2239   1.777   1.488   3.903 -1.2583 -0.6260  1.4480
   17SAPS  C312 2240   1.749   1.570   4.095  0.8329 -0.3492  0.3808
   17SAPS  H12X 2241   1.667   1.497   4.109 -0.6550  0.9166 -1.1998
   17SAPS  H12Y 2242   1.721   1.665   4.145 -0.5887 -0.1411 -0.7470
   17SAPS  C313 2243   1.876   1.505   4.153 -0.6601 -0.5087  0.8056
   17SAPS  H13X 2244   1.965   1.542   4.098 -0.1320 -1.9405  0.6506
   17SAPS  H13Y 2245   1.872   1.399   4.118  1.0259  0.2435 -1.9850
   17SAPS  C314 2246   1.878   1.510   4.309 -0.1022 -0.5754 -0.0726
   17SAPS  H14X 2247   1.782   1.467   4.344 -0.3073 -0.5565 -0.5965
   17SAPS  H14Y 2248   1.877   1.618   4.337 -0.0860 -1.0950  2.0679
   17SAPS  C315 2249   1.986   1.435   4.380 -0.4445  0.1238  0.0639
   17SAPS  H15X 2250   2.087   1.482   4.373 -1.0747  1.3719 -1.1237
   17SAPS  H15Y 2251   1.999   1.328   4.353 -1.5383  0.1223 -0.4881
   17SAPS  C316 2252   1.951   1.425   4.534 -0.1473  0.4800  0.3722
   17SAPS  H16X 2253   1.874   1.346   4.542 -0.0229  0.5063  2.2264
   17SAPS  H16Y 2254   1.919   1.529   4.556  1.3855  1.2060 -0.6321
   17SAPS  C317 2255   2.066   1.387   4.630  0.3213 -0.3365  0.2440
   17SAPS  H17X 2256   2.144   1.466   4.625 -0.1125  0.0228 -1.2829
   17SAPS  H17Y 2257   2.105   1.287   4.600 -2.6788 -1.1843 -1.2610
   17SAPS  C318 2258   2.024   1.374   4.774 -0.5944  0.5728  0.0574
   17SAPS  H18X 2259   1.948   1.293   4.775 -2.5237  2.2909 -0.9366
   17SAPS  H18Y 2260   1.970   1.464   4.811  0.6879  1.1856  0.4856
   17SAPS  H18Z 2261   2.109   1.347   4.841  0.7197  0.7610 -1.4650
   18SAPS     N 2262   6.723   3.548   2.355 -0.5930  0.2554 -0.4776
   18SAPS   HN1 2263   6.769   3.545   2.448  0.8318 -1.3195 -1.1834
   18SAPS   HN2 2264   6.805   3.582   2.302  0.2020 -1.8917 -0.7091
   18SAPS   HN3 2265   6.642   3.614   2.355 -0.8811 -0.0359  1.3791
   18SAPS   C12 2266   6.672   3.419   2.301  0.6734  0.5946 -0.2366
   18SAPS  H12A 2267   6.592   3.395   2.370  0.8145  3.0956  0.9261
   18SAPS   C13 2268   6.621   3.424   2.158  1.0215 -0.3801  0.5658
   18SAPS  O13A 2269   6.623   3.526   2.086 -0.3599  0.4282  0.1271
   18SAPS  O13B 2270   6.574   3.308   2.122  0.7101  0.2753 -0.2505
   18SAPS   C11 2271   6.782   3.315   2.325 -0.7117 -0.3325  0.3422
   18SAPS  H11A 2272   6.867   3.321   2.254 -0.4173 -0.6391  0.6713
   18SAPS  H11B 2273   6.738   3.214   2.308 -0.1705 -0.3696 -0.9914
   18SAPS     P 2274   6.774   3.237   2.579  0.1699 -0.0039 -0.0297
   18SAPS   O13 2275   6.858   3.273   2.691  0.6054  0.1334 -0.1202
   18SAPS   O14 2276   6.625   3.250   2.591  0.0228 -0.9223  0.3903
   18SAPS   O12 2277   6.833   3.326   2.457 -0.0733  0.2120  0.2141
   18SAPS   O11 2278   6.808   3.089   2.535 -0.0257 -0.0360 -0.6114
   18SAPS    C1 2279   6.714   2.993   2.484  0.2964  0.2201  0.0572
   18SAPS    HA 2280   6.616   3.043   2.470  0.2979  1.0742  2.4896
   18SAPS    HB 2281   6.749   2.946   2.390  0.8780  1.9278 -0.6076
   18SAPS    C2 2282   6.675   2.890   2.591  0.1792 -0.2491 -0.5590
   18SAPS    HS 2283   6.585   2.831   2.564  0.5176 -0.5102 -1.1246
   18SAPS   O21 2284   6.654   2.946   2.722 -0.5554  0.0192 -0.1911
   18SAPS   C21 2285   6.540   2.986   2.760 -0.1090 -0.5545 -0.4713
   18SAPS   O22 2286   6.436   2.978   2.693  0.2865  0.5888  0.6010
   18SAPS   C22 2287   6.546   3.047   2.902 -0.5451  0.5713 -0.0637
   18SAPS   H2R 2288   6.623   3.127   2.910 -1.4311  1.2803  2.1468
   18SAPS   H2S 2289   6.445   3.089   2.919  0.1409  1.7806  1.2960
   18SAPS    C3 2290   6.806   2.801   2.599  0.6455 -0.7140 -0.5183
   18SAPS    HX 2291   6.886   2.879   2.599 -0.5799  0.7139  3.0178
   18SAPS    HY 2292   6.818   2.742   2.505 -1.3174  0.8056 -1.8171
   18SAPS   O31 2293   6.799   2.713   2.711 -0.4786 -0.4464  0.4117
   18SAPS   C31 2294   6.860   2.748   2.821  0.1118 -0.0807 -0.4249
   18SAPS   O32 2295   6.939   2.840   2.836  0.3062 -0.1681  0.3903
   18SAPS   C32 2296   6.817   2.652   2.938  0.3398  0.0892  0.0524
   18SAPS   H2X 2297   6.833   2.547   2.905 -1.9506 -1.0391  2.2250
   18SAPS   H2Y 2298   6.708   2.669   2.946  0.3645  0.0545  0.4711
   18SAPS   C23 2299   6.566   2.955   3.023  0.2840  0.0189  0.2041
   18SAPS   H3R 2300   6.676   2.939   3.030  0.2525 -1.0704 -1.3474
   18SAPS   H3S 2301   6.512   2.859   3.018  1.8322 -0.9259  0.9526
   18SAPS   C24 2302   6.523   3.025   3.158 -0.3311  0.0261 -0.0712
   18SAPS   H4R 2303   6.413   3.010   3.166 -0.2453 -0.2779  0.6291
   18SAPS   H4S 2304   6.544   3.133   3.150  1.8942 -0.4573 -1.6637
   18SAPS   C25 2305   6.598   2.963   3.273 -0.4572 -0.8455  0.0411
   18SAPS   H5R 2306   6.588   2.859   3.307 -0.9001 -0.0900  2.4751
   18SAPS   C26 2307   6.693   3.033   3.347  0.7914  0.0504 -1.0184
   18SAPS   H6R 2308   6.738   2.977   3.431 -0.0200  1.6361  0.5444
   18SAPS   C27 2309   6.744   3.179   3.320  0.6519  0.8361  0.1114
   18SAPS   H7R 2310   6.699   3.239   3.402 -0.5694  0.6152 -0.3741
   18SAPS   H7S 2311   6.699   3.215   3.224 -0.7688  0.4230  0.5971
   18SAPS   C28 2312   6.896   3.185   3.327 -0.0071  0.8378  0.3357
   18SAPS   H8R 2313   6.945   3.166   3.231 -0.4167  1.3241  0.0206
   18SAPS   C29 2314   6.974   3.227   3.432  0.6018 -0.1713  0.3602
   18SAPS   H9R 2315   7.084   3.229   3.428  0.7112  3.1824  1.9102
   18SAPS  C210 2316   6.920   3.264   3.565 -0.7106  0.0977 -0.7550
   18SAPS  H10R 2317   6.953   3.179   3.629 -2.0489 -0.1002 -0.2974
   18SAPS  H10S 2318   6.810   3.275   3.577 -0.8396  1.1294 -2.4789
   18SAPS  C211 2319   6.990   3.383   3.620 -0.2566 -0.6369  0.0224
   18SAPS  H11R 2320   7.095   3.386   3.588  0.0953 -1.5873  1.0341
   18SAPS  C212 2321   6.941   3.488   3.696 -0.5274 -0.7120  0.2727
   18SAPS  H12R 2322   7.013   3.570   3.712 -0.8151  0.1905 -2.5494
   18SAPS  C213 2323   6.801   3.516   3.730 -0.4065  0.8007  0.6166
   18SAPS  H13R 2324   6.763   3.419   3.767  0.9520  0.7404  1.9550
   18SAPS  H13S 2325   6.744   3.542   3.638  0.5832  0.6444 -0.0482
   18SAPS  C214 2326   6.776   3.623   3.827 -0.4238 -0.6163 -0.6376
   18SAPS  H14R 2327   6.862   3.679   3.865 -2.5561  1.9719  0.7499
   18SAPS  C215 2328   6.657   3.643   3.893  0.0164 -0.0861  0.1165
   18SAPS  H15R 2329   6.638   3.736   3.948 -3.1044  1.4874 -3.1584
   18SAPS  C216 2330   6.531   3.569   3.853 -0.2813 -0.8819 -0.0812
   18SAPS  H16R 2331   6.551   3.502   3.766 -0.6249 -2.1996  0.8278
   18SAPS  H16S 2332   6.458   3.646   3.820  2.0205  1.6807  0.4292
   18SAPS  C217 2333   6.464   3.480   3.964 -0.6340  0.3317 -0.3866
   18SAPS  H17R 2334   6.510   3.379   3.977 -1.1124  0.1904  0.2242
   18SAPS  H17S 2335   6.356   3.465   3.939 -0.5655  0.5289 -0.8080
   18SAPS  C218 2336   6.463   3.564   4.092 -0.0746  0.2399  0.1169
   18SAPS  H18R 2337   6.472   3.673   4.071  0.1783  0.5246  1.5687
   18SAPS  H18S 2338   6.551   3.545   4.158  1.1709  2.3837 -0.8153
   18SAPS  C219 2339   6.331   3.551   4.181  0.6071 -0.0021  0.0796
   18SAPS  H19R 2340   6.356   3.607   4.273  0.8771  0.3797 -0.2224
   18SAPS  H19S 2341   6.326   3.441   4.199  1.8330 -0.1124 -0.1393
   18SAPS  C220 2342   6.206   3.610   4.118  0.0809  0.3451 -0.4461
   18SAPS  H20R 2343   6.119   3.600   4.187  1.5783  0.3256  1.5450
   18SAPS  H20S 2344   6.185   3.555   4.024  2.9403 -3.6997  0.9911
   18SAPS  H20T 2345   6.218   3.719   4.103  0.1358  0.7536  2.1219
   18SAPS   C33 2346   6.880   2.682   3.071 -0.4498 -0.1214 -0.2686
   18SAPS   H3X 2347   6.888   2.789   3.099  2.1187 -0.7746  1.8957
   18SAPS   H3Y 2348   6.984   2.646   3.058 -1.2118 -2.3022 -0.8132
   18SAPS   C34 2349   6.821   2.594   3.182 -0.3846 -0.2639 -0.4419
   18SAPS   H4X 2350   6.851   2.490   3.159 -0.8782 -0.5700  0.2796
   18SAPS   H4Y 2351   6.710   2.597   3.176 -0.3920 -0.6284 -0.4911
   18SAPS   C35 2352   6.872   2.622   3.322 -0.1683 -0.0857 -0.1666
   18SAPS   H5X 2353   6.819   2.554   3.392 -4.1302  1.5747 -1.2221
   18SAPS   H5Y 2354   6.841   2.727   3.341  0.7553 -0.0838  1.4458
   18SAPS   C36 2355   7.026   2.609   3.342  0.9104  0.3809 -0.1708
   18SAPS   H6X 2356   7.075   2.669   3.262 -1.0899  1.5801 -0.5513
   18SAPS   H6Y 2357   7.047   2.500   3.344 -3.0371 -0.5243  1.1583
   18SAPS   C37 2358   7.079   2.673   3.475 -0.2637  0.1242 -0.5252
   18SAPS   H7X 2359   7.185   2.642   3.487 -0.0663  0.4813 -1.2598
   18SAPS   H7Y 2360   7.011   2.641   3.556  0.0882  3.5284  1.3217
   18SAPS   C38 2361   7.062   2.824   3.479 -0.1462 -0.6500 -0.2703
   18SAPS   H8X 2362   6.961   2.858   3.448 -0.6737 -0.8226  1.1737
   18SAPS   H8Y 2363   7.133   2.875   3.410  2.0996 -1.9850  0.9274
   18SAPS   C39 2364   7.084   2.891   3.621 -0.2486 -0.5336  0.1598
   18SAPS   H9X 2365   7.047   2.814   3.691  0.0083 -2.2682 -1.5017
   18SAPS   H9Y 2366   7.026   2.985   3.625  2.5385  1.3263 -0.1754
   18SAPS  C310 2367   7.227   2.933   3.661  0.5369 -0.1843  0.1755
   18SAPS  H10X 2368   7.268   3.003   3.585  0.0544  2.0370  1.8581
   18SAPS  H10Y 2369   7.281   2.836   3.664 -0.0373 -0.5940 -1.5213
   18SAPS  C311 2370   7.228   2.999   3.797  0.2214 -0.1728  0.2995
   18SAPS  H11X 2371   7.150   2.951   3.860 -0.0447 -3.2802 -2.1483
   18SAPS  H11Y 2372   7.188   3.101   3.781 -1.3314 -0.4602  1.9931
   18SAPS  C312 2373   7.367   2.997   3.859  0.5010  0.0172  0.2933
   18SAPS  H12X 2374   7.434   3.033   3.778 -0.3783  2.9397  0.7399
   18SAPS  H12Y 2375   7.392   2.891   3.880 -3.2000 -1.7645 -3.0666
   18SAPS  C313 2376   7.392   3.087   3.985  0.0081 -0.3175  0.3144
   18SAPS  H13X 2377   7.328   3.065   4.073 -0.0978 -0.6509  0.1541
   18SAPS  H13Y 2378   7.347   3.185   3.959  0.9315  0.2149  0.6612
   18SAPS  C314 2379   7.537   3.112   4.032  0.7905 -0.0176  0.2738
   18SAPS  H14X 2380   7.591   3.164   3.950  1.8404  0.4465  1.2291
   18SAPS  H14Y 2381   7.579   3.010   4.044  0.1325 -0.5438 -1.5931
   18SAPS  C315 2382   7.548   3.197   4.164  0.3033  1.3929  0.8101
   18SAPS  H15X 2383   7.493   3.292   4.148  0.6103  1.2614 -1.2729
   18SAPS  H15Y 2384   7.656   3.224   4.176  0.3427  0.1740  4.7286
   18SAPS  C316 2385   7.492   3.119   4.284 -0.2345 -0.2851 -0.2586
   18SAPS  H16X 2386   7.539   3.019   4.293  1.1170  0.2259 -1.3934
   18SAPS  H16Y 2387   7.383   3.101   4.274 -0.8076  1.9611  1.2070
   18SAPS  C317 2388   7.529   3.194   4.416 -0.5091  0.2546  0.0833
   18SAPS  H17X 2389   7.639   3.210   4.417 -0.5179  0.3627  1.4464
   18SAPS  H17Y 2390   7.520   3.117   4.496  1.1162 -1.4520 -1.2782
   18SAPS  C318 2391   7.465   3.327   4.453 -0.3048  0.6224 -0.1543
   18SAPS  H18X 2392   7.466   3.404   4.373  1.1221  1.6538  0.8115
   18SAPS  H18Y 2393   7.527   3.366   4.537  0.3018 -1.9360  0.6818
   18SAPS  H18Z 2394   7.360   3.312   4.486  0.0492 -0.8257  0.4194
   19SAPS     N 2395   4.355   0.391   2.040 -0.8603 -0.0727  0.1484
   19SAPS   HN1 2396   4.324   0.458   2.113  1.1136  0.7519  0.2987
   19SAPS   HN2 2397   4.459   0.401   2.035 -0.6932 -0.9011  1.5879
   19SAPS   HN3 2398   4.292   0.426   1.965 -0.2850  0.9334  0.1153
   19SAPS   C12 2399   4.319   0.252   2.079  0.0502 -0.3602  0.4084
   19SAPS  H12A 2400   4.225   0.262   2.131  0.2928  2.6101  0.4257
   19SAPS   C13 2401   4.313   0.165   1.954  1.4010  0.3816  0.1979
   19SAPS  O13A 2402   4.352   0.206   1.843 -0.2286 -0.0801  0.1344
   19SAPS  O13B 2403   4.254   0.050   1.959 -0.2773 -0.6224 -0.2966
   19SAPS   C11 2404   4.430   0.197   2.173 -0.0699  0.6538  0.9134
   19SAPS  H11A 2405   4.522   0.188   2.112  0.0605  1.2862  1.0160
   19SAPS  H11B 2406   4.402   0.093   2.203 -0.1859  0.7686  1.2126
   19SAPS     P 2407   4.379   0.270   2.427  0.3676 -0.3135  0.6037
   19SAPS   O13 2408   4.364   0.406   2.485  0.0937  0.2353 -0.5048
   19SAPS   O14 2409   4.251   0.205   2.398  0.4099  0.7329  0.4162
   19SAPS   O12 2410   4.455   0.285   2.288 -0.3220 -0.0363  0.3672
   19SAPS   O11 2411   4.475   0.178   2.495 -0.0348  0.3574 -0.0290
   19SAPS    C1 2412   4.439   0.048   2.529 -0.3180 -0.2038 -0.0092
   19SAPS    HA 2413   4.381   0.010   2.441  2.6723  2.5949 -3.5351
   19SAPS    HB 2414   4.537  -0.003   2.546 -0.4747 -0.8387 -0.9001
   19SAPS    C2 2415   4.377   0.050   2.671  1.2108 -0.7091 -0.3916
   19SAPS    HS 2416   4.272   0.088   2.671  1.8120  1.0463 -0.5923
   19SAPS   O21 2417   4.467   0.114   2.758  0.4813 -0.3323  0.5589
   19SAPS   C21 2418   4.408   0.190   2.852  0.2065  0.1659 -0.2348
   19SAPS   O22 2419   4.288   0.206   2.869 -0.0340 -0.2670  0.3234
   19SAPS   C22 2420   4.500   0.255   2.947 -0.0356  0.2534  0.7102
   19SAPS   H2R 2421   4.604   0.220   2.926 -0.1793 -0.2706  0.8464
   19SAPS   H2S 2422   4.499   0.363   2.925  0.6115 -0.3982 -3.3477
   19SAPS    C3 2423   4.353  -0.100   2.705 -0.4918  0.1376  0.0385
   19SAPS    HX 2424   4.443  -0.161   2.682  0.2907  0.8070  1.1888
   19SAPS    HY 2425   4.276  -0.119   2.628 -0.0023  1.8634 -0.9383
   19SAPS   O31 2426   4.302  -0.121   2.840  0.3000 -0.3655 -0.5774
   19SAPS   C31 2427   4.180  -0.098   2.865  0.3167  0.1662  0.9926
   19SAPS   O32 2428   4.087  -0.085   2.786 -0.4227 -0.5110 -0.4746
   19SAPS   C32 2429   4.153  -0.083   3.016 -0.7368 -0.2998 -0.6308
   19SAPS   H2X 2430   4.044  -0.059   3.016 -0.6825  0.2168 -3.1302
   19SAPS   H2Y 2431   4.206   0.006   3.056 -1.2761 -1.0941  2.0494
   19SAPS   C23 2432   4.467   0.216   3.092  0.4706  0.2452 -0.7904
   19SAPS   H3R 2433   4.560   0.220   3.153  0.0614 -1.6221 -0.0110
   19SAPS   H3S 2434   4.431   0.112   3.083  2.3259 -0.4167 -0.9862
   19SAPS   C24 2435   4.359   0.297   3.169  0.8614  0.8757 -0.6267
   19SAPS   H4R 2436   4.340   0.237   3.260 -0.2387 -1.4924 -2.3189
   19SAPS   H4S 2437   4.263   0.293   3.111 -0.3473 -0.9527  1.3781
   19SAPS   C25 2438   4.410   0.432   3.195  0.0934 -0.0210  0.1878
   19SAPS   H5R 2439   4.413   0.491   3.102  1.5263 -0.3585 -0.0043
   19SAPS   C26 2440   4.457   0.474   3.311 -0.2810 -0.3179  0.2405
   19SAPS   H6R 2441   4.503   0.575   3.310 -0.7772 -0.0919 -0.2031
   19SAPS   C27 2442   4.467   0.404   3.449  0.0426 -0.1201  0.2231
   19SAPS   H7R 2443   4.555   0.337   3.452  0.2488  0.1073 -0.5485
   19SAPS   H7S 2444   4.377   0.343   3.470 -0.2873  0.4619  0.5500
   19SAPS   C28 2445   4.466   0.502   3.569  0.2833  0.4419  1.1335
   19SAPS   H8R 2446   4.399   0.589   3.565 -2.5372 -1.5694  1.9290
   19SAPS   C29 2447   4.547   0.482   3.676 -0.2777 -0.1525 -0.1996
   19SAPS   H9R 2448   4.538   0.555   3.757  0.8119  1.2700 -1.3229
   19SAPS  C210 2449   4.642   0.367   3.706  0.2726  0.1366 -0.2802
   19SAPS  H10R 2450   4.747   0.403   3.705  0.3474 -0.0888 -0.4813
   19SAPS  H10S 2451   4.645   0.286   3.630  1.8206 -0.3808  0.2930
   19SAPS  C211 2452   4.609   0.317   3.841  0.2500 -0.4365  0.1475
   19SAPS  H11R 2453   4.534   0.237   3.834 -0.2992 -0.1740  2.2942
   19SAPS  C212 2454   4.655   0.358   3.960  0.2307  0.0161 -0.1010
   19SAPS  H12R 2455   4.623   0.298   4.047  0.3720 -0.7449 -0.5641
   19SAPS  C213 2456   4.737   0.479   3.996  0.8681  0.0210  0.6551
   19SAPS  H13R 2457   4.688   0.534   4.080  3.2273  0.2587  1.9779
   19SAPS  H13S 2458   4.740   0.553   3.913  5.9526 -0.1972  0.3131
   19SAPS  C214 2459   4.883   0.452   4.024 -0.2009 -0.1782 -0.2040
   19SAPS  H14R 2460   4.946   0.454   3.933  1.3760 -1.9148  0.7869
   19SAPS  C215 2461   4.951   0.459   4.141  0.3841 -0.0590  0.1748
   19SAPS  H15R 2462   5.060   0.449   4.139  0.3818 -0.0259 -1.2439
   19SAPS  C216 2463   4.885   0.477   4.273  0.2520  0.2573  0.0529
   19SAPS  H16R 2464   4.914   0.387   4.333 -1.7591 -0.5289 -0.0923
   19SAPS  H16S 2465   4.775   0.479   4.258  0.2095  1.4060  0.3938
   19SAPS  C217 2466   4.933   0.606   4.333 -0.2340 -0.6584  0.2340
   19SAPS  H17R 2467   4.893   0.627   4.435  0.0977  2.4024 -0.1688
   19SAPS  H17S 2468   4.916   0.691   4.264  1.0092 -0.4890  0.1139
   19SAPS  C218 2469   5.078   0.590   4.372  0.3102  0.6651 -0.1949
   19SAPS  H18R 2470   5.140   0.579   4.281  1.0257 -1.9107  0.5228
   19SAPS  H18S 2471   5.102   0.496   4.425  2.0338  1.6825  0.9193
   19SAPS  C219 2472   5.142   0.708   4.458  0.4254 -0.4287  0.5304
   19SAPS  H19R 2473   5.090   0.694   4.555  0.8575 -1.2201  0.6563
   19SAPS  H19S 2474   5.121   0.805   4.407  1.0606 -1.9513 -2.8434
   19SAPS  C220 2475   5.295   0.705   4.477 -0.0629  0.3228 -0.0556
   19SAPS  H20R 2476   5.322   0.629   4.553 -0.8990 -1.3573 -1.3675
   19SAPS  H20S 2477   5.331   0.804   4.513  2.0285 -0.6585  0.7065
   19SAPS  H20T 2478   5.346   0.698   4.379  2.0166  0.3970  0.9768
   19SAPS   C33 2479   4.186  -0.206   3.102  0.4991 -0.2099  0.1977
   19SAPS   H3X 2480   4.297  -0.206   3.110  0.7388  0.7230 -2.2702
   19SAPS   H3Y 2481   4.146  -0.294   3.047 -1.0002  1.3882 -1.4162
   19SAPS   C34 2482   4.145  -0.194   3.252 -0.2170 -0.0309  0.2189
   19SAPS   H4X 2483   4.177  -0.097   3.296 -1.0992 -0.0181  0.8585
   19SAPS   H4Y 2484   4.205  -0.273   3.303 -0.1063  0.8165  1.4476
   19SAPS   C35 2485   3.992  -0.216   3.266  0.0059 -0.3514 -0.0500
   19SAPS   H5X 2486   3.967  -0.315   3.222 -1.5216  0.0201 -0.0859
   19SAPS   H5Y 2487   3.934  -0.146   3.202 -0.0840 -1.3249 -1.0710
   19SAPS   C36 2488   3.950  -0.216   3.412  0.0400  0.2271 -1.1023
   19SAPS   H6X 2489   3.840  -0.235   3.417  0.4523 -2.2129  0.1116
   19SAPS   H6Y 2490   3.966  -0.113   3.450 -3.0628 -0.0555  1.4749
   19SAPS   C37 2491   4.013  -0.331   3.499  0.4551 -0.7775 -0.4157
   19SAPS   H7X 2492   4.123  -0.316   3.498  0.6912 -1.1702  3.6131
   19SAPS   H7Y 2493   4.006  -0.431   3.452  0.0278 -0.9995  0.0979
   19SAPS   C38 2494   3.963  -0.335   3.645 -0.5757  0.5797  0.1763
   19SAPS   H8X 2495   3.859  -0.372   3.639  0.1085 -1.2489 -1.3073
   19SAPS   H8Y 2496   3.956  -0.235   3.692 -0.1404  0.3852  0.6599
   19SAPS   C39 2497   4.043  -0.417   3.747 -0.0150  0.8416 -0.4323
   19SAPS   H9X 2498   4.072  -0.513   3.700  1.1513  1.2965 -0.6954
   19SAPS   H9Y 2499   3.970  -0.449   3.825  1.8781 -4.0593 -0.3054
   19SAPS  C310 2500   4.168  -0.349   3.812  0.9400  0.3407 -0.2718
   19SAPS  H10X 2501   4.139  -0.249   3.850 -0.5616  1.2819 -3.4718
   19SAPS  H10Y 2502   4.247  -0.326   3.737  0.9608 -0.5692 -0.5414
   19SAPS  C311 2503   4.226  -0.424   3.930 -1.1817 -0.1135 -0.4115
   19SAPS  H11X 2504   4.244  -0.532   3.914 -2.1793 -0.5148  0.9144
   19SAPS  H11Y 2505   4.147  -0.420   4.009  0.2278 -1.2602  1.1242
   19SAPS  C312 2506   4.353  -0.363   3.985 -0.2481 -0.2609  0.0845
   19SAPS  H12X 2507   4.327  -0.256   4.000 -0.5100 -0.2110 -0.6950
   19SAPS  H12Y 2508   4.435  -0.380   3.913  0.5930  1.1640  0.6700
   19SAPS  C313 2509   4.378  -0.411   4.129 -0.5411 -0.3289  0.4369
   19SAPS  H13X 2510   4.424  -0.512   4.120  1.1368  0.4151  0.3322
   19SAPS  H13Y 2511   4.280  -0.418   4.180 -0.8182 -1.4025 -0.2072
   19SAPS  C314 2512   4.479  -0.324   4.213  0.3642 -0.1566 -0.0026
   19SAPS  H14X 2513   4.458  -0.216   4.197 -0.7790 -0.3455  0.1209
   19SAPS  H14Y 2514   4.578  -0.345   4.169  0.7246 -1.7011  1.4318
   19SAPS  C315 2515   4.467  -0.361   4.359 -0.4468 -0.3308 -0.7068
   19SAPS  H15X 2516   4.369  -0.361   4.411  0.8302 -1.4987  1.9017
   19SAPS  H15Y 2517   4.512  -0.277   4.416 -1.8169  1.3094 -1.9511
   19SAPS  C316 2518   4.543  -0.484   4.401 -0.4694  0.0973  0.3095
   19SAPS  H16X 2519   4.513  -0.564   4.329  0.2735  0.8260 -0.8473
   19SAPS  H16Y 2520   4.520  -0.523   4.502  0.2789  0.8482  0.7810
   19SAPS  C317 2521   4.697  -0.466   4.393 -0.2237 -0.2217 -0.5988
   19SAPS  H17X 2522   4.742  -0.436   4.296 -1.2683  1.2076 -0.6744
   19SAPS  H17Y 2523   4.738  -0.567   4.412 -0.2599  0.2763  2.7541
   19SAPS  C318 2524   4.757  -0.371   4.495 -0.2940 -0.3369  0.2110
   19SAPS  H18X 2525   4.866  -0.373   4.475  0.0026  1.4961  1.4211
   19SAPS  H18Y 2526   4.745  -0.401   4.602  0.1386  1.3503  0.7626
   19SAPS  H18Z 2527   4.717  -0.269   4.478 -1.2994 -0.8855 -0.8286
   20SAPS     N 2528   5.459   2.465   1.659  0.0193  0.5169  0.1743
   20SAPS   HN1 2529   5.560   2.489   1.652 -0.2636  1.3342 -1.4060
   20SAPS   HN2 2530   5.447   2.393   1.584 -2.3935  0.8669  0.1576
   20SAPS   HN3 2531   5.411   2.555   1.639  1.3210  1.7374  2.1833
   20SAPS   C12 2532   5.392   2.430   1.790  0.2619  0.3124 -0.0684
   20SAPS  H12A 2533   5.408   2.510   1.861  2.9854 -0.2075 -0.0035
   20SAPS   C13 2534   5.238   2.409   1.771 -0.5088  0.1675 -0.0601
   20SAPS  O13A 2535   5.176   2.425   1.663 -0.7537  0.1013 -0.2607
   20SAPS  O13B 2536   5.169   2.402   1.875  0.0687  0.2568 -0.4699
   20SAPS   C11 2537   5.463   2.304   1.851 -0.0751 -0.3969  0.5037
   20SAPS  H11A 2538   5.430   2.212   1.797  3.0466 -1.5368  0.3261
   20SAPS  H11B 2539   5.427   2.296   1.956  0.5752  0.9899  0.8544
   20SAPS     P 2540   5.694   2.185   1.890 -0.0033  0.2087 -0.1497
   20SAPS   O13 2541   5.659   2.066   1.813 -0.7930 -0.0899 -0.4710
   20SAPS   O14 2542   5.837   2.215   1.883 -0.2841 -0.2735 -0.1310
   20SAPS   O12 2543   5.609   2.305   1.841  0.0315 -0.0181  0.1463
   20SAPS   O11 2544   5.655   2.170   2.048 -0.5614 -0.4537 -0.0146
   20SAPS    C1 2545   5.696   2.287   2.128  0.4018  0.0377 -0.7811
   20SAPS    HA 2546   5.806   2.305   2.119  0.3427  1.4881  0.8856
   20SAPS    HB 2547   5.644   2.377   2.091 -2.5290 -1.4314 -0.5043
   20SAPS    C2 2548   5.674   2.264   2.282 -0.0133  0.0252  0.2439
   20SAPS    HS 2549   5.744   2.333   2.334 -1.8357  0.6228  2.0161
   20SAPS   O21 2550   5.689   2.127   2.321 -0.1199  0.3690  0.4936
   20SAPS   C21 2551   5.810   2.074   2.317  0.7284  0.3515 -0.0483
   20SAPS   O22 2552   5.911   2.132   2.277  0.0282  1.1164 -0.0211
   20SAPS   C22 2553   5.815   1.929   2.359 -0.5250  0.2632  0.7876
   20SAPS   H2R 2554   5.772   1.872   2.273 -1.7110  2.5476 -0.2246
   20SAPS   H2S 2555   5.918   1.890   2.374 -0.3723 -0.0551 -0.9003
   20SAPS    C3 2556   5.533   2.306   2.332 -0.2415 -0.3211 -0.7728
   20SAPS    HX 2557   5.457   2.235   2.291 -0.2603 -2.8130  3.0775
   20SAPS    HY 2558   5.516   2.413   2.307 -0.3044  0.0028  0.6026
   20SAPS   O31 2559   5.529   2.296   2.470 -0.5952  0.1961  0.2362
   20SAPS   C31 2560   5.432   2.356   2.539 -0.0229 -0.1719  0.2446
   20SAPS   O32 2561   5.335   2.413   2.491 -1.0226 -0.2446  0.3971
   20SAPS   C32 2562   5.449   2.345   2.689 -0.8287 -0.9688  0.3139
   20SAPS   H2X 2563   5.416   2.441   2.733  1.2091  0.8324 -1.8185
   20SAPS   H2Y 2564   5.558   2.335   2.705 -0.8040 -1.8693 -0.3298
   20SAPS   C23 2565   5.725   1.899   2.480 -0.1451  0.3149  0.0192
   20SAPS   H3R 2566   5.734   1.790   2.498  0.3166  0.4361  0.5693
   20SAPS   H3S 2567   5.620   1.916   2.449 -0.5596 -2.2373 -0.1718
   20SAPS   C24 2568   5.771   1.962   2.612 -0.0555  1.0004  0.9813
   20SAPS   H4R 2569   5.791   2.071   2.617 -0.9481  1.2823 -0.8789
   20SAPS   H4S 2570   5.865   1.914   2.649  0.5603  2.1149  0.8892
   20SAPS   C25 2571   5.665   1.939   2.719 -0.4270 -0.9954  0.3082
   20SAPS   H5R 2572   5.574   2.000   2.709  0.8540  0.9947  0.2683
   20SAPS   C26 2573   5.676   1.858   2.827  0.2443 -0.2902 -0.1861
   20SAPS   H6R 2574   5.586   1.850   2.890  0.3987  0.2882  0.1181
   20SAPS   C27 2575   5.781   1.763   2.867  0.4372 -0.0763 -0.6532
   20SAPS   H7R 2576   5.769   1.736   2.974  1.9145  1.6317 -0.0137
   20SAPS   H7S 2577   5.878   1.815   2.877  0.0360  0.4655  0.5377
   20SAPS   C28 2578   5.813   1.646   2.778 -0.6122  0.3683 -0.0166
   20SAPS   H8R 2579   5.830   1.674   2.673 -0.1155  2.7200  0.6487
   20SAPS   C29 2580   5.844   1.515   2.816 -0.2040 -0.1043 -0.4122
   20SAPS   H9R 2581   5.877   1.440   2.743 -0.0844  0.1145 -0.5864
   20SAPS  C210 2582   5.845   1.470   2.962 -0.2609 -0.5049  0.7456
   20SAPS  H10R 2583   5.749   1.499   3.011  0.9172 -0.7368  3.3839
   20SAPS  H10S 2584   5.924   1.522   3.021 -0.6764 -2.7123  3.5050
   20SAPS  C211 2585   5.858   1.319   2.974  0.4418 -0.2477  0.1237
   20SAPS  H11R 2586   5.850   1.260   2.881  2.4378 -0.3272 -0.0333
   20SAPS  C212 2587   5.884   1.260   3.091  0.3181  0.2184 -0.2280
   20SAPS  H12R 2588   5.882   1.150   3.093 -1.4501  0.2069 -0.6045
   20SAPS  C213 2589   5.904   1.338   3.220 -0.2186 -0.2563 -0.3013
   20SAPS  H13R 2590   5.833   1.302   3.297 -2.0339  0.7888 -1.4436
   20SAPS  H13S 2591   5.880   1.445   3.208 -1.9428 -0.7229 -1.3127
   20SAPS  C214 2592   6.050   1.312   3.257  0.4154  0.3564  0.6594
   20SAPS  H14R 2593   6.117   1.343   3.175 -0.5615  0.4416 -0.1183
   20SAPS  C215 2594   6.088   1.273   3.379  0.2463  0.1686  0.1100
   20SAPS  H15R 2595   6.194   1.255   3.402  0.6121  0.4123 -1.3186
   20SAPS  C216 2596   6.002   1.243   3.506 -0.9325  0.8860  0.4587
   20SAPS  H16R 2597   6.022   1.141   3.545  0.3965  0.6958 -0.6500
   20SAPS  H16S 2598   5.892   1.250   3.491 -1.0301  0.4913  0.9462
   20SAPS  C217 2599   6.051   1.331   3.626  0.4512 -0.0957  0.5795
   20SAPS  H17R 2600   6.161   1.314   3.623  0.9183  2.5774  0.1198
   20SAPS  H17S 2601   6.014   1.287   3.721 -1.8285  0.0407 -0.1920
   20SAPS  C218 2602   6.004   1.474   3.623 -0.2914  0.1224 -0.6708
   20SAPS  H18R 2603   6.014   1.525   3.525 -4.9572  0.5638 -1.1537
   20SAPS  H18S 2604   6.042   1.535   3.707  1.3380 -0.7817 -0.7146
   20SAPS  C219 2605   5.855   1.473   3.649  0.0398 -0.9006 -0.1674
   20SAPS  H19R 2606   5.828   1.430   3.748  0.1125  0.4839  0.4723
   20SAPS  H19S 2607   5.796   1.408   3.581 -3.3960 -0.5400  2.2269
   20SAPS  C220 2608   5.795   1.614   3.636  0.5015  0.0839  0.3149
   20SAPS  H20R 2609   5.800   1.633   3.526  0.2299 -0.8037  0.1381
   20SAPS  H20S 2610   5.858   1.691   3.685  0.6228 -0.2035  0.6103
   20SAPS  H20T 2611   5.691   1.621   3.675 -0.8312 -2.2376 -2.4049
   20SAPS   C33 2612   5.368   2.229   2.735  0.2275  0.1563 -0.2100
   20SAPS   H3X 2613   5.407   2.138   2.683  1.3102  1.0191 -0.9393
   20SAPS   H3Y 2614   5.259   2.238   2.714 -0.0932 -2.1503  0.1941
   20SAPS   C34 2615   5.389   2.193   2.886 -0.1026  0.1239  0.0453
   20SAPS   H4X 2616   5.347   2.273   2.951  0.8171  0.0850  0.6997
   20SAPS   H4Y 2617   5.496   2.165   2.889 -0.8365 -3.0477  0.4002
   20SAPS   C35 2618   5.330   2.058   2.930 -0.3494  0.7997 -0.2373
   20SAPS   H5X 2619   5.342   1.994   2.840  1.5019  0.7870 -0.0187
   20SAPS   H5Y 2620   5.224   2.074   2.956 -0.0516 -2.2608  3.8861
   20SAPS   C36 2621   5.398   1.998   3.056  0.0172 -0.0281 -0.8122
   20SAPS   H6X 2622   5.404   2.078   3.133  0.7962  1.5236 -2.4182
   20SAPS   H6Y 2623   5.505   1.968   3.043  0.5527  1.7603 -0.7637
   20SAPS   C37 2624   5.318   1.874   3.111  0.3300 -0.4680  0.1143
   20SAPS   H7X 2625   5.350   1.789   3.047  0.4622  0.6130 -1.3035
   20SAPS   H7Y 2626   5.212   1.902   3.091  0.4919 -0.5868 -0.9855
   20SAPS   C38 2627   5.351   1.842   3.258  0.5030 -0.0939 -0.1169
   20SAPS   H8X 2628   5.316   1.740   3.283 -1.4695  0.4740 -0.3775
   20SAPS   H8Y 2629   5.297   1.915   3.323  1.3056  0.9112 -0.5395
   20SAPS   C39 2630   5.500   1.856   3.302  0.0760  0.4175 -0.2250
   20SAPS   H9X 2631   5.542   1.957   3.280  3.3923 -0.0563  2.9206
   20SAPS   H9Y 2632   5.563   1.784   3.247  0.7878 -0.7943  2.0258
   20SAPS  C310 2633   5.522   1.822   3.455  0.2559  0.4550  0.4610
   20SAPS  H10X 2634   5.629   1.838   3.481  0.8044 -1.8297 -0.1858
   20SAPS  H10Y 2635   5.500   1.714   3.468 -0.3260  0.2756 -1.6262
   20SAPS  C311 2636   5.434   1.900   3.555 -0.5698  0.3688 -0.1412
   20SAPS  H11X 2637   5.331   1.859   3.565 -1.4624  2.4766 -0.2289
   20SAPS  H11Y 2638   5.433   2.009   3.537 -0.0631  0.6638  1.4886
   20SAPS  C312 2639   5.499   1.883   3.694 -0.0260  0.6030 -0.1005
   20SAPS  H12X 2640   5.599   1.932   3.699  0.7356 -0.6487 -2.0750
   20SAPS  H12Y 2641   5.512   1.775   3.714 -0.8285  0.9382  2.7536
   20SAPS  C313 2642   5.411   1.914   3.817  0.1356  0.3686  0.2490
   20SAPS  H13X 2643   5.313   1.860   3.811  0.0905  0.3404  1.0962
   20SAPS  H13Y 2644   5.382   2.021   3.824 -1.1993 -0.0761  2.6257
   20SAPS  C314 2645   5.469   1.874   3.948  0.4821  0.3680 -0.2716
   20SAPS  H14X 2646   5.579   1.887   3.934  0.6553  2.1776  2.2598
   20SAPS  H14Y 2647   5.446   1.767   3.964  0.6843  0.5190  1.1068
   20SAPS  C315 2648   5.417   1.949   4.061  0.2563  0.3712 -0.5445
   20SAPS  H15X 2649   5.404   2.056   4.034 -0.8199  0.3708 -0.0978
   20SAPS  H15Y 2650   5.482   1.938   4.150  1.3416  0.4327 -1.3107
   20SAPS  C316 2651   5.288   1.887   4.110 -0.3651  0.4865 -0.5644
   20SAPS  H16X 2652   5.301   1.776   4.113 -0.6920  0.4284 -1.0538
   20SAPS  H16Y 2653   5.207   1.905   4.035 -0.1490 -3.3591 -1.9703
   20SAPS  C317 2654   5.244   1.938   4.249  0.3672  0.6990 -0.3032
   20SAPS  H17X 2655   5.242   2.049   4.245  0.7370  0.6812 -1.5660
   20SAPS  H17Y 2656   5.315   1.901   4.326  0.4814 -1.3987 -1.3483
   20SAPS  C318 2657   5.106   1.898   4.297  0.6060 -0.2679 -0.3028
   20SAPS  H18X 2658   5.077   1.959   4.385 -0.8180 -2.2498  0.6770
   20SAPS  H18Y 2659   5.101   1.794   4.337 -3.5757  0.8750  2.8631
   20SAPS  H18Z 2660   5.027   1.907   4.219 -0.3257 -1.2985  0.4829
   21CHL1    C3 2661   0.721   6.442   5.998 -0.5950 -0.5632 -0.3925
   21CHL1    H3 2662   0.627   6.499   6.010 -0.1135  0.0372  0.7081
   21CHL1    O3 2663   0.769   6.396   6.122 -0.6345 -1.1295 -0.4698
   21CHL1   H3' 2664   0.739   6.466   6.181  2.9477  0.6547 -0.4433
   21CHL1    C4 2665   0.707   6.321   5.905  0.4469  0.9985  0.2302
   21CHL1   H4A 2666   0.808   6.275   5.905  1.3209  2.8025 -0.9700
   21CHL1   H4B 2667   0.632   6.252   5.948  0.4555 -0.7967 -2.3806
   21CHL1    C5 2668   0.672   6.373   5.767 -0.0230  0.1420  0.1564
   21CHL1    C6 2669   0.565   6.331   5.698  0.6790 -0.0584  0.2520
   21CHL1    H6 2670   0.491   6.263   5.744 -1.5501  2.3249  0.4838
   21CHL1    C7 2671   0.522   6.365   5.556 -0.2893 -0.6015  0.7124
   21CHL1   H7A 2672   0.494   6.269   5.508 -0.2716 -0.0442 -0.4372
   21CHL1   H7B 2673   0.429   6.425   5.551  1.5656  2.4270 -0.7046
   21CHL1    C8 2674   0.639   6.440   5.488 -0.0456  0.1378  0.6490
   21CHL1    H8 2675   0.726   6.375   5.468 -0.8212 -0.8269  0.3239
   21CHL1   C14 2676   0.597   6.493   5.350  0.3608  0.8936  0.7170
   21CHL1   H14 2677   0.505   6.551   5.374  0.3348  1.7681 -1.3213
   21CHL1   C15 2678   0.546   6.392   5.253  0.9052 -0.4545  0.5097
   21CHL1  H15A 2679   0.621   6.311   5.234 -1.0055 -1.4862 -3.8622
   21CHL1  H15B 2680   0.450   6.351   5.289  0.7700 -1.3707 -0.8058
   21CHL1   C16 2681   0.532   6.484   5.126 -0.0588 -0.2569 -0.5386
   21CHL1  H16A 2682   0.576   6.427   5.041  1.9021 -1.9360  1.4741
   21CHL1  H16B 2683   0.427   6.518   5.113 -0.2305 -0.4551  0.2442
   21CHL1   C17 2684   0.616   6.617   5.153 -0.1918  0.0497  0.4203
   21CHL1   H17 2685   0.544   6.691   5.196  1.3883  0.6014  2.2345
   21CHL1   C13 2686   0.701   6.583   5.277 -0.0064  0.6014  0.6029
   21CHL1   C18 2687   0.828   6.504   5.239 -0.2103  0.0325 -0.0625
   21CHL1  H18A 2688   0.897   6.568   5.180 -0.3021 -1.2852 -1.6715
   21CHL1  H18B 2689   0.870   6.464   5.334 -0.5119  1.9114  0.9029
   21CHL1  H18C 2690   0.809   6.424   5.164 -2.5117  0.6912 -0.2735
   21CHL1   C12 2691   0.730   6.702   5.364  0.3709 -0.3902 -0.4306
   21CHL1  H12A 2692   0.801   6.778   5.325  0.3355 -0.3748 -0.4641
   21CHL1  H12B 2693   0.634   6.757   5.378  1.5345  1.6766 -0.1307
   21CHL1   C11 2694   0.788   6.649   5.498  1.0196  0.5199 -0.4189
   21CHL1  H11A 2695   0.889   6.605   5.492  1.0739  0.4362  0.8388
   21CHL1  H11B 2696   0.795   6.736   5.566 -0.3385  0.1166  0.2663
   21CHL1    C9 2697   0.694   6.544   5.577 -0.0229 -0.1602 -0.4502
   21CHL1    H9 2698   0.615   6.610   5.619 -0.0934 -0.4812 -0.0720
   21CHL1   C10 2699   0.760   6.479   5.706 -0.2252  0.6536 -0.6182
   21CHL1   C19 2700   0.894   6.411   5.677  0.1965  0.0986 -0.1879
   21CHL1  H19A 2701   0.928   6.345   5.759  0.9346  1.5566  0.7209
   21CHL1  H19B 2702   0.877   6.350   5.585 -2.9545  0.4115  0.0547
   21CHL1  H19C 2703   0.973   6.488   5.665 -0.8263  1.4863  1.4186
   21CHL1    C1 2704   0.772   6.590   5.812  0.9110 -0.8472  0.3079
   21CHL1   H1A 2705   0.836   6.669   5.768  0.1191 -1.2032 -1.5921
   21CHL1   H1B 2706   0.667   6.625   5.816  0.6325 -1.3825 -1.2866
   21CHL1    C2 2707   0.818   6.545   5.946 -0.0646 -0.1265  0.9071
   21CHL1   H2A 2708   0.823   6.632   6.016  0.2433  0.7348 -0.1473
   21CHL1   H2B 2709   0.925   6.517   5.937 -0.4341 -1.6858  1.1374
   21CHL1   C20 2710   0.686   6.661   5.022  0.6231 -0.1203 -1.0744
   21CHL1   H20 2711   0.751   6.579   4.987 -0.7197 -0.7665 -2.1372
   21CHL1   C21 2712   0.783   6.780   5.041  1.2574 -0.6325 -0.4563
   21CHL1  H21A 2713   0.826   6.803   4.941  0.7494  1.6185 -0.2109
   21CHL1  H21B 2714   0.860   6.752   5.116  0.6902 -0.9009  0.0364
   21CHL1  H21C 2715   0.735   6.876   5.071  1.5035 -1.2579  2.1258
   21CHL1   C22 2716   0.577   6.684   4.909  0.4180  0.6532 -0.6061
   21CHL1  H22A 2717   0.630   6.675   4.812 -1.0536 -1.6335 -1.2839
   21CHL1  H22B 2718   0.499   6.604   4.903  0.3157  0.3954  2.4566
   21CHL1   C23 2719   0.498   6.818   4.908 -0.0528 -0.3307  1.1396
   21CHL1  H23A 2720   0.437   6.825   5.000 -0.3938 -2.1090  1.1008
   21CHL1  H23B 2721   0.582   6.890   4.917 -0.3680  0.0564  0.9980
   21CHL1   C24 2722   0.411   6.828   4.788  0.2905 -0.4748  0.1156
   21CHL1  H24A 2723   0.478   6.792   4.707  0.3347  0.0505 -0.0842
   21CHL1  H24B 2724   0.329   6.754   4.790  2.8203 -3.6243 -1.8955
   21CHL1   C25 2725   0.363   6.972   4.762 -0.1528 -0.3965  0.6045
   21CHL1   H25 2726   0.451   7.038   4.749 -0.2147 -0.3944  0.1524
   21CHL1   C26 2727   0.297   6.983   4.625 -1.0804  0.4279  0.2459
   21CHL1  H26A 2728   0.370   6.964   4.544 -0.0791  1.9090  0.7546
   21CHL1  H26B 2729   0.221   6.902   4.624  2.4365 -3.1797 -1.0963
   21CHL1  H26C 2730   0.248   7.081   4.603  0.4538  1.2991  0.6018
   21CHL1   C27 2731   0.269   7.029   4.868 -0.2301 -0.1888 -0.1500
   21CHL1  H27A 2732   0.272   7.137   4.842  2.1138  0.1797  1.3318
   21CHL1  H27B 2733   0.166   6.985   4.862 -0.4593  0.3642 -0.3079
   21CHL1  H27C 2734   0.314   7.012   4.968  2.3077 -1.1101 -1.3544
   22CHL1    C3 2735   4.211   5.862   6.172 -0.0109 -0.6117 -0.4448
   22CHL1    H3 2736   4.112   5.815   6.157 -0.1551 -0.7080  0.7393
   22CHL1    O3 2737   4.208   5.928   6.295  0.0236 -0.0373  0.3817
   22CHL1   H3' 2738   4.299   5.957   6.304 -0.7303  2.1669  1.9130
   22CHL1    C4 2739   4.328   5.760   6.175  0.9194  0.0603 -0.0849
   22CHL1   H4A 2740   4.421   5.818   6.189  0.3949  1.6130 -2.4081
   22CHL1   H4B 2741   4.324   5.701   6.269  1.0595 -0.2908 -0.2991
   22CHL1    C5 2742   4.335   5.685   6.043  0.0010  0.4555 -0.8050
   22CHL1    C6 2743   4.325   5.549   6.045 -0.8550  0.3554  0.3463
   22CHL1    H6 2744   4.315   5.493   6.140  1.9679 -0.5866  0.1653
   22CHL1    C7 2745   4.340   5.472   5.919  0.1604  0.0641  0.3628
   22CHL1   H7A 2746   4.414   5.392   5.942 -0.4605 -0.4653  0.5474
   22CHL1   H7B 2747   4.246   5.423   5.884 -0.4463  0.8071  0.9088
   22CHL1    C8 2748   4.380   5.557   5.790  0.8868  0.1566 -0.3248
   22CHL1    H8 2749   4.491   5.570   5.796  0.8678  0.1894 -0.0475
   22CHL1   C14 2750   4.341   5.479   5.664  0.4022 -0.3449  0.5327
   22CHL1   H14 2751   4.230   5.472   5.671  0.4261  0.0781  1.4317
   22CHL1   C15 2752   4.382   5.327   5.643  0.0330 -0.4027 -0.8164
   22CHL1  H15A 2753   4.482   5.301   5.684  0.1013  2.0666  0.8610
   22CHL1  H15B 2754   4.312   5.263   5.701 -0.5611  1.4619  0.6245
   22CHL1   C16 2755   4.386   5.312   5.494 -0.4361  0.0506 -0.6527
   22CHL1  H16A 2756   4.493   5.295   5.469 -0.3921  2.1715 -2.1997
   22CHL1  H16B 2757   4.333   5.225   5.450  3.9910 -3.0248 -0.5415
   22CHL1   C17 2758   4.337   5.444   5.434  0.5787  0.7992 -0.0215
   22CHL1   H17 2759   4.227   5.432   5.446  0.5903 -1.3534 -1.4426
   22CHL1   C13 2760   4.375   5.553   5.539 -0.1427  0.4393 -0.3810
   22CHL1   C18 2761   4.529   5.577   5.525 -0.3410  0.1029  0.6553
   22CHL1  H18A 2762   4.562   5.662   5.588 -2.9171  1.1491  0.7454
   22CHL1  H18B 2763   4.587   5.486   5.553  0.0629 -0.0470 -0.6059
   22CHL1  H18C 2764   4.561   5.597   5.421 -0.1504 -0.9884  0.4867
   22CHL1   C12 2765   4.296   5.682   5.522 -0.3425  0.1304 -0.3090
   22CHL1  H12A 2766   4.319   5.731   5.425  0.9527  0.1623  0.0004
   22CHL1  H12B 2767   4.191   5.645   5.519 -1.0286  2.0054 -0.5146
   22CHL1   C11 2768   4.322   5.769   5.647  0.3458  0.7624  0.7286
   22CHL1  H11A 2769   4.424   5.812   5.636  1.6718 -2.6668 -2.0946
   22CHL1  H11B 2770   4.248   5.851   5.645  1.4573  1.7877 -1.1503
   22CHL1    C9 2771   4.314   5.695   5.784  0.1967  0.0001 -0.2557
   22CHL1    H9 2772   4.208   5.668   5.767  0.3628  0.7910 -3.0570
   22CHL1   C10 2773   4.342   5.776   5.917  0.2135 -0.0943  0.6414
   22CHL1   C19 2774   4.484   5.841   5.909  0.2995 -0.2794 -0.3482
   22CHL1  H19A 2775   4.482   5.920   5.987  0.8280 -0.6796  0.0792
   22CHL1  H19B 2776   4.570   5.773   5.926 -0.0111 -0.9200 -1.2386
   22CHL1  H19C 2777   4.498   5.885   5.808 -0.0233  0.5718 -0.0306
   22CHL1    C1 2778   4.228   5.878   5.928 -0.3917 -0.5712  0.7184
   22CHL1   H1A 2779   4.232   5.945   5.839 -0.0776  1.2079  2.0120
   22CHL1   H1B 2780   4.136   5.816   5.929  0.5651 -2.0978 -0.7492
   22CHL1    C2 2781   4.223   5.962   6.054 -0.0248 -0.6452  0.4135
   22CHL1   H2A 2782   4.131   6.024   6.067  1.3476  1.3243  1.2645
   22CHL1   H2B 2783   4.313   6.027   6.057  0.4212 -1.0770 -2.0341
   22CHL1   C20 2784   4.371   5.461   5.283 -0.3923  0.9882 -0.3501
   22CHL1   H20 2785   4.350   5.568   5.259 -1.4557  1.1529  1.1526
   22CHL1   C21 2786   4.249   5.382   5.214 -0.7816  0.9458 -0.4317
   22CHL1  H21A 2787   4.285   5.276   5.219  0.8131  1.4872  0.2515
   22CHL1  H21B 2788   4.269   5.401   5.107  1.5626 -1.1163 -0.4843
   22CHL1  H21C 2789   4.145   5.402   5.245 -0.8667 -0.1167  0.0220
   22CHL1   C22 2790   4.510   5.410   5.229 -0.0234 -0.5621  0.0790
   22CHL1  H22A 2791   4.589   5.438   5.303 -0.3974 -1.0931  0.6870
   22CHL1  H22B 2792   4.517   5.300   5.215  0.5475 -0.1646 -3.7156
   22CHL1   C23 2793   4.545   5.470   5.088 -0.4106  0.2350 -0.5975
   22CHL1  H23A 2794   4.469   5.433   5.017 -0.4186 -0.3600 -0.2824
   22CHL1  H23B 2795   4.551   5.581   5.094 -1.2219  0.2550 -0.1410
   22CHL1   C24 2796   4.684   5.422   5.038 -0.5569 -0.4349 -0.6016
   22CHL1  H24A 2797   4.768   5.447   5.107 -1.3211  1.2238 -0.2293
   22CHL1  H24B 2798   4.672   5.311   5.032 -0.6548 -0.3888 -1.4606
   22CHL1   C25 2799   4.715   5.476   4.894  0.4097  0.1223  0.7443
   22CHL1   H25 2800   4.621   5.481   4.836 -0.1041 -0.1353  1.5401
   22CHL1   C26 2801   4.779   5.615   4.900  0.2961 -0.3096 -0.1793
   22CHL1  H26A 2802   4.705   5.681   4.951 -2.4661  0.0555 -4.1523
   22CHL1  H26B 2803   4.871   5.604   4.960  1.1978 -1.6433 -1.7291
   22CHL1  H26C 2804   4.804   5.667   4.805 -0.5899  0.1728 -0.1619
   22CHL1   C27 2805   4.806   5.375   4.821  0.4396  0.2964  0.7679
   22CHL1  H27A 2806   4.895   5.350   4.883  1.7387 -1.4519 -1.6268
   22CHL1  H27B 2807   4.753   5.281   4.797  2.7595 -0.8923 -0.1150
   22CHL1  H27C 2808   4.844   5.408   4.722  1.2333 -2.4315  0.0622
   23CHL1    C3 2809   6.674   0.418   6.261  0.8277  0.2825 -0.9036
   23CHL1    H3 2810   6.731   0.323   6.247  0.8298  0.2482 -0.6711
   23CHL1    O3 2811   6.671   0.435   6.402  0.0098  0.5391  0.3625
   23CHL1   H3' 2812   6.759   0.441   6.440 -0.6297 -0.8782  2.2187
   23CHL1    C4 2813   6.753   0.530   6.195  0.1131  0.0304  0.0020
   23CHL1   H4A 2814   6.723   0.623   6.249  1.4834  0.5995 -0.1669
   23CHL1   H4B 2815   6.859   0.521   6.226  0.0957 -0.6757 -0.1421
   23CHL1    C5 2816   6.748   0.542   6.052 -0.8230  0.0218  0.7734
   23CHL1    C6 2817   6.869   0.553   5.986 -0.1091 -0.3187  0.2138
   23CHL1    H6 2818   6.959   0.559   6.049  1.4450 -0.7344 -1.8775
   23CHL1    C7 2819   6.875   0.555   5.836  0.2642 -0.1896 -0.0354
   23CHL1   H7A 2820   6.962   0.609   5.794  1.3612 -0.9335  1.1965
   23CHL1   H7B 2821   6.896   0.447   5.818  1.5517 -0.0999  0.7694
   23CHL1    C8 2822   6.740   0.586   5.771 -0.0531 -0.5034  0.5418
   23CHL1    H8 2823   6.725   0.695   5.787 -0.7419 -0.7123  1.4618
   23CHL1   C14 2824   6.735   0.550   5.628  0.3443  0.3572 -0.3516
   23CHL1   H14 2825   6.750   0.440   5.622  1.0870  0.4851 -1.1266
   23CHL1   C15 2826   6.843   0.590   5.537 -0.3643 -0.0580 -0.3042
   23CHL1  H15A 2827   6.860   0.700   5.547 -1.6754  0.0510  1.1958
   23CHL1  H15B 2828   6.943   0.552   5.566  0.3002  2.9747  1.9772
   23CHL1   C16 2829   6.804   0.561   5.399  0.3644 -0.1482  0.6930
   23CHL1  H16A 2830   6.819   0.648   5.332  3.2486 -1.2498 -0.2430
   23CHL1  H16B 2831   6.861   0.483   5.344 -1.9623 -0.2974 -1.6941
   23CHL1   C17 2832   6.649   0.532   5.404 -0.3743  0.2786 -0.5752
   23CHL1   H17 2833   6.640   0.421   5.408 -2.0669  0.3911 -0.5296
   23CHL1   C13 2834   6.604   0.580   5.551 -0.8699 -0.3241  0.6868
   23CHL1   C18 2835   6.593   0.736   5.549  0.1222  0.0264  0.1174
   23CHL1  H18A 2836   6.513   0.761   5.476  0.5012 -1.9603 -1.0512
   23CHL1  H18B 2837   6.567   0.770   5.652 -1.8520  0.3329 -0.4306
   23CHL1  H18C 2838   6.682   0.791   5.513  0.7212 -0.7785  0.3574
   23CHL1   C12 2839   6.491   0.512   5.622 -0.5791 -0.2408  0.6085
   23CHL1  H12A 2840   6.392   0.535   5.577 -0.1735  2.2341  0.8279
   23CHL1  H12B 2841   6.507   0.406   5.590 -0.1843  0.9472 -3.9030
   23CHL1   C11 2842   6.484   0.533   5.771 -0.5568  0.6132  0.0603
   23CHL1  H11A 2843   6.448   0.636   5.795 -0.6221  0.7402 -0.5413
   23CHL1  H11B 2844   6.408   0.463   5.812 -1.3051  2.3936  1.9147
   23CHL1    C9 2845   6.622   0.513   5.839  1.1730  0.3638  0.3891
   23CHL1    H9 2846   6.638   0.404   5.827  0.8848  0.4888 -1.3256
   23CHL1   C10 2847   6.611   0.535   5.986 -0.0425  0.6226  0.1855
   23CHL1   C19 2848   6.535   0.667   6.015 -0.0478 -0.1547 -0.0856
   23CHL1  H19A 2849   6.571   0.756   5.961  0.3333  0.4310  1.1092
   23CHL1  H19B 2850   6.425   0.656   5.998 -0.0781 -0.6546  0.4033
   23CHL1  H19C 2851   6.534   0.690   6.123 -5.0039 -1.2410  0.3572
   23CHL1    C1 2852   6.520   0.421   6.060 -1.1772 -0.6134  0.1789
   23CHL1   H1A 2853   6.413   0.423   6.029 -1.0096 -1.4199 -0.4750
   23CHL1   H1B 2854   6.552   0.323   6.020 -0.8599  0.1764 -1.5767
   23CHL1    C2 2855   6.531   0.406   6.206  1.0306  0.2717  0.1451
   23CHL1   H2A 2856   6.474   0.318   6.242 -3.1747  1.8183 -2.0057
   23CHL1   H2B 2857   6.479   0.499   6.238  0.2670  0.7434 -2.2838
   23CHL1   C20 2858   6.571   0.581   5.288 -0.2901  0.5918  0.5258
   23CHL1   H20 2859   6.585   0.689   5.264  2.2199  0.1101 -0.5359
   23CHL1   C21 2860   6.424   0.548   5.316 -0.3525 -0.0626  0.3357
   23CHL1  H21A 2861   6.414   0.452   5.371  0.9346 -0.6873 -0.4515
   23CHL1  H21B 2862   6.365   0.546   5.221  0.0904 -0.2806  0.0594
   23CHL1  H21C 2863   6.374   0.626   5.377 -2.5000 -0.2742 -1.0423
   23CHL1   C22 2864   6.617   0.514   5.147 -0.2626  0.7065  0.4702
   23CHL1  H22A 2865   6.547   0.569   5.080 -1.2959 -0.9524  0.1324
   23CHL1  H22B 2866   6.716   0.561   5.129 -0.2936  0.4304 -0.5180
   23CHL1   C23 2867   6.607   0.365   5.125  0.3358  0.4143  0.0060
   23CHL1  H23A 2868   6.685   0.319   5.190  0.6048  0.3270 -0.3730
   23CHL1  H23B 2869   6.510   0.331   5.166  0.0629  2.3091  1.0264
   23CHL1   C24 2870   6.628   0.304   4.985  0.2285 -0.2555  0.7803
   23CHL1  H24A 2871   6.542   0.342   4.925  1.3358  1.3876  0.1446
   23CHL1  H24B 2872   6.724   0.343   4.945 -0.0365 -0.5497 -0.1811
   23CHL1   C25 2873   6.622   0.153   4.975  0.3756 -0.3122 -0.0781
   23CHL1   H25 2874   6.538   0.124   5.042 -2.0388  1.9740 -1.8926
   23CHL1   C26 2875   6.583   0.120   4.833  0.4140 -0.1430  0.2689
   23CHL1  H26A 2876   6.569   0.011   4.821 -0.7297  0.0177 -0.0416
   23CHL1  H26B 2877   6.491   0.173   4.798  0.4183  0.4556  1.1476
   23CHL1  H26C 2878   6.660   0.155   4.761 -0.1668 -0.2187 -0.4135
   23CHL1   C27 2879   6.764   0.099   5.016  0.4558 -0.0278  0.4340
   23CHL1  H27A 2880   6.807   0.150   5.104  2.4750 -0.5193 -0.2135
   23CHL1  H27B 2881   6.765  -0.011   5.034 -0.2871 -0.1916 -0.4539
   23CHL1  H27C 2882   6.841   0.125   4.940 -0.2508 -2.1305 -1.1108
   24CHL1    C3 2883   2.826   0.842   6.251  0.2077 -0.5894 -0.1853
   24CHL1    H3 2884   2.770   0.920   6.196  0.1647 -1.8797 -2.0625
   24CHL1    O3 2885   2.772   0.824   6.379  0.4269 -0.0787  0.0940
   24CHL1   H3' 2886   2.697   0.764   6.379  0.8064 -0.5670  0.9620
   24CHL1    C4 2887   2.807   0.716   6.164 -0.0453  0.4394  0.3881
   24CHL1   H4A 2888   2.851   0.628   6.215 -1.2439 -1.8217 -2.1942
   24CHL1   H4B 2889   2.700   0.690   6.149  0.7042 -1.8805 -1.6148
   24CHL1    C5 2890   2.884   0.727   6.033  0.7201  0.4011 -0.2970
   24CHL1    C6 2891   2.818   0.718   5.913  0.0707 -0.2320 -0.4802
   24CHL1    H6 2892   2.711   0.696   5.915 -0.1489  0.8748  0.8550
   24CHL1    C7 2893   2.887   0.726   5.781 -0.6813 -0.3448 -0.5426
   24CHL1   H7A 2894   2.863   0.637   5.720 -1.2824 -0.5830  0.0260
   24CHL1   H7B 2895   2.864   0.815   5.719  0.4617 -0.4271 -1.1072
   24CHL1    C8 2896   3.043   0.729   5.794  0.0669 -0.4445  0.0133
   24CHL1    H8 2897   3.070   0.622   5.808  0.0862 -0.2999  1.1864
   24CHL1   C14 2898   3.097   0.789   5.664  0.3316  0.3547 -0.4390
   24CHL1   H14 2899   3.071   0.897   5.659  3.4677  1.1724 -1.3214
   24CHL1   C15 2900   3.071   0.717   5.534 -0.3300  0.2202 -0.1023
   24CHL1  H15A 2901   3.102   0.612   5.549  1.4870  1.0349  2.8016
   24CHL1  H15B 2902   2.966   0.728   5.499 -1.5293 -2.5523  2.2110
   24CHL1   C16 2903   3.175   0.779   5.432  0.9576  0.6720  0.1098
   24CHL1  H16A 2904   3.209   0.696   5.367  1.4936  0.3962  0.7321
   24CHL1  H16B 2905   3.109   0.846   5.372 -3.3081 -2.2844  1.0179
   24CHL1   C17 2906   3.285   0.846   5.512  0.2094 -0.3741  0.3795
   24CHL1   H17 2907   3.273   0.957   5.509 -1.6933 -0.5577  0.3685
   24CHL1   C13 2908   3.254   0.790   5.663  0.0904  0.2349 -0.0265
   24CHL1   C18 2909   3.313   0.650   5.688  0.9318 -0.1093 -0.0618
   24CHL1  H18A 2910   3.419   0.647   5.721  0.1223 -1.4390  2.6980
   24CHL1  H18B 2911   3.258   0.589   5.763  1.9076 -1.4061 -0.3611
   24CHL1  H18C 2912   3.307   0.590   5.595  0.3132 -0.1371 -0.0105
   24CHL1   C12 2913   3.290   0.892   5.776  0.9123 -0.3669 -0.3724
   24CHL1  H12A 2914   3.401   0.893   5.778  0.9051  1.2146  1.3063
   24CHL1  H12B 2915   3.248   0.990   5.745 -0.1663 -1.5711 -2.9622
   24CHL1   C11 2916   3.239   0.853   5.910  0.2504  0.0006 -0.5588
   24CHL1  H11A 2917   3.291   0.764   5.949  0.2126 -0.5241 -1.6525
   24CHL1  H11B 2918   3.263   0.940   5.974 -0.8709  0.1577 -0.3247
   24CHL1    C9 2919   3.085   0.822   5.908 -0.3489 -0.1918 -0.5997
   24CHL1    H9 2920   3.048   0.924   5.886  0.5715  0.9339  2.5866
   24CHL1   C10 2921   3.032   0.774   6.043  0.6200  0.1934 -0.2343
   24CHL1   C19 2922   3.114   0.649   6.093 -0.4090  0.7631 -0.1547
   24CHL1  H19A 2923   3.220   0.671   6.117 -0.2938 -0.0761  0.1058
   24CHL1  H19B 2924   3.065   0.614   6.186 -0.8431 -0.3194 -0.7690
   24CHL1  H19C 2925   3.114   0.562   6.024 -1.3064  0.2326  0.5017
   24CHL1    C1 2926   3.041   0.896   6.139 -0.2011 -0.2137 -0.4311
   24CHL1   H1A 2927   3.146   0.912   6.173 -0.4726 -1.4296  1.0926
   24CHL1   H1B 2928   3.003   0.986   6.087 -1.9447 -1.5683 -1.6084
   24CHL1    C2 2929   2.964   0.896   6.275 -0.8104 -0.5548  0.1709
   24CHL1   H2A 2930   2.961   0.999   6.317 -1.2895  0.1215 -1.4252
   24CHL1   H2B 2931   3.010   0.823   6.344  0.4809  0.6937  0.6816
   24CHL1   C20 2932   3.413   0.813   5.441 -0.3653 -0.5172 -0.4633
   24CHL1   H20 2933   3.434   0.704   5.445 -0.0642 -0.5465 -2.1225
   24CHL1   C21 2934   3.523   0.885   5.521 -0.2476 -0.0574 -0.4531
   24CHL1  H21A 2935   3.529   0.820   5.611 -0.6846 -2.9231 -2.3365
   24CHL1  H21B 2936   3.515   0.994   5.540 -0.7474 -0.1548 -0.0664
   24CHL1  H21C 2937   3.621   0.865   5.472  1.7113  1.9622  2.3680
   24CHL1   C22 2938   3.425   0.846   5.291 -0.5425  0.5185 -0.3446
   24CHL1  H22A 2939   3.370   0.764   5.240  1.8976 -0.1474 -2.0880
   24CHL1  H22B 2940   3.364   0.939   5.284 -0.4788  0.4547 -2.2577
   24CHL1   C23 2941   3.562   0.860   5.219  0.1316  0.2653 -0.5431
   24CHL1  H23A 2942   3.625   0.938   5.267  0.5056  0.0050 -0.6094
   24CHL1  H23B 2943   3.613   0.762   5.212 -2.5059 -1.2794  0.2090
   24CHL1   C24 2944   3.546   0.924   5.079 -0.2059  0.4208  0.2362
   24CHL1  H24A 2945   3.478   0.865   5.015  0.2747  2.4342 -2.3051
   24CHL1  H24B 2946   3.491   1.018   5.101  0.4880  0.7490  0.6269
   24CHL1   C25 2947   3.674   0.959   4.999 -0.3818  0.4283  0.3065
   24CHL1   H25 2948   3.744   0.993   5.079  1.3724 -0.4442 -0.8035
   24CHL1   C26 2949   3.754   0.846   4.929 -0.1500 -0.2037  0.3080
   24CHL1  H26A 2950   3.697   0.820   4.837 -1.2767 -1.6922  1.3850
   24CHL1  H26B 2951   3.857   0.880   4.907 -0.1197 -1.2972 -1.3864
   24CHL1  H26C 2952   3.763   0.751   4.985 -0.1454  0.1870  0.9827
   24CHL1   C27 2953   3.655   1.084   4.912  0.4531 -0.2746  0.2033
   24CHL1  H27A 2954   3.751   1.122   4.870 -0.6217 -1.2511 -3.4863
   24CHL1  H27B 2955   3.576   1.073   4.835  1.2641 -0.7944 -0.5648
   24CHL1  H27C 2956   3.631   1.168   4.981 -2.9805 -0.4973 -0.5692
   25CHL1    C3 2957   4.948   3.339   6.251  0.1817 -0.5054  0.2989
   25CHL1    H3 2958   4.842   3.368   6.271 -0.5244 -0.0224 -3.4854
   25CHL1    O3 2959   5.028   3.364   6.372  0.2049 -0.2584  0.2084
   25CHL1   H3' 2960   5.122   3.368   6.349  0.0647  0.6482 -0.2421
   25CHL1    C4 2961   4.954   3.193   6.199 -0.0161  0.2957  0.3778
   25CHL1   H4A 2962   5.062   3.168   6.191  0.6020  3.1623 -1.3753
   25CHL1   H4B 2963   4.902   3.118   6.263 -4.2686  1.9443 -0.8098
   25CHL1    C5 2964   4.889   3.172   6.064  0.6904 -0.3817  0.6336
   25CHL1    C6 2965   4.781   3.091   6.060  0.0514  0.0899  0.1619
   25CHL1    H6 2966   4.744   3.043   6.151  0.2627 -0.7725 -0.1989
   25CHL1    C7 2967   4.705   3.068   5.931 -0.0109  0.1952 -0.2141
   25CHL1   H7A 2968   4.678   2.961   5.914  1.6305 -0.1635 -0.7978
   25CHL1   H7B 2969   4.615   3.132   5.921  1.9384  2.9563 -1.0923
   25CHL1    C8 2970   4.791   3.105   5.806  0.4972 -0.0321 -0.1313
   25CHL1    H8 2971   4.867   3.024   5.805 -0.9181 -1.4272  1.0304
   25CHL1   C14 2972   4.700   3.097   5.678 -0.5027 -0.4506 -0.4238
   25CHL1   H14 2973   4.625   3.178   5.690  1.2463  1.1267  0.2891
   25CHL1   C15 2974   4.616   2.968   5.650  0.0018  0.7573 -0.7415
   25CHL1  H15A 2975   4.680   2.878   5.654  0.4822  1.1164 -0.0960
   25CHL1  H15B 2976   4.539   2.951   5.728  0.4452 -2.3402 -0.8736
   25CHL1   C16 2977   4.573   2.980   5.506 -0.5535 -0.8036  0.6887
   25CHL1  H16A 2978   4.597   2.884   5.454 -0.9563 -0.0793 -0.8984
   25CHL1  H16B 2979   4.464   3.002   5.511 -0.4743 -0.2111 -0.0554
   25CHL1   C17 2980   4.641   3.116   5.445  0.3809  0.7104  0.3243
   25CHL1   H17 2981   4.568   3.195   5.472  0.4344  0.7247  0.4236
   25CHL1   C13 2982   4.764   3.143   5.542 -0.7154 -0.0744 -0.2932
   25CHL1   C18 2983   4.881   3.048   5.511  0.0016 -0.1430  0.0173
   25CHL1  H18A 2984   4.849   2.942   5.511 -2.2825  0.4810 -0.9685
   25CHL1  H18B 2985   4.917   3.074   5.409  0.1379 -0.8160 -0.1079
   25CHL1  H18C 2986   4.959   3.054   5.589  0.7497 -1.2338 -0.6237
   25CHL1   C12 2987   4.822   3.287   5.555  0.0694  0.4486 -0.5424
   25CHL1  H12A 2988   4.879   3.317   5.464  1.3079  0.1050  0.1061
   25CHL1  H12B 2989   4.733   3.351   5.572  0.2342  0.0688  2.0635
   25CHL1   C11 2990   4.911   3.302   5.687 -0.0638  0.2720 -0.3186
   25CHL1  H11A 2991   5.010   3.258   5.663  0.3307  2.1909 -2.5548
   25CHL1  H11B 2992   4.937   3.409   5.700  0.6323 -0.1259  2.0433
   25CHL1    C9 2993   4.854   3.238   5.819 -0.0551 -0.7316  0.1089
   25CHL1    H9 2994   4.767   3.304   5.837  1.1076  0.5382  1.4173
   25CHL1   C10 2995   4.940   3.255   5.945  0.4244  0.3387 -0.2092
   25CHL1   C19 2996   5.084   3.189   5.912  0.3045 -0.3540 -0.3966
   25CHL1  H19A 2997   5.147   3.199   6.002  1.1523 -3.2575 -0.5773
   25CHL1  H19B 2998   5.072   3.079   5.899  1.5046 -0.5809  0.3291
   25CHL1  H19C 2999   5.136   3.227   5.822 -0.4801  2.6373  0.3146
   25CHL1    C1 3000   4.939   3.404   6.000  0.0680  0.0807 -0.3056
   25CHL1   H1A 3001   4.985   3.470   5.923 -0.8228  1.9761  0.7478
   25CHL1   H1B 3002   4.837   3.444   6.016  0.1556  0.3573 -0.4334
   25CHL1    C2 3003   5.009   3.427   6.140 -0.2285  0.1020  0.2290
   25CHL1   H2A 3004   5.000   3.533   6.171  0.4109  0.4212 -0.6221
   25CHL1   H2B 3005   5.117   3.404   6.127 -0.4272  0.3523 -2.4472
   25CHL1   C20 3006   4.653   3.122   5.295  0.2203  0.0257  0.2554
   25CHL1   H20 3007   4.738   3.052   5.276  1.1056  1.1661 -0.1597
   25CHL1   C21 3008   4.705   3.259   5.239 -0.6805 -1.0814 -0.7519
   25CHL1  H21A 3009   4.645   3.344   5.277  1.9903 -0.4362  2.4995
   25CHL1  H21B 3010   4.706   3.262   5.128  0.0304  0.3250 -0.7260
   25CHL1  H21C 3011   4.808   3.279   5.275 -0.4786  1.9127 -2.6751
   25CHL1   C22 3012   4.524   3.077   5.226  0.9209  0.3011  1.0525
   25CHL1  H22A 3013   4.455   3.010   5.283 -1.2045  1.2935 -0.2422
   25CHL1  H22B 3014   4.476   3.175   5.204  0.9695  0.2981  0.9343
   25CHL1   C23 3015   4.554   3.003   5.091  0.6226  0.1838  0.5147
   25CHL1  H23A 3016   4.625   3.062   5.030  2.3540 -0.4515  1.8283
   25CHL1  H23B 3017   4.608   2.911   5.122 -0.1731 -0.0971  1.1087
   25CHL1   C24 3018   4.440   2.979   4.995  0.1021 -0.9978 -0.1011
   25CHL1  H24A 3019   4.484   2.935   4.903  2.1552  1.5739 -0.4468
   25CHL1  H24B 3020   4.376   2.900   5.040 -1.2400  1.5405  2.7934
   25CHL1   C25 3021   4.370   3.099   4.939  0.2256 -0.3888  0.0373
   25CHL1   H25 3022   4.348   3.183   5.008  0.8662  0.0494 -0.2849
   25CHL1   C26 3023   4.471   3.170   4.842 -0.1184 -0.1052  1.1686
   25CHL1  H26A 3024   4.566   3.188   4.895  0.6408  0.8904 -0.4493
   25CHL1  H26B 3025   4.494   3.108   4.752  0.9772 -1.0445  2.0721
   25CHL1  H26C 3026   4.422   3.263   4.806  0.4392 -0.0952  0.4086
   25CHL1   C27 3027   4.256   3.047   4.847  1.0529 -1.2918  0.6011
   25CHL1  H27A 3028   4.287   2.995   4.753 -0.3814 -0.5663 -0.3066
   25CHL1  H27B 3029   4.197   2.970   4.901 -0.4052 -3.5307 -3.7142
   25CHL1  H27C 3030   4.187   3.127   4.813  2.9097  0.8930  1.6654
   26CHL1    C3 3031   4.871   5.908   6.108 -0.0321  0.2352  0.2127
   26CHL1    H3 3032   4.793   5.831   6.121  1.0318 -1.0175 -0.5309
   26CHL1    O3 3033   4.927   5.922   6.236 -0.0804  0.7428  0.6176
   26CHL1   H3' 3034   4.989   5.995   6.235 -1.3567  1.8693  0.0209
   26CHL1    C4 3035   4.976   5.834   6.020  0.6338  0.2503 -0.5670
   26CHL1   H4A 3036   5.076   5.883   6.027 -0.1760  1.7902  1.1076
   26CHL1   H4B 3037   5.003   5.735   6.062  0.9470  0.2526 -0.7510
   26CHL1    C5 3038   4.946   5.826   5.877 -0.1624  0.3350 -0.1381
   26CHL1    C6 3039   4.938   5.706   5.817 -0.3311 -0.2577  0.5566
   26CHL1    H6 3040   4.947   5.609   5.868 -1.7888 -1.0259 -0.5734
   26CHL1    C7 3041   4.919   5.693   5.664  0.1397 -0.5515  0.2587
   26CHL1   H7A 3042   4.993   5.620   5.626 -0.2924 -0.9717  0.2063
   26CHL1   H7B 3043   4.826   5.635   5.644 -0.8700  0.9355  0.4844
   26CHL1    C8 3044   4.918   5.826   5.588  0.5338 -0.2136  0.2867
   26CHL1    H8 3045   5.024   5.859   5.577  1.0326 -1.3160  1.4029
   26CHL1   C14 3046   4.862   5.824   5.449  0.3776  0.4176 -0.0994
   26CHL1   H14 3047   4.754   5.798   5.448  0.1359  1.3963 -0.3403
   26CHL1   C15 3048   4.934   5.725   5.349 -0.2495  0.0778  0.3095
   26CHL1  H15A 3049   5.044   5.732   5.364 -0.0845  1.1943 -1.2303
   26CHL1  H15B 3050   4.901   5.620   5.361 -2.0211  0.4413 -1.1160
   26CHL1   C16 3051   4.890   5.772   5.206  0.0921 -0.0496 -0.3246
   26CHL1  H16A 3052   4.982   5.793   5.147  1.2592  1.0051  1.7456
   26CHL1  H16B 3053   4.823   5.694   5.165  0.3786 -1.8855  2.4327
   26CHL1   C17 3054   4.807   5.901   5.232  0.0190  0.5037  0.2577
   26CHL1   H17 3055   4.709   5.853   5.253  1.0227 -1.5447  0.5250
   26CHL1   C13 3056   4.848   5.954   5.370 -0.5117  0.7068  0.2776
   26CHL1   C18 3057   4.983   6.029   5.343 -0.5191  0.1218 -0.6118
   26CHL1  H18A 3058   5.045   5.979   5.267  1.7609  0.7723  0.7274
   26CHL1  H18B 3059   4.962   6.133   5.309  1.0763  1.1218  1.2725
   26CHL1  H18C 3060   5.037   6.040   5.440  0.2510  1.0844 -1.1433
   26CHL1   C12 3061   4.747   6.039   5.443 -0.3039  0.5322  0.1989
   26CHL1  H12A 3062   4.721   6.130   5.384  1.8883  0.2413 -1.3521
   26CHL1  H12B 3063   4.648   5.989   5.441 -0.3856  0.5569  2.2023
   26CHL1   C11 3064   4.807   6.067   5.584  0.7365  0.7534 -0.8354
   26CHL1  H11A 3065   4.888   6.141   5.566  1.9192 -0.7159 -1.6934
   26CHL1  H11B 3066   4.726   6.126   5.634 -0.0513 -1.8499  1.1677
   26CHL1    C9 3067   4.852   5.939   5.668  0.6189  0.0889  0.2651
   26CHL1    H9 3068   4.747   5.909   5.689  0.0995  0.9897 -0.9260
   26CHL1   C10 3069   4.907   5.965   5.809 -0.0772 -0.5312 -0.4484
   26CHL1   C19 3070   5.042   6.049   5.801 -0.4784 -0.0810 -1.4664
   26CHL1  H19A 3071   5.119   5.985   5.752  0.6798  0.7587 -0.7711
   26CHL1  H19B 3072   5.020   6.141   5.743 -0.0835  0.5701 -0.5962
   26CHL1  H19C 3073   5.083   6.068   5.902  2.8954 -0.8290 -2.5583
   26CHL1    C1 3074   4.796   6.029   5.894 -0.0183 -0.0802 -0.8582
   26CHL1   H1A 3075   4.769   6.124   5.845 -1.6299 -1.0950 -2.0434
   26CHL1   H1B 3076   4.710   5.959   5.902  1.1192 -1.4506 -0.1023
   26CHL1    C2 3077   4.835   6.044   6.044 -0.1321 -0.2159 -0.2874
   26CHL1   H2A 3078   4.770   6.117   6.098  0.2121  0.4076 -0.6935
   26CHL1   H2B 3079   4.934   6.094   6.038 -1.5468  2.7446 -1.2712
   26CHL1   C20 3080   4.800   5.996   5.116 -0.0077 -0.5318  0.0500
   26CHL1   H20 3081   4.792   6.099   5.158 -1.9824  0.2076 -1.9421
   26CHL1   C21 3082   4.668   5.981   5.048 -0.1357 -0.0613  0.0515
   26CHL1  H21A 3083   4.586   5.949   5.116  0.8881 -0.2691  1.2362
   26CHL1  H21B 3084   4.686   5.900   4.974 -0.0869 -2.1764  2.2503
   26CHL1  H21C 3085   4.638   6.070   4.990  0.8804 -0.6214 -1.3958
   26CHL1   C22 3086   4.912   5.999   5.003  0.2534  0.5236 -0.0661
   26CHL1  H22A 3087   5.011   5.983   5.050 -0.5965  0.4855  1.7974
   26CHL1  H22B 3088   4.912   5.907   4.940 -0.8185 -0.3267  1.1190
   26CHL1   C23 3089   4.922   6.137   4.928  0.3759  0.0781  0.3285
   26CHL1  H23A 3090   4.833   6.160   4.865  0.1918 -1.1577  0.1217
   26CHL1  H23B 3091   4.918   6.216   5.006  2.0513  0.6306 -0.1104
   26CHL1   C24 3092   5.048   6.157   4.851  0.1059  0.9194 -0.5366
   26CHL1  H24A 3093   5.138   6.113   4.899 -0.5939  1.9593  1.9051
   26CHL1  H24B 3094   5.038   6.095   4.759 -1.8714  0.1171  0.1616
   26CHL1   C25 3095   5.086   6.295   4.800  0.4953 -0.2152  0.7753
   26CHL1   H25 3096   5.098   6.368   4.884 -0.6532  0.0994  0.6790
   26CHL1   C26 3097   5.224   6.289   4.726 -0.5982  0.4975 -0.2793
   26CHL1  H26A 3098   5.250   6.391   4.690  0.3880  0.4391  0.2204
   26CHL1  H26B 3099   5.305   6.258   4.796 -0.8019 -1.3450 -0.8253
   26CHL1  H26C 3100   5.219   6.220   4.640 -0.1408 -0.6035  0.5552
   26CHL1   C27 3101   4.972   6.347   4.702  1.0418 -0.2826  0.0691
   26CHL1  H27A 3102   4.873   6.362   4.750  1.5044  2.9902  0.2413
   26CHL1  H27B 3103   4.990   6.444   4.650  0.4750 -1.1755 -1.8852
   26CHL1  H27C 3104   4.962   6.278   4.616 -1.9128  1.0521 -0.7713
   27CHL1    C3 3105   0.385   6.687   6.043  0.0249  0.3363  0.0738
   27CHL1    H3 3106   0.485   6.697   5.997  0.2728 -2.1579 -0.0490
   27CHL1    O3 3107   0.391   6.689   6.184 -0.1109 -0.0694  0.2023
   27CHL1   H3' 3108   0.300   6.673   6.212  0.0784 -0.7739  0.4323
   27CHL1    C4 3109   0.294   6.803   5.999 -0.2082 -0.7101 -0.4706
   27CHL1   H4A 3110   0.195   6.791   6.047 -0.4882  2.0494 -0.1950
   27CHL1   H4B 3111   0.341   6.896   6.039 -0.1455 -0.6920 -0.5840
   27CHL1    C5 3112   0.277   6.809   5.849 -0.2973 -0.2232  0.0781
   27CHL1    C6 3113   0.322   6.908   5.769  0.1412 -0.0095  0.6104
   27CHL1    H6 3114   0.366   6.995   5.819  0.5175  0.6322 -0.8042
   27CHL1    C7 3115   0.300   6.913   5.624 -0.3731  0.3125  0.4528
   27CHL1   H7A 3116   0.279   7.015   5.585  3.1406  1.6756  1.6908
   27CHL1   H7B 3117   0.401   6.885   5.587 -0.5100 -0.0778  0.3660
   27CHL1    C8 3118   0.197   6.807   5.573 -0.5354  0.1392 -0.6294
   27CHL1    H8 3119   0.095   6.843   5.594 -0.3920 -0.2821  0.8702
   27CHL1   C14 3120   0.211   6.785   5.425 -0.4814  0.0665 -0.9507
   27CHL1   H14 3121   0.315   6.751   5.405  0.0297  0.6720  0.5664
   27CHL1   C15 3122   0.204   6.912   5.344  0.6066  0.8424  0.0555
   27CHL1  H15A 3123   0.119   6.978   5.369  0.3155  1.3418 -2.0469
   27CHL1  H15B 3124   0.302   6.965   5.353  2.1555 -1.7491 -0.3697
   27CHL1   C16 3125   0.174   6.859   5.205 -0.3477  0.4251  0.2556
   27CHL1  H16A 3126   0.095   6.916   5.152 -1.0557  0.3317  1.1832
   27CHL1  H16B 3127   0.264   6.876   5.143 -0.4624 -0.8450 -0.2880
   27CHL1   C17 3128   0.135   6.700   5.213 -0.6174  0.5728  0.5157
   27CHL1   H17 3129   0.235   6.653   5.198 -0.6664  0.2949  1.0723
   27CHL1   C13 3130   0.109   6.681   5.365 -0.3824 -0.4107 -0.2194
   27CHL1   C18 3131  -0.036   6.719   5.380  0.1606 -0.4694 -0.5878
   27CHL1  H18A 3132  -0.075   6.809   5.327  0.2058 -0.3838 -0.4765
   27CHL1  H18B 3133  -0.098   6.632   5.350  0.0848 -1.0551  1.1407
   27CHL1  H18C 3134  -0.048   6.735   5.489 -0.6345 -0.7772 -0.6208
   27CHL1   C12 3135   0.151   6.545   5.422 -0.5581  0.8076  0.2628
   27CHL1  H12A 3136   0.069   6.473   5.398 -0.7481  0.8217  0.8469
   27CHL1  H12B 3137   0.246   6.512   5.376  0.8767  0.5709  3.2012
   27CHL1   C11 3138   0.155   6.554   5.575  0.4225 -0.7822 -0.3531
   27CHL1  H11A 3139   0.054   6.568   5.619  0.6328  0.4879 -0.2243
   27CHL1  H11B 3140   0.179   6.457   5.624 -1.6159  0.1138  2.7302
   27CHL1    C9 3141   0.229   6.672   5.640  0.3854  0.2712  0.1173
   27CHL1    H9 3142   0.335   6.656   5.610  1.1282 -1.3501  3.1610
   27CHL1   C10 3143   0.213   6.683   5.794 -0.6572  0.5176  0.3643
   27CHL1   C19 3144   0.066   6.685   5.839  0.2060 -0.0446 -0.1521
   27CHL1  H19A 3145   0.031   6.580   5.843 -1.4753  0.5098  0.3685
   27CHL1  H19B 3146   0.058   6.706   5.948  0.2462  2.2860 -0.5360
   27CHL1  H19C 3147  -0.001   6.750   5.778 -0.9234  1.3325  2.4035
   27CHL1    C1 3148   0.286   6.558   5.856 -0.4579 -0.2240  0.2588
   27CHL1   H1A 3149   0.211   6.478   5.838 -2.3821  1.8403 -1.6369
   27CHL1   H1B 3150   0.380   6.529   5.804 -0.9405 -0.2824 -0.6027
   27CHL1    C2 3151   0.317   6.548   6.011 -0.0590  0.1620 -0.0909
   27CHL1   H2A 3152   0.385   6.462   6.032  0.1133  0.2894 -0.1182
   27CHL1   H2B 3153   0.221   6.546   6.066 -0.1994  1.5098 -0.2623
   27CHL1   C20 3154   0.051   6.652   5.097 -0.1012  0.1583  0.9681
   27CHL1   H20 3155  -0.049   6.699   5.101 -0.2067  0.1144 -0.5941
   27CHL1   C21 3156   0.034   6.494   5.107 -0.6099 -0.3163  0.7319
   27CHL1  H21A 3157  -0.024   6.464   5.017  0.4544 -2.0898  0.5817
   27CHL1  H21B 3158  -0.025   6.461   5.195 -0.8297  1.0065  1.1074
   27CHL1  H21C 3159   0.128   6.437   5.087  0.7211  1.4124  1.7814
   27CHL1   C22 3160   0.112   6.696   4.963  0.5586  0.0410  0.6254
   27CHL1  H22A 3161   0.115   6.806   4.949  2.7042 -0.0773 -0.2785
   27CHL1  H22B 3162   0.213   6.650   4.956  0.2912 -0.3628 -4.5825
   27CHL1   C23 3163   0.040   6.658   4.825 -0.3056  0.5459  0.0459
   27CHL1  H23A 3164   0.116   6.696   4.754  1.0414  0.2975  1.3167
   27CHL1  H23B 3165   0.037   6.548   4.810 -2.1512  0.4880  0.5258
   27CHL1   C24 3166  -0.093   6.721   4.799  0.2671 -0.5116  0.6248
   27CHL1  H24A 3167  -0.168   6.667   4.860 -0.0377 -2.0956 -1.0605
   27CHL1  H24B 3168  -0.098   6.828   4.829  1.5060 -0.9775  2.7176
   27CHL1   C25 3169  -0.143   6.687   4.659  0.5378 -0.7182  0.3369
   27CHL1   H25 3170  -0.082   6.734   4.579 -1.5576 -0.6844 -1.3222
   27CHL1   C26 3171  -0.151   6.534   4.633 -0.6110  0.2048  0.1134
   27CHL1  H26A 3172  -0.203   6.473   4.709  0.7871 -2.1917 -0.7280
   27CHL1  H26B 3173  -0.196   6.515   4.533  0.6644 -0.2993 -0.3897
   27CHL1  H26C 3174  -0.046   6.498   4.627 -1.1297 -2.3545  3.3569
   27CHL1   C27 3175  -0.290   6.732   4.643 -0.7969 -0.3903  0.3924
   27CHL1  H27A 3176  -0.338   6.757   4.740 -0.0583  0.1809  0.6185
   27CHL1  H27B 3177  -0.350   6.646   4.605  2.1041 -1.9028 -1.1539
   27CHL1  H27C 3178  -0.310   6.821   4.579 -1.0841  0.2238  1.3145
   28CHL1    C3 3179   6.509   6.504   6.009 -0.4414 -0.2593  0.3990
   28CHL1    H3 3180   6.488   6.395   6.019  2.5031 -0.9253  0.3315
   28CHL1    O3 3181   6.512   6.574   6.130  0.1697 -0.6729 -0.1924
   28CHL1   H3' 3182   6.452   6.521   6.182 -0.5432 -0.4157 -0.7368
   28CHL1    C4 3183   6.650   6.516   5.936  0.2342 -0.3627 -0.5075
   28CHL1   H4A 3184   6.656   6.626   5.923  1.7388 -0.4712 -0.9213
   28CHL1   H4B 3185   6.736   6.495   6.002  0.9132  2.3872 -0.3771
   28CHL1    C5 3186   6.661   6.454   5.798  0.4804  0.2596  0.1005
   28CHL1    C6 3187   6.761   6.372   5.757 -0.4388 -0.2008 -0.7954
   28CHL1    H6 3188   6.849   6.351   5.820 -1.4644 -0.5208  0.5817
   28CHL1    C7 3189   6.773   6.320   5.616  0.4087 -0.1666 -0.0093
   28CHL1   H7A 3190   6.876   6.340   5.580  2.0010 -1.4446  3.3516
   28CHL1   H7B 3191   6.760   6.210   5.612  2.4403 -0.4971  1.0947
   28CHL1    C8 3192   6.663   6.378   5.523 -0.2130 -0.2905  0.1717
   28CHL1    H8 3193   6.694   6.475   5.476 -3.8341 -0.1191 -2.2989
   28CHL1   C14 3194   6.633   6.280   5.410 -0.1451 -0.1170 -0.0651
   28CHL1   H14 3195   6.602   6.189   5.465  1.0133 -2.2475 -2.7266
   28CHL1   C15 3196   6.752   6.231   5.324  0.6648  0.6961 -0.6066
   28CHL1  H15A 3197   6.828   6.312   5.314  1.4936  0.0752  0.4101
   28CHL1  H15B 3198   6.815   6.152   5.371  1.1084  0.5959 -1.3332
   28CHL1   C16 3199   6.690   6.191   5.189 -0.1741 -0.8019 -0.2938
   28CHL1  H16A 3200   6.741   6.244   5.106  1.3280  1.2641  1.8375
   28CHL1  H16B 3201   6.717   6.083   5.182 -0.5499 -0.9652  0.6634
   28CHL1   C17 3202   6.534   6.215   5.198 -0.7560 -0.2648  0.4005
   28CHL1   H17 3203   6.513   6.120   5.252  0.2701  0.6085  2.4213
   28CHL1   C13 3204   6.529   6.323   5.309 -0.4706 -0.7438  0.4710
   28CHL1   C18 3205   6.577   6.462   5.250  0.1741  0.0444  0.3279
   28CHL1  H18A 3206   6.676   6.461   5.199 -0.2630 -0.3313 -0.5366
   28CHL1  H18B 3207   6.507   6.491   5.168 -0.6060 -1.3333  0.4826
   28CHL1  H18C 3208   6.582   6.543   5.326 -0.1926  2.1072 -1.7075
   28CHL1   C12 3209   6.400   6.336   5.379 -0.5534 -0.0801 -0.2917
   28CHL1  H12A 3210   6.313   6.362   5.315 -0.5416 -1.4827 -0.9115
   28CHL1  H12B 3211   6.372   6.237   5.421 -1.1525  0.4863  0.6545
   28CHL1   C11 3212   6.413   6.431   5.499  0.8409 -0.5876 -0.1797
   28CHL1  H11A 3213   6.429   6.533   5.456  0.0947  0.6978  2.4071
   28CHL1  H11B 3214   6.316   6.436   5.552  0.3917  2.0377 -1.0936
   28CHL1    C9 3215   6.532   6.393   5.596 -0.3939 -0.6469  1.0808
   28CHL1    H9 3216   6.509   6.295   5.643  0.6686 -1.9181 -0.9064
   28CHL1   C10 3217   6.536   6.496   5.712  0.8490  0.2514 -0.8360
   28CHL1   C19 3218   6.568   6.636   5.659  0.0637 -0.3276  0.2346
   28CHL1  H19A 3219   6.513   6.669   5.569  0.7816  0.0170 -0.0914
   28CHL1  H19B 3220   6.552   6.710   5.741 -1.1851 -1.3165  0.9100
   28CHL1  H19C 3221   6.670   6.646   5.616 -0.7321 -0.6629 -1.8559
   28CHL1    C1 3222   6.397   6.497   5.787 -0.0288  0.6958 -0.4107
   28CHL1   H1A 3223   6.318   6.548   5.728  0.2880  0.5455 -0.9722
   28CHL1   H1B 3224   6.362   6.392   5.799  1.2695  0.1414 -1.2319
   28CHL1    C2 3225   6.400   6.569   5.922  0.4448 -0.0355 -0.7918
   28CHL1   H2A 3226   6.298   6.563   5.964  1.2342  1.4467  1.5051
   28CHL1   H2B 3227   6.420   6.677   5.906 -1.8260  0.6461  0.5171
   28CHL1   C20 3228   6.441   6.221   5.074  0.3157 -0.3693 -0.4529
   28CHL1   H20 3229   6.372   6.307   5.089  0.6610 -0.4983  2.5030
   28CHL1   C21 3230   6.350   6.097   5.078 -0.4315  0.6204  0.3784
   28CHL1  H21A 3231   6.404   6.003   5.055  0.1371  1.1103 -0.3406
   28CHL1  H21B 3232   6.268   6.094   5.002  1.2466  0.1396 -1.5089
   28CHL1  H21C 3233   6.297   6.086   5.175  0.9720 -1.6425  0.9591
   28CHL1   C22 3234   6.511   6.242   4.938 -0.1145  0.4275  0.4386
   28CHL1  H22A 3235   6.570   6.335   4.956  0.0841  0.5480 -0.7847
   28CHL1  H22B 3236   6.583   6.158   4.927 -1.9073 -0.9989 -1.0385
   28CHL1   C23 3237   6.422   6.252   4.820  0.4552  0.3136 -0.4263
   28CHL1  H23A 3238   6.353   6.165   4.821 -0.6472  1.1807  0.3766
   28CHL1  H23B 3239   6.364   6.346   4.825 -0.3222 -0.1718 -0.2545
   28CHL1   C24 3240   6.490   6.240   4.684  0.1988  0.1077  0.1665
   28CHL1  H24A 3241   6.553   6.331   4.671 -0.1166  0.4907  1.2079
   28CHL1  H24B 3242   6.558   6.153   4.684 -0.6450 -0.6652 -2.6867
   28CHL1   C25 3243   6.396   6.246   4.565  0.4825 -0.2536  0.2004
   28CHL1   H25 3244   6.327   6.161   4.586 -1.7522  1.0213 -1.5704
   28CHL1   C26 3245   6.315   6.372   4.557 -0.7282 -0.1185  0.4258
   28CHL1  H26A 3246   6.376   6.463   4.540 -1.0288  0.3571  1.7597
   28CHL1  H26B 3247   6.242   6.363   4.474  2.0091 -0.6117 -2.0868
   28CHL1  H26C 3248   6.261   6.383   4.654  2.3707 -2.2930  2.5823
   28CHL1   C27 3249   6.481   6.221   4.440 -0.1460 -0.3143 -0.0176
   28CHL1  H27A 3250   6.561   6.298   4.440  0.9020 -1.3420  1.9714
   28CHL1  H27B 3251   6.528   6.121   4.435 -2.3137 -1.4138  0.3532
   28CHL1  H27C 3252   6.425   6.228   4.344 -1.0774  0.8609  0.5766
   29CHL1    C3 3253   2.202   1.581   6.412 -0.3280 -1.2796 -0.3589
   29CHL1    H3 3254   2.097   1.617   6.400 -1.4006 -4.2356 -0.4738
   29CHL1    O3 3255   2.234   1.587   6.546 -0.4811  0.1272 -0.3175
   29CHL1   H3' 3256   2.324   1.563   6.569 -0.5695  0.1208  0.0294
   29CHL1    C4 3257   2.218   1.439   6.358  0.7817  0.1247 -0.6159
   29CHL1   H4A 3258   2.310   1.390   6.396  0.7643  0.6741  0.1588
   29CHL1   H4B 3259   2.132   1.391   6.409  1.3467  0.3317  0.5726
   29CHL1    C5 3260   2.215   1.417   6.208  0.4182 -0.1076 -0.2648
   29CHL1    C6 3261   2.136   1.332   6.145  0.2315  0.5793 -0.1645
   29CHL1    H6 3262   2.061   1.281   6.207  0.4341 -0.1726 -0.5236
   29CHL1    C7 3263   2.132   1.299   5.995 -0.4227  0.1310  0.0333
   29CHL1   H7A 3264   2.144   1.190   5.979  2.0952  0.5967 -1.9325
   29CHL1   H7B 3265   2.028   1.314   5.957 -0.4974  0.1416  0.2419
   29CHL1    C8 3266   2.237   1.386   5.919 -0.0500  0.3042 -0.1304
   29CHL1    H8 3267   2.337   1.338   5.923  0.7018  1.4607 -2.6670
   29CHL1   C14 3268   2.195   1.388   5.774 -0.4311 -0.9896  0.3816
   29CHL1   H14 3269   2.104   1.451   5.777  1.2788  1.6744  0.3110
   29CHL1   C15 3270   2.166   1.258   5.691  0.0932 -1.0214 -0.3261
   29CHL1  H15A 3271   2.240   1.182   5.723  1.2432 -0.2594 -1.0641
   29CHL1  H15B 3272   2.066   1.217   5.716  0.7602 -2.7271 -0.3306
   29CHL1   C16 3273   2.179   1.303   5.543 -0.2104 -0.1929  1.1476
   29CHL1  H16A 3274   2.255   1.238   5.497  0.9359  0.1545  2.4870
   29CHL1  H16B 3275   2.086   1.301   5.482  0.1323 -3.2014  0.5924
   29CHL1   C17 3276   2.229   1.452   5.553 -0.1181 -0.4612  0.2296
   29CHL1   H17 3277   2.135   1.509   5.562 -0.2073  0.5556 -4.4981
   29CHL1   C13 3278   2.297   1.464   5.689  0.0762 -0.0843  0.1979
   29CHL1   C18 3279   2.433   1.388   5.678  0.2459  0.3578 -0.1067
   29CHL1  H18A 3280   2.480   1.375   5.778  1.3012 -2.3773 -0.8551
   29CHL1  H18B 3281   2.419   1.284   5.642  1.1833 -0.1078  0.8072
   29CHL1  H18C 3282   2.498   1.449   5.613 -0.9970  1.3760 -0.4288
   29CHL1   C12 3283   2.307   1.605   5.746 -0.6088 -0.7068 -0.2948
   29CHL1  H12A 3284   2.374   1.662   5.678 -0.8956 -1.7263 -1.4662
   29CHL1  H12B 3285   2.206   1.652   5.743 -0.3860 -0.2299 -0.6000
   29CHL1   C11 3286   2.351   1.612   5.894  0.1461  0.0842  1.0063
   29CHL1  H11A 3287   2.455   1.574   5.891  0.3025  0.5687 -0.1576
   29CHL1  H11B 3288   2.351   1.715   5.936 -0.0112  1.6713 -2.5726
   29CHL1    C9 3289   2.261   1.524   5.981  0.9576  0.3778 -0.0553
   29CHL1    H9 3290   2.165   1.581   5.975  0.1548 -0.8734  0.4698
   29CHL1   C10 3291   2.301   1.520   6.129  0.3473  0.5558 -0.0607
   29CHL1   C19 3292   2.449   1.475   6.142  0.0819  0.7132  0.0643
   29CHL1  H19A 3293   2.505   1.548   6.080 -0.9226  0.5258 -1.1168
   29CHL1  H19B 3294   2.492   1.484   6.244  1.7219 -0.7454 -0.4377
   29CHL1  H19C 3295   2.476   1.375   6.101 -1.7822  0.1894 -0.0038
   29CHL1    C1 3296   2.283   1.664   6.186 -0.1595  0.2210  0.0457
   29CHL1   H1A 3297   2.371   1.719   6.146  0.3730  0.3131  1.2755
   29CHL1   H1B 3298   2.184   1.707   6.162 -0.7675 -1.9542 -1.6686
   29CHL1    C2 3299   2.295   1.676   6.339  0.3536 -0.0110 -0.4535
   29CHL1   H2A 3300   2.271   1.781   6.367 -2.4872 -0.3854 -1.1443
   29CHL1   H2B 3301   2.399   1.645   6.364 -0.5234 -2.2754  0.6110
   29CHL1   C20 3302   2.300   1.516   5.428 -0.0581  0.1515 -0.7895
   29CHL1   H20 3303   2.358   1.601   5.470  2.1560 -2.2909  1.5340
   29CHL1   C21 3304   2.188   1.571   5.342  0.0293  0.2195  0.0840
   29CHL1  H21A 3305   2.234   1.643   5.270 -1.2083  0.3289 -0.6331
   29CHL1  H21B 3306   2.121   1.638   5.399 -0.7712  0.1958 -0.8042
   29CHL1  H21C 3307   2.119   1.497   5.296  0.7350  0.6829 -1.8283
   29CHL1   C22 3308   2.407   1.441   5.349  0.3740  0.0249 -0.7614
   29CHL1  H22A 3309   2.492   1.499   5.308  1.6154 -1.5477 -0.5379
   29CHL1  H22B 3310   2.452   1.372   5.424  0.4615  1.0272  0.1219
   29CHL1   C23 3311   2.354   1.364   5.230  0.1577 -0.4722  0.4193
   29CHL1  H23A 3312   2.267   1.300   5.255  0.5927 -1.3467 -0.2829
   29CHL1  H23B 3313   2.332   1.444   5.156  1.5619 -0.6314 -0.1989
   29CHL1   C24 3314   2.461   1.281   5.168 -0.0151 -0.0511  0.6451
   29CHL1  H24A 3315   2.563   1.325   5.172  0.9014 -2.0595  0.4952
   29CHL1  H24B 3316   2.467   1.191   5.232 -0.3960 -0.6285 -0.1259
   29CHL1   C25 3317   2.450   1.231   5.022  0.5601 -1.2509 -0.2351
   29CHL1   H25 3318   2.551   1.198   4.990  0.1407 -1.4873 -1.3375
   29CHL1   C26 3319   2.353   1.115   4.990  0.1957 -0.2166 -0.1138
   29CHL1  H26A 3320   2.383   1.028   5.052 -0.3941 -0.5014 -0.2256
   29CHL1  H26B 3321   2.250   1.141   5.024  0.8336  0.9906  0.9834
   29CHL1  H26C 3322   2.363   1.082   4.884  0.1400  2.1784 -0.9317
   29CHL1   C27 3323   2.426   1.350   4.931  0.1012 -0.2752 -0.1709
   29CHL1  H27A 3324   2.449   1.331   4.824  0.5272 -2.6674  0.2838
   29CHL1  H27B 3325   2.319   1.379   4.932 -0.0242 -0.6932 -0.6112
   29CHL1  H27C 3326   2.496   1.425   4.973 -0.5697 -0.4520  1.3248
   30CHL1    C3 3327   3.922   1.926   6.396  0.3191  0.1679  0.8492
   30CHL1    H3 3328   3.811   1.929   6.402  0.2966  0.3088  0.3856
   30CHL1    O3 3329   3.959   1.913   6.530 -0.4625 -0.1759 -0.5499
   30CHL1   H3' 3330   4.052   1.934   6.539 -0.1952 -1.4759 -0.0499
   30CHL1    C4 3331   3.978   1.806   6.320  0.1562 -0.1695  0.0939
   30CHL1   H4A 3332   4.088   1.796   6.328  0.1386  0.0972  0.7160
   30CHL1   H4B 3333   3.944   1.718   6.378  1.9723 -2.6242 -2.3283
   30CHL1    C5 3334   3.932   1.795   6.179 -0.7059 -0.1826 -0.7988
   30CHL1    C6 3335   3.851   1.696   6.142 -0.2233 -0.0318  0.0791
   30CHL1    H6 3336   3.829   1.617   6.216 -0.3406  2.0684  2.4376
   30CHL1    C7 3337   3.785   1.690   6.007  0.4501 -0.3396 -0.4275
   30CHL1   H7A 3338   3.789   1.586   5.970  0.0334 -0.3572 -0.4357
   30CHL1   H7B 3339   3.679   1.725   5.999  0.6912  0.9377  1.3743
   30CHL1    C8 3340   3.863   1.782   5.906 -0.2561  0.1537 -0.0537
   30CHL1    H8 3341   3.963   1.744   5.877 -1.5234 -2.3647 -1.4621
   30CHL1   C14 3342   3.791   1.788   5.775  0.0374  0.9395  0.2599
   30CHL1   H14 3343   3.696   1.842   5.791 -1.9568 -2.1313 -0.3963
   30CHL1   C15 3344   3.751   1.655   5.713  0.4975  0.3813  0.2136
   30CHL1  H15A 3345   3.836   1.584   5.722 -1.2463 -1.8152  0.0570
   30CHL1  H15B 3346   3.663   1.611   5.765  0.2922 -0.3282 -0.7110
   30CHL1   C16 3347   3.720   1.691   5.571 -0.1970  1.0103  0.1803
   30CHL1  H16A 3348   3.772   1.622   5.501 -1.3571  1.7820 -1.5044
   30CHL1  H16B 3349   3.612   1.676   5.551  0.5082 -1.4024 -2.4965
   30CHL1   C17 3350   3.767   1.837   5.546  0.0158 -0.3866 -0.4926
   30CHL1   H17 3351   3.683   1.905   5.570  0.8287  0.7802 -0.8995
   30CHL1   C13 3352   3.869   1.865   5.667 -0.2392 -0.2936  0.4925
   30CHL1   C18 3353   4.012   1.802   5.629  0.1531 -0.4830 -0.4019
   30CHL1  H18A 3354   4.067   1.867   5.557  1.0361  3.2843  3.2789
   30CHL1  H18B 3355   4.081   1.803   5.716 -1.2504 -2.2720  0.8271
   30CHL1  H18C 3356   4.009   1.703   5.579  2.1679 -0.1125 -1.3721
   30CHL1   C12 3357   3.880   2.001   5.726 -0.0875  0.3139  0.6402
   30CHL1  H12A 3358   3.927   2.067   5.650 -1.3022  1.1979  0.6284
   30CHL1  H12B 3359   3.777   2.040   5.740 -0.5356 -1.3909  2.3692
   30CHL1   C11 3360   3.957   2.016   5.849  0.0197  0.0019 -0.4819
   30CHL1  H11A 3361   4.062   1.980   5.837 -0.2447 -1.7122  1.6264
   30CHL1  H11B 3362   3.959   2.121   5.884  2.4364 -0.4331  0.9505
   30CHL1    C9 3363   3.897   1.926   5.956 -0.0954  0.6383 -0.2095
   30CHL1    H9 3364   3.798   1.976   5.969  0.2606  1.1530  0.6587
   30CHL1   C10 3365   3.976   1.927   6.095  0.3619  0.9844 -0.0956
   30CHL1   C19 3366   4.124   1.935   6.068 -0.7333  0.3019 -0.2957
   30CHL1  H19A 3367   4.164   2.034   6.037  0.2450  1.2951  3.5651
   30CHL1  H19B 3368   4.173   1.903   6.162 -1.2826  0.0468 -0.0928
   30CHL1  H19C 3369   4.162   1.865   5.991  0.2499  0.1733  0.2914
   30CHL1    C1 3370   3.937   2.052   6.175  0.2592 -0.2404 -0.6729
   30CHL1   H1A 3371   3.991   2.139   6.131  0.3186  0.4022  0.6318
   30CHL1   H1B 3372   3.828   2.064   6.158  0.6021  1.0008 -2.2362
   30CHL1    C2 3373   3.971   2.050   6.324  0.1616 -0.2189  0.2509
   30CHL1   H2A 3374   3.939   2.141   6.379 -1.0345 -0.2515 -0.3486
   30CHL1   H2B 3375   4.082   2.050   6.332  0.2971 -0.7445 -1.3029
   30CHL1   C20 3376   3.808   1.882   5.403 -0.6826  0.0656  0.2550
   30CHL1   H20 3377   3.898   1.824   5.374 -0.8232 -0.3607  0.6602
   30CHL1   C21 3378   3.828   2.032   5.384  0.3566 -0.6241 -0.2454
   30CHL1  H21A 3379   3.918   2.083   5.424  1.1458 -0.7567 -1.7452
   30CHL1  H21B 3380   3.742   2.083   5.432 -0.8109 -4.4487  2.0724
   30CHL1  H21C 3381   3.816   2.067   5.279  1.0664  1.8506  0.4140
   30CHL1   C22 3382   3.700   1.828   5.309  0.5055 -0.0044 -0.3320
   30CHL1  H22A 3383   3.731   1.848   5.204  0.9466 -1.6344 -0.5286
   30CHL1  H22B 3384   3.694   1.718   5.312  2.4708 -0.1655 -0.9656
   30CHL1   C23 3385   3.560   1.886   5.320 -0.4063  0.3020 -0.1846
   30CHL1  H23A 3386   3.514   1.875   5.421 -2.3436  0.2864 -1.0178
   30CHL1  H23B 3387   3.576   1.991   5.288  0.2591  0.7209  1.4265
   30CHL1   C24 3388   3.468   1.832   5.211 -0.0088  0.4660 -0.3041
   30CHL1  H24A 3389   3.520   1.841   5.114  2.2398 -0.3198  0.7460
   30CHL1  H24B 3390   3.455   1.722   5.220  1.3679  0.3820  1.2145
   30CHL1   C25 3391   3.324   1.890   5.212 -0.8956  0.0077 -0.1557
   30CHL1   H25 3392   3.323   2.001   5.220 -1.3522  0.0593 -0.8674
   30CHL1   C26 3393   3.256   1.846   5.088  0.6128 -0.4321  0.5690
   30CHL1  H26A 3394   3.160   1.898   5.070 -1.0315 -3.2078  0.7334
   30CHL1  H26B 3395   3.319   1.866   4.999  1.5555 -0.6029  1.1829
   30CHL1  H26C 3396   3.238   1.736   5.083  2.5867 -0.7687 -0.0484
   30CHL1   C27 3397   3.240   1.853   5.331  0.0647  0.2634 -0.6993
   30CHL1  H27A 3398   3.150   1.917   5.332  0.3380  0.7515 -2.6161
   30CHL1  H27B 3399   3.216   1.745   5.342 -0.4896  0.5620  1.2467
   30CHL1  H27C 3400   3.295   1.882   5.423 -0.3645 -2.0713  0.3692
   31CHL1    C3 3401   0.718   1.055   5.908  0.3957  0.2688  0.2043
   31CHL1    H3 3402   0.633   0.992   5.940  1.6625 -1.4290  0.3486
   31CHL1    O3 3403   0.806   1.077   6.012  0.6311  0.1620 -0.4917
   31CHL1   H3' 3404   0.872   1.134   5.971  1.3168 -0.5305 -0.3871
   31CHL1    C4 3405   0.794   0.984   5.798 -0.2781  0.3767  0.6000
   31CHL1   H4A 3406   0.890   1.036   5.777  0.6841 -0.6789  2.1658
   31CHL1   H4B 3407   0.830   0.890   5.846  0.3227  0.6317  0.6630
   31CHL1    C5 3408   0.719   0.958   5.667  0.3118 -0.3434  0.3475
   31CHL1    C6 3409   0.696   0.840   5.617 -0.1160 -0.6242  0.1814
   31CHL1    H6 3410   0.736   0.748   5.660 -2.5081 -0.8097  2.2146
   31CHL1    C7 3411   0.627   0.815   5.486  0.4678 -0.0196 -0.0356
   31CHL1   H7A 3412   0.697   0.763   5.417  2.4186  0.6057  1.3694
   31CHL1   H7B 3413   0.539   0.751   5.509 -0.1095  0.9191  0.4072
   31CHL1    C8 3414   0.578   0.942   5.419 -0.4336  0.4371  0.3138
   31CHL1    H8 3415   0.661   0.961   5.348  1.4236 -2.0698  1.6632
   31CHL1   C14 3416   0.454   0.921   5.332 -0.5196  0.5106  0.0663
   31CHL1   H14 3417   0.379   0.907   5.413 -0.3322  1.3435  0.3960
   31CHL1   C15 3418   0.463   0.801   5.247  0.0557  0.4777  0.1751
   31CHL1  H15A 3419   0.566   0.801   5.205  0.4158 -1.5798  0.9647
   31CHL1  H15B 3420   0.459   0.706   5.304  0.1976  0.8840  0.8698
   31CHL1   C16 3421   0.337   0.818   5.160  0.8109  0.5919  0.1154
   31CHL1  H16A 3422   0.363   0.806   5.052 -0.9483  2.9792 -0.6684
   31CHL1  H16B 3423   0.262   0.747   5.200  0.7022  1.5861  1.7999
   31CHL1   C17 3424   0.279   0.956   5.196  0.1239  0.3661  0.1547
   31CHL1   H17 3425   0.218   0.936   5.287  2.8670 -3.4803  1.3759
   31CHL1   C13 3426   0.400   1.036   5.248  0.2033 -0.3918  0.0128
   31CHL1   C18 3427   0.486   1.070   5.125  0.0931 -0.6681  0.3614
   31CHL1  H18A 3428   0.455   1.163   5.074 -0.0453 -0.5883  0.5937
   31CHL1  H18B 3429   0.594   1.088   5.146 -0.7319  1.6280  3.2338
   31CHL1  H18C 3430   0.488   0.993   5.044 -0.3225  0.0947 -0.3895
   31CHL1   C12 3431   0.383   1.157   5.326 -0.2025  0.0017 -0.6558
   31CHL1  H12A 3432   0.374   1.250   5.267  0.5230 -0.1780 -1.0625
   31CHL1  H12B 3433   0.299   1.143   5.398  0.9307 -1.5927  0.4507
   31CHL1   C11 3434   0.501   1.177   5.424  0.6783 -0.2025 -0.0776
   31CHL1  H11A 3435   0.579   1.203   5.350 -0.0937  1.2639 -0.4201
   31CHL1  H11B 3436   0.477   1.265   5.489 -1.6981 -0.6454 -0.2459
   31CHL1    C9 3437   0.538   1.054   5.514 -0.6806  0.4416 -0.0854
   31CHL1    H9 3438   0.452   1.022   5.576 -0.2864 -3.0118 -1.0895
   31CHL1   C10 3439   0.647   1.087   5.617 -0.7244 -0.6127 -0.1553
   31CHL1   C19 3440   0.754   1.170   5.553  0.1021  0.4836  0.1283
   31CHL1  H19A 3441   0.842   1.183   5.620 -0.4742 -1.3651  1.3226
   31CHL1  H19B 3442   0.783   1.141   5.450 -0.0202  1.6823 -0.2674
   31CHL1  H19C 3443   0.713   1.273   5.540  2.4162  1.2615 -1.7761
   31CHL1    C1 3444   0.580   1.169   5.732 -0.1134  0.0584 -0.2463
   31CHL1   H1A 3445   0.546   1.268   5.693  1.7607  0.3679 -1.1676
   31CHL1   H1B 3446   0.486   1.121   5.767  1.2441 -0.3511  3.2776
   31CHL1    C2 3447   0.675   1.188   5.856 -0.2000 -0.2029  0.9952
   31CHL1   H2A 3448   0.612   1.232   5.936 -0.8730  2.2139 -0.7692
   31CHL1   H2B 3449   0.758   1.260   5.840 -0.5201  0.1806  1.0511
   31CHL1   C20 3450   0.188   1.024   5.089 -0.3043  0.1971  0.3652
   31CHL1   H20 3451   0.206   1.133   5.103 -0.5798  0.2615  0.2391
   31CHL1   C21 3452   0.037   0.990   5.126 -0.3288 -0.0092  0.6323
   31CHL1  H21A 3453   0.010   0.888   5.093 -1.9479  0.7201 -0.4443
   31CHL1  H21B 3454  -0.030   1.062   5.075  2.0174  0.7975 -1.5646
   31CHL1  H21C 3455   0.032   1.008   5.235 -2.9332 -0.4391  0.6315
   31CHL1   C22 3456   0.209   0.972   4.943  0.5889  0.9472  0.1976
   31CHL1  H22A 3457   0.316   0.978   4.914  0.5558  0.6734  0.0156
   31CHL1  H22B 3458   0.185   0.864   4.939  0.0594  1.1006 -2.1029
   31CHL1   C23 3459   0.135   1.044   4.834  0.1100  0.3603  0.2305
   31CHL1  H23A 3460   0.151   0.974   4.750  1.3839 -0.4731  1.1318
   31CHL1  H23B 3461   0.025   1.057   4.848  0.3444  0.6154  2.0836
   31CHL1   C24 3462   0.198   1.183   4.807  0.3906  0.1461  0.3150
   31CHL1  H24A 3463   0.181   1.259   4.886  2.5759  0.2869  0.6874
   31CHL1  H24B 3464   0.308   1.174   4.802  0.2171 -1.8580 -1.6833
   31CHL1   C25 3465   0.145   1.262   4.687  1.5192  1.4346 -0.2599
   31CHL1   H25 3466   0.040   1.229   4.669  2.3264 -1.6584  0.0289
   31CHL1   C26 3467   0.141   1.411   4.716  0.1860 -0.1685 -0.0646
   31CHL1  H26A 3468   0.128   1.431   4.824  0.3990 -1.9161  0.3176
   31CHL1  H26B 3469   0.246   1.445   4.702  0.7769 -2.2096 -0.9076
   31CHL1  H26C 3470   0.071   1.464   4.648  0.0666 -1.3534 -0.8836
   31CHL1   C27 3471   0.226   1.230   4.566  0.1600  0.0040  0.2473
   31CHL1  H27A 3472   0.167   1.261   4.478 -1.1667 -0.2821  1.0035
   31CHL1  H27B 3473   0.315   1.297   4.565 -0.8687  1.4158 -1.5265
   31CHL1  H27C 3474   0.241   1.120   4.571  0.2279  0.0239  0.5330
   32CHL1    C3 3475   1.824   4.913   6.352 -0.0131 -0.1363  0.9140
   32CHL1    H3 3476   1.859   5.017   6.365  0.9558 -0.0580 -1.7724
   32CHL1    O3 3477   1.780   4.861   6.473  0.1303  0.2804  0.0781
   32CHL1   H3' 3478   1.696   4.907   6.471  0.0946  0.2214  0.2136
   32CHL1    C4 3479   1.705   4.901   6.255 -0.1279 -0.0590  0.4105
   32CHL1   H4A 3480   1.668   4.797   6.261 -0.1932 -0.0397  0.3327
   32CHL1   H4B 3481   1.618   4.964   6.284 -1.8030 -1.1927 -1.8481
   32CHL1    C5 3482   1.743   4.933   6.108 -1.0019 -0.0363  0.3478
   32CHL1    C6 3483   1.683   5.026   6.032 -0.3645 -1.0886  0.2209
   32CHL1    H6 3484   1.598   5.081   6.073 -1.1343 -0.9901 -1.4114
   32CHL1    C7 3485   1.723   5.054   5.887  0.0627 -0.1619 -0.1568
   32CHL1   H7A 3486   1.632   5.071   5.826  1.4321  0.2308 -2.1805
   32CHL1   H7B 3487   1.779   5.150   5.886  0.5989 -0.4744 -1.1847
   32CHL1    C8 3488   1.808   4.949   5.817  0.7817  0.2144 -0.5557
   32CHL1    H8 3489   1.744   4.861   5.798 -0.8144  0.8796  1.4247
   32CHL1   C14 3490   1.866   4.993   5.679 -0.7512  0.3689  0.1607
   32CHL1   H14 3491   1.917   5.089   5.700 -0.5512  0.0890  1.0078
   32CHL1   C15 3492   1.753   5.010   5.566 -0.4533 -0.7521 -0.6478
   32CHL1  H15A 3493   1.684   4.923   5.571  1.1052 -1.9696  2.1821
   32CHL1  H15B 3494   1.702   5.105   5.590  1.4652  0.0515  0.4770
   32CHL1   C16 3495   1.844   5.007   5.443 -0.9076 -0.0970 -0.4341
   32CHL1  H16A 3496   1.812   4.951   5.353  2.5225 -0.0480 -1.8349
   32CHL1  H16B 3497   1.868   5.106   5.399  1.5209 -1.0276 -1.3515
   32CHL1   C17 3498   1.983   4.949   5.479 -0.3552 -0.5719 -0.6163
   32CHL1   H17 3499   2.054   5.034   5.490  0.1563 -1.1851  1.1079
   32CHL1   C13 3500   1.964   4.893   5.623 -0.1910  0.2858  0.0709
   32CHL1   C18 3501   1.910   4.743   5.604 -0.2359 -0.3253 -0.2787
   32CHL1  H18A 3502   1.851   4.706   5.690  0.7760  1.0701  1.0728
   32CHL1  H18B 3503   1.840   4.751   5.517  0.0026  1.9230 -0.3298
   32CHL1  H18C 3504   1.995   4.674   5.584  1.4578  1.6321 -0.2227
   32CHL1   C12 3505   2.083   4.892   5.719  1.1242 -0.5082 -0.1321
   32CHL1  H12A 3506   2.167   4.825   5.689 -0.2091 -1.1654 -2.7148
   32CHL1  H12B 3507   2.120   4.996   5.716  0.0745 -0.0655  1.3575
   32CHL1   C11 3508   2.034   4.839   5.853  0.2288  0.0795  0.3130
   32CHL1  H11A 3509   2.014   4.731   5.843 -0.5792 -0.0551  2.7785
   32CHL1  H11B 3510   2.124   4.840   5.919  0.9452  0.4011 -0.6311
   32CHL1    C9 3511   1.914   4.912   5.917  0.0353  0.1323  0.1027
   32CHL1    H9 3512   1.955   5.014   5.934 -0.3711  0.5538 -1.3235
   32CHL1   C10 3513   1.867   4.859   6.054  0.2847 -0.3934 -0.2878
   32CHL1   C19 3514   1.818   4.714   6.029 -0.0902 -0.2523  0.6415
   32CHL1  H19A 3515   1.908   4.655   6.000 -0.3409 -0.1107 -0.4702
   32CHL1  H19B 3516   1.782   4.657   6.116  0.6888 -0.2983  0.9401
   32CHL1  H19C 3517   1.740   4.707   5.951  1.2311  1.7246 -0.9800
   32CHL1    C1 3518   1.985   4.871   6.159  0.2846 -0.2178 -0.4127
   32CHL1   H1A 3519   2.074   4.808   6.137  0.3412 -0.9253  1.6123
   32CHL1   H1B 3520   2.026   4.974   6.144 -0.0951 -0.2178 -1.5669
   32CHL1    C2 3521   1.933   4.822   6.297  0.1756  0.3656  0.2388
   32CHL1   H2A 3522   2.005   4.821   6.382  0.4307  1.6393  0.0630
   32CHL1   H2B 3523   1.898   4.717   6.288  0.7674  0.1797  0.0143
   32CHL1   C20 3524   2.063   4.869   5.370 -0.3797 -0.3828 -0.0654
   32CHL1   H20 3525   2.009   4.774   5.348  0.4458 -1.1027  0.9090
   32CHL1   C21 3526   2.204   4.832   5.424  0.0265  0.2026  0.3420
   32CHL1  H21A 3527   2.271   4.797   5.342 -1.5130 -1.7571 -0.1465
   32CHL1  H21B 3528   2.189   4.741   5.486 -1.4141 -0.0230 -0.2939
   32CHL1  H21C 3529   2.250   4.921   5.471  0.6381 -0.0194  0.1785
   32CHL1   C22 3530   2.072   4.931   5.236  0.0953 -0.7432 -0.3030
   32CHL1  H22A 3531   1.968   4.964   5.213 -0.1947 -0.8979  0.7361
   32CHL1  H22B 3532   2.143   5.015   5.249 -0.6624  0.2756 -2.2897
   32CHL1   C23 3533   2.119   4.842   5.127  0.2296 -0.5692  1.1831
   32CHL1  H23A 3534   2.228   4.857   5.119  0.1441 -0.5851 -0.2673
   32CHL1  H23B 3535   2.094   4.736   5.146 -1.2468 -1.1337 -2.7858
   32CHL1   C24 3536   2.048   4.890   4.993  0.2979  0.3537  1.0536
   32CHL1  H24A 3537   1.942   4.913   5.015 -0.0166  0.4138 -0.4371
   32CHL1  H24B 3538   2.086   4.979   4.940 -2.7314  1.1720  0.0482
   32CHL1   C25 3539   2.055   4.782   4.885  0.2044 -0.3322 -0.6127
   32CHL1   H25 3540   2.161   4.747   4.880  0.6178  0.5587  1.0303
   32CHL1   C26 3541   1.964   4.661   4.914 -0.0854 -0.3337 -0.2996
   32CHL1  H26A 3542   1.969   4.599   4.822 -0.8631 -2.3615  0.9520
   32CHL1  H26B 3543   1.976   4.594   5.003  0.1089 -1.0177 -0.8302
   32CHL1  H26C 3544   1.863   4.704   4.930  0.1406  0.2271 -0.3933
   32CHL1   C27 3545   2.011   4.841   4.751 -1.0114 -0.3149  0.1747
   32CHL1  H27A 3546   2.039   4.767   4.673  0.0486  1.3384 -1.0674
   32CHL1  H27B 3547   1.905   4.876   4.754 -0.6887  0.6082  2.1677
   32CHL1  H27C 3548   2.063   4.935   4.723 -1.3735 -0.3597 -0.6763
   33CHL1    C3 3549   0.838   5.619   6.028 -0.4216  0.1695  0.1336
   33CHL1    H3 3550   0.771   5.532   6.010 -0.2924 -0.5172  2.5694
   33CHL1    O3 3551   0.898   5.600   6.154  0.2099  0.1776 -0.8185
   33CHL1   H3' 3552   0.918   5.507   6.143  0.8891  0.1599  0.4719
   33CHL1    C4 3553   0.945   5.623   5.919  0.0170 -0.0430  0.0517
   33CHL1   H4A 3554   1.034   5.687   5.940  1.6451 -1.8585 -1.0614
   33CHL1   H4B 3555   0.985   5.520   5.920 -1.2931 -0.5848 -0.3855
   33CHL1    C5 3556   0.902   5.657   5.779 -0.2453  0.8956  0.1131
   33CHL1    C6 3557   0.934   5.579   5.679 -0.1908  0.0910 -0.5670
   33CHL1    H6 3558   0.998   5.491   5.696 -0.2017 -0.0101 -1.0442
   33CHL1    C7 3559   0.889   5.607   5.538  0.0802 -0.3015 -1.0432
   33CHL1   H7A 3560   0.979   5.590   5.475  0.2799 -0.3911 -0.7390
   33CHL1   H7B 3561   0.810   5.534   5.510 -1.2952  0.2162  1.2131
   33CHL1    C8 3562   0.846   5.758   5.517  0.0379  0.3506  0.2826
   33CHL1    H8 3563   0.942   5.815   5.523 -0.3684  0.9581  1.1256
   33CHL1   C14 3564   0.793   5.777   5.380  0.8806 -0.3667  1.0934
   33CHL1   H14 3565   0.693   5.731   5.375 -0.8615  3.0107  1.8288
   33CHL1   C15 3566   0.873   5.715   5.265  0.1853 -0.8794 -0.1654
   33CHL1  H15A 3567   0.982   5.731   5.280  0.4707  0.0135 -2.6975
   33CHL1  H15B 3568   0.859   5.605   5.259  1.3968 -1.1988  1.8986
   33CHL1   C16 3569   0.819   5.794   5.148  0.7133  0.1976 -0.4085
   33CHL1  H16A 3570   0.905   5.822   5.083  0.2913  0.8776 -0.6861
   33CHL1  H16B 3571   0.746   5.727   5.097  0.0595 -2.2996  3.4178
   33CHL1   C17 3572   0.734   5.913   5.197  0.5567  0.0425 -0.0356
   33CHL1   H17 3573   0.633   5.866   5.190  0.3980  0.3210  0.3273
   33CHL1   C13 3574   0.767   5.922   5.352 -0.0343 -0.5840  0.5239
   33CHL1   C18 3575   0.893   6.013   5.361  0.3408 -0.3853 -0.1827
   33CHL1  H18A 3576   0.925   6.038   5.464 -1.5542 -1.4195  0.7184
   33CHL1  H18B 3577   0.984   5.966   5.316 -0.3135 -0.5429 -1.4068
   33CHL1  H18C 3578   0.874   6.114   5.318 -0.2080 -0.2043  0.4717
   33CHL1   C12 3579   0.656   5.960   5.445 -0.2253 -0.8577 -0.2969
   33CHL1  H12A 3580   0.634   6.066   5.419  0.5590 -0.4242  0.7549
   33CHL1  H12B 3581   0.560   5.906   5.427  0.3964 -2.0485 -0.1416
   33CHL1   C11 3582   0.694   5.945   5.596  0.7335 -0.1916  0.0970
   33CHL1  H11A 3583   0.765   6.026   5.624  2.0608 -1.1354 -0.4390
   33CHL1  H11B 3584   0.606   5.973   5.659  0.1549 -0.1496 -0.7148
   33CHL1    C9 3585   0.750   5.804   5.626  0.0977  0.4255 -0.8044
   33CHL1    H9 3586   0.663   5.736   5.624  1.0482 -0.9770  1.4827
   33CHL1   C10 3587   0.817   5.788   5.760  0.3732  0.7242 -0.6608
   33CHL1   C19 3588   0.910   5.902   5.787 -0.5942 -0.3578  0.3266
   33CHL1  H19A 3589   0.980   5.915   5.702  0.3886 -2.0499  0.8174
   33CHL1  H19B 3590   0.870   6.005   5.787  0.3487  0.0246 -0.7064
   33CHL1  H19C 3591   0.981   5.892   5.872  0.7780  0.6199 -0.6605
   33CHL1    C1 3592   0.704   5.769   5.873 -0.1505 -0.6102 -0.1189
   33CHL1   H1A 3593   0.640   5.860   5.880 -2.6625 -2.3504  1.0705
   33CHL1   H1B 3594   0.636   5.683   5.855  0.0345 -1.6925  3.5399
   33CHL1    C2 3595   0.756   5.747   6.017  0.0374 -0.6805  0.5042
   33CHL1   H2A 3596   0.667   5.733   6.083 -0.6711  0.3785 -0.1757
   33CHL1   H2B 3597   0.821   5.829   6.053  1.2834 -0.3687 -2.2079
   33CHL1   C20 3598   0.739   6.041   5.114  0.3968  0.1073  0.3429
   33CHL1   H20 3599   0.721   6.135   5.172 -0.3242  0.0722  0.1847
   33CHL1   C21 3600   0.623   6.051   5.016 -0.0365 -0.3013 -0.4232
   33CHL1  H21A 3601   0.632   5.975   4.936 -1.7919  0.3916 -1.3303
   33CHL1  H21B 3602   0.628   6.154   4.975  1.1927 -0.3096 -0.3218
   33CHL1  H21C 3603   0.528   6.043   5.074  1.0452 -2.6250  1.1739
   33CHL1   C22 3604   0.877   6.065   5.031 -0.4136 -0.0793  0.3817
   33CHL1  H22A 3605   0.967   6.044   5.093 -0.0314  2.0453  0.6108
   33CHL1  H22B 3606   0.885   5.992   4.948  1.3546 -0.2144  0.6302
   33CHL1   C23 3607   0.892   6.205   4.957  0.1611  0.8525 -0.9480
   33CHL1  H23A 3608   0.800   6.237   4.905 -0.2809  1.0064 -0.0917
   33CHL1  H23B 3609   0.903   6.275   5.043 -2.4844  2.6379 -1.9473
   33CHL1   C24 3610   1.016   6.208   4.876  0.4907  0.0547  0.5419
   33CHL1  H24A 3611   1.104   6.177   4.938 -0.8761 -0.9766  2.0510
   33CHL1  H24B 3612   1.009   6.145   4.785  1.1248 -2.8605  2.3752
   33CHL1   C25 3613   1.057   6.356   4.828 -0.5808 -0.2634 -0.0865
   33CHL1   H25 3614   1.068   6.415   4.922 -1.1806 -1.1688  0.5765
   33CHL1   C26 3615   1.191   6.365   4.750  0.1220 -0.0403 -0.1795
   33CHL1  H26A 3616   1.276   6.341   4.817  0.4766  1.4193 -0.0687
   33CHL1  H26B 3617   1.178   6.288   4.671  0.4492  1.3212 -1.5993
   33CHL1  H26C 3618   1.203   6.464   4.701 -0.9227 -0.4628 -1.3586
   33CHL1   C27 3619   0.941   6.417   4.737 -0.8082  0.0008  0.1761
   33CHL1  H27A 3620   0.904   6.343   4.662 -2.4569  0.8306  0.1392
   33CHL1  H27B 3621   0.852   6.451   4.793  0.1820  1.6320  0.8307
   33CHL1  H27C 3622   0.998   6.494   4.681  0.0137 -0.1828  0.7435
   34CHL1    C3 3623   1.801   0.607   6.284 -0.0082 -0.2173 -0.0344
   34CHL1    H3 3624   1.799   0.717   6.292  2.6382 -0.0626 -0.5948
   34CHL1    O3 3625   1.768   0.558   6.411  0.1013 -0.3281 -0.0590
   34CHL1   H3' 3626   1.790   0.467   6.389 -0.3300 -0.2359 -0.9253
   34CHL1    C4 3627   1.697   0.559   6.184 -0.3580 -0.4919  0.5586
   34CHL1   H4A 3628   1.712   0.450   6.172  0.7430 -0.4285  1.2547
   34CHL1   H4B 3629   1.592   0.559   6.221 -0.1083 -0.8985  1.2766
   34CHL1    C5 3630   1.707   0.617   6.039 -0.1179  0.1926  0.4340
   34CHL1    C6 3631   1.608   0.676   5.972  0.4356 -0.0540 -0.4969
   34CHL1    H6 3632   1.509   0.659   6.017  0.8355 -2.1065 -0.3033
   34CHL1    C7 3633   1.619   0.743   5.831  0.0603 -0.4288 -0.1081
   34CHL1   H7A 3634   1.537   0.699   5.769 -0.5488 -0.8847  0.9856
   34CHL1   H7B 3635   1.623   0.854   5.835  1.6000 -0.3872 -1.5999
   34CHL1    C8 3636   1.759   0.711   5.762  0.0119 -0.0625  0.7409
   34CHL1    H8 3637   1.738   0.611   5.719  0.0087 -0.1045  0.8399
   34CHL1   C14 3638   1.785   0.808   5.645 -0.2810 -0.4711  0.3369
   34CHL1   H14 3639   1.780   0.904   5.701 -2.2147 -0.2277 -0.1801
   34CHL1   C15 3640   1.677   0.814   5.539  0.6152  0.3419  0.4265
   34CHL1  H15A 3641   1.647   0.710   5.514 -0.3279  0.1949  2.0203
   34CHL1  H15B 3642   1.589   0.877   5.564  0.0878  0.3561 -1.2989
   34CHL1   C16 3643   1.744   0.870   5.413  0.6792  0.2167  0.6816
   34CHL1  H16A 3644   1.742   0.805   5.323  1.5694  1.0007  0.0798
   34CHL1  H16B 3645   1.708   0.972   5.386 -1.5159 -1.4574 -3.8125
   34CHL1   C17 3646   1.897   0.886   5.449 -0.0074 -0.2195 -0.4879
   34CHL1   H17 3647   1.908   0.989   5.488 -1.4911 -0.0542 -0.4393
   34CHL1   C13 3648   1.915   0.787   5.565 -0.0023 -0.1845 -0.5867
   34CHL1   C18 3649   1.930   0.648   5.506 -0.1416  0.5749 -0.5114
   34CHL1  H18A 3650   1.845   0.620   5.439  0.6665 -1.4693 -0.7611
   34CHL1  H18B 3651   2.026   0.630   5.452 -0.2742 -3.8072  0.3129
   34CHL1  H18C 3652   1.932   0.568   5.583 -1.2133  0.4515 -0.5928
   34CHL1   C12 3653   2.026   0.825   5.671 -0.0255  0.3319 -0.2796
   34CHL1  H12A 3654   2.130   0.819   5.631  0.4081  0.3608  0.7866
   34CHL1  H12B 3655   1.995   0.922   5.715 -1.9391  0.3306 -1.5351
   34CHL1   C11 3656   2.019   0.735   5.795  0.3760 -0.1537 -0.5408
   34CHL1  H11A 3657   2.064   0.635   5.779  1.0524 -0.0741  0.7696
   34CHL1  H11B 3658   2.080   0.782   5.875  0.2935 -1.1473  0.1119
   34CHL1    C9 3659   1.875   0.716   5.858  0.4933  0.4334 -0.5493
   34CHL1    H9 3660   1.849   0.817   5.897 -1.4928 -0.3138  0.2035
   34CHL1   C10 3661   1.854   0.625   5.977  0.1281  0.0168  0.0006
   34CHL1   C19 3662   1.875   0.482   5.916  0.4360  0.3109 -0.1456
   34CHL1  H19A 3663   1.968   0.476   5.857  0.8761 -1.4369  0.6395
   34CHL1  H19B 3664   1.880   0.400   5.991  0.3303 -0.0854 -0.5681
   34CHL1  H19C 3665   1.799   0.442   5.845 -0.7282 -2.7666  2.5478
   34CHL1    C1 3666   1.958   0.656   6.092 -0.0915  0.2304 -0.3100
   34CHL1   H1A 3667   2.059   0.633   6.052 -0.3503 -1.0706 -0.2436
   34CHL1   H1B 3668   1.949   0.763   6.122 -0.0490 -0.0294  0.6771
   34CHL1    C2 3669   1.940   0.585   6.227 -1.2086 -0.0747 -0.4273
   34CHL1   H2A 3670   2.027   0.612   6.291  0.2133 -0.9223 -1.9147
   34CHL1   H2B 3671   1.955   0.482   6.190  2.2023  0.6476 -1.4188
   34CHL1   C20 3672   1.991   0.878   5.323  0.4194  0.1647  0.2703
   34CHL1   H20 3673   2.006   0.770   5.299  0.8395 -0.1587  1.8980
   34CHL1   C21 3674   2.130   0.922   5.379 -0.1801  0.5004  0.5035
   34CHL1  H21A 3675   2.193   0.849   5.436  2.7866  1.5992 -1.1463
   34CHL1  H21B 3676   2.108   1.013   5.438  2.5683  2.3942 -1.1614
   34CHL1  H21C 3677   2.196   0.954   5.296 -0.1345  2.7110  1.3207
   34CHL1   C22 3678   1.951   0.952   5.189 -0.1944 -0.0829 -0.1766
   34CHL1  H22A 3679   1.845   0.932   5.164 -0.3459  1.1398 -0.5714
   34CHL1  H22B 3680   1.971   1.061   5.193  0.2638 -0.1924  2.3383
   34CHL1   C23 3681   2.025   0.894   5.055 -0.0952  0.4650  0.2644
   34CHL1  H23A 3682   2.133   0.908   5.076 -0.2880  2.1337  0.2908
   34CHL1  H23B 3683   2.002   0.785   5.057  1.1889  0.1884  2.0622
   34CHL1   C24 3684   1.993   0.962   4.919  0.3332  0.2520  0.2781
   34CHL1  H24A 3685   1.885   0.949   4.897  0.3230  1.2372 -0.2861
   34CHL1  H24B 3686   2.018   1.069   4.927 -0.5505  0.5875 -1.0998
   34CHL1   C25 3687   2.077   0.898   4.802  0.0474  0.2699  0.0179
   34CHL1   H25 3688   2.186   0.906   4.823  0.2916  0.7417 -1.3022
   34CHL1   C26 3689   2.042   0.748   4.795  0.6292  0.0265  0.2616
   34CHL1  H26A 3690   2.093   0.708   4.705 -2.8071 -1.1307 -1.3015
   34CHL1  H26B 3691   2.085   0.678   4.871  1.0194 -1.7878 -1.5623
   34CHL1  H26C 3692   1.940   0.707   4.780  1.8907 -3.3444 -0.0344
   34CHL1   C27 3693   2.053   0.964   4.671 -1.0302 -0.8914 -0.1096
   34CHL1  H27A 3694   1.960   0.934   4.618 -0.2106 -0.3670 -1.9105
   34CHL1  H27B 3695   2.070   1.074   4.669 -0.0491 -0.9779  1.5594
   34CHL1  H27C 3696   2.133   0.925   4.604 -1.4447  0.6878 -1.5927
   35CHL1    C3 3697   2.829   3.502   6.144  0.7906  0.6242 -0.4672
   35CHL1    H3 3698   2.915   3.571   6.135  1.0040  0.4907  0.4292
   35CHL1    O3 3699   2.792   3.463   6.277 -0.8701 -0.3372 -0.5184
   35CHL1   H3' 3700   2.740   3.382   6.275 -0.4947 -0.5713 -1.0029
   35CHL1    C4 3701   2.701   3.556   6.070  0.3898  0.3014  0.2168
   35CHL1   H4A 3702   2.627   3.475   6.086 -0.4488  0.5256 -2.1572
   35CHL1   H4B 3703   2.657   3.642   6.126  0.5998  0.3095  0.3727
   35CHL1    C5 3704   2.716   3.576   5.918 -0.5109 -0.0809 -0.5210
   35CHL1    C6 3705   2.703   3.697   5.854  0.0528 -0.5371  0.2238
   35CHL1    H6 3706   2.681   3.787   5.913  2.4028 -0.6821  1.4504
   35CHL1    C7 3707   2.719   3.712   5.709 -0.5446  0.2778 -0.0244
   35CHL1   H7A 3708   2.636   3.776   5.670  0.7503  2.1920  0.2102
   35CHL1   H7B 3709   2.818   3.757   5.686  1.3884 -1.5739  3.8061
   35CHL1    C8 3710   2.718   3.579   5.625 -0.2272  0.0187  0.8184
   35CHL1    H8 3711   2.616   3.539   5.643  0.7755 -1.9168  2.5455
   35CHL1   C14 3712   2.744   3.607   5.477  0.5289  0.1244  0.6805
   35CHL1   H14 3713   2.845   3.653   5.472  0.8363 -0.4271  1.6567
   35CHL1   C15 3714   2.648   3.700   5.409 -0.7238  0.0441 -0.3149
   35CHL1  H15A 3715   2.548   3.664   5.440 -0.1866  0.7589  2.5162
   35CHL1  H15B 3716   2.655   3.808   5.435 -0.9836  0.5121 -2.0473
   35CHL1   C16 3717   2.682   3.674   5.262  0.2828  0.0926 -0.1556
   35CHL1  H16A 3718   2.582   3.664   5.214 -0.3169 -2.0655  1.4039
   35CHL1  H16B 3719   2.734   3.765   5.227  1.9302 -1.2078 -1.2122
   35CHL1   C17 3720   2.771   3.544   5.255 -0.1764 -0.5117  0.6422
   35CHL1   H17 3721   2.873   3.585   5.236 -0.3317 -1.3718 -2.5709
   35CHL1   C13 3722   2.757   3.480   5.391  0.1629 -0.8268 -0.1937
   35CHL1   C18 3723   2.634   3.393   5.406 -0.7334  1.0534 -0.2210
   35CHL1  H18A 3724   2.603   3.360   5.507 -0.8255 -0.8363 -0.8182
   35CHL1  H18B 3725   2.551   3.445   5.355 -0.8992 -0.0430 -1.1189
   35CHL1  H18C 3726   2.640   3.300   5.346 -1.1499 -1.7610  3.6786
   35CHL1   C12 3727   2.883   3.407   5.451  0.2224  0.1254 -0.4012
   35CHL1  H12A 3728   2.902   3.309   5.402  0.3407  1.7817 -3.9900
   35CHL1  H12B 3729   2.969   3.473   5.429  0.5896  0.3035  1.4093
   35CHL1   C11 3730   2.862   3.372   5.600  0.2701 -0.5325  0.4862
   35CHL1  H11A 3731   2.786   3.291   5.597  0.7312 -1.0854  2.3488
   35CHL1  H11B 3732   2.953   3.323   5.641  0.7240 -0.6457 -0.6079
   35CHL1    C9 3733   2.821   3.491   5.695  0.0670  0.2247 -0.1246
   35CHL1    H9 3734   2.913   3.551   5.712  1.3568 -1.7015  0.0310
   35CHL1   C10 3735   2.773   3.456   5.839 -0.1563  0.0355 -0.5607
   35CHL1   C19 3736   2.671   3.339   5.828 -0.0194  0.3130 -0.4058
   35CHL1  H19A 3737   2.717   3.239   5.811 -0.9221  0.3120 -3.3113
   35CHL1  H19B 3738   2.613   3.343   5.922 -1.0004  0.8919 -1.0174
   35CHL1  H19C 3739   2.595   3.365   5.751 -0.6879  0.3854  0.2702
   35CHL1    C1 3740   2.899   3.392   5.923 -0.1843 -0.1552  0.3402
   35CHL1   H1A 3741   2.949   3.301   5.883  1.9854  1.0361  0.2297
   35CHL1   H1B 3742   2.975   3.473   5.920  0.3625 -0.6873 -2.2984
   35CHL1    C2 3743   2.867   3.369   6.070 -0.0919 -0.6489 -0.2199
   35CHL1   H2A 3744   2.959   3.323   6.113 -1.1503 -2.3671  0.2934
   35CHL1   H2B 3745   2.777   3.305   6.079 -1.7049  1.3226 -1.5729
   35CHL1   C20 3746   2.736   3.454   5.130  0.0279  0.1056 -0.1325
   35CHL1   H20 3747   2.639   3.402   5.143 -0.9909  1.4738 -1.7653
   35CHL1   C21 3748   2.849   3.346   5.121  0.1892 -0.0933 -0.0826
   35CHL1  H21A 3749   2.947   3.398   5.109  0.6606 -1.5676 -4.0189
   35CHL1  H21B 3750   2.848   3.288   5.027  2.0932  1.8865 -1.4301
   35CHL1  H21C 3751   2.852   3.278   5.209 -0.6046 -0.0685 -0.0299
   35CHL1   C22 3752   2.718   3.548   5.006 -0.0177 -0.0038  0.2070
   35CHL1  H22A 3753   2.629   3.614   5.018  1.1165  1.6539 -0.0487
   35CHL1  H22B 3754   2.807   3.615   5.006  0.9048 -1.1998  1.2300
   35CHL1   C23 3755   2.701   3.472   4.872  0.7233  0.5257 -0.3039
   35CHL1  H23A 3756   2.802   3.431   4.848  1.3215  0.3386  2.2453
   35CHL1  H23B 3757   2.647   3.378   4.897  2.5953 -0.8707 -1.2281
   35CHL1   C24 3758   2.636   3.543   4.754  0.2017 -0.2471  0.0360
   35CHL1  H24A 3759   2.527   3.554   4.774 -0.3808 -0.9133 -2.3833
   35CHL1  H24B 3760   2.677   3.646   4.755 -1.3606  0.4012  1.3115
   35CHL1   C25 3761   2.646   3.480   4.620 -0.5799 -0.8457 -0.6826
   35CHL1   H25 3762   2.755   3.498   4.607 -0.8210  2.2329  0.6867
   35CHL1   C26 3763   2.601   3.340   4.608 -0.3582 -0.4359  0.1749
   35CHL1  H26A 3764   2.691   3.280   4.583  1.1888  1.4768  0.9176
   35CHL1  H26B 3765   2.552   3.293   4.696 -1.7360  1.0289  0.2504
   35CHL1  H26C 3766   2.527   3.324   4.526  2.1977  0.4135 -2.4618
   35CHL1   C27 3767   2.591   3.562   4.506  0.1007  1.0933  0.2668
   35CHL1  H27A 3768   2.626   3.667   4.514  1.1417  0.8057 -0.2900
   35CHL1  H27B 3769   2.622   3.525   4.406 -0.1944 -0.5992  0.7771
   35CHL1  H27C 3770   2.480   3.552   4.506  0.0907  0.6066  2.5361
   36CHL1    C3 3771   6.542   1.220   6.105 -0.8136  0.8023 -0.0691
   36CHL1    H3 3772   6.567   1.328   6.113  0.6313  0.5144 -0.4256
   36CHL1    O3 3773   6.508   1.167   6.229  1.1100 -0.1570 -0.9655
   36CHL1   H3' 3774   6.431   1.220   6.252  0.8897 -0.6330 -0.6030
   36CHL1    C4 3775   6.428   1.188   6.007 -0.1662 -0.8824 -0.0862
   36CHL1   H4A 3776   6.394   1.084   6.021  0.3434 -1.2903 -1.6816
   36CHL1   H4B 3777   6.342   1.249   6.042  0.1424 -0.5228  0.0552
   36CHL1    C5 3778   6.463   1.229   5.864 -1.0208  0.0486  0.0271
   36CHL1    C6 3779   6.388   1.316   5.794 -0.2954  0.4186  0.1500
   36CHL1    H6 3780   6.301   1.361   5.844  1.1909  1.5579  1.8273
   36CHL1    C7 3781   6.409   1.366   5.655  0.2835 -0.8385  0.4679
   36CHL1   H7A 3782   6.320   1.360   5.588  1.1145  1.8515 -1.0103
   36CHL1   H7B 3783   6.445   1.471   5.656 -1.4072 -0.1966 -1.2072
   36CHL1    C8 3784   6.513   1.273   5.580  0.0129  0.9470  0.3097
   36CHL1    H8 3785   6.459   1.178   5.563  1.8837 -0.1529  0.2290
   36CHL1   C14 3786   6.561   1.341   5.462  0.0516 -0.3907  0.8977
   36CHL1   H14 3787   6.605   1.438   5.494  1.0007 -0.6606  0.4426
   36CHL1   C15 3788   6.457   1.390   5.355 -0.8846  1.3370 -0.2416
   36CHL1  H15A 3789   6.381   1.309   5.352 -2.6563  2.7059  2.5422
   36CHL1  H15B 3790   6.415   1.489   5.384 -1.5466  0.6091  1.4068
   36CHL1   C16 3791   6.538   1.410   5.228 -0.0390 -0.4562  0.0165
   36CHL1  H16A 3792   6.502   1.360   5.136  0.4538 -0.6061 -0.1009
   36CHL1  H16B 3793   6.537   1.520   5.216  1.5536 -0.4207 -0.1030
   36CHL1   C17 3794   6.685   1.369   5.261 -0.2678 -0.4178 -0.2967
   36CHL1   H17 3795   6.744   1.452   5.306  2.7633 -2.7076  0.2486
   36CHL1   C13 3796   6.678   1.269   5.376  0.0361 -0.7192 -0.6873
   36CHL1   C18 3797   6.623   1.139   5.327  0.0637 -0.8631 -0.4121
   36CHL1  H18A 3798   6.702   1.074   5.285 -0.4743 -1.8200  0.0385
   36CHL1  H18B 3799   6.564   1.084   5.403 -0.1380  1.0331  0.8872
   36CHL1  H18C 3800   6.545   1.153   5.249 -0.5425  1.5474  0.5282
   36CHL1   C12 3801   6.799   1.256   5.473 -0.5226  0.0891  0.6948
   36CHL1  H12A 3802   6.885   1.205   5.426  1.3190  1.7120  2.1320
   36CHL1  H12B 3803   6.823   1.354   5.520  0.8928  0.2558 -0.3229
   36CHL1   C11 3804   6.750   1.176   5.596 -0.2915  0.2882  0.6467
   36CHL1  H11A 3805   6.717   1.073   5.567 -2.0565  1.0482 -0.2248
   36CHL1  H11B 3806   6.829   1.172   5.674  0.1611  1.9018  0.3030
   36CHL1    C9 3807   6.632   1.241   5.674  0.0645 -0.0429 -0.5212
   36CHL1    H9 3808   6.671   1.336   5.716  1.4995 -1.3357  1.2666
   36CHL1   C10 3809   6.586   1.166   5.811  0.0012 -0.7950  0.3407
   36CHL1   C19 3810   6.573   1.014   5.774  0.2645  0.0219  0.5290
   36CHL1  H19A 3811   6.504   0.994   5.689  0.8402 -2.6038  0.6211
   36CHL1  H19B 3812   6.671   0.967   5.752 -0.0145 -0.9267  1.2704
   36CHL1  H19C 3813   6.526   0.962   5.860  0.7007 -0.6951  0.3392
   36CHL1    C1 3814   6.702   1.186   5.917 -0.0319 -0.2267 -1.0680
   36CHL1   H1A 3815   6.790   1.126   5.885  1.0331  0.7022  0.0279
   36CHL1   H1B 3816   6.718   1.296   5.917 -0.7927 -0.0963  0.5053
   36CHL1    C2 3817   6.668   1.146   6.059  0.3210 -0.0040  0.4513
   36CHL1   H2A 3818   6.756   1.161   6.124  0.7526  0.0089 -0.1360
   36CHL1   H2B 3819   6.647   1.037   6.064  0.2363  0.0319  0.9808
   36CHL1   C20 3820   6.773   1.330   5.138  0.2577 -0.0231 -0.0543
   36CHL1   H20 3821   6.766   1.220   5.129  0.9249 -0.0301 -0.5736
   36CHL1   C21 3822   6.917   1.363   5.173  0.3265  0.1234 -0.1560
   36CHL1  H21A 3823   6.922   1.473   5.183 -0.3373  0.0222  1.5542
   36CHL1  H21B 3824   7.001   1.330   5.108  0.1322  0.6080 -0.6635
   36CHL1  H21C 3825   6.936   1.328   5.276 -1.5963 -0.2882  0.0938
   36CHL1   C22 3826   6.736   1.405   5.007 -0.8243 -0.0054  0.5861
   36CHL1  H22A 3827   6.684   1.502   5.023  0.0016  1.0131 -2.2787
   36CHL1  H22B 3828   6.832   1.428   4.957 -0.1651 -2.6069  0.5172
   36CHL1   C23 3829   6.656   1.323   4.906 -0.1136  0.5230 -0.8429
   36CHL1  H23A 3830   6.700   1.221   4.900 -1.5837 -0.0986 -1.7395
   36CHL1  H23B 3831   6.552   1.314   4.944  0.3906  0.3262  0.5282
   36CHL1   C24 3832   6.652   1.379   4.763  0.5799 -0.1124 -0.2783
   36CHL1  H24A 3833   6.756   1.379   4.723  1.4363 -2.3533  1.7005
   36CHL1  H24B 3834   6.599   1.300   4.705 -1.3773 -0.8187  2.2969
   36CHL1   C25 3835   6.602   1.521   4.756 -0.0632  0.1820 -0.3482
   36CHL1   H25 3836   6.676   1.576   4.818 -1.7658  1.0656  0.9938
   36CHL1   C26 3837   6.604   1.572   4.609  0.0752  0.2892  0.4239
   36CHL1  H26A 3838   6.584   1.681   4.614 -0.2419  0.3313 -1.1956
   36CHL1  H26B 3839   6.704   1.548   4.565 -1.0414 -0.4750 -1.9106
   36CHL1  H26C 3840   6.522   1.527   4.549 -0.5658 -1.2507  2.3706
   36CHL1   C27 3841   6.462   1.541   4.823 -0.0007 -0.6228 -0.2550
   36CHL1  H27A 3842   6.396   1.455   4.795 -0.2490 -0.0940 -1.3379
   36CHL1  H27B 3843   6.480   1.537   4.932  3.7655  2.1697 -0.5734
   36CHL1  H27C 3844   6.419   1.636   4.785  0.2306 -1.5814 -3.2507
   37CHL1    C3 3845   1.879   2.829   6.426  0.4242  0.3772 -0.4092
   37CHL1    H3 3846   1.784   2.886   6.430 -0.0388 -0.4342  1.3310
   37CHL1    O3 3847   1.909   2.823   6.565  0.3096  0.3723  0.0456
   37CHL1   H3' 3848   1.953   2.739   6.579 -0.5386 -0.5855 -2.4418
   37CHL1    C4 3849   1.872   2.684   6.384 -0.2053  0.1889  0.5659
   37CHL1   H4A 3850   1.969   2.636   6.407 -0.8230 -2.4061 -1.6808
   37CHL1   H4B 3851   1.792   2.630   6.439  0.8946 -1.1711  0.8728
   37CHL1    C5 3852   1.868   2.658   6.240  0.6476 -0.3697  0.0181
   37CHL1    C6 3853   1.765   2.589   6.190  0.5497  0.6095  0.4314
   37CHL1    H6 3854   1.687   2.541   6.252 -0.3759  1.7495  0.1924
   37CHL1    C7 3855   1.754   2.556   6.043  0.4034  0.1370 -0.3073
   37CHL1   H7A 3856   1.742   2.446   6.034  1.1666  0.0372 -0.1794
   37CHL1   H7B 3857   1.656   2.592   6.005 -0.2048 -1.0348  0.1046
   37CHL1    C8 3858   1.882   2.599   5.964  0.0717 -0.6877 -0.2902
   37CHL1    H8 3859   1.972   2.537   5.984  0.6956 -0.4180 -2.0674
   37CHL1   C14 3860   1.855   2.608   5.812  0.1989  0.1555 -0.1196
   37CHL1   H14 3861   1.789   2.697   5.796 -0.2291 -0.4978 -2.2677
   37CHL1   C15 3862   1.790   2.489   5.744  1.0354  0.2163  0.2890
   37CHL1  H15A 3863   1.830   2.403   5.803  1.5665  1.2107  1.4239
   37CHL1  H15B 3864   1.680   2.495   5.757  0.9586 -2.2736  1.2903
   37CHL1   C16 3865   1.827   2.507   5.600 -1.1375  0.2074  0.3328
   37CHL1  H16A 3866   1.885   2.417   5.570  0.8716  1.5560 -0.0278
   37CHL1  H16B 3867   1.739   2.516   5.532 -1.7007 -2.3674  0.5972
   37CHL1   C17 3868   1.912   2.638   5.586 -0.6629 -0.2145  0.6091
   37CHL1   H17 3869   1.842   2.722   5.575  1.5641  1.5772 -0.7260
   37CHL1   C13 3870   1.972   2.652   5.727  0.0451 -0.2934 -0.1483
   37CHL1   C18 3871   2.092   2.550   5.753  0.6035 -0.8331  0.2310
   37CHL1  H18A 3872   2.115   2.546   5.861 -0.9649 -0.8243  0.5767
   37CHL1  H18B 3873   2.050   2.455   5.714  0.9484 -0.3601 -1.4039
   37CHL1  H18C 3874   2.178   2.586   5.693  0.2530  0.3820  0.4320
   37CHL1   C12 3875   2.008   2.795   5.770 -0.0916 -0.6395 -0.2957
   37CHL1  H12A 3876   2.084   2.845   5.707 -1.0074 -0.2964 -1.1554
   37CHL1  H12B 3877   1.916   2.855   5.754  0.6003  0.5658  0.1655
   37CHL1   C11 3878   2.045   2.803   5.921  0.0414 -0.2490 -0.3455
   37CHL1  H11A 3879   2.143   2.752   5.934 -0.7941 -1.4284  1.8590
   37CHL1  H11B 3880   2.060   2.910   5.948 -2.7001 -0.2595  1.6651
   37CHL1    C9 3881   1.934   2.731   6.009 -0.8562  0.0890  0.0375
   37CHL1    H9 3882   1.847   2.801   6.013 -1.0931 -0.2658  1.5536
   37CHL1   C10 3883   1.979   2.733   6.158 -0.3576  0.7257 -0.3302
   37CHL1   C19 3884   2.108   2.653   6.192  0.0541  0.5030  0.2015
   37CHL1  H19A 3885   2.090   2.545   6.175 -0.3509  1.1382 -5.0260
   37CHL1  H19B 3886   2.194   2.702   6.142 -0.3499  4.0970  2.5924
   37CHL1  H19C 3887   2.142   2.665   6.297 -0.2599  3.0084  0.0744
   37CHL1    C1 3888   2.000   2.876   6.206 -0.2410 -0.7385 -0.1699
   37CHL1   H1A 3889   2.100   2.916   6.178  1.4947 -2.9383  2.3307
   37CHL1   H1B 3890   1.922   2.942   6.163 -0.0003 -1.1218 -1.2238
   37CHL1    C2 3891   1.993   2.900   6.358 -0.1612 -0.2291 -0.1948
   37CHL1   H2A 3892   1.975   3.007   6.380 -0.9619 -0.1087 -1.3382
   37CHL1   H2B 3893   2.088   2.877   6.412 -0.6037 -1.4573  0.0948
   37CHL1   C20 3894   2.004   2.632   5.462  0.9263  0.2504  0.3887
   37CHL1   H20 3895   2.078   2.553   5.486  0.3544 -1.1009 -1.9624
   37CHL1   C21 3896   2.054   2.769   5.445  0.1039  0.5887  0.4320
   37CHL1  H21A 3897   1.978   2.850   5.447 -2.3940 -1.5769 -0.5657
   37CHL1  H21B 3898   2.100   2.779   5.344  0.8348  0.2925  0.7263
   37CHL1  H21C 3899   2.131   2.791   5.522  1.6127 -3.8573  0.5088
   37CHL1   C22 3900   1.929   2.584   5.331  0.0223 -0.2709 -0.0976
   37CHL1  H22A 3901   1.884   2.484   5.348 -3.1037  0.8527 -1.1680
   37CHL1  H22B 3902   1.845   2.653   5.309 -0.2067 -0.5538 -0.1138
   37CHL1   C23 3903   2.020   2.573   5.210 -0.6845  0.8789 -0.0635
   37CHL1  H23A 3904   2.068   2.670   5.184 -0.9066  1.2429  0.8277
   37CHL1  H23B 3905   2.100   2.497   5.225 -0.2140  1.6891  1.9319
   37CHL1   C24 3906   1.946   2.503   5.093  0.1792 -0.2991 -0.1357
   37CHL1  H24A 3907   2.031   2.463   5.033  3.1278  0.4783  3.1830
   37CHL1  H24B 3908   1.887   2.412   5.117  0.1137 -0.8771 -2.2387
   37CHL1   C25 3909   1.859   2.581   4.998  0.0750 -0.2341  0.0961
   37CHL1   H25 3910   1.754   2.589   5.032  0.0524 -0.4360  0.0725
   37CHL1   C26 3911   1.900   2.726   4.983 -0.1264 -0.4332  0.9466
   37CHL1  H26A 3912   2.003   2.732   4.942  0.4443  0.8967  2.4673
   37CHL1  H26B 3913   1.839   2.757   4.896 -1.2083 -1.4439  1.3232
   37CHL1  H26C 3914   1.897   2.799   5.067  1.7273  0.5672  0.1964
   37CHL1   C27 3915   1.860   2.513   4.860 -0.1617 -0.4110 -0.0702
   37CHL1  H27A 3916   1.846   2.403   4.866  1.2934 -0.6427 -0.5057
   37CHL1  H27B 3917   1.786   2.565   4.795 -1.6831  0.0940  1.9546
   37CHL1  H27C 3918   1.956   2.531   4.808  0.9745 -1.3252  1.6348
   38CHL1    C3 3919   1.265   5.479   6.240  0.0238  0.3252  0.6028
   38CHL1    H3 3920   1.163   5.521   6.233  0.5422  1.3821 -1.2395
   38CHL1    O3 3921   1.310   5.469   6.377  0.4111 -0.3400  0.3081
   38CHL1   H3' 3922   1.384   5.408   6.372  0.1189 -0.7107  0.4850
   38CHL1    C4 3923   1.280   5.340   6.174 -0.4701 -0.7875 -0.2194
   38CHL1   H4A 3924   1.380   5.303   6.204  0.7618  0.4596 -2.5049
   38CHL1   H4B 3925   1.211   5.269   6.225 -1.7611  0.1522 -0.6114
   38CHL1    C5 3926   1.282   5.333   6.026  0.3112  1.0924 -0.4899
   38CHL1    C6 3927   1.198   5.247   5.957  0.1853 -0.5664  0.3816
   38CHL1    H6 3928   1.123   5.197   6.020  1.1848 -2.3078  0.2568
   38CHL1    C7 3929   1.194   5.230   5.806  0.2235  0.5123 -0.1822
   38CHL1   H7A 3930   1.193   5.122   5.780 -0.6084 -0.1060  2.1531
   38CHL1   H7B 3931   1.102   5.277   5.765 -0.4158 -0.9663 -0.5279
   38CHL1    C8 3932   1.306   5.305   5.733 -0.0864 -0.0209 -0.0552
   38CHL1    H8 3933   1.399   5.244   5.734  0.4227  0.7497  0.3114
   38CHL1   C14 3934   1.277   5.316   5.587 -0.3712  0.7151 -0.7593
   38CHL1   H14 3935   1.179   5.367   5.583 -0.4640  0.8398  1.5446
   38CHL1   C15 3936   1.251   5.185   5.498  0.6069 -0.0053 -0.5664
   38CHL1  H15A 3937   1.319   5.098   5.502 -0.9703 -1.2385  1.0569
   38CHL1  H15B 3938   1.151   5.143   5.522  1.1557 -0.6863  0.5913
   38CHL1   C16 3939   1.259   5.245   5.355  0.1087 -0.3067  0.6397
   38CHL1  H16A 3940   1.341   5.191   5.303 -0.6443  2.0784 -3.4098
   38CHL1  H16B 3941   1.161   5.236   5.303  0.1363 -0.0365  0.5423
   38CHL1   C17 3942   1.316   5.391   5.372 -0.3317 -0.0822  0.7240
   38CHL1   H17 3943   1.222   5.451   5.377  0.1809  0.9317 -1.0204
   38CHL1   C13 3944   1.375   5.401   5.511 -1.0202 -0.0784 -0.2559
   38CHL1   C18 3945   1.509   5.331   5.500  0.0493  0.7386  0.9611
   38CHL1  H18A 3946   1.559   5.305   5.595 -0.4180  0.7419  1.2103
   38CHL1  H18B 3947   1.507   5.242   5.433  0.8163  2.8209 -2.0646
   38CHL1  H18C 3948   1.581   5.390   5.438 -0.4989  0.2845 -0.1460
   38CHL1   C12 3949   1.392   5.539   5.573  0.2658  0.2248  0.0499
   38CHL1  H12A 3950   1.459   5.598   5.507 -2.1617 -0.7200 -3.5591
   38CHL1  H12B 3951   1.296   5.593   5.562 -0.3483 -0.7797  0.3554
   38CHL1   C11 3952   1.430   5.533   5.720 -0.1273 -0.2319  0.6636
   38CHL1  H11A 3953   1.529   5.483   5.730 -0.0570 -0.5138 -1.1503
   38CHL1  H11B 3954   1.441   5.633   5.766 -0.2288  1.0215 -1.8467
   38CHL1    C9 3955   1.333   5.442   5.799 -0.2331  0.6464  0.5205
   38CHL1    H9 3956   1.240   5.502   5.790  0.3035  1.2731 -1.4160
   38CHL1   C10 3957   1.367   5.432   5.949 -0.2061  0.8229 -0.6294
   38CHL1   C19 3958   1.513   5.370   5.951 -0.7034 -0.2484 -0.0696
   38CHL1  H19A 3959   1.589   5.443   5.918 -1.0026 -0.6856 -1.8423
   38CHL1  H19B 3960   1.545   5.341   6.053 -2.2243  1.1625  0.8579
   38CHL1  H19C 3961   1.514   5.271   5.901 -0.5770 -1.2100  1.7330
   38CHL1    C1 3962   1.352   5.566   6.023  0.3657  0.0985 -0.4638
   38CHL1   H1A 3963   1.415   5.647   5.981  3.8023 -0.6065  2.8357
   38CHL1   H1B 3964   1.254   5.613   5.997  1.0036  0.9222 -1.4428
   38CHL1    C2 3965   1.372   5.566   6.168  0.1543  0.3064 -0.1683
   38CHL1   H2A 3966   1.366   5.666   6.216 -1.5810  1.0203 -1.7534
   38CHL1   H2B 3967   1.474   5.524   6.178 -0.9401 -2.6691 -0.4728
   38CHL1   C20 3968   1.403   5.439   5.252  0.3721  0.4286  0.1118
   38CHL1   H20 3969   1.495   5.376   5.251 -0.0854 -0.2437 -0.9011
   38CHL1   C21 3970   1.458   5.581   5.247 -0.2340  0.2637 -0.7369
   38CHL1  H21A 3971   1.516   5.606   5.155 -1.4436  1.2346 -1.2614
   38CHL1  H21B 3972   1.523   5.601   5.335 -0.6149  0.5306 -0.5131
   38CHL1  H21C 3973   1.383   5.662   5.258  0.4458  0.6479  1.6944
   38CHL1   C22 3974   1.334   5.413   5.119 -0.2904  0.4805 -0.2459
   38CHL1  H22A 3975   1.398   5.456   5.039  0.4955 -0.2973 -0.0431
   38CHL1  H22B 3976   1.328   5.303   5.107 -0.4183  0.6093 -1.5851
   38CHL1   C23 3977   1.190   5.476   5.106 -0.2903 -0.2862  0.3306
   38CHL1  H23A 3978   1.115   5.396   5.118 -1.0496  0.1860 -1.0207
   38CHL1  H23B 3979   1.167   5.544   5.191  0.2736  0.3610 -0.0211
   38CHL1   C24 3980   1.176   5.557   4.976  0.1486  0.7157  0.8147
   38CHL1  H24A 3981   1.225   5.656   4.966 -1.4327  1.3928 -0.9678
   38CHL1  H24B 3982   1.223   5.508   4.889 -0.4197 -0.6888  1.2679
   38CHL1   C25 3983   1.028   5.583   4.947 -0.0532  0.7319 -0.0774
   38CHL1   H25 3984   0.975   5.595   5.044  0.1817 -0.0354  0.1548
   38CHL1   C26 3985   1.010   5.706   4.856 -0.7846  1.0894 -0.3419
   38CHL1  H26A 3986   1.064   5.794   4.898 -1.6844  1.9568 -0.9542
   38CHL1  H26B 3987   1.045   5.676   4.755 -0.6697  0.5289 -0.1346
   38CHL1  H26C 3988   0.902   5.730   4.839 -1.1426  0.1872  0.5736
   38CHL1   C27 3989   0.967   5.459   4.875 -0.1141 -0.0723 -0.0174
   38CHL1  H27A 3990   0.986   5.375   4.946  2.2857  1.6423  1.4982
   38CHL1  H27B 3991   0.861   5.482   4.851  1.0485  2.8834 -3.0848
   38CHL1  H27C 3992   1.017   5.439   4.778 -0.6236 -1.8700  0.0412
   39CHL1    C3 3993   3.556   5.145   6.308  0.7418 -0.6557  0.4090
   39CHL1    H3 3994   3.663   5.123   6.284  1.4508  3.5153 -1.0403
   39CHL1    O3 3995   3.541   5.181   6.442 -0.9002  0.2812  0.3960
   39CHL1   H3' 3996   3.609   5.248   6.439  0.8020 -1.4026 -1.6511
   39CHL1    C4 3997   3.523   5.264   6.220 -0.5642 -0.6671  0.1416
   39CHL1   H4A 3998   3.425   5.311   6.241 -0.3966 -0.2705  0.0334
   39CHL1   H4B 3999   3.588   5.348   6.252  0.5198 -1.8695  1.2426
   39CHL1    C5 4000   3.521   5.238   6.067  0.0635  0.2894  0.0407
   39CHL1    C6 4001   3.587   5.319   5.990  0.2345 -0.2759 -0.3927
   39CHL1    H6 4002   3.651   5.390   6.044  2.3653 -1.7761 -0.8107
   39CHL1    C7 4003   3.603   5.297   5.845 -0.2330 -0.5304  0.0339
   39CHL1   H7A 4004   3.589   5.401   5.809  2.9882 -0.0220 -0.1079
   39CHL1   H7B 4005   3.710   5.268   5.832  0.2246  0.9633  0.1776
   39CHL1    C8 4006   3.508   5.194   5.782  0.1299 -0.6011 -0.1363
   39CHL1    H8 4007   3.410   5.245   5.770  0.0700 -0.7524 -0.3021
   39CHL1   C14 4008   3.564   5.138   5.653  0.5242  0.3024  0.5661
   39CHL1   H14 4009   3.649   5.073   5.681 -0.2706 -1.2594 -0.4860
   39CHL1   C15 4010   3.613   5.242   5.552  0.6838  0.5870  0.9193
   39CHL1  H15A 4011   3.570   5.344   5.562  3.3659  2.0704 -1.3134
   39CHL1  H15B 4012   3.722   5.261   5.569  0.8797  0.4164 -0.1261
   39CHL1   C16 4013   3.594   5.179   5.416 -0.8383 -0.9226 -0.2926
   39CHL1  H16A 4014   3.532   5.237   5.345  1.5551  0.8769 -1.0461
   39CHL1  H16B 4015   3.690   5.161   5.362  0.0083 -0.0268  0.8413
   39CHL1   C17 4016   3.523   5.043   5.444  0.4585  0.4920 -0.2736
   39CHL1   H17 4017   3.591   4.956   5.458 -2.1117 -1.8694 -1.3098
   39CHL1   C13 4018   3.455   5.057   5.582  0.1527  0.0028  0.5383
   39CHL1   C18 4019   3.327   5.138   5.560 -0.6165 -0.1015  0.1721
   39CHL1  H18A 4020   3.279   5.159   5.658  0.5239 -0.5148  0.8394
   39CHL1  H18B 4021   3.349   5.236   5.511 -2.2467  0.1102 -0.2210
   39CHL1  H18C 4022   3.270   5.067   5.496  3.3346 -2.6442 -0.8656
   39CHL1   C12 4023   3.421   4.933   5.670  0.8796 -0.5396 -0.1086
   39CHL1  H12A 4024   3.327   4.887   5.634  0.8885 -0.4111 -0.3011
   39CHL1  H12B 4025   3.510   4.866   5.665  1.0395 -0.2724 -1.1830
   39CHL1   C11 4026   3.392   4.963   5.821 -0.2607 -0.2615 -0.5800
   39CHL1  H11A 4027   3.290   5.007   5.829 -0.6219 -1.4411  2.4190
   39CHL1  H11B 4028   3.408   4.872   5.882 -0.3831 -0.4465 -0.8187
   39CHL1    C9 4029   3.480   5.073   5.882 -0.0280 -1.4252 -0.1474
   39CHL1    H9 4030   3.577   5.020   5.893  0.7705  0.0149 -0.0092
   39CHL1   C10 4031   3.443   5.125   6.023  0.9953  0.2496 -0.8410
   39CHL1   C19 4032   3.296   5.180   6.028  0.1882  0.5700 -0.0703
   39CHL1  H19A 4033   3.260   5.218   6.126 -2.2839 -1.3919 -0.1124
   39CHL1  H19B 4034   3.279   5.253   5.946 -0.7792  0.0227 -0.3738
   39CHL1  H19C 4035   3.235   5.089   6.011  3.8592 -2.9286  3.3683
   39CHL1    C1 4036   3.440   5.001   6.121 -0.8000 -0.4066  0.1252
   39CHL1   H1A 4037   3.363   4.923   6.101  0.4443 -1.7675  0.4850
   39CHL1   H1B 4038   3.541   4.963   6.094 -0.9717  0.2220 -1.5580
   39CHL1    C2 4039   3.453   5.028   6.273 -0.0892  0.3594  0.3734
   39CHL1   H2A 4040   3.492   4.935   6.317 -0.4517  0.0812  0.1146
   39CHL1   H2B 4041   3.352   5.052   6.313 -0.1357  0.5646  0.1324
   39CHL1   C20 4042   3.446   4.986   5.326 -0.1303 -0.1105  0.0491
   39CHL1   H20 4043   3.350   5.040   5.309  0.3210  0.0546 -2.2083
   39CHL1   C21 4044   3.414   4.841   5.359  0.2521  0.4858 -0.2637
   39CHL1  H21A 4045   3.356   4.781   5.286 -0.0266 -1.4274  1.4509
   39CHL1  H21B 4046   3.342   4.832   5.442  1.0596  1.5001  0.5749
   39CHL1  H21C 4047   3.502   4.777   5.383  0.2926  0.4395 -0.5232
   39CHL1   C22 4048   3.527   4.981   5.193 -0.7792 -0.0814  0.5665
   39CHL1  H22A 4049   3.631   5.015   5.211 -0.2937 -1.7514  1.0405
   39CHL1  H22B 4050   3.526   4.877   5.156 -1.9296  0.0549  0.1592
   39CHL1   C23 4051   3.475   5.058   5.075 -0.3661 -0.1914  0.2783
   39CHL1  H23A 4052   3.368   5.027   5.067 -0.5157  0.7166 -1.8448
   39CHL1  H23B 4053   3.477   5.168   5.094  0.7802 -0.7527  4.1197
   39CHL1   C24 4054   3.550   5.025   4.941  0.0771 -0.6785 -0.3162
   39CHL1  H24A 4055   3.656   5.057   4.952  0.1345 -0.8070 -0.4953
   39CHL1  H24B 4056   3.555   4.916   4.921  1.8553 -0.1488 -3.4471
   39CHL1   C25 4057   3.473   5.093   4.828 -0.3568  0.1393  0.1000
   39CHL1   H25 4058   3.364   5.076   4.835 -0.4355  1.1113  1.5267
   39CHL1   C26 4059   3.486   5.252   4.822 -0.5194  0.0540  0.2589
   39CHL1  H26A 4060   3.450   5.293   4.919 -1.2128  0.8975 -0.3349
   39CHL1  H26B 4061   3.594   5.271   4.805 -0.1675 -1.1790  0.9878
   39CHL1  H26C 4062   3.436   5.283   4.727  0.7284 -2.0738 -1.1832
   39CHL1   C27 4063   3.513   5.028   4.693  0.4991 -0.7016  0.3950
   39CHL1  H27A 4064   3.466   5.084   4.610 -0.6472 -0.5286  1.1289
   39CHL1  H27B 4065   3.623   5.042   4.690  0.4005  0.2086  0.6316
   39CHL1  H27C 4066   3.481   4.922   4.684 -1.1915 -0.0250 -5.1626
   40CHL1    C3 4067   3.517   2.718   5.956  0.5057  0.6502 -0.1418
   40CHL1    H3 4068   3.615   2.672   5.933 -1.5503 -3.5528 -1.4208
   40CHL1    O3 4069   3.491   2.718   6.100 -0.2286  0.8140 -0.2535
   40CHL1   H3' 4070   3.396   2.726   6.102 -0.4449 -1.1394  2.4731
   40CHL1    C4 4071   3.513   2.865   5.912 -0.0169  0.5118 -0.3697
   40CHL1   H4A 4072   3.425   2.911   5.961  1.6868  1.2036  2.2837
   40CHL1   H4B 4073   3.609   2.912   5.945  1.7668 -3.5447  0.8134
   40CHL1    C5 4074   3.521   2.872   5.759  0.3466 -0.3395 -0.4259
   40CHL1    C6 4075   3.619   2.947   5.701 -0.2754 -0.3285  0.1363
   40CHL1    H6 4076   3.677   3.019   5.759 -2.3365  0.1932  1.6638
   40CHL1    C7 4077   3.632   2.954   5.552 -0.1248 -0.4148  0.3037
   40CHL1   H7A 4078   3.658   3.059   5.526 -1.8768 -0.0375 -0.0379
   40CHL1   H7B 4079   3.719   2.888   5.532 -1.1782 -1.2136 -1.9822
   40CHL1    C8 4080   3.514   2.902   5.472 -0.7059 -0.0798  0.6399
   40CHL1    H8 4081   3.434   2.980   5.470 -0.8876 -0.2634  0.6481
   40CHL1   C14 4082   3.548   2.890   5.328 -0.6884  0.1038  0.0502
   40CHL1   H14 4083   3.629   2.813   5.326  0.9888  1.7576  0.9621
   40CHL1   C15 4084   3.612   3.010   5.247 -0.0895  0.1558 -0.4046
   40CHL1  H15A 4085   3.555   3.102   5.273 -2.4331 -1.6879  1.4243
   40CHL1  H15B 4086   3.718   3.033   5.273 -0.5351  0.0014  1.7405
   40CHL1   C16 4087   3.599   2.965   5.105 -0.2145 -0.1191  0.3743
   40CHL1  H16A 4088   3.545   3.044   5.049  1.5002 -0.4995 -1.9573
   40CHL1  H16B 4089   3.699   2.956   5.058  0.3121 -0.7918  1.5736
   40CHL1   C17 4090   3.516   2.833   5.100  0.1168  0.0397  0.1767
   40CHL1   H17 4091   3.598   2.758   5.097 -0.3635 -0.4909 -1.8942
   40CHL1   C13 4092   3.440   2.827   5.233 -0.4186  0.0959 -0.4922
   40CHL1   C18 4093   3.317   2.922   5.231 -0.1679 -0.1370  0.0607
   40CHL1  H18A 4094   3.244   2.889   5.154 -1.1424 -0.8878  1.2679
   40CHL1  H18B 4095   3.255   2.929   5.323  1.6997 -2.3195  1.6071
   40CHL1  H18C 4096   3.351   3.025   5.209  1.4855 -0.9954 -1.8218
   40CHL1   C12 4097   3.394   2.693   5.293 -0.3355 -0.3484 -0.1185
   40CHL1  H12A 4098   3.319   2.654   5.221 -0.1079  0.4709 -0.8199
   40CHL1  H12B 4099   3.475   2.616   5.296 -2.3188 -2.5601 -0.1123
   40CHL1   C11 4100   3.351   2.698   5.437 -0.0487  0.2696 -0.2341
   40CHL1  H11A 4101   3.250   2.745   5.442 -0.5775 -0.8327 -0.2556
   40CHL1  H11B 4102   3.326   2.593   5.465 -1.8681  0.5805 -0.5612
   40CHL1    C9 4103   3.461   2.769   5.527 -0.0494 -0.1003 -0.7765
   40CHL1    H9 4104   3.547   2.699   5.521 -1.4000 -1.8324 -0.7519
   40CHL1   C10 4105   3.426   2.786   5.675  0.4010  0.2251  0.0754
   40CHL1   C19 4106   3.282   2.833   5.693  0.0138  0.5754 -0.2449
   40CHL1  H19A 4107   3.257   2.833   5.801  3.1705  2.3134  0.6343
   40CHL1  H19B 4108   3.268   2.934   5.649  1.3929  0.1694 -1.7269
   40CHL1  H19C 4109   3.212   2.773   5.632 -1.2473  0.0567  1.6527
   40CHL1    C1 4110   3.426   2.637   5.734 -0.3571 -1.0444  0.1000
   40CHL1   H1A 4111   3.359   2.569   5.679 -1.2499 -1.9087  2.1384
   40CHL1   H1B 4112   3.526   2.588   5.731 -0.2803 -1.0650  1.7450
   40CHL1    C2 4113   3.410   2.625   5.887  1.0434 -0.0077  0.5836
   40CHL1   H2A 4114   3.431   2.523   5.926  0.1717  0.0245  1.1840
   40CHL1   H2B 4115   3.315   2.666   5.927  1.5798  0.7767  1.0911
   40CHL1   C20 4116   3.438   2.808   4.965  0.0540 -0.7744 -0.5766
   40CHL1   H20 4117   3.359   2.886   4.970 -1.3011 -2.1687  1.1107
   40CHL1   C21 4118   3.393   2.657   4.971 -0.4821 -0.0873  1.1863
   40CHL1  H21A 4119   3.303   2.645   5.033  0.5211  0.2945  2.7809
   40CHL1  H21B 4120   3.477   2.601   5.018  0.3746  0.0633 -0.1083
   40CHL1  H21C 4121   3.371   2.607   4.874 -1.0897  2.3636 -0.0289
   40CHL1   C22 4122   3.536   2.828   4.843  0.2097 -0.4131  0.5912
   40CHL1  H22A 4123   3.576   2.932   4.849  0.5253 -0.4090 -1.0314
   40CHL1  H22B 4124   3.624   2.762   4.850  0.6081  0.1870  1.3789
   40CHL1   C23 4125   3.475   2.819   4.706 -0.7456 -0.0132 -0.0529
   40CHL1  H23A 4126   3.462   2.710   4.687 -1.5771  0.5734 -3.5491
   40CHL1  H23B 4127   3.373   2.862   4.707 -1.1023 -0.8199 -0.7329
   40CHL1   C24 4128   3.554   2.875   4.585 -0.0198 -0.0090 -0.2668
   40CHL1  H24A 4129   3.569   2.985   4.597  1.4052 -0.3902  2.4495
   40CHL1  H24B 4130   3.651   2.830   4.616 -1.5886 -1.3125  3.2981
   40CHL1   C25 4131   3.490   2.846   4.447 -0.3539  0.0946 -0.1568
   40CHL1   H25 4132   3.383   2.874   4.453 -0.0656  0.9968  1.0395
   40CHL1   C26 4133   3.557   2.926   4.332 -0.2115 -0.7951  0.5234
   40CHL1  H26A 4134   3.578   3.029   4.367 -0.8493 -0.1268 -0.9993
   40CHL1  H26B 4135   3.652   2.880   4.298  1.5567  1.6186  1.8563
   40CHL1  H26C 4136   3.480   2.932   4.252 -2.7827  0.2376  2.8871
   40CHL1   C27 4137   3.473   2.689   4.404  0.6600  0.1815  0.4552
   40CHL1  H27A 4138   3.422   2.631   4.484 -0.8270 -0.7448 -1.1017
   40CHL1  H27B 4139   3.417   2.672   4.310 -1.0477  1.8394  1.1023
   40CHL1  H27C 4140   3.577   2.652   4.390 -0.0485 -1.0585 -2.2286
   41CHL1    C3 4141   6.161   0.584   6.149 -0.4558  0.0675  0.6961
   41CHL1    H3 4142   6.263   0.553   6.118 -0.9197 -2.5703  1.5734
   41CHL1    O3 4143   6.167   0.566   6.288  0.4028 -0.1132 -0.3942
   41CHL1   H3' 4144   6.093   0.612   6.329  0.7522 -1.0219  1.3758
   41CHL1    C4 4145   6.137   0.727   6.118  0.2410 -0.5088  0.3029
   41CHL1   H4A 4146   6.041   0.753   6.169 -0.3742 -0.3481 -0.9019
   41CHL1   H4B 4147   6.195   0.802   6.177 -0.5028  0.6056 -0.3411
   41CHL1    C5 4148   6.118   0.746   5.966 -0.3101  0.6449 -0.2425
   41CHL1    C6 4149   6.185   0.838   5.893  0.1981  0.1719 -1.1880
   41CHL1    H6 4150   6.257   0.905   5.942 -0.0429 -0.5475  0.2263
   41CHL1    C7 4151   6.190   0.857   5.743 -0.0766  0.2373 -0.1543
   41CHL1   H7A 4152   6.193   0.965   5.719  0.6310  0.1264 -0.5892
   41CHL1   H7B 4153   6.278   0.797   5.712 -0.0281 -1.0682  2.3086
   41CHL1    C8 4154   6.069   0.799   5.677 -0.2942  0.3135 -0.2485
   41CHL1    H8 4155   5.983   0.864   5.705  0.6549  1.0738  1.0064
   41CHL1   C14 4156   6.097   0.796   5.529  0.5525  0.0762 -0.1707
   41CHL1   H14 4157   6.181   0.725   5.511  0.1193  0.1910 -3.2280
   41CHL1   C15 4158   6.135   0.916   5.449 -0.5760  0.5178 -0.1733
   41CHL1  H15A 4159   6.069   1.003   5.471 -2.0349 -0.9146  1.4471
   41CHL1  H15B 4160   6.238   0.956   5.456 -1.0045  1.9954 -1.6570
   41CHL1   C16 4161   6.122   0.880   5.307  0.1290  0.4895 -0.1626
   41CHL1  H16A 4162   6.053   0.952   5.258 -1.9698 -0.3129  1.4564
   41CHL1  H16B 4163   6.214   0.886   5.246  0.0600 -2.2416 -0.6599
   41CHL1   C17 4164   6.051   0.734   5.306 -0.1007  0.0552  0.3762
   41CHL1   H17 4165   6.128   0.655   5.316 -0.1553  0.2950  4.3199
   41CHL1   C13 4166   5.987   0.725   5.450  0.0335  0.0899  0.9119
   41CHL1   C18 4167   5.860   0.824   5.450  0.5938 -0.6680  0.3005
   41CHL1  H18A 4168   5.797   0.806   5.540  0.7375  1.0900  0.7800
   41CHL1  H18B 4169   5.892   0.930   5.446 -0.7821 -0.2753 -1.8533
   41CHL1  H18C 4170   5.810   0.795   5.355  2.3456 -0.9062 -0.6025
   41CHL1   C12 4171   5.958   0.589   5.502 -0.7671  0.1720 -0.9671
   41CHL1  H12A 4172   5.877   0.544   5.441 -1.2065  1.0277 -1.0368
   41CHL1  H12B 4173   6.048   0.527   5.484 -1.2629  0.3924 -5.4740
   41CHL1   C11 4174   5.927   0.594   5.655 -0.0301 -0.5423 -0.4148
   41CHL1  H11A 4175   5.841   0.662   5.673 -0.0971  0.2086 -3.0948
   41CHL1  H11B 4176   5.897   0.494   5.692 -0.3275  0.0137  0.9066
   41CHL1    C9 4177   6.036   0.660   5.735  0.3194  0.5464 -0.2010
   41CHL1    H9 4178   6.130   0.605   5.713 -0.1912  0.0585 -1.2450
   41CHL1   C10 4179   6.022   0.646   5.889 -0.4354 -0.7062 -0.3755
   41CHL1   C19 4180   5.883   0.695   5.921  0.2561  0.0048  0.5366
   41CHL1  H19A 4181   5.866   0.787   5.861 -0.5777  1.1037  2.3655
   41CHL1  H19B 4182   5.817   0.613   5.887 -2.0860  1.9787  0.0248
   41CHL1  H19C 4183   5.872   0.707   6.031  0.5541 -0.3553  0.6072
   41CHL1    C1 4184   6.042   0.507   5.941 -0.3940 -0.0793 -0.1073
   41CHL1   H1A 4185   5.962   0.432   5.923 -0.1443 -0.5943  0.8264
   41CHL1   H1B 4186   6.140   0.472   5.903  0.6576  1.2287  1.2873
   41CHL1    C2 4187   6.052   0.498   6.092  0.4300  0.1057 -0.3788
   41CHL1   H2A 4188   6.060   0.388   6.108 -0.0465  0.0197 -0.7072
   41CHL1   H2B 4189   5.956   0.524   6.142  2.0085 -0.0258  2.9574
   41CHL1   C20 4190   5.970   0.721   5.174 -0.9792  0.4680  0.1347
   41CHL1   H20 4191   5.894   0.801   5.162 -0.4509  0.8086 -1.1775
   41CHL1   C21 4192   5.892   0.587   5.160  0.1201  0.2830 -0.0046
   41CHL1  H21A 4193   5.956   0.500   5.135 -1.3228 -0.2179 -2.2765
   41CHL1  H21B 4194   5.825   0.603   5.072  1.0978 -0.8854 -1.0021
   41CHL1  H21C 4195   5.832   0.578   5.253 -0.2815  1.3000 -0.1438
   41CHL1   C22 4196   6.059   0.730   5.042  0.2035  0.6137  0.5427
   41CHL1  H22A 4197   5.983   0.713   4.962  0.0973 -0.9113  0.9481
   41CHL1  H22B 4198   6.081   0.836   5.016  0.1152  0.0444 -2.1744
   41CHL1   C23 4199   6.182   0.637   5.029 -0.3491  0.2681 -0.1343
   41CHL1  H23A 4200   6.258   0.680   5.097 -0.2717 -1.1181  0.6884
   41CHL1  H23B 4201   6.159   0.537   5.071  0.8551  0.0760  0.0902
   41CHL1   C24 4202   6.240   0.607   4.894 -0.0371 -0.0815  0.1305
   41CHL1  H24A 4203   6.238   0.696   4.828 -0.4183 -1.5930 -2.0024
   41CHL1  H24B 4204   6.344   0.567   4.896  0.1582  0.3010 -1.5726
   41CHL1   C25 4205   6.152   0.506   4.825  0.5562 -0.2308  0.3273
   41CHL1   H25 4206   6.049   0.516   4.864  1.4621 -1.0104  3.2174
   41CHL1   C26 4207   6.155   0.532   4.669 -0.4630 -0.0265 -0.8410
   41CHL1  H26A 4208   6.086   0.463   4.616 -1.8782  0.5798  0.1345
   41CHL1  H26B 4209   6.139   0.642   4.657  1.7822  0.7630  2.0774
   41CHL1  H26C 4210   6.256   0.505   4.632  0.9161  0.9066  1.9934
   41CHL1   C27 4211   6.187   0.364   4.866  0.4549  0.4489 -0.0883
   41CHL1  H27A 4212   6.199   0.351   4.976  3.0287  1.5025 -0.1888
   41CHL1  H27B 4213   6.099   0.301   4.843  0.8559 -0.0511 -0.2788
   41CHL1  H27C 4214   6.278   0.328   4.813 -0.2592  0.0595 -1.0653
   42CHL1    C3 4215   6.424   3.501   6.067 -0.5714  0.7843  0.3810
   42CHL1    H3 4216   6.319   3.519   6.095 -1.5343 -1.2500 -1.5818
   42CHL1    O3 4217   6.508   3.524   6.175 -0.4177  0.2896 -0.3883
   42CHL1   H3' 4218   6.595   3.512   6.136 -0.6247 -1.7566 -0.3424
   42CHL1    C4 4219   6.453   3.358   6.011 -0.0728  0.5522  0.0327
   42CHL1   H4A 4220   6.563   3.347   6.006 -0.1803 -0.0657 -1.7755
   42CHL1   H4B 4221   6.430   3.290   6.096  1.4976  1.2396  1.0651
   42CHL1    C5 4222   6.387   3.327   5.882 -0.9419  0.2124  0.5109
   42CHL1    C6 4223   6.308   3.221   5.867  0.0470  0.5898 -0.2573
   42CHL1    H6 4224   6.289   3.171   5.963 -0.1574  0.7559 -0.2104
   42CHL1    C7 4225   6.249   3.185   5.731  0.6382 -0.3165 -0.8984
   42CHL1   H7A 4226   6.253   3.076   5.712  1.5738 -0.2317 -1.2174
   42CHL1   H7B 4227   6.151   3.238   5.738  0.8910  0.6935 -3.7254
   42CHL1    C8 4228   6.314   3.259   5.608  0.3329 -0.1093  0.4743
   42CHL1    H8 4229   6.417   3.220   5.593 -0.2864 -1.9976  0.8507
   42CHL1   C14 4230   6.230   3.250   5.483  0.0443  0.5482  0.0270
   42CHL1   H14 4231   6.134   3.297   5.512 -0.8341 -0.7852 -0.6378
   42CHL1   C15 4232   6.181   3.111   5.434  0.4532 -0.1562 -0.1003
   42CHL1  H15A 4233   6.269   3.044   5.436  0.5668  0.0108  0.5020
   42CHL1  H15B 4234   6.094   3.081   5.496  0.2592 -1.1864 -0.8420
   42CHL1   C16 4235   6.135   3.138   5.292  0.2451  0.3913  0.0540
   42CHL1  H16A 4236   6.160   3.055   5.222  1.1870 -0.6643  1.5771
   42CHL1  H16B 4237   6.024   3.141   5.294  0.2138 -0.5804  0.4903
   42CHL1   C17 4238   6.188   3.281   5.253  0.6912 -0.1959 -0.1846
   42CHL1   H17 4239   6.097   3.344   5.254 -0.5858 -1.9344 -1.3843
   42CHL1   C13 4240   6.285   3.318   5.363 -0.1891  0.4829 -0.4079
   42CHL1   C18 4241   6.425   3.266   5.323  0.0399 -0.3589 -0.0584
   42CHL1  H18A 4242   6.487   3.305   5.407  1.0394 -0.9493 -0.5032
   42CHL1  H18B 4243   6.428   3.158   5.298 -0.8891 -0.5505  0.6034
   42CHL1  H18C 4244   6.462   3.330   5.239  1.2754 -1.5123 -0.4357
   42CHL1   C12 4245   6.279   3.464   5.392 -0.0234 -0.2062 -0.0799
   42CHL1  H12A 4246   6.334   3.528   5.318  0.5093  0.2860  0.7206
   42CHL1  H12B 4247   6.181   3.513   5.408 -0.8638 -1.6897 -0.5810
   42CHL1   C11 4248   6.355   3.513   5.521 -0.1242 -0.4259  0.0882
   42CHL1  H11A 4249   6.461   3.501   5.492 -0.1808  2.0758 -1.3893
   42CHL1  H11B 4250   6.339   3.619   5.551 -3.1682 -0.7932  0.1347
   42CHL1    C9 4251   6.326   3.415   5.647  0.4213  0.7967 -0.0416
   42CHL1    H9 4252   6.222   3.445   5.669 -0.4076 -1.6377 -0.2844
   42CHL1   C10 4253   6.414   3.439   5.773 -0.0396  0.6707 -0.2491
   42CHL1   C19 4254   6.565   3.419   5.737 -0.0240 -0.5289  0.1787
   42CHL1  H19A 4255   6.631   3.441   5.824  0.8196 -2.5717  0.1174
   42CHL1  H19B 4256   6.583   3.319   5.690  0.0939 -0.9763  1.1472
   42CHL1  H19C 4257   6.600   3.486   5.656  0.4565 -0.7351  0.2096
   42CHL1    C1 4258   6.384   3.580   5.833 -0.1574 -0.3641  0.3336
   42CHL1   H1A 4259   6.399   3.663   5.761  0.8589  0.4900  1.4991
   42CHL1   H1B 4260   6.275   3.583   5.853 -0.9049  0.7901 -3.1556
   42CHL1    C2 4261   6.471   3.605   5.956  0.6624 -0.1687  0.2868
   42CHL1   H2A 4262   6.450   3.712   5.981 -0.7839 -0.8455  2.2358
   42CHL1   H2B 4263   6.579   3.615   5.933  0.3492  3.9314 -0.0965
   42CHL1   C20 4264   6.240   3.289   5.105 -0.2401 -0.8419  0.2489
   42CHL1   H20 4265   6.329   3.227   5.082 -0.0874 -0.2853 -0.7170
   42CHL1   C21 4266   6.260   3.442   5.084 -0.2950  0.1564 -0.4046
   42CHL1  H21A 4267   6.246   3.485   4.982 -3.0947  1.5868  0.4880
   42CHL1  H21B 4268   6.362   3.471   5.118 -1.4782  1.4281  2.3396
   42CHL1  H21C 4269   6.179   3.493   5.140 -1.3652 -0.7525 -1.1040
   42CHL1   C22 4270   6.141   3.230   5.004  0.4893 -0.5556  0.0287
   42CHL1  H22A 4271   6.102   3.127   5.021 -2.6586  0.2228 -1.5583
   42CHL1  H22B 4272   6.058   3.302   4.985 -1.2098 -2.3938  0.1491
   42CHL1   C23 4273   6.210   3.219   4.869 -0.7452 -1.0019 -0.4986
   42CHL1  H23A 4274   6.245   3.323   4.852  0.0118 -1.1342  0.1903
   42CHL1  H23B 4275   6.286   3.139   4.863 -1.2292 -1.4339 -1.0693
   42CHL1   C24 4276   6.100   3.179   4.768  0.3880  0.2848  0.4518
   42CHL1  H24A 4277   6.058   3.079   4.792  0.7805 -0.5461 -1.9791
   42CHL1  H24B 4278   6.015   3.248   4.782  0.9812  1.2435 -0.4377
   42CHL1   C25 4279   6.144   3.171   4.620  0.3504 -0.2359 -0.1065
   42CHL1   H25 4280   6.218   3.089   4.615  0.2835 -0.3572  0.6955
   42CHL1   C26 4281   6.026   3.115   4.526 -0.1698  0.0045 -0.1178
   42CHL1  H26A 4282   5.942   3.182   4.555  0.5795 -0.0479  2.4603
   42CHL1  H26B 4283   6.052   3.143   4.422  1.4997  2.2533  0.8332
   42CHL1  H26C 4284   6.010   3.007   4.543 -0.0880  0.1912  1.2914
   42CHL1   C27 4285   6.198   3.298   4.574 -0.5750  0.0510 -0.0947
   42CHL1  H27A 4286   6.129   3.385   4.576  0.0989  0.6710 -1.9255
   42CHL1  H27B 4287   6.283   3.330   4.638 -0.4585 -0.4183 -0.0150
   42CHL1  H27C 4288   6.239   3.295   4.471 -0.9376  2.8597 -0.4081
   43CHL1    C3 4289   0.845   4.699   6.069 -0.2067  0.0272  0.5890
   43CHL1    H3 4290   0.941   4.642   6.068  1.0742  2.0738  1.1945
   43CHL1    O3 4291   0.826   4.736   6.205  0.0257  0.1258  0.3743
   43CHL1   H3' 4292   0.752   4.797   6.197  1.7166  2.0814 -1.6642
   43CHL1    C4 4293   0.868   4.822   5.987 -0.2306  0.2272  0.5841
   43CHL1   H4A 4294   0.781   4.889   6.002 -0.0373  0.7894 -0.7150
   43CHL1   H4B 4295   0.958   4.879   6.018  0.6520 -1.2406  0.8316
   43CHL1    C5 4296   0.885   4.786   5.841  0.0227  0.1344  0.2297
   43CHL1    C6 4297   1.002   4.816   5.770 -0.3371 -0.2720  0.0410
   43CHL1    H6 4298   1.088   4.865   5.817 -0.0222 -0.5629 -0.2334
   43CHL1    C7 4299   1.008   4.793   5.623 -0.4150  0.3555  0.3939
   43CHL1   H7A 4300   1.043   4.880   5.562  1.1578 -0.0867  0.6084
   43CHL1   H7B 4301   1.074   4.704   5.613  1.1307  1.3962  0.9812
   43CHL1    C8 4302   0.874   4.756   5.556  0.0331  0.2957  0.3629
   43CHL1    H8 4303   0.807   4.843   5.543 -0.5463 -0.3808 -1.6279
   43CHL1   C14 4304   0.896   4.697   5.417 -0.5451 -0.1590  0.0690
   43CHL1   H14 4305   0.964   4.610   5.434  1.5921  1.6528  1.4389
   43CHL1   C15 4306   0.969   4.792   5.328  0.0895  0.8937  0.5018
   43CHL1  H15A 4307   0.945   4.898   5.349  0.6825  1.3278 -0.9083
   43CHL1  H15B 4308   1.079   4.794   5.343  0.0491  0.2818  0.9161
   43CHL1   C16 4309   0.937   4.748   5.187  0.2152 -0.2715  0.0784
   43CHL1  H16A 4310   0.895   4.842   5.146  0.8154  0.0558  0.2066
   43CHL1  H16B 4311   1.031   4.720   5.134  1.0820 -1.5927  2.1872
   43CHL1   C17 4312   0.834   4.630   5.202  0.4786 -0.6405  0.6354
   43CHL1   H17 4313   0.902   4.543   5.218  0.5742 -0.4842  1.0812
   43CHL1   C13 4314   0.771   4.644   5.341 -0.1435  0.5315  0.5114
   43CHL1   C18 4315   0.654   4.747   5.323 -1.1348  0.0908 -0.1456
   43CHL1  H18A 4316   0.572   4.719   5.254 -1.3449 -0.8699  0.4909
   43CHL1  H18B 4317   0.613   4.780   5.421  0.9366 -0.1813  0.8632
   43CHL1  H18C 4318   0.696   4.845   5.289 -0.3413  0.0283  0.6060
   43CHL1   C12 4319   0.728   4.521   5.420 -0.5368  0.6746  0.3531
   43CHL1  H12A 4320   0.639   4.473   5.373 -0.8070  1.9206 -0.4313
   43CHL1  H12B 4321   0.812   4.448   5.428  0.1405  1.6097  2.1375
   43CHL1   C11 4322   0.698   4.553   5.575  0.2067  0.0888 -0.4016
   43CHL1  H11A 4323   0.606   4.615   5.571 -0.5324 -0.9307  0.4184
   43CHL1  H11B 4324   0.682   4.454   5.622  0.6154 -0.9132 -2.2422
   43CHL1    C9 4325   0.806   4.648   5.642  0.0357  0.1803  0.3505
   43CHL1    H9 4326   0.888   4.575   5.661  0.6284  0.7539  0.0473
   43CHL1   C10 4327   0.771   4.711   5.776  0.8133 -0.7561  0.3496
   43CHL1   C19 4328   0.645   4.802   5.764 -0.3747 -0.0612  0.0718
   43CHL1  H19A 4329   0.560   4.755   5.711 -0.6154  0.0271  0.3783
   43CHL1  H19B 4330   0.602   4.823   5.865 -1.4250 -1.2513 -0.1098
   43CHL1  H19C 4331   0.669   4.895   5.709 -1.5701  1.1302  1.4611
   43CHL1    C1 4332   0.752   4.593   5.872  0.3711  0.1702  0.0713
   43CHL1   H1A 4333   0.669   4.530   5.833  1.1843 -0.8507 -0.0680
   43CHL1   H1B 4334   0.842   4.528   5.876 -0.5468 -1.0502  2.1440
   43CHL1    C2 4335   0.724   4.630   6.015 -0.1896 -0.0207 -0.4945
   43CHL1   H2A 4336   0.699   4.541   6.077  2.6201 -1.3838 -1.1419
   43CHL1   H2B 4337   0.643   4.704   6.030 -1.2013 -1.1611 -0.2634
   43CHL1   C20 4338   0.741   4.601   5.077  0.0422 -0.0617 -0.1440
   43CHL1   H20 4339   0.638   4.640   5.091 -0.2364  0.4171 -2.9403
   43CHL1   C21 4340   0.732   4.447   5.053  0.1916 -0.8690  0.5920
   43CHL1  H21A 4341   0.655   4.420   4.978  1.1396 -3.4521  0.4311
   43CHL1  H21B 4342   0.706   4.392   5.146  2.2566 -0.7110  1.3193
   43CHL1  H21C 4343   0.826   4.405   5.009 -0.8198 -1.4763 -1.0969
   43CHL1   C22 4344   0.771   4.667   4.939 -0.7873  0.8873  0.7673
   43CHL1  H22A 4345   0.797   4.773   4.956  0.3912  0.8381 -0.5565
   43CHL1  H22B 4346   0.860   4.622   4.892 -1.7460 -0.1641 -0.1048
   43CHL1   C23 4347   0.661   4.655   4.828  0.4452  0.5775  0.0828
   43CHL1  H23A 4348   0.600   4.566   4.855  0.3027  0.6317 -0.0635
   43CHL1  H23B 4349   0.594   4.743   4.834  2.3286  2.0881  0.1915
   43CHL1   C24 4350   0.725   4.641   4.684 -0.3001 -0.3892 -0.8793
   43CHL1  H24A 4351   0.801   4.719   4.663  1.3362 -1.8596 -0.5954
   43CHL1  H24B 4352   0.774   4.541   4.689  1.7288  0.5412 -1.2500
   43CHL1   C25 4353   0.623   4.640   4.569  0.0508 -0.3821 -0.3585
   43CHL1   H25 4354   0.566   4.736   4.573 -0.3594 -0.6711  1.4273
   43CHL1   C26 4355   0.695   4.629   4.436 -0.8958  0.4478  0.2468
   43CHL1  H26A 4356   0.782   4.699   4.433 -1.2720  0.9270  0.4600
   43CHL1  H26B 4357   0.727   4.523   4.427  0.9818  1.0074 -0.1190
   43CHL1  H26C 4358   0.625   4.655   4.354 -1.2733 -4.6569 -1.4122
   43CHL1   C27 4359   0.500   4.540   4.577 -0.0627 -0.2983  0.2933
   43CHL1  H27A 4360   0.423   4.552   4.498  0.6980  3.0733 -0.0890
   43CHL1  H27B 4361   0.531   4.435   4.563  0.3675 -0.0480 -0.6637
   43CHL1  H27C 4362   0.450   4.559   4.675  2.3101 -0.3927  1.6090
   44CHL1    C3 4363   6.334   6.903   6.188 -0.7159  0.0398 -0.6150
   44CHL1    H3 4364   6.408   6.829   6.151  1.6428  0.9440  1.9873
   44CHL1    O3 4365   6.364   6.928   6.326 -0.1902  0.3260 -0.7673
   44CHL1   H3' 4366   6.411   6.852   6.363  0.4409  1.1497  0.1946
   44CHL1    C4 4367   6.354   7.047   6.117  0.5371 -0.0483 -0.7294
   44CHL1   H4A 4368   6.300   7.125   6.175 -0.3172 -0.0344 -1.5259
   44CHL1   H4B 4369   6.463   7.066   6.127  0.3757  0.2726  0.6479
   44CHL1    C5 4370   6.307   7.060   5.975  0.5217  0.3742 -0.1155
   44CHL1    C6 4371   6.383   7.104   5.871  0.1711 -0.4315 -0.3334
   44CHL1    H6 4372   6.482   7.152   5.885  0.7161 -1.2875 -1.1279
   44CHL1    C7 4373   6.335   7.117   5.729  0.3372 -0.1802  0.6461
   44CHL1   H7A 4374   6.355   7.216   5.682 -1.1290 -0.4663 -0.6669
   44CHL1   H7B 4375   6.400   7.058   5.661  0.3933  0.5338  0.0657
   44CHL1    C8 4376   6.184   7.092   5.718 -0.9358  0.4473  0.0011
   44CHL1    H8 4377   6.136   7.183   5.760 -0.8878 -0.3574  1.9316
   44CHL1   C14 4378   6.155   7.084   5.573  0.1255  0.2936 -0.5827
   44CHL1   H14 4379   6.220   7.004   5.531  0.8536  2.1962 -3.3800
   44CHL1   C15 4380   6.192   7.205   5.487 -0.2343  0.2037  1.2288
   44CHL1  H15A 4381   6.174   7.301   5.540  0.9019  0.9532  0.3069
   44CHL1  H15B 4382   6.298   7.189   5.458 -0.2669  1.2886  0.4737
   44CHL1   C16 4383   6.106   7.184   5.360 -0.1550 -0.0586  0.0822
   44CHL1  H16A 4384   6.043   7.273   5.340  0.1889 -0.0126 -0.8597
   44CHL1  H16B 4385   6.181   7.171   5.279  0.7281 -2.4932  1.1859
   44CHL1   C17 4386   6.011   7.062   5.389 -0.5705  0.6980 -0.4310
   44CHL1   H17 4387   6.053   6.970   5.342 -2.6521 -0.0906 -0.8729
   44CHL1   C13 4388   6.011   7.051   5.545  0.3195  0.4293  0.0245
   44CHL1   C18 4389   5.910   7.159   5.593  0.9233 -0.0678  1.1854
   44CHL1  H18A 4390   5.936   7.259   5.553  0.1811 -0.0334  0.7716
   44CHL1  H18B 4391   5.807   7.151   5.553  1.7069  0.3132 -1.0712
   44CHL1  H18C 4392   5.921   7.160   5.704  0.9753 -1.0358  1.1939
   44CHL1   C12 4393   5.988   6.908   5.604  0.1046 -0.4078 -0.2508
   44CHL1  H12A 4394   5.890   6.860   5.580 -0.0716 -2.4462  3.6862
   44CHL1  H12B 4395   6.059   6.839   5.555  1.0673 -0.9838  1.8330
   44CHL1   C11 4396   6.000   6.907   5.759 -0.0025  0.3300  0.0782
   44CHL1  H11A 4397   5.906   6.954   5.793  0.2362 -0.2065  1.5535
   44CHL1  H11B 4398   5.995   6.800   5.789 -1.8822  0.5643  0.6849
   44CHL1    C9 4399   6.135   6.972   5.799 -0.2363  0.0883 -0.3193
   44CHL1    H9 4400   6.203   6.892   5.763  0.4996  0.0764  1.0602
   44CHL1   C10 4401   6.165   6.992   5.954  0.9588 -0.9400  0.0458
   44CHL1   C19 4402   6.062   7.099   6.010 -0.2528  0.4528  0.3626
   44CHL1  H19A 4403   6.092   7.193   5.959  0.1093  0.7779  1.1504
   44CHL1  H19B 4404   5.957   7.068   5.993  0.2587 -1.7701  0.9329
   44CHL1  H19C 4405   6.085   7.116   6.118 -1.3194  2.3348  0.3497
   44CHL1    C1 4406   6.157   6.856   6.017 -0.4152 -0.1319  0.7762
   44CHL1   H1A 4407   6.056   6.811   6.018 -0.8200  0.7447  0.5174
   44CHL1   H1B 4408   6.232   6.789   5.970  0.8492  1.6001  0.2024
   44CHL1    C2 4409   6.189   6.845   6.166 -0.2783  0.2334 -0.4542
   44CHL1   H2A 4410   6.196   6.742   6.207  2.1287 -0.0714 -1.4335
   44CHL1   H2B 4411   6.119   6.902   6.230  1.3653  0.8424  0.8950
   44CHL1   C20 4412   5.878   7.078   5.310  0.5600 -0.6464  0.7185
   44CHL1   H20 4413   5.829   7.175   5.335  1.6800  0.2203 -0.3513
   44CHL1   C21 4414   5.783   6.964   5.345 -0.1960 -0.1290  0.4333
   44CHL1  H21A 4415   5.686   6.985   5.295 -1.2959  0.1564  2.5770
   44CHL1  H21B 4416   5.763   6.956   5.454  0.3012  2.3689  0.7502
   44CHL1  H21C 4417   5.832   6.869   5.314  0.9315  0.9251 -1.1879
   44CHL1   C22 4418   5.898   7.092   5.154 -0.5790 -0.7701  0.2293
   44CHL1  H22A 4419   5.975   7.167   5.130 -1.8685  2.0352  3.9379
   44CHL1  H22B 4420   5.919   6.995   5.104  0.1410 -0.9632  0.9029
   44CHL1   C23 4421   5.765   7.129   5.084 -0.3212  0.0428  0.2744
   44CHL1  H23A 4422   5.687   7.053   5.103 -0.2533 -0.0611  0.1429
   44CHL1  H23B 4423   5.725   7.224   5.124 -2.2554  0.0714 -1.5914
   44CHL1   C24 4424   5.780   7.147   4.928 -0.0955  0.0595 -0.4712
   44CHL1  H24A 4425   5.862   7.085   4.886 -2.0215 -1.9535 -1.4719
   44CHL1  H24B 4426   5.690   7.099   4.885  0.3052  0.3102 -1.6403
   44CHL1   C25 4427   5.803   7.294   4.878 -0.4557  0.2535  0.3516
   44CHL1   H25 4428   5.884   7.335   4.942 -0.3793  1.2550 -0.3600
   44CHL1   C26 4429   5.843   7.299   4.727 -0.0208 -0.0617  0.5453
   44CHL1  H26A 4430   5.753   7.282   4.665 -0.0538 -0.9030  0.8151
   44CHL1  H26B 4431   5.896   7.392   4.698 -1.2209  0.0944 -1.2737
   44CHL1  H26C 4432   5.909   7.210   4.721  0.5842  0.3985  0.2807
   44CHL1   C27 4433   5.675   7.377   4.902  0.4782  0.7730 -0.3073
   44CHL1  H27A 4434   5.703   7.478   4.866  0.0255  0.4932 -1.4946
   44CHL1  H27B 4435   5.581   7.350   4.848 -1.5080  3.6190  1.4614
   44CHL1  H27C 4436   5.638   7.376   5.007 -1.4629  3.2250 -0.8601
   45CHL1    C3 4437   6.808   3.137   5.972 -0.3100  0.4996  0.7273
   45CHL1    H3 4438   6.815   3.233   5.917  1.4140  0.2276  0.4126
   45CHL1    O3 4439   6.765   3.177   6.102  0.4563  0.0542 -0.5519
   45CHL1   H3' 4440   6.688   3.125   6.126  1.0023  0.0658  1.3461
   45CHL1    C4 4441   6.715   3.032   5.915  0.9985 -0.1510  0.8842
   45CHL1   H4A 4442   6.711   2.935   5.968  0.6685 -0.4170  0.3859
   45CHL1   H4B 4443   6.611   3.072   5.915  0.9290 -0.3238  0.5307
   45CHL1    C5 4444   6.753   2.999   5.769  0.5927  0.0578  0.2930
   45CHL1    C6 4445   6.656   3.011   5.672  0.0183 -0.3203 -0.0483
   45CHL1    H6 4446   6.557   3.051   5.697 -0.3599  1.0258 -3.2667
   45CHL1    C7 4447   6.675   2.981   5.523 -0.3946 -0.0572 -0.5237
   45CHL1   H7A 4448   6.586   2.932   5.479  0.1189 -0.1375 -1.5131
   45CHL1   H7B 4449   6.694   3.077   5.469 -2.5006  0.6923 -0.0402
   45CHL1    C8 4450   6.804   2.903   5.499  0.6143  0.0284 -0.2676
   45CHL1    H8 4451   6.780   2.802   5.539 -1.3346  0.7664  0.5795
   45CHL1   C14 4452   6.843   2.892   5.351  0.5507  0.2035  0.4802
   45CHL1   H14 4453   6.848   2.999   5.319 -0.5802  0.2507  0.4222
   45CHL1   C15 4454   6.747   2.827   5.255  0.6041 -0.8234  0.5582
   45CHL1  H15A 4455   6.702   2.742   5.311 -0.2724 -1.2414 -0.7217
   45CHL1  H15B 4456   6.661   2.894   5.232  0.0503 -1.1285  1.6917
   45CHL1   C16 4457   6.827   2.789   5.137 -0.9494  0.6642  0.1838
   45CHL1  H16A 4458   6.815   2.679   5.128  3.1095 -0.4019  4.0272
   45CHL1  H16B 4459   6.808   2.846   5.044  0.1285 -0.4374 -0.7468
   45CHL1   C17 4460   6.977   2.814   5.166 -1.0356  0.6553  0.0702
   45CHL1   H17 4461   7.001   2.917   5.133  0.4479  0.1358 -0.5414
   45CHL1   C13 4462   6.978   2.825   5.317  0.7184  0.8867  0.1758
   45CHL1   C18 4463   6.978   2.680   5.377 -0.1677 -0.0441  1.1208
   45CHL1  H18A 4464   6.932   2.607   5.307 -0.2337  1.5109 -0.5464
   45CHL1  H18B 4465   7.087   2.659   5.380  0.3901  1.5196 -2.3916
   45CHL1  H18C 4466   6.935   2.670   5.479 -0.3956 -0.9798  0.9399
   45CHL1   C12 4467   7.088   2.908   5.375 -0.4698 -0.0514 -0.0780
   45CHL1  H12A 4468   7.186   2.858   5.366 -0.0036  0.6357  1.0126
   45CHL1  H12B 4469   7.098   3.010   5.332  1.3059 -0.2660 -0.2047
   45CHL1   C11 4470   7.063   2.915   5.533  0.2694  0.0091 -0.3544
   45CHL1  H11A 4471   7.063   2.812   5.577 -0.4202  0.0676 -0.2026
   45CHL1  H11B 4472   7.141   2.984   5.570  1.2135 -0.2188 -1.8431
   45CHL1    C9 4473   6.918   2.961   5.581 -0.4238  0.4707 -0.3648
   45CHL1    H9 4474   6.905   3.067   5.551 -0.0977  0.2398 -1.3674
   45CHL1   C10 4475   6.900   2.958   5.739  0.0130  0.5949  0.0141
   45CHL1   C19 4476   6.922   2.815   5.799  0.5162  0.2357 -0.4522
   45CHL1  H19A 4477   7.031   2.808   5.821  0.8938  2.5846 -1.3077
   45CHL1  H19B 4478   6.872   2.798   5.897  0.1009 -0.8739 -0.8434
   45CHL1  H19C 4479   6.898   2.736   5.724  0.0085  1.2944 -1.4347
   45CHL1    C1 4480   6.987   3.067   5.805 -0.8774  0.3589 -0.1355
   45CHL1   H1A 4481   7.089   3.023   5.798 -1.1570 -0.1886 -0.9375
   45CHL1   H1B 4482   6.970   3.152   5.736 -1.9797 -0.4014 -0.8375
   45CHL1    C2 4483   6.955   3.093   5.956 -0.7915 -0.4836  0.0823
   45CHL1   H2A 4484   7.025   3.168   5.998 -2.2516  0.0741  1.6388
   45CHL1   H2B 4485   6.966   2.997   6.012  0.5431 -0.4953 -0.1747
   45CHL1   C20 4486   7.088   2.738   5.091  1.1522 -0.3420 -0.0645
   45CHL1   H20 4487   7.104   2.638   5.135  2.1973  0.3925  1.2858
   45CHL1   C21 4488   7.227   2.816   5.093 -0.0932 -0.0603 -0.2195
   45CHL1  H21A 4489   7.269   2.797   5.194 -0.8763 -0.8381 -0.0348
   45CHL1  H21B 4490   7.213   2.926   5.090  0.0359 -0.0375 -0.0316
   45CHL1  H21C 4491   7.303   2.779   5.020 -0.6773  0.5679 -1.1747
   45CHL1   C22 4492   7.045   2.709   4.938 -0.2902 -0.2699 -0.8245
   45CHL1  H22A 4493   7.124   2.645   4.892  1.0229 -1.3370  2.5763
   45CHL1  H22B 4494   6.959   2.641   4.928 -0.4005  0.1056 -3.0416
   45CHL1   C23 4495   7.049   2.844   4.854  0.3771  0.1640 -0.1402
   45CHL1  H23A 4496   6.972   2.904   4.907  0.3310  0.2796 -0.3333
   45CHL1  H23B 4497   7.144   2.902   4.854 -0.3962  1.4916  0.8667
   45CHL1   C24 4498   7.001   2.836   4.710  1.1345 -0.5593  0.2708
   45CHL1  H24A 4499   6.902   2.792   4.684  0.9298 -0.4111  0.7950
   45CHL1  H24B 4500   6.990   2.943   4.684 -2.0424 -0.4777  1.4724
   45CHL1   C25 4501   7.103   2.767   4.598  0.9912  0.0637  0.0833
   45CHL1   H25 4502   7.108   2.660   4.626  0.6097 -0.2516 -1.0488
   45CHL1   C26 4503   7.044   2.779   4.456 -0.8886  0.1224 -0.5535
   45CHL1  H26A 4504   6.952   2.719   4.438 -0.5740 -1.0552  1.4176
   45CHL1  H26B 4505   7.013   2.884   4.435 -2.0320 -0.3511 -1.3382
   45CHL1  H26C 4506   7.128   2.751   4.390  1.2892  1.0177  1.6788
   45CHL1   C27 4507   7.236   2.833   4.602 -0.1733 -0.4554 -0.0381
   45CHL1  H27A 4508   7.235   2.938   4.568  0.1136 -1.0315 -1.9345
   45CHL1  H27B 4509   7.288   2.828   4.701 -0.8962 -1.1922  0.3203
   45CHL1  H27C 4510   7.304   2.777   4.534 -1.0382 -4.1467  1.8767
   46CHL1    C3 4511   2.259   0.005   6.656  0.8735 -0.1904  0.4225
   46CHL1    H3 4512   2.299  -0.099   6.653  0.3132 -0.4033  0.0128
   46CHL1    O3 4513   2.290   0.061   6.784  0.3150  0.7334  0.2945
   46CHL1   H3' 4514   2.377   0.101   6.785  0.9707 -0.6304  0.5389
   46CHL1    C4 4515   2.315   0.089   6.542  0.1294  0.3773 -0.3715
   46CHL1   H4A 4516   2.311   0.199   6.559 -1.6789  0.7649 -2.7945
   46CHL1   H4B 4517   2.423   0.066   6.547 -0.7272 -4.3311  2.3394
   46CHL1    C5 4518   2.275   0.066   6.399  0.0624  0.9180  0.0301
   46CHL1    C6 4519   2.358   0.031   6.296  0.3389 -0.1556  0.6342
   46CHL1    H6 4520   2.467   0.027   6.312  0.5354  3.7823  1.3431
   46CHL1    C7 4521   2.316  -0.001   6.154 -0.7985 -0.2598 -0.5529
   46CHL1   H7A 4522   2.379   0.054   6.081 -0.4038 -1.5739 -1.2310
   46CHL1   H7B 4523   2.324  -0.110   6.135 -0.8174 -0.8830  2.4521
   46CHL1    C8 4524   2.172   0.033   6.124 -0.4664  0.3311  0.4575
   46CHL1    H8 4525   2.152   0.142   6.116  0.6731  0.3919 -2.7085
   46CHL1   C14 4526   2.131  -0.041   6.001  0.3897 -0.0762  0.0359
   46CHL1   H14 4527   2.145  -0.149   6.024  0.1738 -0.2659 -0.6908
   46CHL1   C15 4528   2.221  -0.004   5.879  1.0210  0.0345  0.2409
   46CHL1  H15A 4529   2.234   0.106   5.872  0.9682 -0.0612 -2.4658
   46CHL1  H15B 4530   2.313  -0.065   5.875  1.9947  1.4730 -0.1255
   46CHL1   C16 4531   2.130  -0.054   5.761  0.0606 -0.1106  0.2566
   46CHL1  H16A 4532   2.116   0.037   5.700 -1.4061 -0.0718  0.6227
   46CHL1  H16B 4533   2.182  -0.138   5.709 -0.9543 -2.8424  3.3049
   46CHL1   C17 4534   2.000  -0.109   5.826 -0.1027 -0.0312 -0.4173
   46CHL1   H17 4535   2.010  -0.218   5.848  0.0191  0.4110  2.0000
   46CHL1   C13 4536   1.989  -0.029   5.959  0.3597 -0.2076 -0.1652
   46CHL1   C18 4537   1.943   0.117   5.938 -0.0943  0.2621 -0.6277
   46CHL1  H18A 4538   1.986   0.164   5.846 -1.2642  2.0560 -0.3031
   46CHL1  H18B 4539   1.832   0.114   5.928 -0.4302 -3.1217  2.3222
   46CHL1  H18C 4540   1.974   0.189   6.017 -1.1291 -0.0839  0.1139
   46CHL1   C12 4541   1.903  -0.082   6.073 -0.5951 -0.1169 -0.2584
   46CHL1  H12A 4542   1.799  -0.049   6.054 -0.6173  0.1089  0.2479
   46CHL1  H12B 4543   1.907  -0.192   6.067 -2.7651 -0.2822  0.6825
   46CHL1   C11 4544   1.948  -0.025   6.208  0.0577 -0.0431  0.0783
   46CHL1  H11A 4545   1.900   0.075   6.209 -1.5765 -0.7058 -2.6325
   46CHL1  H11B 4546   1.904  -0.094   6.283  0.2968 -0.5512 -0.2438
   46CHL1    C9 4547   2.094  -0.014   6.241 -0.2500 -0.3840  0.4227
   46CHL1    H9 4548   2.122  -0.121   6.255 -1.5778 -0.6964  0.9047
   46CHL1   C10 4549   2.122   0.050   6.372 -0.4182 -0.6122 -0.6965
   46CHL1   C19 4550   2.053   0.190   6.388 -1.1368  0.4575  0.5254
   46CHL1  H19A 4551   2.106   0.263   6.453 -1.1972  0.2865  0.7686
   46CHL1  H19B 4552   2.031   0.234   6.288  1.5723 -0.1112 -0.3931
   46CHL1  H19C 4553   1.948   0.190   6.423 -1.9238 -0.7361 -1.6275
   46CHL1    C1 4554   2.067  -0.040   6.489 -0.6857 -0.0522 -0.0836
   46CHL1   H1A 4555   1.956  -0.043   6.484 -0.7310 -0.6616  0.9484
   46CHL1   H1B 4556   2.100  -0.144   6.471  0.1403  0.7048 -3.6177
   46CHL1    C2 4557   2.104   0.016   6.628 -0.7371 -0.0484  0.3255
   46CHL1   H2A 4558   2.051  -0.039   6.708 -1.7804 -0.1767 -0.4203
   46CHL1   H2B 4559   2.064   0.120   6.639  1.8798  1.2616 -1.3777
   46CHL1   C20 4560   1.887  -0.096   5.720  0.3026 -0.4064 -0.1406
   46CHL1   H20 4561   1.864   0.011   5.707 -0.6259 -0.5409  0.3352
   46CHL1   C21 4562   1.764  -0.163   5.780 -0.3553 -0.0716  0.1669
   46CHL1  H21A 4563   1.744  -0.145   5.888  0.1838  1.1997  0.0716
   46CHL1  H21B 4564   1.784  -0.270   5.759 -0.0323  0.5395 -3.1408
   46CHL1  H21C 4565   1.673  -0.150   5.717  0.9366 -0.4016 -1.8519
   46CHL1   C22 4566   1.913  -0.159   5.585 -0.6598  0.0106 -0.2613
   46CHL1  H22A 4567   2.013  -0.123   5.551 -0.5209 -0.5061 -0.4033
   46CHL1  H22B 4568   1.929  -0.268   5.597 -1.9816 -0.0960  0.6214
   46CHL1   C23 4569   1.810  -0.125   5.474 -0.2370 -0.2232  0.6049
   46CHL1  H23A 4570   1.843  -0.169   5.377 -1.0191  0.9181 -0.2121
   46CHL1  H23B 4571   1.709  -0.163   5.500  0.1844 -3.5389 -1.9408
   46CHL1   C24 4572   1.784   0.026   5.448  0.6018  0.4361  1.0405
   46CHL1  H24A 4573   1.692   0.062   5.499 -0.2258  0.1130 -0.1626
   46CHL1  H24B 4574   1.870   0.086   5.483  2.1725 -0.3483 -1.1922
   46CHL1   C25 4575   1.764   0.055   5.297  0.5599  0.2952 -0.3153
   46CHL1   H25 4576   1.855   0.021   5.245 -0.3436  1.4127 -2.7942
   46CHL1   C26 4577   1.639  -0.010   5.242  0.1267 -0.0627 -0.5310
   46CHL1  H26A 4578   1.545   0.028   5.289 -0.9390 -2.4615 -0.5727
   46CHL1  H26B 4579   1.621  -0.006   5.132 -0.9424 -1.9132 -0.4754
   46CHL1  H26C 4580   1.642  -0.119   5.262  2.6066  0.3512  1.8581
   46CHL1   C27 4581   1.766   0.207   5.288  0.1304  0.0564 -0.8143
   46CHL1  H27A 4582   1.854   0.249   5.342 -1.4169  2.2272  0.1772
   46CHL1  H27B 4583   1.771   0.258   5.190 -0.1473  2.8388  0.5185
   46CHL1  H27C 4584   1.680   0.246   5.347  0.1080  0.0246 -0.8265
   47CHL1    C3 4585   3.099   2.356   6.120 -0.2426 -0.4039  0.8460
   47CHL1    H3 4586   3.202   2.369   6.081 -0.7085 -0.6578 -0.5537
   47CHL1    O3 4587   3.094   2.369   6.257 -0.0314  0.1689 -0.5239
   47CHL1   H3' 4588   3.062   2.285   6.290  1.5888 -0.2556  0.1127
   47CHL1    C4 4589   3.010   2.463   6.050 -0.5465 -0.2861  0.5131
   47CHL1   H4A 4590   2.914   2.457   6.106 -1.7162 -1.8170 -1.4991
   47CHL1   H4B 4591   3.053   2.560   6.082 -0.1788  0.4841 -2.1095
   47CHL1    C5 4592   2.996   2.448   5.904 -0.5338 -0.6798  0.9340
   47CHL1    C6 4593   3.041   2.547   5.824  0.5095  0.5396 -0.0431
   47CHL1    H6 4594   3.081   2.639   5.869 -2.1227  0.2958  3.2435
   47CHL1    C7 4595   3.024   2.535   5.674  0.2591  0.4508  0.0349
   47CHL1   H7A 4596   2.980   2.628   5.633 -3.6699 -2.1264 -2.3436
   47CHL1   H7B 4597   3.127   2.531   5.630 -0.0740  1.1371 -0.8514
   47CHL1    C8 4598   2.946   2.409   5.617 -0.6668 -0.0601 -0.5031
   47CHL1    H8 4599   2.840   2.442   5.619 -0.4541  0.5958  0.4508
   47CHL1   C14 4600   2.994   2.371   5.479 -0.3802  0.8948  0.6916
   47CHL1   H14 4601   3.097   2.331   5.496 -0.2252  1.6524  1.6114
   47CHL1   C15 4602   2.994   2.481   5.371  0.4475 -0.8347  0.1118
   47CHL1  H15A 4603   2.895   2.530   5.370  1.1980  1.0510 -4.1447
   47CHL1  H15B 4604   3.070   2.562   5.378 -0.6526  0.2166  0.2788
   47CHL1   C16 4605   2.992   2.409   5.238  0.5555  0.4554 -0.2707
   47CHL1  H16A 4606   2.910   2.457   5.180  1.5537  0.9571 -1.3187
   47CHL1  H16B 4607   3.082   2.432   5.177 -0.3987  0.1493 -1.8181
   47CHL1   C17 4608   2.963   2.257   5.267 -0.0840 -0.2029 -0.1218
   47CHL1   H17 4609   3.058   2.200   5.266  0.3418  0.4747  0.6578
   47CHL1   C13 4610   2.916   2.256   5.416  0.2048  0.2753  0.1949
   47CHL1   C18 4611   2.764   2.287   5.411 -0.7947 -0.4583 -0.7233
   47CHL1  H18A 4612   2.725   2.298   5.515  1.5482 -0.0565  0.1669
   47CHL1  H18B 4613   2.734   2.382   5.362  1.5431  0.7597  0.0381
   47CHL1  H18C 4614   2.710   2.195   5.380 -2.2688  0.0570  0.2106
   47CHL1   C12 4615   2.941   2.129   5.508 -0.5104 -0.3727  0.2001
   47CHL1  H12A 4616   2.894   2.039   5.465 -1.8075  0.4097 -0.0809
   47CHL1  H12B 4617   3.051   2.113   5.503 -0.6924 -1.4875 -0.3915
   47CHL1   C11 4618   2.905   2.162   5.660  0.3879  0.0288  0.5802
   47CHL1  H11A 4619   2.794   2.166   5.667  0.3534  0.7501 -0.2752
   47CHL1  H11B 4620   2.941   2.076   5.721 -1.7380 -0.3739  1.3675
   47CHL1    C9 4621   2.970   2.292   5.705 -0.8367 -0.5153 -0.2286
   47CHL1    H9 4622   3.079   2.274   5.697 -0.6565 -1.1897  2.5480
   47CHL1   C10 4623   2.952   2.313   5.857  0.0773  0.0245 -0.3794
   47CHL1   C19 4624   2.800   2.286   5.891 -0.0992  0.2813  0.4472
   47CHL1  H19A 4625   2.763   2.184   5.868 -1.2175  0.9143 -0.7197
   47CHL1  H19B 4626   2.785   2.304   5.999  0.7596  0.3881  0.5581
   47CHL1  H19C 4627   2.743   2.360   5.829  1.7188  1.0925 -0.3365
   47CHL1    C1 4628   3.032   2.210   5.924  0.1601  0.1493 -0.7297
   47CHL1   H1A 4629   2.984   2.110   5.915 -2.1145  1.0825  0.4011
   47CHL1   H1B 4630   3.131   2.191   5.877 -0.9237  0.9111 -3.5300
   47CHL1    C2 4631   3.048   2.219   6.083 -0.5613  0.3590  0.4483
   47CHL1   H2A 4632   3.118   2.136   6.105 -0.4631 -0.2417 -1.9451
   47CHL1   H2B 4633   2.944   2.196   6.116 -0.4182  0.6734  1.1359
   47CHL1   C20 4634   2.874   2.186   5.165  0.3142  0.1464 -0.1860
   47CHL1   H20 4635   2.768   2.218   5.166  0.4500  0.6095 -0.1695
   47CHL1   C21 4636   2.873   2.037   5.191  0.2183  0.1018  0.0105
   47CHL1  H21A 4637   2.818   2.004   5.282  0.1739 -0.4498 -0.2147
   47CHL1  H21B 4638   2.976   1.996   5.203 -0.5200 -1.7820  0.2866
   47CHL1  H21C 4639   2.834   1.980   5.105  2.7400 -1.2017 -0.3627
   47CHL1   C22 4640   2.907   2.219   5.015  0.1249  0.0361 -0.2637
   47CHL1  H22A 4641   2.826   2.171   4.957  0.5923 -3.0063  1.4032
   47CHL1  H22B 4642   2.915   2.328   4.995  1.6544 -0.1573 -0.8115
   47CHL1   C23 4643   3.038   2.154   4.953  0.0035  0.2831  0.5702
   47CHL1  H23A 4644   3.129   2.188   5.006  2.4368 -3.3582 -0.9168
   47CHL1  H23B 4645   3.043   2.044   4.968  1.7422  0.5461  2.2102
   47CHL1   C24 4646   3.046   2.170   4.799 -0.1818 -0.3347 -0.2452
   47CHL1  H24A 4647   2.946   2.148   4.757  0.6021 -1.1213 -1.7821
   47CHL1  H24B 4648   3.077   2.273   4.773  0.9257 -0.4614  0.4729
   47CHL1   C25 4649   3.143   2.067   4.733 -0.4637  0.1943  0.2328
   47CHL1   H25 4650   3.139   1.970   4.786 -2.7239  0.8893  1.4546
   47CHL1   C26 4651   3.115   2.043   4.582 -0.6658 -0.6069  0.3133
   47CHL1  H26A 4652   3.009   2.012   4.574 -0.9725  0.6638 -1.0147
   47CHL1  H26B 4653   3.124   2.143   4.534  0.1183 -1.7490 -2.1354
   47CHL1  H26C 4654   3.174   1.966   4.527  1.1251  1.9799 -1.6181
   47CHL1   C27 4655   3.285   2.125   4.763 -0.3037 -0.5579  0.3579
   47CHL1  H27A 4656   3.298   2.141   4.872 -1.1176  0.7402  0.2782
   47CHL1  H27B 4657   3.360   2.052   4.726 -0.8035  0.2693 -2.4991
   47CHL1  H27C 4658   3.297   2.221   4.710 -0.8716 -0.6028  0.1444
   48CHL1    C3 4659   4.934   3.822   6.223 -0.9932 -0.2203  0.6706
   48CHL1    H3 4660   4.915   3.713   6.230  0.1607 -0.4494  0.3625
   48CHL1    O3 4661   4.936   3.862   6.357  0.4264  0.4914 -0.4365
   48CHL1   H3' 4662   4.959   3.955   6.353  1.0616  0.6351  3.2984
   48CHL1    C4 4663   5.059   3.865   6.144 -0.9670 -0.0109  0.3592
   48CHL1   H4A 4664   5.076   3.974   6.151 -1.1129 -0.0240  0.9914
   48CHL1   H4B 4665   5.152   3.816   6.181  0.6876  2.1442 -0.7594
   48CHL1    C5 4666   5.029   3.849   5.997  0.8315  0.1127  0.1717
   48CHL1    C6 4667   5.110   3.765   5.932  0.7704  0.1279  0.2881
   48CHL1    H6 4668   5.198   3.728   5.987 -0.0456 -0.2311  1.3883
   48CHL1    C7 4669   5.105   3.757   5.778  0.8646  0.7618 -0.4172
   48CHL1   H7A 4670   5.206   3.745   5.733 -0.3144  1.0118 -3.3459
   48CHL1   H7B 4671   5.059   3.660   5.749  3.0968 -0.6503  0.4843
   48CHL1    C8 4672   5.027   3.866   5.701 -0.0403 -0.3199  0.1582
   48CHL1    H8 4673   5.088   3.958   5.705  0.6069 -0.7931  3.0476
   48CHL1   C14 4674   4.988   3.849   5.549  0.3929 -0.5814 -0.0466
   48CHL1   H14 4675   4.930   3.754   5.540 -0.5108  0.1694 -3.3290
   48CHL1   C15 4676   5.112   3.816   5.455  0.4132 -0.4660 -0.2368
   48CHL1  H15A 4677   5.200   3.876   5.487  1.0111 -1.1080 -0.6404
   48CHL1  H15B 4678   5.126   3.706   5.465  0.0348 -0.8698 -3.1754
   48CHL1   C16 4679   5.058   3.852   5.317  0.3872  0.0115  0.7442
   48CHL1  H16A 4680   5.111   3.936   5.269  0.2060 -0.4099 -0.2330
   48CHL1  H16B 4681   5.052   3.768   5.244  3.2433  0.0411  0.3795
   48CHL1   C17 4682   4.907   3.900   5.337  0.6148 -0.2369 -0.0293
   48CHL1   H17 4683   4.840   3.812   5.330  1.8059 -1.0848 -0.9402
   48CHL1   C13 4684   4.902   3.956   5.480 -0.4056  0.4441 -0.0794
   48CHL1   C18 4685   4.978   4.087   5.487  0.0032 -0.1772 -0.1309
   48CHL1  H18A 4686   5.075   4.075   5.435 -0.4375  1.8274 -1.5482
   48CHL1  H18B 4687   4.921   4.155   5.419 -0.4989 -1.2200 -0.7732
   48CHL1  H18C 4688   4.991   4.136   5.586  1.9191 -0.0698 -0.3951
   48CHL1   C12 4689   4.765   3.955   5.557  0.3688  0.5308  0.2607
   48CHL1  H12A 4690   4.700   4.040   5.528 -0.0798  0.4155  0.8997
   48CHL1  H12B 4691   4.720   3.855   5.541  1.6743  0.3271 -2.8092
   48CHL1   C11 4692   4.787   3.982   5.709  0.6274 -0.4234  0.8401
   48CHL1  H11A 4693   4.802   4.091   5.722 -0.7648  0.1364 -1.6736
   48CHL1  H11B 4694   4.686   3.962   5.752  1.1816 -1.7604  1.5995
   48CHL1    C9 4695   4.896   3.890   5.782  0.1164 -0.6082 -0.3297
   48CHL1    H9 4696   4.854   3.787   5.780  2.2526 -1.7653  3.5525
   48CHL1   C10 4697   4.915   3.928   5.934 -0.2790  0.1171  0.1371
   48CHL1   C19 4698   4.940   4.079   5.933 -0.7392  0.5307 -0.3648
   48CHL1  H19A 4699   5.001   4.105   5.844 -2.4792  0.0666 -1.7716
   48CHL1  H19B 4700   4.844   4.135   5.930 -0.4096  1.4788  2.8428
   48CHL1  H19C 4701   4.997   4.117   6.020  0.9706  2.6075 -2.2775
   48CHL1    C1 4702   4.788   3.880   6.005 -0.6352 -0.4595 -1.1434
   48CHL1   H1A 4703   4.699   3.941   5.979 -1.7793 -0.1973  2.6929
   48CHL1   H1B 4704   4.777   3.772   5.981 -0.1531 -0.9719  0.7528
   48CHL1    C2 4705   4.810   3.888   6.165  0.2999 -0.5536  1.0907
   48CHL1   H2A 4706   4.723   3.841   6.216  0.3646  0.1641  1.8737
   48CHL1   H2B 4707   4.808   3.999   6.175 -2.2112 -0.5546  1.1545
   48CHL1   C20 4708   4.865   4.001   5.224  0.0058  0.1482  0.7441
   48CHL1   H20 4709   4.905   4.104   5.236 -2.0670  1.5557 -2.6709
   48CHL1   C21 4710   4.714   4.021   5.226 -0.1208 -0.6528  0.1000
   48CHL1  H21A 4711   4.689   4.110   5.165 -1.6428 -0.6708  0.6447
   48CHL1  H21B 4712   4.656   3.936   5.185 -1.9868 -0.2848  1.7873
   48CHL1  H21C 4713   4.678   4.050   5.327  0.5887 -2.5518  0.9504
   48CHL1   C22 4714   4.918   3.962   5.084  0.0514  0.5459  0.4681
   48CHL1  H22A 4715   5.029   3.958   5.079  0.0369 -1.9450  0.9208
   48CHL1  H22B 4716   4.888   3.856   5.068 -0.2364  0.6069  0.6131
   48CHL1   C23 4717   4.869   4.040   4.966 -0.3005 -0.6599  0.0251
   48CHL1  H23A 4718   4.758   4.032   4.954 -0.1963  0.2120 -1.9158
   48CHL1  H23B 4719   4.879   4.150   4.979  1.7387 -0.6785 -0.9831
   48CHL1   C24 4720   4.938   4.003   4.833  0.3756 -0.1332 -0.3317
   48CHL1  H24A 4721   5.049   4.004   4.835  0.4397  2.9619  0.3455
   48CHL1  H24B 4722   4.910   3.898   4.813  0.5089 -0.1722 -0.3118
   48CHL1   C25 4723   4.895   4.091   4.715 -0.2227  0.3371  0.1928
   48CHL1   H25 4724   4.787   4.116   4.714  0.2038  2.7291  2.2958
   48CHL1   C26 4725   4.979   4.221   4.711 -0.1633 -0.1283  0.6987
   48CHL1  H26A 4726   4.942   4.282   4.626  2.6260  0.9339  0.1679
   48CHL1  H26B 4727   4.967   4.272   4.809  1.5771  1.3305  0.2075
   48CHL1  H26C 4728   5.089   4.214   4.703 -0.1922  0.4178 -0.2447
   48CHL1   C27 4729   4.932   4.009   4.585 -0.5378 -0.0288 -0.6105
   48CHL1  H27A 4730   4.851   3.933   4.571  1.3501 -2.3634  0.3388
   48CHL1  H27B 4731   4.945   4.067   4.492  0.4522 -0.0469 -0.4949
   48CHL1  H27C 4732   5.029   3.955   4.590 -0.3341  0.3294 -0.7249
   49CHL1    C3 4733   3.449   2.230   2.868  0.4677  0.2707  0.0873
   49CHL1    H3 4734   3.556   2.232   2.839  0.0099 -0.4849 -1.8581
   49CHL1    O3 4735   3.366   2.213   2.755 -0.2414 -0.1100 -0.1443
   49CHL1   H3' 4736   3.425   2.187   2.683 -2.3462 -1.5957 -1.4463
   49CHL1    C4 4737   3.414   2.124   2.972  0.0311 -0.2482 -0.2046
   49CHL1   H4A 4738   3.308   2.127   3.005 -0.2288  0.3521 -1.0499
   49CHL1   H4B 4739   3.436   2.023   2.930 -0.0676  0.3855 -1.8790
   49CHL1    C5 4740   3.506   2.139   3.092  0.4776  0.1426  0.4471
   49CHL1    C6 4741   3.587   2.035   3.132  0.8987  0.8283 -0.7915
   49CHL1    H6 4742   3.581   1.943   3.073  0.2981 -0.0384  0.5606
   49CHL1    C7 4743   3.682   2.051   3.244 -0.1012 -0.3519 -0.3538
   49CHL1   H7A 4744   3.702   1.955   3.295 -0.4448  0.2341  0.9384
   49CHL1   H7B 4745   3.782   2.084   3.206  1.7265 -1.8979  2.7519
   49CHL1    C8 4746   3.642   2.167   3.345 -0.1030 -0.0124  0.2717
   49CHL1    H8 4747   3.554   2.124   3.398 -2.2311  0.5431 -2.5774
   49CHL1   C14 4748   3.754   2.197   3.443  0.2353 -0.2259  0.1774
   49CHL1   H14 4749   3.839   2.237   3.384  0.7189 -0.5017  0.6837
   49CHL1   C15 4750   3.811   2.080   3.517 -0.3072 -0.2703  0.0201
   49CHL1  H15A 4751   3.727   2.012   3.542 -0.3316 -0.3684 -0.3294
   49CHL1  H15B 4752   3.879   2.017   3.455 -2.0532 -2.5776  0.3064
   49CHL1   C16 4753   3.888   2.140   3.639  0.4378 -0.4429 -0.0836
   49CHL1  H16A 4754   3.848   2.097   3.734 -3.0029 -0.9160 -1.6124
   49CHL1  H16B 4755   3.998   2.124   3.634  0.6329  0.0553  1.8391
   49CHL1   C17 4756   3.848   2.296   3.639  0.8549 -0.5662  0.8091
   49CHL1   H17 4757   3.920   2.359   3.581  1.3918  0.1091  2.1683
   49CHL1   C13 4758   3.719   2.305   3.545  0.1971  0.2727  0.0400
   49CHL1   C18 4759   3.601   2.267   3.630 -0.2409  0.2105  0.4586
   49CHL1  H18A 4760   3.607   2.184   3.704 -1.7148  0.9090  1.4197
   49CHL1  H18B 4761   3.562   2.347   3.697 -1.0257  0.0336  0.2235
   49CHL1  H18C 4762   3.511   2.236   3.573  0.4695 -0.1160 -0.5229
   49CHL1   C12 4763   3.688   2.430   3.460  0.1088 -0.5857 -0.6508
   49CHL1  H12A 4764   3.669   2.513   3.532 -0.8041 -0.4766 -0.9947
   49CHL1  H12B 4765   3.783   2.450   3.407  1.2121 -1.2462  1.0133
   49CHL1   C11 4766   3.575   2.415   3.361  0.7401 -0.2438  0.2446
   49CHL1  H11A 4767   3.480   2.390   3.413  0.1200 -1.2330 -1.3165
   49CHL1  H11B 4768   3.556   2.512   3.310 -1.2160 -1.1648 -0.8888
   49CHL1    C9 4769   3.604   2.298   3.264  0.4717 -0.7464  0.6083
   49CHL1    H9 4770   3.698   2.332   3.217  0.1520 -1.8411 -0.8800
   49CHL1   C10 4771   3.494   2.271   3.156  0.0173  0.4771  0.3665
   49CHL1   C19 4772   3.360   2.270   3.236  0.1186 -1.0661 -0.3181
   49CHL1  H19A 4773   3.329   2.372   3.268  0.2734 -1.7901  2.3856
   49CHL1  H19B 4774   3.273   2.228   3.180 -1.7671  1.2260  0.7279
   49CHL1  H19C 4775   3.375   2.213   3.330 -3.4714  1.2558  1.8980
   49CHL1    C1 4776   3.500   2.387   3.052 -0.3213  0.2190 -0.0268
   49CHL1   H1A 4777   3.450   2.472   3.104 -0.4778 -0.2946  0.6801
   49CHL1   H1B 4778   3.605   2.413   3.030 -0.5056  0.2293 -0.9533
   49CHL1    C2 4779   3.414   2.369   2.925 -1.3591 -0.2990 -0.5576
   49CHL1   H2A 4780   3.424   2.461   2.862 -0.3475  1.4105  1.9383
   49CHL1   H2B 4781   3.308   2.355   2.953 -1.2021 -1.3744 -0.4687
   49CHL1   C20 4782   3.852   2.368   3.770  0.3894 -0.3014 -0.2168
   49CHL1   H20 4783   3.770   2.332   3.835  0.3277 -0.7355 -0.5288
   49CHL1   C21 4784   3.832   2.522   3.744 -0.3664 -0.2852 -0.3113
   49CHL1  H21A 4785   3.882   2.567   3.656 -1.7024  1.0572 -0.4205
   49CHL1  H21B 4786   3.880   2.573   3.830  0.2181 -0.2794 -0.6405
   49CHL1  H21C 4787   3.727   2.557   3.750  0.4763  2.5940 -0.8550
   49CHL1   C22 4788   3.978   2.353   3.853 -0.4847 -0.8973 -0.6161
   49CHL1  H22A 4789   4.024   2.253   3.836  0.8909  0.0346 -2.9254
   49CHL1  H22B 4790   4.050   2.424   3.806 -0.7338  1.3159  2.0668
   49CHL1   C23 4791   3.945   2.373   3.996  0.4294  0.7810 -0.2284
   49CHL1  H23A 4792   3.877   2.458   4.016  1.2889  1.2573  0.7556
   49CHL1  H23B 4793   3.881   2.284   4.015  1.0208  0.7853  2.1351
   49CHL1   C24 4794   4.070   2.377   4.087  0.3705  0.6983  0.5642
   49CHL1  H24A 4795   4.105   2.272   4.094 -0.9338  0.2578  0.8164
   49CHL1  H24B 4796   4.150   2.439   4.042 -1.3474  0.2684 -3.5917
   49CHL1   C25 4797   4.041   2.410   4.234  0.5673  0.1289  0.9222
   49CHL1   H25 4798   3.965   2.490   4.224  1.3054  0.7187 -0.2601
   49CHL1   C26 4799   3.981   2.293   4.310  0.1514  0.1245 -0.3404
   49CHL1  H26A 4800   4.035   2.197   4.326  1.2532  0.6155 -0.9799
   49CHL1  H26B 4801   3.950   2.326   4.412 -0.3686 -0.8575 -0.1724
   49CHL1  H26C 4802   3.881   2.276   4.264 -1.5244  1.5647  2.5060
   49CHL1   C27 4803   4.165   2.455   4.313  0.0803  0.8397 -0.3291
   49CHL1  H27A 4804   4.235   2.368   4.310 -2.6597 -1.5591  0.7381
   49CHL1  H27B 4805   4.212   2.543   4.264  1.9890 -0.3896 -0.8154
   49CHL1  H27C 4806   4.145   2.487   4.417  0.4519  0.9552 -0.2922
   50CHL1    C3 4807   5.349   3.852   2.988  0.0292  0.9357  0.8464
   50CHL1    H3 4808   5.423   3.933   3.007  2.3531 -1.3486  2.2291
   50CHL1    O3 4809   5.333   3.840   2.849 -0.0026 -0.3721  0.2787
   50CHL1   H3' 4810   5.285   3.758   2.836  1.7756 -1.8609  2.2748
   50CHL1    C4 4811   5.393   3.721   3.047 -0.3826  0.5493 -0.3844
   50CHL1   H4A 4812   5.319   3.647   3.011 -2.1230  2.2813 -0.5131
   50CHL1   H4B 4813   5.483   3.676   2.999  0.0081  1.9490 -1.0198
   50CHL1    C5 4814   5.410   3.750   3.193  0.3401  0.0117  0.3994
   50CHL1    C6 4815   5.522   3.727   3.259  0.1015 -0.2960  0.1621
   50CHL1    H6 4816   5.614   3.700   3.205  0.2523  0.0489  0.2402
   50CHL1    C7 4817   5.546   3.714   3.406 -0.2484 -0.0379  0.8093
   50CHL1   H7A 4818   5.583   3.610   3.421  0.5957 -0.1582 -1.6734
   50CHL1   H7B 4819   5.613   3.793   3.446 -0.7322  0.1184  1.3233
   50CHL1    C8 4820   5.407   3.724   3.475 -0.2180 -0.6357 -0.0041
   50CHL1    H8 4821   5.347   3.631   3.474 -0.5669 -0.5499  3.4246
   50CHL1   C14 4822   5.417   3.759   3.617  0.3154  0.2619 -0.2692
   50CHL1   H14 4823   5.485   3.847   3.615  0.6921 -0.0386 -1.1840
   50CHL1   C15 4824   5.493   3.652   3.699 -0.6836  0.3033  0.3018
   50CHL1  H15A 4825   5.447   3.553   3.681 -0.2444 -0.4705  2.9047
   50CHL1  H15B 4826   5.604   3.653   3.688 -0.5700  0.0406  1.2975
   50CHL1   C16 4827   5.461   3.693   3.851  0.2760  0.6611  0.2495
   50CHL1  H16A 4828   5.416   3.606   3.903 -2.0640  2.6326  1.7594
   50CHL1  H16B 4829   5.560   3.710   3.897  0.6124 -2.6363  1.0031
   50CHL1   C17 4830   5.348   3.801   3.845  0.4123  0.4034  0.4412
   50CHL1   H17 4831   5.401   3.898   3.848 -0.3313  0.8007  1.3045
   50CHL1   C13 4832   5.291   3.785   3.698 -0.3661  0.4595  0.5676
   50CHL1   C18 4833   5.187   3.667   3.687  0.5898 -0.3126 -0.1489
   50CHL1  H18A 4834   5.169   3.646   3.579  1.3893  1.2784 -0.6357
   50CHL1  H18B 4835   5.227   3.577   3.737  1.4034  0.7477  1.1814
   50CHL1  H18C 4836   5.092   3.700   3.735  1.5595 -0.4895  1.9665
   50CHL1   C12 4837   5.238   3.913   3.642  0.8162  0.5174 -0.4533
   50CHL1  H12A 4838   5.147   3.945   3.698  0.6625 -0.7050  0.0285
   50CHL1  H12B 4839   5.322   3.986   3.646  1.9825 -0.7140 -1.5591
   50CHL1   C11 4840   5.198   3.881   3.494 -0.6647 -0.3777  0.2007
   50CHL1  H11A 4841   5.112   3.812   3.482  1.3586 -3.0355 -0.2986
   50CHL1  H11B 4842   5.169   3.979   3.451  1.3699  0.2886  0.2061
   50CHL1    C9 4843   5.318   3.830   3.410 -0.3703 -0.5138 -0.1538
   50CHL1    H9 4844   5.382   3.920   3.399  0.0696 -0.4602  2.3088
   50CHL1   C10 4845   5.280   3.792   3.266  0.0523 -0.0712 -0.2762
   50CHL1   C19 4846   5.165   3.684   3.271 -0.1320  0.8147  1.0647
   50CHL1  H19A 4847   5.193   3.604   3.342 -1.8692 -0.5106  0.3281
   50CHL1  H19B 4848   5.066   3.726   3.299 -1.3260 -1.6365  0.7807
   50CHL1  H19C 4849   5.150   3.652   3.166  2.4270  0.1188  0.8620
   50CHL1    C1 4850   5.219   3.915   3.191  0.0588 -0.6518 -0.2002
   50CHL1   H1A 4851   5.115   3.927   3.228  0.4036 -2.1328  1.4165
   50CHL1   H1B 4852   5.268   4.013   3.211 -1.8809  0.6357 -1.4442
   50CHL1    C2 4853   5.216   3.900   3.040  0.3232  0.4937 -0.1447
   50CHL1   H2A 4854   5.185   3.999   2.999  2.3885  0.9414 -0.7105
   50CHL1   H2B 4855   5.126   3.837   3.022  0.8528 -0.6693  1.1040
   50CHL1   C20 4856   5.243   3.800   3.959 -0.2184  0.1412  0.1907
   50CHL1   H20 4857   5.196   3.699   3.955 -0.7359  0.3887 -0.1439
   50CHL1   C21 4858   5.129   3.903   3.958 -0.0437 -0.4879  0.4106
   50CHL1  H21A 4859   5.059   3.872   4.038 -0.8419  1.0520  0.3449
   50CHL1  H21B 4860   5.069   3.885   3.866  1.6006 -3.1820 -0.2586
   50CHL1  H21C 4861   5.151   4.011   3.974  0.2482 -0.5056  0.1400
   50CHL1   C22 4862   5.305   3.810   4.104  0.0723 -0.5220  0.6964
   50CHL1  H22A 4863   5.219   3.799   4.174 -0.6654 -0.0930 -0.1183
   50CHL1  H22B 4864   5.370   3.720   4.105  1.6270  0.5571  0.7838
   50CHL1   C23 4865   5.384   3.942   4.132  0.1848  0.2485  0.1771
   50CHL1  H23A 4866   5.459   3.948   4.051  0.2350 -1.5224  0.0399
   50CHL1  H23B 4867   5.313   4.027   4.126 -2.8216 -2.0740  0.4304
   50CHL1   C24 4868   5.464   3.942   4.264 -0.9381 -0.7853  0.0792
   50CHL1  H24A 4869   5.532   3.854   4.265 -0.5313 -0.4700  0.4641
   50CHL1  H24B 4870   5.524   4.034   4.250 -1.5008 -0.4805 -0.3531
   50CHL1   C25 4871   5.373   3.941   4.385 -0.3087  0.1412  0.0961
   50CHL1   H25 4872   5.284   3.875   4.377  0.6841 -1.1289 -0.8232
   50CHL1   C26 4873   5.459   3.901   4.509 -0.3068  0.5956  0.4117
   50CHL1  H26A 4874   5.396   3.923   4.597 -0.1483 -0.0308  0.6804
   50CHL1  H26B 4875   5.485   3.794   4.503  3.0167  1.0388  3.5628
   50CHL1  H26C 4876   5.549   3.966   4.501  0.4617 -0.4407  0.4304
   50CHL1   C27 4877   5.315   4.082   4.395 -1.0171 -0.3794  0.0389
   50CHL1  H27A 4878   5.257   4.077   4.490  0.7346  0.7229  1.2307
   50CHL1  H27B 4879   5.398   4.154   4.410 -0.7702 -0.9462  1.5649
   50CHL1  H27C 4880   5.246   4.103   4.310  0.8049  0.1938 -1.3588
   51CHL1    C3 4881   2.820   6.564   3.155  0.7430  0.0933 -0.2835
   51CHL1    H3 4882   2.817   6.670   3.123  1.1427  0.2627  0.2239
   51CHL1    O3 4883   2.797   6.466   3.055  0.3482 -0.1645 -0.3392
   51CHL1   H3' 4884   2.770   6.384   3.096 -1.6752  0.2956 -0.6469
   51CHL1    C4 4885   2.962   6.547   3.208  0.8274 -0.4170  0.5917
   51CHL1   H4A 4886   2.991   6.441   3.224  2.0077 -0.2226 -0.1041
   51CHL1   H4B 4887   3.029   6.574   3.124  0.2900 -1.8741 -0.3389
   51CHL1    C5 4888   2.996   6.622   3.337  0.2932  0.2618 -0.4197
   51CHL1    C6 4889   3.100   6.708   3.336 -0.1185 -0.2328 -0.7718
   51CHL1    H6 4890   3.172   6.717   3.254  2.5534  1.3828  1.5759
   51CHL1    C7 4891   3.151   6.777   3.458  0.0640 -0.5238 -0.3054
   51CHL1   H7A 4892   3.260   6.766   3.473  0.1751 -0.0236 -0.7164
   51CHL1   H7B 4893   3.124   6.884   3.442 -0.7921 -0.7406 -0.3864
   51CHL1    C8 4894   3.088   6.720   3.587 -0.4339 -0.4112  0.1048
   51CHL1    H8 4895   3.131   6.620   3.609 -1.6853 -0.9885  0.0094
   51CHL1   C14 4896   3.115   6.820   3.707  0.5082  0.5498 -0.2502
   51CHL1   H14 4897   3.064   6.913   3.674 -1.4774  0.1867  1.5789
   51CHL1   C15 4898   3.262   6.848   3.735 -0.1067  1.2517 -0.2366
   51CHL1  H15A 4899   3.327   6.758   3.743 -0.3264  1.2048  1.3606
   51CHL1  H15B 4900   3.309   6.912   3.658 -0.9354  1.0436 -0.9414
   51CHL1   C16 4901   3.252   6.914   3.873  0.2181 -0.5133 -0.7800
   51CHL1  H16A 4902   3.333   6.874   3.937  0.3416  1.7960  0.6215
   51CHL1  H16B 4903   3.265   7.024   3.865 -1.5094 -0.1272  0.9505
   51CHL1   C17 4904   3.106   6.890   3.928 -0.3050  0.0020  0.2227
   51CHL1   H17 4905   3.054   6.983   3.896 -0.2921 -0.2303 -0.4834
   51CHL1   C13 4906   3.048   6.777   3.842 -0.3530  0.6676  0.0025
   51CHL1   C18 4907   3.089   6.642   3.896 -0.1832 -0.2628 -0.2508
   51CHL1  H18A 4908   3.180   6.651   3.961  0.3536  0.1167 -1.0361
   51CHL1  H18B 4909   3.005   6.597   3.953 -0.4080  1.0221  0.4752
   51CHL1  H18C 4910   3.103   6.567   3.816 -2.3878 -0.8816 -0.1006
   51CHL1   C12 4911   2.895   6.779   3.808 -0.3558 -0.0339  0.1787
   51CHL1  H12A 4912   2.835   6.759   3.900 -0.1659 -3.5547 -0.2968
   51CHL1  H12B 4913   2.869   6.878   3.766 -0.3976  0.8355  2.1597
   51CHL1   C11 4914   2.865   6.676   3.696 -0.1481  0.5768 -0.2805
   51CHL1  H11A 4915   2.889   6.575   3.738  0.6737  0.5985 -0.6853
   51CHL1  H11B 4916   2.754   6.682   3.687 -0.3664 -2.0437 -0.1239
   51CHL1    C9 4917   2.939   6.699   3.565 -0.1140 -0.8701  0.3171
   51CHL1    H9 4918   2.906   6.799   3.530 -0.7226 -0.9203  0.7393
   51CHL1   C10 4919   2.901   6.603   3.453  0.8072  0.2179  0.9808
   51CHL1   C19 4920   2.919   6.462   3.504  0.0176  0.4225 -0.3685
   51CHL1  H19A 4921   3.023   6.455   3.543  0.0227 -1.7096 -0.6536
   51CHL1  H19B 4922   2.844   6.441   3.583  1.2690 -2.2900  0.2200
   51CHL1  H19C 4923   2.909   6.383   3.427 -0.6226 -0.0805  0.2192
   51CHL1    C1 4924   2.752   6.626   3.398 -0.1139 -0.3390 -0.8100
   51CHL1   H1A 4925   2.674   6.599   3.472  0.5593  1.4240  0.6320
   51CHL1   H1B 4926   2.750   6.734   3.369  1.7205 -0.2434 -0.7535
   51CHL1    C2 4927   2.723   6.538   3.273 -0.4852  0.3621 -0.1805
   51CHL1   H2A 4928   2.616   6.549   3.244 -0.4612 -0.4056 -0.5644
   51CHL1   H2B 4929   2.731   6.434   3.312 -0.0194  1.1092  1.8591
   51CHL1   C20 4930   3.093   6.879   4.082 -0.7159 -0.3937  0.7002
   51CHL1   H20 4931   3.153   6.791   4.112  2.4815  1.0388 -1.0429
   51CHL1   C21 4932   2.952   6.843   4.123  0.0793 -0.3445 -0.2813
   51CHL1  H21A 4933   2.876   6.908   4.074  0.2713  0.0766 -0.0337
   51CHL1  H21B 4934   2.945   6.859   4.233  0.4961  0.6335 -0.3804
   51CHL1  H21C 4935   2.916   6.742   4.098 -4.1630  1.1889 -1.1621
   51CHL1   C22 4936   3.163   6.991   4.158  0.3439 -0.0138  0.1220
   51CHL1  H22A 4937   3.266   7.008   4.120  0.0137 -0.2235 -0.9139
   51CHL1  H22B 4938   3.111   7.086   4.133  2.3835  1.8424  2.4437
   51CHL1   C23 4939   3.184   6.987   4.313  0.6174 -0.7077  0.1112
   51CHL1  H23A 4940   3.088   6.962   4.362 -0.4308  0.6379 -1.1676
   51CHL1  H23B 4941   3.255   6.905   4.337 -0.0420 -1.7592 -1.4277
   51CHL1   C24 4942   3.255   7.112   4.365 -0.8582  0.0277 -0.6407
   51CHL1  H24A 4943   3.363   7.123   4.339 -0.2209  1.2653  2.1729
   51CHL1  H24B 4944   3.205   7.205   4.333  0.7832  0.9163 -0.7615
   51CHL1   C25 4945   3.268   7.095   4.518  0.4572  0.1424 -0.4329
   51CHL1   H25 4946   3.166   7.073   4.557  0.7302 -0.0113  0.2114
   51CHL1   C26 4947   3.367   6.981   4.571 -1.1355 -0.0392 -0.7012
   51CHL1  H26A 4948   3.342   6.875   4.549  1.4625 -1.6823  3.1094
   51CHL1  H26B 4949   3.470   7.009   4.541 -0.4528  0.2861  1.7786
   51CHL1  H26C 4950   3.362   6.979   4.682 -1.0787 -1.7112 -0.6991
   51CHL1   C27 4951   3.305   7.229   4.592  0.8707 -0.4758  0.1173
   51CHL1  H27A 4952   3.290   7.222   4.702 -2.1904 -0.9840 -0.2397
   51CHL1  H27B 4953   3.410   7.251   4.567  0.8374  0.1306  0.4924
   51CHL1  H27C 4954   3.237   7.310   4.560  0.7398 -0.2265  0.9860
   52CHL1    C3 4955   2.692   0.482   2.915  0.8438  0.3682  0.2905
   52CHL1    H3 4956   2.751   0.398   2.957 -0.0641  0.1056  1.0589
   52CHL1    O3 4957   2.709   0.484   2.776 -0.0581 -0.0886 -0.2549
   52CHL1   H3' 4958   2.650   0.413   2.749 -1.0713  0.2831  0.8691
   52CHL1    C4 4959   2.547   0.442   2.950 -0.0704 -0.4385 -1.1047
   52CHL1   H4A 4960   2.485   0.519   2.899 -0.9277 -0.3608  0.0218
   52CHL1   H4B 4961   2.513   0.342   2.915  1.1966 -1.4070  0.3252
   52CHL1    C5 4962   2.517   0.451   3.098  0.4745  0.2101 -0.7666
   52CHL1    C6 4963   2.464   0.342   3.157  0.0538 -0.5586  0.0862
   52CHL1    H6 4964   2.440   0.257   3.093 -0.4680 -0.7323  0.5101
   52CHL1    C7 4965   2.427   0.331   3.304  0.3192 -0.5952 -0.2350
   52CHL1   H7A 4966   2.325   0.289   3.318  0.6324 -1.2929  0.0047
   52CHL1   H7B 4967   2.497   0.259   3.351 -0.2396 -1.0510 -0.0943
   52CHL1    C8 4968   2.434   0.467   3.373 -0.7387 -0.4843  0.0775
   52CHL1    H8 4969   2.345   0.524   3.339 -0.9853 -1.4761 -1.0142
   52CHL1   C14 4970   2.448   0.444   3.523 -0.3132  1.3941 -0.3576
   52CHL1   H14 4971   2.540   0.385   3.544 -1.2768  0.3113  1.0215
   52CHL1   C15 4972   2.329   0.367   3.581 -0.6085 -0.0185 -0.1993
   52CHL1  H15A 4973   2.237   0.406   3.534 -0.1399  2.1457  0.5797
   52CHL1  H15B 4974   2.341   0.259   3.557 -0.1904 -0.1349  0.4986
   52CHL1   C16 4975   2.324   0.399   3.731  0.1805 -0.3897 -0.1722
   52CHL1  H16A 4976   2.231   0.448   3.767 -0.1898 -0.8470 -0.4909
   52CHL1  H16B 4977   2.341   0.309   3.794 -0.4830 -0.8492 -0.6360
   52CHL1   C17 4978   2.432   0.508   3.747  0.6418  0.4936 -0.2463
   52CHL1   H17 4979   2.526   0.455   3.775  1.3710  1.9158  0.1121
   52CHL1   C13 4980   2.448   0.571   3.605  0.3570  0.2725 -0.3938
   52CHL1   C18 4981   2.322   0.659   3.563  0.1883 -0.2990  0.3461
   52CHL1  H18A 4982   2.319   0.755   3.618  1.7162 -0.3365  0.5334
   52CHL1  H18B 4983   2.327   0.687   3.456 -0.1474 -0.1573  0.3682
   52CHL1  H18C 4984   2.229   0.603   3.588  0.7378 -1.7754 -0.7211
   52CHL1   C12 4985   2.577   0.646   3.570  0.1517  0.4572 -0.0153
   52CHL1  H12A 4986   2.589   0.734   3.636  2.6274  0.9658 -1.0438
   52CHL1  H12B 4987   2.660   0.578   3.599  0.2711  1.7549  3.0846
   52CHL1   C11 4988   2.585   0.679   3.415 -0.5907 -0.0588 -0.3419
   52CHL1  H11A 4989   2.514   0.761   3.390 -0.3139  1.0644  2.2195
   52CHL1  H11B 4990   2.689   0.704   3.385  0.0398 -2.4870 -0.3850
   52CHL1    C9 4991   2.552   0.557   3.326 -0.6192 -0.1887  0.2349
   52CHL1    H9 4992   2.636   0.493   3.359 -1.5796 -0.7192  1.7795
   52CHL1   C10 4993   2.562   0.579   3.175  0.2108  0.0098  0.0978
   52CHL1   C19 4994   2.463   0.695   3.137  0.5223 -0.0463 -0.1172
   52CHL1  H19A 4995   2.452   0.707   3.027  2.1054  0.0166 -0.2847
   52CHL1  H19B 4996   2.375   0.699   3.205  2.1302  2.4960  2.0172
   52CHL1  H19C 4997   2.500   0.793   3.173 -3.2237  1.2217  0.7268
   52CHL1    C1 4998   2.711   0.609   3.130  0.0180 -0.4375 -0.2714
   52CHL1   H1A 4999   2.734   0.709   3.172 -1.6044 -0.3219  0.4286
   52CHL1   H1B 5000   2.771   0.532   3.182 -2.5580 -2.0554  0.5030
   52CHL1    C2 5001   2.732   0.613   2.979 -0.5627 -0.1882 -0.2924
   52CHL1   H2A 5002   2.836   0.642   2.954 -1.3382  1.7202 -1.5421
   52CHL1   H2B 5003   2.678   0.699   2.932  0.9036  0.1283 -1.4695
   52CHL1   C20 5004   2.408   0.591   3.872  0.1829  0.5237  0.1788
   52CHL1   H20 5005   2.314   0.647   3.853  0.0326 -0.0106 -0.7392
   52CHL1   C21 5006   2.525   0.684   3.897  0.5393  0.0936  0.4366
   52CHL1  H21A 5007   2.625   0.639   3.915  0.6393  0.7825  1.6659
   52CHL1  H21B 5008   2.496   0.732   3.993 -1.8213  4.3514 -2.0787
   52CHL1  H21C 5009   2.518   0.769   3.825 -1.0886 -2.8296 -3.2061
   52CHL1   C22 5010   2.398   0.501   4.003 -0.5800 -0.6345 -0.2582
   52CHL1  H22A 5011   2.335   0.413   3.981 -1.6788  0.4116 -1.4196
   52CHL1  H22B 5012   2.494   0.463   4.045 -2.1684 -2.5456  1.8047
   52CHL1   C23 5013   2.336   0.577   4.128  0.0220 -0.0919  0.7322
   52CHL1  H23A 5014   2.392   0.669   4.159  2.2123 -0.8853 -0.6294
   52CHL1  H23B 5015   2.231   0.606   4.109  0.0493  0.2964  1.1305
   52CHL1   C24 5016   2.335   0.480   4.245  0.3480 -0.1130 -0.4285
   52CHL1  H24A 5017   2.310   0.380   4.203  0.1107 -0.3691  0.2970
   52CHL1  H24B 5018   2.438   0.468   4.284  0.3883  1.1986 -0.0795
   52CHL1   C25 5019   2.233   0.513   4.358  0.3933  0.0249 -0.1402
   52CHL1   H25 5020   2.127   0.504   4.326  0.1931 -0.6195  0.6609
   52CHL1   C26 5021   2.245   0.417   4.479  0.6685  0.4895 -0.2404
   52CHL1  H26A 5022   2.186   0.455   4.564  2.0657  1.9408  0.1346
   52CHL1  H26B 5023   2.205   0.316   4.458 -0.6172  1.0434 -0.5796
   52CHL1  H26C 5024   2.350   0.413   4.515  0.2244 -0.7588  0.9718
   52CHL1   C27 5025   2.262   0.660   4.397 -0.1564 -0.5469 -0.4432
   52CHL1  H27A 5026   2.223   0.736   4.327  3.7958  0.2085 -2.0956
   52CHL1  H27B 5027   2.234   0.680   4.502 -0.1911  2.3702 -0.9181
   52CHL1  H27C 5028   2.373   0.661   4.397 -0.1410 -0.0361  0.9528
   53CHL1    C3 5029   3.183   0.522   3.211 -0.5162  0.0184 -0.1768
   53CHL1    H3 5030   3.292   0.517   3.235 -0.1978  2.0257 -1.0096
   53CHL1    O3 5031   3.151   0.505   3.075 -0.0331  0.2732  0.2139
   53CHL1   H3' 5032   3.168   0.411   3.070  2.2324  0.4915  2.1616
   53CHL1    C4 5033   3.120   0.407   3.301  0.1479  0.3494 -0.3913
   53CHL1   H4A 5034   3.015   0.400   3.264  0.5297 -2.1716 -1.2742
   53CHL1   H4B 5035   3.161   0.307   3.272 -0.2588  0.8157 -2.8565
   53CHL1    C5 5036   3.134   0.429   3.449 -0.7397 -0.5566 -0.4614
   53CHL1    C6 5037   3.193   0.341   3.530  0.1317 -0.0938 -0.3885
   53CHL1    H6 5038   3.232   0.250   3.481 -0.0415 -1.9397  2.6218
   53CHL1    C7 5039   3.224   0.358   3.674 -0.4092  1.0774 -0.3210
   53CHL1   H7A 5040   3.199   0.266   3.730  0.4856  1.0087 -0.0150
   53CHL1   H7B 5041   3.331   0.383   3.692  0.7834 -0.3429 -4.2508
   53CHL1    C8 5042   3.145   0.477   3.727  0.5439 -0.5195  0.1106
   53CHL1    H8 5043   3.042   0.442   3.750  0.8488 -1.4732  0.0868
   53CHL1   C14 5044   3.193   0.508   3.875 -0.1625 -0.3142  0.0330
   53CHL1   H14 5045   3.298   0.542   3.865 -0.4582  0.6703  0.1009
   53CHL1   C15 5046   3.194   0.392   3.977 -0.0095  1.2651  0.1190
   53CHL1  H15A 5047   3.094   0.346   3.964 -1.1999  3.8029 -0.4228
   53CHL1  H15B 5048   3.277   0.319   3.978 -0.7997  0.3513  0.3165
   53CHL1   C16 5049   3.214   0.464   4.110 -0.9873  0.1789  0.0717
   53CHL1  H16A 5050   3.149   0.431   4.193  1.0887 -1.2815  1.2055
   53CHL1  H16B 5051   3.316   0.434   4.144 -1.8481 -3.4196 -0.1743
   53CHL1   C17 5052   3.195   0.621   4.081  0.7351  0.8566  0.0519
   53CHL1   H17 5053   3.296   0.655   4.049  0.3400  0.9743 -1.0951
   53CHL1   C13 5054   3.123   0.626   3.944 -0.1506  0.1278 -0.1857
   53CHL1   C18 5055   2.973   0.592   3.977 -0.3436 -0.5921 -0.4355
   53CHL1  H18A 5056   2.916   0.688   3.972  0.7120  0.0312 -1.0234
   53CHL1  H18B 5057   2.927   0.533   3.895 -1.6369  1.2150 -1.0669
   53CHL1  H18C 5058   2.965   0.542   4.076 -0.4611  0.3195  0.0289
   53CHL1   C12 5059   3.137   0.755   3.858  0.5791 -0.8824 -0.0047
   53CHL1  H12A 5060   3.087   0.837   3.914 -0.4714 -1.2439 -0.3941
   53CHL1  H12B 5061   3.245   0.778   3.846  0.3678  0.2138  0.0771
   53CHL1   C11 5062   3.078   0.724   3.711 -0.8569  0.3782  0.2822
   53CHL1  H11A 5063   2.969   0.716   3.735 -1.5419  2.3328 -1.9160
   53CHL1  H11B 5064   3.113   0.808   3.648  2.2926 -0.1091  1.2071
   53CHL1    C9 5065   3.143   0.599   3.638  0.0526 -0.2300 -0.3210
   53CHL1    H9 5066   3.248   0.633   3.632  0.0518 -0.1237  0.1734
   53CHL1   C10 5067   3.096   0.568   3.494  0.5032 -0.1269  0.1540
   53CHL1   C19 5068   2.942   0.576   3.496 -0.8380 -0.3249  1.0564
   53CHL1  H19A 5069   2.902   0.557   3.394 -1.9248  1.9052  0.9962
   53CHL1  H19B 5070   2.888   0.524   3.577 -3.0420  1.1965  0.6618
   53CHL1  H19C 5071   2.915   0.684   3.504 -0.3054 -0.0159 -0.7505
   53CHL1    C1 5072   3.163   0.678   3.398 -1.2652 -0.2401 -0.5351
   53CHL1   H1A 5073   3.124   0.776   3.435  1.9645  0.6776  0.8438
   53CHL1   H1B 5074   3.271   0.668   3.423 -1.7065 -3.0629  0.6691
   53CHL1    C2 5075   3.135   0.653   3.251 -0.2765 -0.8592 -0.2090
   53CHL1   H2A 5076   3.177   0.736   3.191 -0.4503  1.6747  2.9358
   53CHL1   H2B 5077   3.025   0.663   3.237 -0.3004 -0.8373 -0.0076
   53CHL1   C20 5078   3.157   0.716   4.195  0.5648  0.3962  0.3388
   53CHL1   H20 5079   3.050   0.739   4.174  0.9950  2.2744 -0.0031
   53CHL1   C21 5080   3.228   0.847   4.183  0.3333 -0.7071  0.0093
   53CHL1  H21A 5081   3.331   0.825   4.217 -0.0707  0.4665  2.2574
   53CHL1  H21B 5082   3.176   0.927   4.240  0.7531 -0.1211 -0.4137
   53CHL1  H21C 5083   3.219   0.888   4.081 -4.4371 -0.8218  0.1740
   53CHL1   C22 5084   3.174   0.644   4.338  0.5113 -0.5208 -0.0942
   53CHL1  H22A 5085   3.097   0.564   4.347 -0.5856  0.5556  0.3177
   53CHL1  H22B 5086   3.276   0.601   4.331  0.5111 -0.4833 -0.3568
   53CHL1   C23 5087   3.171   0.736   4.462  0.0352 -0.2145  0.7991
   53CHL1  H23A 5088   3.264   0.795   4.449 -1.2988  1.7418 -0.2209
   53CHL1  H23B 5089   3.086   0.807   4.461  0.3117  0.1162  0.5373
   53CHL1   C24 5090   3.183   0.659   4.592  0.1804 -0.2965 -1.0338
   53CHL1  H24A 5091   3.079   0.621   4.601 -0.5077  1.9279  2.5465
   53CHL1  H24B 5092   3.266   0.585   4.588 -0.1604 -0.8861  1.2663
   53CHL1   C25 5093   3.194   0.748   4.721  0.4885  0.1678  0.1470
   53CHL1   H25 5094   3.299   0.785   4.728  0.5681  0.0259 -0.2600
   53CHL1   C26 5095   3.101   0.864   4.716  0.1694  0.6638  0.5105
   53CHL1  H26A 5096   2.996   0.834   4.699  0.5260  0.5730 -1.8638
   53CHL1  H26B 5097   3.081   0.927   4.805 -0.8960  0.2632  0.5637
   53CHL1  H26C 5098   3.127   0.940   4.639 -0.1879  0.7891  0.5144
   53CHL1   C27 5099   3.163   0.660   4.849 -0.2262 -0.8288  0.6801
   53CHL1  H27A 5100   3.221   0.565   4.856  0.4173 -0.3501  2.0982
   53CHL1  H27B 5101   3.199   0.711   4.941  2.0539 -2.4288  0.7568
   53CHL1  H27C 5102   3.054   0.644   4.859 -0.7549 -0.0822 -2.6344
   54CHL1    C3 5103   3.071   1.109   3.030 -0.5354 -0.1988  0.0551
   54CHL1    H3 5104   2.980   1.085   3.090 -1.1448 -1.3396 -1.2817
   54CHL1    O3 5105   3.038   1.105   2.893  0.3370 -0.9089  0.0593
   54CHL1   H3' 5106   2.958   1.053   2.894  0.1458 -0.6532  2.2849
   54CHL1    C4 5107   3.113   1.254   3.077  0.1257 -0.0583  0.1672
   54CHL1   H4A 5108   3.204   1.288   3.023 -0.6574 -0.6145 -1.5745
   54CHL1   H4B 5109   3.031   1.325   3.053 -2.0711 -2.3548  0.4835
   54CHL1    C5 5110   3.143   1.268   3.225  0.8858  0.1022  0.4153
   54CHL1    C6 5111   3.075   1.361   3.296  0.1378 -0.3476 -0.5393
   54CHL1    H6 5112   3.013   1.436   3.244  2.6560  0.7072 -2.2239
   54CHL1    C7 5113   3.096   1.377   3.448 -0.5495  0.0403 -0.0496
   54CHL1   H7A 5114   3.100   1.484   3.479 -0.1538  0.6813 -2.1325
   54CHL1   H7B 5115   3.017   1.326   3.507  0.3329 -0.8148  0.4286
   54CHL1    C8 5116   3.226   1.303   3.499  0.3602  0.2814  0.4438
   54CHL1    H8 5117   3.304   1.374   3.464 -1.5682  0.9499 -2.9104
   54CHL1   C14 5118   3.224   1.279   3.651 -0.2101  0.1350  0.1275
   54CHL1   H14 5119   3.134   1.216   3.666 -0.3218 -0.2258 -1.7991
   54CHL1   C15 5120   3.194   1.395   3.744  0.9588  0.6700 -0.3017
   54CHL1  H15A 5121   3.255   1.476   3.699  0.9676  0.3759 -0.8243
   54CHL1  H15B 5122   3.085   1.419   3.739  0.2795 -1.5383  1.7807
   54CHL1   C16 5123   3.255   1.352   3.876  0.2831 -0.3641  0.2617
   54CHL1  H16A 5124   3.342   1.417   3.898 -0.0998  0.0514  0.5808
   54CHL1  H16B 5125   3.186   1.368   3.962  1.7599  1.1343  1.2172
   54CHL1   C17 5126   3.309   1.212   3.863  0.1145 -0.0891 -0.5581
   54CHL1   H17 5127   3.218   1.148   3.865 -1.0272  1.3058 -3.1676
   54CHL1   C13 5128   3.343   1.203   3.713 -0.0263  0.1232 -0.0873
   54CHL1   C18 5129   3.473   1.284   3.694 -0.4726 -0.4870  0.4441
   54CHL1  H18A 5130   3.499   1.314   3.590  0.5356  0.4582  0.9458
   54CHL1  H18B 5131   3.485   1.377   3.752  0.4307 -1.2231  1.4821
   54CHL1  H18C 5132   3.545   1.202   3.717  0.0220  0.2143  1.4807
   54CHL1   C12 5133   3.351   1.061   3.644 -0.6504 -0.6727 -0.0839
   54CHL1  H12A 5134   3.442   1.007   3.677 -0.0552  0.5338  0.3352
   54CHL1  H12B 5135   3.255   1.010   3.663 -0.4961 -0.8793  0.1414
   54CHL1   C11 5136   3.359   1.076   3.493 -0.0349 -0.2954  0.2572
   54CHL1  H11A 5137   3.455   1.128   3.475 -0.2214 -0.2858 -0.7751
   54CHL1  H11B 5138   3.352   0.975   3.448  0.7619  0.4894 -1.7587
   54CHL1    C9 5139   3.245   1.164   3.429  0.1252  0.2328  0.5408
   54CHL1    H9 5140   3.154   1.110   3.462 -0.7056  1.1123 -0.2726
   54CHL1   C10 5141   3.250   1.170   3.274  0.1736  0.1721  0.6630
   54CHL1   C19 5142   3.390   1.229   3.224  0.5087  0.0741  0.6855
   54CHL1  H19A 5143   3.466   1.150   3.242  0.3772  0.4410  3.2158
   54CHL1  H19B 5144   3.387   1.246   3.114 -3.6630  1.2302  0.7886
   54CHL1  H19C 5145   3.428   1.315   3.283  0.8394 -1.3054  2.5904
   54CHL1    C1 5146   3.223   1.027   3.214 -0.7847 -0.2681 -0.6541
   54CHL1   H1A 5147   3.301   0.950   3.233 -0.0451  0.9133  1.3558
   54CHL1   H1B 5148   3.134   0.978   3.259  1.0039 -2.6672  0.4867
   54CHL1    C2 5149   3.184   1.015   3.061  0.0694  0.2601 -0.3060
   54CHL1   H2A 5150   3.175   0.910   3.025 -2.7119  0.7474 -1.3064
   54CHL1   H2B 5151   3.275   1.055   3.011 -0.2631  0.2532 -0.9240
   54CHL1   C20 5152   3.419   1.191   3.967 -0.4860  0.5692  0.3867
   54CHL1   H20 5153   3.509   1.249   3.938  0.7247 -1.2779  0.2226
   54CHL1   C21 5154   3.460   1.041   3.967  0.2285 -0.0433 -0.0308
   54CHL1  H21A 5155   3.369   0.977   3.970 -0.4886  0.9756  1.8155
   54CHL1  H21B 5156   3.532   1.025   4.050  0.4968  2.5366  0.3169
   54CHL1  H21C 5157   3.500   1.029   3.864  2.4839 -1.3083  0.9071
   54CHL1   C22 5158   3.375   1.251   4.105  0.6275 -0.0743 -0.4529
   54CHL1  H22A 5159   3.385   1.362   4.107 -1.3142  0.1343 -0.0381
   54CHL1  H22B 5160   3.269   1.219   4.116  0.6258  0.6400  2.1434
   54CHL1   C23 5161   3.444   1.202   4.238  1.0459 -0.3678  0.7086
   54CHL1  H23A 5162   3.421   1.094   4.233 -2.7808  0.3074 -4.1366
   54CHL1  H23B 5163   3.553   1.217   4.227  0.9522  0.6245  0.9651
   54CHL1   C24 5164   3.389   1.266   4.367  0.2851 -0.1375  0.7004
   54CHL1  H24A 5165   3.410   1.375   4.366  1.0856 -0.2285 -2.2764
   54CHL1  H24B 5166   3.280   1.244   4.366  0.3996 -0.7267 -0.3835
   54CHL1   C25 5167   3.460   1.205   4.486  0.4583  0.2332  0.2681
   54CHL1   H25 5168   3.568   1.219   4.466  0.0456 -0.0635 -2.4405
   54CHL1   C26 5169   3.436   1.289   4.611 -0.1257 -0.6635 -1.0992
   54CHL1  H26A 5170   3.462   1.396   4.593 -2.0574  0.1518  0.4853
   54CHL1  H26B 5171   3.330   1.284   4.643  0.7773  0.5027  2.5498
   54CHL1  H26C 5172   3.505   1.257   4.692  1.1677  0.5019 -1.6861
   54CHL1   C27 5173   3.413   1.060   4.504 -0.2391 -0.2358  0.0804
   54CHL1  H27A 5174   3.465   1.012   4.590 -1.8649 -3.1989 -0.4458
   54CHL1  H27B 5175   3.303   1.062   4.521 -0.2513 -0.0671 -0.0168
   54CHL1  H27C 5176   3.434   1.001   4.412 -1.1270 -0.0119 -0.2808
   55CHL1    C3 5177   5.848   2.467   2.793 -0.5956  0.3015 -0.7194
   55CHL1    H3 5178   5.958   2.482   2.797 -0.4665 -0.7136 -0.2363
   55CHL1    O3 5179   5.792   2.507   2.666  0.6063  0.3612  0.1154
   55CHL1   H3' 5180   5.869   2.525   2.612  0.3648  1.2314  0.0477
   55CHL1    C4 5181   5.827   2.317   2.809  0.1824 -0.4046 -0.0574
   55CHL1   H4A 5182   5.718   2.298   2.810 -0.3832  2.1097  2.8176
   55CHL1   H4B 5183   5.872   2.270   2.719  2.7064 -1.0737  1.4656
   55CHL1    C5 5184   5.877   2.272   2.944 -0.0694 -0.1830 -0.0092
   55CHL1    C6 5185   5.956   2.164   2.956 -0.2344 -0.2238 -0.0046
   55CHL1    H6 5186   5.985   2.104   2.868  0.4347 -0.2529  0.2279
   55CHL1    C7 5187   6.011   2.114   3.084 -0.0265 -0.0353 -0.1764
   55CHL1   H7A 5188   6.002   2.004   3.090 -0.1251  0.0232  1.0675
   55CHL1   H7B 5189   6.118   2.144   3.091 -1.1645  4.6140  0.8172
   55CHL1    C8 5190   5.922   2.163   3.206 -0.5961 -0.9199 -0.6561
   55CHL1    H8 5191   5.824   2.110   3.202 -1.4950  0.5784  0.4587
   55CHL1   C14 5192   5.986   2.131   3.343  0.0758  0.0581 -0.1610
   55CHL1   H14 5193   6.082   2.186   3.345 -0.0267  0.2411  2.4530
   55CHL1   C15 5194   6.025   1.984   3.361  0.7198  0.3095 -0.1055
   55CHL1  H15A 5195   5.944   1.915   3.329  2.0990 -2.4175  1.8203
   55CHL1  H15B 5196   6.112   1.951   3.300 -0.1907  0.3827 -1.4936
   55CHL1   C16 5197   6.058   1.973   3.515  0.4370 -0.1118  0.0504
   55CHL1  H16A 5198   6.000   1.889   3.558 -1.3399  0.4069 -1.2479
   55CHL1  H16B 5199   6.165   1.946   3.529  0.8207  0.0157 -2.2809
   55CHL1   C17 5200   6.027   2.118   3.573 -0.5791  0.5545 -1.0436
   55CHL1   H17 5201   6.119   2.173   3.547  1.3151 -0.9312  1.8623
   55CHL1   C13 5202   5.921   2.170   3.478 -1.0635 -0.8198  0.1286
   55CHL1   C18 5203   5.790   2.092   3.504  0.2981  0.1044  0.4739
   55CHL1  H18A 5204   5.739   2.114   3.600 -0.8786 -1.0110  0.1335
   55CHL1  H18B 5205   5.726   2.101   3.413 -0.1985 -1.8493  0.5906
   55CHL1  H18C 5206   5.812   1.985   3.486 -3.0349 -0.3826 -1.6843
   55CHL1   C12 5207   5.896   2.322   3.468 -0.8392  0.7286 -0.0133
   55CHL1  H12A 5208   5.834   2.350   3.556 -0.4790 -0.4211  0.6133
   55CHL1  H12B 5209   5.990   2.381   3.464 -0.5109  0.1586 -1.1944
   55CHL1   C11 5210   5.821   2.356   3.337  0.1519 -0.0210  0.2037
   55CHL1  H11A 5211   5.726   2.299   3.349  0.3994 -0.5682 -0.3529
   55CHL1  H11B 5212   5.789   2.462   3.340 -0.1009 -0.1099  2.5533
   55CHL1    C9 5213   5.891   2.313   3.201 -0.4085  0.7965 -0.8519
   55CHL1    H9 5214   5.990   2.363   3.194 -0.7769  1.8741  0.8940
   55CHL1   C10 5215   5.822   2.353   3.072 -0.2420  0.5659  0.1906
   55CHL1   C19 5216   5.665   2.323   3.077 -0.2771  0.0754 -0.0025
   55CHL1  H19A 5217   5.622   2.368   3.169 -0.5103 -0.8189  0.3294
   55CHL1  H19B 5218   5.611   2.371   2.993 -0.1744  0.6088  0.2275
   55CHL1  H19C 5219   5.643   2.214   3.073 -1.6513  0.3628 -2.7644
   55CHL1    C1 5220   5.832   2.509   3.049 -0.1243  0.5692 -0.2405
   55CHL1   H1A 5221   5.776   2.564   3.127 -0.2737 -0.7282  0.6147
   55CHL1   H1B 5222   5.943   2.523   3.046 -0.0319 -0.2228 -0.7609
   55CHL1    C2 5223   5.785   2.552   2.904 -0.1422  0.7972 -0.7504
   55CHL1   H2A 5224   5.815   2.658   2.888 -1.9936  1.1212 -2.6449
   55CHL1   H2B 5225   5.674   2.547   2.907 -0.1132  0.5245 -0.0590
   55CHL1   C20 5226   6.009   2.109   3.725  0.5032 -0.6444 -0.3613
   55CHL1   H20 5227   5.924   2.044   3.754  1.7655 -1.1566  2.4732
   55CHL1   C21 5228   5.978   2.251   3.781  0.5913 -0.0597  0.3923
   55CHL1  H21A 5229   6.068   2.311   3.760 -0.2455  1.4814  1.0155
   55CHL1  H21B 5230   5.962   2.253   3.891  1.1389  0.6910  0.4669
   55CHL1  H21C 5231   5.895   2.305   3.731  1.6020  0.9567 -0.2303
   55CHL1   C22 5232   6.138   2.042   3.787  0.4240  0.1358  0.4902
   55CHL1  H22A 5233   6.142   1.934   3.762 -1.6027 -0.6306  3.0863
   55CHL1  H22B 5234   6.223   2.095   3.739 -0.2579  0.6785 -0.1376
   55CHL1   C23 5235   6.142   2.048   3.943 -0.6723 -0.4854  0.7832
   55CHL1  H23A 5236   6.239   2.001   3.969 -0.2089 -0.6035 -1.0359
   55CHL1  H23B 5237   6.157   2.151   3.981  3.7995 -1.6208  2.7492
   55CHL1   C24 5238   6.017   1.979   4.007 -0.3680  0.5190  0.3062
   55CHL1  H24A 5239   5.919   2.031   3.999 -1.0387 -0.7268 -0.0304
   55CHL1  H24B 5240   6.010   1.882   3.952 -1.3569  1.5971 -1.5771
   55CHL1   C25 5241   6.042   1.947   4.158 -0.3682  0.3385  0.5780
   55CHL1   H25 5242   5.956   1.889   4.199 -0.6236  0.6221  0.4484
   55CHL1   C26 5243   6.164   1.857   4.180  0.3646  0.5346 -0.1997
   55CHL1  H26A 5244   6.190   1.851   4.288  0.5249 -2.6116 -0.3247
   55CHL1  H26B 5245   6.141   1.758   4.136 -0.1114  1.5460 -2.3392
   55CHL1  H26C 5246   6.253   1.909   4.138  0.6414 -0.7177 -1.2280
   55CHL1   C27 5247   6.054   2.073   4.241  0.3441  0.1600 -0.1523
   55CHL1  H27A 5248   6.100   2.049   4.339  0.2594 -1.4492 -0.4706
   55CHL1  H27B 5249   6.135   2.127   4.187  0.3728 -0.8520 -1.1716
   55CHL1  H27C 5250   5.967   2.142   4.236 -0.2533 -0.6199 -0.9796
   56CHL1    C3 5251   0.515   4.743   3.007 -0.4415  0.9224  0.1476
   56CHL1    H3 5252   0.477   4.641   3.033 -1.1322  0.6248 -1.8909
   56CHL1    O3 5253   0.543   4.750   2.869 -0.1851 -0.3695  0.0380
   56CHL1   H3' 5254   0.636   4.731   2.857 -0.1137 -0.8522  1.3105
   56CHL1    C4 5255   0.414   4.849   3.052  0.4474 -0.0474  0.1392
   56CHL1   H4A 5256   0.464   4.947   3.040 -1.9902  1.3030  0.4599
   56CHL1   H4B 5257   0.322   4.846   2.989  0.1883 -1.3164  0.5382
   56CHL1    C5 5258   0.384   4.833   3.198  0.1358  0.3991 -0.7824
   56CHL1    C6 5259   0.256   4.820   3.244 -0.2688 -0.1828  0.1040
   56CHL1    H6 5260   0.171   4.827   3.175 -0.0228 -0.9472 -0.2932
   56CHL1    C7 5261   0.207   4.806   3.385 -0.1636  0.1535 -0.5646
   56CHL1   H7A 5262   0.121   4.870   3.415  1.5042  2.3450 -0.2045
   56CHL1   H7B 5263   0.176   4.702   3.408 -1.9191  1.1224  1.9311
   56CHL1    C8 5264   0.322   4.841   3.479 -0.4024 -0.2190 -0.1491
   56CHL1    H8 5265   0.330   4.952   3.476 -1.0056 -0.1722 -0.2276
   56CHL1   C14 5266   0.290   4.799   3.624 -0.3435  0.0147  0.6143
   56CHL1   H14 5267   0.288   4.688   3.619 -0.3452  0.0579 -0.8928
   56CHL1   C15 5268   0.155   4.850   3.681 -0.2917  0.6532  0.2534
   56CHL1  H15A 5269   0.133   4.947   3.633 -0.3705 -0.9733 -3.2607
   56CHL1  H15B 5270   0.070   4.786   3.650  0.5998 -0.2944 -0.3290
   56CHL1   C16 5271   0.182   4.850   3.837  0.2292  0.6082 -0.6248
   56CHL1  H16A 5272   0.164   4.954   3.870 -0.9111  0.2627 -0.1090
   56CHL1  H16B 5273   0.099   4.784   3.870 -1.6356  3.2040  0.1165
   56CHL1   C17 5274   0.329   4.794   3.861  0.0635 -0.2325  1.0995
   56CHL1   H17 5275   0.318   4.684   3.856 -1.7689 -0.0576  0.8223
   56CHL1   C13 5276   0.395   4.838   3.724  0.1240  0.4922  0.0716
   56CHL1   C18 5277   0.420   4.991   3.726  0.4543 -0.2176 -0.5284
   56CHL1  H18A 5278   0.325   5.049   3.722  1.4119  1.4406 -0.1215
   56CHL1  H18B 5279   0.478   5.032   3.811 -0.8817 -0.6283  0.6198
   56CHL1  H18C 5280   0.470   5.020   3.631 -0.8288 -0.6068 -1.3599
   56CHL1   C12 5281   0.524   4.764   3.683  0.1377 -0.8188 -0.8508
   56CHL1  H12A 5282   0.605   4.788   3.756 -0.7165  2.1788 -0.7451
   56CHL1  H12B 5283   0.514   4.654   3.689  0.6751 -0.8543 -0.5773
   56CHL1   C11 5284   0.574   4.794   3.539 -0.2819  0.2166 -0.3317
   56CHL1  H11A 5285   0.610   4.899   3.536  2.0086 -0.4881  0.2743
   56CHL1  H11B 5286   0.663   4.732   3.513  0.8384  1.1119  1.1441
   56CHL1    C9 5287   0.461   4.784   3.436 -0.6222 -0.2479  0.4770
   56CHL1    H9 5288   0.435   4.677   3.423  0.0420 -0.2722 -0.7555
   56CHL1   C10 5289   0.502   4.837   3.297 -0.2829 -0.2381 -0.5124
   56CHL1   C19 5290   0.547   4.989   3.304  0.2378  0.2032 -0.3424
   56CHL1  H19A 5291   0.649   4.987   3.349  0.8630  2.0211 -1.5669
   56CHL1  H19B 5292   0.549   5.033   3.203  0.9123 -1.3013 -1.0177
   56CHL1  H19C 5293   0.477   5.054   3.361  1.5218  0.2933  1.2024
   56CHL1    C1 5294   0.621   4.753   3.241 -0.3947  0.0928  0.1923
   56CHL1   H1A 5295   0.715   4.785   3.290  0.6478 -3.6169  0.9302
   56CHL1   H1B 5296   0.609   4.644   3.262  0.5403 -0.1700 -0.5746
   56CHL1    C2 5297   0.644   4.764   3.091 -0.1847 -0.4744 -0.1790
   56CHL1   H2A 5298   0.731   4.701   3.061  0.0148 -0.7070  0.8158
   56CHL1   H2B 5299   0.666   4.871   3.073 -2.2847  0.0873  0.3321
   56CHL1   C20 5300   0.384   4.832   3.998 -0.1093 -0.1099 -0.1286
   56CHL1   H20 5301   0.370   4.941   4.010  1.2623  0.0232  0.3816
   56CHL1   C21 5302   0.527   4.787   4.014  0.0575  0.1697 -0.0258
   56CHL1  H21A 5303   0.546   4.679   3.998  0.2109  0.1043  0.5610
   56CHL1  H21B 5304   0.555   4.812   4.119 -1.7664  2.0446  0.0836
   56CHL1  H21C 5305   0.602   4.842   3.953 -1.5838 -0.2030 -2.5311
   56CHL1   C22 5306   0.289   4.773   4.105 -0.1093  0.7815 -0.2737
   56CHL1  H22A 5307   0.185   4.752   4.070  0.5365 -1.2815 -1.1168
   56CHL1  H22B 5308   0.326   4.669   4.119  0.2330  0.9015 -0.2789
   56CHL1   C23 5309   0.292   4.860   4.241 -0.4109 -0.0441  0.1290
   56CHL1  H23A 5310   0.393   4.852   4.287  0.4530 -0.5147 -1.7691
   56CHL1  H23B 5311   0.267   4.966   4.220 -1.7216 -0.1000  1.2547
   56CHL1   C24 5312   0.186   4.806   4.343 -0.7865 -0.3473  0.2069
   56CHL1  H24A 5313   0.087   4.828   4.296 -1.2443 -0.7980  0.9400
   56CHL1  H24B 5314   0.207   4.700   4.366  2.6487  0.2240  0.2845
   56CHL1   C25 5315   0.184   4.875   4.481  0.4151 -0.5501  0.2198
   56CHL1   H25 5316   0.288   4.905   4.507  0.0247 -0.1839  1.4558
   56CHL1   C26 5317   0.104   5.005   4.477 -0.9966 -0.1491  0.4741
   56CHL1  H26A 5318   0.097   5.074   4.563 -0.8856 -0.6675  0.9012
   56CHL1  H26B 5319   0.151   5.071   4.401 -2.9765  0.1412 -0.5743
   56CHL1  H26C 5320  -0.000   4.978   4.449 -2.1818  0.1957  4.0663
   56CHL1   C27 5321   0.135   4.772   4.586 -0.3579  0.1298  0.5430
   56CHL1  H27A 5322   0.221   4.702   4.590  0.4682  0.8940 -2.1747
   56CHL1  H27B 5323   0.109   4.826   4.680 -0.4826  2.3622 -0.6971
   56CHL1  H27C 5324   0.033   4.738   4.556  0.4129 -2.4379  0.6338
   57CHL1    C3 5325   5.390   3.122   2.682 -0.3961 -0.6015  0.1172
   57CHL1    H3 5326   5.330   3.193   2.742  1.2492 -0.4189  1.6319
   57CHL1    O3 5327   5.349   3.148   2.550 -0.1757 -0.2851 -0.1112
   57CHL1   H3' 5328   5.397   3.087   2.494  0.6614 -0.6440  0.9685
   57CHL1    C4 5329   5.538   3.155   2.712 -0.2572 -0.3664  0.0719
   57CHL1   H4A 5330   5.594   3.089   2.642  1.8500  1.2331  0.1368
   57CHL1   H4B 5331   5.555   3.265   2.705  1.3461 -0.3844  2.3812
   57CHL1    C5 5332   5.578   3.133   2.857 -0.3304  0.4420 -0.5004
   57CHL1    C6 5333   5.630   3.227   2.940  0.2996  0.1092  0.1713
   57CHL1    H6 5334   5.638   3.331   2.904  0.7517  0.5743  1.5602
   57CHL1    C7 5335   5.676   3.211   3.082  0.3486 -0.0415  0.1297
   57CHL1   H7A 5336   5.781   3.246   3.093  0.8321 -1.9735  2.8274
   57CHL1   H7B 5337   5.632   3.275   3.162  0.6948  1.1864 -0.6295
   57CHL1    C8 5338   5.680   3.063   3.114  0.1046  0.4506 -0.3510
   57CHL1    H8 5339   5.782   3.032   3.080  1.5604  0.4390  3.4789
   57CHL1   C14 5340   5.681   3.049   3.265  0.1659  0.2086  0.3617
   57CHL1   H14 5341   5.580   3.083   3.294 -1.0384 -0.4406 -2.6985
   57CHL1   C15 5342   5.775   3.141   3.343  0.0572  0.0187  0.3079
   57CHL1  H15A 5343   5.874   3.140   3.293 -0.8087 -0.4267 -1.4603
   57CHL1  H15B 5344   5.725   3.240   3.356  0.4625  0.8979 -3.5746
   57CHL1   C16 5345   5.790   3.071   3.485 -0.0283 -0.1819 -1.0340
   57CHL1  H16A 5346   5.897   3.046   3.501 -0.4636 -1.1229  0.6390
   57CHL1  H16B 5347   5.748   3.131   3.569 -3.4284 -0.5375 -2.3327
   57CHL1   C17 5348   5.710   2.935   3.469 -0.3095  0.0634  0.3016
   57CHL1   H17 5349   5.604   2.949   3.499 -0.2396 -1.9025  1.6544
   57CHL1   C13 5350   5.698   2.913   3.315 -0.3143 -0.5251  0.7443
   57CHL1   C18 5351   5.829   2.855   3.263  0.4638 -0.2324 -0.1890
   57CHL1  H18A 5352   5.915   2.919   3.292  1.3868 -1.7036  0.4843
   57CHL1  H18B 5353   5.837   2.752   3.305  2.5107  0.2113  0.6558
   57CHL1  H18C 5354   5.830   2.835   3.153  0.8819  1.4946 -0.5322
   57CHL1   C12 5355   5.569   2.836   3.283  0.6514  0.6135 -0.6164
   57CHL1  H12A 5356   5.592   2.731   3.313 -1.6394  0.3968  0.6529
   57CHL1  H12B 5357   5.484   2.870   3.346  0.0818  0.5761 -1.3543
   57CHL1   C11 5358   5.544   2.841   3.130  0.1811  0.2903 -0.1093
   57CHL1  H11A 5359   5.612   2.764   3.088 -0.2155  0.1240 -0.4513
   57CHL1  H11B 5360   5.446   2.796   3.105  0.0776 -0.6791  1.8291
   57CHL1    C9 5361   5.559   2.977   3.070 -0.0444  0.0074  0.8125
   57CHL1    H9 5362   5.472   3.032   3.111 -1.5324  0.3781 -2.4769
   57CHL1   C10 5363   5.541   2.990   2.913 -0.6201  0.6184  0.5055
   57CHL1   C19 5364   5.640   2.880   2.862 -0.4069  0.8283  0.0581
   57CHL1  H19A 5365   5.744   2.886   2.903  0.3211 -2.9569 -0.9000
   57CHL1  H19B 5366   5.592   2.782   2.879  0.4294  0.4364  0.1907
   57CHL1  H19C 5367   5.663   2.887   2.754 -0.7851 -1.3187 -0.1959
   57CHL1    C1 5368   5.396   2.961   2.877 -0.0813  0.4431  0.0253
   57CHL1   H1A 5369   5.362   2.860   2.906  1.3142 -0.2315 -0.5978
   57CHL1   H1B 5370   5.327   3.024   2.936 -1.9784 -2.1612  0.7387
   57CHL1    C2 5371   5.360   2.979   2.724 -0.7177  0.2204 -0.8075
   57CHL1   H2A 5372   5.250   2.969   2.720 -0.9510  1.7993  0.5263
   57CHL1   H2B 5373   5.409   2.902   2.660  1.9619 -0.7011  2.0908
   57CHL1   C20 5374   5.749   2.815   3.556 -0.0836 -0.4090  0.2952
   57CHL1   H20 5375   5.736   2.715   3.511 -2.8952 -1.3224  2.7918
   57CHL1   C21 5376   5.650   2.832   3.675 -0.5663 -0.6096  0.4227
   57CHL1  H21A 5377   5.671   2.746   3.742 -2.0600 -0.4268  1.1861
   57CHL1  H21B 5378   5.546   2.837   3.637 -0.2218 -0.9391 -0.5933
   57CHL1  H21C 5379   5.670   2.928   3.727 -0.8543  0.8121 -1.9459
   57CHL1   C22 5380   5.895   2.825   3.614 -0.3890  0.4632 -0.2164
   57CHL1  H22A 5381   5.979   2.821   3.541  0.5392  1.2399  0.7833
   57CHL1  H22B 5382   5.916   2.912   3.679  1.3785 -0.4685  0.5307
   57CHL1   C23 5383   5.937   2.701   3.699  0.6151 -0.1113 -0.3507
   57CHL1  H23A 5384   5.852   2.664   3.760  0.6558 -2.3616 -1.5630
   57CHL1  H23B 5385   5.969   2.618   3.633  0.2791  1.0021 -1.9748
   57CHL1   C24 5386   6.061   2.722   3.796  0.1180 -0.2973  0.2958
   57CHL1  H24A 5387   6.143   2.777   3.744  1.1026  0.2686  2.3429
   57CHL1  H24B 5388   6.011   2.788   3.871 -1.0655  1.3095 -1.8091
   57CHL1   C25 5389   6.120   2.593   3.869  0.3336 -0.4946  0.2606
   57CHL1   H25 5390   6.151   2.512   3.799 -0.4261 -1.8898  1.4753
   57CHL1   C26 5391   6.238   2.631   3.950 -0.0766  0.2108  0.1456
   57CHL1  H26A 5392   6.279   2.542   4.002 -1.1123 -0.5827 -0.3578
   57CHL1  H26B 5393   6.324   2.662   3.886  0.0809 -0.7150 -0.1049
   57CHL1  H26C 5394   6.210   2.705   4.028  1.9273  0.0878  1.0603
   57CHL1   C27 5395   6.011   2.532   3.967 -0.5001 -0.5068 -0.1351
   57CHL1  H27A 5396   5.928   2.484   3.911 -0.7543 -0.8224  0.5149
   57CHL1  H27B 5397   6.050   2.459   4.041 -0.3999  0.5980  0.9312
   57CHL1  H27C 5398   5.964   2.609   4.031 -1.4199 -1.5377  0.4488
   58CHL1    C3 5399   6.084   4.064   6.361  0.1408 -0.2249 -0.4690
   58CHL1    H3 5400   6.114   3.957   6.363  0.9750  0.0036  1.1996
   58CHL1    O3 5401   6.096   4.099   6.495  0.1331  0.2419 -0.1318
   58CHL1   H3' 5402   6.119   4.191   6.506 -1.1784  0.4713  1.0677
   58CHL1    C4 5403   6.170   4.161   6.273 -0.1323 -0.7431 -0.7187
   58CHL1   H4A 5404   6.134   4.264   6.292 -1.6903 -1.3988  0.0215
   58CHL1   H4B 5405   6.273   4.167   6.314  0.7493 -1.2064 -2.7350
   58CHL1    C5 5406   6.173   4.127   6.125 -0.4312 -0.1853 -0.3555
   58CHL1    C6 5407   6.290   4.099   6.071  0.2025  0.4404 -0.0616
   58CHL1    H6 5408   6.390   4.109   6.117  0.6566  1.2230 -1.1664
   58CHL1    C7 5409   6.295   4.053   5.931 -0.0796  0.2432  0.4350
   58CHL1   H7A 5410   6.383   4.093   5.875 -1.0177 -0.0770 -1.3568
   58CHL1   H7B 5411   6.301   3.942   5.926  1.8085  0.2686  1.0556
   58CHL1    C8 5412   6.169   4.089   5.847  0.1034 -0.4057 -0.3603
   58CHL1    H8 5413   6.171   4.200   5.834  1.2610 -0.3273  0.3436
   58CHL1   C14 5414   6.180   4.021   5.714 -0.2071  0.5863 -0.4306
   58CHL1   H14 5415   6.173   3.913   5.741  0.6525  0.4365 -0.7847
   58CHL1   C15 5416   6.312   4.050   5.631  0.7336  0.6206 -0.1562
   58CHL1  H15A 5417   6.335   4.159   5.634  2.0509  0.3514  0.1924
   58CHL1  H15B 5418   6.399   3.996   5.673 -1.3628 -2.2696  0.7857
   58CHL1   C16 5419   6.273   4.004   5.488 -0.3627 -0.2766  0.1482
   58CHL1  H16A 5420   6.279   4.085   5.412 -1.6342  1.4412  1.7594
   58CHL1  H16B 5421   6.337   3.922   5.451 -0.2012  0.8241 -2.2338
   58CHL1   C17 5422   6.123   3.962   5.496 -0.0308 -0.6756 -0.4500
   58CHL1   H17 5423   6.122   3.859   5.537 -0.4714  0.8183  3.7845
   58CHL1   C13 5424   6.070   4.044   5.615 -0.6312 -0.9860  0.4247
   58CHL1   C18 5425   6.057   4.189   5.565  0.6484 -0.2377 -0.0393
   58CHL1  H18A 5426   6.028   4.259   5.646  0.8030  0.0754 -0.2519
   58CHL1  H18B 5427   6.153   4.230   5.528  0.8687  2.2955  2.9214
   58CHL1  H18C 5428   5.989   4.198   5.479 -0.6775 -2.0609  0.7470
   58CHL1   C12 5429   5.935   4.004   5.688 -0.4166  0.5542 -0.9978
   58CHL1  H12A 5430   5.843   4.034   5.634 -1.1442 -0.7728 -0.5308
   58CHL1  H12B 5431   5.933   3.893   5.683  1.4105  0.5141 -2.4776
   58CHL1   C11 5432   5.918   4.067   5.835  0.4339  0.4002  0.2227
   58CHL1  H11A 5433   5.898   4.175   5.821 -3.0045 -0.3494 -1.8514
   58CHL1  H11B 5434   5.823   4.028   5.879  0.7134  0.8921  1.3005
   58CHL1    C9 5435   6.041   4.047   5.923 -0.3046  0.0764  0.2308
   58CHL1    H9 5436   6.054   3.937   5.932 -0.8538  0.0436  0.6457
   58CHL1   C10 5437   6.037   4.119   6.061  0.2522 -0.6831  0.1103
   58CHL1   C19 5438   5.977   4.266   6.048  0.2831  0.2319  0.2358
   58CHL1  H19A 5439   5.871   4.260   6.018 -0.1750 -2.1526  2.0599
   58CHL1  H19B 5440   5.976   4.322   6.145  0.4801 -0.1712  0.4711
   58CHL1  H19C 5441   6.037   4.327   5.976 -1.8769  0.7239 -1.2352
   58CHL1    C1 5442   5.933   4.043   6.159  0.6327  0.0871  0.7264
   58CHL1   H1A 5443   5.829   4.062   6.124  0.8457  3.4559  1.5313
   58CHL1   H1B 5444   5.960   3.937   6.140  1.2977  0.3778 -0.0417
   58CHL1    C2 5445   5.940   4.076   6.309  0.6316 -0.4890 -0.0340
   58CHL1   H2A 5446   5.876   4.003   6.362 -0.4576 -1.1459 -2.1187
   58CHL1   H2B 5447   5.896   4.178   6.306 -0.2841 -0.8696 -2.4107
   58CHL1   C20 5448   6.045   3.971   5.362 -0.9949  0.7717  0.3805
   58CHL1   H20 5449   6.018   4.073   5.328 -2.7264  0.3300  0.3086
   58CHL1   C21 5450   5.907   3.898   5.376 -0.1311  0.3281  0.5510
   58CHL1  H21A 5451   5.866   3.870   5.277  3.9269  0.3951 -1.3702
   58CHL1  H21B 5452   5.829   3.960   5.424  0.7918  0.6046  1.7511
   58CHL1  H21C 5453   5.907   3.799   5.427 -2.6981  0.7637  1.5607
   58CHL1   C22 5454   6.122   3.901   5.242 -0.6205 -0.4029 -0.6232
   58CHL1  H22A 5455   6.228   3.931   5.239 -0.1430 -1.8327  0.4850
   58CHL1  H22B 5456   6.116   3.793   5.270  1.0950  0.3911  3.3315
   58CHL1   C23 5457   6.042   3.931   5.110  0.1241  0.9341 -0.7064
   58CHL1  H23A 5458   5.945   3.877   5.101  0.3537  0.4363 -0.2479
   58CHL1  H23B 5459   6.027   4.041   5.118 -1.2530  0.6930  0.4665
   58CHL1   C24 5460   6.128   3.906   4.988 -0.9071  0.0246  0.8776
   58CHL1  H24A 5461   6.223   3.955   5.017 -1.4123  1.6686 -0.1114
   58CHL1  H24B 5462   6.134   3.797   4.965  0.7405  0.3904 -0.6471
   58CHL1   C25 5463   6.084   3.976   4.854 -0.0930 -0.2965  0.4946
   58CHL1   H25 5464   6.076   4.085   4.870  0.7508 -0.2929  0.9521
   58CHL1   C26 5465   6.194   3.951   4.741  0.8173 -0.6386  0.0900
   58CHL1  H26A 5466   6.197   3.845   4.706  1.1727 -0.2013 -1.2512
   58CHL1  H26B 5467   6.165   4.013   4.654  0.6400 -0.3660  0.3397
   58CHL1  H26C 5468   6.298   3.975   4.771  0.5365  0.5034  0.2119
   58CHL1   C27 5469   5.950   3.912   4.807  0.0526  0.1106 -0.0206
   58CHL1  H27A 5470   5.910   3.965   4.719 -0.0292  1.9492  1.0781
   58CHL1  H27B 5471   5.968   3.806   4.776  2.8811  0.6254 -0.4371
   58CHL1  H27C 5472   5.868   3.916   4.882  1.2813 -0.4728  1.4306
   59CHL1    C3 5473   5.034   3.396   3.032  0.2440  0.0302 -0.2330
   59CHL1    H3 5474   5.047   3.500   3.069  0.7015  0.5408 -1.7662
   59CHL1    O3 5475   4.987   3.401   2.900 -0.5629 -0.0440 -0.0978
   59CHL1   H3' 5476   4.988   3.312   2.867  0.7057  0.4707 -1.5247
   59CHL1    C4 5477   5.172   3.326   3.036 -0.2226  0.5171 -0.4027
   59CHL1   H4A 5478   5.168   3.226   2.987  0.2189 -0.2562  1.0742
   59CHL1   H4B 5479   5.246   3.387   2.981  0.0251  0.0901 -0.5476
   59CHL1    C5 5480   5.222   3.307   3.185  0.0785 -1.2525  1.1408
   59CHL1    C6 5481   5.345   3.356   3.216  0.5811 -0.1519  0.5929
   59CHL1    H6 5482   5.393   3.411   3.134 -0.1647 -1.4393 -0.7396
   59CHL1    C7 5483   5.394   3.356   3.355  0.0384 -0.1148  0.1725
   59CHL1   H7A 5484   5.501   3.326   3.367  0.5180  0.8221 -1.5086
   59CHL1   H7B 5485   5.392   3.460   3.393  0.6145  0.9717 -2.5221
   59CHL1    C8 5486   5.319   3.256   3.452  0.4732 -0.6939 -0.0881
   59CHL1    H8 5487   5.351   3.151   3.436 -0.3179 -0.6076 -2.7746
   59CHL1   C14 5488   5.355   3.297   3.600  0.0268 -0.5531 -0.2825
   59CHL1   H14 5489   5.334   3.406   3.609 -0.6758 -0.7404  0.4868
   59CHL1   C15 5490   5.503   3.280   3.644 -0.5824 -0.3282 -0.5023
   59CHL1  H15A 5491   5.549   3.181   3.621  0.3880  0.0394 -0.1976
   59CHL1  H15B 5492   5.578   3.347   3.597  0.6185 -0.7393  0.7365
   59CHL1   C16 5493   5.497   3.293   3.797 -0.4580  0.5023 -0.2662
   59CHL1  H16A 5494   5.537   3.197   3.835 -1.8096 -0.7594 -1.9080
   59CHL1  H16B 5495   5.559   3.376   3.836  0.6725 -1.3650  2.1774
   59CHL1   C17 5496   5.342   3.308   3.826  0.1320  0.1028  0.0861
   59CHL1   H17 5497   5.323   3.417   3.821 -0.0126  0.0228 -1.9912
   59CHL1   C13 5498   5.270   3.240   3.706  0.2868  0.4782  0.0051
   59CHL1   C18 5499   5.297   3.085   3.705 -0.3451 -0.1384 -0.0010
   59CHL1  H18A 5500   5.391   3.050   3.751 -1.0415  0.1080  1.6822
   59CHL1  H18B 5501   5.214   3.040   3.764 -0.3466 -0.0229  0.0844
   59CHL1  H18C 5502   5.283   3.045   3.602 -0.4708  0.1476 -0.0975
   59CHL1   C12 5503   5.121   3.279   3.680 -0.0624 -0.4177  0.0882
   59CHL1  H12A 5504   5.067   3.231   3.765 -1.3546  0.5412 -0.1620
   59CHL1  H12B 5505   5.107   3.388   3.692  1.6339 -0.2221  0.5869
   59CHL1   C11 5506   5.073   3.224   3.544 -0.0604  0.2737 -0.5050
   59CHL1  H11A 5507   5.083   3.114   3.553 -0.6232  0.3608  1.8552
   59CHL1  H11B 5508   4.968   3.250   3.522 -0.5792 -0.8494  0.5363
   59CHL1    C9 5509   5.169   3.276   3.432 -0.3541  0.1160  0.2554
   59CHL1    H9 5510   5.153   3.386   3.429 -1.0630 -0.0079 -1.1606
   59CHL1   C10 5511   5.121   3.249   3.285 -0.0374 -1.1764  0.7588
   59CHL1   C19 5512   5.118   3.093   3.257 -0.0338  0.1024  0.1606
   59CHL1  H19A 5513   5.045   3.059   3.333  0.4046 -0.3083  0.4046
   59CHL1  H19B 5514   5.086   3.060   3.156  0.3385  3.9479 -1.4147
   59CHL1  H19C 5515   5.220   3.059   3.285 -0.3965  0.1553  1.6330
   59CHL1    C1 5516   4.984   3.323   3.266  0.5215  0.2221 -0.1956
   59CHL1   H1A 5517   4.910   3.259   3.319  0.6034 -0.4105 -0.8141
   59CHL1   H1B 5518   4.982   3.429   3.296  0.3941  0.5306 -1.2467
   59CHL1    C2 5519   4.930   3.328   3.121 -0.9346  0.1194  0.0703
   59CHL1   H2A 5520   4.831   3.377   3.136 -0.7221  0.1637  1.5078
   59CHL1   H2B 5521   4.911   3.226   3.081 -2.2164  0.6154 -0.6599
   59CHL1   C20 5522   5.285   3.269   3.968 -0.2884  0.1201  0.2392
   59CHL1   H20 5523   5.177   3.250   3.955 -0.1156 -0.7532 -0.0486
   59CHL1   C21 5524   5.291   3.389   4.062 -0.0026 -0.1151 -0.0346
   59CHL1  H21A 5525   5.228   3.371   4.151 -1.9931 -0.9190 -1.5469
   59CHL1  H21B 5526   5.261   3.483   4.011  3.1993  0.8106 -0.4264
   59CHL1  H21C 5527   5.398   3.403   4.090 -0.2493  1.5229  0.2230
   59CHL1   C22 5528   5.342   3.140   4.035 -0.1163 -0.2943  0.1072
   59CHL1  H22A 5529   5.269   3.119   4.116  1.3053 -0.5202  1.3843
   59CHL1  H22B 5530   5.336   3.048   3.973 -1.1215  0.4020 -0.8573
   59CHL1   C23 5531   5.481   3.148   4.092  0.1704 -0.1265 -0.1769
   59CHL1  H23A 5532   5.553   3.198   4.023  0.5570 -1.9215 -1.1179
   59CHL1  H23B 5533   5.478   3.209   4.185 -0.1182 -3.8681  2.4771
   59CHL1   C24 5534   5.548   3.011   4.104 -0.1506  0.3618  0.4176
   59CHL1  H24A 5535   5.489   2.944   4.170 -1.2128  0.3889 -0.4708
   59CHL1  H24B 5536   5.541   2.980   3.998  0.9361 -0.4325  0.5650
   59CHL1   C25 5537   5.699   3.001   4.129 -1.2306 -0.3453 -0.8422
   59CHL1   H25 5538   5.752   3.094   4.098  2.2223 -1.8799 -0.0964
   59CHL1   C26 5539   5.734   2.991   4.282  0.0566 -0.5011  0.5060
   59CHL1  H26A 5540   5.690   2.899   4.326  1.9029 -0.3583  2.8613
   59CHL1  H26B 5541   5.842   2.983   4.303  0.5347 -0.1735 -1.5962
   59CHL1  H26C 5542   5.685   3.076   4.334  2.0972  0.2105  1.3638
   59CHL1   C27 5543   5.767   2.885   4.053 -0.3233  0.4824  0.2558
   59CHL1  H27A 5544   5.758   2.899   3.944  1.0443 -1.4865 -0.1580
   59CHL1  H27B 5545   5.875   2.864   4.071 -0.5593 -0.6540  0.4030
   59CHL1  H27C 5546   5.714   2.789   4.070  1.3251 -0.1606  2.2596
   60CHL1    C3 5547   5.477   6.047   2.976  0.6528 -0.7020 -0.0830
   60CHL1    H3 5548   5.556   6.125   2.967  0.8986 -1.2057 -4.0807
   60CHL1    O3 5549   5.482   5.975   2.852 -0.3505 -0.0506 -0.6011
   60CHL1   H3' 5550   5.575   5.966   2.828  0.0140  0.8815  0.4133
   60CHL1    C4 5551   5.522   5.943   3.088 -0.0181  0.0680  0.9734
   60CHL1   H4A 5552   5.456   5.856   3.068 -0.5313  0.4696  0.8905
   60CHL1   H4B 5553   5.623   5.915   3.053 -0.9787 -2.0055 -0.3248
   60CHL1    C5 5554   5.519   6.001   3.221 -0.2214 -0.3428  0.1959
   60CHL1    C6 5555   5.635   6.011   3.287 -0.5052  0.2510 -0.6808
   60CHL1    H6 5556   5.717   5.949   3.250 -1.4231 -0.2138 -2.0366
   60CHL1    C7 5557   5.648   6.061   3.434  0.7747 -0.0462  0.5197
   60CHL1   H7A 5558   5.703   5.989   3.499  0.3042  0.4514  1.5011
   60CHL1   H7B 5559   5.717   6.148   3.439 -0.2248  0.7827  0.2533
   60CHL1    C8 5560   5.512   6.077   3.497  1.4442 -1.4606 -0.1854
   60CHL1    H8 5561   5.474   5.973   3.507 -0.4473 -0.7031  1.0539
   60CHL1   C14 5562   5.511   6.143   3.638 -0.3954 -0.2939 -0.2517
   60CHL1   H14 5563   5.560   6.241   3.619 -0.7113  0.4247  2.2503
   60CHL1   C15 5564   5.586   6.084   3.761 -0.4073 -0.3261 -0.4393
   60CHL1  H15A 5565   5.563   5.976   3.753 -2.1380  0.0369 -0.8373
   60CHL1  H15B 5566   5.694   6.106   3.745 -1.2906  3.9152 -1.9780
   60CHL1   C16 5567   5.538   6.164   3.880 -0.4823  0.3822  0.3672
   60CHL1  H16A 5568   5.527   6.103   3.973  0.8686 -0.2591  0.1247
   60CHL1  H16B 5569   5.604   6.252   3.892 -1.8974  1.5135  0.1043
   60CHL1   C17 5570   5.406   6.236   3.836 -0.9484 -0.5636 -0.4102
   60CHL1   H17 5571   5.438   6.340   3.815  0.0402 -0.9904 -1.1267
   60CHL1   C13 5572   5.372   6.182   3.693 -0.4681 -0.4267 -0.1398
   60CHL1   C18 5573   5.288   6.047   3.719  0.1469 -0.1493 -0.5340
   60CHL1  H18A 5574   5.343   5.981   3.789  1.1079  0.3371 -0.8131
   60CHL1  H18B 5575   5.184   6.053   3.757  0.2195 -0.1354 -0.3352
   60CHL1  H18C 5576   5.279   5.997   3.621 -0.2100 -1.6533  0.2286
   60CHL1   C12 5577   5.310   6.278   3.600 -0.2809 -0.4039  0.4184
   60CHL1  H12A 5578   5.213   6.322   3.632  1.5754  2.8306  2.0969
   60CHL1  H12B 5579   5.370   6.369   3.580 -4.4296  1.9734 -2.7876
   60CHL1   C11 5580   5.284   6.213   3.467  0.0357  0.5928 -0.6351
   60CHL1  H11A 5581   5.198   6.142   3.476 -1.2924  2.0427 -1.3841
   60CHL1  H11B 5582   5.244   6.284   3.391 -0.1759  0.5662 -0.5508
   60CHL1    C9 5583   5.414   6.151   3.399 -0.4177 -1.0264  0.0547
   60CHL1    H9 5584   5.486   6.232   3.373 -2.7928  1.0732 -0.4803
   60CHL1   C10 5585   5.389   6.075   3.265 -0.5299 -0.1821 -0.2090
   60CHL1   C19 5586   5.288   5.960   3.296  0.0282 -0.8329  0.5563
   60CHL1  H19A 5587   5.188   6.001   3.322  0.0980 -1.5021  1.9808
   60CHL1  H19B 5588   5.267   5.897   3.207  0.8969 -0.5273  0.1183
   60CHL1  H19C 5589   5.318   5.894   3.381  1.0765 -0.1533  0.7369
   60CHL1    C1 5590   5.326   6.165   3.149 -0.8133  0.7630 -1.2075
   60CHL1   H1A 5591   5.221   6.183   3.179 -0.8047  0.8062 -1.2034
   60CHL1   H1B 5592   5.364   6.270   3.148 -2.8083  1.5493  0.1195
   60CHL1    C2 5593   5.341   6.099   3.010  0.3343 -0.2087  0.1947
   60CHL1   H2A 5594   5.310   6.173   2.933 -0.4235 -1.2923 -0.5698
   60CHL1   H2B 5595   5.270   6.014   3.011  0.2760 -0.1714 -0.5443
   60CHL1   C20 5596   5.300   6.242   3.945 -0.1407  0.4720 -0.3486
   60CHL1   H20 5597   5.282   6.136   3.972  1.6748 -0.0820 -1.1051
   60CHL1   C21 5598   5.167   6.311   3.904 -0.4497  0.1465  0.5156
   60CHL1  H21A 5599   5.090   6.299   3.983 -0.2206  0.1198  0.7377
   60CHL1  H21B 5600   5.119   6.267   3.814 -0.2942  1.0368 -0.0099
   60CHL1  H21C 5601   5.179   6.421   3.891  2.6013 -0.0693  0.6579
   60CHL1   C22 5602   5.356   6.303   4.080  0.2210 -0.4452 -0.0753
   60CHL1  H22A 5603   5.455   6.260   4.105  0.5602 -1.4453 -2.7743
   60CHL1  H22B 5604   5.375   6.411   4.059 -0.0812 -0.1637  1.0506
   60CHL1   C23 5605   5.273   6.282   4.214 -0.8074 -0.2627  0.7228
   60CHL1  H23A 5606   5.178   6.338   4.199  0.1613  0.6416 -3.2735
   60CHL1  H23B 5607   5.257   6.173   4.232  1.5113 -0.5740  1.1068
   60CHL1   C24 5608   5.349   6.344   4.331  0.8076 -0.0319  1.0287
   60CHL1  H24A 5609   5.321   6.298   4.428 -0.1958  1.5767  1.5382
   60CHL1  H24B 5610   5.455   6.311   4.321  0.8061  0.4850 -1.2993
   60CHL1   C25 5611   5.346   6.495   4.336 -0.1729  0.3194 -0.2162
   60CHL1   H25 5612   5.394   6.540   4.246  0.3108  2.1992  0.9286
   60CHL1   C26 5613   5.208   6.556   4.349 -0.2295  0.0918  0.6028
   60CHL1  H26A 5614   5.141   6.534   4.264 -0.6139  0.5787  0.7747
   60CHL1  H26B 5615   5.159   6.525   4.444  1.0065 -1.1620  0.8784
   60CHL1  H26C 5616   5.224   6.665   4.360 -0.0028  0.1635 -0.4126
   60CHL1   C27 5617   5.421   6.543   4.464  0.3173 -0.4939 -0.0688
   60CHL1  H27A 5618   5.522   6.496   4.464  0.3557 -0.5707 -2.5591
   60CHL1  H27B 5619   5.438   6.653   4.463  2.9202 -0.8430  0.2565
   60CHL1  H27C 5620   5.363   6.514   4.554  1.0359  1.1656  0.9747
   61CHL1    C3 5621   0.917   3.864   2.724  0.1159 -0.0278 -0.3887
   61CHL1    H3 5622   0.828   3.798   2.721  0.5791 -0.6591 -3.1437
   61CHL1    O3 5623   0.952   3.890   2.589 -0.4408 -0.5674  0.1698
   61CHL1   H3' 5624   1.016   3.962   2.591  0.5069 -1.3972  1.7808
   61CHL1    C4 5625   0.899   3.996   2.807  0.2066 -0.3917  1.1280
   61CHL1   H4A 5626   0.988   4.062   2.805 -1.7329  2.4166 -0.9682
   61CHL1   H4B 5627   0.823   4.064   2.762  0.3176  1.0171  2.9955
   61CHL1    C5 5628   0.870   3.960   2.952  0.5758  0.3100  0.6437
   61CHL1    C6 5629   0.755   3.993   3.008 -0.5422 -0.0017  0.5330
   61CHL1    H6 5630   0.685   4.058   2.954 -1.0417  0.8330  2.1168
   61CHL1    C7 5631   0.716   3.970   3.151 -0.4748  0.5806 -1.1040
   61CHL1   H7A 5632   0.676   4.058   3.205  1.3417  0.8972 -0.1789
   61CHL1   H7B 5633   0.637   3.892   3.159 -2.3148  2.1909 -2.7682
   61CHL1    C8 5634   0.842   3.931   3.235  0.4261  0.8262  0.4281
   61CHL1    H8 5635   0.897   4.026   3.249 -0.8679  1.4580  1.3914
   61CHL1   C14 5636   0.800   3.891   3.374  0.0955  0.2142  0.3854
   61CHL1   H14 5637   0.769   3.785   3.363  0.8974  0.0247 -0.1677
   61CHL1   C15 5638   0.690   3.964   3.453  0.2521 -0.2496 -0.2243
   61CHL1  H15A 5639   0.704   4.071   3.428  0.6756 -0.6001 -1.5849
   61CHL1  H15B 5640   0.589   3.931   3.422  0.3289 -0.9236  0.2303
   61CHL1   C16 5641   0.714   3.939   3.600 -0.1131 -0.0810 -0.1894
   61CHL1  H16A 5642   0.746   4.037   3.643  0.7452  0.5228 -2.1142
   61CHL1  H16B 5643   0.637   3.887   3.661  1.6102 -1.0169  1.2943
   61CHL1   C17 5644   0.849   3.855   3.597  0.4049 -0.0319 -0.3764
   61CHL1   H17 5645   0.813   3.751   3.582 -0.4934  0.2834 -0.4507
   61CHL1   C13 5646   0.924   3.879   3.470 -0.5122 -0.2703  0.7823
   61CHL1   C18 5647   1.013   4.004   3.479 -0.6114 -0.7583  0.2650
   61CHL1  H18A 5648   1.098   3.990   3.550  0.0258  1.5228  0.0303
   61CHL1  H18B 5649   1.052   4.024   3.377  1.2639 -1.9180  0.7074
   61CHL1  H18C 5650   0.967   4.101   3.510 -1.1602 -0.5568 -1.0978
   61CHL1   C12 5651   1.003   3.763   3.419 -0.1526  1.2547  0.2014
   61CHL1  H12A 5652   1.086   3.736   3.488 -1.3463  0.1790  1.2588
   61CHL1  H12B 5653   0.936   3.675   3.413 -0.4567  1.5683 -3.1066
   61CHL1   C11 5654   1.043   3.777   3.268 -0.0172  0.5403 -0.5715
   61CHL1  H11A 5655   1.133   3.842   3.265 -0.2103  0.7761 -1.3920
   61CHL1  H11B 5656   1.083   3.678   3.236 -0.5970  0.0417  0.1975
   61CHL1    C9 5657   0.928   3.822   3.172  0.6154  0.0194  0.0986
   61CHL1    H9 5658   0.867   3.730   3.154 -2.5531  2.0296 -0.2963
   61CHL1   C10 5659   0.971   3.864   3.028  0.1114 -1.1149  0.4110
   61CHL1   C19 5660   1.103   3.940   3.040 -0.3453  0.0231 -0.2337
   61CHL1  H19A 5661   1.141   3.989   2.948  1.5157  0.3040  0.6365
   61CHL1  H19B 5662   1.102   4.023   3.114 -0.7311 -0.9636  0.8996
   61CHL1  H19C 5663   1.189   3.876   3.068 -0.8533  0.2651  2.0864
   61CHL1    C1 5664   0.989   3.742   2.937  0.6874 -0.1654  0.0994
   61CHL1   H1A 5665   1.061   3.665   2.972  0.8881  0.4408  1.0531
   61CHL1   H1B 5666   0.894   3.684   2.941 -0.1979  1.3188  2.2580
   61CHL1    C2 5667   1.023   3.768   2.790 -0.2284  0.1729 -0.2256
   61CHL1   H2A 5668   1.013   3.669   2.741 -0.8232  0.0947  0.0373
   61CHL1   H2B 5669   1.128   3.799   2.775  0.3260 -1.7210 -0.4105
   61CHL1   C20 5670   0.921   3.866   3.734  0.1426 -0.4366  0.3248
   61CHL1   H20 5671   0.988   3.954   3.737 -0.2069 -0.0649 -1.6156
   61CHL1   C21 5672   1.004   3.743   3.754 -0.2780 -0.0901  0.4490
   61CHL1  H21A 5673   1.053   3.739   3.854  1.8698  1.9596 -0.4465
   61CHL1  H21B 5674   1.085   3.734   3.679 -2.6774  0.6563 -2.4435
   61CHL1  H21C 5675   0.942   3.651   3.749 -1.6235  0.8535 -2.3612
   61CHL1   C22 5676   0.824   3.891   3.858  0.4262  0.1007 -0.5553
   61CHL1  H22A 5677   0.769   3.987   3.848 -0.1267 -0.1455 -0.0087
   61CHL1  H22B 5678   0.756   3.805   3.846  1.1044 -0.6102  0.4845
   61CHL1   C23 5679   0.875   3.879   3.998 -0.4381  0.0623  0.2572
   61CHL1  H23A 5680   0.921   3.778   4.005  0.7056  0.5925  0.7330
   61CHL1  H23B 5681   0.960   3.950   4.010 -1.0076  0.8593 -0.2663
   61CHL1   C24 5682   0.777   3.903   4.118  0.8845  0.4289 -0.6162
   61CHL1  H24A 5683   0.833   3.907   4.214  1.5089 -3.7171 -0.6102
   61CHL1  H24B 5684   0.740   4.006   4.101  0.1046  0.0024 -1.6486
   61CHL1   C25 5685   0.671   3.794   4.135 -0.6120  0.0715 -0.6383
   61CHL1   H25 5686   0.626   3.784   4.034  0.6448  0.2391 -1.2429
   61CHL1   C26 5687   0.719   3.662   4.180 -0.1585  0.0237  0.1429
   61CHL1  H26A 5688   0.794   3.630   4.104  0.2127  0.5742  0.2720
   61CHL1  H26B 5689   0.772   3.661   4.278  1.2669 -1.2511 -0.5912
   61CHL1  H26C 5690   0.650   3.576   4.182 -0.5975  0.3207 -1.1965
   61CHL1   C27 5691   0.570   3.831   4.246  0.5794  0.2400 -0.0441
   61CHL1  H27A 5692   0.522   3.928   4.223 -0.0519 -0.2461 -0.8510
   61CHL1  H27B 5693   0.498   3.747   4.252  1.5887 -0.9001 -2.4261
   61CHL1  H27C 5694   0.617   3.833   4.347  1.6619  1.4799 -0.5323
   62CHL1    C3 5695   2.318   5.264   3.034  0.4122  0.2908 -0.2121
   62CHL1    H3 5696   2.303   5.165   3.082  1.4343  0.2468  0.0356
   62CHL1    O3 5697   2.295   5.260   2.895  0.0453  0.3738  0.1738
   62CHL1   H3' 5698   2.265   5.346   2.866 -0.4190 -1.0213 -4.3138
   62CHL1    C4 5699   2.208   5.346   3.096 -0.2384  0.6817 -0.2750
   62CHL1   H4A 5700   2.195   5.449   3.055 -0.6049  0.4317 -0.8001
   62CHL1   H4B 5701   2.119   5.285   3.071 -0.4303  0.5914  0.6012
   62CHL1    C5 5702   2.219   5.356   3.245  0.4345  0.5769 -0.5928
   62CHL1    C6 5703   2.126   5.315   3.337  0.2516 -0.9108 -0.3240
   62CHL1    H6 5704   2.032   5.279   3.294 -0.0254 -1.2776  0.5661
   62CHL1    C7 5705   2.132   5.342   3.478 -0.0531  0.1505 -0.5581
   62CHL1   H7A 5706   2.030   5.377   3.506  0.6167  0.9467  1.0069
   62CHL1   H7B 5707   2.136   5.245   3.533 -0.8594  0.3276 -0.1683
   62CHL1    C8 5708   2.235   5.454   3.524 -0.0736  0.7721  0.1806
   62CHL1    H8 5709   2.206   5.554   3.485 -2.7261 -0.7412 -2.0783
   62CHL1   C14 5710   2.258   5.446   3.670  0.3333  0.0653  0.4277
   62CHL1   H14 5711   2.285   5.340   3.689  0.5356 -0.0503 -0.4435
   62CHL1   C15 5712   2.138   5.475   3.758  0.5172  1.0081  0.2050
   62CHL1  H15A 5713   2.081   5.563   3.721  0.4394  1.1622  0.6806
   62CHL1  H15B 5714   2.070   5.387   3.769 -1.0378  2.1571  0.1175
   62CHL1   C16 5715   2.200   5.513   3.897  0.5612  0.2701  0.3027
   62CHL1  H16A 5716   2.185   5.620   3.923  0.1500 -0.1054  1.7041
   62CHL1  H16B 5717   2.165   5.446   3.978  1.0767  0.5571  0.7677
   62CHL1   C17 5718   2.355   5.501   3.873 -0.2783  0.0661  0.1358
   62CHL1   H17 5719   2.383   5.395   3.890 -2.0566 -0.2602  1.2131
   62CHL1   C13 5720   2.377   5.537   3.725  0.4726  0.0866  0.2444
   62CHL1   C18 5721   2.349   5.683   3.701  0.4882 -0.3892  0.5980
   62CHL1  H18A 5722   2.440   5.741   3.727 -0.3706  1.5686 -0.4616
   62CHL1  H18B 5723   2.333   5.702   3.593  1.7063 -0.7607  0.3486
   62CHL1  H18C 5724   2.263   5.726   3.758  2.5005  0.9283  2.8229
   62CHL1   C12 5725   2.507   5.490   3.658 -0.0773 -0.2180 -0.1227
   62CHL1  H12A 5726   2.591   5.554   3.691  0.1422 -1.7378  2.4873
   62CHL1  H12B 5727   2.532   5.385   3.685 -0.2583 -0.5415 -1.1532
   62CHL1   C11 5728   2.496   5.502   3.501 -0.1306  0.7038 -0.3174
   62CHL1  H11A 5729   2.498   5.611   3.476  1.3438  0.4884 -1.2883
   62CHL1  H11B 5730   2.585   5.448   3.462 -0.1061  0.8776 -0.5075
   62CHL1    C9 5731   2.367   5.424   3.452 -0.5136 -0.2208 -0.5777
   62CHL1    H9 5732   2.392   5.320   3.482 -0.3227 -0.2099 -0.6961
   62CHL1   C10 5733   2.354   5.419   3.295 -0.5946 -0.4444  0.5308
   62CHL1   C19 5734   2.365   5.571   3.251 -0.2844  0.4450 -0.2619
   62CHL1  H19A 5735   2.464   5.612   3.278 -1.0803  0.9452  2.0961
   62CHL1  H19B 5736   2.357   5.578   3.140 -0.0055 -1.3294 -0.4215
   62CHL1  H19C 5737   2.293   5.642   3.297  0.1824  0.4347  0.4883
   62CHL1    C1 5738   2.471   5.342   3.223 -0.3094  0.2942 -0.5064
   62CHL1   H1A 5739   2.567   5.398   3.227  0.1773 -0.6120  1.6023
   62CHL1   H1B 5740   2.501   5.249   3.277  1.3879  2.0252  1.7122
   62CHL1    C2 5741   2.448   5.322   3.076 -0.0620 -0.4833  0.5569
   62CHL1   H2A 5742   2.531   5.259   3.036  1.4702  1.0558  1.1866
   62CHL1   H2B 5743   2.468   5.420   3.027  3.0055 -1.0860  0.3753
   62CHL1   C20 5744   2.438   5.578   3.981  0.2354  1.0370  0.0654
   62CHL1   H20 5745   2.447   5.685   3.955 -1.2062  0.6532 -2.2122
   62CHL1   C21 5746   2.579   5.529   3.973 -1.0212 -1.3335 -0.3839
   62CHL1  H21A 5747   2.642   5.569   4.055 -0.3220 -2.1003 -0.5305
   62CHL1  H21B 5748   2.624   5.585   3.888 -2.8470  1.2803  0.2479
   62CHL1  H21C 5749   2.595   5.421   3.954 -2.3077 -1.3334 -1.7130
   62CHL1   C22 5750   2.377   5.579   4.127 -0.6922  0.1826  0.1079
   62CHL1  H22A 5751   2.275   5.619   4.139 -1.5115 -1.6018 -0.5331
   62CHL1  H22B 5752   2.368   5.473   4.159 -0.4952  0.9358  2.9684
   62CHL1   C23 5753   2.465   5.648   4.234 -0.0890  0.5653 -0.0469
   62CHL1  H23A 5754   2.567   5.606   4.230  0.1105  1.1390 -1.3239
   62CHL1  H23B 5755   2.474   5.756   4.210 -0.2027  0.8782  1.2204
   62CHL1   C24 5756   2.402   5.643   4.371  0.8941  0.4493  0.2342
   62CHL1  H24A 5757   2.296   5.673   4.359  0.4077 -1.4961 -0.8145
   62CHL1  H24B 5758   2.414   5.538   4.407 -0.4927  1.0782  2.7793
   62CHL1   C25 5759   2.478   5.725   4.481  0.7242  0.3232 -0.0344
   62CHL1   H25 5760   2.481   5.829   4.441  1.7411 -1.0522 -4.1020
   62CHL1   C26 5761   2.404   5.732   4.614  0.0447  0.7963  0.1722
   62CHL1  H26A 5762   2.483   5.759   4.687  2.1985 -1.0608 -1.3364
   62CHL1  H26B 5763   2.314   5.798   4.614 -1.9564 -1.6502  2.8582
   62CHL1  H26C 5764   2.365   5.632   4.644 -0.3140  0.2408 -1.9246
   62CHL1   C27 5765   2.624   5.676   4.499  0.3596 -0.1672  0.1620
   62CHL1  H27A 5766   2.681   5.665   4.404 -0.1132 -1.7628  0.0366
   62CHL1  H27B 5767   2.672   5.748   4.569 -0.0699  0.3832 -0.1003
   62CHL1  H27C 5768   2.633   5.572   4.537 -0.8996  0.4654  2.3855
   63CHL1    C3 5769   5.275   6.899   2.721  0.0272 -0.5738  0.4913
   63CHL1    H3 5770   5.194   6.841   2.768  0.2670 -0.6299  0.8426
   63CHL1    O3 5771   5.282   6.854   2.582 -0.4853  0.1771  0.1356
   63CHL1   H3' 5772   5.351   6.907   2.539 -1.4063 -0.8058 -2.7724
   63CHL1    C4 5773   5.257   7.049   2.727 -0.6066  1.0127  0.2308
   63CHL1   H4A 5774   5.332   7.080   2.652 -0.1005 -1.8306 -0.5488
   63CHL1   H4B 5775   5.152   7.071   2.697 -0.8604  0.2573  0.5552
   63CHL1    C5 5776   5.288   7.113   2.865  0.2419 -0.7351 -0.4888
   63CHL1    C6 5777   5.202   7.192   2.924 -0.1700 -0.5386 -0.3668
   63CHL1    H6 5778   5.105   7.206   2.875 -1.0528 -1.3179  1.0923
   63CHL1    C7 5779   5.220   7.251   3.065  0.0306  1.0950 -0.2603
   63CHL1   H7A 5780   5.196   7.360   3.064 -1.9932  0.7184  0.6215
   63CHL1   H7B 5781   5.159   7.201   3.143  1.6781 -0.9922 -0.2374
   63CHL1    C8 5782   5.364   7.248   3.114  0.1602  0.7627  0.1191
   63CHL1    H8 5783   5.414   7.327   3.054  0.6167 -0.1361 -0.7175
   63CHL1   C14 5784   5.377   7.280   3.264  0.4011  0.3903  0.3977
   63CHL1   H14 5785   5.316   7.202   3.314 -0.5633  1.2177  0.5448
   63CHL1   C15 5786   5.314   7.413   3.309 -0.0297  0.0537  0.4115
   63CHL1  H15A 5787   5.349   7.494   3.242 -0.6832 -0.1034 -0.1433
   63CHL1  H15B 5788   5.203   7.417   3.297  0.1020  0.0624 -1.0106
   63CHL1   C16 5789   5.376   7.425   3.449  0.3402  0.0780  0.0587
   63CHL1  H16A 5790   5.409   7.529   3.467  1.6969 -0.2515 -0.3704
   63CHL1  H16B 5791   5.286   7.410   3.512  0.6443  0.4196  0.5813
   63CHL1   C17 5792   5.488   7.322   3.467  0.4441 -0.5134  0.3138
   63CHL1   H17 5793   5.449   7.231   3.517  0.1333 -0.1517  0.7271
   63CHL1   C13 5794   5.514   7.277   3.318 -0.0369 -0.3489  0.6404
   63CHL1   C18 5795   5.613   7.375   3.255 -0.1886 -0.2356  0.1193
   63CHL1  H18A 5796   5.712   7.362   3.302 -0.2483 -0.5315  0.1657
   63CHL1  H18B 5797   5.618   7.361   3.145  1.0983 -1.6131  0.3239
   63CHL1  H18C 5798   5.580   7.480   3.271 -0.7256 -0.3383 -0.2539
   63CHL1   C12 5799   5.569   7.135   3.297  0.9986  0.8906  0.3644
   63CHL1  H12A 5800   5.676   7.137   3.327  1.5281 -0.7241 -1.2336
   63CHL1  H12B 5801   5.511   7.070   3.366 -0.6948  2.0935  0.1422
   63CHL1   C11 5802   5.562   7.087   3.149 -0.6001 -0.0208 -0.5807
   63CHL1  H11A 5803   5.641   7.144   3.096  0.3602 -1.3295 -0.6019
   63CHL1  H11B 5804   5.606   6.985   3.145  1.0644  0.5636  1.1529
   63CHL1    C9 5805   5.427   7.107   3.086  0.4354 -0.0375 -0.2757
   63CHL1    H9 5806   5.352   7.043   3.138  0.3706  1.7386  1.9334
   63CHL1   C10 5807   5.419   7.067   2.932  0.4772  0.3497 -0.0416
   63CHL1   C19 5808   5.547   7.116   2.855 -0.5492 -0.0432 -0.3358
   63CHL1  H19A 5809   5.542   7.227   2.855  1.9850  0.1230 -0.3956
   63CHL1  H19B 5810   5.645   7.072   2.880 -0.4375  0.3135 -0.1428
   63CHL1  H19C 5811   5.540   7.091   2.747  0.1352  0.1285 -0.4236
   63CHL1    C1 5812   5.430   6.909   2.932  0.7121 -0.7116 -0.4313
   63CHL1   H1A 5813   5.531   6.874   2.962  1.8541  2.6530 -0.0290
   63CHL1   H1B 5814   5.356   6.871   3.006 -0.5761  1.5293 -0.4850
   63CHL1    C2 5815   5.408   6.845   2.794  0.5185 -0.1111  0.5692
   63CHL1   H2A 5816   5.404   6.734   2.796 -3.9419 -0.1479 -0.3432
   63CHL1   H2B 5817   5.497   6.868   2.733 -0.4398  2.1190 -0.0660
   63CHL1   C20 5818   5.605   7.373   3.549  0.3274 -0.3569 -0.2957
   63CHL1   H20 5819   5.632   7.470   3.501 -0.8553 -0.1355 -0.5506
   63CHL1   C21 5820   5.721   7.274   3.557  0.6693  0.7108 -0.3163
   63CHL1  H21A 5821   5.769   7.236   3.464  1.3947 -0.9414  0.6892
   63CHL1  H21B 5822   5.695   7.185   3.617  0.3934  1.4916  0.7600
   63CHL1  H21C 5823   5.802   7.326   3.614  1.0854  1.5561 -1.6347
   63CHL1   C22 5824   5.564   7.417   3.692  0.2186 -1.1197 -0.0105
   63CHL1  H22A 5825   5.656   7.427   3.752  1.2168 -0.1796 -1.6350
   63CHL1  H22B 5826   5.505   7.511   3.686 -0.5288 -1.6310 -1.3157
   63CHL1   C23 5827   5.468   7.318   3.767 -0.0843  0.4847 -0.5411
   63CHL1  H23A 5828   5.377   7.336   3.706  0.0488  0.2853 -0.7981
   63CHL1  H23B 5829   5.499   7.212   3.763  2.4168  1.2057 -2.3620
   63CHL1   C24 5830   5.438   7.363   3.919  0.6704  0.4844 -0.0092
   63CHL1  H24A 5831   5.536   7.374   3.971  0.1357 -0.7244  1.3402
   63CHL1  H24B 5832   5.385   7.460   3.906 -1.8306 -0.7563  0.2523
   63CHL1   C25 5833   5.347   7.260   3.998 -0.3141 -0.0384  0.2930
   63CHL1   H25 5834   5.252   7.241   3.945 -0.4429  1.2585  0.0400
   63CHL1   C26 5835   5.412   7.121   4.021 -0.2598  0.2717 -0.3979
   63CHL1  H26A 5836   5.472   7.077   3.938  1.4637  1.1430  0.3343
   63CHL1  H26B 5837   5.486   7.134   4.102  0.4177 -1.8958 -0.6130
   63CHL1  H26C 5838   5.335   7.050   4.059  0.0399  0.3139  0.2874
   63CHL1   C27 5839   5.309   7.314   4.138  0.5008 -0.1641  0.0473
   63CHL1  H27A 5840   5.268   7.416   4.124  1.3699  0.4399  1.6294
   63CHL1  H27B 5841   5.232   7.241   4.172  0.7236 -0.6189 -0.4133
   63CHL1  H27C 5842   5.402   7.315   4.199  1.7182 -2.3267 -1.6263
   64CHL1    C3 5843   2.578   1.206   2.944 -0.6073 -0.4323 -0.0317
   64CHL1    H3 5844   2.686   1.215   2.919 -0.2091 -2.3345  0.8200
   64CHL1    O3 5845   2.508   1.213   2.822  0.4046  0.3349 -0.3537
   64CHL1   H3' 5846   2.542   1.285   2.768  0.8573 -0.9763 -1.8684
   64CHL1    C4 5847   2.544   1.075   3.015 -0.3358 -0.3237 -0.1688
   64CHL1   H4A 5848   2.433   1.073   3.017 -0.3246 -2.3333  0.5856
   64CHL1   H4B 5849   2.576   0.989   2.953 -0.9565 -0.4901 -0.2661
   64CHL1    C5 5850   2.614   1.072   3.153  0.3119 -0.2474  0.1508
   64CHL1    C6 5851   2.708   0.984   3.184 -0.5681  0.5810  0.0119
   64CHL1    H6 5852   2.735   0.905   3.113  1.3058  0.2156  1.0770
   64CHL1    C7 5853   2.782   0.979   3.314 -0.5428 -0.2770 -0.5362
   64CHL1   H7A 5854   2.804   0.876   3.351  2.1784  1.0961  2.1819
   64CHL1   H7B 5855   2.884   1.021   3.297 -0.0843 -1.1581 -0.0470
   64CHL1    C8 5856   2.702   1.059   3.427  0.1229  0.1970  0.1634
   64CHL1    H8 5857   2.616   0.994   3.452  0.4609 -0.9297 -1.4624
   64CHL1   C14 5858   2.784   1.079   3.549  0.6606  0.1767 -0.2718
   64CHL1   H14 5859   2.873   1.143   3.528  1.8983 -1.1060  0.8655
   64CHL1   C15 5860   2.848   0.959   3.615 -0.0773 -0.4864 -0.3634
   64CHL1  H15A 5861   2.777   0.874   3.619  1.4873 -1.8162  0.3908
   64CHL1  H15B 5862   2.937   0.931   3.555  0.1119  1.3424 -1.0228
   64CHL1   C16 5863   2.874   0.994   3.767  0.0063  0.2967  0.2093
   64CHL1  H16A 5864   2.842   0.909   3.831 -1.6137  1.1124  0.5294
   64CHL1  H16B 5865   2.983   0.994   3.787  0.2688  0.3739 -1.1610
   64CHL1   C17 5866   2.817   1.138   3.777 -0.2887 -0.5377 -0.0454
   64CHL1   H17 5867   2.894   1.211   3.744 -1.3352  0.8137  0.4260
   64CHL1   C13 5868   2.707   1.152   3.665  0.0456  0.2085  0.2009
   64CHL1   C18 5869   2.574   1.083   3.699 -0.1010  0.4052 -0.2671
   64CHL1  H18A 5870   2.500   1.082   3.616 -1.4297 -1.5477  0.8509
   64CHL1  H18B 5871   2.596   0.976   3.721 -2.2221  0.1156  0.7632
   64CHL1  H18C 5872   2.540   1.137   3.790  0.3087  1.6320 -0.8217
   64CHL1   C12 5873   2.673   1.296   3.618 -0.8041 -0.0607 -0.4239
   64CHL1  H12A 5874   2.628   1.354   3.702  0.2629  0.3551 -0.1161
   64CHL1  H12B 5875   2.774   1.339   3.602 -1.3226  0.9473 -1.0832
   64CHL1   C11 5876   2.601   1.296   3.486 -0.4220 -0.2409  0.1234
   64CHL1  H11A 5877   2.496   1.274   3.516 -0.7149  1.8120  0.7155
   64CHL1  H11B 5878   2.595   1.394   3.434 -1.2668 -0.0924  0.4837
   64CHL1    C9 5879   2.654   1.196   3.377  0.1122 -0.0881 -0.0230
   64CHL1    H9 5880   2.755   1.234   3.349 -0.2690  0.5755 -0.5423
   64CHL1   C10 5881   2.569   1.188   3.242 -0.0837 -0.7309  0.1858
   64CHL1   C19 5882   2.421   1.181   3.286 -0.0837  0.0308  0.0389
   64CHL1  H19A 5883   2.383   1.283   3.305  0.5088  0.6897 -2.0334
   64CHL1  H19B 5884   2.358   1.130   3.210 -1.5529  1.4373  0.2797
   64CHL1  H19C 5885   2.413   1.113   3.374  0.2368  1.0020  0.8433
   64CHL1    C1 5886   2.596   1.320   3.164 -0.1311 -0.1488  0.8937
   64CHL1   H1A 5887   2.565   1.402   3.232 -1.1378  1.2708 -1.1929
   64CHL1   H1B 5888   2.702   1.336   3.135 -0.7581  0.0187 -1.4457
   64CHL1    C2 5889   2.527   1.328   3.028 -0.1075 -0.0096 -0.1839
   64CHL1   H2A 5890   2.555   1.423   2.978 -0.4079  0.8909  1.3249
   64CHL1   H2B 5891   2.417   1.332   3.045  0.0556  2.6716  0.6754
   64CHL1   C20 5892   2.789   1.201   3.919  0.0101  0.3085 -0.8313
   64CHL1   H20 5893   2.706   1.275   3.918  0.3153  0.6469 -1.3536
   64CHL1   C21 5894   2.919   1.264   3.972 -0.1869  0.6839 -0.3344
   64CHL1  H21A 5895   2.954   1.341   3.900  0.8892 -0.1081 -0.6870
   64CHL1  H21B 5896   2.993   1.181   3.977 -0.6423  0.2849 -0.1724
   64CHL1  H21C 5897   2.917   1.311   4.072  2.3422 -0.4029  0.3297
   64CHL1   C22 5898   2.732   1.085   4.010  0.2823  0.0549  0.1762
   64CHL1  H22A 5899   2.644   1.048   3.954 -0.8190 -1.2528  2.6423
   64CHL1  H22B 5900   2.806   1.003   4.025  0.1676 -0.1206 -0.2102
   64CHL1   C23 5901   2.676   1.125   4.148 -0.9020  0.0793  0.3382
   64CHL1  H23A 5902   2.763   1.172   4.197 -0.6669  0.6981 -0.6295
   64CHL1  H23B 5903   2.597   1.202   4.135 -1.1714 -0.3817 -0.9845
   64CHL1   C24 5904   2.623   1.006   4.232  0.0336 -0.4394 -0.0488
   64CHL1  H24A 5905   2.546   1.049   4.299  1.2074 -0.8409  1.6106
   64CHL1  H24B 5906   2.581   0.947   4.148  0.1557  0.1362 -0.5201
   64CHL1   C25 5907   2.721   0.920   4.317  0.0733 -0.6116  0.6429
   64CHL1   H25 5908   2.798   0.879   4.248 -3.7595 -1.3551 -3.6442
   64CHL1   C26 5909   2.782   1.009   4.421 -0.1329 -0.4880  0.5915
   64CHL1  H26A 5910   2.717   1.032   4.508  0.2540 -0.7766  0.9650
   64CHL1  H26B 5911   2.867   0.950   4.461 -0.0301 -1.4826 -1.0128
   64CHL1  H26C 5912   2.821   1.103   4.376 -1.9472 -0.3059 -0.7092
   64CHL1   C27 5913   2.658   0.790   4.372 -0.4865 -0.5152  0.4503
   64CHL1  H27A 5914   2.626   0.728   4.285 -0.1780  0.0130 -0.0464
   64CHL1  H27B 5915   2.739   0.728   4.415 -2.1259 -1.7682  1.9050
   64CHL1  H27C 5916   2.575   0.813   4.442 -0.2248  2.0628  0.0086
   65CHL1    C3 5917   2.477   6.129   3.243  0.1714  0.4984 -1.0591
   65CHL1    H3 5918   2.366   6.138   3.244  0.1268 -0.0299  0.3944
   65CHL1    O3 5919   2.510   6.091   3.111 -0.6205  0.0297  0.6524
   65CHL1   H3' 5920   2.453   6.140   3.051 -0.8978 -2.8561 -1.6372
   65CHL1    C4 5921   2.538   6.254   3.292  0.0575  0.2212  0.3616
   65CHL1   H4A 5922   2.645   6.234   3.272 -0.3987  0.0926 -2.3982
   65CHL1   H4B 5923   2.507   6.337   3.225 -0.9270  0.1860  0.7444
   65CHL1    C5 5924   2.525   6.298   3.444  0.1462 -0.1197  0.2161
   65CHL1    C6 5925   2.473   6.418   3.474  0.0488  0.6745  0.2079
   65CHL1    H6 5926   2.460   6.491   3.393 -0.6956 -1.7158 -1.9545
   65CHL1    C7 5927   2.442   6.460   3.620  0.0000  0.2661 -0.5064
   65CHL1   H7A 5928   2.478   6.563   3.636  1.4288 -0.2329 -0.3699
   65CHL1   H7B 5929   2.331   6.460   3.631 -0.2805  1.9829 -2.5193
   65CHL1    C8 5930   2.516   6.367   3.720  0.3203  0.4779  0.0159
   65CHL1    H8 5931   2.624   6.393   3.718 -0.0295  2.0694  0.3878
   65CHL1   C14 5932   2.450   6.383   3.853 -0.0232 -0.3826  0.7748
   65CHL1   H14 5933   2.347   6.344   3.837  0.6231 -1.7664 -0.1493
   65CHL1   C15 5934   2.457   6.536   3.908  0.2883 -0.0331  0.4271
   65CHL1  H15A 5935   2.560   6.577   3.905  1.2135 -2.1554  0.9763
   65CHL1  H15B 5936   2.384   6.591   3.844  1.4664  0.0345 -0.9116
   65CHL1   C16 5937   2.404   6.523   4.053  0.0105 -0.1887  0.6098
   65CHL1  H16A 5938   2.469   6.589   4.115  0.5102 -0.7428  0.6872
   65CHL1  H16B 5939   2.302   6.562   4.072 -0.2209 -1.7031  2.9250
   65CHL1   C17 5940   2.421   6.368   4.082 -0.1348  0.2969  0.4701
   65CHL1   H17 5941   2.325   6.319   4.055  0.5762 -1.3031  0.6684
   65CHL1   C13 5942   2.508   6.308   3.962  0.2171  0.7606  0.0000
   65CHL1   C18 5943   2.659   6.346   3.995  0.1377 -0.0723  0.1120
   65CHL1  H18A 5944   2.724   6.303   3.916  2.1451  3.0405 -0.1302
   65CHL1  H18B 5945   2.681   6.455   4.003 -0.7410  0.0743  0.7312
   65CHL1  H18C 5946   2.697   6.296   4.087  1.1121  0.5310  0.0549
   65CHL1   C12 5947   2.494   6.160   3.931 -0.1292  0.1081 -0.7652
   65CHL1  H12A 5948   2.556   6.104   4.004 -1.1677  0.5994  0.5514
   65CHL1  H12B 5949   2.388   6.126   3.937 -0.4042  1.1345  0.5737
   65CHL1   C11 5950   2.548   6.124   3.794 -0.0496 -0.2151 -0.4639
   65CHL1  H11A 5951   2.658   6.134   3.808 -0.1014  1.0465 -0.8496
   65CHL1  H11B 5952   2.538   6.016   3.769 -2.1674 -1.0824  3.3191
   65CHL1    C9 5953   2.502   6.215   3.680  0.0373 -0.2572  0.1759
   65CHL1    H9 5954   2.391   6.209   3.673  0.0596 -0.3909 -0.1047
   65CHL1   C10 5955   2.558   6.183   3.536  0.5587 -0.0607  0.6362
   65CHL1   C19 5956   2.709   6.164   3.537 -0.0927  0.4436 -0.2189
   65CHL1  H19A 5957   2.768   6.157   3.443 -0.0250  0.6707 -0.1927
   65CHL1  H19B 5958   2.761   6.248   3.589  1.7965  0.3991 -1.9115
   65CHL1  H19C 5959   2.734   6.077   3.602  0.5609  1.6240  1.1631
   65CHL1    C1 5960   2.487   6.057   3.482  0.0412 -0.0162  0.1763
   65CHL1   H1A 5961   2.517   5.971   3.546 -0.3795 -1.3396 -1.3146
   65CHL1   H1B 5962   2.378   6.071   3.493  0.0244  0.1460 -0.1757
   65CHL1    C2 5963   2.513   6.010   3.336 -0.7013 -0.5586  0.4115
   65CHL1   H2A 5964   2.455   5.922   3.299 -1.7990  1.0827 -2.0597
   65CHL1   H2B 5965   2.622   5.989   3.339 -0.7877 -1.2103 -0.4606
   65CHL1   C20 5966   2.452   6.338   4.223 -1.2690  0.2101 -0.2655
   65CHL1   H20 5967   2.558   6.365   4.245 -1.6459 -0.0500  2.2555
   65CHL1   C21 5968   2.416   6.190   4.242 -0.2699  0.4206 -1.0078
   65CHL1  H21A 5969   2.429   6.156   4.347  0.3954  2.1270 -0.5046
   65CHL1  H21B 5970   2.495   6.139   4.183  0.7773  1.1871 -0.3031
   65CHL1  H21C 5971   2.310   6.174   4.214 -0.7481  0.5679  0.6126
   65CHL1   C22 5972   2.374   6.423   4.326  0.4808  0.0648 -0.3105
   65CHL1  H22A 5973   2.431   6.518   4.328 -3.7906  3.0266 -2.5159
   65CHL1  H22B 5974   2.270   6.455   4.302 -0.1109 -0.2344  1.6736
   65CHL1   C23 5975   2.387   6.369   4.470  0.6094 -0.2188  0.1485
   65CHL1  H23A 5976   2.317   6.284   4.483 -0.8372  0.6373 -1.5076
   65CHL1  H23B 5977   2.488   6.327   4.489 -0.5863 -2.4520  2.0344
   65CHL1   C24 5978   2.341   6.465   4.584  0.2633  0.3993 -0.5929
   65CHL1  H24A 5979   2.407   6.552   4.567 -1.2679  1.9802  1.0504
   65CHL1  H24B 5980   2.236   6.500   4.573 -0.1519 -0.0426  1.5778
   65CHL1   C25 5981   2.354   6.406   4.723 -0.5006  0.1151  0.1499
   65CHL1   H25 5982   2.295   6.312   4.719  0.7845 -0.7074  0.1049
   65CHL1   C26 5983   2.504   6.381   4.772  0.2199 -0.0671  0.4604
   65CHL1  H26A 5984   2.505   6.339   4.875 -0.1161 -0.9693  0.1071
   65CHL1  H26B 5985   2.560   6.313   4.705 -0.3518  1.3286 -1.5036
   65CHL1  H26C 5986   2.550   6.482   4.775 -2.5839  1.3232 -0.2985
   65CHL1   C27 5987   2.275   6.496   4.813 -0.3687  0.0270  0.5085
   65CHL1  H27A 5988   2.166   6.492   4.791 -0.1070  0.1096 -0.9046
   65CHL1  H27B 5989   2.281   6.467   4.920  1.0503 -0.7201  0.2535
   65CHL1  H27C 5990   2.311   6.601   4.818  2.6140 -0.8949  0.4035
   66CHL1    C3 5991   1.837   5.512   3.044  0.3481  0.2203  0.6796
   66CHL1    H3 5992   1.926   5.469   3.094  1.1000  0.8133 -0.1111
   66CHL1    O3 5993   1.842   5.505   2.905 -0.2914 -0.2268  0.3659
   66CHL1   H3' 5994   1.773   5.561   2.869 -1.6237 -1.8141  0.3109
   66CHL1    C4 5995   1.719   5.437   3.097  0.2776 -0.6305 -0.0431
   66CHL1   H4A 5996   1.627   5.476   3.049  0.1503  0.4065  0.9864
   66CHL1   H4B 5997   1.737   5.334   3.060 -1.4384 -0.6727 -0.8715
   66CHL1    C5 5998   1.719   5.438   3.246  0.1051  0.1789  0.3652
   66CHL1    C6 5999   1.721   5.328   3.313 -0.2108 -0.0796 -0.6574
   66CHL1    H6 6000   1.730   5.229   3.265 -1.5615 -0.7014  0.3224
   66CHL1    C7 6001   1.713   5.323   3.462 -0.5022  0.4589  0.3265
   66CHL1   H7A 6002   1.636   5.249   3.490 -1.5573  0.3731 -2.4900
   66CHL1   H7B 6003   1.810   5.295   3.509  0.0546  0.3155 -0.8768
   66CHL1    C8 6004   1.665   5.457   3.524 -0.6956  0.1328  0.5352
   66CHL1    H8 6005   1.557   5.475   3.507 -0.8645 -0.2679  1.1351
   66CHL1   C14 6006   1.683   5.461   3.671 -0.4733 -0.2181  0.6678
   66CHL1   H14 6007   1.791   5.434   3.683 -0.2408  1.4796  3.3966
   66CHL1   C15 6008   1.626   5.345   3.757 -0.1457 -0.6314  0.7017
   66CHL1  H15A 6009   1.519   5.330   3.729 -0.0432 -1.1060  0.5458
   66CHL1  H15B 6010   1.676   5.246   3.745  1.1748  0.0573  0.4069
   66CHL1   C16 6011   1.655   5.393   3.899 -0.0277 -0.7745 -0.2289
   66CHL1  H16A 6012   1.561   5.375   3.956  1.0075 -2.5863  1.0213
   66CHL1  H16B 6013   1.731   5.329   3.948 -1.9979 -1.9164  1.4861
   66CHL1   C17 6014   1.711   5.538   3.890  0.4333 -0.2028 -0.0901
   66CHL1   H17 6015   1.822   5.529   3.884  0.6442  0.0385  2.3583
   66CHL1   C13 6016   1.666   5.585   3.745 -0.1835 -0.7779  0.3294
   66CHL1   C18 6017   1.516   5.633   3.751 -0.5066  0.1962 -0.0788
   66CHL1  H18A 6018   1.500   5.727   3.809  0.6463  1.4629 -1.7148
   66CHL1  H18B 6019   1.482   5.644   3.646  0.2756  0.5309 -0.3033
   66CHL1  H18C 6020   1.452   5.555   3.796  1.7852 -1.6806  0.0953
   66CHL1   C12 6021   1.767   5.688   3.680 -0.3391  0.1925 -0.1136
   66CHL1  H12A 6022   1.759   5.793   3.715  0.6658 -0.0530  0.8851
   66CHL1  H12B 6023   1.869   5.652   3.705 -1.2661 -0.8723  2.4920
   66CHL1   C11 6024   1.731   5.705   3.532  0.8514  0.1053 -0.3800
   66CHL1  H11A 6025   1.626   5.742   3.533  0.3656 -1.1531  2.1460
   66CHL1  H11B 6026   1.789   5.783   3.479  0.0612  0.7491 -0.3248
   66CHL1    C9 6027   1.752   5.568   3.456  1.0187 -0.0931 -0.1211
   66CHL1    H9 6028   1.860   5.545   3.467  1.2249  0.9303  0.1059
   66CHL1   C10 6029   1.723   5.580   3.303  0.2518  0.2660  0.4495
   66CHL1   C19 6030   1.581   5.641   3.277 -0.3149  0.5584 -0.9959
   66CHL1  H19A 6031   1.501   5.572   3.313 -0.3253  1.2193  0.2987
   66CHL1  H19B 6032   1.578   5.739   3.328 -1.9660 -1.2396  2.8235
   66CHL1  H19C 6033   1.571   5.653   3.167 -0.7146 -1.7685 -1.2772
   66CHL1    C1 6034   1.821   5.672   3.233 -0.0957 -0.2666  0.2526
   66CHL1   H1A 6035   1.804   5.776   3.267  0.0588 -0.1414 -0.0481
   66CHL1   H1B 6036   1.923   5.638   3.264 -0.6468  0.3051  2.9690
   66CHL1    C2 6037   1.826   5.660   3.079  0.5320 -0.4397 -0.4088
   66CHL1   H2A 6038   1.915   5.709   3.034  0.4790 -0.1249 -0.1684
   66CHL1   H2B 6039   1.738   5.696   3.023 -0.2265 -1.5381  0.0308
   66CHL1   C20 6040   1.677   5.623   4.016 -0.7836 -0.3211 -0.0623
   66CHL1   H20 6041   1.572   5.658   4.029  0.0093  1.3080  3.3545
   66CHL1   C21 6042   1.758   5.753   4.006 -0.2543 -0.0604 -0.3276
   66CHL1  H21A 6043   1.768   5.807   4.103 -0.4210  0.8329 -0.7966
   66CHL1  H21B 6044   1.718   5.838   3.948  1.1040  1.3145  0.6507
   66CHL1  H21C 6045   1.854   5.723   3.959  0.6830  0.1946  1.3222
   66CHL1   C22 6046   1.708   5.547   4.154  0.2789 -0.0204  0.2821
   66CHL1  H22A 6047   1.679   5.623   4.230 -0.1764  1.3262 -1.1815
   66CHL1  H22B 6048   1.635   5.466   4.174  1.9719 -0.9433  3.3533
   66CHL1   C23 6049   1.857   5.500   4.176  1.0938  0.7003 -0.2292
   66CHL1  H23A 6050   1.869   5.399   4.130  0.4595  0.7297 -0.4661
   66CHL1  H23B 6051   1.940   5.565   4.142  1.0324  2.0017  1.9210
   66CHL1   C24 6052   1.877   5.487   4.327 -0.1795  0.1390  0.2183
   66CHL1  H24A 6053   1.846   5.582   4.375 -2.1912  0.9321 -2.3915
   66CHL1  H24B 6054   1.803   5.411   4.358 -0.2073  0.9584  2.3228
   66CHL1   C25 6055   2.023   5.462   4.370 -0.2783  0.3339 -0.2634
   66CHL1   H25 6056   2.074   5.557   4.341 -1.0201  0.0395 -2.8187
   66CHL1   C26 6057   2.013   5.427   4.521 -0.1227  0.1533 -0.1056
   66CHL1  H26A 6058   2.117   5.422   4.560  0.2957  1.2009 -1.0445
   66CHL1  H26B 6059   1.960   5.509   4.573  0.0503 -0.0621  0.4205
   66CHL1  H26C 6060   1.961   5.330   4.537  1.8768 -1.0546 -0.4889
   66CHL1   C27 6061   2.081   5.340   4.283 -0.1111  0.6605 -0.2319
   66CHL1  H27A 6062   2.089   5.376   4.178 -3.2958  3.0230  0.2120
   66CHL1  H27B 6063   2.017   5.252   4.301 -0.1053  0.5937 -0.5349
   66CHL1  H27C 6064   2.179   5.322   4.333 -1.6564 -0.0797  2.7503
   67CHL1    C3 6065   4.127   0.792   3.094 -0.1065 -0.0778  0.7882
   67CHL1    H3 6066   4.018   0.774   3.093  0.2056 -2.1160  0.5737
   67CHL1    O3 6067   4.174   0.783   2.957 -0.2294 -0.0057 -0.5098
   67CHL1   H3' 6068   4.123   0.853   2.916 -1.6060  1.3319  3.0873
   67CHL1    C4 6069   4.148   0.937   3.144 -0.4434 -0.0754 -0.1870
   67CHL1   H4A 6070   4.257   0.955   3.147 -0.4442 -0.1195  0.2184
   67CHL1   H4B 6071   4.099   1.008   3.073 -0.2134  1.1346  0.8261
   67CHL1    C5 6072   4.090   0.943   3.282 -0.0284 -0.5725 -0.1099
   67CHL1    C6 6073   3.992   1.030   3.312 -0.4802  0.5922  0.2590
   67CHL1    H6 6074   3.946   1.084   3.229 -0.0880  0.2867 -0.1602
   67CHL1    C7 6075   3.927   1.049   3.451 -0.0996 -0.4762  0.2760
   67CHL1   H7A 6076   3.925   1.159   3.469  2.1602 -0.2502 -0.5372
   67CHL1   H7B 6077   3.821   1.014   3.456  0.3894 -1.8376  2.0649
   67CHL1    C8 6078   4.021   0.990   3.556  0.0174  0.7601  0.1839
   67CHL1    H8 6079   4.117   1.046   3.564  2.1181 -2.4424 -0.4331
   67CHL1   C14 6080   3.949   0.979   3.686 -0.2846 -0.5053 -0.2699
   67CHL1   H14 6081   3.865   0.909   3.664 -1.4678  0.4666  1.0010
   67CHL1   C15 6082   3.895   1.116   3.737  0.2703  0.4141  0.1786
   67CHL1  H15A 6083   3.977   1.189   3.721  1.5360 -1.0607 -0.3093
   67CHL1  H15B 6084   3.808   1.158   3.681 -0.7922  0.3288  1.6915
   67CHL1   C16 6085   3.857   1.082   3.877 -0.6208  0.1393 -0.0955
   67CHL1  H16A 6086   3.905   1.159   3.942 -0.2391 -0.9441  0.9505
   67CHL1  H16B 6087   3.747   1.076   3.896 -1.0048  2.4412 -1.3070
   67CHL1   C17 6088   3.918   0.941   3.912 -0.4715  0.6534  0.7261
   67CHL1   H17 6089   3.841   0.867   3.884  1.7366 -1.6094  0.2242
   67CHL1   C13 6090   4.026   0.918   3.799  0.1187  0.5981 -0.0430
   67CHL1   C18 6091   4.151   1.000   3.834 -0.7553 -0.4376  0.1034
   67CHL1  H18A 6092   4.201   0.949   3.919 -0.2573 -1.0930 -0.5648
   67CHL1  H18B 6093   4.225   1.008   3.752  0.4547  0.1961  1.2310
   67CHL1  H18C 6094   4.125   1.102   3.869  0.9053 -0.5564  1.8201
   67CHL1   C12 6095   4.067   0.773   3.760 -0.3468  1.2539  0.1939
   67CHL1  H12A 6096   4.138   0.738   3.838 -1.5866 -1.5453  0.1893
   67CHL1  H12B 6097   3.985   0.698   3.753 -0.2241  0.6877  3.2846
   67CHL1   C11 6098   4.148   0.774   3.628 -0.4959 -0.4241 -0.1727
   67CHL1  H11A 6099   4.240   0.834   3.643 -0.5978 -0.2389 -0.2772
   67CHL1  H11B 6100   4.182   0.678   3.584  2.5266  0.6732 -0.4842
   67CHL1    C9 6101   4.075   0.848   3.519 -0.1806  0.5493 -0.3493
   67CHL1    H9 6102   3.984   0.789   3.496 -0.1565  1.2767 -2.5527
   67CHL1   C10 6103   4.152   0.848   3.388 -0.3676  0.0037 -0.1317
   67CHL1   C19 6104   4.301   0.882   3.415 -0.0878  0.4942 -0.1124
   67CHL1  H19A 6105   4.350   0.907   3.319  2.3973 -2.9460  0.0598
   67CHL1  H19B 6106   4.321   0.959   3.492  0.7403 -0.0220  0.2067
   67CHL1  H19C 6107   4.362   0.793   3.444 -1.4287 -0.4419 -0.0793
   67CHL1    C1 6108   4.140   0.711   3.319 -0.3420 -0.5114 -0.6920
   67CHL1   H1A 6109   4.203   0.647   3.384  4.2991  2.9773 -1.2405
   67CHL1   H1B 6110   4.033   0.683   3.325  0.1668 -2.2095  2.0715
   67CHL1    C2 6111   4.199   0.694   3.179  0.4431 -0.3367  0.4301
   67CHL1   H2A 6112   4.183   0.592   3.137  0.8070 -0.1048 -0.2733
   67CHL1   H2B 6113   4.307   0.718   3.170  0.4663 -0.7416 -0.3934
   67CHL1   C20 6114   3.969   0.920   4.054 -0.1733 -0.3493 -0.2297
   67CHL1   H20 6115   4.055   0.989   4.071 -1.5122  0.9036  1.8924
   67CHL1   C21 6116   4.013   0.776   4.089 -0.0235 -0.8390  1.1077
   67CHL1  H21A 6117   4.109   0.745   4.044  0.0361  0.1450  0.5184
   67CHL1  H21B 6118   3.936   0.698   4.072 -0.1658 -1.2857  3.4300
   67CHL1  H21C 6119   4.030   0.783   4.199 -1.2462  1.1476  1.2236
   67CHL1   C22 6120   3.854   0.972   4.156 -0.6026  0.0723  0.4150
   67CHL1  H22A 6121   3.820   1.072   4.122  0.6136 -0.2269 -1.9291
   67CHL1  H22B 6122   3.780   0.889   4.155  1.1330 -1.5981  2.1709
   67CHL1   C23 6123   3.907   0.995   4.299  0.5135 -0.0738 -0.1836
   67CHL1  H23A 6124   3.923   0.899   4.353  1.3182  0.9184  1.4457
   67CHL1  H23B 6125   4.008   1.041   4.297  0.8666 -0.8229 -0.1659
   67CHL1   C24 6126   3.805   1.071   4.392  0.0614 -0.3878 -0.6220
   67CHL1  H24A 6127   3.787   1.170   4.344 -1.1398 -0.3096 -0.0496
   67CHL1  H24B 6128   3.707   1.028   4.423  0.2702 -0.2430  0.2482
   67CHL1   C25 6129   3.879   1.110   4.522  0.2975  0.3143 -0.7601
   67CHL1   H25 6130   3.984   1.137   4.499  1.0256 -1.9938 -0.4357
   67CHL1   C26 6131   3.812   1.235   4.583 -0.1502 -0.2457  0.2134
   67CHL1  H26A 6132   3.720   1.211   4.641 -1.2607 -0.1380 -1.4288
   67CHL1  H26B 6133   3.873   1.279   4.663 -0.3659 -0.5611  0.5569
   67CHL1  H26C 6134   3.802   1.314   4.506  3.7598 -0.9221 -1.2021
   67CHL1   C27 6135   3.881   0.995   4.630  0.0948  0.1317 -0.1203
   67CHL1  H27A 6136   3.775   0.966   4.646 -0.5965  0.9380 -2.7430
   67CHL1  H27B 6137   3.922   0.907   4.575 -0.3149  0.1965 -0.5318
   67CHL1  H27C 6138   3.944   1.008   4.720 -0.5771  0.8717  0.2548
   68CHL1    C3 6139   3.411   4.203   3.136  0.4795  0.6157  0.4921
   68CHL1    H3 6140   3.459   4.301   3.157  1.2014  0.0812  1.4450
   68CHL1    O3 6141   3.457   4.159   3.014  0.3179 -0.2171 -0.2252
   68CHL1   H3' 6142   3.422   4.071   2.998  0.1802 -0.1028 -0.5649
   68CHL1    C4 6143   3.475   4.111   3.245 -0.2239  0.1406 -0.0843
   68CHL1   H4A 6144   3.458   4.003   3.223 -2.9997  0.4036  0.3090
   68CHL1   H4B 6145   3.585   4.114   3.240 -0.0956 -2.7714 -0.9774
   68CHL1    C5 6146   3.417   4.140   3.381  0.1367  0.5940 -0.3998
   68CHL1    C6 6147   3.498   4.161   3.488  0.2391 -0.6557 -0.0411
   68CHL1    H6 6148   3.606   4.164   3.467 -0.4343  2.1868 -4.3863
   68CHL1    C7 6149   3.441   4.194   3.629  0.2880 -0.4220 -0.2659
   68CHL1   H7A 6150   3.487   4.133   3.709 -0.1741 -0.2998  0.0963
   68CHL1   H7B 6151   3.459   4.302   3.646 -2.3049  0.0564 -0.1630
   68CHL1    C8 6152   3.289   4.156   3.651 -1.0394 -0.5077 -0.1781
   68CHL1    H8 6153   3.284   4.045   3.660  3.6890 -0.9794 -0.9416
   68CHL1   C14 6154   3.235   4.221   3.781 -0.5833 -0.0976 -0.1656
   68CHL1   H14 6155   3.250   4.327   3.750 -1.7233  0.0577 -0.2286
   68CHL1   C15 6156   3.311   4.189   3.911 -0.2882  0.3259 -0.3205
   68CHL1  H15A 6157   3.338   4.082   3.914  2.3185  0.9000 -0.2511
   68CHL1  H15B 6158   3.398   4.258   3.922  0.4175 -0.3354 -1.5386
   68CHL1   C16 6159   3.206   4.213   4.020 -0.0388  0.0389  0.8197
   68CHL1  H16A 6160   3.199   4.117   4.075 -0.0770 -1.3323 -1.4899
   68CHL1  H16B 6161   3.238   4.293   4.091  2.3344 -0.9825  0.9897
   68CHL1   C17 6162   3.073   4.251   3.945 -0.2741  0.3854 -0.0807
   68CHL1   H17 6163   3.082   4.361   3.931  1.3343  0.3286  0.3011
   68CHL1   C13 6164   3.085   4.189   3.803  0.4820  0.5766  0.9997
   68CHL1   C18 6165   3.063   4.035   3.808 -0.2637  0.6489  0.2275
   68CHL1  H18A 6166   2.958   4.007   3.831  0.2999 -1.3837  0.5199
   68CHL1  H18B 6167   3.084   3.992   3.708  0.6522  2.5947 -0.4815
   68CHL1  H18C 6168   3.127   3.984   3.883 -3.7021 -2.8734  1.0781
   68CHL1   C12 6169   3.007   4.256   3.685  0.0649  0.1766 -0.3501
   68CHL1  H12A 6170   2.897   4.241   3.684 -0.2361  2.0277  0.5017
   68CHL1  H12B 6171   3.031   4.364   3.689  0.9470  0.0392 -1.5561
   68CHL1   C11 6172   3.052   4.199   3.547  0.0563 -0.3662  0.2956
   68CHL1  H11A 6173   3.023   4.092   3.534 -2.4508  0.3343 -0.4794
   68CHL1  H11B 6174   3.001   4.248   3.462  0.5565  2.1864  1.3689
   68CHL1    C9 6175   3.210   4.197   3.531  0.1638 -0.3286  0.4169
   68CHL1    H9 6176   3.229   4.306   3.519 -0.2262 -0.4178 -1.2720
   68CHL1   C10 6177   3.261   4.147   3.394 -0.4382 -0.1669  0.4926
   68CHL1   C19 6178   3.218   3.997   3.370  0.1123  0.2964 -0.2402
   68CHL1  H19A 6179   3.108   3.984   3.376 -0.1607  1.3532 -2.0721
   68CHL1  H19B 6180   3.239   3.951   3.271 -1.7285 -0.5519 -0.2915
   68CHL1  H19C 6181   3.261   3.936   3.452 -2.8026 -1.7450 -0.0627
   68CHL1    C1 6182   3.207   4.240   3.282 -0.7963  0.1164  0.4609
   68CHL1   H1A 6183   3.097   4.241   3.264 -0.3332 -1.7183 -3.3278
   68CHL1   H1B 6184   3.238   4.345   3.299 -0.6357  0.1814 -0.2055
   68CHL1    C2 6185   3.255   4.189   3.137  0.0677  0.0455  0.3326
   68CHL1   H2A 6186   3.216   4.269   3.070  1.0334  2.0980  2.0617
   68CHL1   H2B 6187   3.217   4.091   3.102 -0.5770  0.9934 -1.8007
   68CHL1   C20 6188   2.945   4.206   4.023 -0.2638  0.0416  0.4117
   68CHL1   H20 6189   2.941   4.096   4.012  0.4798  0.0767 -0.2423
   68CHL1   C21 6190   2.826   4.278   3.967  0.1573  0.1474 -0.5870
   68CHL1  H21A 6191   2.736   4.215   3.987 -0.2280  0.4551 -1.3264
   68CHL1  H21B 6192   2.836   4.290   3.857  1.5064 -1.8557 -0.7247
   68CHL1  H21C 6193   2.814   4.374   4.021 -1.5715 -0.1711 -0.3429
   68CHL1   C22 6194   2.950   4.237   4.177 -0.0796 -0.0657  0.6448
   68CHL1  H22A 6195   3.012   4.158   4.224  0.0083  1.3899  3.1765
   68CHL1  H22B 6196   3.013   4.329   4.185  0.4603 -0.2799 -0.8852
   68CHL1   C23 6197   2.831   4.268   4.257  0.8128  0.5249 -0.2830
   68CHL1  H23A 6198   2.780   4.363   4.230 -2.8506 -1.6105 -1.7467
   68CHL1  H23B 6199   2.745   4.203   4.229 -0.7238  2.6898 -0.8674
   68CHL1   C24 6200   2.846   4.270   4.401  0.5302  0.7173 -0.4758
   68CHL1  H24A 6201   2.886   4.172   4.436 -0.2792 -0.3782 -2.4234
   68CHL1  H24B 6202   2.919   4.344   4.440  0.0088  0.9604  0.0614
   68CHL1   C25 6203   2.707   4.290   4.462  0.3353 -0.0674 -0.6265
   68CHL1   H25 6204   2.655   4.375   4.413 -0.0419  0.1409  0.1253
   68CHL1   C26 6205   2.621   4.157   4.449 -0.7019 -0.1698  0.1898
   68CHL1  H26A 6206   2.679   4.065   4.471  0.5025  0.1616 -1.4250
   68CHL1  H26B 6207   2.545   4.160   4.530 -1.9242  0.1531 -0.9238
   68CHL1  H26C 6208   2.568   4.155   4.351 -1.1357  1.4141  0.3584
   68CHL1   C27 6209   2.717   4.328   4.609  0.1956 -0.3842 -0.3816
   68CHL1  H27A 6210   2.748   4.241   4.671 -1.3260 -0.9042 -0.3139
   68CHL1  H27B 6211   2.780   4.416   4.631 -1.8977  0.7936  1.2131
   68CHL1  H27C 6212   2.614   4.355   4.637 -0.5190 -2.5622 -0.6578
   69CHL1    C3 6213   4.468   1.409   2.756  0.0752 -0.3349  1.0059
   69CHL1    H3 6214   4.488   1.300   2.758  0.6203 -0.2925 -0.7590
   69CHL1    O3 6215   4.463   1.443   2.618 -0.4603 -0.2664 -0.0373
   69CHL1   H3' 6216   4.418   1.527   2.617  0.8621  0.5181 -2.4321
   69CHL1    C4 6217   4.332   1.440   2.826 -0.5152  0.6378  0.0962
   69CHL1   H4A 6218   4.311   1.547   2.805 -2.1908  0.2515 -0.3061
   69CHL1   H4B 6219   4.252   1.379   2.779 -0.8045  1.7906 -0.9534
   69CHL1    C5 6220   4.343   1.406   2.973  0.2219 -0.3813  0.5695
   69CHL1    C6 6221   4.263   1.307   3.022 -0.1902 -0.5143 -0.5917
   69CHL1    H6 6222   4.177   1.268   2.966 -2.2903  0.5346  1.7292
   69CHL1    C7 6223   4.265   1.279   3.172  0.1149  0.6183 -0.6289
   69CHL1   H7A 6224   4.163   1.244   3.201  0.3522  0.3168 -0.1530
   69CHL1   H7B 6225   4.311   1.180   3.189  0.0237  0.6431 -0.2280
   69CHL1    C8 6226   4.330   1.390   3.260 -0.6403 -0.0688 -0.1002
   69CHL1    H8 6227   4.256   1.470   3.240 -2.2984 -1.6858 -0.6627
   69CHL1   C14 6228   4.335   1.339   3.403  0.5145 -0.8105 -0.5524
   69CHL1   H14 6229   4.394   1.245   3.395  1.0855 -0.5648  0.5620
   69CHL1   C15 6230   4.208   1.301   3.474  0.2943 -0.3327 -0.5234
   69CHL1  H15A 6231   4.134   1.379   3.443  1.3962 -0.2975 -3.4088
   69CHL1  H15B 6232   4.170   1.204   3.435  0.0564 -0.8268  0.9009
   69CHL1   C16 6233   4.242   1.301   3.624  0.4149  0.5434 -0.3989
   69CHL1  H16A 6234   4.188   1.368   3.694 -1.7771 -1.1005 -0.4180
   69CHL1  H16B 6235   4.229   1.202   3.674 -1.6768  0.1600 -1.5821
   69CHL1   C17 6236   4.392   1.349   3.626 -0.2183  0.4206  0.2057
   69CHL1   H17 6237   4.460   1.263   3.608  0.0350  0.8474 -0.9634
   69CHL1   C13 6238   4.408   1.429   3.501 -0.0893  0.1750  0.1821
   69CHL1   C18 6239   4.340   1.566   3.503 -0.2638 -0.4509  0.1795
   69CHL1  H18A 6240   4.236   1.560   3.542 -0.5899 -0.6892 -0.6796
   69CHL1  H18B 6241   4.402   1.629   3.570 -0.9673 -0.0492  0.4686
   69CHL1  H18C 6242   4.337   1.613   3.402  1.0535 -1.8310 -0.5263
   69CHL1   C12 6243   4.552   1.448   3.445  0.0873  0.5657  0.1858
   69CHL1  H12A 6244   4.602   1.520   3.513 -1.2111  1.7118 -0.0476
   69CHL1  H12B 6245   4.608   1.352   3.439  0.5496  0.8270  0.2139
   69CHL1   C11 6246   4.565   1.504   3.304 -0.0241  1.1996  0.2064
   69CHL1  H11A 6247   4.539   1.612   3.316 -0.5137  0.8684  2.5791
   69CHL1  H11B 6248   4.673   1.505   3.278  0.5943  0.3897  2.5147
   69CHL1    C9 6249   4.473   1.421   3.197  0.1255 -0.4647 -0.4494
   69CHL1    H9 6250   4.525   1.324   3.184 -0.1578 -0.5748 -0.7668
   69CHL1   C10 6251   4.456   1.478   3.054 -0.3069 -0.3162 -0.5840
   69CHL1   C19 6252   4.424   1.630   3.061  0.0770 -0.4646 -0.5021
   69CHL1  H19A 6253   4.511   1.671   3.117  0.0130 -0.9742 -0.0162
   69CHL1  H19B 6254   4.411   1.678   2.962 -1.7876  0.4858  0.1548
   69CHL1  H19C 6255   4.331   1.634   3.122 -0.5926 -1.9378 -1.3717
   69CHL1    C1 6256   4.595   1.455   2.972 -0.2140  0.7053 -0.5965
   69CHL1   H1A 6257   4.680   1.511   3.017  1.1557  1.1918 -3.5890
   69CHL1   H1B 6258   4.634   1.353   2.991  2.2537  1.3484 -1.8307
   69CHL1    C2 6259   4.591   1.481   2.819 -0.5638  0.4665  0.4974
   69CHL1   H2A 6260   4.688   1.452   2.772 -0.1914  0.2711  1.3779
   69CHL1   H2B 6261   4.583   1.591   2.802 -1.2493  0.6717  2.0643
   69CHL1   C20 6262   4.435   1.404   3.768  1.1567 -0.8193  0.8255
   69CHL1   H20 6263   4.357   1.479   3.793  0.6946 -1.6947  2.0903
   69CHL1   C21 6264   4.570   1.476   3.775 -0.6447 -0.2002 -0.0387
   69CHL1  H21A 6265   4.648   1.402   3.747 -1.2939 -0.6144 -0.7785
   69CHL1  H21B 6266   4.607   1.511   3.874  2.9269 -0.8250 -1.0189
   69CHL1  H21C 6267   4.570   1.557   3.700 -0.8924 -0.3409 -0.1908
   69CHL1   C22 6268   4.422   1.300   3.877  0.7860 -0.0733  0.1261
   69CHL1  H22A 6269   4.330   1.239   3.864 -0.7404  1.5695  2.3621
   69CHL1  H22B 6270   4.503   1.224   3.874  1.2914  0.4714 -0.2527
   69CHL1   C23 6271   4.400   1.369   4.017  0.0796  0.0941 -0.4374
   69CHL1  H23A 6272   4.502   1.384   4.058  1.2237  1.9711 -3.5889
   69CHL1  H23B 6273   4.331   1.456   4.014 -2.4674 -1.7533  0.9369
   69CHL1   C24 6274   4.318   1.286   4.122 -0.6237  0.1892 -0.3633
   69CHL1  H24A 6275   4.220   1.268   4.072 -1.9571  2.8072  1.0771
   69CHL1  H24B 6276   4.365   1.187   4.139 -0.1415  0.1240 -1.9546
   69CHL1   C25 6277   4.283   1.346   4.265 -0.4679  0.0321 -0.7922
   69CHL1   H25 6278   4.241   1.261   4.323  0.0352  1.0211  1.1409
   69CHL1   C26 6279   4.413   1.384   4.345 -0.4403 -0.0002  0.0264
   69CHL1  H26A 6280   4.392   1.424   4.447  2.6715  0.5673  0.5388
   69CHL1  H26B 6281   4.480   1.296   4.344 -0.6822 -0.2480  1.9409
   69CHL1  H26C 6282   4.460   1.464   4.283 -1.0372  1.2956  1.1873
   69CHL1   C27 6283   4.187   1.467   4.263  0.6105 -0.5747  1.2980
   69CHL1  H27A 6284   4.085   1.435   4.235 -0.4808  2.4941  1.4395
   69CHL1  H27B 6285   4.192   1.516   4.363  1.0924 -0.9300  1.4526
   69CHL1  H27C 6286   4.223   1.536   4.184 -0.1075 -2.2387 -0.5707
   70CHL1    C3 6287   3.052   5.115   3.031 -0.6022  0.0659 -0.1791
   70CHL1    H3 6288   2.988   5.024   3.028 -1.4775  0.5045  2.4051
   70CHL1    O3 6289   3.094   5.145   2.902  0.1796 -0.3370  0.1497
   70CHL1   H3' 6290   3.018   5.195   2.872  0.6581  1.1241  1.2939
   70CHL1    C4 6291   2.973   5.225   3.094  0.0253  0.1192 -0.4959
   70CHL1   H4A 6292   3.038   5.312   3.073 -1.6051  1.2045 -1.2033
   70CHL1   H4B 6293   2.874   5.233   3.045  0.0542 -1.2963 -0.8310
   70CHL1    C5 6294   2.947   5.206   3.241 -0.9577  0.2302  0.3636
   70CHL1    C6 6295   2.824   5.200   3.294 -0.3402 -0.3971  0.3773
   70CHL1    H6 6296   2.739   5.209   3.225  0.3788  0.5062 -0.4107
   70CHL1    C7 6297   2.800   5.178   3.440 -0.1167 -0.0090  0.3629
   70CHL1   H7A 6298   2.717   5.247   3.466 -0.9023 -1.0107  0.5427
   70CHL1   H7B 6299   2.767   5.074   3.460 -0.7154  0.5449  2.5120
   70CHL1    C8 6300   2.922   5.214   3.525 -0.0233  0.2926  0.3019
   70CHL1    H8 6301   2.936   5.321   3.499  1.4447 -0.3164 -1.7082
   70CHL1   C14 6302   2.895   5.189   3.673  0.1742 -0.6807  0.5674
   70CHL1   H14 6303   2.876   5.080   3.680 -1.2237 -0.3524  2.7222
   70CHL1   C15 6304   2.766   5.244   3.738 -0.0311  0.4837  0.7771
   70CHL1  H15A 6305   2.744   5.349   3.708 -0.7703  0.6177  1.7652
   70CHL1  H15B 6306   2.679   5.178   3.719  0.9177 -0.4093 -0.6793
   70CHL1   C16 6307   2.802   5.246   3.888  0.0130 -0.1020 -0.2570
   70CHL1  H16A 6308   2.815   5.348   3.930 -2.5545  0.3582 -0.4119
   70CHL1  H16B 6309   2.725   5.186   3.940 -0.7444  0.6066 -0.5450
   70CHL1   C17 6310   2.939   5.179   3.899 -0.1847  0.1858  0.4931
   70CHL1   H17 6311   2.919   5.071   3.890  0.0999  0.0529  1.4133
   70CHL1   C13 6312   3.012   5.218   3.769 -0.0648 -0.8057  0.4932
   70CHL1   C18 6313   3.045   5.372   3.774 -0.2534  0.1135  0.5833
   70CHL1  H18A 6314   2.957   5.439   3.790 -0.5724  0.2945 -1.5749
   70CHL1  H18B 6315   3.116   5.385   3.858  0.5710  0.8962 -0.2075
   70CHL1  H18C 6316   3.098   5.409   3.684 -2.4188 -0.7342 -1.1553
   70CHL1   C12 6317   3.127   5.130   3.724  0.0686 -0.2368  0.0079
   70CHL1  H12A 6318   3.218   5.144   3.787 -0.1431  0.7747  0.1011
   70CHL1  H12B 6319   3.092   5.027   3.743  0.2324 -0.0318  1.5012
   70CHL1   C11 6320   3.167   5.152   3.579  0.2543  0.1366 -0.1233
   70CHL1  H11A 6321   3.214   5.253   3.574  0.6177  0.1037  1.6765
   70CHL1  H11B 6322   3.250   5.083   3.553  0.5149 -0.1091  1.2554
   70CHL1    C9 6323   3.044   5.143   3.478  1.4365 -0.4084 -0.5884
   70CHL1    H9 6324   3.006   5.039   3.468 -3.6536  1.2401 -1.3284
   70CHL1   C10 6325   3.075   5.186   3.330 -0.3617  0.0384 -1.0302
   70CHL1   C19 6326   3.152   5.320   3.338  0.3947  0.2418 -0.5790
   70CHL1  H19A 6327   3.108   5.391   3.412 -1.8693 -0.3154 -1.3003
   70CHL1  H19B 6328   3.256   5.304   3.373  1.0356  2.5049 -1.2642
   70CHL1  H19C 6329   3.178   5.363   3.239 -0.1056 -0.7896 -1.1760
   70CHL1    C1 6330   3.158   5.075   3.262  0.5786  0.1718 -0.2089
   70CHL1   H1A 6331   3.248   5.063   3.327 -0.9429 -0.0166  1.9752
   70CHL1   H1B 6332   3.101   4.980   3.258  0.5679  0.1936 -0.5971
   70CHL1    C2 6333   3.179   5.087   3.112 -0.6013  0.4241  0.3160
   70CHL1   H2A 6334   3.219   4.989   3.079 -1.9228  0.2462 -0.8446
   70CHL1   H2B 6335   3.244   5.175   3.092 -3.0074  2.1792 -0.2530
   70CHL1   C20 6336   3.010   5.208   4.037  0.3407  0.1428 -0.1127
   70CHL1   H20 6337   2.998   5.317   4.056  1.9888  0.2765  0.3067
   70CHL1   C21 6338   3.160   5.173   4.039  0.4703  0.0990 -0.0234
   70CHL1  H21A 6339   3.205   5.180   4.141 -1.4253  1.2317  0.7794
   70CHL1  H21B 6340   3.221   5.241   3.975 -2.3193 -0.9560 -4.2232
   70CHL1  H21C 6341   3.178   5.072   3.997  2.1262 -0.9441  2.9182
   70CHL1   C22 6342   2.935   5.136   4.159  0.2435  0.2071 -0.2810
   70CHL1  H22A 6343   2.827   5.138   4.135  0.0697  0.9141  0.5156
   70CHL1  H22B 6344   2.983   5.036   4.165  1.6708  0.8050 -1.0747
   70CHL1   C23 6345   2.958   5.210   4.291  0.2039 -0.0901  0.1513
   70CHL1  H23A 6346   3.064   5.200   4.321 -0.1825 -1.0765  1.2808
   70CHL1  H23B 6347   2.926   5.315   4.273  0.7099 -0.2106 -1.6007
   70CHL1   C24 6348   2.878   5.144   4.409  0.2919  0.2223  0.0881
   70CHL1  H24A 6349   2.772   5.149   4.376  0.5647  0.7077 -0.7541
   70CHL1  H24B 6350   2.905   5.037   4.408  1.0693  0.4045 -1.1541
   70CHL1   C25 6351   2.891   5.205   4.550 -0.0044 -0.0647  1.0320
   70CHL1   H25 6352   2.811   5.152   4.607 -1.5342 -0.7088 -1.5480
   70CHL1   C26 6353   3.032   5.185   4.612 -0.3977 -0.5746  0.2507
   70CHL1  H26A 6354   3.035   5.247   4.703  1.2789  1.1040 -0.8831
   70CHL1  H26B 6355   3.040   5.077   4.636 -0.8929 -1.3751 -2.7132
   70CHL1  H26C 6356   3.109   5.212   4.537 -0.2338  2.7823  1.4909
   70CHL1   C27 6357   2.855   5.352   4.551 -0.2423 -0.1147 -0.5242
   70CHL1  H27A 6358   2.924   5.409   4.485 -0.0370 -2.8672 -2.8593
   70CHL1  H27B 6359   2.757   5.356   4.500 -0.8832  1.0344  0.7325
   70CHL1  H27C 6360   2.841   5.394   4.653  0.1539  0.8187 -0.8452
   71CHL1    C3 6361   1.618   3.430   2.906  0.0488 -0.2490 -0.2109
   71CHL1    H3 6362   1.517   3.384   2.905 -0.6156  0.8026  3.2376
   71CHL1    O3 6363   1.693   3.397   2.784  0.5415  0.2335  0.1267
   71CHL1   H3' 6364   1.649   3.443   2.712  1.4122  1.4146  0.3223
   71CHL1    C4 6365   1.604   3.589   2.917  0.0366  0.1509  0.0846
   71CHL1   H4A 6366   1.707   3.631   2.913  0.5335 -0.7542  2.1491
   71CHL1   H4B 6367   1.538   3.625   2.835  0.4380  0.8415  0.0581
   71CHL1    C5 6368   1.547   3.621   3.058 -1.0173 -0.4988 -0.5402
   71CHL1    C6 6369   1.432   3.697   3.077  0.2849  0.3392 -0.7977
   71CHL1    H6 6370   1.364   3.722   2.995  2.6325  1.5384 -2.4937
   71CHL1    C7 6371   1.391   3.754   3.209  0.2701  0.1241 -0.5685
   71CHL1   H7A 6372   1.379   3.864   3.202  1.6996  0.2097 -2.5650
   71CHL1   H7B 6373   1.306   3.699   3.256  1.1699 -0.5904  0.2644
   71CHL1    C8 6374   1.500   3.731   3.319  1.1135 -0.0825 -0.1652
   71CHL1    H8 6375   1.578   3.808   3.299  0.9596  0.2522  0.5003
   71CHL1   C14 6376   1.445   3.763   3.460  0.0708  0.0452 -0.6821
   71CHL1   H14 6377   1.356   3.699   3.476 -0.8625  1.7148  1.1925
   71CHL1   C15 6378   1.380   3.903   3.490 -0.3885 -0.2028  0.5227
   71CHL1  H15A 6379   1.442   3.973   3.429  0.3334  0.0164  1.4834
   71CHL1  H15B 6380   1.275   3.908   3.454 -0.7082 -2.8429  0.9096
   71CHL1   C16 6381   1.395   3.921   3.640 -0.0221  0.3724 -0.6198
   71CHL1  H16A 6382   1.458   4.012   3.648  1.1923 -0.6118  2.0440
   71CHL1  H16B 6383   1.292   3.942   3.678 -0.5994 -1.2315 -1.2146
   71CHL1   C17 6384   1.452   3.784   3.695  0.4619 -0.4134 -0.6146
   71CHL1   H17 6385   1.361   3.724   3.721 -0.6830  2.1207  1.7345
   71CHL1   C13 6386   1.536   3.728   3.584  0.4694 -1.2270  0.1443
   71CHL1   C18 6387   1.673   3.802   3.571  0.3730 -0.0071 -0.4399
   71CHL1  H18A 6388   1.672   3.913   3.565 -2.2756  0.2097  1.9055
   71CHL1  H18B 6389   1.739   3.766   3.653  1.6458  1.2256 -0.8730
   71CHL1  H18C 6390   1.720   3.760   3.480  0.4056 -0.6783 -0.1195
   71CHL1   C12 6391   1.553   3.572   3.575 -0.8338 -0.1238 -0.0428
   71CHL1  H12A 6392   1.623   3.549   3.658 -0.2551  2.7421  0.3615
   71CHL1  H12B 6393   1.453   3.526   3.588 -0.7585 -0.5783 -1.0191
   71CHL1   C11 6394   1.627   3.540   3.436 -0.4107  0.6443 -0.1883
   71CHL1  H11A 6395   1.732   3.571   3.456 -0.2802  0.8035 -1.0838
   71CHL1  H11B 6396   1.608   3.430   3.438 -1.1973  0.6350  4.9137
   71CHL1    C9 6397   1.553   3.593   3.305  0.0047 -0.1270 -0.8325
   71CHL1    H9 6398   1.462   3.530   3.296 -0.9541  1.3665 -2.5126
   71CHL1   C10 6399   1.633   3.570   3.175 -0.3782 -0.8504 -0.6867
   71CHL1   C19 6400   1.770   3.652   3.181  0.0621  0.3590  0.5368
   71CHL1  H19A 6401   1.840   3.627   3.098 -1.8349 -2.5480 -0.3362
   71CHL1  H19B 6402   1.747   3.761   3.184  0.8709  0.5359  0.7414
   71CHL1  H19C 6403   1.813   3.605   3.273 -0.2884 -1.9284 -0.4026
   71CHL1    C1 6404   1.658   3.418   3.156  0.8365 -0.5919  0.1886
   71CHL1   H1A 6405   1.728   3.380   3.233  0.8045  1.4257  1.2969
   71CHL1   H1B 6406   1.559   3.372   3.177 -0.1691  1.0418 -0.7258
   71CHL1    C2 6407   1.705   3.378   3.018 -0.1981 -0.1782  0.3923
   71CHL1   H2A 6408   1.725   3.270   3.005  0.1615  0.0170 -0.7773
   71CHL1   H2B 6409   1.804   3.428   3.004 -1.2364  2.3402  1.3918
   71CHL1   C20 6410   1.519   3.792   3.838 -0.3821  0.0997  0.7509
   71CHL1   H20 6411   1.610   3.856   3.828  0.2231 -0.8991 -0.4292
   71CHL1   C21 6412   1.556   3.654   3.900  0.6875 -0.3149 -0.2327
   71CHL1  H21A 6413   1.612   3.677   3.993  2.3477  1.2024 -1.5484
   71CHL1  H21B 6414   1.635   3.599   3.843  1.2654  0.7593 -0.5023
   71CHL1  H21C 6415   1.475   3.588   3.937  1.2700 -1.5550 -1.0736
   71CHL1   C22 6416   1.427   3.865   3.941 -0.5648  0.1998  0.8023
   71CHL1  H22A 6417   1.442   3.971   3.912 -0.4643  0.1170  0.5432
   71CHL1  H22B 6418   1.324   3.834   3.912  0.2672 -1.1843 -0.8779
   71CHL1   C23 6419   1.453   3.848   4.091  0.2415 -0.3257  0.3286
   71CHL1  H23A 6420   1.431   3.744   4.122  1.4977  0.0321  2.7156
   71CHL1  H23B 6421   1.559   3.868   4.118  0.5759  0.2583 -1.3353
   71CHL1   C24 6422   1.361   3.941   4.172  0.1530  0.2109 -0.0929
   71CHL1  H24A 6423   1.368   4.046   4.138  0.7221 -0.1409 -1.1016
   71CHL1  H24B 6424   1.255   3.916   4.151  0.3875  1.2817 -3.0025
   71CHL1   C25 6425   1.392   3.938   4.323 -0.6857  0.4421  0.6085
   71CHL1   H25 6426   1.499   3.965   4.331 -0.5253 -0.2432  0.8447
   71CHL1   C26 6427   1.306   4.049   4.394 -0.2675 -0.3221  0.1085
   71CHL1  H26A 6428   1.200   4.049   4.360  0.0926 -1.7670 -1.1407
   71CHL1  H26B 6429   1.327   4.053   4.503 -0.3781  4.1214  0.1289
   71CHL1  H26C 6430   1.360   4.126   4.335  2.0063 -2.0804 -0.2725
   71CHL1   C27 6431   1.375   3.794   4.382  0.4700 -0.2819 -0.0743
   71CHL1  H27A 6432   1.279   3.752   4.345  0.6719 -0.8311  0.0233
   71CHL1  H27B 6433   1.457   3.724   4.357 -0.3938 -1.3800  0.0829
   71CHL1  H27C 6434   1.366   3.806   4.492 -3.8266 -0.0805 -0.2587
   72CHL1    C3 6435   1.606   0.270   2.613 -0.6333  0.2691 -0.2041
   72CHL1    H3 6436   1.640   0.164   2.613  0.5765  0.6381  0.0505
   72CHL1    O3 6437   1.608   0.298   2.475 -0.0330  0.3980 -0.0730
   72CHL1   H3' 6438   1.518   0.271   2.457  0.7601 -1.6861 -1.2369
   72CHL1    C4 6439   1.463   0.286   2.662  0.1562  0.1492  0.3087
   72CHL1   H4A 6440   1.424   0.384   2.628  0.7029  1.3951  3.0198
   72CHL1   H4B 6441   1.398   0.219   2.602  1.0215  0.7254 -1.3374
   72CHL1    C5 6442   1.447   0.283   2.815 -0.2747  0.1809 -0.2407
   72CHL1    C6 6443   1.349   0.206   2.873 -0.4244 -0.6796 -0.8164
   72CHL1    H6 6444   1.269   0.161   2.812 -1.0512  0.6322 -0.9975
   72CHL1    C7 6445   1.331   0.193   3.013  0.0704 -0.7290  0.3017
   72CHL1   H7A 6446   1.221   0.204   3.023 -0.2535 -2.6743 -0.6204
   72CHL1   H7B 6447   1.368   0.095   3.051 -0.2504 -0.2588  1.8776
   72CHL1    C8 6448   1.398   0.290   3.105  0.3520  0.3023 -0.1595
   72CHL1    H8 6449   1.337   0.383   3.106 -1.7044 -0.9425  2.2697
   72CHL1   C14 6450   1.417   0.240   3.245 -0.5704 -0.0370 -0.2196
   72CHL1   H14 6451   1.479   0.149   3.230 -0.7750  0.1196 -2.3819
   72CHL1   C15 6452   1.290   0.181   3.307  0.0565 -0.3099  0.1556
   72CHL1  H15A 6453   1.201   0.245   3.291 -1.2271 -1.6526  1.6342
   72CHL1  H15B 6454   1.268   0.073   3.289 -0.6569 -1.0332  4.3941
   72CHL1   C16 6455   1.318   0.188   3.455  0.1304  0.4111 -0.2739
   72CHL1  H16A 6456   1.250   0.260   3.505 -1.4701  0.2972 -2.2023
   72CHL1  H16B 6457   1.285   0.093   3.502 -0.6161  1.0927  0.6109
   72CHL1   C17 6458   1.466   0.234   3.477  0.4042  0.2950 -0.2950
   72CHL1   H17 6459   1.526   0.141   3.472 -0.7356 -0.4532 -0.3856
   72CHL1   C13 6460   1.490   0.324   3.350  1.1115 -1.0723  0.2688
   72CHL1   C18 6461   1.415   0.455   3.366  0.0678 -0.2949 -0.7731
   72CHL1  H18A 6462   1.425   0.513   3.272  2.4586 -1.1715 -1.1162
   72CHL1  H18B 6463   1.307   0.439   3.389  0.0115 -0.2254 -0.9918
   72CHL1  H18C 6464   1.465   0.515   3.445 -1.2803  1.3091 -1.0774
   72CHL1   C12 6465   1.638   0.328   3.294 -1.0628 -0.6491 -0.6781
   72CHL1  H12A 6466   1.698   0.392   3.361 -2.1073  0.8788 -1.1463
   72CHL1  H12B 6467   1.693   0.232   3.283  1.6742  0.6447  0.6056
   72CHL1   C11 6468   1.635   0.387   3.153 -0.0126 -0.0549  0.0043
   72CHL1  H11A 6469   1.592   0.489   3.163 -2.3309 -1.2000  3.8053
   72CHL1  H11B 6470   1.733   0.396   3.101  0.7236 -2.2924  0.8751
   72CHL1    C9 6471   1.546   0.306   3.051 -0.6495 -0.2573 -0.6901
   72CHL1    H9 6472   1.581   0.201   3.050 -1.9796 -0.7102 -0.9065
   72CHL1   C10 6473   1.552   0.358   2.908 -0.3034 -0.4616  0.7144
   72CHL1   C19 6474   1.510   0.508   2.905 -0.4104  0.1055 -0.3901
   72CHL1  H19A 6475   1.580   0.563   2.972  2.1918 -0.3949 -2.5059
   72CHL1  H19B 6476   1.520   0.560   2.807  1.8463 -0.9403 -0.7818
   72CHL1  H19C 6477   1.405   0.511   2.941  0.5861 -1.2704  3.0792
   72CHL1    C1 6478   1.696   0.338   2.842  0.3180  0.2058  0.7554
   72CHL1   H1A 6479   1.767   0.408   2.890  0.2511 -0.1033  1.3115
   72CHL1   H1B 6480   1.720   0.233   2.867 -1.9563 -0.1794  1.6014
   72CHL1    C2 6481   1.705   0.362   2.690  0.5749 -0.3686  0.7387
   72CHL1   H2A 6482   1.802   0.325   2.650  0.2543 -0.2773 -0.1479
   72CHL1   H2B 6483   1.692   0.469   2.664  1.6409 -0.3535  0.2221
   72CHL1   C20 6484   1.489   0.291   3.619  0.6161  0.1416  0.5396
   72CHL1   H20 6485   1.421   0.378   3.635 -1.1615 -1.1445  0.2770
   72CHL1   C21 6486   1.637   0.341   3.633  0.2763  0.0942  0.0731
   72CHL1  H21A 6487   1.655   0.382   3.735 -1.0612  1.4021 -0.1693
   72CHL1  H21B 6488   1.649   0.425   3.561 -0.2652  0.3342  0.2585
   72CHL1  H21C 6489   1.704   0.255   3.613  0.0709 -0.1087  0.2535
   72CHL1   C22 6490   1.454   0.186   3.726  0.5910 -0.2758 -0.1162
   72CHL1  H22A 6491   1.350   0.152   3.709 -0.1966  2.5685 -1.5294
   72CHL1  H22B 6492   1.519   0.100   3.698 -0.4789 -0.7757 -1.1412
   72CHL1   C23 6493   1.490   0.230   3.868  0.2324  0.2881  0.5548
   72CHL1  H23A 6494   1.599   0.246   3.883  0.0941  0.1191  1.8340
   72CHL1  H23B 6495   1.434   0.323   3.890 -3.1690 -1.1823 -1.2210
   72CHL1   C24 6496   1.467   0.130   3.979  0.9112  0.6868  0.6244
   72CHL1  H24A 6497   1.360   0.100   3.976  0.9468  0.4386 -2.8751
   72CHL1  H24B 6498   1.514   0.031   3.964 -1.2717 -0.1976 -0.8754
   72CHL1   C25 6499   1.507   0.193   4.113  0.1764 -0.2956  0.2771
   72CHL1   H25 6500   1.608   0.237   4.105  0.5168 -0.7953  1.4911
   72CHL1   C26 6501   1.416   0.309   4.160 -0.0683 -0.2256 -0.2559
   72CHL1  H26A 6502   1.457   0.351   4.255  0.1870  0.1790 -0.5444
   72CHL1  H26B 6503   1.422   0.395   4.089 -0.9519  2.9563  3.1696
   72CHL1  H26C 6504   1.311   0.275   4.174 -0.5111  1.7897  2.0389
   72CHL1   C27 6505   1.510   0.092   4.229  0.1909 -0.1373  0.1625
   72CHL1  H27A 6506   1.551   0.144   4.318  1.7994  1.2330 -1.3155
   72CHL1  H27B 6507   1.408   0.053   4.248  0.4799 -0.2153  1.6844
   72CHL1  H27C 6508   1.571   0.001   4.214  2.6632  1.5287 -0.4340
   73CHL1    C3 6509   3.684   3.739   3.047 -1.0689 -0.2886 -0.2389
   73CHL1    H3 6510   3.636   3.839   3.050 -0.9549 -0.2299 -0.4046
   73CHL1    O3 6511   3.709   3.696   2.916 -0.1316 -0.2916 -0.5582
   73CHL1   H3' 6512   3.728   3.602   2.913  1.8950  0.0739 -3.3545
   73CHL1    C4 6513   3.819   3.741   3.110  0.0262  0.0438 -0.0435
   73CHL1   H4A 6514   3.867   3.642   3.095  1.2319  0.7803 -1.2983
   73CHL1   H4B 6515   3.873   3.818   3.051 -0.6321 -0.2901 -1.1059
   73CHL1    C5 6516   3.804   3.782   3.256 -0.0016 -0.0763  0.1571
   73CHL1    C6 6517   3.873   3.885   3.306 -0.0312  0.5145 -0.4159
   73CHL1    H6 6518   3.942   3.942   3.243  0.6567 -0.1393 -0.2662
   73CHL1    C7 6519   3.868   3.924   3.450  0.4689 -0.5221  1.0183
   73CHL1   H7A 6520   3.967   3.944   3.497  0.0403  2.3812  0.8731
   73CHL1   H7B 6521   3.806   4.016   3.458 -0.4392 -1.2069  2.2754
   73CHL1    C8 6522   3.791   3.827   3.545  0.6302 -0.5219  0.3282
   73CHL1    H8 6523   3.865   3.749   3.570  0.9967 -0.2799  0.0111
   73CHL1   C14 6524   3.751   3.874   3.681  0.8359 -0.2279  0.4105
   73CHL1   H14 6525   3.682   3.959   3.659  2.3542  0.8930 -0.2024
   73CHL1   C15 6526   3.870   3.918   3.768  0.9949 -0.1887 -0.1621
   73CHL1  H15A 6527   3.947   3.838   3.771  0.2734 -0.8642  0.9074
   73CHL1  H15B 6528   3.920   4.013   3.740 -2.0220  1.2151 -1.2922
   73CHL1   C16 6529   3.818   3.922   3.907  0.3116 -0.7531  0.1979
   73CHL1  H16A 6530   3.870   3.835   3.954  0.6758 -0.2777  0.6833
   73CHL1  H16B 6531   3.822   4.016   3.966 -1.5029 -0.5775  0.0853
   73CHL1   C17 6532   3.669   3.866   3.901  0.1489 -0.1007 -0.0177
   73CHL1   H17 6533   3.604   3.956   3.892 -0.9720 -0.8305  0.4564
   73CHL1   C13 6534   3.664   3.782   3.771  0.2710 -0.6870  0.0855
   73CHL1   C18 6535   3.736   3.647   3.791 -0.1455 -0.4681 -0.3268
   73CHL1  H18A 6536   3.810   3.648   3.873 -1.3157  1.9033  0.8088
   73CHL1  H18B 6537   3.663   3.565   3.811  1.2940 -1.9015 -0.7828
   73CHL1  H18C 6538   3.776   3.606   3.696  2.8053 -2.5238  1.6244
   73CHL1   C12 6539   3.530   3.755   3.695 -0.9891  0.2399  0.7119
   73CHL1  H12A 6540   3.461   3.683   3.744 -1.1511 -2.5833 -3.1664
   73CHL1  H12B 6541   3.483   3.854   3.678  0.5517  1.0052  0.7164
   73CHL1   C11 6542   3.555   3.690   3.557  0.1562 -0.9836 -0.1503
   73CHL1  H11A 6543   3.585   3.588   3.586  1.2254 -0.1766  1.7639
   73CHL1  H11B 6544   3.457   3.684   3.504  1.0219  1.5191 -2.2612
   73CHL1    C9 6545   3.664   3.767   3.472  0.1220 -0.9622 -0.2086
   73CHL1    H9 6546   3.608   3.854   3.432  1.3545 -0.9808 -2.1444
   73CHL1   C10 6547   3.708   3.697   3.340  0.0402 -0.1585 -0.4439
   73CHL1   C19 6548   3.781   3.566   3.372 -0.8192  0.2463 -0.1474
   73CHL1  H19A 6549   3.886   3.578   3.406 -0.1073 -2.1368 -1.2505
   73CHL1  H19B 6550   3.731   3.496   3.443  0.3025 -1.5384 -1.0352
   73CHL1  H19C 6551   3.797   3.510   3.277 -0.5713 -1.7579  1.0109
   73CHL1    C1 6552   3.577   3.668   3.255  0.0192  0.1579  0.1573
   73CHL1   H1A 6553   3.521   3.588   3.308  0.0384 -0.1595 -0.3054
   73CHL1   H1B 6554   3.515   3.761   3.256 -1.5192 -0.8202 -0.0319
   73CHL1    C2 6555   3.604   3.634   3.110 -0.6241 -0.8520 -0.2154
   73CHL1   H2A 6556   3.508   3.617   3.057 -0.6288  0.8834 -0.7937
   73CHL1   H2B 6557   3.659   3.537   3.106  2.3992  0.7879 -1.1158
   73CHL1   C20 6558   3.630   3.795   4.029  0.0698 -0.3197 -0.4707
   73CHL1   H20 6559   3.703   3.713   4.044  1.1143  0.8494  1.1218
   73CHL1   C21 6560   3.494   3.725   4.012  0.5454 -0.3023  0.2206
   73CHL1  H21A 6561   3.417   3.794   3.973  1.1161 -0.0233 -0.4192
   73CHL1  H21B 6562   3.459   3.702   4.115  0.2460 -0.2444  0.1349
   73CHL1  H21C 6563   3.500   3.638   3.944 -2.6633 -1.9607  1.8087
   73CHL1   C22 6564   3.638   3.884   4.155 -0.4325 -0.1992 -0.5272
   73CHL1  H22A 6565   3.727   3.951   4.148  1.3405 -2.6111 -2.8292
   73CHL1  H22B 6566   3.563   3.965   4.165  0.6167  0.5350  2.9696
   73CHL1   C23 6567   3.646   3.794   4.285  0.0676  0.0844 -0.3782
   73CHL1  H23A 6568   3.544   3.755   4.307  0.8572 -1.3620  0.8432
   73CHL1  H23B 6569   3.731   3.724   4.274  0.8421  0.7880  0.8861
   73CHL1   C24 6570   3.670   3.883   4.404  0.0034 -0.2208  0.5406
   73CHL1  H24A 6571   3.600   3.968   4.391  1.3062  0.7048 -0.5969
   73CHL1  H24B 6572   3.645   3.825   4.496 -2.6998  0.6231  0.4372
   73CHL1   C25 6573   3.816   3.923   4.427  0.0478 -0.5572 -0.3331
   73CHL1   H25 6574   3.858   3.956   4.330 -1.5718  2.8276 -0.0009
   73CHL1   C26 6575   3.833   4.032   4.540  0.6477  0.3876  0.2274
   73CHL1  H26A 6576   3.785   4.126   4.505  2.1871  0.4630 -1.9100
   73CHL1  H26B 6577   3.776   3.996   4.628  0.7294 -1.3222 -0.3637
   73CHL1  H26C 6578   3.939   4.049   4.565  0.7009  0.8277 -0.2833
   73CHL1   C27 6579   3.893   3.798   4.481 -0.0677  0.3202  0.0335
   73CHL1  H27A 6580   3.966   3.836   4.556  0.6033 -0.8840  0.0206
   73CHL1  H27B 6581   3.821   3.730   4.531 -0.6234  0.3379 -0.7265
   73CHL1  H27C 6582   3.948   3.759   4.393  0.3457  1.3417 -0.1733
   74CHL1    C3 6583   0.209   2.417   2.853 -0.4875  0.7145  0.0147
   74CHL1    H3 6584   0.121   2.467   2.898  0.3105  1.4535  0.7938
   74CHL1    O3 6585   0.181   2.386   2.717  0.7348 -0.5807 -0.0303
   74CHL1   H3' 6586   0.109   2.324   2.727  2.1349 -2.4288 -0.9592
   74CHL1    C4 6587   0.327   2.515   2.877 -0.0927 -0.6841  0.0549
   74CHL1   H4A 6588   0.414   2.484   2.815 -0.1673 -0.3032 -0.2471
   74CHL1   H4B 6589   0.300   2.615   2.836  0.4370  0.0195  1.3753
   74CHL1    C5 6590   0.385   2.528   3.023  0.6482 -0.8153  0.6554
   74CHL1    C6 6591   0.412   2.639   3.086  0.2303 -0.1951  0.8154
   74CHL1    H6 6592   0.395   2.734   3.033  1.5776  0.7257  1.9490
   74CHL1    C7 6593   0.477   2.651   3.219 -0.3427  0.5320  0.5108
   74CHL1   H7A 6594   0.560   2.724   3.206  1.2929 -1.2991  0.0178
   74CHL1   H7B 6595   0.403   2.687   3.293 -1.9971 -1.7317  0.0840
   74CHL1    C8 6596   0.531   2.518   3.274 -0.5413  0.3984 -0.4698
   74CHL1    H8 6597   0.627   2.492   3.224 -0.7261 -3.5627  0.9090
   74CHL1   C14 6598   0.556   2.528   3.424  0.3897 -0.2724 -0.2311
   74CHL1   H14 6599   0.456   2.555   3.462  0.2318 -0.5167 -0.4718
   74CHL1   C15 6600   0.652   2.640   3.462 -0.3150 -0.3688  0.6261
   74CHL1  H15A 6601   0.752   2.633   3.413 -0.9300  1.8576 -1.1303
   74CHL1  H15B 6602   0.619   2.744   3.440 -0.1129 -0.8571 -2.4809
   74CHL1   C16 6603   0.670   2.608   3.614  0.0680  0.3833 -0.0351
   74CHL1  H16A 6604   0.775   2.633   3.641  1.2391 -1.3417 -2.6417
   74CHL1  H16B 6605   0.608   2.677   3.676  0.5404  1.2996 -0.5768
   74CHL1   C17 6606   0.629   2.461   3.635 -0.1583  0.1449 -0.9596
   74CHL1   H17 6607   0.527   2.453   3.676  0.4566 -1.8800  0.3424
   74CHL1   C13 6608   0.600   2.406   3.489  0.6708  0.2677  0.4752
   74CHL1   C18 6609   0.737   2.356   3.436  0.0929  0.1719 -0.6269
   74CHL1  H18A 6610   0.817   2.433   3.439 -0.9175  1.2425 -0.0547
   74CHL1  H18B 6611   0.770   2.270   3.497 -2.1938 -0.5050 -0.2438
   74CHL1  H18C 6612   0.729   2.313   3.334  2.1773  0.5518 -0.9870
   74CHL1   C12 6613   0.485   2.300   3.471 -0.1280 -1.1317 -0.6673
   74CHL1  H12A 6614   0.513   2.205   3.520 -0.7784 -0.2429  1.5671
   74CHL1  H12B 6615   0.393   2.334   3.525  0.1528  1.6132 -1.7520
   74CHL1   C11 6616   0.454   2.273   3.323 -0.1478 -0.3190  0.3498
   74CHL1  H11A 6617   0.537   2.215   3.276 -0.4093  0.8963 -1.7400
   74CHL1  H11B 6618   0.360   2.214   3.326  0.2869 -0.9883  1.0225
   74CHL1    C9 6619   0.426   2.406   3.247  0.3776 -0.4217 -0.0687
   74CHL1    H9 6620   0.332   2.443   3.293 -0.4940 -2.6012  0.0587
   74CHL1   C10 6621   0.397   2.395   3.100  0.4243 -0.3652  0.1773
   74CHL1   C19 6622   0.517   2.320   3.035  0.0539 -0.2983  0.4115
   74CHL1  H19A 6623   0.508   2.306   2.925  3.0281  0.4403 -0.0345
   74CHL1  H19B 6624   0.613   2.377   3.038 -0.8176  1.2064  0.5261
   74CHL1  H19C 6625   0.524   2.216   3.074 -2.2703 -0.7785 -0.3268
   74CHL1    C1 6626   0.275   2.305   3.077  0.2041  0.6747 -0.5595
   74CHL1   H1A 6627   0.299   2.206   3.120 -3.1043  0.3728  0.8697
   74CHL1   H1B 6628   0.199   2.348   3.145  1.7236 -1.4088  2.6721
   74CHL1    C2 6629   0.234   2.282   2.928  0.3909  0.1252 -0.2423
   74CHL1   H2A 6630   0.148   2.212   2.923 -1.6767  2.5622 -0.9947
   74CHL1   H2B 6631   0.306   2.228   2.863  0.8484  1.4844 -0.9090
   74CHL1   C20 6632   0.711   2.391   3.745 -0.5058 -1.0091  0.5283
   74CHL1   H20 6633   0.814   2.371   3.711  0.8721  2.9041  1.9217
   74CHL1   C21 6634   0.646   2.258   3.772  0.2496  0.0482  0.2085
   74CHL1  H21A 6635   0.537   2.264   3.789  0.1992 -2.2922  1.1977
   74CHL1  H21B 6636   0.680   2.220   3.871 -1.4759  0.2737  0.9255
   74CHL1  H21C 6637   0.666   2.185   3.690  2.6518  0.1268  0.6580
   74CHL1   C22 6638   0.705   2.479   3.872 -0.5644 -0.4253 -0.3998
   74CHL1  H22A 6639   0.754   2.433   3.961 -1.8040  1.9720  1.6613
   74CHL1  H22B 6640   0.756   2.573   3.842 -3.0657  1.0431 -0.3804
   74CHL1   C23 6641   0.566   2.520   3.926  0.7941 -0.2013 -0.4764
   74CHL1  H23A 6642   0.514   2.575   3.844 -2.4961  0.5311  1.8624
   74CHL1  H23B 6643   0.518   2.424   3.953  3.6052 -1.1775  1.4722
   74CHL1   C24 6644   0.578   2.619   4.049 -0.1943  0.4553 -0.4361
   74CHL1  H24A 6645   0.650   2.576   4.122 -1.0014 -0.3494 -0.1028
   74CHL1  H24B 6646   0.615   2.718   4.014 -2.6768  0.9483 -1.9428
   74CHL1   C25 6647   0.453   2.645   4.134  0.6065 -0.6371 -0.1054
   74CHL1   H25 6648   0.370   2.668   4.064 -0.2845 -1.2795  0.7240
   74CHL1   C26 6649   0.415   2.522   4.219 -0.3145 -0.4185 -0.1047
   74CHL1  H26A 6650   0.502   2.479   4.274 -1.6047 -1.1713  1.4136
   74CHL1  H26B 6651   0.337   2.551   4.292  1.9711  0.9399  1.9631
   74CHL1  H26C 6652   0.376   2.446   4.149  1.3616 -1.8993  0.5018
   74CHL1   C27 6653   0.463   2.772   4.219  0.6833 -0.6085  0.7549
   74CHL1  H27A 6654   0.550   2.755   4.285  0.5015 -1.0076  0.8959
   74CHL1  H27B 6655   0.488   2.860   4.157  0.4355 -1.4011 -0.5091
   74CHL1  H27C 6656   0.371   2.791   4.279  0.1043  2.1666 -0.8603
   75CHL1    C3 6657   2.067   1.677   3.009  0.4425  0.3344 -0.4510
   75CHL1    H3 6658   1.960   1.655   3.030  0.1430  1.8583 -0.2179
   75CHL1    O3 6659   2.070   1.719   2.876 -0.1611 -0.5617 -0.3328
   75CHL1   H3' 6660   1.985   1.763   2.870  0.4007  0.4108 -2.6091
   75CHL1    C4 6661   2.113   1.796   3.093 -0.4712 -0.2949 -0.1362
   75CHL1   H4A 6662   2.209   1.836   3.054 -0.8497  2.2479  1.3140
   75CHL1   H4B 6663   2.038   1.876   3.078  0.0867  0.2114 -0.2720
   75CHL1    C5 6664   2.125   1.759   3.242 -0.2484  0.3092 -1.0606
   75CHL1    C6 6665   2.061   1.835   3.336 -0.3578  0.0452 -0.2028
   75CHL1    H6 6666   2.006   1.924   3.303 -0.1018 -0.2867 -1.6055
   75CHL1    C7 6667   2.062   1.814   3.485 -0.3592  0.2644 -0.0200
   75CHL1   H7A 6668   2.058   1.906   3.546 -2.4850 -0.0123  0.3239
   75CHL1   H7B 6669   1.968   1.756   3.501 -0.5710  0.1021 -1.7027
   75CHL1    C8 6670   2.182   1.722   3.521 -0.3080 -0.2605  0.2340
   75CHL1    H8 6671   2.278   1.777   3.512  1.2040 -1.4652  5.4161
   75CHL1   C14 6672   2.179   1.674   3.666  0.4763  0.0880  0.8236
   75CHL1   H14 6673   2.085   1.616   3.670  0.7651 -0.4085  0.4236
   75CHL1   C15 6674   2.170   1.781   3.772  0.3203  0.4969  0.4362
   75CHL1  H15A 6675   2.237   1.865   3.744 -1.6239  1.8786 -0.2207
   75CHL1  H15B 6676   2.069   1.826   3.781 -0.3281 -0.6147 -0.9780
   75CHL1   C16 6677   2.212   1.699   3.898 -0.2455 -0.3230  0.7369
   75CHL1  H16A 6678   2.295   1.747   3.955  1.3728 -1.1774 -0.7905
   75CHL1  H16B 6679   2.131   1.705   3.974  0.4490  1.8847  1.3761
   75CHL1   C17 6680   2.249   1.558   3.858 -0.3975 -0.6741  0.3761
   75CHL1   H17 6681   2.158   1.494   3.860 -0.4320 -0.6599 -0.2986
   75CHL1   C13 6682   2.288   1.580   3.711 -0.1351  0.3106  0.3245
   75CHL1   C18 6683   2.423   1.641   3.703 -0.5731 -0.2624 -0.1488
   75CHL1  H18A 6684   2.438   1.681   3.600 -2.1018  3.2481  0.8426
   75CHL1  H18B 6685   2.449   1.727   3.768 -1.8277  0.2328 -0.2548
   75CHL1  H18C 6686   2.501   1.565   3.723 -0.1104  0.7023  2.0469
   75CHL1   C12 6687   2.277   1.449   3.623  0.4430  0.2151  0.8239
   75CHL1  H12A 6688   2.346   1.363   3.639  0.7190  0.8106  3.2335
   75CHL1  H12B 6689   2.172   1.413   3.634  0.4815  0.0264  0.5819
   75CHL1   C11 6690   2.286   1.493   3.474 -0.1343  0.7605  0.1217
   75CHL1  H11A 6691   2.391   1.520   3.451  0.0488  0.6065  0.7768
   75CHL1  H11B 6692   2.265   1.395   3.426  0.7133  0.0026  1.2524
   75CHL1    C9 6693   2.192   1.599   3.424 -0.2584  0.5124  0.0755
   75CHL1    H9 6694   2.093   1.552   3.445  0.7759 -0.7774  2.4156
   75CHL1   C10 6695   2.203   1.635   3.274  0.2029 -0.1171 -0.0461
   75CHL1   C19 6696   2.362   1.664   3.231 -0.6616 -0.3435  0.5746
   75CHL1  H19A 6697   2.423   1.572   3.237 -0.2958 -0.3574 -2.0476
   75CHL1  H19B 6698   2.372   1.709   3.130  0.6054 -2.0440 -0.0917
   75CHL1  H19C 6699   2.390   1.734   3.312  1.5320 -0.8951  0.3534
   75CHL1    C1 6700   2.157   1.513   3.183 -0.7951 -0.1149  0.4914
   75CHL1   H1A 6701   2.231   1.432   3.202 -0.2905  0.0293 -0.7488
   75CHL1   H1B 6702   2.056   1.476   3.209 -0.8888  0.2383  0.6288
   75CHL1    C2 6703   2.153   1.556   3.034 -0.0167  0.1187 -0.0342
   75CHL1   H2A 6704   2.120   1.469   2.973  1.3778  0.7914 -1.8282
   75CHL1   H2B 6705   2.256   1.585   3.008  0.0320  0.8456  0.9288
   75CHL1   C20 6706   2.355   1.500   3.954 -0.3108  0.0738  0.4445
   75CHL1   H20 6707   2.450   1.557   3.949  1.1176 -2.1612  0.7947
   75CHL1   C21 6708   2.371   1.348   3.924 -0.3299  0.3538 -0.4958
   75CHL1  H21A 6709   2.272   1.298   3.926  0.0291 -0.4358 -1.6762
   75CHL1  H21B 6710   2.444   1.301   3.993 -1.4216  1.3540  1.4447
   75CHL1  H21C 6711   2.420   1.329   3.826  1.8258 -3.8785  1.1276
   75CHL1   C22 6712   2.314   1.524   4.104  0.3124 -0.3576  0.5006
   75CHL1  H22A 6713   2.309   1.630   4.137 -0.7699 -0.6150  1.2062
   75CHL1  H22B 6714   2.210   1.487   4.121 -0.0828  0.6340  0.3303
   75CHL1   C23 6715   2.415   1.458   4.197  0.0231 -0.2188  0.9179
   75CHL1  H23A 6716   2.390   1.349   4.199 -1.3844  0.0129 -0.8613
   75CHL1  H23B 6717   2.514   1.467   4.148 -0.3786 -0.2052  0.0967
   75CHL1   C24 6718   2.402   1.522   4.329 -0.0733 -0.3425 -0.2288
   75CHL1  H24A 6719   2.443   1.625   4.321  0.4707 -0.6660 -1.8237
   75CHL1  H24B 6720   2.294   1.520   4.354 -0.0168 -1.5441 -0.0011
   75CHL1   C25 6721   2.473   1.450   4.446  0.2589 -0.0422 -0.3576
   75CHL1   H25 6722   2.580   1.437   4.422  0.1054 -1.9642 -0.1485
   75CHL1   C26 6723   2.471   1.523   4.583  0.0460  0.4761  0.2150
   75CHL1  H26A 6724   2.538   1.472   4.656 -0.8146 -0.4918  0.3542
   75CHL1  H26B 6725   2.517   1.623   4.566  2.8764 -1.1008 -2.2596
   75CHL1  H26C 6726   2.371   1.524   4.632  1.4448  3.0017  3.3943
   75CHL1   C27 6727   2.414   1.310   4.470  0.1998  0.3052 -0.5964
   75CHL1  H27A 6728   2.432   1.240   4.386 -2.7573  0.2258 -1.2739
   75CHL1  H27B 6729   2.455   1.260   4.561 -3.3265 -1.5548  0.1630
   75CHL1  H27C 6730   2.304   1.321   4.483  0.3053  0.9603 -0.2405
   76CHL1    C3 6731   4.963   2.511   2.646 -0.2903 -0.1095 -0.3183
   76CHL1    H3 6732   4.997   2.405   2.645 -2.0330 -0.7130  0.3889
   76CHL1    O3 6733   4.899   2.530   2.522  0.5937  0.5196  0.3453
   76CHL1   H3' 6734   4.832   2.597   2.533 -0.9319 -0.4410 -2.2068
   76CHL1    C4 6735   4.863   2.524   2.758  0.3103 -0.2468 -0.4101
   76CHL1   H4A 6736   4.814   2.624   2.756 -0.1329 -0.4297  0.8094
   76CHL1   H4B 6737   4.785   2.449   2.734 -0.1120  0.2703 -0.6913
   76CHL1    C5 6738   4.924   2.506   2.898 -0.1795  0.5468 -0.1980
   76CHL1    C6 6739   4.884   2.407   2.980  0.6407 -0.7819 -0.4545
   76CHL1    H6 6740   4.783   2.369   2.959  0.2127  0.3791 -0.5782
   76CHL1    C7 6741   4.943   2.375   3.113  0.3172  0.2455  0.2306
   76CHL1   H7A 6742   4.867   2.372   3.194  0.8911 -1.3885  0.7438
   76CHL1   H7B 6743   4.991   2.276   3.101  0.7783  0.5633 -0.6876
   76CHL1    C8 6744   5.056   2.468   3.153 -1.2852  0.1538  0.2742
   76CHL1    H8 6745   4.995   2.553   3.189  0.0697  1.3937 -0.2864
   76CHL1   C14 6746   5.142   2.398   3.251 -0.2584 -0.2492 -0.7652
   76CHL1   H14 6747   5.197   2.320   3.193  0.1888 -0.3905 -0.1562
   76CHL1   C15 6748   5.073   2.320   3.364  0.0285  0.2497 -0.1409
   76CHL1  H15A 6749   5.010   2.391   3.421  0.6617  0.9180 -0.2614
   76CHL1  H15B 6750   5.024   2.226   3.332  0.5985  0.7749 -2.9061
   76CHL1   C16 6751   5.197   2.292   3.451 -0.9169  0.2800 -0.7106
   76CHL1  H16A 6752   5.165   2.309   3.556 -0.4435  1.4856 -0.7398
   76CHL1  H16B 6753   5.216   2.183   3.444 -0.8797  0.3014 -0.9380
   76CHL1   C17 6754   5.315   2.384   3.407 -0.3972  0.6042 -0.9922
   76CHL1   H17 6755   5.380   2.319   3.346  1.4439  0.9835  0.4810
   76CHL1   C13 6756   5.254   2.484   3.308 -0.2056  0.0173 -0.3416
   76CHL1   C18 6757   5.194   2.606   3.386  0.3937 -0.3788  0.0622
   76CHL1  H18A 6758   5.127   2.663   3.319 -3.6389 -1.7459  2.6104
   76CHL1  H18B 6759   5.147   2.571   3.480  0.2757  0.3712  0.2909
   76CHL1  H18C 6760   5.274   2.678   3.415 -0.7645  1.9226 -2.0804
   76CHL1   C12 6761   5.343   2.532   3.185  0.5780  0.1152  0.3511
   76CHL1  H12A 6762   5.421   2.604   3.216 -0.4662  1.1792  0.5770
   76CHL1  H12B 6763   5.393   2.439   3.151  2.5242  1.4199 -0.5250
   76CHL1   C11 6764   5.259   2.603   3.075 -0.0500  0.1118  0.7567
   76CHL1  H11A 6765   5.221   2.695   3.124 -1.0400  0.4560 -0.5785
   76CHL1  H11B 6766   5.332   2.619   2.992  0.4091 -2.0837  0.6589
   76CHL1    C9 6767   5.141   2.515   3.031  0.0876  0.3166 -0.3852
   76CHL1    H9 6768   5.182   2.420   2.991 -2.2727 -0.7903 -0.3846
   76CHL1   C10 6769   5.053   2.583   2.919 -0.3747 -0.2323 -0.4917
   76CHL1   C19 6770   5.021   2.726   2.964 -0.3972 -0.4958  1.3183
   76CHL1  H19A 6771   4.971   2.788   2.886 -0.7546 -2.8654 -0.4306
   76CHL1  H19B 6772   4.964   2.726   3.060  0.2917 -0.3884  1.7298
   76CHL1  H19C 6773   5.118   2.778   2.980 -0.4897  1.6100 -3.3639
   76CHL1    C1 6774   5.147   2.580   2.787  0.1310  0.1386 -0.1739
   76CHL1   H1A 6775   5.227   2.655   2.803  0.0136 -0.1443  2.0258
   76CHL1   H1B 6776   5.195   2.480   2.786  1.6619  0.8342 -1.4401
   76CHL1    C2 6777   5.063   2.621   2.662 -0.5862  0.5426 -0.2456
   76CHL1   H2A 6778   5.137   2.639   2.581 -0.8052 -0.4795 -0.6992
   76CHL1   H2B 6779   5.007   2.715   2.677 -2.9685 -0.6109 -1.2896
   76CHL1   C20 6780   5.397   2.432   3.527  0.4220 -0.6334 -0.1433
   76CHL1   H20 6781   5.328   2.493   3.589  0.5312 -1.7001  1.0824
   76CHL1   C21 6782   5.513   2.522   3.478 -0.2617 -0.6971 -0.8273
   76CHL1  H21A 6783   5.471   2.615   3.433  0.8964  0.7941  0.9924
   76CHL1  H21B 6784   5.576   2.462   3.409 -3.1257 -0.8384 -3.5317
   76CHL1  H21C 6785   5.578   2.547   3.565 -0.1867 -1.7945 -0.5509
   76CHL1   C22 6786   5.457   2.319   3.610  0.1205 -0.4375  0.5791
   76CHL1  H22A 6787   5.377   2.243   3.615 -0.0639 -0.2488  0.4993
   76CHL1  H22B 6788   5.542   2.280   3.550 -1.3919 -2.7468 -0.2047
   76CHL1   C23 6789   5.497   2.357   3.752  0.2464  0.2239 -0.9470
   76CHL1  H23A 6790   5.552   2.454   3.749  0.8428  0.2268  3.4499
   76CHL1  H23B 6791   5.402   2.378   3.804  1.0213 -1.0035  1.0787
   76CHL1   C24 6792   5.579   2.261   3.835 -0.2406  0.1049  0.2528
   76CHL1  H24A 6793   5.544   2.156   3.839  3.5165 -1.2562  1.2156
   76CHL1  H24B 6794   5.683   2.258   3.798  0.5615 -1.2766  2.4436
   76CHL1   C25 6795   5.590   2.308   3.988 -1.1198  0.2917  0.3826
   76CHL1   H25 6796   5.487   2.305   4.029 -0.1368  0.0115  3.0378
   76CHL1   C26 6797   5.686   2.217   4.070  0.3563  0.0413 -0.1556
   76CHL1  H26A 6798   5.794   2.221   4.041  0.4270 -2.4256 -0.4512
   76CHL1  H26B 6799   5.685   2.243   4.178  2.6207  2.2258 -0.5447
   76CHL1  H26C 6800   5.656   2.110   4.069 -1.2236  0.4434  0.7158
   76CHL1   C27 6801   5.629   2.451   3.998  1.0101 -0.4946  0.0409
   76CHL1  H27A 6802   5.550   2.512   3.949  0.0713  0.9624  3.1302
   76CHL1  H27B 6803   5.626   2.480   4.105  1.2168 -1.1583  0.2351
   76CHL1  H27C 6804   5.728   2.484   3.958  0.3482 -1.6849 -2.8331
   77SOPE     N 6805   4.542   1.299   6.896  0.5258 -0.0829 -0.1254
   77SOPE   HN1 6806   4.579   1.396   6.889  2.3359 -0.6850  0.6356
   77SOPE   HN2 6807   4.616   1.226   6.902  0.0393 -0.6508 -0.7953
   77SOPE   HN3 6808   4.490   1.285   6.807  0.1981 -4.1539  0.4991
   77SOPE   C12 6809   4.449   1.303   7.014 -0.3841  0.1259  0.0326
   77SOPE  H12A 6810   4.506   1.353   7.096 -1.6766 -0.5897  1.4177
   77SOPE  H12B 6811   4.434   1.196   7.041  2.4625  0.2324  2.7970
   77SOPE   C11 6812   4.323   1.378   6.978 -1.1863  0.1382  0.0833
   77SOPE  H11A 6813   4.344   1.481   6.942 -3.4225  0.6566  0.1303
   77SOPE  H11B 6814   4.264   1.386   7.072 -3.9985  0.4891 -1.5721
   77SOPE     P 6815   4.088   1.302   6.882 -0.0148  0.0051  0.0643
   77SOPE   O13 6816   4.039   1.416   6.959  0.5197  0.2522 -0.1573
   77SOPE   O14 6817   4.045   1.170   6.935  0.2620 -0.4317 -0.2959
   77SOPE   O12 6818   4.247   1.310   6.877  0.0118 -0.4067 -0.2902
   77SOPE   O11 6819   4.053   1.320   6.728  0.1086  0.5248 -0.0638
   77SOPE    C1 6820   3.981   1.429   6.676 -0.6619 -0.0761  0.1027
   77SOPE    HA 6821   3.950   1.496   6.759 -0.0477 -1.6069  1.6256
   77SOPE    HB 6822   3.893   1.395   6.617 -1.3462  0.1761  0.9566
   77SOPE    C2 6823   4.062   1.507   6.569 -0.4251 -0.6939 -0.3534
   77SOPE    HS 6824   3.990   1.568   6.511  0.7693 -1.3636 -2.6816
   77SOPE   O21 6825   4.131   1.419   6.473 -0.0452  0.4001  0.1581
   77SOPE   C21 6826   4.049   1.368   6.373 -0.1087  0.1545  0.1207
   77SOPE   O22 6827   3.929   1.393   6.363  0.1136 -0.5620  0.1290
   77SOPE   C22 6828   4.131   1.282   6.276 -0.0643 -0.8237 -0.5189
   77SOPE   H2R 6829   4.103   1.176   6.289 -1.3523 -0.2622  2.0895
   77SOPE   H2S 6830   4.237   1.284   6.311 -0.5296  1.6004  0.9913
   77SOPE    C3 6831   4.173   1.592   6.640 -0.3590  0.1660 -1.2511
   77SOPE    HX 6832   4.246   1.533   6.700 -0.5545 -0.8794 -2.0075
   77SOPE    HY 6833   4.119   1.672   6.694  3.3195  2.5881 -0.7785
   77SOPE   O31 6834   4.234   1.668   6.539  0.0473  0.1203  0.2244
   77SOPE   C31 6835   4.349   1.623   6.492 -0.7382  0.4276 -0.4852
   77SOPE   O32 6836   4.412   1.522   6.526  0.3008  0.0125 -0.5452
   77SOPE   C32 6837   4.383   1.702   6.372 -0.3463 -0.5105 -0.3560
   77SOPE   H2X 6838   4.492   1.715   6.389 -0.8578  1.3896  2.0749
   77SOPE   H2Y 6839   4.345   1.806   6.373 -0.2039 -0.4177 -2.0562
   77SOPE   C23 6840   4.124   1.341   6.130  0.3261  0.3255 -0.1454
   77SOPE   H3R 6841   4.191   1.430   6.130  2.4588 -1.1825  1.5724
   77SOPE   H3S 6842   4.017   1.359   6.103 -0.4115 -1.0878  1.6661
   77SOPE   C24 6843   4.176   1.241   6.023 -0.7180  0.2750 -0.4032
   77SOPE   H4R 6844   4.095   1.167   6.002  0.6057 -1.8142  1.4582
   77SOPE   H4S 6845   4.200   1.305   5.936  0.0335  0.1723 -0.2790
   77SOPE   C25 6846   4.306   1.172   6.061  0.9064  0.1482  0.9382
   77SOPE   H5R 6847   4.389   1.245   6.061  0.7115  0.4179 -0.9886
   77SOPE   H5S 6848   4.294   1.117   6.157 -4.0383 -3.7112 -1.3695
   77SOPE   C26 6849   4.334   1.070   5.951 -0.2368  1.1244 -0.0423
   77SOPE   H6R 6850   4.356   1.115   5.852 -1.1311  1.6872 -0.0026
   77SOPE   H6S 6851   4.428   1.015   5.972 -1.3430  0.0759  2.6650
   77SOPE   C27 6852   4.227   0.965   5.937  0.0667 -0.1486 -0.4019
   77SOPE   H7R 6853   4.198   0.931   6.038 -0.7846  0.6080 -0.3839
   77SOPE   H7S 6854   4.137   1.009   5.889 -2.0908  0.7389  3.9266
   77SOPE   C28 6855   4.281   0.837   5.868 -0.3195 -1.5639  0.2930
   77SOPE   H8R 6856   4.320   0.877   5.772  0.2272 -1.3122  0.6157
   77SOPE   H8S 6857   4.367   0.794   5.923  0.4986 -0.8830 -0.4241
   77SOPE   C29 6858   4.174   0.731   5.848 -0.4774 -0.3952 -0.3822
   77SOPE   H91 6859   4.159   0.677   5.943  1.1510 -1.6786 -0.8187
   77SOPE  C210 6860   4.105   0.690   5.739  0.0057  0.6558  0.1237
   77SOPE  H101 6861   4.037   0.605   5.751  0.8444  0.0409  0.6588
   77SOPE  C211 6862   4.131   0.744   5.602 -0.0472 -0.5632 -0.0261
   77SOPE  H11R 6863   4.184   0.669   5.539  0.7190 -1.8346  2.0355
   77SOPE  H11S 6864   4.189   0.838   5.602 -1.0691  0.1473 -2.6218
   77SOPE  C212 6865   3.998   0.793   5.542 -0.0672 -0.2360  0.2104
   77SOPE  H12R 6866   3.954   0.873   5.606 -1.0131 -0.1448 -0.5426
   77SOPE  H12S 6867   3.920   0.715   5.539  0.1159 -0.3797 -0.9583
   77SOPE  C213 6868   4.005   0.851   5.395  0.1317  0.3796 -0.9337
   77SOPE  H13R 6869   4.048   0.953   5.384  0.8172  0.2940  0.6925
   77SOPE  H13S 6870   3.901   0.851   5.356  0.5462 -1.4488 -2.1456
   77SOPE  C214 6871   4.081   0.758   5.300  0.5231  0.6390 -0.6267
   77SOPE  H14R 6872   4.053   0.657   5.336  1.7964  1.0205  1.6324
   77SOPE  H14S 6873   4.188   0.776   5.324  0.6658 -1.0591  0.0980
   77SOPE  C215 6874   4.055   0.791   5.150 -0.4741  0.3031 -1.2124
   77SOPE  H15R 6875   4.094   0.892   5.127  1.7228  0.1134  1.1883
   77SOPE  H15S 6876   3.949   0.768   5.126 -0.7660 -1.1309  1.1673
   77SOPE  C216 6877   4.134   0.699   5.052 -0.7571 -0.6931  0.2232
   77SOPE  H16R 6878   4.111   0.591   5.068 -1.7829 -0.7806 -1.5858
   77SOPE  H16S 6879   4.240   0.721   5.075 -1.4137  1.2545  1.6102
   77SOPE  C217 6880   4.093   0.735   4.906 -0.4880 -0.2210 -0.3950
   77SOPE  H17R 6881   4.084   0.846   4.901  1.7641  0.0542  0.3311
   77SOPE  H17S 6882   3.994   0.700   4.870  0.5544  1.5751 -5.9325
   77SOPE  C218 6883   4.184   0.690   4.791  0.7667 -0.3315  0.1887
   77SOPE  H18R 6884   4.286   0.729   4.812 -0.0951  0.9993  2.2246
   77SOPE  H18S 6885   4.158   0.725   4.688  1.3115  0.6779  0.3847
   77SOPE  H18T 6886   4.193   0.580   4.790  0.5080 -0.3790 -1.7217
   77SOPE   C33 6887   4.344   1.631   6.242 -0.0803 -0.1995  1.1038
   77SOPE   H3X 6888   4.236   1.649   6.224  0.4074 -0.3639 -2.8634
   77SOPE   H3Y 6889   4.351   1.521   6.250 -1.7132 -0.5048 -0.7313
   77SOPE   C34 6890   4.422   1.693   6.122  0.7065 -0.4118  0.1374
   77SOPE   H4X 6891   4.528   1.686   6.155  0.7869  2.2805  0.6917
   77SOPE   H4Y 6892   4.388   1.799   6.108 -0.6344 -0.6738  1.2140
   77SOPE   C35 6893   4.391   1.614   5.988  0.0620 -0.1136 -0.2092
   77SOPE   H5X 6894   4.280   1.606   5.988 -0.0068  0.6537 -1.2572
   77SOPE   H5Y 6895   4.421   1.508   5.975 -1.4312 -0.5525 -0.1829
   77SOPE   C36 6896   4.427   1.692   5.868  0.1653  0.7331  0.5786
   77SOPE   H6X 6897   4.535   1.716   5.873  0.6264 -0.9446 -0.3164
   77SOPE   H6Y 6898   4.383   1.793   5.862  0.3226  0.7391 -1.0842
   77SOPE   C37 6899   4.370   1.621   5.740 -0.2643 -0.3582 -0.1114
   77SOPE   H7X 6900   4.259   1.616   5.733 -0.5272  3.3693 -0.6056
   77SOPE   H7Y 6901   4.407   1.516   5.741  1.3673  0.0631 -3.6535
   77SOPE   C38 6902   4.433   1.674   5.613 -0.5511  0.0465  0.4806
   77SOPE   H8X 6903   4.530   1.621   5.601  0.1347  1.0032  1.6518
   77SOPE   H8Y 6904   4.449   1.783   5.620 -1.9046  0.1675  2.9708
   77SOPE   C39 6905   4.362   1.638   5.476 -0.0909 -0.6234 -0.2858
   77SOPE   H9X 6906   4.282   1.714   5.485  0.7913  0.3687 -0.6145
   77SOPE   H9Y 6907   4.321   1.535   5.482  0.0842 -0.6386  0.9293
   77SOPE  C310 6908   4.439   1.668   5.346 -0.6963 -0.2783  0.6705
   77SOPE  H10X 6909   4.527   1.601   5.334 -1.2616 -0.7672 -0.9923
   77SOPE  H10Y 6910   4.475   1.774   5.354  1.9757 -1.0973  0.6889
   77SOPE  C311 6911   4.355   1.643   5.220 -0.7735 -0.0078 -0.4795
   77SOPE  H11X 6912   4.272   1.570   5.234 -1.0163  0.3899  0.1920
   77SOPE  H11Y 6913   4.413   1.602   5.135  1.3056  1.9557 -0.0796
   77SOPE  C312 6914   4.296   1.776   5.171  0.3208  0.1923 -0.4486
   77SOPE  H12X 6915   4.379   1.848   5.158  0.5553  0.2923  1.4688
   77SOPE  H12Y 6916   4.221   1.799   5.250 -1.8616 -0.3529 -2.2479
   77SOPE  C313 6917   4.221   1.753   5.030 -0.0507 -0.9483 -0.2260
   77SOPE  H13X 6918   4.161   1.659   5.037 -0.8398 -0.5877 -1.7782
   77SOPE  H13Y 6919   4.284   1.746   4.939 -1.3301  0.4782 -1.2635
   77SOPE  C314 6920   4.120   1.855   4.985 -0.1661 -0.2961 -0.1699
   77SOPE  H14X 6921   4.033   1.854   5.054 -1.9184  0.8716 -2.2703
   77SOPE  H14Y 6922   4.083   1.813   4.890 -0.5759 -1.3300  0.4327
   77SOPE  C315 6923   4.174   1.996   4.957  0.8671 -0.5524  0.5346
   77SOPE  H15X 6924   4.266   1.977   4.897 -0.0653 -2.5085 -0.3844
   77SOPE  H15Y 6925   4.204   2.046   5.051  0.4150  1.2946 -0.2617
   77SOPE  C316 6926   4.078   2.096   4.885  0.0048 -0.3142 -0.2336
   77SOPE  H16X 6927   4.018   2.149   4.961  0.9833 -0.8618  0.9746
   77SOPE  H16Y 6928   4.011   2.040   4.816  0.5122  0.8186 -1.6992
   77SOPE  C317 6929   4.160   2.202   4.805  0.6252  0.2206 -0.4335
   77SOPE  H17X 6930   4.261   2.159   4.790  1.3878  1.0568  1.9005
   77SOPE  H17Y 6931   4.166   2.296   4.864  3.6309  1.4269 -2.4046
   77SOPE  C318 6932   4.095   2.230   4.667  0.2676 -0.6900  0.5942
   77SOPE  H18X 6933   4.159   2.293   4.602  0.5169 -0.1316  1.3633
   77SOPE  H18Y 6934   3.988   2.257   4.682  0.4786  1.3045 -1.0822
   77SOPE  H18Z 6935   4.101   2.132   4.616  1.9845 -0.9024  1.1416
   78SOPE     N 6936   2.516   1.042   7.150 -0.0392  0.3556  0.9992
   78SOPE   HN1 6937   2.538   0.965   7.216  1.4643 -0.5589 -0.4805
   78SOPE   HN2 6938   2.513   1.128   7.208  0.6566 -0.5247  2.4020
   78SOPE   HN3 6939   2.427   1.025   7.099  0.1765  1.0475  0.3780
   78SOPE   C12 6940   2.625   1.047   7.050  0.0866  0.3501  0.3689
   78SOPE  H12A 6941   2.725   1.045   7.099  0.9957 -1.3795 -1.4271
   78SOPE  H12B 6942   2.616   1.143   6.995 -0.3567  1.2179  1.9216
   78SOPE   C11 6943   2.626   0.941   6.939 -0.1963 -0.1300  0.8143
   78SOPE  H11A 6944   2.704   0.963   6.862 -0.8089  2.7761  0.9020
   78SOPE  H11B 6945   2.522   0.936   6.899 -0.8819  0.5742  2.4096
   78SOPE     P 6946   2.783   0.737   6.979 -0.1902 -0.2376 -0.0589
   78SOPE   O13 6947   2.780   0.598   7.040  0.2674 -0.0369  0.5968
   78SOPE   O14 6948   2.902   0.821   7.016  0.4342  0.2227  0.6113
   78SOPE   O12 6949   2.650   0.812   6.999 -0.1750 -0.2497  0.3954
   78SOPE   O11 6950   2.778   0.743   6.815  0.3847 -0.0278 -0.7268
   78SOPE    C1 6951   2.668   0.680   6.749  0.2438 -0.3966 -0.3390
   78SOPE    HA 6952   2.612   0.757   6.693  0.1431  0.3141  0.7249
   78SOPE    HB 6953   2.609   0.614   6.815 -0.0420 -1.2581 -1.4189
   78SOPE    C2 6954   2.716   0.572   6.643 -0.2138 -0.5040 -0.8097
   78SOPE    HS 6955   2.769   0.624   6.560 -1.2822 -0.4451 -1.4796
   78SOPE   O21 6956   2.604   0.492   6.599  0.0223 -0.7460  0.0718
   78SOPE   C21 6957   2.542   0.544   6.499 -0.7735  0.9963  0.5222
   78SOPE   O22 6958   2.583   0.640   6.434 -0.0686  0.6837  0.3329
   78SOPE   C22 6959   2.414   0.458   6.468 -0.1734  0.1160 -0.1281
   78SOPE   H2R 6960   2.356   0.453   6.562  2.3182  3.5466  1.8376
   78SOPE   H2S 6961   2.457   0.357   6.454 -0.1936 -0.0597  1.0021
   78SOPE    C3 6962   2.816   0.470   6.708  0.2824  0.9498 -0.3959
   78SOPE    HX 6963   2.759   0.416   6.786  0.7355 -1.3215 -1.5595
   78SOPE    HY 6964   2.899   0.531   6.749  2.4159 -0.8306 -1.8294
   78SOPE   O31 6965   2.872   0.385   6.604 -0.7242  0.2824  0.7501
   78SOPE   C31 6966   2.802   0.276   6.575  0.8600 -0.3894  0.7498
   78SOPE   O32 6967   2.724   0.220   6.645  0.4208  0.1465  0.1528
   78SOPE   C32 6968   2.828   0.224   6.431  0.2732 -0.2491 -0.0912
   78SOPE   H2X 6969   2.799   0.117   6.436  0.4374 -0.3168 -0.5223
   78SOPE   H2Y 6970   2.937   0.226   6.410  0.0987  1.2798 -0.9053
   78SOPE   C23 6971   2.342   0.494   6.342 -0.0046 -0.3980 -0.3561
   78SOPE   H3R 6972   2.337   0.605   6.343 -1.2751 -0.3306  4.0351
   78SOPE   H3S 6973   2.235   0.473   6.365 -0.9202  2.5015 -1.4582
   78SOPE   C24 6974   2.384   0.425   6.214 -0.2172  0.3182 -0.5825
   78SOPE   H4R 6975   2.493   0.442   6.197 -0.7599  1.9765 -2.8503
   78SOPE   H4S 6976   2.370   0.315   6.208  1.8290 -0.1021  0.9324
   78SOPE   C25 6977   2.299   0.469   6.093  0.2516 -1.0941  0.5624
   78SOPE   H5R 6978   2.202   0.414   6.090 -0.6268  0.4168 -1.8223
   78SOPE   H5S 6979   2.283   0.579   6.089  0.1482 -1.1374 -0.7407
   78SOPE   C26 6980   2.381   0.438   5.966  0.0811  0.1340  0.0621
   78SOPE   H6R 6981   2.475   0.498   5.965  0.0088  0.2406 -1.2779
   78SOPE   H6S 6982   2.395   0.328   5.962  0.9877  0.2685 -2.4277
   78SOPE   C27 6983   2.293   0.476   5.849  0.6218  0.1345 -0.2655
   78SOPE   H7R 6984   2.198   0.419   5.840 -0.0348  1.4307 -2.0888
   78SOPE   H7S 6985   2.274   0.586   5.853 -0.5573 -0.0911  3.1897
   78SOPE   C28 6986   2.361   0.447   5.715  0.3658  0.6748 -0.9035
   78SOPE   H8R 6987   2.461   0.493   5.714 -0.4986  2.8380  1.6386
   78SOPE   H8S 6988   2.372   0.336   5.718 -0.2394  0.6127  2.1805
   78SOPE   C29 6989   2.292   0.497   5.595 -0.3741 -0.2971  0.2739
   78SOPE   H91 6990   2.285   0.607   5.593  1.1157 -0.1172 -3.2643
   78SOPE  C210 6991   2.243   0.427   5.491  0.2776  0.7125  1.0298
   78SOPE  H101 6992   2.198   0.483   5.407  2.0835  2.4737  1.1651
   78SOPE  C211 6993   2.268   0.277   5.469 -0.1351  0.1050  0.2140
   78SOPE  H11R 6994   2.219   0.210   5.543 -1.0806  0.4814 -0.0605
   78SOPE  H11S 6995   2.375   0.251   5.454  0.3739  2.1439  0.0408
   78SOPE  C212 6996   2.191   0.226   5.340  0.1219 -0.7610  0.1303
   78SOPE  H12R 6997   2.197   0.288   5.248  0.0233 -0.6305  0.2111
   78SOPE  H12S 6998   2.085   0.221   5.372  0.5446 -0.7269  1.5829
   78SOPE  C213 6999   2.234   0.080   5.306 -0.2064 -0.0056  0.3508
   78SOPE  H13R 7000   2.208   0.005   5.385 -1.1403  0.1782  0.2390
   78SOPE  H13S 7001   2.343   0.081   5.289  0.0433 -1.0417  1.6832
   78SOPE  C214 7002   2.163   0.027   5.180 -0.0952  0.1479  0.5887
   78SOPE  H14R 7003   2.195   0.080   5.088 -0.5545 -2.3050 -1.0706
   78SOPE  H14S 7004   2.052   0.033   5.191 -0.4901  0.3228 -2.6358
   78SOPE  C215 7005   2.195  -0.121   5.148 -0.1830  0.5210  0.1993
   78SOPE  H15R 7006   2.302  -0.142   5.126 -0.5756 -1.1274 -0.2340
   78SOPE  H15S 7007   2.162  -0.141   5.044 -0.5491  0.5763  0.3037
   78SOPE  C216 7008   2.139  -0.221   5.247 -0.3774  0.0611 -0.0686
   78SOPE  H16R 7009   2.035  -0.204   5.283 -1.0693  0.7731 -2.2858
   78SOPE  H16S 7010   2.211  -0.210   5.331  0.3810 -0.5437 -0.6249
   78SOPE  C217 7011   2.127  -0.367   5.190  0.6293  0.2318 -0.2304
   78SOPE  H17R 7012   2.101  -0.435   5.273 -0.7929  1.4302  0.3535
   78SOPE  H17S 7013   2.233  -0.390   5.166  1.1250  0.2776  1.7271
   78SOPE  C218 7014   2.030  -0.377   5.069 -0.3540  0.1150  0.2743
   78SOPE  H18R 7015   2.068  -0.350   4.969  1.1244 -1.0837  0.4774
   78SOPE  H18S 7016   1.948  -0.304   5.090 -0.0975  1.2788 -2.3865
   78SOPE  H18T 7017   1.995  -0.482   5.068  0.0775 -0.0323 -0.8954
   78SOPE   C33 7018   2.757   0.299   6.325  0.1169  0.6730  0.2060
   78SOPE   H3X 7019   2.766   0.410   6.327  0.5004  0.7043 -1.4786
   78SOPE   H3Y 7020   2.649   0.273   6.332  0.5651 -1.9408 -1.1154
   78SOPE   C34 7021   2.805   0.262   6.184 -0.0762  0.0246 -0.2046
   78SOPE   H4X 7022   2.818   0.153   6.172 -1.6815  0.0199 -2.9109
   78SOPE   H4Y 7023   2.907   0.308   6.177 -0.6319  1.7185  1.8903
   78SOPE   C35 7024   2.723   0.307   6.066  0.0231  0.0496 -0.0217
   78SOPE   H5X 7025   2.708   0.417   6.068 -0.4476 -0.0212  0.7654
   78SOPE   H5Y 7026   2.625   0.256   6.076 -0.9197  1.8223  0.2757
   78SOPE   C36 7027   2.782   0.279   5.929  0.0396  0.0333  0.0480
   78SOPE   H6X 7028   2.847   0.191   5.945 -1.2944 -1.1486 -0.8664
   78SOPE   H6Y 7029   2.842   0.368   5.901 -0.8472  0.3609 -0.8758
   78SOPE   C37 7030   2.679   0.281   5.818  0.0338 -0.1280 -0.5125
   78SOPE   H7X 7031   2.659   0.389   5.801 -0.9863  0.2969  2.6618
   78SOPE   H7Y 7032   2.587   0.227   5.850  0.6816 -2.1036 -1.8017
   78SOPE   C38 7033   2.741   0.219   5.691  0.1061 -0.4003  0.1654
   78SOPE   H8X 7034   2.756   0.113   5.722 -0.8104 -0.3368  0.8791
   78SOPE   H8Y 7035   2.830   0.280   5.668 -0.5794  0.8973  0.8496
   78SOPE   C39 7036   2.648   0.217   5.569  0.5325  0.0713  0.4403
   78SOPE   H9X 7037   2.631   0.322   5.539  2.4509  0.7781  1.5960
   78SOPE   H9Y 7038   2.556   0.170   5.608  1.8016 -0.6445  2.8324
   78SOPE  C310 7039   2.718   0.134   5.459  0.9840 -0.2513  0.4108
   78SOPE  H10X 7040   2.745   0.038   5.508 -1.7590 -0.2404  2.1275
   78SOPE  H10Y 7041   2.813   0.181   5.426  1.9035 -2.7447 -0.7651
   78SOPE  C311 7042   2.620   0.110   5.344  0.7380 -0.6480 -0.0293
   78SOPE  H11X 7043   2.574   0.206   5.311  1.7155 -0.1459  0.0155
   78SOPE  H11Y 7044   2.531   0.052   5.376 -2.0212  1.9030 -2.4501
   78SOPE  C312 7045   2.683   0.030   5.227  0.1946 -0.2190 -0.0196
   78SOPE  H12X 7046   2.745  -0.049   5.274 -2.5410 -2.4296  0.1385
   78SOPE  H12Y 7047   2.747   0.101   5.170 -3.6596  3.7479  0.0422
   78SOPE  C313 7048   2.589  -0.036   5.129  0.7114 -0.2470 -0.6300
   78SOPE  H13X 7049   2.508   0.036   5.102 -0.1986 -1.2385 -0.6220
   78SOPE  H13Y 7050   2.542  -0.118   5.187 -1.3720  1.7736  0.7529
   78SOPE  C314 7051   2.658  -0.079   5.002  0.5726  0.2808  0.2051
   78SOPE  H14X 7052   2.718  -0.169   5.027  0.9990  0.0108 -1.6592
   78SOPE  H14Y 7053   2.728  -0.005   4.958  0.5963 -0.9565 -1.9792
   78SOPE  C315 7054   2.563  -0.156   4.897  0.2678  0.3007  0.0519
   78SOPE  H15X 7055   2.515  -0.236   4.957 -1.4592  1.5881  0.4552
   78SOPE  H15Y 7056   2.624  -0.200   4.816  1.1464 -0.6291  1.1828
   78SOPE  C316 7057   2.437  -0.085   4.853 -0.1570 -0.5275 -0.4685
   78SOPE  H16X 7058   2.383  -0.056   4.946  0.5152 -2.9891  0.7822
   78SOPE  H16Y 7059   2.362  -0.143   4.797 -0.6342  0.7682 -1.2138
   78SOPE  C317 7060   2.473   0.046   4.778  0.3426 -0.1048  0.1753
   78SOPE  H17X 7061   2.496   0.015   4.674 -0.4674 -1.3221  0.3367
   78SOPE  H17Y 7062   2.561   0.096   4.822 -1.4102  0.6089  3.2027
   78SOPE  C318 7063   2.362   0.154   4.762  0.8800  0.5433  0.0270
   78SOPE  H18X 7064   2.282   0.109   4.700  0.6425 -1.0228  1.3856
   78SOPE  H18Y 7065   2.399   0.248   4.715  0.5735  0.0744 -1.1806
   78SOPE  H18Z 7066   2.303   0.162   4.856 -0.2627 -1.6359 -0.4324
   79SOPE     N 7067   6.190   2.926   7.030 -0.1900  0.0677 -0.1615
   79SOPE   HN1 7068   6.186   3.026   7.004 -0.7760  0.6060  1.8267
   79SOPE   HN2 7069   6.154   2.925   7.127 -1.4048 -3.6483 -0.4857
   79SOPE   HN3 7070   6.283   2.881   7.026 -1.5629 -3.1433  0.2433
   79SOPE   C12 7071   6.110   2.836   6.945  0.3768 -0.0369  0.1074
   79SOPE  H12A 7072   6.006   2.874   6.938  0.2116 -0.0938  1.8727
   79SOPE  H12B 7073   6.121   2.731   6.979 -1.0589 -0.0528  0.5895
   79SOPE   C11 7074   6.168   2.835   6.803  0.0483  0.0290  0.6547
   79SOPE  H11A 7075   6.144   2.932   6.754  2.0761 -0.7887 -2.2201
   79SOPE  H11B 7076   6.108   2.760   6.748 -1.0246  1.5293 -0.3360
   79SOPE     P 7077   6.397   2.732   6.719 -0.2816 -0.2376 -0.2001
   79SOPE   O13 7078   6.375   2.588   6.753 -0.4545  0.0026 -0.4466
   79SOPE   O14 7079   6.541   2.769   6.737  0.0079 -0.7305 -0.0545
   79SOPE   O12 7080   6.311   2.822   6.809  0.2088 -0.9000 -0.5663
   79SOPE   O11 7081   6.356   2.763   6.572  0.4591 -0.5138  0.1311
   79SOPE    C1 7082   6.418   2.683   6.473 -0.0874  0.9728  0.6180
   79SOPE    HA 7083   6.378   2.580   6.485 -1.3327  1.3923  0.2220
   79SOPE    HB 7084   6.529   2.676   6.471 -0.1274 -1.8155 -2.7134
   79SOPE    C2 7085   6.373   2.728   6.334 -0.1180  0.3603  0.0526
   79SOPE    HS 7086   6.417   2.825   6.302 -1.5767  1.3718  0.9756
   79SOPE   O21 7087   6.227   2.734   6.327  0.3168  0.2064 -0.5311
   79SOPE   C21 7088   6.173   2.834   6.260 -0.0996  0.1036  0.3866
   79SOPE   O22 7089   6.224   2.939   6.227  0.0539  0.1939 -0.1727
   79SOPE   C22 7090   6.038   2.786   6.207 -0.2086  0.1965  1.1966
   79SOPE   H2R 7091   5.984   2.759   6.301 -2.0688 -1.0211 -0.1361
   79SOPE   H2S 7092   6.060   2.691   6.153  2.6994  0.4940  1.7472
   79SOPE    C3 7093   6.422   2.639   6.211 -1.3543 -0.2089  0.2517
   79SOPE    HX 7094   6.374   2.539   6.210 -0.7290 -0.5121 -0.6924
   79SOPE    HY 7095   6.531   2.628   6.233 -1.2053  0.1943 -0.2673
   79SOPE   O31 7096   6.408   2.714   6.093 -0.0737  0.1464  0.2018
   79SOPE   C31 7097   6.459   2.677   5.988  0.7343 -0.3156 -0.0353
   79SOPE   O32 7098   6.552   2.593   5.971  0.1603 -0.1953 -0.3187
   79SOPE   C32 7099   6.387   2.742   5.869  0.0013  0.3051  0.5692
   79SOPE   H2X 7100   6.471   2.777   5.805  2.6282  0.2384  3.7111
   79SOPE   H2Y 7101   6.321   2.822   5.909  0.2467  0.3579  0.8736
   79SOPE   C23 7102   5.954   2.890   6.129  0.3772  0.6533  0.1371
   79SOPE   H3R 7103   5.973   2.996   6.157  0.1482  1.0673 -1.1930
   79SOPE   H3S 7104   5.847   2.877   6.158  0.4107  1.7629  0.7875
   79SOPE   C24 7105   5.971   2.875   5.974  0.1085 -0.8893 -0.2888
   79SOPE   H4R 7106   6.081   2.875   5.963  0.3519  0.1487  1.7677
   79SOPE   H4S 7107   5.930   2.776   5.944 -1.1917 -0.6196  0.5036
   79SOPE   C25 7108   5.894   2.984   5.891 -0.7715  0.5918  0.1648
   79SOPE   H5R 7109   5.792   2.969   5.932  0.3943  0.9474  3.5384
   79SOPE   H5S 7110   5.934   3.082   5.925  0.0764 -0.1361  1.3401
   79SOPE   C26 7111   5.910   2.979   5.734  0.0401  0.3862  0.2661
   79SOPE   H6R 7112   6.009   3.003   5.690  0.0990  0.2076  0.2998
   79SOPE   H6S 7113   5.878   2.875   5.708  0.8754  0.2436 -0.2102
   79SOPE   C27 7114   5.810   3.063   5.678 -0.2609  0.1695  0.4715
   79SOPE   H7R 7115   5.730   3.085   5.752  1.0279  2.5256  1.2586
   79SOPE   H7S 7116   5.857   3.163   5.666  0.4730 -0.3042 -0.8061
   79SOPE   C28 7117   5.757   3.005   5.540  0.7200 -0.6347 -0.1327
   79SOPE   H8R 7118   5.841   2.981   5.471  0.3763 -1.0627 -0.4049
   79SOPE   H8S 7119   5.708   2.908   5.561 -0.3637 -0.6266 -2.3059
   79SOPE   C29 7120   5.651   3.087   5.465 -0.7524  0.1039 -0.5643
   79SOPE   H91 7121   5.562   3.111   5.526  0.8426  2.7067  0.9227
   79SOPE  C210 7122   5.659   3.144   5.348 -0.0031  0.1409  0.0178
   79SOPE  H101 7123   5.574   3.201   5.309 -1.7921 -1.7784  0.9162
   79SOPE  C211 7124   5.771   3.126   5.249  0.8732  0.5460 -0.2680
   79SOPE  H11R 7125   5.840   3.042   5.270  1.5305  0.9110 -0.8867
   79SOPE  H11S 7126   5.824   3.222   5.231 -2.0515  1.9420 -2.2911
   79SOPE  C212 7127   5.718   3.081   5.108  0.8721 -0.0762 -0.1388
   79SOPE  H12R 7128   5.638   3.148   5.070 -1.2147 -1.3562  1.7997
   79SOPE  H12S 7129   5.675   2.980   5.123 -0.4389  0.4556 -0.2332
   79SOPE  C213 7130   5.826   3.076   4.996  0.7461 -0.3361 -0.7815
   79SOPE  H13R 7131   5.911   3.019   5.039  0.6606 -0.0709 -0.2557
   79SOPE  H13S 7132   5.860   3.179   4.974  0.5671 -0.3386 -1.0792
   79SOPE  C214 7133   5.772   3.018   4.866  0.0585 -0.3998  0.7621
   79SOPE  H14R 7134   5.761   2.907   4.875  0.4774 -0.5898 -0.7419
   79SOPE  H14S 7135   5.844   3.032   4.783 -0.6071  0.1297  0.2631
   79SOPE  C215 7136   5.633   3.083   4.822 -0.1000 -0.2535 -0.2598
   79SOPE  H15R 7137   5.646   3.193   4.837  2.1614 -0.3736 -0.9493
   79SOPE  H15S 7138   5.550   3.045   4.885 -1.6593  0.7045 -1.6694
   79SOPE  C216 7139   5.598   3.054   4.677 -0.0034  0.5678 -0.8249
   79SOPE  H16R 7140   5.609   2.944   4.664 -0.3129  0.7493 -3.0091
   79SOPE  H16S 7141   5.679   3.093   4.612  0.0767  1.0302 -0.4560
   79SOPE  C217 7142   5.465   3.101   4.648 -0.3354 -0.1841  0.5653
   79SOPE  H17R 7143   5.455   3.212   4.652 -1.9207 -0.3162  0.8903
   79SOPE  H17S 7144   5.391   3.060   4.720  0.0205 -1.5959  0.1561
   79SOPE  C218 7145   5.438   3.056   4.501  0.2659 -0.3764 -1.0858
   79SOPE  H18R 7146   5.513   3.102   4.433  0.9310  1.1992  0.6402
   79SOPE  H18S 7147   5.330   3.070   4.477  0.1056  0.9596  0.2650
   79SOPE  H18T 7148   5.450   2.946   4.503 -1.6783 -0.6107  0.6760
   79SOPE   C33 7149   6.303   2.641   5.778  0.4745 -0.1059 -0.6730
   79SOPE   H3X 7150   6.252   2.580   5.856  2.6997  0.9083  1.7363
   79SOPE   H3Y 7151   6.368   2.563   5.732  0.4498 -1.3333  1.2449
   79SOPE   C34 7152   6.221   2.722   5.683 -0.2999  0.0663 -0.1253
   79SOPE   H4X 7153   6.291   2.781   5.618 -1.0280  1.4548  0.3141
   79SOPE   H4Y 7154   6.156   2.796   5.734  1.1713  1.9782 -0.8905
   79SOPE   C35 7155   6.141   2.632   5.595 -0.6703  0.2516 -0.1202
   79SOPE   H5X 7156   6.065   2.581   5.658  1.1590 -0.1960  1.8318
   79SOPE   H5Y 7157   6.206   2.554   5.551 -0.1329  1.0876 -0.8441
   79SOPE   C36 7158   6.072   2.719   5.494 -0.2239  0.6074  0.3200
   79SOPE   H6X 7159   6.136   2.800   5.452  0.8027 -0.0911  0.4945
   79SOPE   H6Y 7160   5.990   2.778   5.540 -0.4310  0.8163 -0.3006
   79SOPE   C37 7161   6.008   2.629   5.394  0.2809  0.3145 -0.2971
   79SOPE   H7X 7162   5.938   2.559   5.444  0.5102  0.9934  1.0062
   79SOPE   H7Y 7163   6.086   2.570   5.342 -0.8716  1.1145 -3.1915
   79SOPE   C38 7164   5.928   2.704   5.294  0.0868  0.0874  0.9523
   79SOPE   H8X 7165   5.991   2.783   5.248 -0.1061 -1.5715 -2.4825
   79SOPE   H8Y 7166   5.837   2.746   5.343  0.4743  1.0280  0.8667
   79SOPE   C39 7167   5.876   2.626   5.174 -0.4218  0.3969  0.4528
   79SOPE   H9X 7168   5.810   2.548   5.218 -1.2233  0.7742 -0.0631
   79SOPE   H9Y 7169   5.958   2.575   5.119 -1.4473  0.9329 -1.6456
   79SOPE  C310 7170   5.799   2.709   5.070 -0.1360  0.1492  0.7971
   79SOPE  H10X 7171   5.848   2.804   5.038  0.5813 -0.4063  0.2150
   79SOPE  H10Y 7172   5.703   2.734   5.119 -0.9683  1.4086 -1.3289
   79SOPE  C311 7173   5.773   2.643   4.933 -0.2082  0.6605  0.4801
   79SOPE  H11X 7174   5.682   2.685   4.884  0.5496 -0.6206 -2.1996
   79SOPE  H11Y 7175   5.748   2.537   4.953  3.5315 -0.1922  1.3106
   79SOPE  C312 7176   5.887   2.665   4.832 -0.6053 -0.4205 -0.2490
   79SOPE  H12X 7177   5.976   2.613   4.874 -0.7248 -0.5540 -0.1611
   79SOPE  H12Y 7178   5.912   2.772   4.817  1.2576 -0.6054  1.0595
   79SOPE  C313 7179   5.851   2.604   4.703  0.2156 -0.3646 -0.4395
   79SOPE  H13X 7180   5.760   2.654   4.663  1.8485  3.9949  0.7786
   79SOPE  H13Y 7181   5.828   2.495   4.712  0.4362 -0.2938  1.1414
   79SOPE  C314 7182   5.964   2.600   4.595  0.2324 -0.5183 -0.4426
   79SOPE  H14X 7183   6.058   2.569   4.647 -0.3711  0.2329  1.1378
   79SOPE  H14Y 7184   5.995   2.699   4.556  2.3510 -0.1767  1.8524
   79SOPE  C315 7185   5.933   2.514   4.476  0.6073  0.4752  0.6944
   79SOPE  H15X 7186   5.846   2.561   4.427 -0.8125 -2.1537  0.4911
   79SOPE  H15Y 7187   5.907   2.412   4.513 -0.2153  0.9992  1.5791
   79SOPE  C316 7188   6.049   2.499   4.373 -0.0408 -0.3181 -0.0120
   79SOPE  H16X 7189   6.105   2.595   4.367  1.5275 -1.2458 -1.3030
   79SOPE  H16Y 7190   6.000   2.490   4.273  2.4750  0.2419 -1.3944
   79SOPE  C317 7191   6.162   2.398   4.375 -0.3142 -0.0297 -0.1312
   79SOPE  H17X 7192   6.136   2.290   4.384  1.5655 -0.5246  0.0063
   79SOPE  H17Y 7193   6.216   2.417   4.471  2.1591  0.3816 -1.5002
   79SOPE  C318 7194   6.264   2.402   4.262  0.2095  0.3323 -0.7879
   79SOPE  H18X 7195   6.332   2.315   4.274  1.0623  0.8488 -1.7002
   79SOPE  H18Y 7196   6.317   2.499   4.258 -1.0891  1.0240 -2.2759
   79SOPE  H18Z 7197   6.211   2.381   4.166 -0.2703 -2.4036 -0.0200
   80SOPE     N 7198   1.806   0.961   7.008 -0.7769  1.0092  0.5396
   80SOPE   HN1 7199   1.751   0.917   7.085 -0.2502 -1.4439 -0.4061
   80SOPE   HN2 7200   1.881   1.018   7.053  0.8078  1.0370 -1.9473
   80SOPE   HN3 7201   1.741   1.017   6.949  0.2610 -0.5232 -2.2232
   80SOPE   C12 7202   1.874   0.852   6.929 -0.2592 -0.1610  0.7628
   80SOPE  H12A 7203   1.799   0.799   6.866 -1.3919 -0.0127  1.9235
   80SOPE  H12B 7204   1.911   0.779   7.005 -1.2624 -1.3881  0.1068
   80SOPE   C11 7205   1.995   0.900   6.853 -0.5417 -0.9018  0.2208
   80SOPE  H11A 7206   1.961   0.984   6.788  0.2063  0.4665  1.5426
   80SOPE  H11B 7207   2.031   0.813   6.793 -0.7853 -1.2909  0.6332
   80SOPE     P 7208   2.228   0.900   6.967 -0.2303  0.4551 -0.0295
   80SOPE   O13 7209   2.221   0.773   7.041  0.1757  0.3806  0.0376
   80SOPE   O14 7210   2.286   1.009   7.037 -0.2202 -0.3722 -0.1703
   80SOPE   O12 7211   2.087   0.958   6.941 -0.3272  0.4805  0.0347
   80SOPE   O11 7212   2.300   0.889   6.826  0.2892  0.3833 -0.5250
   80SOPE    C1 7213   2.340   0.995   6.743  0.6568 -0.2589 -0.3929
   80SOPE    HA 7214   2.423   0.966   6.675  0.2217 -0.5999 -0.7785
   80SOPE    HB 7215   2.383   1.084   6.794  1.4884  0.2207 -1.8722
   80SOPE    C2 7216   2.239   1.048   6.640  0.3844  0.5484 -0.1154
   80SOPE    HS 7217   2.147   1.073   6.696  0.2998  0.4418 -0.2056
   80SOPE   O21 7218   2.228   0.951   6.533 -0.6268  0.6211  0.2814
   80SOPE   C21 7219   2.132   0.972   6.448 -0.2022  0.4150 -0.2644
   80SOPE   O22 7220   2.055   1.064   6.447  0.1718 -0.3393  0.1769
   80SOPE   C22 7221   2.133   0.866   6.338  0.4774  0.1885  0.1204
   80SOPE   H2R 7222   2.028   0.836   6.320  0.8943 -0.7944 -0.7871
   80SOPE   H2S 7223   2.189   0.780   6.380 -0.3801  0.0495  1.0239
   80SOPE    C3 7224   2.295   1.183   6.582 -1.0879 -0.2393  0.0209
   80SOPE    HX 7225   2.306   1.259   6.662 -1.1664 -2.3651  2.1936
   80SOPE    HY 7226   2.216   1.221   6.514 -0.9819 -1.0206 -0.5593
   80SOPE   O31 7227   2.426   1.160   6.511  0.5566  0.3173 -0.6813
   80SOPE   C31 7228   2.504   1.260   6.517  0.0613 -0.0637 -0.5416
   80SOPE   O32 7229   2.491   1.369   6.579 -0.6857  0.5345 -0.2989
   80SOPE   C32 7230   2.627   1.222   6.442 -0.4003 -0.6118  1.3863
   80SOPE   H2X 7231   2.690   1.148   6.496  0.1092 -1.1301  0.1329
   80SOPE   H2Y 7232   2.689   1.312   6.424  1.5078 -1.7455  2.0625
   80SOPE   C23 7233   2.193   0.912   6.208 -0.6288 -0.2860 -0.0150
   80SOPE   H3R 7234   2.200   1.021   6.186  0.9726 -0.5280 -0.8300
   80SOPE   H3S 7235   2.138   0.869   6.122  0.0395 -1.1138 -0.0377
   80SOPE   C24 7236   2.334   0.872   6.193  0.8010 -0.4876 -0.2716
   80SOPE   H4R 7237   2.385   0.901   6.288  0.7686  0.8705 -0.6380
   80SOPE   H4S 7238   2.332   0.761   6.188  0.5729 -0.7787  3.3175
   80SOPE   C25 7239   2.410   0.926   6.077  0.1560 -0.3462  0.7741
   80SOPE   H5R 7240   2.401   1.037   6.071 -1.4255 -0.4997 -0.8817
   80SOPE   H5S 7241   2.509   0.888   6.109 -0.0787  0.7745  3.0353
   80SOPE   C26 7242   2.352   0.891   5.935 -0.4723  0.5403 -0.2360
   80SOPE   H6R 7243   2.374   0.782   5.936  0.0473  0.6308 -1.0807
   80SOPE   H6S 7244   2.242   0.907   5.927 -0.6386  0.3996  1.4776
   80SOPE   C27 7245   2.443   0.947   5.825 -0.3346  0.5355  0.4797
   80SOPE   H7R 7246   2.422   1.056   5.812  2.0021  1.2340  1.9505
   80SOPE   H7S 7247   2.549   0.945   5.858 -0.0523 -2.4916 -0.3193
   80SOPE   C28 7248   2.436   0.870   5.699 -0.2027 -0.0141  0.0082
   80SOPE   H8R 7249   2.448   0.761   5.713  1.9387  0.4801  3.2007
   80SOPE   H8S 7250   2.333   0.887   5.662 -0.0344 -0.8350 -0.8661
   80SOPE   C29 7251   2.515   0.945   5.592  0.5562 -0.3009  0.9924
   80SOPE   H91 7252   2.487   1.046   5.561 -1.7970 -0.7268  1.5452
   80SOPE  C210 7253   2.592   0.877   5.505 -0.2087 -0.1713  0.5208
   80SOPE  H101 7254   2.654   0.938   5.439  1.1681 -1.0755  0.9311
   80SOPE  C211 7255   2.623   0.732   5.497  0.1474 -0.2660 -0.0681
   80SOPE  H11R 7256   2.554   0.675   5.563 -0.0221  0.3114  0.2655
   80SOPE  H11S 7257   2.726   0.723   5.539 -0.3148 -2.8275  0.6649
   80SOPE  C212 7258   2.628   0.670   5.356 -0.0157 -0.2131  0.7254
   80SOPE  H12R 7259   2.714   0.724   5.310 -0.9360 -0.0683 -0.9034
   80SOPE  H12S 7260   2.534   0.686   5.299  1.3996  1.6592 -1.2597
   80SOPE  C213 7261   2.687   0.521   5.353  0.0568  0.2735 -0.2701
   80SOPE  H13R 7262   2.606   0.455   5.390 -1.6851  2.1073 -0.6251
   80SOPE  H13S 7263   2.768   0.516   5.429  1.4248 -0.5109 -1.7166
   80SOPE  C214 7264   2.734   0.486   5.212 -0.4748  0.2904 -0.1898
   80SOPE  H14R 7265   2.768   0.380   5.220 -0.4255  0.3680  0.7097
   80SOPE  H14S 7266   2.825   0.549   5.204 -0.2777 -0.1464 -1.8108
   80SOPE  C215 7267   2.635   0.515   5.098  0.5814  0.4840 -0.0253
   80SOPE  H15R 7268   2.685   0.499   5.000 -3.0969  0.5925 -2.0954
   80SOPE  H15S 7269   2.601   0.621   5.101  2.1137  1.1092 -2.0742
   80SOPE  C216 7270   2.509   0.419   5.109 -0.0558  0.3638 -0.5834
   80SOPE  H16R 7271   2.479   0.403   5.214  1.6418  1.0650  0.0380
   80SOPE  H16S 7272   2.539   0.319   5.070 -0.2993  0.3350 -0.6964
   80SOPE  C217 7273   2.382   0.479   5.042 -0.1111 -0.3204 -0.3720
   80SOPE  H17R 7274   2.303   0.400   5.041  0.9450 -1.4652  1.0779
   80SOPE  H17S 7275   2.399   0.501   4.935 -1.5147 -2.5898 -1.1385
   80SOPE  C218 7276   2.329   0.608   5.099  0.7799  0.3953  0.0735
   80SOPE  H18R 7277   2.341   0.621   5.209 -3.6702 -1.1973  0.9368
   80SOPE  H18S 7278   2.220   0.625   5.085  0.4904 -1.4089 -0.0194
   80SOPE  H18T 7279   2.389   0.693   5.060  1.0049 -0.4759 -1.5931
   80SOPE   C33 7280   2.601   1.158   6.298 -0.4608  0.4110  0.5378
   80SOPE   H3X 7281   2.509   1.194   6.249 -1.1295 -2.6204 -0.7017
   80SOPE   H3Y 7282   2.576   1.050   6.305 -3.1157  1.0537  4.5050
   80SOPE   C34 7283   2.717   1.191   6.198 -0.2650  0.0544  1.4191
   80SOPE   H4X 7284   2.813   1.141   6.224  0.4340  1.2768  1.2386
   80SOPE   H4Y 7285   2.744   1.298   6.211  2.4422  0.2831 -3.6007
   80SOPE   C35 7286   2.676   1.164   6.059 -0.2486 -0.0029 -0.1497
   80SOPE   H5X 7287   2.584   1.224   6.045 -0.1428  0.8832  2.4616
   80SOPE   H5Y 7288   2.646   1.059   6.035 -2.1323  0.2576  0.8292
   80SOPE   C36 7289   2.781   1.208   5.950 -0.1231 -0.3106  0.0224
   80SOPE   H6X 7290   2.884   1.190   5.986 -0.7604 -0.1573  2.0774
   80SOPE   H6Y 7291   2.776   1.319   5.942  1.1816 -0.3076 -0.9607
   80SOPE   C37 7292   2.753   1.135   5.817 -0.7225 -0.2921 -0.4455
   80SOPE   H7X 7293   2.657   1.170   5.772 -0.5012 -0.3128 -0.9359
   80SOPE   H7Y 7294   2.742   1.026   5.835  0.8026 -0.6359 -1.4973
   80SOPE   C38 7295   2.865   1.169   5.708 -0.2340  0.5800 -0.2721
   80SOPE   H8X 7296   2.960   1.118   5.735 -1.1941 -0.5069  1.2533
   80SOPE   H8Y 7297   2.876   1.280   5.710 -0.5173  0.7003 -2.7199
   80SOPE   C39 7298   2.842   1.133   5.565 -0.3318  0.2382  1.2575
   80SOPE   H9X 7299   2.756   1.186   5.518 -1.6496 -2.0913  0.8983
   80SOPE   H9Y 7300   2.813   1.026   5.556 -3.0375  1.0981 -2.7177
   80SOPE  C310 7301   2.968   1.154   5.482  0.1963 -0.4085  0.5372
   80SOPE  H10X 7302   3.055   1.102   5.527  0.7787 -0.6849 -0.8720
   80SOPE  H10Y 7303   2.996   1.261   5.470  1.5531 -0.8609 -0.6344
   80SOPE  C311 7304   2.959   1.104   5.338 -0.1055 -0.0951 -0.4599
   80SOPE  H11X 7305   2.918   1.001   5.334 -0.9387  0.1765  0.7962
   80SOPE  H11Y 7306   3.061   1.094   5.295  0.4330 -0.2719  0.8282
   80SOPE  C312 7307   2.869   1.198   5.246  0.0554  0.3507  0.5075
   80SOPE  H12X 7308   2.930   1.290   5.240  3.9581 -2.0979 -1.2453
   80SOPE  H12Y 7309   2.774   1.218   5.301 -0.3628 -1.9393  0.7264
   80SOPE  C313 7310   2.849   1.140   5.114  0.2136  0.0874  0.1812
   80SOPE  H13X 7311   2.948   1.107   5.075 -0.9587 -2.9593 -0.4807
   80SOPE  H13Y 7312   2.798   1.221   5.057  0.4564  1.1508  1.4095
   80SOPE  C314 7313   2.751   1.017   5.105  0.7450  0.2753  0.7163
   80SOPE  H14X 7314   2.649   1.048   5.134  0.3387 -1.0852  0.7776
   80SOPE  H14Y 7315   2.777   0.929   5.167  1.9766 -1.2248 -1.7744
   80SOPE  C315 7316   2.727   0.976   4.959  0.2279  0.0521  0.0857
   80SOPE  H15X 7317   2.817   0.952   4.900 -1.7007  1.7872 -3.9990
   80SOPE  H15Y 7318   2.690   1.065   4.903 -0.5208  0.7274  1.5822
   80SOPE  C316 7319   2.618   0.873   4.927 -0.2663 -0.1544  0.6311
   80SOPE  H16X 7320   2.529   0.897   4.988  0.2111  0.8084  0.9558
   80SOPE  H16Y 7321   2.660   0.782   4.977  2.3673 -0.3463 -1.6960
   80SOPE  C317 7322   2.585   0.845   4.778 -0.1441 -0.0691  0.2815
   80SOPE  H17X 7323   2.683   0.838   4.727  0.4673  1.1866  1.2303
   80SOPE  H17Y 7324   2.519   0.924   4.736 -1.7349 -1.4785 -0.0074
   80SOPE  C318 7325   2.514   0.713   4.758 -0.9737 -0.1614 -0.0575
   80SOPE  H18X 7326   2.420   0.709   4.817 -2.0054 -0.2032 -1.6373
   80SOPE  H18Y 7327   2.578   0.626   4.786 -3.8878 -1.9701  1.5265
   80SOPE  H18Z 7328   2.485   0.704   4.651 -0.3669 -0.1083 -0.2257
   81SOPE     N 7329   3.605   3.022   6.819 -0.6901  0.0856  0.2536
   81SOPE   HN1 7330   3.516   3.007   6.768  0.5198  0.6401 -2.1412
   81SOPE   HN2 7331   3.616   2.925   6.855 -0.6283 -0.4771 -1.2108
   81SOPE   HN3 7332   3.607   3.090   6.898  1.3716 -0.7193  0.9758
   81SOPE   C12 7333   3.710   3.039   6.714 -0.1774  0.1715  0.0956
   81SOPE  H12A 7334   3.704   3.140   6.669  1.6793  0.0843 -0.4526
   81SOPE  H12B 7335   3.692   2.964   6.635  0.4930 -0.3955  0.4708
   81SOPE   C11 7336   3.848   3.016   6.784 -0.2320 -0.2809 -0.0418
   81SOPE  H11A 7337   3.924   3.010   6.703 -1.7675 -0.6371 -1.5091
   81SOPE  H11B 7338   3.833   2.911   6.818 -0.2012 -0.0850  0.5867
   81SOPE     P 7339   4.034   3.108   6.933  0.3140 -0.2627  0.3429
   81SOPE   O13 7340   4.097   2.973   6.944 -0.5820  0.7825 -0.0225
   81SOPE   O14 7341   4.055   3.193   7.051  0.3464  0.2764  0.0129
   81SOPE   O12 7342   3.879   3.097   6.900 -0.3866  0.0825 -0.5927
   81SOPE   O11 7343   4.093   3.171   6.807  0.5796 -0.6422  0.6184
   81SOPE    C1 7344   4.083   3.312   6.775  0.6511  0.6010 -0.7912
   81SOPE    HA 7345   4.181   3.336   6.728  2.1189 -2.7297  0.2705
   81SOPE    HB 7346   4.069   3.383   6.859 -1.2567  0.6159 -1.0734
   81SOPE    C2 7347   3.970   3.351   6.676 -0.2985  0.0888 -0.1866
   81SOPE    HS 7348   3.866   3.321   6.703 -0.8706  0.6430 -1.6997
   81SOPE   O21 7349   4.016   3.292   6.550  0.0218 -0.2846  0.4409
   81SOPE   C21 7350   3.928   3.238   6.470  0.1179  0.9464 -0.5077
   81SOPE   O22 7351   3.808   3.243   6.487 -0.6122 -0.0580 -0.9372
   81SOPE   C22 7352   3.998   3.144   6.378 -0.4790  0.5578 -0.8139
   81SOPE   H2R 7353   4.044   3.080   6.457 -0.0828  3.3128  1.3280
   81SOPE   H2S 7354   4.075   3.198   6.319  0.2071  0.6617  0.1474
   81SOPE    C3 7355   3.963   3.508   6.658 -0.5509  0.8416  0.3209
   81SOPE    HX 7356   4.069   3.540   6.645 -0.6171  0.7450 -0.5633
   81SOPE    HY 7357   3.920   3.543   6.754 -0.9034 -1.5311  1.1116
   81SOPE   O31 7358   3.883   3.544   6.538 -0.0171  0.6049 -0.4623
   81SOPE   C31 7359   3.751   3.543   6.564 -0.4541 -0.2487 -0.5772
   81SOPE   O32 7360   3.695   3.523   6.674 -0.0903  0.0908  0.1383
   81SOPE   C32 7361   3.682   3.564   6.427 -0.7282  0.1999 -0.2241
   81SOPE   H2X 7362   3.692   3.470   6.368  0.0184 -0.5056  0.9762
   81SOPE   H2Y 7363   3.723   3.653   6.376 -2.2526  0.6792 -0.6513
   81SOPE   C23 7364   3.912   3.058   6.288  0.4041 -0.0398  0.5558
   81SOPE   H3R 7365   3.826   3.029   6.352 -0.2167 -0.3115 -0.3704
   81SOPE   H3S 7366   3.969   2.967   6.259 -2.4066 -1.9643  0.6045
   81SOPE   C24 7367   3.872   3.125   6.156  0.7772 -0.9343  0.5300
   81SOPE   H4R 7368   3.967   3.154   6.107  0.7368 -1.7904 -0.0814
   81SOPE   H4S 7369   3.833   3.048   6.086 -2.5904 -0.3913  1.6442
   81SOPE   C25 7370   3.779   3.245   6.169 -0.3463 -0.4744  0.8297
   81SOPE   H5R 7371   3.690   3.215   6.228 -1.3711  1.6927  0.5019
   81SOPE   H5S 7372   3.832   3.319   6.234  0.6488 -0.1159 -0.3598
   81SOPE   C26 7373   3.733   3.317   6.041  0.2881  0.2896 -0.5777
   81SOPE   H6R 7374   3.830   3.334   5.989  1.7380 -1.3350  1.4450
   81SOPE   H6S 7375   3.656   3.244   6.007  0.7970 -1.7728  2.2944
   81SOPE   C27 7376   3.665   3.454   6.053 -0.6497  0.7948 -0.6474
   81SOPE   H7R 7377   3.565   3.427   6.093 -0.9199  0.6846 -1.3705
   81SOPE   H7S 7378   3.706   3.508   6.141 -1.4150  0.4796 -0.0941
   81SOPE   C28 7379   3.657   3.536   5.927  0.1005  0.5982  0.4132
   81SOPE   H8R 7380   3.761   3.548   5.888  0.8145  0.1608  2.1097
   81SOPE   H8S 7381   3.591   3.485   5.854 -0.6368 -0.2617  1.6464
   81SOPE   C29 7382   3.610   3.671   5.944  0.7822 -0.4056  0.6216
   81SOPE   H91 7383   3.584   3.707   6.045  0.7712  0.2321  0.3898
   81SOPE  C210 7384   3.596   3.755   5.837 -0.3240 -0.1621  0.0455
   81SOPE  H101 7385   3.550   3.853   5.855 -1.6945 -0.4572 -1.6370
   81SOPE  C211 7386   3.621   3.731   5.689  0.1308 -0.0994 -0.0678
   81SOPE  H11R 7387   3.532   3.691   5.637 -0.7028  1.4368  0.1333
   81SOPE  H11S 7388   3.711   3.668   5.673  1.0894  1.0326  0.6895
   81SOPE  C212 7389   3.640   3.860   5.610 -0.5366  0.1499 -0.1063
   81SOPE  H12R 7390   3.716   3.925   5.658  0.3799 -0.6053 -0.4992
   81SOPE  H12S 7391   3.543   3.913   5.620 -0.4675  0.1661  0.5097
   81SOPE  C213 7392   3.678   3.854   5.462  0.5152  0.2013  0.4570
   81SOPE  H13R 7393   3.774   3.801   5.442  1.0776  1.2602  0.2808
   81SOPE  H13S 7394   3.708   3.953   5.422  0.3690 -0.8745 -2.5854
   81SOPE  C214 7395   3.566   3.803   5.368 -0.3768 -0.3319  0.0832
   81SOPE  H14R 7396   3.471   3.856   5.390 -0.3656  0.9311 -2.5420
   81SOPE  H14S 7397   3.549   3.696   5.395  2.0565 -1.0448 -0.9173
   81SOPE  C215 7398   3.608   3.825   5.216  0.0251 -0.4630 -0.3489
   81SOPE  H15R 7399   3.706   3.776   5.199 -1.3497 -3.2436 -0.9101
   81SOPE  H15S 7400   3.609   3.936   5.207 -0.6528 -0.0509  3.1949
   81SOPE  C216 7401   3.510   3.762   5.115 -0.1488  0.5304 -0.3802
   81SOPE  H16R 7402   3.408   3.800   5.135 -0.3392 -0.6193  0.9622
   81SOPE  H16S 7403   3.523   3.656   5.146  0.8757  0.5440 -0.6966
   81SOPE  C217 7404   3.539   3.788   4.966  0.1389 -0.2149  0.1334
   81SOPE  H17R 7405   3.567   3.894   4.955  1.9729 -0.8019 -1.4053
   81SOPE  H17S 7406   3.439   3.772   4.920 -0.2005  2.2434 -0.0832
   81SOPE  C218 7407   3.651   3.701   4.919  0.4463 -0.2095 -0.0972
   81SOPE  H18R 7408   3.658   3.711   4.809  0.9292  2.6241  0.1282
   81SOPE  H18S 7409   3.637   3.593   4.944 -2.0479  0.2897  0.9670
   81SOPE  H18T 7410   3.748   3.738   4.957  0.4894 -1.2142  0.8226
   81SOPE   C33 7411   3.533   3.590   6.438  1.0790  0.5559  0.1508
   81SOPE   H3X 7412   3.521   3.672   6.511 -0.4855  0.0519  0.4980
   81SOPE   H3Y 7413   3.487   3.512   6.503  1.0317  1.5425  1.3318
   81SOPE   C34 7414   3.456   3.625   6.317  0.3877  0.9949 -0.1818
   81SOPE   H4X 7415   3.457   3.535   6.252  3.3436 -0.1057  1.2119
   81SOPE   H4Y 7416   3.502   3.704   6.254  0.1772  1.5756  0.3809
   81SOPE   C35 7417   3.310   3.669   6.329 -0.0588  0.9607 -0.0218
   81SOPE   H5X 7418   3.313   3.744   6.410 -0.5769 -1.2951  2.2268
   81SOPE   H5Y 7419   3.239   3.591   6.364  0.7740  1.2460  2.5264
   81SOPE   C36 7420   3.259   3.735   6.200  1.0134  0.7533 -0.7221
   81SOPE   H6X 7421   3.330   3.815   6.170  1.3171  1.0300  0.6451
   81SOPE   H6Y 7422   3.160   3.782   6.218 -0.1978 -2.0482  0.5729
   81SOPE   C37 7423   3.238   3.651   6.075 -0.4038 -0.1548  0.8184
   81SOPE   H7X 7424   3.160   3.574   6.087 -0.2298 -0.4427  0.1779
   81SOPE   H7Y 7425   3.334   3.599   6.056 -0.7026 -0.9025  1.3502
   81SOPE   C38 7426   3.191   3.732   5.949 -0.1985  0.1151 -0.4746
   81SOPE   H8X 7427   3.253   3.824   5.948 -1.0482  0.7864  1.7479
   81SOPE   H8Y 7428   3.084   3.761   5.962 -0.0871 -0.1922  1.3594
   81SOPE   C39 7429   3.213   3.649   5.820 -0.0293  0.3682 -0.2910
   81SOPE   H9X 7430   3.162   3.553   5.839  1.8546 -0.5825  0.2553
   81SOPE   H9Y 7431   3.322   3.628   5.818  0.2676  1.3378  2.2493
   81SOPE  C310 7432   3.154   3.731   5.697 -0.3875 -0.3235  1.0545
   81SOPE  H10X 7433   3.225   3.816   5.682 -0.0517 -0.5982  1.0709
   81SOPE  H10Y 7434   3.058   3.778   5.726 -0.5103  0.1927 -0.1143
   81SOPE  C311 7435   3.147   3.653   5.569 -0.4445 -0.1028 -0.0821
   81SOPE  H11X 7436   3.077   3.567   5.582 -1.4814  0.7294  0.0191
   81SOPE  H11Y 7437   3.244   3.605   5.546 -0.9988 -0.9047 -0.8185
   81SOPE  C312 7438   3.118   3.741   5.448  0.3601 -0.1392 -0.1290
   81SOPE  H12X 7439   3.181   3.831   5.460  1.8329 -1.2097  0.3957
   81SOPE  H12Y 7440   3.015   3.784   5.454 -0.4029 -1.8373 -0.3707
   81SOPE  C313 7441   3.146   3.688   5.305  0.1890  0.6124  0.1637
   81SOPE  H13X 7442   3.079   3.602   5.283 -0.3259  0.8367  0.8252
   81SOPE  H13Y 7443   3.250   3.648   5.295  0.0970  0.3380  0.2979
   81SOPE  C314 7444   3.139   3.795   5.196 -1.3168  0.5314  0.1825
   81SOPE  H14X 7445   3.176   3.753   5.100 -1.2441  2.7465 -0.8415
   81SOPE  H14Y 7446   3.215   3.875   5.208 -1.0183  0.3640 -0.5437
   81SOPE  C315 7447   2.998   3.841   5.162  0.3458  0.1755 -0.3960
   81SOPE  H15X 7448   2.938   3.871   5.250 -1.5740 -2.2600 -0.7937
   81SOPE  H15Y 7449   2.944   3.757   5.115  0.4243  0.3021 -0.7202
   81SOPE  C316 7450   3.000   3.964   5.068 -0.2123 -0.1737 -0.2551
   81SOPE  H16X 7451   3.026   3.925   4.968  0.6990  0.5484 -0.3141
   81SOPE  H16Y 7452   3.084   4.030   5.100 -0.3545  0.1388 -0.5349
   81SOPE  C317 7453   2.877   4.054   5.072 -0.0982 -0.1709 -0.4939
   81SOPE  H17X 7454   2.871   4.101   5.173 -1.6584 -0.5369 -0.3843
   81SOPE  H17Y 7455   2.791   3.988   5.048 -2.7141  1.8340  2.5417
   81SOPE  C318 7456   2.898   4.166   4.963 -0.8052  0.2482 -0.0547
   81SOPE  H18X 7457   2.913   4.126   4.861  1.6427 -0.1631  0.3925
   81SOPE  H18Y 7458   2.990   4.225   4.983 -1.0219  0.4509  0.3659
   81SOPE  H18Z 7459   2.818   4.242   4.971  0.0843  1.0005  2.9453
   82SOPE     N 7460   0.046   2.841   6.666 -0.4011 -0.4144 -0.4420
   82SOPE   HN1 7461   0.113   2.920   6.661  0.9952 -1.6082 -1.3039
   82SOPE   HN2 7462  -0.046   2.883   6.694  0.3522  0.5764  0.6548
   82SOPE   HN3 7463   0.087   2.770   6.729 -0.6192  0.1112  0.3004
   82SOPE   C12 7464   0.046   2.768   6.544  0.3698 -0.1656 -0.0272
   82SOPE  H12A 7465   0.010   2.833   6.461  1.8014  2.2900  1.1738
   82SOPE  H12B 7466  -0.035   2.692   6.555 -1.1814  1.5607  1.0538
   82SOPE   C11 7467   0.191   2.711   6.535 -0.4135 -0.4791  0.2541
   82SOPE  H11A 7468   0.257   2.793   6.499  1.2860 -2.0622 -0.4429
   82SOPE  H11B 7469   0.203   2.639   6.451 -2.0189  1.0135 -1.3243
   82SOPE     P 7470   0.386   2.667   6.712 -0.2135  0.3184  0.0246
   82SOPE   O13 7471   0.419   2.569   6.816  0.4894  0.3178 -0.3252
   82SOPE   O14 7472   0.403   2.813   6.742  0.3292 -0.0591 -0.0146
   82SOPE   O12 7473   0.238   2.651   6.652  0.3328 -0.3672  0.2978
   82SOPE   O11 7474   0.478   2.640   6.580 -0.2540 -0.0911  1.0506
   82SOPE    C1 7475   0.521   2.510   6.560 -0.8382 -0.0838  0.3869
   82SOPE    HA 7476   0.511   2.443   6.648  2.9652 -1.2072  0.1371
   82SOPE    HB 7477   0.631   2.515   6.541 -0.7717  2.2387  0.9851
   82SOPE    C2 7478   0.455   2.434   6.438  0.1725 -0.5917  0.0712
   82SOPE    HS 7479   0.349   2.406   6.461 -0.0557  0.8153  0.8448
   82SOPE   O21 7480   0.541   2.316   6.411 -0.8177  0.0455 -0.9932
   82SOPE   C21 7481   0.476   2.218   6.349 -0.3757  0.4467  0.0016
   82SOPE   O22 7482   0.364   2.221   6.300  0.8228 -0.3861 -0.5736
   82SOPE   C22 7483   0.571   2.095   6.341  0.9310  0.9389 -0.6013
   82SOPE   H2R 7484   0.560   2.034   6.433 -0.2842 -0.7830 -1.8302
   82SOPE   H2S 7485   0.674   2.137   6.342  0.8854  1.1059  1.8294
   82SOPE    C3 7486   0.473   2.536   6.317  0.3834  0.0178 -0.1279
   82SOPE    HX 7487   0.573   2.582   6.326 -0.2976  1.2111  1.7597
   82SOPE    HY 7488   0.400   2.617   6.336  0.4176  0.0871 -0.2885
   82SOPE   O31 7489   0.448   2.478   6.186 -0.4449  0.0461 -0.8492
   82SOPE   C31 7490   0.329   2.490   6.141 -0.0274 -0.0549  0.0118
   82SOPE   O32 7491   0.239   2.548   6.197 -0.0536  0.5877 -0.1087
   82SOPE   C32 7492   0.322   2.429   6.004  0.5061 -0.2409  0.0699
   82SOPE   H2X 7493   0.257   2.340   6.012 -0.3782  0.2799 -1.1253
   82SOPE   H2Y 7494   0.422   2.390   5.975 -0.2769 -0.9690 -1.8024
   82SOPE   C23 7495   0.544   2.003   6.227 -0.3106 -0.1114  0.3014
   82SOPE   H3R 7496   0.437   1.991   6.199  0.1356 -0.4303 -1.4077
   82SOPE   H3S 7497   0.589   1.905   6.252  1.5632  0.6171 -0.0807
   82SOPE   C24 7498   0.618   2.038   6.096 -0.4027  0.4447  0.1871
   82SOPE   H4R 7499   0.722   2.058   6.129 -0.6322  1.8198  0.1202
   82SOPE   H4S 7500   0.630   1.954   6.025 -0.4162  1.8023 -1.4735
   82SOPE   C25 7501   0.558   2.148   6.005 -0.1506 -0.3461 -0.1141
   82SOPE   H5R 7502   0.457   2.118   5.970 -0.1134 -0.2368 -0.3144
   82SOPE   H5S 7503   0.538   2.235   6.070 -0.1409  0.1278 -0.7370
   82SOPE   C26 7504   0.637   2.192   5.887 -0.0367  0.2459 -0.5155
   82SOPE   H6R 7505   0.595   2.286   5.846  0.7251  0.0121 -1.9128
   82SOPE   H6S 7506   0.731   2.221   5.938 -0.7123 -2.4110  2.5421
   82SOPE   C27 7507   0.671   2.099   5.768  0.4508  0.4285 -0.3376
   82SOPE   H7R 7508   0.733   2.017   5.810  2.6966  2.8251  1.3563
   82SOPE   H7S 7509   0.576   2.053   5.735  0.9854  0.5761 -2.1968
   82SOPE   C28 7510   0.746   2.159   5.650  0.2770  0.0493 -0.7697
   82SOPE   H8R 7511   0.837   2.214   5.684  1.5189 -1.5424 -1.3739
   82SOPE   H8S 7512   0.797   2.071   5.606  0.4707 -0.1702 -0.1223
   82SOPE   C29 7513   0.674   2.230   5.541  0.6640  0.7884  0.5263
   82SOPE   H91 7514   0.642   2.332   5.568  2.9046  1.2639  1.6205
   82SOPE  C210 7515   0.633   2.183   5.419 -0.8811 -0.3536  0.0124
   82SOPE  H101 7516   0.598   2.264   5.353 -0.4588  0.1244  0.3570
   82SOPE  C211 7517   0.688   2.064   5.351  0.0075 -0.3061  0.2249
   82SOPE  H11R 7518   0.798   2.061   5.369 -0.0533  0.5850  0.8094
   82SOPE  H11S 7519   0.674   2.058   5.241 -1.5491 -1.3257  0.4526
   82SOPE  C212 7520   0.634   1.934   5.407 -0.0241 -0.1978  0.2245
   82SOPE  H12R 7521   0.528   1.925   5.375 -0.3415  1.3932  0.7486
   82SOPE  H12S 7522   0.630   1.940   5.518 -0.0566 -0.3753  0.2330
   82SOPE  C213 7523   0.716   1.813   5.357  0.2304  0.3950 -1.1761
   82SOPE  H13R 7524   0.822   1.839   5.379 -0.1579 -0.1996  1.8484
   82SOPE  H13S 7525   0.704   1.772   5.254  0.7965 -2.2140 -0.2802
   82SOPE  C214 7526   0.690   1.694   5.437 -0.3916  0.4254 -0.1540
   82SOPE  H14R 7527   0.585   1.658   5.429 -0.0220 -0.4810 -1.2489
   82SOPE  H14S 7528   0.696   1.718   5.545  1.8558  1.6145 -0.4804
   82SOPE  C215 7529   0.780   1.570   5.402 -0.0533 -0.6801 -0.0361
   82SOPE  H15R 7530   0.774   1.563   5.291  1.7110  4.5934 -0.7509
   82SOPE  H15S 7531   0.751   1.480   5.460 -1.4613 -1.4960 -1.8913
   82SOPE  C216 7532   0.927   1.608   5.424 -0.0608  0.2730 -0.0136
   82SOPE  H16R 7533   0.942   1.684   5.504 -0.4903  1.4899 -1.0543
   82SOPE  H16S 7534   0.958   1.668   5.336  0.1979 -1.5910 -1.2494
   82SOPE  C217 7535   1.018   1.486   5.448 -0.9595 -0.6152 -0.0669
   82SOPE  H17R 7536   1.100   1.476   5.373  0.7455  1.0772  1.4570
   82SOPE  H17S 7537   0.953   1.397   5.434 -1.7841 -0.1311  0.5794
   82SOPE  C218 7538   1.080   1.485   5.585  0.6582 -0.6576 -0.5293
   82SOPE  H18R 7539   1.162   1.557   5.604  0.2103 -0.5606  1.2077
   82SOPE  H18S 7540   1.117   1.381   5.600 -1.5236 -1.3254  0.5508
   82SOPE  H18T 7541   1.002   1.485   5.663  0.4513  1.1241 -0.7119
   82SOPE   C33 7542   0.268   2.535   5.908  0.2485 -0.3559  0.1127
   82SOPE   H3X 7543   0.352   2.606   5.889  0.5395 -0.8066 -0.3175
   82SOPE   H3Y 7544   0.187   2.596   5.952  1.7711  1.1938  0.8549
   82SOPE   C34 7545   0.225   2.452   5.783 -1.0690  0.4425  0.0527
   82SOPE   H4X 7546   0.134   2.487   5.731 -0.1156  1.9407 -0.6630
   82SOPE   H4Y 7547   0.212   2.347   5.816  2.3413 -0.3699 -0.7816
   82SOPE   C35 7548   0.345   2.450   5.681 -0.3702 -1.1884 -0.0611
   82SOPE   H5X 7549   0.304   2.385   5.601  2.5845 -0.7168 -2.1209
   82SOPE   H5Y 7550   0.435   2.401   5.725 -0.1276 -1.3137 -0.6867
   82SOPE   C36 7551   0.374   2.584   5.615  0.3090 -0.7646  0.3435
   82SOPE   H6X 7552   0.415   2.660   5.685 -0.0100  1.4338 -1.7286
   82SOPE   H6Y 7553   0.284   2.635   5.575  0.5160 -1.1108 -0.5796
   82SOPE   C37 7554   0.481   2.579   5.508 -0.5347 -0.6099  0.3734
   82SOPE   H7X 7555   0.578   2.538   5.544  1.8288  2.9454 -1.2753
   82SOPE   H7Y 7556   0.508   2.684   5.481 -1.0569 -1.1750 -2.6955
   82SOPE   C38 7557   0.436   2.514   5.379 -0.2397 -0.4205  0.1675
   82SOPE   H8X 7558   0.341   2.561   5.346  0.9356  1.0791 -1.3445
   82SOPE   H8Y 7559   0.419   2.408   5.408  2.0810 -1.0484 -0.4924
   82SOPE   C39 7560   0.543   2.531   5.263  0.0274  0.3758  0.4696
   82SOPE   H9X 7561   0.639   2.495   5.305  0.8655  1.4976 -0.4267
   82SOPE   H9Y 7562   0.550   2.642   5.257  1.1540  0.3737  1.4893
   82SOPE  C310 7563   0.513   2.456   5.132 -0.4358 -0.2028 -0.1216
   82SOPE  H10X 7564   0.413   2.487   5.094 -0.3577  1.2913  0.8218
   82SOPE  H10Y 7565   0.508   2.347   5.156 -0.3567 -0.3801 -0.8917
   82SOPE  C311 7566   0.629   2.490   5.032 -0.4708 -0.5435  0.2724
   82SOPE  H11X 7567   0.725   2.439   5.054 -0.7781 -1.5133 -0.5974
   82SOPE  H11Y 7568   0.639   2.600   5.043 -1.8739 -0.4553  0.9175
   82SOPE  C312 7569   0.594   2.459   4.884  0.9814  0.6647  0.8940
   82SOPE  H12X 7570   0.525   2.535   4.840 -0.5144  0.1863  2.3491
   82SOPE  H12Y 7571   0.554   2.356   4.890  0.9019  0.6271 -0.0265
   82SOPE  C313 7572   0.719   2.465   4.790  0.4614 -0.1438  0.0961
   82SOPE  H13X 7573   0.796   2.388   4.812 -0.6399 -1.1301  0.6390
   82SOPE  H13Y 7574   0.770   2.563   4.793 -1.1829  0.8227 -1.2095
   82SOPE  C314 7575   0.686   2.448   4.640 -0.0882  0.3944  0.0351
   82SOPE  H14X 7576   0.783   2.477   4.593  0.6296 -1.3497  0.3638
   82SOPE  H14Y 7577   0.599   2.505   4.602  0.5438  1.3230 -0.0470
   82SOPE  C315 7578   0.653   2.293   4.612  0.4475 -0.1746 -0.0490
   82SOPE  H15X 7579   0.556   2.281   4.665 -0.6671  1.7330 -1.4993
   82SOPE  H15Y 7580   0.734   2.241   4.667  0.5328 -0.2837 -0.2751
   82SOPE  C316 7581   0.638   2.250   4.466 -0.0673 -0.6295 -0.3910
   82SOPE  H16X 7582   0.729   2.278   4.409  0.8419  1.1025  1.7599
   82SOPE  H16Y 7583   0.557   2.314   4.426 -0.2887  0.3544  1.4943
   82SOPE  C317 7584   0.601   2.097   4.456  0.0185  0.3561  0.7607
   82SOPE  H17X 7585   0.496   2.090   4.491 -0.0699  0.8744  0.6065
   82SOPE  H17Y 7586   0.659   2.047   4.537 -2.8086 -1.5084  1.7856
   82SOPE  C318 7587   0.618   2.038   4.316 -1.6909 -0.5418  0.5906
   82SOPE  H18X 7588   0.727   2.029   4.296 -2.0122 -2.3505 -0.5819
   82SOPE  H18Y 7589   0.582   2.114   4.243  0.4682 -1.3695 -1.4705
   82SOPE  H18Z 7590   0.569   1.939   4.302 -1.4507 -0.5344 -0.3757
   83SOPE     N 7591   3.368   2.260   2.305  0.0493 -0.0782 -0.2752
   83SOPE   HN1 7592   3.406   2.338   2.249  1.5557 -0.1267  0.6380
   83SOPE   HN2 7593   3.443   2.193   2.331  1.0170  0.4806 -1.5463
   83SOPE   HN3 7594   3.294   2.206   2.255 -0.2244 -1.1094  1.1727
   83SOPE   C12 7595   3.308   2.323   2.425 -0.1045 -0.1307  0.3434
   83SOPE  H12A 7596   3.292   2.236   2.491  0.9609  0.1111  0.9401
   83SOPE  H12B 7597   3.214   2.372   2.390  1.1950  2.8026  0.5884
   83SOPE   C11 7598   3.405   2.426   2.483  0.4710 -0.1724 -0.0609
   83SOPE  H11A 7599   3.503   2.376   2.498 -0.8036 -2.6954  0.3520
   83SOPE  H11B 7600   3.376   2.461   2.584 -2.3266  0.5131 -1.0205
   83SOPE     P 7601   3.543   2.621   2.371 -0.1666 -0.0050  0.6316
   83SOPE   O13 7602   3.513   2.729   2.276  0.1540  0.8894  0.6459
   83SOPE   O14 7603   3.644   2.514   2.325  0.6881  0.1709  0.4007
   83SOPE   O12 7604   3.405   2.546   2.395 -0.3296 -0.1105 -0.8415
   83SOPE   O11 7605   3.575   2.674   2.509  0.0222  0.2325 -0.0284
   83SOPE    C1 7606   3.481   2.746   2.586 -0.1310  0.3105 -0.2841
   83SOPE    HA 7607   3.415   2.679   2.646  0.4235  0.6250  0.7017
   83SOPE    HB 7608   3.416   2.810   2.523  0.8469 -1.0057 -2.7491
   83SOPE    C2 7609   3.558   2.819   2.699  0.2712 -0.0916  0.0201
   83SOPE    HS 7610   3.602   2.912   2.657 -1.0700  0.9880  0.9164
   83SOPE   O21 7611   3.651   2.731   2.768  0.1243 -0.3425  0.3894
   83SOPE   C21 7612   3.751   2.789   2.819 -0.2592  0.5916  0.0017
   83SOPE   O22 7613   3.788   2.904   2.801  0.9166 -0.1858  0.4357
   83SOPE   C22 7614   3.810   2.696   2.929  0.3072  0.3324  0.4293
   83SOPE   H2R 7615   3.908   2.654   2.898  0.5311 -0.2168  1.8245
   83SOPE   H2S 7616   3.741   2.610   2.937  2.2444 -1.3574 -0.2368
   83SOPE    C3 7617   3.463   2.875   2.808  0.3065 -0.0844  0.2987
   83SOPE    HX 7618   3.432   2.785   2.866  0.0908  0.1219  0.5070
   83SOPE    HY 7619   3.380   2.917   2.749 -0.5634 -2.1960 -0.0553
   83SOPE   O31 7620   3.515   2.983   2.889  0.4623 -0.0445 -0.2773
   83SOPE   C31 7621   3.423   3.028   2.981  0.1019  0.1785 -0.3771
   83SOPE   O32 7622   3.309   2.987   2.993 -0.0644  0.5505 -0.4632
   83SOPE   C32 7623   3.488   3.134   3.077  0.3032  0.1572  0.6120
   83SOPE   H2X 7624   3.563   3.182   3.010 -0.6898 -0.6791 -1.1761
   83SOPE   H2Y 7625   3.536   3.080   3.161 -1.3151  1.6717  2.6141
   83SOPE   C23 7626   3.836   2.771   3.062 -0.3393  0.1132 -0.1841
   83SOPE   H3R 7627   3.872   2.876   3.056  1.1536 -0.1288  2.9211
   83SOPE   H3S 7628   3.922   2.716   3.107 -0.2636  1.1445  0.9799
   83SOPE   C24 7629   3.722   2.752   3.160 -0.4986  0.0339 -0.6504
   83SOPE   H4R 7630   3.635   2.818   3.136  0.4863  0.9927 -1.6859
   83SOPE   H4S 7631   3.680   2.649   3.156 -0.7092  0.0694  0.4093
   83SOPE   C25 7632   3.764   2.788   3.304  0.2769  0.6555 -0.0338
   83SOPE   H5R 7633   3.827   2.704   3.341  1.3379  0.8573 -1.3104
   83SOPE   H5S 7634   3.828   2.879   3.308 -0.2343  1.0212 -0.0804
   83SOPE   C26 7635   3.649   2.805   3.395  0.4937 -0.3552  0.0703
   83SOPE   H6R 7636   3.592   2.900   3.385  0.0235 -0.6851 -0.4120
   83SOPE   H6S 7637   3.574   2.723   3.386  0.3783 -0.3822  1.1881
   83SOPE   C27 7638   3.683   2.816   3.542 -0.2258 -0.3118  0.3119
   83SOPE   H7R 7639   3.587   2.835   3.596  0.3727  0.3611  1.1548
   83SOPE   H7S 7640   3.716   2.713   3.567  0.0482 -0.6836 -1.4527
   83SOPE   C28 7641   3.775   2.929   3.589 -0.2004  0.0405  0.4553
   83SOPE   H8R 7642   3.877   2.905   3.550 -0.3723 -0.0758  0.0736
   83SOPE   H8S 7643   3.749   3.029   3.547  0.8978  0.6823  1.2396
   83SOPE   C29 7644   3.782   2.937   3.740 -0.3991  0.5501  1.0797
   83SOPE   H91 7645   3.861   2.880   3.791 -1.0908 -0.4838  1.0252
   83SOPE  C210 7646   3.723   3.028   3.819 -0.7090  0.2786 -0.2456
   83SOPE  H101 7647   3.736   3.026   3.928 -2.4334 -0.0085 -0.0169
   83SOPE  C211 7648   3.624   3.132   3.771  0.5138 -0.1956 -0.5884
   83SOPE  H11R 7649   3.527   3.078   3.759 -0.4877  1.9005 -2.7178
   83SOPE  H11S 7650   3.656   3.170   3.671  0.2911 -1.8712 -1.3353
   83SOPE  C212 7651   3.591   3.254   3.864  0.4692  0.4576  0.1027
   83SOPE  H12R 7652   3.511   3.323   3.831 -0.4284  1.1703  3.4277
   83SOPE  H12S 7653   3.681   3.319   3.858  1.5163 -0.9116  0.2492
   83SOPE  C213 7654   3.562   3.215   4.014 -0.3236 -0.0137  0.5046
   83SOPE  H13R 7655   3.631   3.138   4.056  1.1727  1.5452  1.0374
   83SOPE  H13S 7656   3.460   3.169   4.014 -0.5547  0.4474 -1.5125
   83SOPE  C214 7657   3.562   3.342   4.102 -0.4130  0.0245  0.0005
   83SOPE  H14R 7658   3.488   3.421   4.079 -1.5731 -1.5117 -1.8016
   83SOPE  H14S 7659   3.666   3.382   4.093 -0.2464 -0.7363 -1.9809
   83SOPE  C215 7660   3.530   3.315   4.247 -0.2080 -0.0100  0.4526
   83SOPE  H15R 7661   3.600   3.244   4.296  1.4535 -0.1643 -1.9735
   83SOPE  H15S 7662   3.434   3.260   4.248  0.4999 -1.6141 -3.2407
   83SOPE  C216 7663   3.515   3.445   4.335  0.6082  0.4641 -0.6059
   83SOPE  H16R 7664   3.445   3.517   4.288  0.8245 -1.0154 -3.3755
   83SOPE  H16S 7665   3.615   3.493   4.339  1.1540 -0.6935  0.2041
   83SOPE  C217 7666   3.476   3.402   4.479  0.0927 -0.0507  1.0533
   83SOPE  H17R 7667   3.557   3.335   4.515 -0.4609 -0.3452  1.7959
   83SOPE  H17S 7668   3.392   3.331   4.466  1.6724 -1.8609  0.3968
   83SOPE  C218 7669   3.459   3.514   4.581  0.3148 -0.2943 -0.1829
   83SOPE  H18R 7670   3.555   3.564   4.607 -0.7472  1.5898  0.2984
   83SOPE  H18S 7671   3.421   3.468   4.675  1.2230 -3.3641 -1.1759
   83SOPE  H18T 7672   3.382   3.587   4.548 -1.5429 -2.0477  0.0364
   83SOPE   C33 7673   3.372   3.236   3.129  0.0209 -0.1581  0.5947
   83SOPE   H3X 7674   3.295   3.166   3.167 -0.1114 -0.4881 -0.2705
   83SOPE   H3Y 7675   3.328   3.295   3.046  1.8480  0.3867 -0.0247
   83SOPE   C34 7676   3.419   3.327   3.243 -0.3422 -0.5288 -0.3443
   83SOPE   H4X 7677   3.344   3.376   3.308  0.0961 -0.3511  0.0355
   83SOPE   H4Y 7678   3.493   3.393   3.194  0.4759 -1.7531 -0.8281
   83SOPE   C35 7679   3.511   3.256   3.347 -0.4604 -0.2177  0.0073
   83SOPE   H5X 7680   3.555   3.332   3.416 -1.2493 -0.1259  0.4158
   83SOPE   H5Y 7681   3.602   3.218   3.295 -0.7548  0.6906 -1.2033
   83SOPE   C36 7682   3.437   3.142   3.423 -0.0462 -0.1116 -0.0029
   83SOPE   H6X 7683   3.516   3.107   3.493  0.9125 -0.3156 -1.1561
   83SOPE   H6Y 7684   3.431   3.060   3.348 -0.6650  0.8637 -1.0485
   83SOPE   C37 7685   3.310   3.183   3.491 -0.0099  0.1736  0.0144
   83SOPE   H7X 7686   3.243   3.215   3.409  1.1379  1.3793 -0.4831
   83SOPE   H7Y 7687   3.340   3.278   3.539  2.3378 -0.2851 -0.4275
   83SOPE   C38 7688   3.240   3.081   3.586 -0.5379  0.0606  0.5968
   83SOPE   H8X 7689   3.304   3.074   3.676  0.8864  0.4782 -0.3477
   83SOPE   H8Y 7690   3.246   2.977   3.547  0.6423  0.8623 -1.5771
   83SOPE   C39 7691   3.106   3.138   3.629 -0.0351 -0.3010  0.0519
   83SOPE   H9X 7692   3.040   3.140   3.540 -0.1803 -2.3282  0.0589
   83SOPE   H9Y 7693   3.127   3.242   3.659 -0.7795 -0.1472  0.0642
   83SOPE  C310 7694   3.025   3.050   3.729  0.6452 -0.5830  0.1099
   83SOPE  H10X 7695   3.047   2.948   3.691 -0.7300  0.2837 -3.3749
   83SOPE  H10Y 7696   2.917   3.034   3.712  0.9190 -3.9075  0.8138
   83SOPE  C311 7697   3.058   3.084   3.869  0.0415 -0.1322 -1.0195
   83SOPE  H11X 7698   3.008   3.177   3.903 -0.5935 -0.5655 -0.7490
   83SOPE  H11Y 7699   3.167   3.106   3.866 -0.0980  0.5166 -2.2143
   83SOPE  C312 7700   3.026   2.969   3.967 -0.7886 -0.3483 -0.1702
   83SOPE  H12X 7701   2.931   2.915   3.952 -1.2285 -0.3906  2.3297
   83SOPE  H12Y 7702   3.009   3.029   4.059 -2.3059  0.1407 -0.7369
   83SOPE  C313 7703   3.143   2.862   3.977 -0.4749 -0.1405 -0.5346
   83SOPE  H13X 7704   3.241   2.910   4.000  1.5176 -3.1772 -2.0972
   83SOPE  H13Y 7705   3.155   2.823   3.874  1.4011 -0.9938 -0.0409
   83SOPE  C314 7706   3.112   2.757   4.077 -0.0141  0.3557  0.8426
   83SOPE  H14X 7707   3.208   2.717   4.115 -0.4835  0.2939  2.0206
   83SOPE  H14Y 7708   3.054   2.683   4.019  0.4500 -1.0087  2.0654
   83SOPE  C315 7709   3.029   2.798   4.199  0.3013  0.3873 -1.0462
   83SOPE  H15X 7710   2.928   2.833   4.168  0.2636  1.3806  0.1149
   83SOPE  H15Y 7711   3.085   2.877   4.254 -0.5224  0.7861 -0.7687
   83SOPE  C316 7712   3.008   2.681   4.295  0.3943  0.1863 -0.3589
   83SOPE  H16X 7713   2.982   2.587   4.241 -1.0636 -1.7124  3.2800
   83SOPE  H16Y 7714   2.930   2.708   4.369  0.9275  1.7876 -0.3464
   83SOPE  C317 7715   3.137   2.649   4.374  1.0285 -0.2064 -0.3424
   83SOPE  H17X 7716   3.173   2.734   4.435 -1.1754  0.0059  0.7218
   83SOPE  H17Y 7717   3.218   2.620   4.303  0.1329  3.1246 -2.9935
   83SOPE  C318 7718   3.109   2.526   4.461  0.4768  0.3785 -0.4020
   83SOPE  H18X 7719   3.193   2.524   4.534  0.3271 -1.2753 -0.2443
   83SOPE  H18Y 7720   3.107   2.429   4.407 -0.3467  0.0762  0.1611
   83SOPE  H18Z 7721   3.012   2.544   4.512  1.1086  0.6034  0.7646
   84SOPE     N 7722   0.230   0.860   2.482 -0.0180 -0.1592 -0.4009
   84SOPE   HN1 7723   0.188   0.914   2.559  0.3966 -2.0036  1.2102
   84SOPE   HN2 7724   0.149   0.831   2.423 -0.4101 -1.2352  0.6264
   84SOPE   HN3 7725   0.286   0.777   2.511  0.0693  0.0473  0.0171
   84SOPE   C12 7726   0.308   0.946   2.398 -0.5360 -0.3393 -0.1211
   84SOPE  H12A 7727   0.243   0.996   2.324  0.4579 -1.4385 -1.8282
   84SOPE  H12B 7728   0.384   0.880   2.351  0.7155  0.9046  0.0937
   84SOPE   C11 7729   0.383   1.057   2.476  0.0859  1.2632 -0.3056
   84SOPE  H11A 7730   0.296   1.103   2.526 -0.1686 -1.0852  1.6313
   84SOPE  H11B 7731   0.436   1.126   2.407  3.2566  0.5464  1.1743
   84SOPE     P 7732   0.603   1.068   2.623  0.2979 -0.3266 -0.0060
   84SOPE   O13 7733   0.574   1.216   2.630 -0.4108  0.2316  0.2276
   84SOPE   O14 7734   0.700   1.018   2.522 -0.2170 -0.2663  0.2238
   84SOPE   O12 7735   0.463   0.996   2.580 -0.5828  0.6385  0.0156
   84SOPE   O11 7736   0.638   1.010   2.760 -0.2031  0.6567 -0.4549
   84SOPE    C1 7737   0.635   0.869   2.773  0.3139  0.1303 -0.5421
   84SOPE    HA 7738   0.642   0.813   2.677 -0.3187  0.4220 -0.7651
   84SOPE    HB 7739   0.537   0.844   2.819  0.4622  0.7707  0.1345
   84SOPE    C2 7740   0.755   0.828   2.869  0.2423  0.1395  0.1649
   84SOPE    HS 7741   0.737   0.720   2.883 -2.5451  0.8776  3.7383
   84SOPE   O21 7742   0.737   0.896   2.992  0.1438 -0.3692 -0.4889
   84SOPE   C21 7743   0.636   0.850   3.070  0.0981  0.0450  0.3050
   84SOPE   O22 7744   0.576   0.744   3.050 -0.4515  0.0264  0.0437
   84SOPE   C22 7745   0.622   0.949   3.187  0.1336 -0.2170 -0.4160
   84SOPE   H2R 7746   0.636   1.054   3.154  0.5885 -0.1042  0.1049
   84SOPE   H2S 7747   0.705   0.921   3.257 -0.3194 -0.0895  0.1776
   84SOPE    C3 7748   0.892   0.838   2.804  0.4750  0.0085 -0.0818
   84SOPE    HX 7749   0.908   0.943   2.771  0.7678  0.8941  2.6819
   84SOPE    HY 7750   0.879   0.789   2.705  0.8625 -0.3622  0.0472
   84SOPE   O31 7751   1.000   0.787   2.888  0.6171  0.0277 -0.7449
   84SOPE   C31 7752   1.023   0.658   2.870 -0.3464  0.6942  0.1268
   84SOPE   O32 7753   0.983   0.586   2.781 -0.2015 -0.0574  0.2278
   84SOPE   C32 7754   1.117   0.618   2.988  0.0722  0.1880 -0.3156
   84SOPE   H2X 7755   1.170   0.710   3.023  0.3694  0.5032 -1.5668
   84SOPE   H2Y 7756   1.196   0.553   2.946  0.2614 -0.3035  0.7757
   84SOPE   C23 7757   0.489   0.947   3.266  0.5452  0.0188 -0.4730
   84SOPE   H3R 7758   0.459   0.845   3.296 -1.1818  0.8907  0.9829
   84SOPE   H3S 7759   0.418   0.995   3.195  0.2705  1.0324  0.4511
   84SOPE   C24 7760   0.473   1.041   3.387 -0.2671  0.2213  0.3418
   84SOPE   H4R 7761   0.545   1.020   3.468  1.0028  1.1987 -0.4914
   84SOPE   H4S 7762   0.486   1.149   3.361 -0.7795  0.6856  1.8855
   84SOPE   C25 7763   0.328   1.021   3.450 -0.1823 -0.1418 -0.2318
   84SOPE   H5R 7764   0.307   1.116   3.505  1.2895 -0.4471  0.8969
   84SOPE   H5S 7765   0.248   1.002   3.374 -0.0464 -0.9292 -0.1805
   84SOPE   C26 7766   0.320   0.900   3.547  0.1157  0.4668  0.3642
   84SOPE   H6R 7767   0.306   0.809   3.485 -1.5700  2.1608 -1.9477
   84SOPE   H6S 7768   0.412   0.896   3.608  0.5562  1.0816 -0.2430
   84SOPE   C27 7769   0.193   0.899   3.632 -0.0642 -0.2937  0.0487
   84SOPE   H7R 7770   0.175   1.001   3.672 -2.0162 -0.5620 -0.0738
   84SOPE   H7S 7771   0.110   0.885   3.560 -1.2294  1.2555  1.0441
   84SOPE   C28 7772   0.188   0.789   3.731  0.3374  1.0465  0.4818
   84SOPE   H8R 7773   0.219   0.691   3.689  0.8741  1.5849 -0.3990
   84SOPE   H8S 7774   0.247   0.800   3.825 -1.4954  1.3063  1.6549
   84SOPE   C29 7775   0.039   0.774   3.777  0.0843 -0.0237  0.1167
   84SOPE   H91 7776  -0.037   0.745   3.703 -0.0330 -0.4732  0.4079
   84SOPE  C210 7777  -0.014   0.820   3.893 -0.2022  0.2812 -0.2874
   84SOPE  H101 7778  -0.121   0.801   3.911 -0.1158  1.3884  1.5327
   84SOPE  C211 7779   0.076   0.867   4.010 -0.5813 -0.1392 -0.3521
   84SOPE  H11R 7780   0.073   0.978   4.024  0.6301 -0.4697  3.5520
   84SOPE  H11S 7781   0.184   0.849   3.995 -0.6271 -1.7745  1.0053
   84SOPE  C212 7782   0.048   0.794   4.142  0.3702 -0.5431 -0.2298
   84SOPE  H12R 7783   0.065   0.687   4.116  1.7257 -0.5738  0.6817
   84SOPE  H12S 7784  -0.058   0.813   4.169  0.3841  2.3342 -1.8583
   84SOPE  C213 7785   0.134   0.854   4.255 -0.0701 -0.2735 -0.6364
   84SOPE  H13R 7786   0.141   0.965   4.246  2.2102 -0.4639 -2.0965
   84SOPE  H13S 7787   0.234   0.805   4.249 -0.6882 -1.6999  0.1758
   84SOPE  C214 7788   0.076   0.824   4.396 -0.3914 -0.4472 -0.3792
   84SOPE  H14R 7789   0.143   0.866   4.474 -1.9227  1.0291  0.2213
   84SOPE  H14S 7790   0.087   0.717   4.423 -2.1777  0.4641  5.2438
   84SOPE  C215 7791  -0.069   0.872   4.425  0.2848  0.6313  1.0360
   84SOPE  H15R 7792  -0.093   0.831   4.525 -2.8843 -2.0411 -0.6156
   84SOPE  H15S 7793  -0.142   0.813   4.364  1.1264 -0.3542  0.9633
   84SOPE  C216 7794  -0.088   1.026   4.435 -0.3447  0.8134 -0.4187
   84SOPE  H16R 7795  -0.012   1.059   4.509 -0.3601  0.5013 -0.2640
   84SOPE  H16S 7796  -0.190   1.045   4.473 -0.3414  1.8634 -0.8933
   84SOPE  C217 7797  -0.070   1.110   4.304 -0.0278 -0.0897 -0.2727
   84SOPE  H17R 7798  -0.074   1.052   4.210  3.3641 -0.9111 -0.0123
   84SOPE  H17S 7799   0.031   1.155   4.300  1.2208 -2.8449 -2.5440
   84SOPE  C218 7800  -0.168   1.226   4.283  0.2751 -0.4850 -0.3451
   84SOPE  H18R 7801  -0.148   1.269   4.183 -1.3492 -0.8729 -0.8635
   84SOPE  H18S 7802  -0.161   1.310   4.356  0.7450  3.2950 -4.3229
   84SOPE  H18T 7803  -0.268   1.179   4.287  0.4763 -0.9262 -0.4661
   84SOPE   C33 7804   1.042   0.554   3.104 -0.8623  0.1516  0.2416
   84SOPE   H3X 7805   1.126   0.520   3.169 -0.9725  0.8363  0.7578
   84SOPE   H3Y 7806   0.982   0.473   3.057 -0.1141  0.3586 -1.1193
   84SOPE   C34 7807   0.953   0.652   3.184  0.3118  1.2411 -0.2791
   84SOPE   H4X 7808   0.867   0.686   3.122  0.7444  1.2489 -0.8776
   84SOPE   H4Y 7809   1.009   0.745   3.207  2.0372 -0.0482  1.0343
   84SOPE   C35 7810   0.898   0.585   3.313  0.0556  0.3023 -0.5036
   84SOPE   H5X 7811   0.873   0.485   3.272  0.8813 -0.1411  0.0365
   84SOPE   H5Y 7812   0.812   0.642   3.353 -0.6736 -1.0223 -0.1289
   84SOPE   C36 7813   1.006   0.589   3.427 -0.8441 -0.2913 -0.0154
   84SOPE   H6X 7814   1.038   0.693   3.447  2.3240 -0.9964 -0.8384
   84SOPE   H6Y 7815   1.097   0.534   3.395  0.7532  0.2252  3.2374
   84SOPE   C37 7816   0.966   0.513   3.553 -0.0755  0.6055  0.0338
   84SOPE   H7X 7817   0.936   0.409   3.529 -0.9718  0.9966 -0.5945
   84SOPE   H7Y 7818   0.880   0.569   3.597 -0.3676 -0.0735  0.3568
   84SOPE   C38 7819   1.082   0.509   3.646  0.4865 -0.3278 -0.7104
   84SOPE   H8X 7820   1.102   0.613   3.679 -0.5881  0.0230 -1.1176
   84SOPE   H8Y 7821   1.171   0.471   3.591  1.8932  0.4896  0.9263
   84SOPE   C39 7822   1.053   0.427   3.775  0.1265  0.6162  0.2681
   84SOPE   H9X 7823   1.145   0.415   3.836 -0.5721  0.9868  1.4156
   84SOPE   H9Y 7824   1.031   0.324   3.741 -1.1561  0.8369  0.4020
   84SOPE  C310 7825   0.929   0.490   3.851  0.4828 -0.1111  1.0182
   84SOPE  H10X 7826   0.839   0.464   3.790  0.4597  3.2995 -0.6579
   84SOPE  H10Y 7827   0.921   0.600   3.836  0.2163 -0.1617  0.7564
   84SOPE  C311 7828   0.929   0.464   4.001 -0.3797 -0.6191 -0.3764
   84SOPE  H11X 7829   1.021   0.514   4.042 -2.0808  2.0753  0.4492
   84SOPE  H11Y 7830   0.926   0.355   4.022 -1.4377 -0.2569  1.6238
   84SOPE  C312 7831   0.810   0.525   4.073 -0.3357 -0.8781 -0.0263
   84SOPE  H12X 7832   0.711   0.485   4.042 -1.3113  1.9045 -0.7725
   84SOPE  H12Y 7833   0.804   0.632   4.047  0.0266 -0.6291  0.8560
   84SOPE  C313 7834   0.805   0.517   4.225  0.0714  0.3780 -0.2208
   84SOPE  H13X 7835   0.703   0.551   4.253  0.6449  0.9017  1.3391
   84SOPE  H13Y 7836   0.876   0.592   4.267  1.4522 -0.0118 -1.7702
   84SOPE  C314 7837   0.831   0.378   4.287 -0.5444 -0.4983 -0.6673
   84SOPE  H14X 7838   0.941   0.362   4.298 -0.4636  1.0288  1.3478
   84SOPE  H14Y 7839   0.789   0.300   4.221 -0.5240 -0.8889 -0.2298
   84SOPE  C315 7840   0.769   0.378   4.425 -0.2535 -0.1442 -0.9280
   84SOPE  H15X 7841   0.659   0.395   4.420  0.2570  4.4713 -0.3108
   84SOPE  H15Y 7842   0.802   0.468   4.481  0.2276 -0.8069 -0.1188
   84SOPE  C316 7843   0.804   0.253   4.508  0.2611  0.7570 -0.0731
   84SOPE  H16X 7844   0.915   0.249   4.504  0.5700  2.5720  3.0881
   84SOPE  H16Y 7845   0.753   0.162   4.470 -0.4462  0.8487  0.6461
   84SOPE  C317 7846   0.781   0.272   4.661  0.5121 -0.5039  0.1789
   84SOPE  H17X 7847   0.686   0.327   4.677  0.5462  0.0387 -1.2860
   84SOPE  H17Y 7848   0.857   0.349   4.684  0.5667  0.6925 -3.3155
   84SOPE  C318 7849   0.777   0.150   4.747 -0.1841 -0.1181 -0.1962
   84SOPE  H18X 7850   0.678   0.099   4.741 -0.7079  0.8454 -0.0255
   84SOPE  H18Y 7851   0.791   0.185   4.851 -1.2536 -0.1487 -0.0338
   84SOPE  H18Z 7852   0.867   0.087   4.732 -0.8363 -1.4852  1.3402
   85SOPE     N 7853   4.581   5.343   2.590 -0.2318 -0.3023  0.3281
   85SOPE   HN1 7854   4.548   5.329   2.687 -1.7016 -1.7924 -0.3434
   85SOPE   HN2 7855   4.556   5.254   2.543  0.3010  0.2507 -1.0533
   85SOPE   HN3 7856   4.684   5.354   2.577 -0.1639 -1.4194 -0.1671
   85SOPE   C12 7857   4.503   5.466   2.539  0.1761 -0.3950  0.1261
   85SOPE  H12A 7858   4.529   5.475   2.431  1.3662 -0.5171  0.3836
   85SOPE  H12B 7859   4.541   5.555   2.594 -2.3909  0.5460  0.4960
   85SOPE   C11 7860   4.350   5.444   2.562 -0.6302 -0.0296  0.3151
   85SOPE  H11A 7861   4.326   5.441   2.671 -0.8251  1.3255  0.3285
   85SOPE  H11B 7862   4.317   5.348   2.518 -0.9722  0.6624 -0.9879
   85SOPE     P 7863   4.132   5.578   2.518  0.3721  0.1740  0.2802
   85SOPE   O13 7864   4.060   5.448   2.525  0.5072 -0.6206  0.3412
   85SOPE   O14 7865   4.095   5.674   2.406  0.0377  0.2439  0.4893
   85SOPE   O12 7866   4.281   5.552   2.504 -0.5998 -0.2352  0.3354
   85SOPE   O11 7867   4.111   5.656   2.652  0.0751  0.4789  1.1219
   85SOPE    C1 7868   4.206   5.717   2.737 -0.5521 -0.0725 -0.0017
   85SOPE    HA 7869   4.221   5.825   2.717 -0.4727  0.9336  4.4479
   85SOPE    HB 7870   4.305   5.666   2.732 -0.2669  0.1979  2.1606
   85SOPE    C2 7871   4.151   5.722   2.888 -0.0517 -1.0145 -0.3705
   85SOPE    HS 7872   4.240   5.747   2.949 -1.3633 -0.9058  1.5950
   85SOPE   O21 7873   4.103   5.595   2.937 -0.4240  0.0304 -0.3360
   85SOPE   C21 7874   4.197   5.498   2.940  0.2368 -0.2162 -0.3584
   85SOPE   O22 7875   4.320   5.511   2.936  0.5919 -0.1201  0.3588
   85SOPE   C22 7876   4.122   5.363   2.949 -0.0553  0.0016  0.3140
   85SOPE   H2R 7877   4.181   5.308   2.873  1.6932  1.3562  0.6166
   85SOPE   H2S 7878   4.024   5.367   2.897 -0.1897  2.2634  0.6150
   85SOPE    C3 7879   4.036   5.830   2.909 -0.2371  0.1392  0.7126
   85SOPE    HX 7880   3.949   5.806   2.843 -0.5693  0.6836  0.9507
   85SOPE    HY 7881   4.073   5.925   2.864  0.7836 -1.2516 -1.5960
   85SOPE   O31 7882   4.014   5.855   3.051  0.5107 -0.6928  0.3720
   85SOPE   C31 7883   3.923   5.775   3.101  0.5874  0.1172 -0.4604
   85SOPE   O32 7884   3.862   5.687   3.050 -0.1875  0.2202 -0.0003
   85SOPE   C32 7885   3.909   5.810   3.247  0.1021  0.2342  0.0038
   85SOPE   H2X 7886   3.870   5.913   3.262  1.3303  0.8320 -0.8201
   85SOPE   H2Y 7887   4.006   5.805   3.301 -0.3471  0.1441  0.8229
   85SOPE   C23 7888   4.152   5.300   3.084  0.7157 -0.7734 -0.5000
   85SOPE   H3R 7889   4.258   5.269   3.097  0.4860 -0.6974  2.3054
   85SOPE   H3S 7890   4.104   5.201   3.097  1.4076 -0.8113  2.9598
   85SOPE   C24 7891   4.118   5.393   3.204  0.8046 -0.0659  0.0863
   85SOPE   H4R 7892   4.181   5.484   3.197  3.7156 -2.0399 -1.2527
   85SOPE   H4S 7893   4.015   5.435   3.194  0.6383 -0.5354 -0.2530
   85SOPE   C25 7894   4.126   5.313   3.338  0.5215  0.0373  0.3314
   85SOPE   H5R 7895   4.069   5.218   3.334  0.2245  0.1298  2.0020
   85SOPE   H5S 7896   4.231   5.279   3.349  1.1976  1.5223 -1.0873
   85SOPE   C26 7897   4.081   5.387   3.460 -0.0369 -0.3564 -0.4216
   85SOPE   H6R 7898   4.154   5.466   3.488  2.1868 -1.8356 -1.7953
   85SOPE   H6S 7899   3.977   5.428   3.457 -0.3494 -1.0307  0.5423
   85SOPE   C27 7900   4.079   5.279   3.574 -0.2197  0.3473 -0.3087
   85SOPE   H7R 7901   4.018   5.191   3.549  0.6745 -0.4166  0.1097
   85SOPE   H7S 7902   4.182   5.237   3.581 -0.6528 -0.4735  1.8837
   85SOPE   C28 7903   4.019   5.335   3.703  0.0529  0.1296 -0.0609
   85SOPE   H8R 7904   4.078   5.421   3.741  2.7299 -2.2161  1.5416
   85SOPE   H8S 7905   3.913   5.361   3.680 -0.7956 -2.5646  0.4330
   85SOPE   C29 7906   4.034   5.226   3.810  0.6233  0.4574 -0.2909
   85SOPE   H91 7907   3.945   5.177   3.850  1.4595  0.6573  1.9566
   85SOPE  C210 7908   4.150   5.191   3.874 -0.4796 -0.2606  0.0225
   85SOPE  H101 7909   4.144   5.109   3.947  1.3720 -1.4256 -1.0547
   85SOPE  C211 7910   4.292   5.244   3.860  0.8711  0.1880 -0.2860
   85SOPE  H11R 7911   4.286   5.324   3.938 -0.4582 -1.4000  1.3404
   85SOPE  H11S 7912   4.309   5.281   3.757 -2.5793  0.0118 -1.0499
   85SOPE  C212 7913   4.395   5.145   3.911 -0.0306 -0.4550 -0.2344
   85SOPE  H12R 7914   4.496   5.186   3.890 -0.4208  1.2929  1.0255
   85SOPE  H12S 7915   4.384   5.050   3.854  2.2377 -0.9949  0.1248
   85SOPE  C213 7916   4.390   5.111   4.058  0.0338 -0.8122  0.2961
   85SOPE  H13R 7917   4.289   5.076   4.086 -0.7710  1.6814  0.8293
   85SOPE  H13S 7918   4.417   5.209   4.104  1.2720  0.2189 -2.3777
   85SOPE  C214 7919   4.487   4.998   4.096 -0.4844  0.6405 -0.0727
   85SOPE  H14R 7920   4.589   5.005   4.053  0.2047  1.3753  1.5854
   85SOPE  H14S 7921   4.468   4.897   4.054  1.9378  0.0222  0.1423
   85SOPE  C215 7922   4.495   4.973   4.248  0.0556  0.3838  0.2547
   85SOPE  H15R 7923   4.388   4.953   4.269  0.4786 -0.3952  1.8748
   85SOPE  H15S 7924   4.536   5.056   4.309 -1.9698  1.2687  0.4763
   85SOPE  C216 7925   4.555   4.838   4.298 -0.2689  0.0347  0.6345
   85SOPE  H16R 7926   4.650   4.826   4.243 -1.7582 -0.2043 -2.0715
   85SOPE  H16S 7927   4.485   4.752   4.285  0.4488 -0.4466 -0.0922
   85SOPE  C217 7928   4.572   4.851   4.453  0.6658 -0.1540  0.6599
   85SOPE  H17R 7929   4.484   4.901   4.498 -0.3229 -0.0039 -1.3331
   85SOPE  H17S 7930   4.660   4.918   4.470  2.3201 -2.3210  1.0817
   85SOPE  C218 7931   4.595   4.723   4.529  0.4183 -0.3050 -0.4079
   85SOPE  H18R 7932   4.598   4.748   4.637 -2.7655  0.4556 -0.3880
   85SOPE  H18S 7933   4.688   4.670   4.500  0.2063 -1.3813  0.7701
   85SOPE  H18T 7934   4.510   4.652   4.515 -0.5394  0.1503  2.4647
   85SOPE   C33 7935   3.804   5.720   3.318 -0.2124 -0.0992 -0.0766
   85SOPE   H3X 7936   3.828   5.612   3.304  1.3391  0.4072 -1.6472
   85SOPE   H3Y 7937   3.704   5.722   3.269 -0.8184  0.8907  1.1457
   85SOPE   C34 7938   3.790   5.758   3.466 -0.7976  0.7903 -0.5070
   85SOPE   H4X 7939   3.704   5.709   3.517 -2.1268  4.3573  0.9890
   85SOPE   H4Y 7940   3.777   5.868   3.460  1.5475  1.0782 -1.4235
   85SOPE   C35 7941   3.909   5.739   3.565 -0.1433  0.7604  0.0483
   85SOPE   H5X 7942   3.986   5.806   3.523  1.5617 -1.9603 -1.5028
   85SOPE   H5Y 7943   3.952   5.636   3.559  0.9737  0.9170  3.2679
   85SOPE   C36 7944   3.892   5.766   3.718 -0.3339  0.0421  0.3853
   85SOPE   H6X 7945   3.869   5.873   3.734 -0.0630  0.3908 -1.2875
   85SOPE   H6Y 7946   3.985   5.737   3.772 -0.7197  2.8267  2.7890
   85SOPE   C37 7947   3.786   5.680   3.796 -0.4266  0.6377  0.3386
   85SOPE   H7X 7948   3.795   5.583   3.744  0.6983  1.4330 -1.0029
   85SOPE   H7Y 7949   3.684   5.723   3.794 -0.9462 -0.5104  1.0812
   85SOPE   C38 7950   3.824   5.648   3.943 -0.3247  0.0648  0.1715
   85SOPE   H8X 7951   3.916   5.586   3.953 -0.8615 -0.6525  0.8069
   85SOPE   H8Y 7952   3.733   5.594   3.976 -2.5060  3.1892 -0.3439
   85SOPE   C39 7953   3.819   5.779   4.021 -0.3633 -0.4075 -0.2224
   85SOPE   H9X 7954   3.742   5.843   3.972 -0.4733 -0.4837 -0.1470
   85SOPE   H9Y 7955   3.913   5.839   4.016 -1.4001  1.5845  2.0060
   85SOPE  C310 7956   3.776   5.772   4.170 -0.4765 -0.3300 -0.3010
   85SOPE  H10X 7957   3.686   5.707   4.169  0.7268 -2.1137  1.1870
   85SOPE  H10Y 7958   3.751   5.873   4.210 -0.4719 -0.6466  0.5209
   85SOPE  C311 7959   3.883   5.712   4.261 -0.3412  0.3126 -0.0446
   85SOPE  H11X 7960   3.974   5.771   4.236 -1.5679  1.5739 -1.7905
   85SOPE  H11Y 7961   3.894   5.605   4.235 -0.1275  0.1626  0.6499
   85SOPE  C312 7962   3.849   5.734   4.415 -0.3276  0.0317  0.5528
   85SOPE  H12X 7963   3.742   5.706   4.422 -0.4843  0.7176  1.0088
   85SOPE  H12Y 7964   3.850   5.841   4.446 -0.2092  1.1176 -2.8299
   85SOPE  C313 7965   3.927   5.643   4.510 -0.0814 -0.1307  0.7356
   85SOPE  H13X 7966   3.959   5.550   4.458  4.1242  2.0787 -1.0449
   85SOPE  H13Y 7967   3.861   5.624   4.598 -1.3535 -1.2188 -0.4081
   85SOPE  C314 7968   4.061   5.707   4.558  0.7492 -0.0478 -0.0964
   85SOPE  H14X 7969   4.041   5.810   4.593 -3.0572 -0.5943 -0.2191
   85SOPE  H14Y 7970   4.138   5.718   4.479  1.5383 -1.4474  0.4482
   85SOPE  C315 7971   4.134   5.643   4.673  0.6209  0.3386 -0.2162
   85SOPE  H15X 7972   4.239   5.674   4.659  1.1854 -1.7944 -1.1598
   85SOPE  H15Y 7973   4.126   5.534   4.651  0.0431  0.1649  0.7710
   85SOPE  C316 7974   4.080   5.688   4.809 -0.3846  0.3506  0.4138
   85SOPE  H16X 7975   3.987   5.629   4.826  0.0236 -1.3537 -2.5373
   85SOPE  H16Y 7976   4.051   5.795   4.800 -0.2430  0.3118 -0.6913
   85SOPE  C317 7977   4.178   5.664   4.920 -0.1441  0.2692  0.1337
   85SOPE  H17X 7978   4.265   5.733   4.917 -1.6433  2.2652  0.3790
   85SOPE  H17Y 7979   4.213   5.560   4.906 -2.7280 -0.5091 -1.0875
   85SOPE  C318 7980   4.118   5.672   5.063 -0.8036  1.1256  0.3676
   85SOPE  H18X 7981   4.091   5.778   5.084  3.4638  2.0917  1.9230
   85SOPE  H18Y 7982   4.196   5.634   5.132 -0.3042  0.5710 -0.4855
   85SOPE  H18Z 7983   4.030   5.604   5.063  0.3289 -0.4559  2.3665
   86SOPE     N 7984   6.822   4.300   2.351  0.4634  0.4022  0.1608
   86SOPE   HN1 7985   6.870   4.392   2.351  0.8777  0.2049  1.3747
   86SOPE   HN2 7986   6.828   4.259   2.255 -0.9163 -2.0651  1.0430
   86SOPE   HN3 7987   6.724   4.306   2.383  0.6012 -2.2741  1.3513
   86SOPE   C12 7988   6.884   4.209   2.456  0.3854  0.2136  0.1935
   86SOPE  H12A 7989   6.994   4.203   2.444  0.3188 -0.9166  0.0830
   86SOPE  H12B 7990   6.839   4.110   2.436  1.2198 -0.0590 -0.3807
   86SOPE   C11 7991   6.857   4.253   2.601 -0.4787  0.0720  0.3059
   86SOPE  H11A 7992   6.912   4.348   2.615  0.6361 -0.6582  1.0402
   86SOPE  H11B 7993   6.905   4.181   2.670 -1.8570  0.3045  1.5723
   86SOPE     P 7994   6.633   4.167   2.687  0.0849 -0.2607 -0.4155
   86SOPE   O13 7995   6.606   4.067   2.584  0.3922 -0.5010  0.4012
   86SOPE   O14 7996   6.521   4.235   2.754  0.2990 -0.5587 -0.1853
   86SOPE   O12 7997   6.721   4.278   2.620  0.0103 -0.0293 -0.0261
   86SOPE   O11 7998   6.727   4.097   2.785 -0.2983  0.1236  0.0677
   86SOPE    C1 7999   6.766   4.169   2.905  0.3718 -0.1617  0.3232
   86SOPE    HA 8000   6.701   4.256   2.931 -2.7233 -1.5909 -1.9209
   86SOPE    HB 8001   6.875   4.190   2.906  1.0568 -3.2889  1.4787
   86SOPE    C2 8002   6.732   4.071   3.022  0.4075  0.6555  0.6910
   86SOPE    HS 8003   6.760   4.112   3.121 -0.3208 -0.3024  1.3179
   86SOPE   O21 8004   6.799   3.943   3.001  0.0154  0.3377 -0.5963
   86SOPE   C21 8005   6.934   3.945   3.010 -0.1841 -0.4409 -0.3762
   86SOPE   O22 8006   7.005   4.036   3.041  0.4231 -0.7746 -0.8096
   86SOPE   C22 8007   6.973   3.799   2.997  0.1680 -0.7065  0.1815
   86SOPE   H2R 8008   7.082   3.778   3.002  0.2551 -0.6638 -1.1235
   86SOPE   H2S 8009   6.932   3.760   2.901 -0.8347  1.5485 -0.3613
   86SOPE    C3 8010   6.579   4.043   3.041  0.5017 -0.1341  0.1297
   86SOPE    HX 8011   6.567   3.972   3.126  1.3567 -0.3882  0.0460
   86SOPE    HY 8012   6.545   3.987   2.950 -0.0481  0.6709 -0.1703
   86SOPE   O31 8013   6.514   4.176   3.061 -0.0320 -0.2653  0.3278
   86SOPE   C31 8014   6.388   4.185   3.020 -0.3902  0.2992 -0.1829
   86SOPE   O32 8015   6.319   4.092   2.999  0.7999 -0.6129 -0.2259
   86SOPE   C32 8016   6.329   4.329   3.018  0.1843 -0.5863  0.1332
   86SOPE   H2X 8017   6.233   4.322   2.963  0.4735  0.7548 -0.5799
   86SOPE   H2Y 8018   6.405   4.385   2.960  0.8515 -0.1437  1.3998
   86SOPE   C23 8019   6.908   3.714   3.104  0.2514 -0.1069 -0.0859
   86SOPE   H3R 8020   6.925   3.606   3.080 -2.4801 -1.2690  2.4679
   86SOPE   H3S 8021   6.797   3.721   3.117  0.0312  0.5863 -2.0413
   86SOPE   C24 8022   6.971   3.725   3.248  0.4107 -0.5837  0.3786
   86SOPE   H4R 8023   6.957   3.830   3.284 -1.6053 -0.3402 -0.9914
   86SOPE   H4S 8024   6.924   3.651   3.315  0.5695 -0.7654  0.2900
   86SOPE   C25 8025   7.119   3.689   3.256  0.0121  0.2110 -0.1839
   86SOPE   H5R 8026   7.134   3.584   3.221  2.6265  0.8449 -1.2737
   86SOPE   H5S 8027   7.178   3.758   3.191 -1.9162  0.5532 -1.6631
   86SOPE   C26 8028   7.176   3.710   3.398 -0.6633  0.2811 -0.9364
   86SOPE   H6R 8029   7.103   3.658   3.464  1.4323 -2.4018 -0.5502
   86SOPE   H6S 8030   7.263   3.641   3.400  0.5218  1.7390  0.5283
   86SOPE   C27 8031   7.214   3.857   3.440 -0.2045  0.9300 -0.0524
   86SOPE   H7R 8032   7.294   3.899   3.375 -1.1081  0.5472 -1.4669
   86SOPE   H7S 8033   7.130   3.930   3.444 -0.9519  0.0472  2.1392
   86SOPE   C28 8034   7.282   3.859   3.581  0.3294  0.1208  0.7207
   86SOPE   H8R 8035   7.225   3.787   3.642  0.9042  0.1500  1.3066
   86SOPE   H8S 8036   7.385   3.821   3.560  0.3386  1.1833 -1.4748
   86SOPE   C29 8037   7.283   4.002   3.636 -0.2525 -0.2058 -0.2431
   86SOPE   H91 8038   7.316   4.076   3.562  0.4075 -2.3117 -2.1890
   86SOPE  C210 8039   7.268   4.033   3.764  0.3189  0.1417  0.1497
   86SOPE  H101 8040   7.261   4.139   3.793  0.7415 -0.4385  2.6077
   86SOPE  C211 8041   7.221   3.942   3.878 -0.2896  1.3207  0.2225
   86SOPE  H11R 8042   7.299   3.898   3.944 -1.3692 -2.3949 -0.7142
   86SOPE  H11S 8043   7.145   3.865   3.853  0.0822  0.6581  1.0940
   86SOPE  C212 8044   7.118   4.024   3.959 -0.1098  0.0124 -0.2525
   86SOPE  H12R 8045   7.024   4.028   3.899  0.0918  2.5199 -0.5085
   86SOPE  H12S 8046   7.154   4.123   3.995  1.9444 -0.3369 -1.2371
   86SOPE  C213 8047   7.080   3.940   4.083 -0.3100  0.1277 -0.3840
   86SOPE  H13R 8048   7.165   3.934   4.155 -1.7522  1.1028  1.5117
   86SOPE  H13S 8049   7.074   3.834   4.050  3.9111 -1.2653  2.5202
   86SOPE  C214 8050   6.960   3.992   4.158 -0.8251 -0.3832  0.0557
   86SOPE  H14R 8051   6.936   4.093   4.117  1.9590  0.2108 -0.3356
   86SOPE  H14S 8052   6.977   4.002   4.267  1.9021 -1.6876 -0.1634
   86SOPE  C215 8053   6.833   3.902   4.142  0.0151  0.0127  0.8724
   86SOPE  H15R 8054   6.862   3.805   4.187 -0.6408 -0.1135  1.0374
   86SOPE  H15S 8055   6.804   3.893   4.035  0.3134 -0.5711  0.8372
   86SOPE  C216 8056   6.721   3.949   4.236 -0.0328 -1.0378  0.9474
   86SOPE  H16R 8057   6.682   4.040   4.186 -0.0957 -1.4921  0.1470
   86SOPE  H16S 8058   6.768   3.980   4.332 -3.3513  0.7229  2.1695
   86SOPE  C217 8059   6.617   3.844   4.253 -0.6276  0.4576  0.1853
   86SOPE  H17R 8060   6.670   3.750   4.279 -0.5925 -0.8844 -4.0863
   86SOPE  H17S 8061   6.568   3.829   4.155  0.3765  1.4647 -0.4932
   86SOPE  C218 8062   6.498   3.876   4.347 -0.6749 -0.3039 -0.3638
   86SOPE  H18R 8063   6.443   3.780   4.358  0.2492 -1.0157 -1.7020
   86SOPE  H18S 8064   6.433   3.948   4.293 -0.0598 -1.6112 -2.9740
   86SOPE  H18T 8065   6.528   3.911   4.449  0.9964 -1.8254 -0.2772
   86SOPE   C33 8066   6.318   4.389   3.157  0.1453  0.6194 -0.0422
   86SOPE   H3X 8067   6.348   4.496   3.146  0.6234  0.4604 -0.3256
   86SOPE   H3Y 8068   6.382   4.346   3.236  1.0595 -0.5987 -1.3898
   86SOPE   C34 8069   6.172   4.388   3.197  0.2601 -0.4224  0.3047
   86SOPE   H4X 8070   6.142   4.283   3.213  3.2729 -1.5078 -0.4859
   86SOPE   H4Y 8071   6.116   4.432   3.112  1.1906  0.6637  0.2312
   86SOPE   C35 8072   6.142   4.459   3.332 -0.0233  0.2556 -0.4297
   86SOPE   H5X 8073   6.033   4.474   3.343  0.0187  0.5544 -0.4295
   86SOPE   H5Y 8074   6.181   4.563   3.329  0.3556  0.1007 -1.3963
   86SOPE   C36 8075   6.182   4.381   3.456 -0.3854  0.0949  0.1972
   86SOPE   H6X 8076   6.290   4.399   3.475 -0.4665 -1.4644  2.5989
   86SOPE   H6Y 8077   6.170   4.270   3.448  0.1022  0.1411 -1.7887
   86SOPE   C37 8078   6.108   4.423   3.576  0.4483  0.0410 -0.8768
   86SOPE   H7X 8079   6.134   4.358   3.663  1.5654  0.8330 -0.5941
   86SOPE   H7Y 8080   6.001   4.414   3.551  0.3732  0.1061 -0.5831
   86SOPE   C38 8081   6.146   4.568   3.623 -0.1274 -0.3949 -0.1049
   86SOPE   H8X 8082   6.095   4.638   3.553  0.7428 -1.0236 -1.4258
   86SOPE   H8Y 8083   6.255   4.577   3.602  0.0954 -0.4027  0.9738
   86SOPE   C39 8084   6.117   4.609   3.764 -0.2609 -0.0006 -0.3095
   86SOPE   H9X 8085   6.173   4.541   3.831  0.6585 -0.0938 -1.1388
   86SOPE   H9Y 8086   6.011   4.585   3.786 -0.0045  0.4345  1.5765
   86SOPE  C310 8087   6.140   4.752   3.802  0.3865  0.1636  0.5436
   86SOPE  H10X 8088   6.070   4.816   3.743  1.7797  0.0446 -1.3479
   86SOPE  H10Y 8089   6.242   4.780   3.771 -0.0390  1.0507 -0.1020
   86SOPE  C311 8090   6.104   4.782   3.947 -0.3783  0.1052 -0.3749
   86SOPE  H11X 8091   6.180   4.748   4.020 -0.5941 -0.7025 -0.5158
   86SOPE  H11Y 8092   6.005   4.735   3.966 -0.4938 -0.0860 -1.3516
   86SOPE  C312 8093   6.094   4.937   3.980  0.0354 -0.0790  0.4517
   86SOPE  H12X 8094   5.989   4.973   3.979  0.5585  1.7061 -2.1211
   86SOPE  H12Y 8095   6.139   4.989   3.893 -0.6997 -0.9884 -0.5038
   86SOPE  C313 8096   6.162   4.978   4.106  0.4392 -1.0360 -0.3498
   86SOPE  H13X 8097   6.270   4.953   4.101  0.8750  0.4403  1.0317
   86SOPE  H13Y 8098   6.122   4.909   4.184 -2.8370  1.4168  0.3369
   86SOPE  C314 8099   6.146   5.121   4.159  0.7216 -0.0827 -0.4545
   86SOPE  H14X 8100   6.204   5.133   4.253  1.2697  1.0786 -0.9198
   86SOPE  H14Y 8101   6.037   5.124   4.182  0.3460 -0.4638 -2.0503
   86SOPE  C315 8102   6.176   5.243   4.072 -0.3978  0.4839  0.3031
   86SOPE  H15X 8103   6.136   5.336   4.118 -0.4328 -0.1914  1.7047
   86SOPE  H15Y 8104   6.127   5.233   3.974  1.1500  0.5852 -0.5157
   86SOPE  C316 8105   6.329   5.256   4.045  0.4108  0.4602 -0.4158
   86SOPE  H16X 8106   6.370   5.160   4.007 -0.6991  0.4350 -1.5986
   86SOPE  H16Y 8107   6.374   5.279   4.144 -0.8370  1.5568 -0.0595
   86SOPE  C317 8108   6.373   5.367   3.950 -0.2783  0.3451 -0.6100
   86SOPE  H17X 8109   6.339   5.466   3.986 -0.3293  0.0128  0.2715
   86SOPE  H17Y 8110   6.326   5.344   3.852  1.6464  0.7490 -1.6909
   86SOPE  C318 8111   6.522   5.365   3.929 -0.3170 -0.3261  1.0472
   86SOPE  H18X 8112   6.559   5.268   3.890  2.1963  1.7990 -2.4213
   86SOPE  H18Y 8113   6.578   5.396   4.019 -0.2022  1.5818  0.3651
   86SOPE  H18Z 8114   6.552   5.444   3.856  1.1528 -0.3987  1.5324
   87SOPE     N 8115   1.459   4.230   2.154  0.1520 -0.1154  0.0419
   87SOPE   HN1 8116   1.455   4.131   2.124 -1.6454 -0.1236  0.2190
   87SOPE   HN2 8117   1.523   4.282   2.090 -1.7552  3.5091  0.8072
   87SOPE   HN3 8118   1.490   4.225   2.253  2.2824 -1.4542 -0.6282
   87SOPE   C12 8119   1.323   4.299   2.158 -0.4338 -0.1465 -0.0163
   87SOPE  H12A 8120   1.256   4.226   2.108  1.1721 -1.0902 -0.8784
   87SOPE  H12B 8121   1.330   4.383   2.086 -1.3055 -1.2912 -1.5068
   87SOPE   C11 8122   1.282   4.336   2.293 -0.0527 -0.1788  0.0137
   87SOPE  H11A 8123   1.192   4.400   2.279 -0.4661 -1.0416 -1.4932
   87SOPE  H11B 8124   1.358   4.400   2.343 -0.0961 -1.1770  1.4097
   87SOPE     P 8125   1.144   4.196   2.482 -0.5823  0.2752  0.0542
   87SOPE   O13 8126   1.150   4.056   2.531  1.0207 -0.1073 -1.0962
   87SOPE   O14 8127   1.024   4.236   2.420  0.0524  0.1535  0.7337
   87SOPE   O12 8128   1.261   4.216   2.373 -0.0838 -0.2588 -0.0271
   87SOPE   O11 8129   1.176   4.296   2.600  0.1906  0.2995 -0.1656
   87SOPE    C1 8130   1.301   4.347   2.640 -0.3186  0.1661 -0.2385
   87SOPE    HA 8131   1.309   4.452   2.607 -0.7061  0.7300  1.3912
   87SOPE    HB 8132   1.380   4.299   2.579  1.0453  1.1444  0.7192
   87SOPE    C2 8133   1.338   4.343   2.790 -0.0052  0.6460  0.9728
   87SOPE    HS 8134   1.400   4.433   2.809 -0.9300  0.8519  3.4219
   87SOPE   O21 8135   1.399   4.212   2.813 -0.2929 -0.0384 -0.4439
   87SOPE   C21 8136   1.477   4.202   2.929  1.2675 -0.1645  0.2014
   87SOPE   O22 8137   1.504   4.304   2.992 -0.0479 -0.0100 -0.1753
   87SOPE   C22 8138   1.502   4.054   2.961  0.7152  0.1798 -0.4504
   87SOPE   H2R 8139   1.404   4.006   2.941  1.0494  0.3097 -2.6758
   87SOPE   H2S 8140   1.521   4.053   3.071  1.4986  1.4824 -0.5486
   87SOPE    C3 8141   1.202   4.348   2.874 -0.1933 -0.3912 -0.1855
   87SOPE    HX 8142   1.143   4.255   2.859  3.2736 -2.8802  0.1462
   87SOPE    HY 8143   1.151   4.432   2.822  1.7495  0.3274 -1.0420
   87SOPE   O31 8144   1.230   4.364   3.007 -0.3035  0.2030  0.1426
   87SOPE   C31 8145   1.221   4.488   3.055  0.4831 -0.2147  0.1289
   87SOPE   O32 8146   1.183   4.584   2.990  0.1575  0.2706  0.3228
   87SOPE   C32 8147   1.271   4.505   3.197  0.4838 -0.1481  0.3021
   87SOPE   H2X 8148   1.253   4.607   3.237  2.4256 -0.2934  1.7477
   87SOPE   H2Y 8149   1.382   4.493   3.195  0.7024  1.6457 -0.0889
   87SOPE   C23 8150   1.615   3.992   2.872  0.7662 -0.3829 -0.6424
   87SOPE   H3R 8151   1.583   3.989   2.766  0.4001 -2.4499 -0.5155
   87SOPE   H3S 8152   1.621   3.883   2.891 -0.5550 -0.5641 -1.2206
   87SOPE   C24 8153   1.755   4.048   2.889 -0.9424 -0.3352  0.2860
   87SOPE   H4R 8154   1.833   3.976   2.856  0.4282  0.8388  0.8638
   87SOPE   H4S 8155   1.765   4.144   2.833 -1.3411  0.3913  1.4094
   87SOPE   C25 8156   1.791   4.078   3.035 -0.2556 -0.3026 -0.1196
   87SOPE   H5R 8157   1.712   4.129   3.095  1.0233 -1.3387  2.6321
   87SOPE   H5S 8158   1.802   3.977   3.079 -1.4164 -0.2652  0.2919
   87SOPE   C26 8159   1.916   4.163   3.057  0.0098  0.8270  0.3063
   87SOPE   H6R 8160   2.014   4.115   3.032 -0.5425 -0.8405  1.2031
   87SOPE   H6S 8161   1.896   4.252   2.995  1.8290  0.7223 -0.5172
   87SOPE   C27 8162   1.947   4.207   3.210 -0.6154  0.6744  0.0643
   87SOPE   H7R 8163   1.914   4.116   3.265  1.1437  0.4463  0.8203
   87SOPE   H7S 8164   2.057   4.202   3.228 -0.7507 -1.3983  0.5187
   87SOPE   C28 8165   1.878   4.335   3.257  0.0169 -0.0778  0.0670
   87SOPE   H8R 8166   1.774   4.315   3.224  1.6202 -2.5863 -4.3639
   87SOPE   H8S 8167   1.885   4.329   3.368  0.4087  0.2004  0.0592
   87SOPE   C29 8168   1.922   4.466   3.198  0.3898 -0.0557  0.7193
   87SOPE   H91 8169   1.857   4.505   3.119  2.9280  0.8096 -1.0726
   87SOPE  C210 8170   2.030   4.545   3.219 -0.3829 -0.8778  0.2855
   87SOPE  H101 8171   2.056   4.637   3.165 -2.2268 -0.7206 -0.4219
   87SOPE  C211 8172   2.129   4.497   3.318  0.1659  0.5893  0.1405
   87SOPE  H11R 8173   2.230   4.519   3.276 -0.6868 -1.0975 -3.0805
   87SOPE  H11S 8174   2.123   4.388   3.339  0.5180  0.7437  1.0889
   87SOPE  C212 8175   2.129   4.547   3.462 -0.4353  0.5061 -0.1497
   87SOPE  H12R 8176   2.146   4.656   3.447  0.2525  0.7601  2.1440
   87SOPE  H12S 8177   2.211   4.506   3.526 -0.8021  0.3916  0.2497
   87SOPE  C213 8178   1.995   4.523   3.535 -0.3675 -0.1039  0.3025
   87SOPE  H13R 8179   1.973   4.415   3.530 -1.3592  0.1469 -2.0838
   87SOPE  H13S 8180   1.914   4.572   3.477 -1.5837 -1.6211  0.6804
   87SOPE  C214 8181   1.988   4.596   3.668 -0.4370  0.3212 -0.0403
   87SOPE  H14R 8182   1.889   4.576   3.713  0.0940 -2.1585  0.1707
   87SOPE  H14S 8183   1.991   4.706   3.651 -1.3661  0.2198 -1.0026
   87SOPE  C215 8184   2.108   4.561   3.756  0.3136 -0.2129  0.5217
   87SOPE  H15R 8185   2.200   4.605   3.711 -0.3234  1.2325  0.5823
   87SOPE  H15S 8186   2.124   4.451   3.767  0.7513 -0.0938  1.0965
   87SOPE  C216 8187   2.085   4.608   3.896 -0.4622  0.4096 -0.6555
   87SOPE  H16R 8188   2.020   4.698   3.898 -1.2834 -0.1696 -0.9242
   87SOPE  H16S 8189   2.186   4.637   3.932 -0.2744 -1.3877  0.3746
   87SOPE  C217 8190   2.017   4.503   3.992  0.5212  0.6667 -1.0416
   87SOPE  H17R 8191   2.095   4.429   4.021  0.4251 -0.9951 -4.4484
   87SOPE  H17S 8192   1.937   4.455   3.933 -1.7152  1.8679  0.8716
   87SOPE  C218 8193   1.957   4.570   4.115  0.3002  0.1235 -1.2091
   87SOPE  H18R 8194   1.888   4.504   4.171  1.4828 -0.1933 -0.0779
   87SOPE  H18S 8195   1.914   4.661   4.069  1.1740  0.4621 -1.3784
   87SOPE  H18T 8196   2.035   4.595   4.190  1.8280 -0.5700 -2.4883
   87SOPE   C33 8197   1.234   4.392   3.298  0.6250  0.0892  0.4962
   87SOPE   H3X 8198   1.287   4.298   3.271  2.6942  0.5130  2.6879
   87SOPE   H3Y 8199   1.126   4.371   3.286  0.2592  1.2622  1.5040
   87SOPE   C34 8200   1.275   4.416   3.439 -0.3014 -0.1502  0.1737
   87SOPE   H4X 8201   1.253   4.517   3.481  1.5796  0.0366  0.8042
   87SOPE   H4Y 8202   1.384   4.395   3.448 -0.7075 -3.5794 -1.3777
   87SOPE   C35 8203   1.223   4.308   3.533 -0.3184 -0.6277  0.1565
   87SOPE   H5X 8204   1.283   4.215   3.520  0.8453 -0.0169  0.9007
   87SOPE   H5Y 8205   1.117   4.296   3.503 -0.3953 -0.7195  0.4639
   87SOPE   C36 8206   1.220   4.326   3.687 -0.6244  0.1829 -0.1096
   87SOPE   H6X 8207   1.195   4.433   3.707 -0.3658  0.8939 -3.1311
   87SOPE   H6Y 8208   1.323   4.315   3.726  0.7199  1.9084 -2.8616
   87SOPE   C37 8209   1.128   4.228   3.757 -0.1006  0.0498 -1.0615
   87SOPE   H7X 8210   1.179   4.130   3.768  0.2677  0.4837  1.7775
   87SOPE   H7Y 8211   1.036   4.222   3.694 -1.4533  2.9371  0.4718
   87SOPE   C38 8212   1.081   4.282   3.896 -0.1240  0.9773  0.0848
   87SOPE   H8X 8213   0.991   4.231   3.937  0.2755 -0.2089 -0.4815
   87SOPE   H8Y 8214   1.050   4.386   3.871 -1.2158  0.4628 -0.8020
   87SOPE   C39 8215   1.187   4.269   3.997 -0.7895 -0.2304  0.8890
   87SOPE   H9X 8216   1.281   4.320   3.970  0.3920 -0.9428  3.3599
   87SOPE   H9Y 8217   1.210   4.160   4.002  1.8590  0.2162 -0.2635
   87SOPE  C310 8218   1.133   4.309   4.133  0.1864  0.0631 -0.8685
   87SOPE  H10X 8219   1.139   4.419   4.147  0.9119 -0.2321  1.5577
   87SOPE  H10Y 8220   1.213   4.271   4.200 -1.1059  0.4122  0.9229
   87SOPE  C311 8221   1.002   4.250   4.189  0.8491  0.2389  0.1029
   87SOPE  H11X 8222   0.994   4.141   4.174 -0.5079 -0.0280  2.2833
   87SOPE  H11Y 8223   0.920   4.295   4.130  0.3403  0.7137  1.1414
   87SOPE  C312 8224   0.977   4.278   4.341 -0.0339 -0.0472 -0.4747
   87SOPE  H12X 8225   0.982   4.384   4.373  0.7020 -0.5462  1.1309
   87SOPE  H12Y 8226   1.064   4.234   4.393  0.6593 -0.0455 -1.5882
   87SOPE  C313 8227   0.838   4.224   4.399 -0.2050 -0.6549  0.7514
   87SOPE  H13X 8228   0.824   4.115   4.378  0.1415 -0.6509  0.4910
   87SOPE  H13Y 8229   0.753   4.279   4.354 -2.2554 -2.3604  2.3289
   87SOPE  C314 8230   0.818   4.244   4.545  0.6973 -0.5888 -0.1362
   87SOPE  H14X 8231   0.809   4.352   4.570  1.1391 -0.4490 -0.5680
   87SOPE  H14Y 8232   0.912   4.204   4.591  1.5890  0.6482 -0.8342
   87SOPE  C315 8233   0.689   4.171   4.596  1.1410 -0.2599  0.2878
   87SOPE  H15X 8234   0.694   4.065   4.563 -2.0441 -0.3210 -0.2397
   87SOPE  H15Y 8235   0.602   4.210   4.540  1.4544  1.3890  0.8855
   87SOPE  C316 8236   0.668   4.181   4.753  0.3627 -0.3286 -0.3239
   87SOPE  H16X 8237   0.643   4.283   4.787  0.9493 -0.9927  2.3412
   87SOPE  H16Y 8238   0.767   4.163   4.799  0.0716  0.4575  0.6349
   87SOPE  C317 8239   0.568   4.076   4.814 -0.8046  0.6168 -0.6318
   87SOPE  H17X 8240   0.551   4.103   4.920  2.1839  0.3308  0.0238
   87SOPE  H17Y 8241   0.619   3.978   4.817  1.9540  1.8695 -1.9654
   87SOPE  C318 8242   0.438   4.066   4.745 -0.6274 -0.0122 -0.4630
   87SOPE  H18X 8243   0.379   4.161   4.743 -1.0618 -0.2731 -0.0969
   87SOPE  H18Y 8244   0.372   3.990   4.790 -1.8324 -0.0775 -2.2103
   87SOPE  H18Z 8245   0.447   4.038   4.638  0.5579  0.5503 -0.5245
   88SOPE     N 8246   3.088   3.551   2.392 -0.2739 -0.2808  0.1831
   88SOPE   HN1 8247   3.036   3.481   2.335 -0.8383  0.8309 -0.7236
   88SOPE   HN2 8248   3.061   3.644   2.354  0.3262 -0.2960 -0.2972
   88SOPE   HN3 8249   3.184   3.547   2.351  1.1118  1.3092  3.0112
   88SOPE   C12 8250   3.093   3.527   2.536  0.0407  0.0029  0.4048
   88SOPE  H12A 8251   3.134   3.426   2.559 -0.9519 -0.4099  0.3836
   88SOPE  H12B 8252   2.991   3.530   2.579  0.6914 -0.7199  2.0797
   88SOPE   C11 8253   3.179   3.632   2.611 -0.2680 -0.2617 -0.8692
   88SOPE  H11A 8254   3.168   3.618   2.720  3.6297  1.1595 -0.1409
   88SOPE  H11B 8255   3.131   3.730   2.591 -1.1445 -0.6256 -0.5655
   88SOPE     P 8256   3.391   3.712   2.486  0.3845  0.0015 -0.3471
   88SOPE   O13 8257   3.335   3.707   2.351  0.0952 -0.1877  0.5796
   88SOPE   O14 8258   3.541   3.687   2.492 -0.4499 -0.0335  0.4290
   88SOPE   O12 8259   3.314   3.619   2.588  0.2923 -0.1613  0.5535
   88SOPE   O11 8260   3.351   3.848   2.545  0.3257  0.2942  0.3635
   88SOPE    C1 8261   3.401   3.893   2.662 -0.3324 -0.7088 -1.0373
   88SOPE    HA 8262   3.476   3.970   2.634 -1.1548  0.4395 -0.1542
   88SOPE    HB 8263   3.443   3.819   2.733 -2.5671 -0.4617  0.6588
   88SOPE    C2 8264   3.292   3.987   2.737  0.4523 -0.4567 -0.1052
   88SOPE    HS 8265   3.344   4.061   2.801  0.0600 -0.3826  0.1320
   88SOPE   O21 8266   3.203   3.898   2.811 -0.2450 -0.3555 -0.0377
   88SOPE   C21 8267   3.244   3.869   2.931  0.2789 -0.0457  0.2770
   88SOPE   O22 8268   3.345   3.914   2.981 -0.7616 -0.3777 -0.0584
   88SOPE   C22 8269   3.143   3.779   2.988  0.0773  0.3224 -0.1803
   88SOPE   H2R 8270   3.070   3.754   2.908 -0.4665  1.0950  0.0659
   88SOPE   H2S 8271   3.090   3.836   3.067  3.2725  1.3715  1.3940
   88SOPE    C3 8272   3.197   4.069   2.638  0.3045  0.0844  0.3167
   88SOPE    HX 8273   3.135   3.988   2.595 -1.3535  0.5582  1.6999
   88SOPE    HY 8274   3.270   4.095   2.558 -1.6064  1.2345 -1.1199
   88SOPE   O31 8275   3.119   4.188   2.683 -0.0922 -0.3580 -0.3913
   88SOPE   C31 8276   3.081   4.269   2.586  0.4266  0.0084  0.8299
   88SOPE   O32 8277   3.092   4.255   2.464 -0.0090 -0.1810 -0.2678
   88SOPE   C32 8278   3.015   4.386   2.655  0.5162  0.0910  0.8249
   88SOPE   H2X 8279   2.943   4.352   2.733  0.2889 -0.2423  0.4716
   88SOPE   H2Y 8280   2.952   4.442   2.583  1.4835  1.0966  0.7364
   88SOPE   C23 8281   3.215   3.654   3.052 -0.4623  0.2009 -0.2263
   88SOPE   H3R 8282   3.295   3.692   3.120 -0.6469  0.9029 -0.3904
   88SOPE   H3S 8283   3.270   3.592   2.978  1.1635 -0.5004  1.4700
   88SOPE   C24 8284   3.119   3.579   3.150  0.0894  0.5463  0.1625
   88SOPE   H4R 8285   3.022   3.574   3.094  0.6468  1.8565 -0.9877
   88SOPE   H4S 8286   3.171   3.481   3.163  1.5252  1.0547 -1.3649
   88SOPE   C25 8287   3.097   3.641   3.284 -0.1952 -0.1532  0.0648
   88SOPE   H5R 8288   3.189   3.684   3.329 -1.7090  1.2032  2.0398
   88SOPE   H5S 8289   3.034   3.727   3.256 -2.0482 -1.8075 -1.1040
   88SOPE   C26 8290   3.025   3.555   3.387  0.1356  0.4137 -0.2241
   88SOPE   H6R 8291   2.936   3.510   3.338  0.5875 -0.9142  0.1227
   88SOPE   H6S 8292   3.095   3.472   3.412 -2.3610 -2.0144 -0.8071
   88SOPE   C27 8293   2.976   3.635   3.507 -0.0437 -0.6289 -0.8123
   88SOPE   H7R 8294   2.914   3.722   3.474 -2.5056 -2.4471 -1.2677
   88SOPE   H7S 8295   2.905   3.580   3.572 -2.2624  1.2821 -1.4411
   88SOPE   C28 8296   3.094   3.688   3.591  0.6319 -0.3524 -0.0691
   88SOPE   H8R 8297   3.144   3.780   3.554  1.0672  1.0257  3.5007
   88SOPE   H8S 8298   3.041   3.735   3.677  2.6386 -1.4404  1.8977
   88SOPE   C29 8299   3.185   3.583   3.650  0.3186  0.8740 -0.4777
   88SOPE   H91 8300   3.226   3.509   3.579  0.5628 -0.1414  0.6980
   88SOPE  C210 8301   3.207   3.569   3.786 -0.0498 -0.0961  0.3325
   88SOPE  H101 8302   3.277   3.491   3.820  0.8525 -0.0493 -1.2952
   88SOPE  C211 8303   3.148   3.649   3.913 -0.1667 -0.6410 -0.2111
   88SOPE  H11R 8304   3.085   3.734   3.880 -1.4516 -1.2720  0.5217
   88SOPE  H11S 8305   3.221   3.703   3.977 -0.8155  1.0416 -0.8232
   88SOPE  C212 8306   3.069   3.556   4.004 -0.4095  0.1403 -0.7062
   88SOPE  H12R 8307   2.970   3.534   3.958 -1.7971  3.7229  0.2864
   88SOPE  H12S 8308   3.050   3.615   4.096  0.2588 -2.1416  0.9863
   88SOPE  C213 8309   3.141   3.425   4.030  0.2751  0.2661 -0.1415
   88SOPE  H13R 8310   3.250   3.429   4.051  0.3011  0.2322 -0.2716
   88SOPE  H13S 8311   3.126   3.360   3.941  1.1462 -0.1048 -0.0251
   88SOPE  C214 8312   3.076   3.332   4.137  0.4344 -0.6156  0.0106
   88SOPE  H14R 8313   3.115   3.228   4.128  1.0066 -0.3061 -1.2880
   88SOPE  H14S 8314   2.967   3.327   4.117  0.3236  2.6974 -0.7585
   88SOPE  C215 8315   3.101   3.376   4.283 -1.2568  0.1609 -0.7713
   88SOPE  H15R 8316   3.079   3.484   4.295 -0.6626  0.4908 -2.3542
   88SOPE  H15S 8317   3.206   3.359   4.315 -1.3247  0.2379 -0.5059
   88SOPE  C216 8318   3.017   3.295   4.382  1.1227  0.3683  0.4993
   88SOPE  H16R 8319   3.044   3.190   4.360  2.1285  0.2125  2.3450
   88SOPE  H16S 8320   2.911   3.321   4.358  1.3740 -0.8909 -2.5162
   88SOPE  C217 8321   3.052   3.331   4.532 -0.4504 -0.9631 -0.5493
   88SOPE  H17R 8322   2.956   3.340   4.587  0.2918  0.4374  0.5712
   88SOPE  H17S 8323   3.105   3.427   4.546 -0.0108 -1.4829  1.7102
   88SOPE  C218 8324   3.131   3.227   4.604 -0.2908  0.0045  0.2328
   88SOPE  H18R 8325   3.141   3.242   4.713 -0.1850 -2.8553  0.6907
   88SOPE  H18S 8326   3.233   3.207   4.564 -0.8277  0.4316 -1.4292
   88SOPE  H18T 8327   3.086   3.126   4.603  2.5118 -1.3405  0.4756
   88SOPE   C33 8328   3.112   4.485   2.712  0.4890 -0.7330 -0.4895
   88SOPE   H3X 8329   3.153   4.554   2.635 -0.5624  1.3160  0.6920
   88SOPE   H3Y 8330   3.202   4.441   2.761 -0.4031 -1.0326  0.9498
   88SOPE   C34 8331   3.042   4.572   2.818  0.4236 -0.1155 -0.6167
   88SOPE   H4X 8332   2.938   4.590   2.782  0.1310 -1.8264 -0.7204
   88SOPE   H4Y 8333   3.097   4.668   2.820 -0.6730  0.5739 -1.5103
   88SOPE   C35 8334   3.053   4.521   2.969 -0.2701  0.0720 -0.5781
   88SOPE   H5X 8335   3.162   4.510   2.982 -0.3290 -1.1333 -1.0362
   88SOPE   H5Y 8336   3.004   4.423   2.982  3.3121 -2.1705 -2.4318
   88SOPE   C36 8337   3.012   4.627   3.067 -0.6649 -0.3707  0.0051
   88SOPE   H6X 8338   2.917   4.675   3.036  0.1202 -0.2350 -2.4070
   88SOPE   H6Y 8339   3.095   4.701   3.069  1.1072 -2.1669 -1.9076
   88SOPE   C37 8340   2.991   4.576   3.206 -0.8471 -0.8467 -0.1528
   88SOPE   H7X 8341   3.093   4.546   3.237 -0.0937 -0.3645 -2.0405
   88SOPE   H7Y 8342   2.928   4.486   3.223  0.1012 -1.5392 -0.2326
   88SOPE   C38 8343   2.945   4.689   3.297 -0.3383 -0.3081 -0.5428
   88SOPE   H8X 8344   2.841   4.722   3.280  0.4441  1.9441 -1.3540
   88SOPE   H8Y 8345   3.016   4.773   3.277  4.1072 -4.0298 -2.1385
   88SOPE   C39 8346   2.956   4.641   3.447  0.0414  0.3838  0.1053
   88SOPE   H9X 8347   3.055   4.591   3.454 -0.8045 -1.2772  0.7652
   88SOPE   H9Y 8348   2.886   4.559   3.472  0.0433  0.0638 -0.8968
   88SOPE  C310 8349   2.946   4.755   3.540  0.4554  0.3939 -0.0731
   88SOPE  H10X 8350   2.853   4.813   3.521 -0.2142 -0.0891  1.5197
   88SOPE  H10Y 8351   3.032   4.824   3.530 -0.0479  1.1586  0.6578
   88SOPE  C311 8352   2.943   4.729   3.694  0.6047 -0.3657 -0.2711
   88SOPE  H11X 8353   2.928   4.831   3.736 -0.6358 -1.1095  1.2054
   88SOPE  H11Y 8354   3.041   4.688   3.729  1.0377  1.2699  0.5435
   88SOPE  C312 8355   2.825   4.646   3.737  0.1301  0.0701  0.6777
   88SOPE  H12X 8356   2.851   4.541   3.712  2.4745  0.6732  0.3120
   88SOPE  H12Y 8357   2.732   4.677   3.685 -1.2157 -0.7277  2.4987
   88SOPE  C313 8358   2.799   4.650   3.891  0.5771  0.1839 -0.1170
   88SOPE  H13X 8359   2.892   4.603   3.931 -0.2790 -0.4444  1.2110
   88SOPE  H13Y 8360   2.716   4.581   3.916 -0.7741  2.2502  1.4053
   88SOPE  C314 8361   2.762   4.788   3.947 -0.2865  0.3447  0.0554
   88SOPE  H14X 8362   2.667   4.819   3.899 -0.5075 -0.9486 -0.3891
   88SOPE  H14Y 8363   2.843   4.859   3.922  0.7057 -1.1964 -1.2928
   88SOPE  C315 8364   2.735   4.770   4.098 -0.6012 -0.0687 -0.1597
   88SOPE  H15X 8365   2.646   4.703   4.107 -1.3612  0.7930 -1.0948
   88SOPE  H15Y 8366   2.706   4.872   4.132  1.1373  1.4089 -2.8399
   88SOPE  C316 8367   2.850   4.730   4.186 -0.0578  0.7558  0.1756
   88SOPE  H16X 8368   2.941   4.793   4.176  2.3462 -1.8378  3.4770
   88SOPE  H16Y 8369   2.875   4.624   4.167 -0.1979  0.3396  2.0766
   88SOPE  C317 8370   2.809   4.737   4.337 -0.0123  0.1055 -0.0059
   88SOPE  H17X 8371   2.741   4.653   4.360 -2.0203  2.0525  1.6812
   88SOPE  H17Y 8372   2.753   4.833   4.347 -0.6703  0.0788 -2.5914
   88SOPE  C318 8373   2.929   4.715   4.425  0.1664 -0.4869 -0.7139
   88SOPE  H18X 8374   2.893   4.741   4.526  0.2481  1.1776 -1.0928
   88SOPE  H18Y 8375   3.019   4.777   4.405 -1.3262  2.1684  0.3081
   88SOPE  H18Z 8376   2.950   4.606   4.423 -0.6084 -0.6396 -0.9233
   89SAPC     N 8377   4.041   6.270   7.072 -0.1815  0.8313  0.3896
   89SAPC   C12 8378   4.022   6.323   6.934  0.4121  0.6730 -0.0969
   89SAPC  H12A 8379   4.002   6.429   6.946 -2.1580  0.2033  0.3572
   89SAPC  H12B 8380   3.938   6.276   6.886  0.0942  2.2894 -1.2267
   89SAPC   C13 8381   4.162   6.337   7.139  0.4808 -0.4145 -0.4137
   89SAPC  H13A 8382   4.251   6.334   7.078  1.4017  1.7033  0.7125
   89SAPC  H13B 8383   4.134   6.439   7.158 -0.0625 -0.1927 -2.2670
   89SAPC  H13C 8384   4.177   6.285   7.233  0.2084  0.4120  0.0934
   89SAPC   C14 8385   3.920   6.300   7.160  0.4065 -0.1108 -0.9234
   89SAPC  H14A 8386   3.923   6.248   7.254  1.3962 -0.0503 -0.9137
   89SAPC  H14B 8387   3.918   6.408   7.166  0.3542 -0.0006 -2.4679
   89SAPC  H14C 8388   3.834   6.264   7.106  1.1600 -0.0863 -2.1865
   89SAPC   C15 8389   4.065   6.124   7.060 -0.0755  0.0328 -0.4158
   89SAPC  H15A 8390   3.984   6.076   7.006 -1.4017  0.8669  0.7417
   89SAPC  H15B 8391   4.149   6.082   7.007 -1.0405 -4.8575  1.3940
   89SAPC  H15C 8392   4.080   6.081   7.158 -2.3553  0.4197  0.1685
   89SAPC   C11 8393   4.135   6.316   6.828  0.1745  0.0365  1.2764
   89SAPC  H11A 8394   4.096   6.369   6.738  1.2275  1.2171  1.4767
   89SAPC  H11B 8395   4.140   6.208   6.806 -2.8566 -0.1052  0.9610
   89SAPC     P 8396   4.395   6.305   6.838 -0.2131 -0.0463 -0.3697
   89SAPC   O13 8397   4.495   6.355   6.931  0.4855 -0.3043  0.4053
   89SAPC   O14 8398   4.377   6.160   6.821 -0.3956 -0.2477 -1.0021
   89SAPC   O12 8399   4.256   6.376   6.874 -0.3204  0.1915  0.5187
   89SAPC   O11 8400   4.412   6.385   6.697 -0.0576 -0.1605  0.2045
   89SAPC    C1 8401   4.375   6.306   6.578 -0.2815  0.1712  0.2503
   89SAPC    HA 8402   4.454   6.228   6.571 -0.1316  0.4481 -1.6400
   89SAPC    HB 8403   4.283   6.248   6.597  0.8752 -0.6918  4.2314
   89SAPC    C2 8404   4.355   6.390   6.460  0.4038 -0.9907 -0.6365
   89SAPC    HS 8405   4.314   6.332   6.374  1.0881 -1.2449 -0.7931
   89SAPC   O21 8406   4.472   6.453   6.427 -0.1188  0.1328 -0.3300
   89SAPC   C21 8407   4.552   6.383   6.344  0.6468  0.0689 -0.2938
   89SAPC   O22 8408   4.513   6.282   6.282 -0.2983 -0.4016 -0.4344
   89SAPC   C22 8409   4.675   6.465   6.312  0.2026  0.5481  0.5562
   89SAPC   H2R 8410   4.643   6.568   6.286  0.6259  0.0406 -2.4077
   89SAPC   H2S 8411   4.738   6.458   6.403 -0.1389 -1.0487  0.7052
   89SAPC    C3 8412   4.242   6.499   6.489 -0.3522 -0.6116  0.4361
   89SAPC    HX 8413   4.274   6.575   6.564 -0.7106 -0.9492  0.9347
   89SAPC    HY 8414   4.152   6.451   6.533 -2.8674  2.7421 -0.6014
   89SAPC   O31 8415   4.185   6.550   6.363 -0.0542  0.2795  0.0104
   89SAPC   C31 8416   4.226   6.667   6.329  0.4944  0.1431 -0.5999
   89SAPC   O32 8417   4.290   6.745   6.399  0.2312 -0.6290 -0.4705
   89SAPC   C32 8418   4.178   6.703   6.188  0.5148  0.2913 -0.1401
   89SAPC   H2X 8419   4.259   6.764   6.143  1.0172 -0.9322 -0.9579
   89SAPC   H2Y 8420   4.083   6.750   6.222 -0.5412 -1.9330  0.1589
   89SAPC   C23 8421   4.747   6.398   6.188 -0.1010 -0.2393 -0.2463
   89SAPC   H3R 8422   4.667   6.397   6.110 -0.6842  0.5131  0.3258
   89SAPC   H3S 8423   4.770   6.290   6.201 -3.7199 -0.9963  1.1120
   89SAPC   C24 8424   4.873   6.477   6.140 -0.2803  0.2261 -0.0230
   89SAPC   H4R 8425   4.938   6.498   6.227  1.0274 -0.1865 -0.8718
   89SAPC   H4S 8426   4.844   6.574   6.095  2.0620  0.0176 -2.2298
   89SAPC   C25 8427   4.947   6.383   6.046 -1.1082 -0.0025 -0.1697
   89SAPC   H5R 8428   5.009   6.305   6.092  3.2902  1.2869 -3.1956
   89SAPC   C26 8429   4.954   6.389   5.911 -0.1702 -0.0601 -0.6060
   89SAPC   H6R 8430   5.014   6.309   5.865 -0.7421 -1.4667  1.0011
   89SAPC   C27 8431   4.889   6.481   5.813  0.1990 -0.1441  0.3442
   89SAPC   H7R 8432   4.942   6.466   5.716  1.4748  0.4705  0.9143
   89SAPC   H7S 8433   4.904   6.589   5.836  1.3608 -0.1905 -0.1370
   89SAPC   C28 8434   4.739   6.461   5.796  0.3097  0.7426  0.1674
   89SAPC   H8R 8435   4.683   6.393   5.862 -3.5695 -0.6612 -4.0214
   89SAPC   C29 8436   4.672   6.496   5.691  0.8356  0.1030  0.0940
   89SAPC   H9R 8437   4.564   6.480   5.700  0.7495  0.5518 -0.1056
   89SAPC  C210 8438   4.722   6.581   5.574 -0.1472  0.1515  0.4684
   89SAPC  H10R 8439   4.826   6.616   5.592 -0.1557  1.1193 -1.1140
   89SAPC  H10S 8440   4.671   6.679   5.586  0.7404  0.7017 -0.1087
   89SAPC  C211 8441   4.708   6.525   5.433  0.3678  0.3764  0.7751
   89SAPC  H11R 8442   4.763   6.432   5.416 -0.3936  0.3899 -2.3198
   89SAPC  C212 8443   4.638   6.569   5.325 -0.0707 -0.1962 -0.0297
   89SAPC  H12R 8444   4.648   6.521   5.226  1.3879 -0.4211  0.2012
   89SAPC  C213 8445   4.544   6.689   5.324 -0.2612 -0.7904  0.3876
   89SAPC  H13R 8446   4.582   6.773   5.263  1.0919 -2.0088 -0.4849
   89SAPC  H13S 8447   4.532   6.734   5.426 -1.7150  1.8487 -0.8344
   89SAPC  C214 8448   4.410   6.645   5.276  0.1401 -0.1043  0.0075
   89SAPC  H14R 8449   4.374   6.547   5.310 -0.1096 -0.2931 -0.7737
   89SAPC  C215 8450   4.316   6.722   5.220 -0.1331 -0.5932  0.6881
   89SAPC  H15R 8451   4.224   6.670   5.189  0.9611 -2.4562  0.3612
   89SAPC  C216 8452   4.322   6.873   5.195 -0.4191  0.5079  0.2518
   89SAPC  H16R 8453   4.380   6.890   5.102  1.0873  0.4583  1.1462
   89SAPC  H16S 8454   4.390   6.930   5.262 -0.4406 -1.2462  1.8323
   89SAPC  C217 8455   4.186   6.947   5.187  0.6575  0.4272  0.3703
   89SAPC  H17R 8456   4.211   7.054   5.203  1.7894  0.1608  0.4197
   89SAPC  H17S 8457   4.125   6.911   5.273  1.3375  0.6047  0.9330
   89SAPC  C218 8458   4.113   6.919   5.053 -0.3778 -0.1816  0.6526
   89SAPC  H18R 8459   4.106   6.809   5.037 -1.5116 -0.2298  1.3851
   89SAPC  H18S 8460   4.188   6.951   4.977  0.6836 -2.1809  0.7810
   89SAPC  C219 8461   3.977   6.988   5.037 -0.2104  0.1478 -0.7547
   89SAPC  H19R 8462   3.912   6.972   5.126 -0.2425  1.3859 -0.5488
   89SAPC  H19S 8463   3.917   6.946   4.953 -0.1684 -1.3065 -0.1005
   89SAPC  C220 8464   3.982   7.143   5.028 -0.1215  0.3331  0.1056
   89SAPC  H20R 8465   3.876   7.175   5.024 -0.2433  0.0887  0.9938
   89SAPC  H20S 8466   4.032   7.161   4.931 -2.5216 -0.1053 -1.2796
   89SAPC  H20T 8467   4.037   7.190   5.113 -0.8598 -0.1373  0.8608
   89SAPC   C33 8468   4.150   6.592   6.085  0.8922  0.4886 -0.6177
   89SAPC   H3X 8469   4.107   6.638   5.994  1.1113  1.2874 -0.3261
   89SAPC   H3Y 8470   4.071   6.525   6.125 -0.1038  2.6714  1.2666
   89SAPC   C34 8471   4.271   6.510   6.044 -0.3553 -0.3879 -0.2539
   89SAPC   H4X 8472   4.316   6.480   6.141 -0.6465 -1.8641 -0.5514
   89SAPC   H4Y 8473   4.342   6.567   5.980  0.8917 -1.9671 -0.3382
   89SAPC   C35 8474   4.239   6.382   5.954 -0.4048 -0.3784 -0.6697
   89SAPC   H5X 8475   4.137   6.349   5.983 -0.0800 -0.2516  0.6979
   89SAPC   H5Y 8476   4.314   6.302   5.966  1.7508  1.6227 -0.1083
   89SAPC   C36 8477   4.244   6.418   5.810 -0.0031 -0.3040  0.1966
   89SAPC   H6X 8478   4.339   6.466   5.779  0.4293 -2.4960 -2.2246
   89SAPC   H6Y 8479   4.165   6.492   5.782 -0.6209 -1.0751 -0.1276
   89SAPC   C37 8480   4.240   6.291   5.713  0.0013  0.3723 -0.4756
   89SAPC   H7X 8481   4.220   6.334   5.613 -0.1049  0.1548 -0.5496
   89SAPC   H7Y 8482   4.152   6.228   5.741  0.3239  0.2714  0.3409
   89SAPC   C38 8483   4.372   6.219   5.702 -0.5635  0.4329 -0.0486
   89SAPC   H8X 8484   4.377   6.155   5.793 -0.9985 -0.1689 -0.4358
   89SAPC   H8Y 8485   4.459   6.287   5.711  0.8864 -1.4570  0.9109
   89SAPC   C39 8486   4.393   6.116   5.583  0.8444  0.7222 -0.0692
   89SAPC   H9X 8487   4.300   6.065   5.552  1.1881  0.6894 -1.0953
   89SAPC   H9Y 8488   4.468   6.041   5.616  1.4031  0.8104 -1.1072
   89SAPC  C310 8489   4.448   6.203   5.465  0.2302  0.3045 -0.4371
   89SAPC  H10X 8490   4.555   6.229   5.477  0.5081 -0.5275 -0.9982
   89SAPC  H10Y 8491   4.391   6.298   5.466 -1.2482 -0.4857 -2.4775
   89SAPC  C311 8492   4.430   6.139   5.329 -0.4963 -0.0163 -0.3521
   89SAPC  H11X 8493   4.321   6.120   5.323 -0.7789  1.3245  0.2202
   89SAPC  H11Y 8494   4.477   6.040   5.312  0.6724  0.8899 -2.8850
   89SAPC  C312 8495   4.465   6.240   5.213 -0.4179 -0.0500  0.0207
   89SAPC  H12X 8496   4.575   6.246   5.216 -0.4931  0.9924  1.1811
   89SAPC  H12Y 8497   4.444   6.347   5.235  3.8693  0.7351  1.1957
   89SAPC  C313 8498   4.394   6.206   5.080  0.1955  0.1217 -0.3881
   89SAPC  H13X 8499   4.288   6.230   5.100  0.2586  1.6471 -1.6830
   89SAPC  H13Y 8500   4.416   6.098   5.069  0.0322  0.1859 -1.4674
   89SAPC  C314 8501   4.443   6.280   4.957 -0.0533  0.7994 -0.2780
   89SAPC  H14X 8502   4.410   6.233   4.861 -0.7347  4.1147 -1.8381
   89SAPC  H14Y 8503   4.554   6.274   4.962 -0.0026  0.0223 -1.6989
   89SAPC  C315 8504   4.399   6.419   4.945 -0.2674  0.8026 -0.0821
   89SAPC  H15X 8505   4.447   6.485   5.020 -3.5708  0.8008  2.2886
   89SAPC  H15Y 8506   4.292   6.446   4.959 -0.2450  2.5090 -2.5121
   89SAPC  C316 8507   4.438   6.470   4.805 -0.3907 -0.3628  0.0447
   89SAPC  H16X 8508   4.374   6.418   4.731 -0.9796  1.0635 -0.4870
   89SAPC  H16Y 8509   4.538   6.432   4.775 -0.3491 -0.9788  0.9173
   89SAPC  C317 8510   4.424   6.620   4.780 -1.0896  0.2374  0.2482
   89SAPC  H17X 8511   4.327   6.655   4.820 -1.6472  0.1438 -0.9537
   89SAPC  H17Y 8512   4.441   6.641   4.672  1.6999  0.5123  0.6466
   89SAPC  C318 8513   4.532   6.706   4.847  0.4003 -0.1913 -0.4383
   89SAPC  H18X 8514   4.537   6.807   4.803  0.4090  0.5271  1.1580
   89SAPC  H18Y 8515   4.637   6.671   4.839  0.1515 -0.5877 -2.4791
   89SAPC  H18Z 8516   4.510   6.711   4.956  2.0920 -0.5006 -0.0565
   90SAPC     N 8517   0.974   1.106   6.604  0.6446 -0.6803 -0.2134
   90SAPC   C12 8518   0.886   1.165   6.497 -0.1304  0.5869 -1.0142
   90SAPC  H12A 8519   0.813   1.231   6.542 -0.0195  0.7805 -1.1192
   90SAPC  H12B 8520   0.829   1.080   6.462  0.2724  0.8505 -2.3658
   90SAPC   C13 8521   1.042   1.199   6.692 -0.0654  0.9207  0.8655
   90SAPC  H13A 8522   1.085   1.279   6.634  0.7652  0.2967  0.5890
   90SAPC  H13B 8523   0.967   1.242   6.756 -0.7230 -0.1900  0.8664
   90SAPC  H13C 8524   1.113   1.153   6.759  0.1565  1.8631  1.2973
   90SAPC   C14 8525   0.893   1.005   6.684 -0.1306  0.2174 -0.1834
   90SAPC  H14A 8526   0.800   1.048   6.717 -0.7713  0.9776 -2.7253
   90SAPC  H14B 8527   0.866   0.925   6.616  1.0222  1.7546 -2.6012
   90SAPC  H14C 8528   0.946   0.959   6.766  0.6258  2.8549  0.8902
   90SAPC   C15 8529   1.086   1.029   6.533  0.0372 -0.1890  0.6191
   90SAPC  H15A 8530   1.135   0.958   6.598  1.1551 -1.4194 -1.4621
   90SAPC  H15B 8531   1.049   0.978   6.446  1.0026  0.5700 -0.2602
   90SAPC  H15C 8532   1.166   1.097   6.508  0.7369 -1.1838  0.0857
   90SAPC   C11 8533   0.954   1.242   6.377  0.2339 -0.1240  0.5334
   90SAPC  H11A 8534   0.863   1.284   6.329 -0.4580 -1.4046  0.6884
   90SAPC  H11B 8535   0.997   1.176   6.299  0.0431 -0.4894  0.7338
   90SAPC     P 8536   1.194   1.368   6.372  0.1478 -0.2218  0.2152
   90SAPC   O13 8537   1.221   1.505   6.413 -0.0113 -0.5440 -0.0882
   90SAPC   O14 8538   1.284   1.259   6.434  0.6091 -0.3586  0.4218
   90SAPC   O12 8539   1.038   1.351   6.410 -0.1482  0.6979 -0.8345
   90SAPC   O11 8540   1.187   1.360   6.218  0.5511 -0.2190  0.2952
   90SAPC    C1 8541   1.088   1.422   6.129 -0.1048 -0.8861  0.4924
   90SAPC    HA 8542   1.003   1.353   6.109  0.9638 -2.0411 -0.1794
   90SAPC    HB 8543   1.060   1.521   6.170  0.9036 -0.0784 -0.6838
   90SAPC    C2 8544   1.159   1.455   5.993  0.0104  0.1363  0.3233
   90SAPC    HS 8545   1.076   1.484   5.925 -0.1920  0.2841  0.6323
   90SAPC   O21 8546   1.232   1.342   5.938  0.3275 -0.2395  0.0807
   90SAPC   C21 8547   1.166   1.231   5.908  0.6282  0.7122 -0.0653
   90SAPC   O22 8548   1.046   1.211   5.934  0.2434 -0.0309 -0.0993
   90SAPC   C22 8549   1.262   1.131   5.851 -0.1969 -0.7684  0.1262
   90SAPC   H2R 8550   1.267   1.157   5.743 -0.8036 -1.5228 -0.0963
   90SAPC   H2S 8551   1.364   1.146   5.894 -0.0947  1.4507 -0.7917
   90SAPC    C3 8552   1.258   1.568   6.010  0.3076  0.1332  0.3904
   90SAPC    HX 8553   1.353   1.526   6.048 -0.0663 -1.4853 -0.3914
   90SAPC    HY 8554   1.210   1.629   6.090  0.7465 -0.0505  0.7997
   90SAPC   O31 8555   1.282   1.636   5.882  0.3667 -0.8173  0.2591
   90SAPC   C31 8556   1.306   1.763   5.887  0.0554  0.1830 -0.4544
   90SAPC   O32 8557   1.316   1.833   5.986 -0.0805 -0.3556  0.1735
   90SAPC   C32 8558   1.335   1.812   5.749  0.5712 -0.2676 -0.3819
   90SAPC   H2X 8559   1.365   1.919   5.757  1.2492 -0.4572 -0.3912
   90SAPC   H2Y 8560   1.242   1.804   5.689 -1.5351  1.3907  2.3944
   90SAPC   C23 8561   1.224   0.980   5.875 -0.1450 -0.0641  0.0880
   90SAPC   H3R 8562   1.115   0.972   5.856 -0.2388  2.0560 -0.4827
   90SAPC   H3S 8563   1.252   0.948   5.978 -0.2589  1.7105  0.6961
   90SAPC   C24 8564   1.293   0.881   5.777  0.0977 -0.4084  0.0058
   90SAPC   H4R 8565   1.339   0.816   5.855  0.6701  1.2966  1.1509
   90SAPC   H4S 8566   1.387   0.926   5.736 -0.8470  2.2918  0.6065
   90SAPC   C25 8567   1.221   0.808   5.666 -0.1737 -0.3232 -0.3081
   90SAPC   H5R 8568   1.266   0.708   5.656 -0.2237 -0.3378 -0.3842
   90SAPC   C26 8569   1.150   0.865   5.567 -0.5877  0.4854  0.0128
   90SAPC   H6R 8570   1.131   0.797   5.482 -0.2031 -0.1960  0.4634
   90SAPC   C27 8571   1.093   1.001   5.546  0.9051 -0.5869 -0.4708
   90SAPC   H7R 8572   1.086   1.066   5.636  0.1751 -2.1984  0.6738
   90SAPC   H7S 8573   0.989   0.999   5.506 -0.0165 -2.0638  1.8013
   90SAPC   C28 8574   1.195   1.075   5.465  0.0294  0.5354  0.7406
   90SAPC   H8R 8575   1.275   1.128   5.518 -1.1081  1.3973  1.6513
   90SAPC   C29 8576   1.182   1.108   5.334  0.3433 -0.5368  0.3915
   90SAPC   H9R 8577   1.261   1.164   5.281 -1.0400  2.2161  1.0486
   90SAPC  C210 8578   1.079   1.051   5.241  0.4024  0.7407  0.4256
   90SAPC  H10R 8579   1.019   0.978   5.300 -1.2872  1.5185 -0.2907
   90SAPC  H10S 8580   1.133   0.993   5.163 -0.1977  0.7534 -0.0004
   90SAPC  C211 8581   0.989   1.152   5.190  0.0252 -0.6803 -1.1085
   90SAPC  H11R 8582   0.892   1.158   5.243  1.7624  0.0665  2.2446
   90SAPC  C212 8583   1.015   1.239   5.095  0.3890 -0.1327  0.4546
   90SAPC  H12R 8584   0.932   1.304   5.066  0.5944  0.6513  1.5496
   90SAPC  C213 8585   1.136   1.258   5.010 -0.4294  0.4654 -0.3726
   90SAPC  H13R 8586   1.100   1.214   4.914 -0.6368 -0.5919  0.1798
   90SAPC  H13S 8587   1.218   1.189   5.040 -0.0479 -0.2973 -2.8692
   90SAPC  C214 8588   1.180   1.404   4.994 -0.2843  0.8664 -0.4666
   90SAPC  H14R 8589   1.186   1.470   5.082  3.4238  0.7397 -0.4614
   90SAPC  C215 8590   1.239   1.460   4.890 -0.7928 -0.0247 -0.0233
   90SAPC  H15R 8591   1.284   1.560   4.889 -0.9773  0.1050  1.7273
   90SAPC  C216 8592   1.260   1.398   4.751  0.6442 -0.0777  0.2559
   90SAPC  H16R 8593   1.219   1.295   4.749  2.2415 -0.7453  0.4715
   90SAPC  H16S 8594   1.364   1.393   4.712 -0.0011  0.0936 -1.5839
   90SAPC  C217 8595   1.191   1.474   4.631 -0.4492 -0.0133 -0.0515
   90SAPC  H17R 8596   1.090   1.488   4.674 -0.6945 -0.6048 -0.4308
   90SAPC  H17S 8597   1.189   1.403   4.546 -0.4684  0.5440 -0.5215
   90SAPC  C218 8598   1.273   1.599   4.595 -0.0589  0.3682 -1.0569
   90SAPC  H18R 8599   1.375   1.589   4.554  0.5554 -0.5579  0.6073
   90SAPC  H18S 8600   1.285   1.663   4.686 -0.6913  1.0992 -1.4756
   90SAPC  C219 8601   1.206   1.692   4.494 -0.0470  0.3334 -0.8180
   90SAPC  H19R 8602   1.099   1.700   4.523  0.3890 -1.8315  1.7251
   90SAPC  H19S 8603   1.201   1.655   4.389 -0.7887 -0.5991 -0.4558
   90SAPC  C220 8604   1.275   1.834   4.507 -0.0881 -0.0295 -1.2290
   90SAPC  H20R 8605   1.380   1.827   4.469  0.6875 -1.4113  0.9701
   90SAPC  H20S 8606   1.278   1.876   4.610  0.3202 -2.3744 -0.2140
   90SAPC  H20T 8607   1.212   1.906   4.451 -1.9134 -0.4290  0.2107
   90SAPC   C33 8608   1.449   1.726   5.684  0.1644 -0.0200 -0.9153
   90SAPC   H3X 8609   1.418   1.622   5.659 -1.4913  0.4096 -0.7124
   90SAPC   H3Y 8610   1.527   1.721   5.763  1.0162  2.4562 -1.5100
   90SAPC   C34 8611   1.503   1.763   5.551  0.3908  0.3468 -0.0104
   90SAPC   H4X 8612   1.559   1.674   5.518  1.2239  1.0966 -0.6714
   90SAPC   H4Y 8613   1.574   1.848   5.542 -2.6763  2.9972 -1.3027
   90SAPC   C35 8614   1.402   1.794   5.441 -0.1246 -0.3625 -0.3380
   90SAPC   H5X 8615   1.370   1.899   5.459  0.7478 -0.4787  2.2592
   90SAPC   H5Y 8616   1.313   1.729   5.446  1.1489 -2.2966 -1.4007
   90SAPC   C36 8617   1.471   1.780   5.299  0.0233  0.4514  0.6745
   90SAPC   H6X 8618   1.487   1.670   5.292 -2.8834  0.0337 -3.0370
   90SAPC   H6Y 8619   1.575   1.819   5.304  1.8088 -3.2918 -1.7468
   90SAPC   C37 8620   1.404   1.840   5.177  0.5866  0.7600  0.2073
   90SAPC   H7X 8621   1.464   1.820   5.085  0.4315 -1.1026  0.4747
   90SAPC   H7Y 8622   1.392   1.950   5.189  0.6291  1.0793 -2.1864
   90SAPC   C38 8623   1.265   1.768   5.158  0.1251  0.4439 -0.2641
   90SAPC   H8X 8624   1.215   1.778   5.257 -0.9734 -0.5544 -0.6822
   90SAPC   H8Y 8625   1.285   1.661   5.135 -0.7050 -0.2791  2.0654
   90SAPC   C39 8626   1.161   1.832   5.051  0.0329 -0.6355 -0.0106
   90SAPC   H9X 8627   1.216   1.824   4.955  0.6762 -0.3634  0.3225
   90SAPC   H9Y 8628   1.148   1.941   5.069  2.8490 -0.2430  0.1751
   90SAPC  C310 8629   1.023   1.762   5.047 -0.5133  1.1091  0.7679
   90SAPC  H10X 8630   0.966   1.776   5.141 -2.8898  1.8516 -0.7043
   90SAPC  H10Y 8631   1.034   1.653   5.029 -3.0023  1.0811 -1.0381
   90SAPC  C311 8632   0.929   1.836   4.941 -0.4838 -0.0702 -0.0940
   90SAPC  H11X 8633   0.989   1.855   4.849  1.3509 -1.6877  0.7070
   90SAPC  H11Y 8634   0.892   1.930   4.985 -0.0097  0.1342 -0.1277
   90SAPC  C312 8635   0.796   1.748   4.914 -0.2637  0.1870  0.5886
   90SAPC  H12X 8636   0.751   1.719   5.011  0.5728 -1.1859  0.5960
   90SAPC  H12Y 8637   0.831   1.652   4.869  0.3039  1.3447 -1.5760
   90SAPC  C313 8638   0.683   1.804   4.827  0.1976  0.3747 -0.4600
   90SAPC  H13X 8639   0.609   1.722   4.822 -1.1700  1.6471 -1.7977
   90SAPC  H13Y 8640   0.722   1.833   4.727  0.5702  1.6416  0.0347
   90SAPC  C314 8641   0.619   1.924   4.902  0.9120 -0.7038  0.2447
   90SAPC  H14X 8642   0.648   2.026   4.867  1.7219 -0.6004  1.1785
   90SAPC  H14Y 8643   0.662   1.928   5.004 -1.4556  0.9836  1.2596
   90SAPC  C315 8644   0.467   1.913   4.928  0.6838  0.2369  0.0239
   90SAPC  H15X 8645   0.448   1.971   5.020  0.2318 -1.2605  0.9056
   90SAPC  H15Y 8646   0.447   1.805   4.949  3.7971  0.3168  4.8669
   90SAPC  C316 8647   0.378   1.959   4.816 -0.0434  0.1910 -0.0546
   90SAPC  H16X 8648   0.403   1.905   4.722  1.1621 -4.5156  2.6687
   90SAPC  H16Y 8649   0.390   2.069   4.801  0.9975  0.1914  0.6826
   90SAPC  C317 8650   0.226   1.936   4.833 -0.4508  0.0266 -0.1059
   90SAPC  H17X 8651   0.179   1.996   4.752 -0.0559  0.0250 -0.3383
   90SAPC  H17Y 8652   0.189   1.978   4.929 -0.6281  0.0196 -0.1712
   90SAPC  C318 8653   0.183   1.787   4.833  0.3695  0.1605 -0.2718
   90SAPC  H18X 8654   0.231   1.729   4.914  0.4847 -0.0119 -0.4617
   90SAPC  H18Y 8655   0.216   1.728   4.745 -0.2331 -1.0587  0.3029
   90SAPC  H18Z 8656   0.072   1.789   4.839  0.3834  2.2142  0.0544
   91SAPC     N 8657   6.450   2.233   6.552  0.2450 -0.6225 -0.1425
   91SAPC   C12 8658   6.332   2.326   6.593 -0.5456  0.3837  0.5760
   91SAPC  H12A 8659   6.298   2.370   6.501  0.7032 -0.9735 -0.5806
   91SAPC  H12B 8660   6.370   2.410   6.649 -1.1905  1.0785 -0.0116
   91SAPC   C13 8661   6.569   2.316   6.524 -0.5803  0.0119  0.7051
   91SAPC  H13A 8662   6.563   2.368   6.429 -0.7078  0.0909  0.7560
   91SAPC  H13B 8663   6.599   2.379   6.606  0.2366 -1.8673  1.9098
   91SAPC  H13C 8664   6.661   2.263   6.511 -0.9480 -0.3813 -0.3855
   91SAPC   C14 8665   6.487   2.140   6.664 -0.3863  0.8116  0.1270
   91SAPC  H14A 8666   6.406   2.074   6.691  0.2362  0.1701  0.4658
   91SAPC  H14B 8667   6.578   2.085   6.646 -0.2315  1.6550 -1.9355
   91SAPC  H14C 8668   6.518   2.198   6.750  1.4226  0.5973 -0.3361
   91SAPC   C15 8669   6.418   2.158   6.436 -0.1578  0.1882  0.6629
   91SAPC  H15A 8670   6.420   2.221   6.349 -0.0928 -1.9665 -0.9818
   91SAPC  H15B 8671   6.488   2.077   6.421 -0.5355 -0.4004  1.9063
   91SAPC  H15C 8672   6.320   2.116   6.456 -1.0254  1.5997 -0.4151
   91SAPC   C11 8673   6.207   2.269   6.657  0.3344 -0.1461  0.4426
   91SAPC  H11A 8674   6.141   2.356   6.677  3.1265  3.1231 -2.9207
   91SAPC  H11B 8675   6.231   2.222   6.754 -1.5324  0.1867  1.1023
   91SAPC     P 8676   6.034   2.223   6.468 -0.3541 -0.2331 -0.2573
   91SAPC   O13 8677   5.976   2.101   6.412 -0.1826 -0.1392 -0.0064
   91SAPC   O14 8678   5.946   2.321   6.532  0.0456 -0.2229  0.1449
   91SAPC   O12 8679   6.142   2.176   6.574  0.4504 -0.1510 -0.6480
   91SAPC   O11 8680   6.131   2.296   6.369  0.3427  0.1900 -0.6165
   91SAPC    C1 8681   6.088   2.386   6.267  0.2606  0.2283 -0.4348
   91SAPC    HA 8682   5.987   2.429   6.288 -0.1217 -1.2922  1.0428
   91SAPC    HB 8683   6.156   2.473   6.271  1.7112 -0.9145  1.2143
   91SAPC    C2 8684   6.089   2.319   6.128 -0.8966 -0.0764 -0.3583
   91SAPC    HS 8685   6.007   2.244   6.132 -0.1449 -0.8854  0.5178
   91SAPC   O21 8686   6.224   2.259   6.118  0.8357 -0.1736  0.6505
   91SAPC   C21 8687   6.220   2.138   6.077  0.3013 -0.4948  0.0140
   91SAPC   O22 8688   6.126   2.073   6.032 -0.1134  0.4697 -0.3194
   91SAPC   C22 8689   6.362   2.078   6.079 -0.4459 -0.0986 -0.0893
   91SAPC   H2R 8690   6.428   2.139   6.145 -0.9777 -0.0252  0.3771
   91SAPC   H2S 8691   6.352   1.975   6.119  0.8852 -0.5107 -0.7617
   91SAPC    C3 8692   6.071   2.414   6.003 -0.6568  0.3760 -0.5141
   91SAPC    HX 8693   6.153   2.485   6.025 -1.5043  1.1925  0.0671
   91SAPC    HY 8694   5.982   2.478   6.017 -0.7617 -0.1004  1.1450
   91SAPC   O31 8695   6.088   2.349   5.881  0.3444 -0.4457 -0.3194
   91SAPC   C31 8696   5.982   2.283   5.842 -0.1485 -0.0545  0.1275
   91SAPC   O32 8697   5.875   2.272   5.906 -0.3241 -0.0829  0.5821
   91SAPC   C32 8698   6.015   2.239   5.701  1.3819 -0.1309  0.8969
   91SAPC   H2X 8699   6.113   2.186   5.697  1.2168 -0.5874  2.4592
   91SAPC   H2Y 8700   6.032   2.332   5.643  0.1142  0.1580  0.9720
   91SAPC   C23 8701   6.440   2.061   5.950 -0.9665 -0.3961  0.2749
   91SAPC   H3R 8702   6.385   2.001   5.874 -0.1889 -1.0500  0.2133
   91SAPC   H3S 8703   6.522   1.994   5.981 -1.8311 -1.2863  0.7044
   91SAPC   C24 8704   6.493   2.187   5.884 -0.5507 -0.8427  0.0529
   91SAPC   H4R 8705   6.573   2.227   5.950  0.1931 -2.1927 -0.0012
   91SAPC   H4S 8706   6.414   2.264   5.872 -0.0753 -0.5021 -1.1095
   91SAPC   C25 8707   6.565   2.161   5.752  0.0566 -0.9539 -0.2540
   91SAPC   H5R 8708   6.652   2.097   5.770  0.2283 -0.5558  0.3617
   91SAPC   C26 8709   6.542   2.213   5.634 -0.5489 -0.5022 -0.1266
   91SAPC   H6R 8710   6.605   2.168   5.556  2.2372 -0.1539  1.7654
   91SAPC   C27 8711   6.422   2.300   5.589 -0.2489  0.0099  0.0393
   91SAPC   H7R 8712   6.450   2.405   5.613  1.7091 -0.4528 -0.0102
   91SAPC   H7S 8713   6.339   2.275   5.658 -1.3343  2.9676 -0.0266
   91SAPC   C28 8714   6.361   2.283   5.454  0.4167  0.0424  0.1206
   91SAPC   H8R 8715   6.287   2.202   5.447 -0.7193  0.9812  0.8985
   91SAPC   C29 8716   6.416   2.332   5.344 -0.2151 -0.2650  0.0730
   91SAPC   H9R 8717   6.353   2.333   5.254 -2.7583 -0.9240  1.7665
   91SAPC  C210 8718   6.535   2.424   5.338  0.5479 -0.3731 -0.4153
   91SAPC  H10R 8719   6.620   2.361   5.373 -0.2089 -0.0273  2.2962
   91SAPC  H10S 8720   6.523   2.502   5.416 -2.7761 -1.9665  0.8598
   91SAPC  C211 8721   6.557   2.494   5.203  0.4589  0.6829  0.3468
   91SAPC  H11R 8722   6.645   2.460   5.148 -0.0437 -0.0578 -0.0174
   91SAPC  C212 8723   6.499   2.604   5.176  0.0389 -0.1163  0.6771
   91SAPC  H12R 8724   6.517   2.643   5.075 -0.4858  0.2177  0.7062
   91SAPC  C213 8725   6.386   2.664   5.261  0.2301  0.0541  0.2923
   91SAPC  H13R 8726   6.415   2.676   5.368  0.3290  3.6710 -0.0088
   91SAPC  H13S 8727   6.291   2.607   5.253  1.0155 -1.2445 -0.1899
   91SAPC  C214 8728   6.369   2.810   5.211 -0.2654  0.0376 -0.2702
   91SAPC  H14R 8729   6.428   2.895   5.248 -1.5665  1.3140 -1.0242
   91SAPC  C215 8730   6.296   2.831   5.101 -0.2867 -0.1985  0.7838
   91SAPC  H15R 8731   6.305   2.934   5.065  0.9606  0.2111  2.1741
   91SAPC  C216 8732   6.216   2.733   5.015  0.1433  0.1700  0.5619
   91SAPC  H16R 8733   6.116   2.737   5.063  1.2488 -1.2871  3.2374
   91SAPC  H16S 8734   6.247   2.627   5.020  0.8526  0.1425 -2.4717
   91SAPC  C217 8735   6.224   2.764   4.859 -0.1286  0.2175 -0.9270
   91SAPC  H17R 8736   6.188   2.868   4.842  3.0362  1.4182 -0.8776
   91SAPC  H17S 8737   6.155   2.700   4.800 -1.7612  0.6318  0.4210
   91SAPC  C218 8738   6.368   2.766   4.806  0.4389  0.1682  0.1332
   91SAPC  H18R 8739   6.424   2.672   4.822  2.2637  1.0327 -0.7731
   91SAPC  H18S 8740   6.425   2.845   4.860 -2.4570  2.0000  0.7775
   91SAPC  C219 8741   6.364   2.799   4.663 -0.1382 -0.1624 -0.0867
   91SAPC  H19R 8742   6.302   2.890   4.653  1.7077  1.0840 -0.7371
   91SAPC  H19S 8743   6.308   2.723   4.604 -0.0853 -0.0892 -0.2307
   91SAPC  C220 8744   6.496   2.812   4.597  0.0506  0.5677 -0.0410
   91SAPC  H20R 8745   6.549   2.905   4.630 -0.9035  0.9284  0.5163
   91SAPC  H20S 8746   6.490   2.814   4.486 -0.6351 -3.9336 -0.2738
   91SAPC  H20T 8747   6.556   2.720   4.611  1.4067  1.2926 -0.8817
   91SAPC   C33 8748   5.895   2.155   5.639 -0.0148 -1.3130  0.5303
   91SAPC   H3X 8749   5.801   2.213   5.648  0.1500 -0.9350 -0.1370
   91SAPC   H3Y 8750   5.879   2.057   5.688 -2.0190 -1.0092  0.5942
   91SAPC   C34 8751   5.911   2.121   5.485  0.1154 -0.5870 -0.4032
   91SAPC   H4X 8752   5.844   2.034   5.467 -0.0151 -0.5557 -0.0722
   91SAPC   H4Y 8753   6.013   2.088   5.457 -0.0387 -2.1839  0.7445
   91SAPC   C35 8754   5.879   2.239   5.393 -0.1784 -0.1243  0.4447
   91SAPC   H5X 8755   5.952   2.321   5.414 -0.3070  0.2567 -0.5423
   91SAPC   H5Y 8756   5.785   2.290   5.422 -0.5945 -1.4263  1.4509
   91SAPC   C36 8757   5.853   2.218   5.243 -0.1325  0.2216  0.0025
   91SAPC   H6X 8758   5.812   2.308   5.193 -0.6649  0.0948  0.1974
   91SAPC   H6Y 8759   5.767   2.149   5.227 -0.5588  0.8820 -0.6102
   91SAPC   C37 8760   5.979   2.182   5.162  0.8542 -0.1721 -0.1955
   91SAPC   H7X 8761   6.023   2.086   5.195 -0.0996  0.2131  2.4901
   91SAPC   H7Y 8762   6.050   2.265   5.181 -0.0727  1.0558 -1.8110
   91SAPC   C38 8763   5.949   2.159   5.015 -0.3378  0.3151  0.6328
   91SAPC   H8X 8764   5.885   2.239   4.970 -2.3938 -2.4767 -1.8641
   91SAPC   H8Y 8765   5.894   2.064   4.996  0.3681  0.0872 -0.3608
   91SAPC   C39 8766   6.073   2.150   4.923  0.0364 -0.5460  0.5670
   91SAPC   H9X 8767   6.064   2.105   4.822  3.3473 -0.9666  0.3383
   91SAPC   H9Y 8768   6.150   2.097   4.983  0.3041 -2.4420 -1.3273
   91SAPC  C310 8769   6.142   2.293   4.908 -0.1148  0.5768 -0.3211
   91SAPC  H10X 8770   6.125   2.355   4.998  2.3366  3.3829 -1.6092
   91SAPC  H10Y 8771   6.091   2.343   4.823 -1.3409  0.4135  0.2980
   91SAPC  C311 8772   6.291   2.277   4.858 -0.3047  0.1046 -0.2304
   91SAPC  H11X 8773   6.268   2.236   4.757 -2.0392  0.4182 -0.0020
   91SAPC  H11Y 8774   6.354   2.207   4.916 -1.6780 -0.0568  1.1522
   91SAPC  C312 8775   6.368   2.414   4.852 -0.3705 -0.7372  0.0101
   91SAPC  H12X 8776   6.370   2.445   4.959  0.2976  0.1891 -0.2683
   91SAPC  H12Y 8777   6.325   2.489   4.784  1.8248 -0.3369 -1.0310
   91SAPC  C313 8778   6.512   2.404   4.802  0.4863  0.2314  0.2015
   91SAPC  H13X 8779   6.556   2.312   4.846  0.6907  0.2225 -0.0220
   91SAPC  H13Y 8780   6.570   2.486   4.848  1.4172 -0.3854  0.1444
   91SAPC  C314 8781   6.529   2.404   4.656  0.4694 -0.6274  0.9696
   91SAPC  H14X 8782   6.471   2.492   4.621 -3.8093 -3.3458  0.3770
   91SAPC  H14Y 8783   6.475   2.314   4.618  0.0471  0.3962 -1.0273
   91SAPC  C315 8784   6.669   2.384   4.595  0.9787  0.0804  0.3186
   91SAPC  H15X 8785   6.689   2.277   4.617  2.4506  0.2049 -0.2437
   91SAPC  H15Y 8786   6.746   2.438   4.655 -0.4030  1.2494  1.0856
   91SAPC  C316 8787   6.662   2.429   4.443 -0.1674  0.3952  0.0068
   91SAPC  H16X 8788   6.558   2.462   4.421 -0.6009 -1.5287 -1.0676
   91SAPC  H16Y 8789   6.684   2.342   4.378 -1.0066  1.2980 -1.5576
   91SAPC  C317 8790   6.752   2.545   4.396  0.2629  0.0366 -0.2359
   91SAPC  H17X 8791   6.852   2.506   4.368  0.2477  0.3439 -0.7351
   91SAPC  H17Y 8792   6.766   2.617   4.480 -0.4289 -1.2298  0.9999
   91SAPC  C318 8793   6.702   2.618   4.277 -0.0708  0.4791  0.3702
   91SAPC  H18X 8794   6.619   2.685   4.309 -1.7617 -0.6187 -1.4435
   91SAPC  H18Y 8795   6.657   2.544   4.208 -0.5706  0.7208  0.4331
   91SAPC  H18Z 8796   6.786   2.675   4.232 -0.9737  1.8845  0.3879
   92SAPC     N 8797   5.402   2.202   6.937 -0.5189  0.7428 -0.3472
   92SAPC   C12 8798   5.478   2.233   6.802  0.6594  0.2517 -0.3610
   92SAPC  H12A 8799   5.407   2.206   6.726  0.6647 -1.7738  0.3086
   92SAPC  H12B 8800   5.551   2.154   6.791  1.9096  1.4481 -0.9987
   92SAPC   C13 8801   5.306   2.310   6.962 -0.0317 -0.2006 -0.3540
   92SAPC  H13A 8802   5.264   2.312   7.061 -0.2348  0.2371 -0.4491
   92SAPC  H13B 8803   5.361   2.402   6.952  0.2163 -0.2734  0.3153
   92SAPC  H13C 8804   5.228   2.303   6.888 -1.2820  1.4209  0.7572
   92SAPC   C14 8805   5.326   2.072   6.944  0.0680 -0.1365  0.2912
   92SAPC  H14A 8806   5.392   1.987   6.934  2.2224  1.6390 -1.8711
   92SAPC  H14B 8807   5.266   2.058   7.033 -1.0664 -2.2318 -0.7280
   92SAPC  H14C 8808   5.261   2.054   6.860  0.9283 -0.9756 -0.2162
   92SAPC   C15 8809   5.503   2.199   7.054 -0.0599 -0.1219 -0.0938
   92SAPC  H15A 8810   5.562   2.290   7.057  2.0397 -1.3278 -1.8519
   92SAPC  H15B 8811   5.447   2.195   7.147 -1.4960  1.3963 -0.8492
   92SAPC  H15C 8812   5.568   2.113   7.044  1.4041  0.8931  0.3174
   92SAPC   C11 8813   5.539   2.363   6.777  0.3886  0.0129 -0.2613
   92SAPC  H11A 8814   5.459   2.431   6.739  0.0108  0.0102  0.5091
   92SAPC  H11B 8815   5.611   2.343   6.694  1.2108 -2.5044  0.9542
   92SAPC     P 8816   5.589   2.562   6.945  0.3437  0.0524 -0.1959
   92SAPC   O13 8817   5.529   2.556   7.079  0.3264  0.0871 -0.2963
   92SAPC   O14 8818   5.724   2.628   6.940 -0.3997 -0.0058  0.3698
   92SAPC   O12 8819   5.609   2.421   6.887  0.4040 -0.2255  0.7390
   92SAPC   O11 8820   5.492   2.634   6.838  0.0653  0.1138  0.4321
   92SAPC    C1 8821   5.541   2.666   6.706 -0.1871  0.0186 -0.0701
   92SAPC    HA 8822   5.644   2.704   6.723  0.3607 -1.6629  0.6828
   92SAPC    HB 8823   5.537   2.580   6.636  1.7018 -0.2273  0.0629
   92SAPC    C2 8824   5.464   2.784   6.646  0.8729 -0.6928  0.4871
   92SAPC    HS 8825   5.454   2.856   6.730  0.8519  0.5479 -0.5422
   92SAPC   O21 8826   5.330   2.748   6.603  0.1611  0.2044 -0.0139
   92SAPC   C21 8827   5.253   2.844   6.553  0.2279 -0.1418  0.6630
   92SAPC   O22 8828   5.269   2.966   6.556  1.0734  0.3451  0.1598
   92SAPC   C22 8829   5.143   2.777   6.473  0.3560 -0.2735  0.1016
   92SAPC   H2R 8830   5.182   2.677   6.441  1.0259  0.0923 -0.2399
   92SAPC   H2S 8831   5.063   2.753   6.547  0.9895 -1.1328  0.5179
   92SAPC    C3 8832   5.536   2.876   6.540 -0.2464 -0.2179 -0.3223
   92SAPC    HX 8833   5.641   2.868   6.578  0.3803  0.0747 -1.9009
   92SAPC    HY 8834   5.512   2.985   6.543  1.8670  0.3044 -0.5766
   92SAPC   O31 8835   5.521   2.820   6.401  0.2705 -0.5803  0.1816
   92SAPC   C31 8836   5.603   2.725   6.358 -0.0063  0.2365 -0.1131
   92SAPC   O32 8837   5.707   2.693   6.414  0.3822 -0.3013 -0.3956
   92SAPC   C32 8838   5.548   2.651   6.233 -0.3633 -0.1318  0.5138
   92SAPC   H2X 8839   5.452   2.704   6.213 -0.8857  0.1771  3.3530
   92SAPC   H2Y 8840   5.527   2.553   6.279 -0.8214  0.0048  0.5985
   92SAPC   C23 8841   5.088   2.876   6.362 -0.3338 -0.0811 -0.3153
   92SAPC   H3R 8842   5.184   2.906   6.314  1.1332 -1.6807  1.4700
   92SAPC   H3S 8843   5.052   2.967   6.415  0.2525 -0.5123  0.8597
   92SAPC   C24 8844   4.986   2.823   6.270 -0.0542 -0.5065  0.1065
   92SAPC   H4R 8845   4.974   2.893   6.185 -0.2533  0.5978  1.0289
   92SAPC   H4S 8846   4.886   2.819   6.316 -0.3863 -0.9055 -0.6283
   92SAPC   C25 8847   5.028   2.673   6.231 -0.1813  0.2118 -0.0129
   92SAPC   H5R 8848   5.003   2.586   6.293 -1.1801  0.3805 -0.1636
   92SAPC   C26 8849   5.099   2.649   6.124 -0.2024 -0.0925  0.1446
   92SAPC   H6R 8850   5.128   2.546   6.098 -1.2387 -0.6386  1.0617
   92SAPC   C27 8851   5.163   2.757   6.038  0.2353  0.8299 -0.1699
   92SAPC   H7R 8852   5.261   2.711   6.012  0.2569  0.3753  0.6695
   92SAPC   H7S 8853   5.181   2.855   6.087  0.6290 -0.7806  3.2293
   92SAPC   C28 8854   5.067   2.782   5.921  0.9902  0.2886 -0.2710
   92SAPC   H8R 8855   4.962   2.790   5.956  0.6712  2.7291 -1.5776
   92SAPC   C29 8856   5.092   2.809   5.796 -0.2188  0.2599  0.2593
   92SAPC   H9R 8857   5.015   2.811   5.717  1.3404 -3.3525 -1.6032
   92SAPC  C210 8858   5.227   2.804   5.722  0.3369  0.3865 -0.8270
   92SAPC  H10R 8859   5.313   2.801   5.792  2.0260 -1.4292 -2.8306
   92SAPC  H10S 8860   5.248   2.895   5.662 -2.2526  0.4074 -1.8711
   92SAPC  C211 8861   5.242   2.688   5.627  0.0392 -0.2133  0.6388
   92SAPC  H11R 8862   5.261   2.592   5.675  0.0640 -0.0922  0.8737
   92SAPC  C212 8863   5.221   2.676   5.494  0.3784 -0.1810  0.0403
   92SAPC  H12R 8864   5.250   2.580   5.448 -1.2104 -0.1222 -1.1581
   92SAPC  C213 8865   5.195   2.795   5.405 -0.7602  0.1621  0.4826
   92SAPC  H13R 8866   5.152   2.882   5.458  0.1120  1.0656 -0.2614
   92SAPC  H13S 8867   5.120   2.777   5.325  0.1031 -2.3326  0.1300
   92SAPC  C214 8868   5.323   2.833   5.331 -0.1384 -0.2758  0.4054
   92SAPC  H14R 8869   5.370   2.923   5.374  1.3998 -0.0549 -1.6024
   92SAPC  C215 8870   5.386   2.776   5.228  0.0105 -0.2997  0.3640
   92SAPC  H15R 8871   5.486   2.807   5.193 -0.5767  1.7550  0.3474
   92SAPC  C216 8872   5.329   2.655   5.162 -0.1911 -0.0044 -0.0759
   92SAPC  H16R 8873   5.241   2.669   5.096  0.1299 -1.2802 -0.8075
   92SAPC  H16S 8874   5.309   2.586   5.247 -0.1214  0.6836  0.5082
   92SAPC  C217 8875   5.425   2.604   5.059 -0.5571 -0.1383 -0.2065
   92SAPC  H17R 8876   5.516   2.565   5.110 -0.3827 -2.2040 -1.9102
   92SAPC  H17S 8877   5.452   2.678   4.981 -0.0580  2.1800  2.0280
   92SAPC  C218 8878   5.361   2.483   4.983 -0.1900  0.4703 -0.3516
   92SAPC  H18R 8879   5.266   2.516   4.937 -0.6760  1.3868  1.2099
   92SAPC  H18S 8880   5.330   2.416   5.066 -0.6985  0.3850 -0.6108
   92SAPC  C219 8881   5.447   2.424   4.869  0.1156 -0.4375  0.2917
   92SAPC  H19R 8882   5.508   2.497   4.811  1.4507 -2.1346 -0.5347
   92SAPC  H19S 8883   5.374   2.385   4.796  0.3016  1.6976 -1.1062
   92SAPC  C220 8884   5.544   2.322   4.908  0.1517 -0.1303 -0.9085
   92SAPC  H20R 8885   5.490   2.236   4.953 -0.0962  0.0572 -0.8515
   92SAPC  H20S 8886   5.622   2.359   4.978 -3.2576 -0.9631  3.8687
   92SAPC  H20T 8887   5.608   2.277   4.828  2.0176  0.1087  0.3780
   92SAPC   C33 8888   5.643   2.649   6.104  0.4286 -0.4151 -1.2431
   92SAPC   H3X 8889   5.741   2.603   6.130  0.7529 -0.0564 -1.7949
   92SAPC   H3Y 8890   5.652   2.755   6.070  0.2359  0.3389  0.9381
   92SAPC   C34 8891   5.585   2.569   5.990  0.0979  0.6018 -0.2724
   92SAPC   H4X 8892   5.480   2.600   5.971  0.0214 -0.1727 -1.2224
   92SAPC   H4Y 8893   5.582   2.463   6.023  2.0823  0.5902 -0.0042
   92SAPC   C35 8894   5.667   2.565   5.860  0.3822  0.8760  0.2370
   92SAPC   H5X 8895   5.761   2.507   5.876 -1.0343 -1.4013  0.6730
   92SAPC   H5Y 8896   5.698   2.665   5.823 -0.0921  0.7998 -0.3950
   92SAPC   C36 8897   5.601   2.500   5.752  0.5761 -0.0531 -0.0960
   92SAPC   H6X 8898   5.499   2.535   5.727 -0.3517 -0.5893  2.6660
   92SAPC   H6Y 8899   5.589   2.391   5.772  1.0769 -0.1041 -0.0635
   92SAPC   C37 8900   5.670   2.523   5.621  0.5070  0.4399 -0.4925
   92SAPC   H7X 8901   5.753   2.450   5.627 -0.1433 -0.2929 -0.2804
   92SAPC   H7Y 8902   5.714   2.624   5.608 -3.0844  2.2363  0.0311
   92SAPC   C38 8903   5.572   2.498   5.507 -0.4841 -0.5031  0.4018
   92SAPC   H8X 8904   5.617   2.524   5.409  0.8651  0.1930  1.1818
   92SAPC   H8Y 8905   5.492   2.575   5.511  0.1090  0.0927  0.8761
   92SAPC   C39 8906   5.515   2.355   5.508  0.3984  0.6606  0.2041
   92SAPC   H9X 8907   5.446   2.350   5.595  0.4054  3.0342  0.4140
   92SAPC   H9Y 8908   5.601   2.287   5.527  0.7059  1.2440  0.9572
   92SAPC  C310 8909   5.424   2.313   5.386 -0.6220  0.5783 -0.2960
   92SAPC  H10X 8910   5.480   2.349   5.297 -0.7112  0.9012 -0.2224
   92SAPC  H10Y 8911   5.330   2.372   5.388 -0.8087  0.3665 -1.9550
   92SAPC  C311 8912   5.379   2.171   5.390 -0.1031  0.2553  0.3701
   92SAPC  H11X 8913   5.342   2.144   5.491 -1.8102 -0.4113 -0.3914
   92SAPC  H11Y 8914   5.463   2.104   5.359 -0.8674 -0.7737  0.4699
   92SAPC  C312 8915   5.269   2.130   5.286  0.2674 -0.4774 -0.5029
   92SAPC  H12X 8916   5.286   2.152   5.179 -0.2521 -0.8201 -0.6596
   92SAPC  H12Y 8917   5.175   2.181   5.317  0.9445 -0.4737  1.7532
   92SAPC  C313 8918   5.240   1.982   5.304  0.0504  0.5530  0.2321
   92SAPC  H13X 8919   5.229   1.949   5.410  0.7177  0.8190  0.3878
   92SAPC  H13Y 8920   5.331   1.928   5.271  0.3092 -0.7375  2.7780
   92SAPC  C314 8921   5.117   1.933   5.220 -0.9073 -1.1731 -0.3066
   92SAPC  H14X 8922   5.034   2.003   5.242  0.2966  0.0448  0.5133
   92SAPC  H14Y 8923   5.083   1.831   5.249  0.8450 -2.2486 -1.7774
   92SAPC  C315 8924   5.144   1.926   5.069 -0.1863  0.7158  0.2577
   92SAPC  H15X 8925   5.230   1.856   5.062 -0.7341  0.1582 -1.3860
   92SAPC  H15Y 8926   5.170   2.023   5.021  0.8133 -0.0140 -0.7445
   92SAPC  C316 8927   5.026   1.855   4.997  0.7246 -0.3423  0.2374
   92SAPC  H16X 8928   4.938   1.922   4.985  0.5422 -0.2897  1.6483
   92SAPC  H16Y 8929   4.994   1.777   5.069 -2.1306  2.2202  2.0101
   92SAPC  C317 8930   5.062   1.779   4.870  0.7459  0.4234  0.3405
   92SAPC  H17X 8931   5.152   1.720   4.897 -1.0129 -2.5282  0.2321
   92SAPC  H17Y 8932   5.090   1.836   4.779  1.4889 -0.8369 -0.2553
   92SAPC  C318 8933   4.961   1.670   4.821 -0.2201 -0.4600 -0.3639
   92SAPC  H18X 8934   4.877   1.716   4.764 -0.9505 -1.4724 -0.1239
   92SAPC  H18Y 8935   4.928   1.613   4.910 -3.3279 -0.3585 -1.3279
   92SAPC  H18Z 8936   5.014   1.600   4.753  0.8014 -0.0657  0.0185
   93SAPC     N 8937   1.227   3.346   7.089  0.4644  0.3052  0.8585
   93SAPC   C12 8938   1.225   3.365   6.940  0.4063 -0.2137  0.0108
   93SAPC  H12A 8939   1.312   3.421   6.909  1.1627 -1.9825 -1.2257
   93SAPC  H12B 8940   1.139   3.426   6.917  0.1187 -0.2140  1.0683
   93SAPC   C13 8941   1.335   3.255   7.143  0.2691 -0.7037  0.2662
   93SAPC  H13A 8942   1.331   3.238   7.250 -2.5281 -2.3243 -0.0111
   93SAPC  H13B 8943   1.332   3.159   7.094  0.0525 -0.6083  0.0932
   93SAPC  H13C 8944   1.437   3.278   7.118  0.8867 -2.4141  1.0675
   93SAPC   C14 8945   1.239   3.475   7.163  0.6208 -0.0125  0.3499
   93SAPC  H14A 8946   1.168   3.547   7.124  1.2914  0.3191 -0.2819
   93SAPC  H14B 8947   1.236   3.465   7.270  3.1657 -0.4236  0.4374
   93SAPC  H14C 8948   1.337   3.518   7.149  0.5887  1.1066  2.9185
   93SAPC   C15 8949   1.092   3.285   7.129  0.3405 -0.5126 -0.5159
   93SAPC  H15A 8950   1.095   3.265   7.235 -1.3579 -0.4924 -0.4365
   93SAPC  H15B 8951   1.012   3.357   7.124  2.7790  2.5517  1.0406
   93SAPC  H15C 8952   1.059   3.194   7.080  1.1194  0.7358 -3.6257
   93SAPC   C11 8953   1.207   3.234   6.856 -0.0242  0.3017 -0.1610
   93SAPC  H11A 8954   1.293   3.165   6.871 -0.2695 -0.8054 -3.2233
   93SAPC  H11B 8955   1.225   3.267   6.752  3.0337  1.4375  0.6397
   93SAPC     P 8956   0.955   3.237   6.798 -0.0294 -0.0451 -0.1186
   93SAPC   O13 8957   0.843   3.143   6.823  0.5766  0.3300 -0.1941
   93SAPC   O14 8958   0.936   3.380   6.842 -0.3367 -0.3756  0.1372
   93SAPC   O12 8959   1.075   3.180   6.874 -0.4075 -0.2081 -0.0575
   93SAPC   O11 8960   1.005   3.229   6.649  0.6644  0.1031 -0.0393
   93SAPC    C1 8961   1.039   3.103   6.593 -0.0609 -0.7624  0.3827
   93SAPC    HA 8962   1.147   3.079   6.599 -0.2880 -1.4354  3.3509
   93SAPC    HB 8963   0.998   3.013   6.645  0.8175 -1.2182  0.3035
   93SAPC    C2 8964   1.008   3.111   6.438  0.1308  1.1487  0.1549
   93SAPC    HS 8965   1.070   3.029   6.395 -0.8721  0.6221 -0.2970
   93SAPC   O21 8966   1.028   3.237   6.385  0.4336  0.4802 -0.1623
   93SAPC   C21 8967   1.162   3.264   6.366 -0.3132  0.0764 -0.2336
   93SAPC   O22 8968   1.252   3.186   6.381 -0.2645  0.0498  0.1523
   93SAPC   C22 8969   1.171   3.397   6.284 -0.0903 -0.1713 -0.2042
   93SAPC   H2R 8970   1.074   3.409   6.232 -0.8119 -1.5375  0.7628
   93SAPC   H2S 8971   1.184   3.473   6.364 -2.1589 -0.5235  0.5126
   93SAPC    C3 8972   0.866   3.066   6.415  0.2679  0.1044  0.4846
   93SAPC    HX 8973   0.808   3.143   6.471  0.1124 -0.4829  1.1530
   93SAPC    HY 8974   0.844   2.964   6.456  0.4008 -0.1898 -0.1680
   93SAPC   O31 8975   0.836   3.076   6.272 -1.0561 -0.5025 -0.0545
   93SAPC   C31 8976   0.896   2.983   6.200  0.0428 -0.9808 -0.2818
   93SAPC   O32 8977   0.963   2.892   6.246  0.2281  0.6014 -0.0202
   93SAPC   C32 8978   0.863   2.996   6.057 -0.1186  0.2064  0.8783
   93SAPC   H2X 8979   0.752   2.992   6.059 -0.1713  1.4078  1.0690
   93SAPC   H2Y 8980   0.895   2.913   5.991  0.0488  2.1056 -1.5833
   93SAPC   C23 8981   1.282   3.390   6.177  1.0935 -0.2389  0.5673
   93SAPC   H3R 8982   1.372   3.344   6.222  0.3490 -0.0619  2.2971
   93SAPC   H3S 8983   1.324   3.491   6.160  0.7006  0.0254  1.1360
   93SAPC   C24 8984   1.243   3.325   6.043 -0.1208 -0.1164 -0.2690
   93SAPC   H4R 8985   1.174   3.238   6.054  0.8931 -1.1067 -1.2946
   93SAPC   H4S 8986   1.339   3.282   6.007  0.0834  1.0779 -1.1967
   93SAPC   C25 8987   1.187   3.411   5.932  0.5636 -0.9153 -0.3060
   93SAPC   H5R 8988   1.086   3.453   5.950  1.4415  1.7669 -1.1195
   93SAPC   C26 8989   1.235   3.420   5.808 -0.4419  0.0661  0.3449
   93SAPC   H6R 8990   1.185   3.491   5.740 -1.3600 -2.6899 -2.0946
   93SAPC   C27 8991   1.372   3.359   5.767  0.6655  0.2426  0.3129
   93SAPC   H7R 8992   1.430   3.302   5.842  2.2386 -0.5080 -1.4035
   93SAPC   H7S 8993   1.440   3.447   5.768  2.5890 -1.2050  0.3090
   93SAPC   C28 8994   1.373   3.277   5.641 -0.2239 -0.5870 -0.0055
   93SAPC   H8R 8995   1.360   3.343   5.555 -3.0760  0.2446  0.9518
   93SAPC   C29 8996   1.396   3.144   5.636 -0.4624 -0.2511  0.5316
   93SAPC   H9R 8997   1.384   3.098   5.537  0.5397  1.4342 -0.4305
   93SAPC  C210 8998   1.408   3.047   5.748 -0.2811  1.3578  0.4156
   93SAPC  H10R 8999   1.463   3.085   5.836  0.1265  1.3103  0.1878
   93SAPC  H10S 9000   1.466   2.960   5.708 -0.7558  1.5760 -0.8118
   93SAPC  C211 9001   1.273   3.002   5.807 -0.3440 -0.0808 -0.5063
   93SAPC  H11R 9002   1.211   3.079   5.854 -1.3527 -0.4465 -1.2038
   93SAPC  C212 9003   1.206   2.877   5.791 -0.3902  0.2902 -1.1145
   93SAPC  H12R 9004   1.103   2.865   5.825 -0.3140  1.2519 -0.4929
   93SAPC  C213 9005   1.266   2.755   5.727 -0.0207  0.0336  0.6508
   93SAPC  H13R 9006   1.313   2.794   5.634  0.9086 -2.0415  0.1873
   93SAPC  H13S 9007   1.187   2.681   5.702 -0.9458  0.9609  0.7550
   93SAPC  C214 9008   1.374   2.683   5.808  0.8003  0.2943 -0.2097
   93SAPC  H14R 9009   1.462   2.748   5.822  2.1935 -1.8145  1.6445
   93SAPC  C215 9010   1.371   2.566   5.872 -0.0726 -0.6621  0.6314
   93SAPC  H15R 9011   1.459   2.531   5.928 -0.1922 -0.0418  1.2185
   93SAPC  C216 9012   1.262   2.466   5.867 -0.5488 -0.0548 -0.3879
   93SAPC  H16R 9013   1.309   2.376   5.821  0.0950 -0.9668  1.9082
   93SAPC  H16S 9014   1.186   2.483   5.788 -0.9955 -0.9759 -0.1803
   93SAPC  C217 9015   1.205   2.432   5.998 -0.0659  0.0424 -0.5539
   93SAPC  H17R 9016   1.145   2.518   6.036  1.7261  0.3071  1.9374
   93SAPC  H17S 9017   1.282   2.418   6.076 -0.5150  0.9287  0.0721
   93SAPC  C218 9018   1.110   2.313   5.979  0.3514  0.7779 -0.3381
   93SAPC  H18R 9019   1.165   2.244   5.910  1.5458  2.6774 -1.3725
   93SAPC  H18S 9020   1.018   2.321   5.916  1.0380  0.1073 -1.4756
   93SAPC  C219 9021   1.078   2.232   6.111  0.3330  0.4789 -0.0927
   93SAPC  H19R 9022   0.973   2.200   6.094  0.4675  1.5349 -3.7381
   93SAPC  H19S 9023   1.084   2.299   6.199  0.6511 -0.4727  0.6297
   93SAPC  C220 9024   1.171   2.110   6.142  0.6734  0.0625 -0.1263
   93SAPC  H20R 9025   1.146   2.048   6.231  2.3225 -0.1893  0.1956
   93SAPC  H20S 9026   1.278   2.139   6.148  1.3312 -1.8322 -1.5641
   93SAPC  H20T 9027   1.174   2.038   6.057  1.5857  1.1502 -1.0493
   93SAPC   C33 9028   0.897   3.138   5.999  0.0311 -0.4166 -0.0975
   93SAPC   H3X 9029   1.006   3.141   5.980 -0.1151  0.4649 -0.8004
   93SAPC   H3Y 9030   0.876   3.214   6.077  1.2973 -0.6519  0.5103
   93SAPC   C34 9031   0.821   3.169   5.867 -0.5575  0.0294  0.5554
   93SAPC   H4X 9032   0.724   3.201   5.911 -1.7459 -0.4688 -1.5639
   93SAPC   H4Y 9033   0.800   3.076   5.810 -0.9496  1.2046 -1.2919
   93SAPC   C35 9034   0.890   3.269   5.778  0.0372  0.2838 -0.0860
   93SAPC   H5X 9035   0.991   3.231   5.752  0.9804  2.4336  0.2340
   93SAPC   H5Y 9036   0.905   3.365   5.831 -0.7508 -0.2436  1.1339
   93SAPC   C36 9037   0.807   3.292   5.653  0.1464 -0.0870 -0.4381
   93SAPC   H6X 9038   0.713   3.339   5.689 -0.6551 -2.2478  0.4706
   93SAPC   H6Y 9039   0.788   3.195   5.602  0.4298 -1.7479  2.3812
   93SAPC   C37 9040   0.890   3.381   5.559  0.7011 -0.4321  0.0987
   93SAPC   H7X 9041   0.975   3.315   5.531 -0.2451 -1.5238 -0.2767
   93SAPC   H7Y 9042   0.914   3.473   5.617 -2.6555  1.3992 -1.1406
   93SAPC   C38 9043   0.820   3.420   5.431  0.4257 -0.9855  0.5627
   93SAPC   H8X 9044   0.750   3.502   5.458  2.2881  0.7172  0.4515
   93SAPC   H8Y 9045   0.749   3.340   5.400  1.3454 -0.5680 -3.0798
   93SAPC   C39 9046   0.892   3.472   5.306 -0.1369 -0.0298 -0.3194
   93SAPC   H9X 9047   0.971   3.396   5.292 -1.3628 -1.5596  0.7054
   93SAPC   H9Y 9048   0.936   3.574   5.313 -1.6679  0.7776 -1.7046
   93SAPC  C310 9049   0.814   3.475   5.184  1.0086 -0.4700  0.4698
   93SAPC  H10X 9050   0.748   3.563   5.174  2.3925  0.4707 -0.8051
   93SAPC  H10Y 9051   0.730   3.402   5.188 -0.5916  1.3410  0.9479
   93SAPC  C311 9052   0.893   3.457   5.057  0.5756 -0.2093 -1.0341
   93SAPC  H11X 9053   0.996   3.423   5.078  0.2807  0.3149  1.5452
   93SAPC  H11Y 9054   0.890   3.555   5.003  1.6450 -0.3019 -1.2855
   93SAPC  C312 9055   0.827   3.360   4.959 -0.8214 -0.0524  0.2577
   93SAPC  H12X 9056   0.854   3.405   4.861  0.4789  1.7301  1.3599
   93SAPC  H12Y 9057   0.717   3.353   4.973 -1.1081  2.9818  0.3061
   93SAPC  C313 9058   0.887   3.211   4.960  1.0740  0.2899  0.4604
   93SAPC  H13X 9059   0.847   3.165   5.053 -1.6309  0.8117 -0.3426
   93SAPC  H13Y 9060   0.997   3.212   4.975  1.0142  1.7880  1.0256
   93SAPC  C314 9061   0.835   3.134   4.833  0.0401  0.5532  0.5245
   93SAPC  H14X 9062   0.894   3.165   4.744 -2.6256 -0.1584 -1.6291
   93SAPC  H14Y 9063   0.727   3.146   4.812  0.4710  1.4946 -1.3903
   93SAPC  C315 9064   0.855   2.981   4.858  0.7488  0.2023  0.2045
   93SAPC  H15X 9065   0.775   2.944   4.927  0.6637 -0.5874 -0.2995
   93SAPC  H15Y 9066   0.955   2.977   4.906  0.9641  1.3297 -0.1227
   93SAPC  C316 9067   0.857   2.890   4.740  0.4596 -0.6189  0.4529
   93SAPC  H16X 9068   0.909   2.795   4.765  2.3710  0.3665  0.3809
   93SAPC  H16Y 9069   0.926   2.930   4.662 -0.5078  0.0941 -0.0638
   93SAPC  C317 9070   0.715   2.870   4.678  0.1195 -0.5624  0.7451
   93SAPC  H17X 9071   0.653   2.962   4.669 -1.1606 -1.5001 -0.4665
   93SAPC  H17Y 9072   0.659   2.803   4.746 -2.0600  0.5516  0.1534
   93SAPC  C318 9073   0.718   2.821   4.530 -0.0096 -0.1209 -0.2163
   93SAPC  H18X 9074   0.740   2.894   4.449  1.6794 -1.0422 -0.6333
   93SAPC  H18Y 9075   0.618   2.778   4.511 -0.2078 -0.4629  1.4027
   93SAPC  H18Z 9076   0.801   2.748   4.528  1.1276  1.1055  0.0765
   94SAPC     N 9077   4.473   3.081   6.820  0.7327 -0.7205 -0.0487
   94SAPC   C12 9078   4.459   3.232   6.858  0.2770  0.3614  0.1538
   94SAPC  H12A 9079   4.544   3.255   6.922 -0.0324 -0.4849  0.8990
   94SAPC  H12B 9080   4.376   3.237   6.927  1.6042 -1.0974  1.9509
   94SAPC   C13 9081   4.443   2.991   6.941 -0.6462 -0.6468 -0.7512
   94SAPC  H13A 9082   4.504   3.026   7.023  1.4753 -1.5497 -1.8693
   94SAPC  H13B 9083   4.339   3.007   6.969 -0.6773 -2.6696  0.4969
   94SAPC  H13C 9084   4.456   2.888   6.912  1.5899 -0.6645  0.1325
   94SAPC   C14 9085   4.374   3.052   6.714 -0.0467  0.6438 -0.1713
   94SAPC  H14A 9086   4.400   3.112   6.628 -0.5934  0.7415 -0.2694
   94SAPC  H14B 9087   4.370   2.947   6.687  0.3834  0.3963  0.6839
   94SAPC  H14C 9088   4.276   3.083   6.747  0.4025  2.0692 -0.0966
   94SAPC   C15 9089   4.607   3.057   6.767 -0.1783  0.3447 -0.0334
   94SAPC  H15A 9090   4.680   3.058   6.847 -0.8955 -0.8692  0.6732
   94SAPC  H15B 9091   4.602   2.965   6.710 -0.7053  1.6316 -2.1806
   94SAPC  H15C 9092   4.638   3.140   6.706 -1.5691  2.3444  1.8306
   94SAPC   C11 9093   4.460   3.336   6.748  0.6172  0.2391  0.3106
   94SAPC  H11A 9094   4.448   3.438   6.790  1.2782  0.2493  0.4948
   94SAPC  H11B 9095   4.378   3.312   6.677  2.6744  0.6278 -2.3539
   94SAPC     P 9096   4.709   3.406   6.723  0.4810  0.2953  0.1694
   94SAPC   O13 9097   4.689   3.440   6.865 -0.5706  0.1813 -0.1418
   94SAPC   O14 9098   4.828   3.324   6.696 -0.0375 -0.0521  0.4280
   94SAPC   O12 9099   4.581   3.330   6.672  0.1061  0.1498 -0.1088
   94SAPC   O11 9100   4.707   3.538   6.643 -0.6228  0.0794  0.6762
   94SAPC    C1 9101   4.689   3.540   6.499  0.3235  0.0713 -0.0111
   94SAPC    HA 9102   4.774   3.596   6.455  1.9897 -2.1485  0.1823
   94SAPC    HB 9103   4.693   3.437   6.458  1.4485 -1.4272  3.4372
   94SAPC    C2 9104   4.561   3.604   6.462 -0.0724 -0.4656 -0.1052
   94SAPC    HS 9105   4.481   3.531   6.488 -1.2648 -0.0226 -2.2824
   94SAPC   O21 9106   4.568   3.639   6.322  0.8143  0.0163 -0.1009
   94SAPC   C21 9107   4.544   3.525   6.246 -0.1153 -0.6604 -0.3873
   94SAPC   O22 9108   4.500   3.419   6.291 -0.3358 -0.2751  0.8755
   94SAPC   C22 9109   4.534   3.574   6.099 -0.6864 -0.5305 -0.6036
   94SAPC   H2R 9110   4.451   3.648   6.105 -0.5821 -0.1079 -3.1368
   94SAPC   H2S 9111   4.625   3.635   6.085 -1.4499  1.5745  2.6385
   94SAPC    C3 9112   4.535   3.728   6.547 -0.2330  0.4309 -0.1726
   94SAPC    HX 9113   4.625   3.793   6.534  0.5279 -0.5702 -0.0461
   94SAPC    HY 9114   4.520   3.700   6.654 -1.5970  0.4670 -0.3431
   94SAPC   O31 9115   4.410   3.789   6.499 -0.1089 -0.3662  0.2880
   94SAPC   C31 9116   4.302   3.738   6.555  0.0957 -0.0010 -0.0483
   94SAPC   O32 9117   4.295   3.658   6.650 -0.4492 -0.1413 -0.0394
   94SAPC   C32 9118   4.180   3.792   6.482 -0.0261 -0.0901  0.4943
   94SAPC   H2X 9119   4.191   3.901   6.468 -0.4668  0.0216  0.9959
   94SAPC   H2Y 9120   4.097   3.799   6.556 -0.6455  1.3221 -0.2978
   94SAPC   C23 9121   4.517   3.464   6.002 -0.5171  0.3188  0.3243
   94SAPC   H3R 9122   4.460   3.373   6.031  0.7597 -0.8605 -0.7097
   94SAPC   H3S 9123   4.622   3.430   5.996  0.4821  3.1513 -0.0038
   94SAPC   C24 9124   4.464   3.515   5.871 -0.1692  0.5798 -0.0375
   94SAPC   H4R 9125   4.504   3.614   5.839 -0.0392  0.1506 -1.2668
   94SAPC   H4S 9126   4.354   3.530   5.872 -0.7928 -2.5563 -2.4938
   94SAPC   C25 9127   4.478   3.420   5.752  0.7672  0.6016 -0.8121
   94SAPC   H5R 9128   4.506   3.318   5.781 -1.0258  0.0892 -0.7727
   94SAPC   C26 9129   4.466   3.445   5.620 -0.1898  0.8712 -0.3683
   94SAPC   H6R 9130   4.483   3.370   5.542 -0.1015  1.6151 -1.0796
   94SAPC   C27 9131   4.445   3.582   5.556  0.5863 -0.3750 -0.1386
   94SAPC   H7R 9132   4.421   3.653   5.637  1.7764 -0.7232  0.5606
   94SAPC   H7S 9133   4.348   3.588   5.503  0.9837 -1.1758 -0.9945
   94SAPC   C28 9134   4.561   3.621   5.478  0.0247  0.2164  0.3172
   94SAPC   H8R 9135   4.653   3.633   5.538  0.4856 -0.6980 -0.1855
   94SAPC   C29 9136   4.568   3.663   5.351  0.1789 -0.6067  0.4921
   94SAPC   H9R 9137   4.667   3.696   5.315 -0.6024  3.6177  1.7104
   94SAPC  C210 9138   4.455   3.672   5.254  0.6722  0.4114  0.0601
   94SAPC  H10R 9139   4.451   3.770   5.202 -0.6849 -0.1734 -1.0015
   94SAPC  H10S 9140   4.357   3.665   5.307  0.6332  1.1163  0.0949
   94SAPC  C211 9141   4.447   3.557   5.150 -0.5009 -0.0642  0.2446
   94SAPC  H11R 9142   4.387   3.471   5.184  1.9815 -1.4092  1.5746
   94SAPC  C212 9143   4.511   3.551   5.030 -0.0857  0.7658  0.8216
   94SAPC  H12R 9144   4.520   3.456   4.974  1.7194  0.3506  1.7297
   94SAPC  C213 9145   4.602   3.654   4.967  0.0090 -0.6014  0.2899
   94SAPC  H13R 9146   4.584   3.752   5.015  0.1959  0.6450 -2.0259
   94SAPC  H13S 9147   4.570   3.688   4.866  1.8276  2.5595  0.6517
   94SAPC  C214 9148   4.744   3.607   4.991 -0.0345  0.0279  0.4793
   94SAPC  H14R 9149   4.775   3.602   5.097 -0.9502  0.5588  0.7905
   94SAPC  C215 9150   4.844   3.589   4.906 -0.5194 -0.1429  0.0162
   94SAPC  H15R 9151   4.943   3.560   4.944 -0.3929  0.4770  0.1739
   94SAPC  C216 9152   4.837   3.596   4.751  0.3745 -0.7522  0.0900
   94SAPC  H16R 9153   4.894   3.683   4.712  0.8015 -0.5059  1.2050
   94SAPC  H16S 9154   4.733   3.606   4.715  0.6566 -1.0299 -0.8201
   94SAPC  C217 9155   4.891   3.471   4.684  0.4986  0.3070  0.1417
   94SAPC  H17R 9156   4.988   3.443   4.730  0.2006 -1.5276 -0.2938
   94SAPC  H17S 9157   4.903   3.492   4.576  2.2259  0.4083  0.3366
   94SAPC  C218 9158   4.798   3.343   4.696 -0.2222 -0.1366 -0.8048
   94SAPC  H18R 9159   4.689   3.366   4.691 -0.2001  1.0807  2.2476
   94SAPC  H18S 9160   4.804   3.308   4.801 -0.2168 -0.3458 -0.8756
   94SAPC  C219 9161   4.819   3.236   4.593 -0.3864  0.1839  0.3289
   94SAPC  H19R 9162   4.921   3.195   4.609  0.4415  2.0411  0.0504
   94SAPC  H19S 9163   4.810   3.272   4.488 -0.2192 -0.4021  0.1068
   94SAPC  C220 9164   4.721   3.118   4.598  0.2342 -0.4053 -0.2036
   94SAPC  H20R 9165   4.621   3.167   4.592  0.5899  0.3122 -0.2923
   94SAPC  H20S 9166   4.717   3.055   4.690 -3.3150 -0.6968 -0.4015
   94SAPC  H20T 9167   4.731   3.044   4.516 -3.1201  0.7976 -1.8856
   94SAPC   C33 9168   4.135   3.698   6.366  1.1390 -0.1438 -0.2813
   94SAPC   H3X 9169   4.025   3.681   6.367  1.2356 -1.2662 -2.8954
   94SAPC   H3Y 9170   4.158   3.593   6.392 -0.0112  0.0334  1.6820
   94SAPC   C34 9171   4.170   3.746   6.231  0.6482  0.9225  0.3213
   94SAPC   H4X 9172   4.279   3.730   6.216  0.2903 -2.7506  0.7801
   94SAPC   H4Y 9173   4.143   3.854   6.239 -2.8801  0.1752  0.2818
   94SAPC   C35 9174   4.093   3.681   6.117 -0.6500  1.1075 -0.5396
   94SAPC   H5X 9175   3.984   3.694   6.128 -0.3138  2.6330  1.5996
   94SAPC   H5Y 9176   4.115   3.572   6.119 -4.2858  0.2255 -1.2312
   94SAPC   C36 9177   4.124   3.748   5.987 -0.2221 -0.3839  0.1349
   94SAPC   H6X 9178   4.232   3.773   5.973 -0.8075  3.4836  1.3573
   94SAPC   H6Y 9179   4.096   3.856   5.988  2.0276  0.2907 -0.8857
   94SAPC   C37 9180   4.076   3.668   5.864  0.3064 -0.2892 -0.4957
   94SAPC   H7X 9181   3.969   3.651   5.890  0.3899 -0.4027 -0.2156
   94SAPC   H7Y 9182   4.131   3.572   5.857  0.8022  0.0147 -0.8490
   94SAPC   C38 9183   4.079   3.760   5.747 -0.0156 -0.4094 -0.0518
   94SAPC   H8X 9184   4.176   3.814   5.740  0.4386 -0.9121  1.7462
   94SAPC   H8Y 9185   3.996   3.831   5.771 -0.3682 -1.7607  3.3813
   94SAPC   C39 9186   4.049   3.686   5.619  0.3651 -0.3636 -0.0702
   94SAPC   H9X 9187   3.939   3.677   5.605  0.1049  4.0120 -2.7087
   94SAPC   H9Y 9188   4.101   3.588   5.619 -0.5617 -0.8969 -1.6146
   94SAPC  C310 9189   4.110   3.764   5.495  0.3240 -0.1485  0.1225
   94SAPC  H10X 9190   4.221   3.759   5.501  0.4912  2.1029 -0.1183
   94SAPC  H10Y 9191   4.078   3.870   5.499  0.4660 -0.0843 -0.3653
   94SAPC  C311 9192   4.065   3.704   5.361  0.2444 -0.0612  0.2242
   94SAPC  H11X 9193   3.956   3.687   5.376 -0.1943  1.2855 -1.2052
   94SAPC  H11Y 9194   4.114   3.606   5.343  0.7288  0.1958  0.1171
   94SAPC  C312 9195   4.085   3.802   5.247 -0.4794  0.0612  0.4033
   94SAPC  H12X 9196   4.191   3.837   5.240 -0.7366  1.3586  2.2247
   94SAPC  H12Y 9197   4.022   3.893   5.252  0.1675  0.7510 -2.3624
   94SAPC  C313 9198   4.051   3.729   5.113  0.0103 -0.3076  0.0804
   94SAPC  H13X 9199   3.942   3.720   5.097 -0.2767  2.0206  0.3520
   94SAPC  H13Y 9200   4.104   3.632   5.107 -0.7028 -0.6117 -3.0144
   94SAPC  C314 9201   4.084   3.819   4.993 -1.0273  0.4063 -0.1032
   94SAPC  H14X 9202   4.190   3.846   5.015 -1.0413  0.6048 -0.2724
   94SAPC  H14Y 9203   4.025   3.913   4.986 -0.8250  0.9826  3.8916
   94SAPC  C315 9204   4.070   3.747   4.855  0.1999 -0.2193 -0.6444
   94SAPC  H15X 9205   4.100   3.819   4.776  3.3354 -1.0778 -0.3541
   94SAPC  H15Y 9206   3.963   3.721   4.840  0.0533 -0.7323  1.1337
   94SAPC  C316 9207   4.145   3.614   4.842 -1.1695 -0.6424  0.3732
   94SAPC  H16X 9208   4.090   3.539   4.904 -2.0181 -0.7081 -0.4376
   94SAPC  H16Y 9209   4.248   3.632   4.879 -2.0937 -1.5007  3.7467
   94SAPC  C317 9210   4.155   3.566   4.696 -0.3489 -0.1002 -0.1489
   94SAPC  H17X 9211   4.193   3.644   4.627 -0.1798  2.6404  2.8079
   94SAPC  H17Y 9212   4.053   3.532   4.669 -0.8947  1.2303  0.1606
   94SAPC  C318 9213   4.257   3.452   4.693 -0.0254  0.4474  0.0827
   94SAPC  H18X 9214   4.221   3.381   4.770 -4.0949  0.0787 -1.8531
   94SAPC  H18Y 9215   4.362   3.482   4.713  0.1937  0.1492 -0.5733
   94SAPC  H18Z 9216   4.247   3.409   4.591 -1.9338 -3.3223  1.6806
   95SAPC     N 9217   5.052   4.260   2.216 -0.0118 -0.9785 -0.0360
   95SAPC   C12 9218   5.132   4.147   2.273  0.1161 -0.1818  0.4362
   95SAPC  H12A 9219   5.075   4.056   2.260  1.5043 -0.9105 -0.7815
   95SAPC  H12B 9220   5.148   4.162   2.378  3.2785  0.4142 -0.0425
   95SAPC   C13 9221   5.128   4.389   2.243  0.2627  0.0751  0.7501
   95SAPC  H13A 9222   5.133   4.425   2.345  3.0938 -0.4912  0.8835
   95SAPC  H13B 9223   5.228   4.393   2.203  0.7283  0.7585  1.9313
   95SAPC  H13C 9224   5.078   4.471   2.194  0.1720 -0.4723 -0.1007
   95SAPC   C14 9225   5.040   4.257   2.069 -0.3006 -0.2098  0.0961
   95SAPC  H14A 9226   5.137   4.273   2.025 -1.3459 -0.1832 -2.3712
   95SAPC  H14B 9227   5.001   4.160   2.042 -1.1400  0.0558  0.3278
   95SAPC  H14C 9228   4.981   4.342   2.037 -0.6272 -0.4086  0.1711
   95SAPC   C15 9229   4.913   4.266   2.275 -0.3097  0.7067 -0.0724
   95SAPC  H15A 9230   4.841   4.334   2.232  1.1710  1.7890 -0.9390
   95SAPC  H15B 9231   4.872   4.166   2.278 -1.2612  1.0970  0.1449
   95SAPC  H15C 9232   4.915   4.291   2.380  0.4504  0.7476 -0.0866
   95SAPC   C11 9233   5.270   4.108   2.222 -0.5949  0.4998 -0.5034
   95SAPC  H11A 9234   5.263   4.082   2.115 -1.0088 -2.2696  0.1309
   95SAPC  H11B 9235   5.306   4.014   2.268 -0.0530  0.8878 -0.1088
   95SAPC     P 9236   5.483   4.193   2.329  0.2772  0.0925 -0.3338
   95SAPC   O13 9237   5.549   4.071   2.283 -0.1264  0.3016 -0.3552
   95SAPC   O14 9238   5.566   4.315   2.341  0.0317 -1.0313  0.3846
   95SAPC   O12 9239   5.359   4.219   2.231 -0.2556 -0.3380  0.3937
   95SAPC   O11 9240   5.409   4.154   2.472 -0.2045 -0.3291 -0.4837
   95SAPC    C1 9241   5.356   4.268   2.546  0.2683 -0.1616  0.2488
   95SAPC    HA 9242   5.304   4.336   2.476  1.1521  1.8606  1.4760
   95SAPC    HB 9243   5.290   4.229   2.626  0.1170  1.9300  1.2115
   95SAPC    C2 9244   5.455   4.345   2.640 -0.4006  1.2254 -0.1486
   95SAPC    HS 9245   5.523   4.413   2.584 -1.5074  2.3198 -0.2022
   95SAPC   O21 9246   5.543   4.252   2.711 -0.5044 -0.3291  0.2675
   95SAPC   C21 9247   5.659   4.303   2.767  0.2773  0.6395 -0.0626
   95SAPC   O22 9248   5.703   4.411   2.747  0.6888 -0.3612 -0.2133
   95SAPC   C22 9249   5.734   4.198   2.852 -0.4337 -0.3145  0.7783
   95SAPC   H2R 9250   5.755   4.125   2.772  0.1355  1.3356 -0.6519
   95SAPC   H2S 9251   5.836   4.233   2.881  1.5561 -0.7548 -4.5271
   95SAPC    C3 9252   5.374   4.438   2.732  0.8954  0.0609  0.0717
   95SAPC    HX 9253   5.336   4.519   2.666 -1.6585 -0.1566  1.1607
   95SAPC    HY 9254   5.453   4.488   2.793  1.2743 -0.2293 -0.1823
   95SAPC   O31 9255   5.270   4.372   2.808  0.0475  0.0965 -0.0154
   95SAPC   C31 9256   5.223   4.444   2.906  0.0962 -0.5609  0.5459
   95SAPC   O32 9257   5.266   4.554   2.941  0.3051  0.0885 -0.5418
   95SAPC   C32 9258   5.116   4.373   2.982  0.9266  0.4112 -0.2457
   95SAPC   H2X 9259   5.070   4.289   2.926 -1.3407  1.7046 -0.4889
   95SAPC   H2Y 9260   5.033   4.445   2.998  0.0934  0.0462 -2.4699
   95SAPC   C23 9261   5.653   4.135   2.962 -0.0354  0.2182 -0.1012
   95SAPC   H3R 9262   5.688   4.032   2.988 -0.8471  0.1918  0.9928
   95SAPC   H3S 9263   5.550   4.110   2.928  1.1014 -2.5334 -1.9239
   95SAPC   C24 9264   5.649   4.230   3.081  0.2868  0.0112 -0.4646
   95SAPC   H4R 9265   5.562   4.191   3.139 -1.2019  2.3609 -0.9561
   95SAPC   H4S 9266   5.613   4.332   3.056 -0.1549 -0.1850 -0.6239
   95SAPC   C25 9267   5.778   4.234   3.162  0.0409 -0.0385 -0.2425
   95SAPC   H5R 9268   5.854   4.281   3.098  1.0476 -1.6218 -0.2592
   95SAPC   C26 9269   5.800   4.196   3.289 -0.0324 -0.6150  0.5182
   95SAPC   H6R 9270   5.904   4.207   3.324  0.0379  1.8649 -0.2591
   95SAPC   C27 9271   5.704   4.139   3.388  0.3108  0.0129  0.1053
   95SAPC   H7R 9272   5.736   4.034   3.410  3.2513  0.9340  0.7074
   95SAPC   H7S 9273   5.604   4.131   3.341  0.6523 -0.6268 -0.5329
   95SAPC   C28 9274   5.706   4.241   3.503  0.9595 -0.2265 -0.2912
   95SAPC   H8R 9275   5.671   4.336   3.459 -3.5106 -1.8653 -0.6970
   95SAPC   C29 9276   5.707   4.227   3.641 -0.7463 -1.0074  0.4598
   95SAPC   H9R 9277   5.714   4.312   3.710  1.9889 -0.1868 -0.6964
   95SAPC  C210 9278   5.728   4.095   3.705 -0.0521  0.3168  0.2715
   95SAPC  H10R 9279   5.837   4.074   3.701  0.7688  3.8271  0.5152
   95SAPC  H10S 9280   5.684   4.014   3.642  2.4328 -1.3752  0.5769
   95SAPC  C211 9281   5.661   4.093   3.845 -0.1995  0.6092  0.3087
   95SAPC  H11R 9282   5.577   4.023   3.854 -1.6100  1.7736 -2.5519
   95SAPC  C212 9283   5.700   4.169   3.953  0.2677 -0.5887  0.0324
   95SAPC  H12R 9284   5.665   4.152   4.056 -0.8418  1.4438  0.0386
   95SAPC  C213 9285   5.835   4.248   3.950 -0.4829  0.4075 -0.8605
   95SAPC  H13R 9286   5.879   4.278   3.852  0.9646 -0.1268 -0.3952
   95SAPC  H13S 9287   5.910   4.175   3.987 -2.2748 -0.5704  1.0237
   95SAPC  C214 9288   5.831   4.375   4.032  0.1378  0.4791 -0.0451
   95SAPC  H14R 9289   5.743   4.440   4.022  1.1948  1.8691 -0.5876
   95SAPC  C215 9290   5.910   4.407   4.136 -0.8343 -1.1276 -0.5212
   95SAPC  H15R 9291   5.897   4.498   4.196  1.2562 -1.6514  0.8103
   95SAPC  C216 9292   6.045   4.347   4.173 -0.5208 -0.6044  0.4055
   95SAPC  H16R 9293   6.126   4.423   4.177 -1.2130  0.2366 -0.8361
   95SAPC  H16S 9294   6.078   4.274   4.096 -0.7207  0.4897 -0.7519
   95SAPC  C217 9295   6.037   4.270   4.312 -0.1390  0.4830 -0.0306
   95SAPC  H17R 9296   6.005   4.341   4.391  1.1240  1.3649 -0.2854
   95SAPC  H17S 9297   6.144   4.247   4.331 -0.0010  2.1308  1.4124
   95SAPC  C218 9298   5.947   4.146   4.319 -0.0156  0.6195  0.1444
   95SAPC  H18R 9299   5.937   4.091   4.223 -3.4353 -0.6846  1.0790
   95SAPC  H18S 9300   5.839   4.170   4.328 -0.5786 -0.3104 -2.9014
   95SAPC  C219 9301   5.995   4.050   4.426 -0.2202 -0.5720 -0.5977
   95SAPC  H19R 9302   6.004   4.102   4.524  1.3118 -1.2339 -0.3761
   95SAPC  H19S 9303   6.094   4.017   4.389  0.0912 -1.2196  0.7857
   95SAPC  C220 9304   5.922   3.923   4.448 -0.1445 -0.0693  0.5542
   95SAPC  H20R 9305   5.986   3.852   4.506 -0.0043 -0.1194  0.3393
   95SAPC  H20S 9306   5.906   3.879   4.348  1.1428 -1.1467  0.7845
   95SAPC  H20T 9307   5.833   3.937   4.512 -0.5310 -0.6037  0.1389
   95SAPC   C33 9308   5.179   4.310   3.104 -0.6275  0.3976 -0.1467
   95SAPC   H3X 9309   5.257   4.238   3.071 -0.4816  0.1591  0.6772
   95SAPC   H3Y 9310   5.095   4.251   3.147 -1.2932  0.6094 -1.1194
   95SAPC   C34 9311   5.224   4.407   3.213  0.4783  0.3048  0.5522
   95SAPC   H4X 9312   5.136   4.475   3.218 -0.7014 -0.9427 -1.4515
   95SAPC   H4Y 9313   5.308   4.463   3.167  1.8378 -2.3250 -0.3669
   95SAPC   C35 9314   5.270   4.332   3.337 -0.0590  0.2375  0.4505
   95SAPC   H5X 9315   5.348   4.256   3.317 -1.2557 -1.0272  0.3953
   95SAPC   H5Y 9316   5.186   4.281   3.391  0.7522  2.5288  4.2828
   95SAPC   C36 9317   5.347   4.428   3.430 -0.3782 -0.2963 -0.5926
   95SAPC   H6X 9318   5.418   4.499   3.383 -0.8781  0.6047 -0.0236
   95SAPC   H6Y 9319   5.420   4.366   3.487 -1.5850 -1.8608 -0.7060
   95SAPC   C37 9320   5.252   4.497   3.536 -0.3092  0.1125  0.1421
   95SAPC   H7X 9321   5.178   4.551   3.473  1.5968  0.1504 -2.2331
   95SAPC   H7Y 9322   5.312   4.573   3.590 -0.1106 -0.7613  1.1862
   95SAPC   C38 9323   5.189   4.403   3.642  0.2397 -0.2499 -0.0263
   95SAPC   H8X 9324   5.131   4.324   3.591  0.1256  1.1943 -2.2544
   95SAPC   H8Y 9325   5.108   4.458   3.695 -0.8023 -1.7240 -0.0195
   95SAPC   C39 9326   5.284   4.334   3.742 -0.0932 -0.1626  0.1222
   95SAPC   H9X 9327   5.359   4.411   3.771 -0.0620 -0.1926  0.1213
   95SAPC   H9Y 9328   5.343   4.259   3.685 -1.4176 -1.3415  0.2552
   95SAPC  C310 9329   5.221   4.273   3.861  0.3303 -0.2389 -0.2918
   95SAPC  H10X 9330   5.308   4.230   3.916  0.7972 -0.3714 -1.1068
   95SAPC  H10Y 9331   5.154   4.189   3.830  1.0046 -0.6834 -0.5831
   95SAPC  C311 9332   5.142   4.374   3.944  0.2950  0.2735 -0.0940
   95SAPC  H11X 9333   5.050   4.394   3.886  0.0212  1.9017  0.8568
   95SAPC  H11Y 9334   5.209   4.461   3.960  1.1340 -0.1462 -1.1527
   95SAPC  C312 9335   5.109   4.307   4.077  0.0403 -0.3627  0.2638
   95SAPC  H12X 9336   5.206   4.310   4.131 -0.0123  2.8456  0.3723
   95SAPC  H12Y 9337   5.076   4.203   4.057  0.8470 -0.3402 -1.2695
   95SAPC  C313 9338   4.987   4.378   4.139  0.2366  0.0194 -0.0863
   95SAPC  H13X 9339   4.900   4.379   4.071 -1.0401  0.8218  1.4907
   95SAPC  H13Y 9340   5.022   4.479   4.169 -0.0056 -0.6020  2.5733
   95SAPC  C314 9341   4.944   4.320   4.275 -1.2188  0.5425 -0.2279
   95SAPC  H14X 9342   5.023   4.339   4.350 -0.9856  1.7665 -0.7655
   95SAPC  H14Y 9343   4.947   4.210   4.260 -1.6165  0.8060 -2.6423
   95SAPC  C315 9344   4.806   4.348   4.333  0.7444  0.7431 -0.2679
   95SAPC  H15X 9345   4.782   4.456   4.336 -1.5397  0.3003 -0.0571
   95SAPC  H15Y 9346   4.801   4.307   4.436  0.0730 -1.7418 -1.1895
   95SAPC  C316 9347   4.692   4.267   4.273  0.0420 -0.7254  0.0250
   95SAPC  H16X 9348   4.707   4.159   4.293  0.1862 -0.9025 -0.9667
   95SAPC  H16Y 9349   4.694   4.282   4.163 -2.4505 -1.4654 -0.1843
   95SAPC  C317 9350   4.553   4.321   4.318  0.1143  0.1896  0.3039
   95SAPC  H17X 9351   4.565   4.330   4.428  0.4154  0.9858  0.2079
   95SAPC  H17Y 9352   4.475   4.243   4.302 -2.6003  2.7468  0.1910
   95SAPC  C318 9353   4.504   4.447   4.240  0.7186 -0.6906  0.0144
   95SAPC  H18X 9354   4.578   4.525   4.266  1.1711 -0.5994 -1.4905
   95SAPC  H18Y 9355   4.402   4.483   4.266  0.0195 -0.0109 -3.3100
   95SAPC  H18Z 9356   4.508   4.430   4.131 -2.1248 -1.1481 -0.0920
   96SAPC     N 9357   5.478   5.540   2.666 -0.2230 -0.5748  0.2491
   96SAPC   C12 9358   5.492   5.642   2.779 -0.3464 -0.4164  0.1912
   96SAPC  H12A 9359   5.407   5.647   2.845 -0.2862 -1.4667  0.3644
   96SAPC  H12B 9360   5.512   5.742   2.742  0.4115  0.1661  2.0624
   96SAPC   C13 9361   5.354   5.559   2.592 -0.0010  0.0900 -0.7923
   96SAPC  H13A 9362   5.352   5.486   2.513  2.0833 -1.3879  0.4161
   96SAPC  H13B 9363   5.265   5.551   2.653 -0.6178 -2.2113 -1.8601
   96SAPC  H13C 9364   5.337   5.654   2.544  0.1029 -0.1701 -1.3506
   96SAPC   C14 9365   5.596   5.544   2.580 -0.0631  0.6267  0.3306
   96SAPC  H14A 9366   5.591   5.624   2.507  1.2846 -1.4592 -2.2134
   96SAPC  H14B 9367   5.687   5.569   2.632  1.6499  0.2935 -2.3249
   96SAPC  H14C 9368   5.616   5.457   2.520 -0.4321 -0.4320  1.6892
   96SAPC   C15 9369   5.479   5.409   2.736  0.2311  0.5255 -0.1430
   96SAPC  H15A 9370   5.476   5.328   2.665 -0.8538  0.2939  0.1619
   96SAPC  H15B 9371   5.559   5.393   2.807 -1.0307 -1.5689  0.8903
   96SAPC  H15C 9372   5.400   5.395   2.808  0.4949  2.4616  0.5682
   96SAPC   C11 9373   5.614   5.628   2.880 -0.3133  0.0952 -0.0637
   96SAPC  H11A 9374   5.618   5.523   2.915  2.7060 -0.2346 -1.1410
   96SAPC  H11B 9375   5.596   5.696   2.965 -0.1875  1.8558 -1.3865
   96SAPC     P 9376   5.804   5.777   2.780 -0.2017  0.2402  0.4265
   96SAPC   O13 9377   5.921   5.750   2.698  0.4767 -0.2716  0.1057
   96SAPC   O14 9378   5.703   5.874   2.729  0.2784  0.6269 -0.4881
   96SAPC   O12 9379   5.736   5.645   2.827 -0.4929  0.3357  0.3196
   96SAPC   O11 9380   5.860   5.838   2.912  0.1209  0.2559  0.2689
   96SAPC    C1 9381   5.988   5.888   2.932 -0.8480  0.4053  0.9628
   96SAPC    HA 9382   6.008   5.904   3.040 -2.9537  2.3367  1.1574
   96SAPC    HB 9383   6.072   5.828   2.891  0.5863  2.5591  0.5805
   96SAPC    C2 9384   6.017   6.028   2.863  0.4396  0.7255  0.3839
   96SAPC    HS 9385   6.014   6.001   2.756  2.0713 -2.1722  0.9595
   96SAPC   O21 9386   6.150   6.073   2.892 -0.3997  0.3267  0.2852
   96SAPC   C21 9387   6.204   6.175   2.825 -0.1663 -0.3631 -0.8770
   96SAPC   O22 9388   6.148   6.245   2.742 -0.3961 -0.2207  0.2268
   96SAPC   C22 9389   6.348   6.180   2.865 -0.2424  0.3494 -0.2125
   96SAPC   H2R 9390   6.362   6.263   2.938 -2.8193 -1.2157  2.2972
   96SAPC   H2S 9391   6.361   6.087   2.926  0.7422  2.1850  2.5961
   96SAPC    C3 9392   5.912   6.143   2.911  0.1100  0.1846  0.1223
   96SAPC    HX 9393   5.808   6.114   2.883 -0.5746  1.6983  1.0223
   96SAPC    HY 9394   5.933   6.235   2.852  1.6739 -0.6529 -0.6894
   96SAPC   O31 9395   5.904   6.150   3.057  0.2975 -0.6901 -0.1002
   96SAPC   C31 9396   5.974   6.257   3.105  0.4833  0.1641  0.4573
   96SAPC   O32 9397   6.041   6.334   3.041  0.6907  0.1215  0.2184
   96SAPC   C32 9398   5.941   6.260   3.253 -0.0153 -0.4525  0.4946
   96SAPC   H2X 9399   5.974   6.164   3.300  0.7906  0.0859  1.0659
   96SAPC   H2Y 9400   5.831   6.262   3.266 -0.2060 -2.7236 -0.2806
   96SAPC   C23 9401   6.463   6.180   2.762 -0.0571  0.5966  0.0914
   96SAPC   H3R 9402   6.460   6.278   2.710  3.3108  0.2704 -0.9534
   96SAPC   H3S 9403   6.452   6.103   2.682 -2.0183 -1.6996  2.4029
   96SAPC   C24 9404   6.604   6.147   2.829 -0.2682 -0.9902  0.5423
   96SAPC   H4R 9405   6.597   6.046   2.876 -0.3014 -1.3032 -0.1256
   96SAPC   H4S 9406   6.614   6.219   2.912  2.5435 -1.1106  0.4152
   96SAPC   C25 9407   6.720   6.138   2.732 -0.3496  0.4851  0.2586
   96SAPC   H5R 9408   6.703   6.149   2.624 -0.0900  1.0988  0.2802
   96SAPC   C26 9409   6.847   6.144   2.777 -0.6274  0.4173  0.0791
   96SAPC   H6R 9410   6.936   6.147   2.713 -0.2243 -3.1649  0.2903
   96SAPC   C27 9411   6.880   6.145   2.921  0.0709 -0.2784  0.3606
   96SAPC   H7R 9412   6.793   6.135   2.989 -0.0084 -3.6688 -0.0909
   96SAPC   H7S 9413   6.920   6.247   2.939 -1.2364  0.6456 -1.5765
   96SAPC   C28 9414   6.981   6.039   2.967  0.2153 -0.3766 -0.7315
   96SAPC   H8R 9415   7.050   5.997   2.893  1.8870 -1.4522  1.3323
   96SAPC   C29 9416   6.999   5.994   3.093  0.4225 -0.4486  0.1005
   96SAPC   H9R 9417   7.060   5.907   3.121  0.1368  0.3272  3.4851
   96SAPC  C210 9418   6.921   6.045   3.210 -0.3677  0.7572  0.4799
   96SAPC  H10R 9419   6.815   6.013   3.205  0.2726 -1.5258  0.3058
   96SAPC  H10S 9420   6.908   6.154   3.192 -1.5269  0.5810  0.2340
   96SAPC  C211 9421   6.960   5.993   3.344 -0.6115  0.1630  0.0187
   96SAPC  H11R 9422   7.043   5.922   3.347  0.4429  1.1345 -2.9646
   96SAPC  C212 9423   6.896   6.027   3.457 -0.0179  0.2456  0.7029
   96SAPC  H12R 9424   6.943   5.988   3.548  1.0680 -0.0395  0.0414
   96SAPC  C213 9425   6.781   6.125   3.469 -0.2276 -0.0503 -0.3130
   96SAPC  H13R 9426   6.695   6.075   3.518 -0.2713  0.3944  0.0796
   96SAPC  H13S 9427   6.748   6.157   3.368 -0.7070 -1.8659 -0.7593
   96SAPC  C214 9428   6.817   6.250   3.553 -0.2961 -0.1505  0.5676
   96SAPC  H14R 9429   6.848   6.333   3.488 -1.3981 -0.2254 -0.0917
   96SAPC  C215 9430   6.814   6.266   3.686 -0.0285  0.1121  0.2762
   96SAPC  H15R 9431   6.847   6.361   3.732  0.6435  0.2245 -0.4243
   96SAPC  C216 9432   6.762   6.161   3.779  0.8118 -0.2091 -0.5632
   96SAPC  H16R 9433   6.838   6.094   3.823  2.3855  2.2194  0.6032
   96SAPC  H16S 9434   6.690   6.099   3.720  0.0785 -1.5307  1.5993
   96SAPC  C217 9435   6.670   6.228   3.891 -0.0373 -0.2164 -0.0743
   96SAPC  H17R 9436   6.607   6.149   3.937  0.6572 -0.6594  0.1399
   96SAPC  H17S 9437   6.601   6.298   3.840 -0.4027  0.2739  1.0553
   96SAPC  C218 9438   6.757   6.311   3.991 -0.0603 -0.1173  1.0001
   96SAPC  H18R 9439   6.816   6.386   3.935 -1.2630  0.9043  1.0539
   96SAPC  H18S 9440   6.825   6.231   4.029  1.2114  0.1193 -0.6533
   96SAPC  C219 9441   6.685   6.385   4.105  1.0387  0.2237  0.4001
   96SAPC  H19R 9442   6.611   6.315   4.148  0.8154  0.1249 -0.1337
   96SAPC  H19S 9443   6.625   6.464   4.054  0.8920  0.5238  1.0332
   96SAPC  C220 9444   6.763   6.452   4.210  0.2895 -0.4374 -0.1007
   96SAPC  H20R 9445   6.832   6.523   4.159 -0.7186  0.5375 -0.1597
   96SAPC  H20S 9446   6.830   6.376   4.256 -0.2374 -1.8341 -1.5612
   96SAPC  H20T 9447   6.709   6.512   4.286  1.0255  0.4839 -0.2768
   96SAPC   C33 9448   6.010   6.376   3.332  0.0089  0.0027 -0.6350
   96SAPC   H3X 9449   5.984   6.472   3.283 -0.7018  1.1663  1.8318
   96SAPC   H3Y 9450   6.120   6.369   3.324  0.0228  0.6279 -1.0182
   96SAPC   C34 9451   5.960   6.391   3.478  0.2150  0.4805 -0.3625
   96SAPC   H4X 9452   5.854   6.421   3.493 -0.1933 -0.0415 -2.0454
   96SAPC   H4Y 9453   6.012   6.483   3.512  1.4830 -0.8279  1.4651
   96SAPC   C35 9454   6.007   6.288   3.580  0.3127 -0.2205  0.2983
   96SAPC   H5X 9455   6.112   6.271   3.550  0.8168 -0.8273  2.2743
   96SAPC   H5Y 9456   5.943   6.198   3.583 -2.9222  1.9331  1.3942
   96SAPC   C36 9457   6.012   6.344   3.722  0.5098 -0.2134 -0.8173
   96SAPC   H6X 9458   5.910   6.387   3.733  0.9656  1.0458 -1.2654
   96SAPC   H6Y 9459   6.089   6.423   3.737 -0.1975  0.2082  0.7697
   96SAPC   C37 9460   6.025   6.246   3.836 -0.3910 -0.2325  0.4362
   96SAPC   H7X 9461   5.982   6.146   3.812  1.3880 -0.5646 -1.6604
   96SAPC   H7Y 9462   5.981   6.287   3.929 -0.1243  0.2168  0.3679
   96SAPC   C38 9463   6.174   6.218   3.879  0.1634  0.2716 -0.0915
   96SAPC   H8X 9464   6.247   6.232   3.795  0.7672  0.7716  0.5050
   96SAPC   H8Y 9465   6.173   6.112   3.912 -2.7763  0.3426  0.2886
   96SAPC   C39 9466   6.211   6.294   4.006 -0.5821 -0.3849  0.2865
   96SAPC   H9X 9467   6.310   6.255   4.037  0.1880 -1.0326 -2.6909
   96SAPC   H9Y 9468   6.133   6.279   4.084  0.5938  0.7448  1.7545
   96SAPC  C310 9469   6.227   6.448   3.992  0.0064 -0.4016  0.3647
   96SAPC  H10X 9470   6.129   6.499   4.004 -0.6125 -1.1241 -1.3908
   96SAPC  H10Y 9471   6.264   6.475   3.891 -0.9085 -3.2809 -0.8308
   96SAPC  C311 9472   6.313   6.494   4.112  0.8236  0.7713  0.3199
   96SAPC  H11X 9473   6.419   6.464   4.096  1.1406  1.1600  1.5668
   96SAPC  H11Y 9474   6.299   6.433   4.204  2.0647  1.1260  0.7575
   96SAPC  C312 9475   6.289   6.639   4.154 -1.1148 -0.2830 -0.2382
   96SAPC  H12X 9476   6.180   6.647   4.172 -0.8066 -1.5282  2.8184
   96SAPC  H12Y 9477   6.305   6.703   4.065 -2.3182  2.6591  1.5126
   96SAPC  C313 9478   6.373   6.680   4.284  0.4688 -0.1969  0.7799
   96SAPC  H13X 9479   6.481   6.689   4.257 -0.0885  4.4723 -0.6217
   96SAPC  H13Y 9480   6.352   6.593   4.351 -2.3575 -0.6514 -0.5448
   96SAPC  C314 9481   6.325   6.793   4.370  0.2688 -0.7205 -0.5061
   96SAPC  H14X 9482   6.374   6.778   4.468  1.5839 -0.3022 -1.0831
   96SAPC  H14Y 9483   6.215   6.786   4.385  0.2926  0.2659  0.1945
   96SAPC  C315 9484   6.365   6.928   4.316 -0.1701  0.5563  0.4784
   96SAPC  H15X 9485   6.301   6.932   4.225  1.5624 -2.1416 -0.9945
   96SAPC  H15Y 9486   6.467   6.927   4.271 -0.3077  0.8942  0.1499
   96SAPC  C316 9487   6.364   7.046   4.414  0.1598  0.2042 -0.3781
   96SAPC  H16X 9488   6.461   7.075   4.460 -0.5163  0.1057  1.1486
   96SAPC  H16Y 9489   6.315   7.010   4.507  0.6685  1.0448  0.2196
   96SAPC  C317 9490   6.279   7.174   4.373 -0.0987 -0.1900  0.2698
   96SAPC  H17X 9491   6.259   7.229   4.467 -0.4800 -1.1851  0.7913
   96SAPC  H17Y 9492   6.183   7.137   4.329  0.6920  0.6249 -2.3106
   96SAPC  C318 9493   6.349   7.254   4.270  0.3531 -0.2601 -0.0022
   96SAPC  H18X 9494   6.300   7.352   4.252  0.6259 -0.0169  0.5797
   96SAPC  H18Y 9495   6.349   7.191   4.178 -1.0022  1.0919 -0.9881
   96SAPC  H18Z 9496   6.456   7.274   4.291 -0.0745  1.2578  0.8489
   97SAPC     N 9497   4.019   4.938   2.381  0.6196 -0.4232  0.4935
   97SAPC   C12 9498   4.145   4.997   2.318 -0.3035  0.2309  0.0765
   97SAPC  H12A 9499   4.117   5.048   2.227 -0.9987  0.5035  0.4376
   97SAPC  H12B 9500   4.214   4.916   2.301 -0.8240 -0.3018  0.4601
   97SAPC   C13 9501   3.975   4.817   2.303 -0.1703 -0.2373  0.9754
   97SAPC  H13A 9502   3.989   4.827   2.196  4.2817  2.5858  1.5557
   97SAPC  H13B 9503   4.037   4.733   2.332  0.2052  0.1540  1.3198
   97SAPC  H13C 9504   3.875   4.792   2.335  0.3959 -2.6652  1.0320
   97SAPC   C14 9505   4.042   4.887   2.520  0.7892  0.8353  0.3879
   97SAPC  H14A 9506   4.120   4.813   2.528 -0.5326 -0.6318  0.2786
   97SAPC  H14B 9507   4.067   4.977   2.575 -1.8663  3.0364 -1.6936
   97SAPC  H14C 9508   3.951   4.838   2.553 -0.1581  3.4071  1.9359
   97SAPC   C15 9509   3.905   5.035   2.385  0.2379 -0.2120 -0.0911
   97SAPC  H15A 9510   3.925   5.123   2.445 -0.7293  0.5010 -0.8022
   97SAPC  H15B 9511   3.864   5.070   2.292 -1.0042  0.7827  0.8030
   97SAPC  H15C 9512   3.822   4.987   2.434  0.5467  1.4142  2.1883
   97SAPC   C11 9513   4.215   5.112   2.400 -0.2549 -0.0265  0.2906
   97SAPC  H11A 9514   4.149   5.201   2.395 -0.1491  0.0514  0.2804
   97SAPC  H11B 9515   4.308   5.142   2.347 -0.4122  0.6870  0.4199
   97SAPC     P 9516   4.363   5.002   2.586 -0.2212  0.0887  0.2900
   97SAPC   O13 9517   4.353   4.858   2.549 -0.7765 -0.2233  0.0631
   97SAPC   O14 9518   4.482   5.067   2.533 -0.1012  0.1992 -0.8788
   97SAPC   O12 9519   4.239   5.084   2.535 -0.0637 -0.2416  0.6801
   97SAPC   O11 9520   4.354   5.014   2.742 -0.8146  0.5428  0.2388
   97SAPC    C1 9521   4.232   5.001   2.819 -0.2782 -0.2518 -0.1613
   97SAPC    HA 9522   4.236   5.073   2.904 -0.2898  1.8177 -1.8114
   97SAPC    HB 9523   4.138   5.029   2.766 -0.2251  1.4270  0.5647
   97SAPC    C2 9524   4.210   4.859   2.880  0.1700  0.0052  0.0009
   97SAPC    HS 9525   4.208   4.784   2.798  1.0212 -0.1389  0.1022
   97SAPC   O21 9526   4.087   4.855   2.959 -0.3514  0.1124 -0.7272
   97SAPC   C21 9527   4.040   4.738   2.995  0.2245  0.6371  0.1142
   97SAPC   O22 9528   4.078   4.632   2.946 -0.1171 -0.3031 -0.1289
   97SAPC   C22 9529   3.934   4.757   3.106  0.1035 -0.4074 -0.6199
   97SAPC   H2R 9530   3.941   4.668   3.172  0.0852 -1.3470 -1.8305
   97SAPC   H2S 9531   3.961   4.855   3.150 -1.3114  0.5611 -1.8137
   97SAPC    C3 9532   4.333   4.827   2.966  0.0645  0.0382 -1.0438
   97SAPC    HX 9533   4.416   4.850   2.897 -1.0467 -1.1122 -2.8576
   97SAPC    HY 9534   4.327   4.717   2.981  0.5289 -0.0946 -1.7743
   97SAPC   O31 9535   4.347   4.917   3.081 -0.9391  0.1665  0.3185
   97SAPC   C31 9536   4.307   4.874   3.199  0.9030 -0.0281 -0.6223
   97SAPC   O32 9537   4.248   4.766   3.219  0.3541 -0.5274  0.5431
   97SAPC   C32 9538   4.341   4.984   3.301  0.2237  0.0788 -0.1068
   97SAPC   H2X 9539   4.303   5.075   3.249  2.8869  0.7223 -1.1166
   97SAPC   H2Y 9540   4.450   4.982   3.321  0.5862 -2.1776 -1.8256
   97SAPC   C23 9541   3.794   4.762   3.045 -0.3555 -0.2187  0.0598
   97SAPC   H3R 9542   3.723   4.748   3.129 -2.3954 -0.7342 -1.6400
   97SAPC   H3S 9543   3.795   4.670   2.982  2.4667 -1.1871  1.3751
   97SAPC   C24 9544   3.771   4.887   2.962 -0.3944 -0.4182  0.2837
   97SAPC   H4R 9545   3.663   4.900   2.938  0.0052  1.5696 -0.7156
   97SAPC   H4S 9546   3.817   4.878   2.861  0.1035  0.7975  0.3743
   97SAPC   C25 9547   3.817   5.022   3.018 -0.6023 -0.7135  0.4358
   97SAPC   H5R 9548   3.873   5.077   2.942 -2.6796  1.2918  0.2347
   97SAPC   C26 9549   3.802   5.083   3.140 -0.2823 -0.0306 -0.0234
   97SAPC   H6R 9550   3.851   5.180   3.155  0.3868 -0.1609 -1.2720
   97SAPC   C27 9551   3.713   5.025   3.247 -0.0137  0.2602 -0.0585
   97SAPC   H7R 9552   3.763   5.012   3.346 -1.1669  1.0400  0.6463
   97SAPC   H7S 9553   3.675   4.925   3.217 -0.6750  0.7100 -0.7411
   97SAPC   C28 9554   3.588   5.103   3.277 -0.2802 -0.6922  0.0835
   97SAPC   H8R 9555   3.499   5.096   3.214 -1.3133  1.1206  1.2542
   97SAPC   C29 9556   3.570   5.180   3.385  0.4762 -0.1065  1.0358
   97SAPC   H9R 9557   3.476   5.237   3.380  0.1611 -0.7069 -1.4997
   97SAPC  C210 9558   3.672   5.228   3.495 -0.6779 -0.4195  0.5073
   97SAPC  H10R 9559   3.779   5.232   3.464 -0.4238 -0.8857  1.3039
   97SAPC  H10S 9560   3.684   5.152   3.575 -0.5321 -1.3237 -0.3624
   97SAPC  C211 9561   3.640   5.367   3.541  0.4323  0.7409 -0.1989
   97SAPC  H11R 9562   3.661   5.452   3.475 -1.5488  2.5618  1.3651
   97SAPC  C212 9563   3.597   5.398   3.665 -0.2474 -0.3271 -0.1456
   97SAPC  H12R 9564   3.582   5.507   3.674  1.5716 -0.1776  2.1468
   97SAPC  C213 9565   3.558   5.308   3.776 -0.4429  0.4441  0.1390
   97SAPC  H13R 9566   3.553   5.202   3.744  0.4712  0.4392 -0.0238
   97SAPC  H13S 9567   3.460   5.341   3.817 -0.2740 -0.5434  1.4121
   97SAPC  C214 9568   3.648   5.306   3.897 -0.6264 -0.1921 -0.2737
   97SAPC  H14R 9569   3.705   5.398   3.917  1.0460 -1.5969  1.7883
   97SAPC  C215 9570   3.646   5.211   3.989 -1.0315  0.3586  0.1166
   97SAPC  H15R 9571   3.704   5.220   4.082 -1.8265  0.1260  0.6504
   97SAPC  C216 9572   3.559   5.083   3.978 -0.7795  0.1611 -0.5158
   97SAPC  H16R 9573   3.475   5.102   3.908 -0.7572  1.6576 -0.1735
   97SAPC  H16S 9574   3.512   5.064   4.077 -1.4646  1.7667 -0.5008
   97SAPC  C217 9575   3.644   4.958   3.946 -0.0059 -0.0701  0.4864
   97SAPC  H17R 9576   3.580   4.868   3.952  0.4736 -0.4917 -0.6203
   97SAPC  H17S 9577   3.737   4.965   4.007  1.0772  3.1968 -1.2743
   97SAPC  C218 9578   3.698   4.965   3.800 -0.4929 -0.8299  0.5486
   97SAPC  H18R 9579   3.752   5.062   3.795 -3.0202  0.6909  0.5374
   97SAPC  H18S 9580   3.609   4.981   3.736 -0.5509 -0.8618  0.6205
   97SAPC  C219 9581   3.779   4.851   3.743  0.6173 -0.4271  1.0944
   97SAPC  H19R 9582   3.712   4.762   3.743 -0.8699  0.6431  2.5739
   97SAPC  H19S 9583   3.875   4.824   3.791  0.3258  0.9590  2.5500
   97SAPC  C220 9584   3.809   4.874   3.591 -0.5757 -0.0386  0.0621
   97SAPC  H20R 9585   3.838   4.783   3.535 -1.5941 -0.7638  0.6829
   97SAPC  H20S 9586   3.892   4.948   3.580  1.5871 -2.3780 -0.2567
   97SAPC  H20T 9587   3.721   4.922   3.544 -1.2663  1.7058  2.8711
   97SAPC   C33 9588   4.264   4.963   3.436  0.2809  0.0335  0.6874
   97SAPC   H3X 9589   4.156   4.949   3.412 -0.2590 -0.8576  3.2541
   97SAPC   H3Y 9590   4.267   5.058   3.493  2.0151 -0.3788  1.3407
   97SAPC   C34 9591   4.325   4.858   3.525 -0.4558 -0.4879 -0.1625
   97SAPC   H4X 9592   4.417   4.892   3.577 -1.0179  1.7840 -0.5346
   97SAPC   H4Y 9593   4.351   4.767   3.467 -0.2811  0.1371 -1.0936
   97SAPC   C35 9594   4.221   4.821   3.628 -0.1989  0.5675  0.4770
   97SAPC   H5X 9595   4.124   4.795   3.580  0.5081 -0.1922 -0.5834
   97SAPC   H5Y 9596   4.203   4.908   3.695 -0.9413  0.1468  0.8511
   97SAPC   C36 9597   4.270   4.702   3.708  0.6338  0.6432  0.8752
   97SAPC   H6X 9598   4.371   4.708   3.754 -0.1500 -1.2012  3.0159
   97SAPC   H6Y 9599   4.265   4.612   3.643 -0.9457  0.4651  1.1972
   97SAPC   C37 9600   4.190   4.645   3.823  0.8075 -0.2689  0.0029
   97SAPC   H7X 9601   4.245   4.551   3.844  1.5316  0.1959  0.2133
   97SAPC   H7Y 9602   4.090   4.634   3.775  1.5795 -0.3826 -1.6587
   97SAPC   C38 9603   4.162   4.735   3.949  0.3953  0.1777 -0.2867
   97SAPC   H8X 9604   4.078   4.802   3.922 -0.1844 -0.6271 -0.4766
   97SAPC   H8Y 9605   4.251   4.801   3.959 -0.1358  0.9447 -0.5594
   97SAPC   C39 9606   4.119   4.662   4.075 -0.6028  0.0167  0.3662
   97SAPC   H9X 9607   4.204   4.604   4.115 -1.6215 -0.7086  1.5560
   97SAPC   H9Y 9608   4.038   4.586   4.072  0.3702 -1.0844  1.2193
   97SAPC  C310 9609   4.087   4.762   4.188 -0.2744 -0.5724  0.4636
   97SAPC  H10X 9610   4.168   4.838   4.193 -2.3615  1.7218  2.3543
   97SAPC  H10Y 9611   4.093   4.708   4.285 -0.6670  0.4484  1.0762
   97SAPC  C311 9612   3.952   4.830   4.165  0.0482  0.4008  0.1329
   97SAPC  H11X 9613   3.865   4.766   4.141 -0.1692  0.6088  0.3707
   97SAPC  H11Y 9614   3.970   4.902   4.082  1.5140 -0.3561 -0.2565
   97SAPC  C312 9615   3.908   4.903   4.294 -0.1396  0.0626  0.0429
   97SAPC  H12X 9616   3.997   4.950   4.341 -0.1958 -1.7215  2.0777
   97SAPC  H12Y 9617   3.887   4.834   4.378 -0.3982  1.5681  1.2559
   97SAPC  C313 9618   3.801   5.004   4.275  0.4323  0.5553  0.6200
   97SAPC  H13X 9619   3.706   4.967   4.232  1.1159  1.4027 -1.7542
   97SAPC  H13Y 9620   3.832   5.082   4.202  1.3472 -0.9619 -0.6629
   97SAPC  C314 9621   3.755   5.076   4.402  0.2019  0.3412  0.1300
   97SAPC  H14X 9622   3.722   4.998   4.474  1.1339 -0.3926 -0.2189
   97SAPC  H14Y 9623   3.677   5.155   4.390  0.2625  0.3355 -0.3127
   97SAPC  C315 9624   3.868   5.158   4.464  0.4046  0.1359 -0.9093
   97SAPC  H15X 9625   3.874   5.251   4.404 -1.4094  0.2208 -1.0135
   97SAPC  H15Y 9626   3.962   5.099   4.461 -0.9184 -2.0864 -0.5549
   97SAPC  C316 9627   3.841   5.211   4.611  0.0423 -0.1939  0.3392
   97SAPC  H16X 9628   3.820   5.129   4.683 -0.8697  1.8192  2.4852
   97SAPC  H16Y 9629   3.746   5.268   4.608  1.1648  1.6978 -2.2265
   97SAPC  C317 9630   3.948   5.297   4.668  0.3116  0.3401 -0.1759
   97SAPC  H17X 9631   3.965   5.385   4.603  0.3977  2.2174  2.2394
   97SAPC  H17Y 9632   4.040   5.234   4.668  1.3185  1.7166 -2.3390
   97SAPC  C318 9633   3.917   5.344   4.812  0.2421 -0.0736  0.6745
   97SAPC  H18X 9634   3.862   5.268   4.872 -0.0862 -0.9434 -0.6677
   97SAPC  H18Y 9635   3.843   5.426   4.816  1.4130  0.9645  2.3369
   97SAPC  H18Z 9636   4.002   5.383   4.873 -0.1345  0.3135  0.9601
   98SAPC     N 9637   1.876   4.772   2.470 -0.4179  0.1273  0.0003
   98SAPC   C12 9638   1.741   4.830   2.508  0.0139 -0.1323 -0.6513
   98SAPC  H12A 9639   1.689   4.756   2.568  0.8457  1.6769  2.5354
   98SAPC  H12B 9640   1.683   4.863   2.424 -0.6171 -0.2856 -0.2801
   98SAPC   C13 9641   1.967   4.884   2.409  0.1803  0.1877  0.1887
   98SAPC  H13A 9642   2.066   4.848   2.387 -0.1148 -0.8515  0.4946
   98SAPC  H13B 9643   1.928   4.915   2.313  2.6339 -0.9101 -1.2451
   98SAPC  H13C 9644   1.960   4.973   2.470 -0.3182  0.9038 -0.8813
   98SAPC   C14 9645   1.944   4.717   2.593  0.3092  0.1940  0.2985
   98SAPC  H14A 9646   1.890   4.634   2.636  1.0491  0.7303  2.3895
   98SAPC  H14B 9647   2.047   4.695   2.571  0.4014  1.0470 -0.1364
   98SAPC  H14C 9648   1.952   4.786   2.676  1.0140  0.4263  0.0435
   98SAPC   C15 9649   1.869   4.660   2.365  0.3314  0.1660 -0.1874
   98SAPC  H15A 9650   1.964   4.617   2.338 -0.3035 -0.9230 -0.7628
   98SAPC  H15B 9651   1.816   4.574   2.402  1.3262 -0.2441  0.3218
   98SAPC  H15C 9652   1.819   4.695   2.275  1.1554  2.0877  0.0510
   98SAPC   C11 9653   1.738   4.945   2.620 -0.3303  0.1446 -0.4452
   98SAPC  H11A 9654   1.794   4.908   2.709 -1.8382 -1.0109  0.0728
   98SAPC  H11B 9655   1.632   4.957   2.653 -0.8878  0.2169 -2.1650
   98SAPC     P 9656   1.716   5.152   2.465  0.1027  0.4500 -0.5445
   98SAPC   O13 9657   1.817   5.245   2.407  0.5689  0.0991  0.0508
   98SAPC   O14 9658   1.640   5.065   2.370 -0.1428 -0.4283 -0.1050
   98SAPC   O12 9659   1.797   5.067   2.569  0.5339 -0.8467 -0.1328
   98SAPC   O11 9660   1.603   5.235   2.543  0.2177 -0.2083 -0.2213
   98SAPC    C1 9661   1.649   5.320   2.650  0.6952 -0.2988 -1.4141
   98SAPC    HA 9662   1.744   5.284   2.697  0.3114  0.0461 -0.3290
   98SAPC    HB 9663   1.669   5.422   2.611 -1.8984  1.0708  0.5146
   98SAPC    C2 9664   1.540   5.339   2.762  0.8858 -0.3639  0.3207
   98SAPC    HS 9665   1.587   5.399   2.843 -0.6368 -0.2100  1.1101
   98SAPC   O21 9666   1.485   5.213   2.808  0.3705 -0.7687 -0.5346
   98SAPC   C21 9667   1.570   5.134   2.866  0.5423  0.0293  0.2525
   98SAPC   O22 9668   1.689   5.156   2.888  0.2973 -0.4902  0.2084
   98SAPC   C22 9669   1.488   5.013   2.920 -0.2849 -0.7407 -0.0295
   98SAPC   H2R 9670   1.400   5.055   2.973 -0.8183  1.6736 -2.5987
   98SAPC   H2S 9671   1.450   4.953   2.835 -1.5754 -0.7632  0.5439
   98SAPC    C3 9672   1.416   5.418   2.709  0.4098 -0.2759  0.0437
   98SAPC    HX 9673   1.374   5.377   2.615 -0.2418  1.6517 -0.5689
   98SAPC    HY 9674   1.448   5.520   2.675 -1.0150 -0.0020 -0.5252
   98SAPC   O31 9675   1.314   5.436   2.812 -0.0504  0.1761 -0.2292
   98SAPC   C31 9676   1.196   5.372   2.803 -0.5593 -0.3492 -0.6031
   98SAPC   O32 9677   1.158   5.301   2.716 -0.0403  0.2101  0.2080
   98SAPC   C32 9678   1.111   5.415   2.925  0.5306 -0.0848  0.7423
   98SAPC   H2X 9679   1.008   5.376   2.907  0.3683  0.2586  0.9290
   98SAPC   H2Y 9680   1.119   5.525   2.915  0.9592 -0.1419  0.4348
   98SAPC   C23 9681   1.573   4.931   3.019 -0.2787 -0.1232  0.3913
   98SAPC   H3R 9682   1.630   4.997   3.088 -0.4740 -0.3049  0.7311
   98SAPC   H3S 9683   1.638   4.869   2.954 -1.4881 -1.2330  0.2061
   98SAPC   C24 9684   1.489   4.842   3.106 -0.0045  0.1295 -0.3247
   98SAPC   H4R 9685   1.433   4.774   3.038  1.2410  1.2332 -2.5670
   98SAPC   H4S 9686   1.423   4.914   3.159 -0.7258  0.1901 -1.2891
   98SAPC   C25 9687   1.573   4.758   3.203  0.2547  0.5451 -0.2112
   98SAPC   H5R 9688   1.642   4.684   3.162  0.7883  0.3445  1.0146
   98SAPC   C26 9689   1.569   4.763   3.337  0.2883 -0.0470 -0.5845
   98SAPC   H6R 9690   1.632   4.699   3.400 -0.6766  1.6012  2.2509
   98SAPC   C27 9691   1.495   4.848   3.437  0.9021  0.2831  0.0558
   98SAPC   H7R 9692   1.435   4.932   3.397 -1.3317 -1.1614  0.2398
   98SAPC   H7S 9693   1.579   4.889   3.497  0.9565  0.4618 -0.1391
   98SAPC   C28 9694   1.403   4.765   3.525  0.3610 -0.2119  0.0401
   98SAPC   H8R 9695   1.324   4.700   3.484  0.3671  0.5682 -1.2622
   98SAPC   C29 9696   1.411   4.753   3.658 -0.0566 -0.5375  0.0706
   98SAPC   H9R 9697   1.337   4.698   3.717  0.7960 -0.3285  1.3781
   98SAPC  C210 9698   1.504   4.820   3.756  0.5192  0.0335  0.0620
   98SAPC  H10R 9699   1.441   4.857   3.839  0.9537 -0.9211  0.8443
   98SAPC  H10S 9700   1.561   4.909   3.723  0.7219  0.2115  0.8704
   98SAPC  C211 9701   1.612   4.732   3.809 -0.9042  0.7937 -0.1097
   98SAPC  H11R 9702   1.683   4.680   3.743 -2.0116  0.8668 -1.4041
   98SAPC  C212 9703   1.637   4.703   3.943 -0.2799 -0.0284  0.8983
   98SAPC  H12R 9704   1.719   4.636   3.972 -0.7013 -1.3426 -0.8085
   98SAPC  C213 9705   1.544   4.740   4.052  0.0484  0.2501 -0.4206
   98SAPC  H13R 9706   1.504   4.844   4.058 -1.6420 -0.4423  1.5595
   98SAPC  H13S 9707   1.617   4.747   4.135  0.3059 -1.1027 -0.5087
   98SAPC  C214 9708   1.421   4.665   4.092  0.1357 -0.3622  0.0937
   98SAPC  H14R 9709   1.350   4.637   4.013 -0.7254 -1.3102  1.1655
   98SAPC  C215 9710   1.386   4.638   4.216 -0.0001 -0.3374  0.7270
   98SAPC  H15R 9711   1.294   4.581   4.234 -0.0951 -0.7696 -0.9237
   98SAPC  C216 9712   1.476   4.658   4.342  1.1612 -0.3236 -0.1961
   98SAPC  H16R 9713   1.401   4.678   4.421  1.8687  0.5982  0.2642
   98SAPC  H16S 9714   1.536   4.751   4.340  0.4391  0.1419 -0.7829
   98SAPC  C217 9715   1.568   4.536   4.375  0.0331 -0.0227  0.1335
   98SAPC  H17R 9716   1.622   4.565   4.468  3.3429 -2.8842 -0.6700
   98SAPC  H17S 9717   1.640   4.523   4.291  2.4726  1.4846  1.8496
   98SAPC  C218 9718   1.485   4.406   4.399 -0.0405  0.4952  0.2119
   98SAPC  H18R 9719   1.443   4.374   4.301 -0.6964 -1.2858  1.0339
   98SAPC  H18S 9720   1.399   4.419   4.468 -0.0673 -1.0711  0.5203
   98SAPC  C219 9721   1.574   4.295   4.459  0.4766 -0.8809  0.6992
   98SAPC  H19R 9722   1.519   4.199   4.471 -0.5389 -0.3390  0.4698
   98SAPC  H19S 9723   1.603   4.319   4.563  0.0799 -0.4904  0.7205
   98SAPC  C220 9724   1.703   4.269   4.387  0.2219 -0.0199  0.5049
   98SAPC  H20R 9725   1.783   4.346   4.372 -0.3956  0.7734  1.2014
   98SAPC  H20S 9726   1.684   4.235   4.283 -0.5845  0.7961  0.3759
   98SAPC  H20T 9727   1.737   4.178   4.441 -2.3268 -0.8810  0.7733
   98SAPC   C33 9728   1.173   5.383   3.059  0.3016 -0.4244  0.2018
   98SAPC   H3X 9729   1.283   5.383   3.045 -0.0062  0.0414 -2.9280
   98SAPC   H3Y 9730   1.147   5.279   3.088 -1.5766  0.1239  0.6430
   98SAPC   C34 9731   1.125   5.483   3.170 -0.2228 -0.2657 -0.9366
   98SAPC   H4X 9732   1.030   5.442   3.211  0.5515 -2.7177 -1.4076
   98SAPC   H4Y 9733   1.109   5.587   3.136 -2.4433 -0.1253  0.3453
   98SAPC   C35 9734   1.224   5.482   3.291  0.7320 -0.4546 -0.6183
   98SAPC   H5X 9735   1.201   5.572   3.352 -0.8554 -0.2322 -1.5025
   98SAPC   H5Y 9736   1.326   5.508   3.254  1.2960  3.0344  2.7682
   98SAPC   C36 9737   1.235   5.369   3.398  0.6629 -0.6347 -1.1604
   98SAPC   H6X 9738   1.139   5.378   3.453  0.8426  0.0116 -0.9405
   98SAPC   H6Y 9739   1.320   5.403   3.461  1.0104 -2.0117 -0.8419
   98SAPC   C37 9740   1.275   5.233   3.358  0.2704  0.3215 -0.1647
   98SAPC   H7X 9741   1.382   5.245   3.329 -0.1388  0.6930 -1.6094
   98SAPC   H7Y 9742   1.218   5.194   3.271  1.0836  2.1050 -1.5760
   98SAPC   C38 9743   1.254   5.133   3.475  0.1121  0.0559  0.3528
   98SAPC   H8X 9744   1.257   5.032   3.428 -0.8007  1.6552 -3.5697
   98SAPC   H8Y 9745   1.149   5.135   3.511  0.5366  0.2605  1.6129
   98SAPC   C39 9746   1.348   5.149   3.595 -0.0588  0.2752  0.5730
   98SAPC   H9X 9747   1.397   5.247   3.578  1.2401 -0.7220 -1.9346
   98SAPC   H9Y 9748   1.426   5.071   3.587 -1.2204 -1.1149  2.1732
   98SAPC  C310 9749   1.284   5.131   3.730  0.9550 -0.1949 -0.3327
   98SAPC  H10X 9750   1.362   5.125   3.810  0.9148  0.5945 -0.2288
   98SAPC  H10Y 9751   1.219   5.042   3.738  0.6678  0.0378 -0.0571
   98SAPC  C311 9752   1.196   5.256   3.763  0.0938 -0.4826 -0.0947
   98SAPC  H11X 9753   1.109   5.245   3.695  0.7400 -2.1327 -0.6995
   98SAPC  H11Y 9754   1.252   5.348   3.733  1.2142 -0.8398  0.8285
   98SAPC  C312 9755   1.145   5.267   3.907 -0.5765 -0.1321 -0.0991
   98SAPC  H12X 9756   1.106   5.166   3.932 -0.1443  0.1297  1.7960
   98SAPC  H12Y 9757   1.058   5.335   3.918 -1.8686 -1.6833 -0.3399
   98SAPC  C313 9758   1.253   5.323   3.996  0.0311  1.1842 -0.3437
   98SAPC  H13X 9759   1.269   5.433   3.989  1.3792  1.3215  2.8613
   98SAPC  H13Y 9760   1.346   5.264   3.981 -0.0905  0.3866  1.6559
   98SAPC  C314 9761   1.220   5.309   4.141 -0.4612 -0.5161  0.0010
   98SAPC  H14X 9762   1.198   5.206   4.178  1.1117 -1.5842 -1.8439
   98SAPC  H14Y 9763   1.124   5.366   4.148 -0.1026  0.1717 -0.5652
   98SAPC  C315 9764   1.317   5.382   4.231 -0.7700  0.6669 -0.0632
   98SAPC  H15X 9765   1.339   5.484   4.193  2.2435 -0.0563 -0.5238
   98SAPC  H15Y 9766   1.413   5.328   4.218 -0.9613  0.7485 -2.1006
   98SAPC  C316 9767   1.268   5.387   4.375 -0.2923  0.7288  0.2418
   98SAPC  H16X 9768   1.262   5.284   4.415 -1.2140 -0.2173 -2.1560
   98SAPC  H16Y 9769   1.164   5.426   4.369  0.1976  1.9062 -1.1195
   98SAPC  C317 9770   1.349   5.484   4.458 -0.7314  0.3368  0.3004
   98SAPC  H17X 9771   1.360   5.579   4.400 -0.2979 -0.5953 -1.2186
   98SAPC  H17Y 9772   1.452   5.444   4.447 -1.2267 -0.5046 -1.8229
   98SAPC  C318 9773   1.308   5.503   4.602 -0.3110  0.1359 -0.6099
   98SAPC  H18X 9774   1.337   5.605   4.635  0.6598 -0.2982 -0.0808
   98SAPC  H18Y 9775   1.353   5.429   4.672 -1.1073  0.1800 -0.0392
   98SAPC  H18Z 9776   1.198   5.493   4.614 -0.2036  1.2614  2.0601
   99SAPC     N 9777   3.091   0.545   2.550 -0.1429 -0.1276  0.0085
   99SAPC   C12 9778   3.225   0.483   2.500 -0.4358  0.2232 -0.0557
   99SAPC  H12A 9779   3.193   0.396   2.444  1.4890 -0.6143  0.0696
   99SAPC  H12B 9780   3.287   0.461   2.586 -1.5207  0.1252  0.7204
   99SAPC   C13 9781   3.015   0.589   2.428 -0.2319  0.3348 -0.1400
   99SAPC  H13A 9782   3.075   0.657   2.370 -1.8560  1.1777 -0.8992
   99SAPC  H13B 9783   2.991   0.502   2.368  0.9751  0.8503 -1.4257
   99SAPC  H13C 9784   2.924   0.633   2.467 -0.0991 -0.8523  1.6158
   99SAPC   C14 9785   3.010   0.455   2.637 -0.4251 -0.2679 -0.2783
   99SAPC  H14A 9786   3.060   0.420   2.727 -0.9678  0.7269  0.4167
   99SAPC  H14B 9787   2.921   0.507   2.668 -1.1987 -1.1827 -0.8979
   99SAPC  H14C 9788   2.965   0.375   2.580  2.0783 -1.8107 -0.2558
   99SAPC   C15 9789   3.133   0.667   2.622 -0.1735  0.3280 -0.0562
   99SAPC  H15A 9790   3.168   0.639   2.720  0.0672 -0.3774 -0.3336
   99SAPC  H15B 9791   3.217   0.717   2.575 -0.0075  1.0914  1.0063
   99SAPC  H15C 9792   3.054   0.739   2.633 -0.6840 -0.4435  1.7157
   99SAPC   C11 9793   3.323   0.577   2.423  0.3164  0.1779  0.7438
   99SAPC  H11A 9794   3.260   0.617   2.341  2.4295  3.6320  0.6094
   99SAPC  H11B 9795   3.394   0.506   2.376 -0.2293 -0.5523  0.9986
   99SAPC     P 9796   3.538   0.644   2.554  0.2375  0.1828 -0.5301
   99SAPC   O13 9797   3.617   0.588   2.446 -0.5206 -0.3276  0.0511
   99SAPC   O14 9798   3.584   0.765   2.616  0.0295 -0.0811  0.0057
   99SAPC   O12 9799   3.385   0.672   2.501 -0.8661  0.1497 -0.3396
   99SAPC   O11 9800   3.516   0.540   2.667  0.4155 -0.5751  0.1885
   99SAPC    C1 9801   3.552   0.405   2.670  0.8346  0.2121  0.9216
   99SAPC    HA 9802   3.465   0.341   2.645 -0.2834  1.6769  0.9400
   99SAPC    HB 9803   3.634   0.385   2.598  0.6421  1.2808  0.4004
   99SAPC    C2 9804   3.607   0.366   2.805  0.2623 -0.4160 -0.7546
   99SAPC    HS 9805   3.531   0.327   2.876 -1.0947  0.3291 -1.7628
   99SAPC   O21 9806   3.679   0.469   2.864  0.1657  0.1710 -0.1571
   99SAPC   C21 9807   3.612   0.549   2.938  0.1899  0.1600  0.1474
   99SAPC   O22 9808   3.495   0.531   2.974  0.0914  0.0977  0.3498
   99SAPC   C22 9809   3.701   0.663   2.979  0.3311 -0.2028  0.5784
   99SAPC   H2R 9810   3.809   0.644   2.961  0.3718 -1.1702  1.7137
   99SAPC   H2S 9811   3.663   0.744   2.913 -0.6585 -2.1397 -1.3898
   99SAPC    C3 9812   3.698   0.244   2.782 -0.2711 -0.3106 -0.2312
   99SAPC    HX 9813   3.773   0.258   2.702 -1.8104  0.4066 -1.6041
   99SAPC    HY 9814   3.630   0.169   2.735 -1.6715  2.1807 -2.4996
   99SAPC   O31 9815   3.757   0.199   2.906 -0.1875  0.0295  0.5700
   99SAPC   C31 9816   3.880   0.251   2.922 -0.2740  0.3003 -0.4971
   99SAPC   O32 9817   3.941   0.312   2.840 -0.7455  0.6820 -0.4077
   99SAPC   C32 9818   3.930   0.221   3.064  0.2133  0.0785  0.5749
   99SAPC   H2X 9819   4.024   0.163   3.063 -0.0175 -0.3064  0.8886
   99SAPC   H2Y 9820   3.862   0.154   3.121  0.4559 -0.4805  0.2193
   99SAPC   C23 9821   3.701   0.710   3.129 -0.1120  0.1834  0.0650
   99SAPC   H3R 9822   3.800   0.758   3.137  0.1725 -0.5959  1.5197
   99SAPC   H3S 9823   3.698   0.620   3.195 -0.5536 -0.0663 -0.2906
   99SAPC   C24 9824   3.581   0.810   3.177 -0.3624 -0.0708  0.6677
   99SAPC   H4R 9825   3.487   0.754   3.195  0.1307 -0.6851  1.3694
   99SAPC   H4S 9826   3.561   0.890   3.102  1.7476 -0.0984  0.0012
   99SAPC   C25 9827   3.630   0.867   3.305  0.5865 -0.8041 -0.4046
   99SAPC   H5R 9828   3.659   0.973   3.304 -1.2478 -0.2004  1.4175
   99SAPC   C26 9829   3.627   0.809   3.429 -0.0855 -0.1935  0.0319
   99SAPC   H6R 9830   3.667   0.867   3.514 -2.7841  0.8890  0.6742
   99SAPC   C27 9831   3.582   0.667   3.460 -0.0767 -0.2487 -0.2760
   99SAPC   H7R 9832   3.556   0.605   3.371 -0.4833  0.3844 -0.6050
   99SAPC   H7S 9833   3.488   0.684   3.517 -1.2314 -0.7763 -1.9528
   99SAPC   C28 9834   3.689   0.602   3.543 -0.1530  0.4684  0.8081
   99SAPC   H8R 9835   3.792   0.608   3.503  0.1502  0.1201  1.5077
   99SAPC   C29 9836   3.674   0.566   3.672 -0.0247 -0.2865 -0.1147
   99SAPC   H9R 9837   3.762   0.528   3.725  1.0485 -1.1462 -2.3799
   99SAPC  C210 9838   3.550   0.563   3.750 -0.5646  0.8221 -0.8388
   99SAPC  H10R 9839   3.549   0.469   3.809  1.3187 -0.8350 -3.2736
   99SAPC  H10S 9840   3.462   0.571   3.682 -0.5367  0.9610 -0.8581
   99SAPC  C211 9841   3.541   0.677   3.846  0.5420  0.0387  0.1434
   99SAPC  H11R 9842   3.476   0.760   3.814 -0.2283 -0.2839  0.8306
   99SAPC  C212 9843   3.576   0.682   3.976  0.5348  0.4238 -0.3151
   99SAPC  H12R 9844   3.573   0.779   4.027 -0.2911 -0.7836  2.0779
   99SAPC  C213 9845   3.656   0.582   4.054  0.2953 -0.7071  0.6391
   99SAPC  H13R 9846   3.761   0.617   4.070  0.8054 -1.8288 -0.1216
   99SAPC  H13S 9847   3.664   0.487   3.997  0.3229 -0.1749 -0.2491
   99SAPC  C214 9848   3.594   0.549   4.187 -0.1388  0.7982  0.1791
   99SAPC  H14R 9849   3.513   0.615   4.221 -0.7685 -0.0317  0.3245
   99SAPC  C215 9850   3.613   0.432   4.257 -0.3070 -0.6016 -0.6228
   99SAPC  H15R 9851   3.556   0.439   4.351 -0.7626  1.5675 -1.0119
   99SAPC  C216 9852   3.713   0.319   4.239  0.6027 -0.4555 -0.2880
   99SAPC  H16R 9853   3.811   0.370   4.230  0.6650  0.2642  2.9882
   99SAPC  H16S 9854   3.683   0.255   4.153 -0.6243  0.6337 -0.6993
   99SAPC  C217 9855   3.722   0.237   4.361 -0.4137 -0.5490 -0.5122
   99SAPC  H17R 9856   3.623   0.200   4.393  0.3689 -1.0404  1.4611
   99SAPC  H17S 9857   3.777   0.292   4.440  0.7965 -0.2541 -1.5261
   99SAPC  C218 9858   3.806   0.119   4.328 -0.5071 -0.1879 -0.2822
   99SAPC  H18R 9859   3.914   0.137   4.308 -0.6470 -0.3486 -1.1989
   99SAPC  H18S 9860   3.774   0.088   4.227  2.4218  1.4786 -1.8540
   99SAPC  C219 9861   3.802   0.009   4.436 -0.5632  0.7219  0.1052
   99SAPC  H19R 9862   3.841  -0.078   4.379 -0.7252  0.4089  0.4649
   99SAPC  H19S 9863   3.700  -0.033   4.455 -0.9918  0.6929 -1.9901
   99SAPC  C220 9864   3.873   0.033   4.567  0.0986 -0.1382  0.0374
   99SAPC  H20R 9865   3.979   0.059   4.545  0.2889  0.1074  1.1637
   99SAPC  H20S 9866   3.873  -0.054   4.636  1.4519 -0.5889 -0.4827
   99SAPC  H20T 9867   3.823   0.111   4.628 -0.0961  1.2625 -1.8202
   99SAPC   C33 9868   3.935   0.351   3.145 -0.3194 -0.2524 -0.6232
   99SAPC   H3X 9869   3.853   0.421   3.119 -1.8095 -1.8674 -0.4122
   99SAPC   H3Y 9870   4.034   0.397   3.123 -0.4541 -0.2252 -1.1994
   99SAPC   C34 9871   3.935   0.335   3.303  0.7476  0.1682 -0.1465
   99SAPC   H4X 9872   3.846   0.278   3.336 -2.6936  4.0722 -1.8785
   99SAPC   H4Y 9873   3.921   0.432   3.355 -2.8794 -0.9482  1.2482
   99SAPC   C35 9874   4.056   0.252   3.356 -0.5434  0.6688 -0.1557
   99SAPC   H5X 9875   4.135   0.328   3.335 -1.5447  2.0025  0.7528
   99SAPC   H5Y 9876   4.064   0.159   3.295 -1.1026 -0.0308  0.8052
   99SAPC   C36 9877   4.041   0.208   3.504  0.1185 -0.3805 -0.0264
   99SAPC   H6X 9878   4.110   0.122   3.523  1.1568  0.7928  1.9648
   99SAPC   H6Y 9879   3.939   0.167   3.516  0.2872 -1.1590 -1.0841
   99SAPC   C37 9880   4.062   0.327   3.600  0.3768 -0.0513 -0.2038
   99SAPC   H7X 9881   4.018   0.422   3.563 -2.1986 -0.5203  1.4066
   99SAPC   H7Y 9882   4.170   0.352   3.598  0.0676  1.3523 -2.7077
   99SAPC   C38 9883   4.019   0.303   3.751  0.1993 -0.2443  0.6619
   99SAPC   H8X 9884   4.004   0.197   3.780 -1.2382 -0.3536 -0.3932
   99SAPC   H8Y 9885   3.919   0.350   3.746  0.6146  0.6996  0.8800
   99SAPC   C39 9886   4.109   0.380   3.852  0.0352  0.3553  0.2732
   99SAPC   H9X 9887   4.124   0.486   3.825  1.0414  0.5503  1.5191
   99SAPC   H9Y 9888   4.210   0.333   3.838 -1.0442 -1.6921 -1.2628
   99SAPC  C310 9889   4.057   0.389   3.997  0.2719 -0.0559  0.6838
   99SAPC  H10X 9890   4.045   0.286   4.036 -1.0543 -0.4586 -0.7208
   99SAPC  H10Y 9891   3.968   0.455   4.000 -0.2214 -0.6463 -0.4105
   99SAPC  C311 9892   4.168   0.444   4.085 -0.0990 -0.6727 -0.3978
   99SAPC  H11X 9893   4.202   0.541   4.043  0.4012 -0.7528 -0.1947
   99SAPC  H11Y 9894   4.260   0.382   4.078  0.3341 -0.2730  1.3277
   99SAPC  C312 9895   4.133   0.466   4.232  0.8763  0.8484 -0.0781
   99SAPC  H12X 9896   4.095   0.370   4.273  0.8166  1.1508  0.5871
   99SAPC  H12Y 9897   4.049   0.537   4.238 -0.5700 -0.8594  1.2453
   99SAPC  C313 9898   4.249   0.522   4.321  0.1114 -0.3011  0.2245
   99SAPC  H13X 9899   4.340   0.459   4.312  0.3929 -0.1434  1.6641
   99SAPC  H13Y 9900   4.213   0.517   4.426  1.7923  0.6374  0.8863
   99SAPC  C314 9901   4.303   0.668   4.293 -0.3165  0.5169 -0.4685
   99SAPC  H14X 9902   4.274   0.746   4.368  0.4220 -0.3749  0.7740
   99SAPC  H14Y 9903   4.267   0.690   4.190  2.5339 -0.8522 -1.8569
   99SAPC  C315 9904   4.460   0.675   4.286 -0.5218  0.1589 -0.1698
   99SAPC  H15X 9905   4.491   0.782   4.279 -1.4514  0.4524 -0.0085
   99SAPC  H15Y 9906   4.493   0.636   4.187  0.4349  0.3023  0.0842
   99SAPC  C316 9907   4.535   0.597   4.401 -0.4925  0.4637  0.0207
   99SAPC  H16X 9908   4.644   0.597   4.380 -0.2451  1.0683  1.2248
   99SAPC  H16Y 9909   4.501   0.491   4.404 -2.3272  1.0319  0.7736
   99SAPC  C317 9910   4.529   0.652   4.539 -0.0410 -0.3860 -0.3557
   99SAPC  H17X 9911   4.432   0.619   4.582 -0.1501  0.4452  0.0597
   99SAPC  H17Y 9912   4.539   0.763   4.535 -0.2468 -0.2161  2.2298
   99SAPC  C318 9913   4.639   0.603   4.636  0.6765  0.4802  0.4663
   99SAPC  H18X 9914   4.620   0.499   4.670 -1.3692 -0.1686 -2.2531
   99SAPC  H18Y 9915   4.626   0.673   4.721 -1.5210  0.8350 -0.1015
   99SAPC  H18Z 9916   4.736   0.622   4.586  0.4748  0.0291 -0.1256
  100SAPC     N 9917   3.891   2.850   2.332 -0.6650  0.2334  0.1117
  100SAPC   C12 9918   4.017   2.931   2.316 -0.2853  0.4896  0.0187
  100SAPC  H12A 9919   4.089   2.908   2.392 -0.9097 -3.1449 -0.2873
  100SAPC  H12B 9920   3.986   3.034   2.313  1.2832  1.0203  1.2105
  100SAPC   C13 9921   3.922   2.700   2.357  0.2898  0.4961 -0.8134
  100SAPC  H13A 9922   3.981   2.664   2.274 -1.1173 -2.6570 -0.5967
  100SAPC  H13B 9923   3.980   2.681   2.447  0.1207  2.6150 -0.1885
  100SAPC  H13C 9924   3.836   2.635   2.363  0.7332  0.0101  0.9218
  100SAPC   C14 9925   3.819   2.906   2.453 -0.4456 -0.7044 -0.5848
  100SAPC  H14A 9926   3.738   2.841   2.483  0.5628 -0.6429  2.6702
  100SAPC  H14B 9927   3.885   2.908   2.538 -2.2765  1.8455  0.9593
  100SAPC  H14C 9928   3.784   3.008   2.448 -0.9841 -0.5698  2.9783
  100SAPC   C15 9929   3.813   2.872   2.215 -0.1818  0.5720 -0.0302
  100SAPC  H15A 9930   3.764   2.967   2.206 -2.0672 -0.3918 -0.4261
  100SAPC  H15B 9931   3.868   2.852   2.124 -1.6292 -0.3763 -0.7333
  100SAPC  H15C 9932   3.730   2.803   2.202 -2.0362  2.3529  1.6683
  100SAPC   C11 9933   4.109   2.913   2.183 -0.2620  0.9203 -0.3882
  100SAPC  H11A 9934   4.192   2.987   2.192 -0.9091  1.8039 -1.3707
  100SAPC  H11B 9935   4.058   2.950   2.091  0.1550  0.2561 -0.8935
  100SAPC     P 9936   4.269   2.734   2.269 -0.5240 -0.0215 -0.2340
  100SAPC   O13 9937   4.397   2.727   2.199 -0.8151  0.1254 -0.3390
  100SAPC   O14 9938   4.265   2.831   2.383 -0.2975  0.2528 -0.1709
  100SAPC   O12 9939   4.155   2.779   2.165 -0.2279 -0.2917  0.0585
  100SAPC   O11 9940   4.228   2.592   2.324 -0.4445 -0.1685 -0.8092
  100SAPC    C1 9941   4.281   2.549   2.451  0.6319 -0.2713  0.6188
  100SAPC    HA 9942   4.384   2.511   2.437  1.4013  2.5448 -3.1668
  100SAPC    HB 9943   4.287   2.620   2.536  1.4470  1.9138 -1.1643
  100SAPC    C2 9944   4.214   2.414   2.497 -0.3440 -0.5665  0.0062
  100SAPC    HS 9945   4.204   2.358   2.402  1.5527  0.5392 -0.9072
  100SAPC   O21 9946   4.090   2.438   2.557  0.0420  0.0148 -0.4225
  100SAPC   C21 9947   3.999   2.338   2.546 -0.8601  0.3809 -0.3840
  100SAPC   O22 9948   4.019   2.226   2.501 -0.0965 -0.3791  0.2519
  100SAPC   C22 9949   3.862   2.398   2.596  0.0719  0.3088 -0.1095
  100SAPC   H2R 9950   3.888   2.494   2.645  1.9853 -0.0386 -0.3591
  100SAPC   H2S 9951   3.804   2.420   2.504 -1.1568 -2.6720 -0.1637
  100SAPC    C3 9952   4.308   2.321   2.585  0.2271 -0.0221 -0.0358
  100SAPC    HX 9953   4.401   2.289   2.534 -0.3882  0.7501 -1.7109
  100SAPC    HY 9954   4.255   2.226   2.608  2.5127 -1.2063  0.6191
  100SAPC   O31 9955   4.335   2.399   2.703 -0.6294 -0.3717  0.0117
  100SAPC   C31 9956   4.448   2.456   2.717  0.0264 -0.1701 -0.0104
  100SAPC   O32 9957   4.544   2.455   2.646  0.4037 -0.3147  0.0003
  100SAPC   C32 9958   4.431   2.530   2.846  0.4504 -0.1564 -0.4177
  100SAPC   H2X 9959   4.392   2.470   2.931  3.0877 -0.3829  0.7354
  100SAPC   H2Y 9960   4.357   2.610   2.826  0.6899  0.0587 -0.4598
  100SAPC   C23 9961   3.794   2.293   2.690  0.0092  0.0776 -0.0673
  100SAPC   H3R 9962   3.793   2.188   2.654  1.0461  1.0162 -3.1532
  100SAPC   H3S 9963   3.687   2.324   2.679 -0.3410 -1.3683 -0.9324
  100SAPC   C24 9964   3.833   2.300   2.837  0.1324  0.1148 -0.1551
  100SAPC   H4R 9965   3.783   2.234   2.911  1.2636 -0.7364 -0.1396
  100SAPC   H4S 9966   3.809   2.402   2.874 -3.2786 -1.2575  1.8948
  100SAPC   C25 9967   3.982   2.273   2.857 -1.2625  0.0637  0.1143
  100SAPC   H5R 9968   4.022   2.197   2.789 -3.6360 -2.1333  0.9697
  100SAPC   C26 9969   4.054   2.323   2.959 -0.1801 -0.3359 -0.2853
  100SAPC   H6R 9970   4.162   2.303   2.950  0.4894  0.3591  4.0089
  100SAPC   C27 9971   4.029   2.421   3.068 -0.3484 -0.2667  0.3131
  100SAPC   H7R 9972   3.923   2.450   3.055 -0.5793 -0.6190  1.3132
  100SAPC   H7S 9973   4.090   2.513   3.068 -0.7256  0.0087 -0.9452
  100SAPC   C28 9974   4.049   2.344   3.192  0.0420  0.0364 -0.0198
  100SAPC   H8R 9975   4.015   2.239   3.189  0.7486 -0.1994 -0.0325
  100SAPC   C29 9976   4.078   2.393   3.316  0.2265 -0.3078 -0.2477
  100SAPC   H9R 9977   4.101   2.321   3.395  1.5933 -1.4262 -1.5903
  100SAPC  C210 9978   4.091   2.537   3.350  0.7580  0.7981  0.3588
  100SAPC  H10R 9979   4.043   2.574   3.443 -1.4776 -0.1802 -0.3404
  100SAPC  H10S 9980   4.045   2.603   3.273  1.3287 -0.4859 -1.1488
  100SAPC  C211 9981   4.233   2.569   3.356  0.1895  0.5195 -0.1814
  100SAPC  H11R 9982   4.290   2.530   3.270 -1.9408 -0.0931 -1.3705
  100SAPC  C212 9983   4.292   2.638   3.455 -0.1935 -0.1141 -0.1952
  100SAPC  H12R 9984   4.401   2.654   3.459 -0.3514  0.8046  1.4880
  100SAPC  C213 9985   4.226   2.706   3.578 -0.8459  0.5146  0.1388
  100SAPC  H13R 9986   4.118   2.719   3.554 -0.9130 -1.2202 -0.5781
  100SAPC  H13S 9987   4.283   2.801   3.590  0.7764 -0.2973 -0.8590
  100SAPC  C214 9988   4.238   2.613   3.692 -0.8471  0.0123  0.4980
  100SAPC  H14R 9989   4.248   2.508   3.662  0.6860  0.4424 -0.6154
  100SAPC  C215 9990   4.220   2.635   3.823  0.0326 -0.3214  0.2064
  100SAPC  H15R 9991   4.240   2.564   3.905  1.8554  0.4086  0.4375
  100SAPC  C216 9992   4.203   2.770   3.880 -0.2590  0.5814 -0.1272
  100SAPC  H16R 9993   4.156   2.842   3.810  1.4619  1.3775 -0.5217
  100SAPC  H16S 9994   4.298   2.823   3.902 -0.2810  0.0341  1.4047
  100SAPC  C217 9995   4.124   2.753   4.017 -0.6028 -0.5781  0.2836
  100SAPC  H17R 9996   4.176   2.685   4.088  1.4603 -0.0917 -0.6749
  100SAPC  H17S 9997   4.023   2.710   4.000 -0.6727 -0.1806 -0.3495
  100SAPC  C218 9998   4.128   2.889   4.080  0.0924  0.4245 -0.1532
  100SAPC  H18R 9999   4.108   2.962   3.998 -1.6441 -2.1308 -2.1778
  100SAPC  H18S10000   4.231   2.904   4.117  0.0618  0.5504 -0.1203
  100SAPC  C21910001   4.025   2.919   4.192 -1.1229  0.3903  0.5294
  100SAPC  H19R10002   3.924   2.890   4.154 -0.7672  1.3133 -1.2027
  100SAPC  H19S10003   4.024   3.029   4.205  2.3411  0.7853 -1.4650
  100SAPC  C22010004   4.056   2.847   4.319  0.0396  0.0456 -0.0502
  100SAPC  H20R10005   4.054   2.737   4.306 -1.6485 -0.0997  1.2618
  100SAPC  H20S10006   3.992   2.884   4.401  0.1668 -3.1680  1.6248
  100SAPC  H20T10007   4.162   2.870   4.345 -0.1205 -0.0917  0.7167
  100SAPC   C3310008   4.566   2.596   2.892  0.5547 -0.3979 -0.0182
  100SAPC   H3X10009   4.608   2.657   2.809  0.4299 -0.4304 -0.1049
  100SAPC   H3Y10010   4.634   2.509   2.906  0.8335  0.0509  1.6990
  100SAPC   C3410011   4.547   2.672   3.027  0.2404 -0.2291  0.0782
  100SAPC   H4X10012   4.513   2.600   3.104 -1.7571 -1.2127 -1.5953
  100SAPC   H4Y10013   4.467   2.748   3.011 -1.1431 -1.8088 -0.8558
  100SAPC   C3510014   4.676   2.733   3.080 -0.1623  0.6709 -0.1244
  100SAPC   H5X10015   4.723   2.817   3.024  0.5653 -0.5246 -1.3544
  100SAPC   H5Y10016   4.747   2.648   3.087 -1.2584 -0.1419  2.1501
  100SAPC   C3610017   4.650   2.771   3.230  0.2782 -0.6062 -0.8922
  100SAPC   H6X10018   4.552   2.734   3.266 -0.1358 -0.8558 -2.2333
  100SAPC   H6Y10019   4.641   2.882   3.229 -0.7666 -0.6314  1.3013
  100SAPC   C3710020   4.767   2.728   3.322  0.1903  0.3930 -0.2573
  100SAPC   H7X10021   4.859   2.751   3.264  0.0316  2.9655  0.4000
  100SAPC   H7Y10022   4.781   2.620   3.341  3.2782  0.6171 -0.7646
  100SAPC   C3810023   4.761   2.805   3.454 -0.0692  0.3323 -0.6172
  100SAPC   H8X10024   4.662   2.774   3.494  0.1083 -1.0720 -1.2376
  100SAPC   H8Y10025   4.754   2.916   3.448 -3.2579  0.4766  2.3467
  100SAPC   C3910026   4.876   2.763   3.544  0.1354 -0.1166 -0.8027
  100SAPC   H9X10027   4.971   2.808   3.505  1.2109 -1.4320  0.1944
  100SAPC   H9Y10028   4.888   2.654   3.531  1.1384 -0.6886  3.4735
  100SAPC  C31010029   4.863   2.792   3.693  0.1751  0.3027  0.1443
  100SAPC  H10X10030   4.787   2.726   3.738  1.8802 -1.4681  0.5906
  100SAPC  H10Y10031   4.820   2.894   3.707 -0.9057  0.0165 -0.9663
  100SAPC  C31110032   4.999   2.780   3.771 -0.2533  0.2324  0.2310
  100SAPC  H11X10033   4.989   2.796   3.881  2.8723 -0.3709  0.6873
  100SAPC  H11Y10034   5.059   2.863   3.728  0.4172 -0.5752 -0.4374
  100SAPC  C31210035   5.075   2.645   3.763  0.5466 -0.7156  0.0480
  100SAPC  H12X10036   5.111   2.632   3.659  1.4998 -1.6160  0.4777
  100SAPC  H12Y10037   5.002   2.569   3.797  0.6244 -0.4783  0.7516
  100SAPC  C31310038   5.198   2.651   3.850  0.2257  0.3398  0.3701
  100SAPC  H13X10039   5.258   2.742   3.829 -2.1768  1.1403 -4.3772
  100SAPC  H13Y10040   5.260   2.564   3.821  0.5870  0.0329  1.9521
  100SAPC  C31410041   5.166   2.639   4.000  0.1430  0.0631 -0.9270
  100SAPC  H14X10042   5.147   2.530   4.014 -0.4947  0.3851  1.0653
  100SAPC  H14Y10043   5.076   2.686   4.044  0.9999 -0.4208  1.5240
  100SAPC  C31510044   5.291   2.672   4.085  0.5482  0.9245 -0.3323
  100SAPC  H15X10045   5.281   2.777   4.122 -3.7378  0.5317  0.0799
  100SAPC  H15Y10046   5.371   2.669   4.008 -0.7280 -2.2837 -1.6952
  100SAPC  C31610047   5.319   2.579   4.200 -0.0113 -0.0904 -0.3328
  100SAPC  H16X10048   5.355   2.478   4.173 -0.9127 -0.2046 -1.1488
  100SAPC  H16Y10049   5.225   2.561   4.256  0.4433 -1.5045  0.0182
  100SAPC  C31710050   5.419   2.631   4.312  0.2853 -0.1710  0.0067
  100SAPC  H17X10051   5.378   2.729   4.344  0.7824 -0.4076  1.4629
  100SAPC  H17Y10052   5.521   2.640   4.269  0.6093 -1.3687  0.4852
  100SAPC  C31810053   5.428   2.528   4.426  0.3296  0.1926 -0.5237
  100SAPC  H18X10054   5.493   2.553   4.512 -0.2491 -0.5235  0.1445
  100SAPC  H18Y10055   5.462   2.432   4.381 -1.0107 -1.9854  2.7372
  100SAPC  H18Z10056   5.327   2.498   4.461 -0.0838  0.4793 -1.4246
  101OSM      N10057   4.824   4.939   7.039  0.3389  0.2121  0.1415
  101OSM    C1510058   4.781   4.961   7.188 -0.8300  0.0425 -0.2681
  101OSM   H15A10059   4.869   4.994   7.242 -0.2051 -0.2830 -1.0598
  101OSM   H15B10060   4.740   4.872   7.232 -1.9237 -0.4433 -2.1623
  101OSM   H15C10061   4.710   5.042   7.185 -0.7059  0.1367 -0.8139
  101OSM    C1410062   4.878   5.075   6.997 -0.1964  0.6671  0.1421
  101OSM   H14A10063   4.900   5.082   6.892  0.0733  2.7375  0.2914
  101OSM   H14B10064   4.974   5.097   7.041  0.4346  1.2993 -1.4707
  101OSM   H14C10065   4.815   5.161   7.016  2.1401  2.3652  0.6018
  101OSM    C1310066   4.936   4.836   7.032  0.3753 -0.6953  0.2115
  101OSM   H13A10067   5.030   4.874   7.069  1.1593  0.7434 -2.9392
  101OSM   H13B10068   4.948   4.808   6.928 -1.4147  1.0396 -0.5453
  101OSM   H13C10069   4.902   4.749   7.085  0.6154  0.1515  1.8265
  101OSM    C1210070   4.705   4.895   6.962  0.5161  0.1154  1.0207
  101OSM   H12A10071   4.623   4.963   6.976  0.8062  0.4552  1.0639
  101OSM   H12B10072   4.656   4.808   7.004 -1.0348  0.9607  1.0180
  101OSM    C1110073   4.728   4.868   6.808  0.6976  0.0716  0.1902
  101OSM   H11A10074   4.776   4.961   6.769 -1.3647  1.0117 -0.2380
  101OSM   H11B10075   4.631   4.854   6.756  1.3208  1.2923 -1.3970
  101OSM      P10076   4.760   4.604   6.811  0.3091 -0.4331  0.1917
  101OSM    O1310077   4.879   4.515   6.791 -0.2554  0.5283 -0.4564
  101OSM    O1410078   4.691   4.589   6.938 -0.0567 -0.7432 -0.0965
  101OSM    O1110079   4.658   4.586   6.693  0.3978 -0.2191  0.7997
  101OSM    O1210080   4.813   4.754   6.796  0.2256  0.5817  0.1225
  101OSM    C1S10081   4.696   4.619   6.560 -0.2898  0.7673 -0.0878
  101OSM    H1S10082   4.777   4.551   6.526  0.2121 -1.2999  4.4602
  101OSM    H1T10083   4.724   4.724   6.541  0.4801  0.5654 -0.0915
  101OSM     NF10084   4.598   4.638   6.330  0.2099 -0.1704 -0.4524
  101OSM    HNF10085   4.576   4.733   6.307  0.1494 -0.1023 -0.1190
  101OSM    C2S10086   4.572   4.593   6.470 -0.4685 -0.0549  0.4942
  101OSM    H2S10087   4.545   4.486   6.466  0.8771 -0.3916 -3.7152
  101OSM    C3S10088   4.440   4.672   6.520 -0.8018  1.1194 -0.5037
  101OSM    H3S10089   4.461   4.780   6.504 -0.0607  0.7631 -2.1681
  101OSM     O310090   4.418   4.674   6.661 -0.0217  0.0916  0.1094
  101OSM    HO310091   4.505   4.665   6.700 -0.1021  1.5003  0.6681
  101OSM    C4S10092   4.313   4.631   6.452 -0.3953 -0.1726 -0.4281
  101OSM    H4S10093   4.299   4.676   6.352  2.6399 -2.3710 -1.9985
  101OSM    C5S10094   4.215   4.549   6.498  0.5089 -0.1306 -0.0581
  101OSM    H5S10095   4.218   4.503   6.597 -0.9675  0.5604  0.3480
  101OSM    C6S10096   4.092   4.506   6.412  0.0477  0.3941  0.6487
  101OSM    H6S10097   4.059   4.582   6.337 -1.3511 -1.1560 -0.3557
  101OSM    H6T10098   4.000   4.479   6.468  0.2695 -0.6632  0.5092
  101OSM    C7S10099   4.125   4.383   6.329 -0.3275  0.3325 -0.3952
  101OSM    H7S10100   4.033   4.345   6.281  1.1736  0.3622 -3.5321
  101OSM    H7T10101   4.164   4.299   6.390  0.1353  0.3985 -0.5954
  101OSM    C8S10102   4.232   4.412   6.219 -0.0106 -0.3546 -1.2007
  101OSM    H8S10103   4.235   4.313   6.168  0.0238 -0.3683 -1.1724
  101OSM    H8T10104   4.329   4.430   6.269  0.2427 -0.1763 -1.7591
  101OSM    C9S10105   4.196   4.505   6.109  0.0021 -0.2766 -0.0796
  101OSM    H9S10106   4.202   4.605   6.157  1.1250 -0.2004 -0.3685
  101OSM    H9T10107   4.095   4.497   6.062  0.7480  2.3585 -2.3755
  101OSM   C10S10108   4.299   4.510   5.992 -0.5866 -0.0894 -0.1889
  101OSM   H10S10109   4.320   4.407   5.957  0.7493  0.1549 -0.1701
  101OSM   H10T10110   4.394   4.552   6.032 -0.0060 -0.3940 -1.1914
  101OSM   C11S10111   4.257   4.593   5.873  0.4755 -0.3959  0.3035
  101OSM   H11S10112   4.270   4.700   5.900  0.4244 -0.1495 -0.6329
  101OSM   H11T10113   4.148   4.576   5.858  0.0447  1.9520  0.4975
  101OSM   C12S10114   4.325   4.545   5.745 -0.0299 -0.0714  0.0264
  101OSM   H12S10115   4.323   4.435   5.738 -0.6478 -0.1476  1.1979
  101OSM   H12T10116   4.431   4.578   5.748 -0.4005  1.2354  3.9106
  101OSM   C13S10117   4.252   4.599   5.616  0.3774 -0.1432 -0.2959
  101OSM   H13S10118   4.267   4.709   5.620  1.6717 -0.3206  0.0294
  101OSM   H13T10119   4.144   4.572   5.625  0.4079  0.1182  1.1681
  101OSM   C14S10120   4.324   4.554   5.489  0.1688  0.5684 -0.2344
  101OSM   H14S10121   4.346   4.445   5.488  0.6015  0.6566 -1.2675
  101OSM   H14T10122   4.424   4.600   5.473  0.0704  0.9432  0.2026
  101OSM   C15S10123   4.232   4.573   5.365 -0.0773 -0.0610  1.2524
  101OSM   H15S10124   4.188   4.675   5.378  0.9855  0.6267 -0.2612
  101OSM   H15T10125   4.140   4.511   5.368 -1.5234  1.9912  1.5382
  101OSM   C16S10126   4.311   4.570   5.237  0.2519  0.4807  0.0122
  101OSM   H16S10127   4.372   4.478   5.251  1.1609  1.3613  2.3254
  101OSM   H16T10128   4.382   4.655   5.233  0.8950 -0.0776 -0.7304
  101OSM   C17S10129   4.215   4.546   5.119  1.0971 -0.0611  0.4512
  101OSM   H17S10130   4.144   4.631   5.111  0.1992 -0.8535 -0.1775
  101OSM   H17T10131   4.157   4.451   5.130  0.9708  0.0380  0.6463
  101OSM   C18S10132   4.287   4.531   4.986 -0.3430  0.3033  0.2801
  101OSM   H18S10133   4.366   4.453   4.996  1.0167  1.7226  1.0077
  101OSM   H18T10134   4.321   4.624   4.937 -4.7949  1.5663 -0.8908
  101OSM   H18U10135   4.225   4.490   4.903  1.2289  0.7129 -1.1503
  101OSM    C1F10136   4.665   4.558   6.246  0.4179  0.3381 -0.1960
  101OSM     OF10137   4.677   4.438   6.266  0.5544  0.0419  0.1977
  101OSM    C2F10138   4.738   4.618   6.135  1.0684 -0.5634 -0.7234
  101OSM    H2F10139   4.845   4.626   6.165  1.1981 -0.0203 -1.3075
  101OSM    H2G10140   4.699   4.718   6.107  0.4855 -0.4578  0.4364
  101OSM    C3F10141   4.722   4.529   6.014  0.7497  0.4718  0.3496
  101OSM    H3F10142   4.612   4.535   6.004  0.4804 -0.3120  2.3367
  101OSM    H3G10143   4.745   4.422   6.030  0.7674  0.0792 -1.9639
  101OSM    C4F10144   4.778   4.581   5.882  1.0277  0.2586 -0.6129
  101OSM    H4F10145   4.888   4.593   5.895  0.9982  2.1595 -1.7035
  101OSM    H4G10146   4.744   4.681   5.849 -1.8508  0.2739  1.8973
  101OSM    C5F10147   4.766   4.479   5.773  0.3142  0.4288 -0.5342
  101OSM    H5F10148   4.658   4.472   5.748  0.9064  2.1197 -4.3865
  101OSM    H5G10149   4.807   4.388   5.821 -0.4415  0.9802  1.1999
  101OSM    C6F10150   4.849   4.518   5.651 -0.9626  0.2448 -0.4247
  101OSM    H6F10151   4.951   4.503   5.693 -1.0887 -1.2428 -0.5834
  101OSM    H6G10152   4.835   4.627   5.637 -0.5560  0.0434 -2.9217
  101OSM    C7F10153   4.828   4.437   5.520  0.1765 -0.0118 -0.1967
  101OSM    H7F10154   4.845   4.329   5.539 -0.4220  0.2947  2.4839
  101OSM    H7G10155   4.904   4.463   5.444 -0.2887  0.3280 -0.5464
  101OSM    C8F10156   4.687   4.457   5.463 -0.0861  0.0037  0.5811
  101OSM    H8F10157   4.679   4.568   5.460  0.0703  0.0298 -2.5569
  101OSM    H8G10158   4.611   4.414   5.531  0.7688 -2.4405  0.0871
  101OSM    C9F10159   4.675   4.387   5.331  0.8352  0.5958 -0.5042
  101OSM    H9F10160   4.690   4.281   5.356 -1.8593  1.0735  4.1517
  101OSM   C10F10161   4.663   4.434   5.207  0.6479 -0.1273 -0.3831
  101OSM   H10F10162   4.678   4.366   5.123  2.7965 -0.7424  0.4330
  101OSM   C11F10163   4.669   4.580   5.167 -0.3581  0.0071  0.4664
  101OSM   H11F10164   4.597   4.640   5.227  1.1312 -0.6982  3.1278
  101OSM   H11G10165   4.646   4.584   5.059 -2.9752 -0.3977  0.9422
  101OSM   C12F10166   4.804   4.650   5.193 -0.6691  0.4201 -0.3838
  101OSM   H12F10167   4.848   4.613   5.289  0.8915  1.0415 -0.8212
  101OSM   H12G10168   4.782   4.758   5.204 -1.7233  0.0992  0.9714
  101OSM   C13F10169   4.912   4.608   5.082 -0.1859 -0.3613 -0.6405
  101OSM   H13F10170   4.960   4.511   5.108 -0.9222 -0.2234  1.4532
  101OSM   H13G10171   4.997   4.677   5.101 -1.5078  0.3910  3.7166
  101OSM   C14F10172   4.868   4.635   4.943  0.1079  0.6244 -0.2448
  101OSM   H14F10173   4.817   4.733   4.935  0.3583  0.5943 -2.9937
  101OSM   H14G10174   4.799   4.565   4.891  0.5382  0.1433 -0.1781
  101OSM   C15F10175   4.984   4.637   4.848 -0.6912  0.2983  0.5203
  101OSM   H15F10176   5.035   4.539   4.838 -0.0739  0.6385  0.1721
  101OSM   H15G10177   5.062   4.700   4.896  2.1057 -2.0598 -0.5771
  101OSM   C16F10178   4.947   4.692   4.716  0.0212 -0.7585 -0.0669
  101OSM   H16F10179   4.907   4.795   4.726 -1.1810 -0.7151 -3.8649
  101OSM   H16G10180   4.876   4.614   4.679 -1.2972 -1.7113  3.9419
  101OSM   C17F10181   5.072   4.702   4.631  1.0599  0.2519  0.0131
  101OSM   H17F10182   5.138   4.613   4.641 -0.5804 -1.0923 -0.5186
  101OSM   H17G10183   5.128   4.790   4.668  1.1897  1.1651 -2.1908
  101OSM   C18F10184   5.039   4.733   4.488 -0.1619 -0.4260  0.2064
  101OSM   H18F10185   5.124   4.765   4.423  0.5793 -3.5807 -0.5637
  101OSM   H18G10186   4.973   4.823   4.489 -0.4405 -0.6180  1.3597
  101OSM   H18H10187   4.987   4.653   4.431  0.3059  0.1123 -0.9983
  102OSM      N10188   5.037   3.906   6.716  0.7808  0.7726 -0.0276
  102OSM    C1510189   5.051   4.021   6.811  0.5327 -0.7187  0.5752
  102OSM   H15A10190   5.153   4.026   6.846  0.6434  2.0452  0.0612
  102OSM   H15B10191   4.982   4.011   6.893  0.5075 -1.1781  0.5029
  102OSM   H15C10192   5.026   4.112   6.759  1.8761 -0.9646 -0.5718
  102OSM    C1410193   5.111   3.947   6.596  0.1024  0.1480 -0.0411
  102OSM   H14A10194   5.074   4.040   6.555 -1.0034 -0.0110  0.5554
  102OSM   H14B10195   5.089   3.870   6.523  0.0629  0.2758 -0.1656
  102OSM   H14C10196   5.218   3.950   6.608  0.1143  1.9636 -0.3499
  102OSM    C1310197   5.101   3.786   6.778  0.3206  0.1194  0.1718
  102OSM   H13A10198   5.204   3.797   6.808  0.6891 -2.6284  0.2416
  102OSM   H13B10199   5.094   3.700   6.713  1.1348  1.4452 -1.7692
  102OSM   H13C10200   5.045   3.754   6.865  0.0504 -0.6508 -0.2724
  102OSM    C1210201   4.891   3.873   6.682 -0.1038 -0.1343  0.3769
  102OSM   H12A10202   4.881   3.813   6.593 -1.6976  2.1298 -1.0966
  102OSM   H12B10203   4.848   3.966   6.647 -2.2777 -0.9457  0.7201
  102OSM    C1110204   4.793   3.826   6.795 -0.0855 -0.2101 -0.4855
  102OSM   H11A10205   4.840   3.737   6.841 -0.6156 -0.7626 -0.9795
  102OSM   H11B10206   4.696   3.785   6.757 -1.3439  1.3899  0.8361
  102OSM      P10207   4.669   4.054   6.853  0.0197  0.3522 -0.0267
  102OSM    O1310208   4.539   4.017   6.909  0.3112 -0.1644 -0.1580
  102OSM    O1410209   4.721   4.182   6.893 -0.0678  0.3922  0.2913
  102OSM    O1110210   4.659   4.054   6.697  0.4648  0.3764  0.4290
  102OSM    O1210211   4.777   3.937   6.889  0.4735 -0.3576 -0.2627
  102OSM    C1S10212   4.726   4.157   6.628 -0.3645 -0.8140  0.2525
  102OSM    H1S10213   4.837   4.147   6.633 -0.3233 -0.4726  0.0628
  102OSM    H1T10214   4.699   4.260   6.658  2.4823  0.3928 -0.9885
  102OSM     NF10215   4.783   4.228   6.395 -0.5644 -0.4615  0.0501
  102OSM    HNF10216   4.751   4.322   6.381  0.4281  0.4107  2.8470
  102OSM    C2S10217   4.696   4.144   6.475  0.2206 -0.9958 -0.3172
  102OSM    H2S10218   4.718   4.040   6.441  3.7372 -0.0758 -1.3128
  102OSM    C3S10219   4.539   4.161   6.447  0.4218 -0.2195  0.2197
  102OSM    H3S10220   4.514   4.269   6.450 -1.5795 -0.6231 -0.3031
  102OSM     O310221   4.456   4.096   6.544  0.5032  0.0752  0.5919
  102OSM    HO310222   4.518   4.052   6.603  0.2396  0.2206  0.9799
  102OSM    C4S10223   4.512   4.118   6.304  0.0527 -0.1670 -0.3510
  102OSM    H4S10224   4.548   4.193   6.231  0.3879  1.5144  1.4429
  102OSM    C5S10225   4.456   4.008   6.247 -0.2274 -0.4973  0.7591
  102OSM    H5S10226   4.422   3.926   6.311  3.3574 -0.9732  2.2239
  102OSM    C6S10227   4.431   3.976   6.097 -0.8463  0.1990 -0.2559
  102OSM    H6S10228   4.327   3.939   6.103 -0.7445 -0.0919 -0.3002
  102OSM    H6T10229   4.501   3.891   6.080 -1.8215 -0.7432  0.3458
  102OSM    C7S10230   4.443   4.085   5.981 -0.2875 -0.3793  0.1137
  102OSM    H7S10231   4.547   4.124   5.977 -0.5429  0.1876 -1.1593
  102OSM    H7T10232   4.379   4.174   5.995 -0.9690 -0.3961 -2.4625
  102OSM    C8S10233   4.403   4.023   5.843  0.2987 -0.1134  0.0452
  102OSM    H8S10234   4.298   3.989   5.849  0.1503  0.4122  0.5523
  102OSM    H8T10235   4.481   3.946   5.825  1.4105  1.1147 -0.6060
  102OSM    C9S10236   4.407   4.129   5.724  0.1152 -0.7732  0.3847
  102OSM    H9S10237   4.501   4.186   5.743  1.1606 -2.7970  1.6364
  102OSM    H9T10238   4.320   4.197   5.729 -1.1534 -2.2684 -0.4798
  102OSM   C10S10239   4.413   4.055   5.592  0.0393 -0.3115 -0.5627
  102OSM   H10S10240   4.319   3.996   5.586  0.6895 -1.7094  1.7948
  102OSM   H10T10241   4.494   3.979   5.600 -0.4842 -0.6824  2.2391
  102OSM   C11S10242   4.421   4.146   5.468  0.2145 -0.0961  0.3315
  102OSM   H11S10243   4.525   4.182   5.459  0.9066 -2.2223 -1.2782
  102OSM   H11T10244   4.353   4.232   5.480  0.2947 -0.2159  1.7941
  102OSM   C12S10245   4.387   4.076   5.339  0.4179 -0.1567  0.1030
  102OSM   H12S10246   4.292   4.018   5.343  1.1189 -1.4120 -0.6377
  102OSM   H12T10247   4.460   3.999   5.306 -1.8312 -1.9188 -1.0466
  102OSM   C13S10248   4.375   4.169   5.223  0.2774 -0.5483 -0.2258
  102OSM   H13S10249   4.475   4.216   5.219 -0.0957  0.1713 -3.0398
  102OSM   H13T10250   4.305   4.255   5.235  2.7683  1.3170  2.6157
  102OSM   C14S10251   4.367   4.094   5.092  0.8186  1.1957  0.3529
  102OSM   H14S10252   4.288   4.016   5.092  0.8016  1.1969 -0.7795
  102OSM   H14T10253   4.461   4.035   5.092  1.7058  2.5552  0.8709
  102OSM   C15S10254   4.361   4.175   4.967  0.0435 -0.4442 -0.6783
  102OSM   H15S10255   4.455   4.233   4.974 -0.0871 -0.3330  0.4371
  102OSM   H15T10256   4.272   4.241   4.973 -1.7389 -2.8207  1.4678
  102OSM   C16S10257   4.365   4.088   4.834 -0.9366 -0.5039  0.0435
  102OSM   H16S10258   4.340   4.149   4.745  0.8048 -2.1638 -1.6715
  102OSM   H16T10259   4.282   4.015   4.838 -0.9466 -0.5260 -0.5583
  102OSM   C17S10260   4.504   4.034   4.810  0.3107 -0.0435  0.2675
  102OSM   H17S10261   4.505   3.936   4.863  0.4630 -1.4960 -2.2816
  102OSM   H17T10262   4.582   4.104   4.846  2.1457 -1.2438 -1.2448
  102OSM   C18S10263   4.543   4.017   4.659 -0.2706  0.4915 -0.2231
  102OSM   H18S10264   4.558   4.115   4.610 -0.5722  1.8492  2.2076
  102OSM   H18T10265   4.465   3.966   4.599 -1.1016  1.6890 -0.1783
  102OSM   H18U10266   4.639   3.961   4.664  1.5677  3.5502  2.1674
  102OSM    C1F10267   4.909   4.215   6.367  0.2331  0.0534  0.4174
  102OSM     OF10268   4.970   4.115   6.378  0.1623  0.6236  0.4695
  102OSM    C2F10269   4.970   4.338   6.314  0.0130  0.1134  0.3836
  102OSM    H2F10270   4.947   4.422   6.383  0.9320  0.1379  0.6720
  102OSM    H2G10271   4.912   4.364   6.222  1.0233  1.2098  0.0304
  102OSM    C3F10272   5.121   4.313   6.279  0.3270  0.0069 -0.0859
  102OSM    H3F10273   5.138   4.242   6.195 -0.6025  1.4321 -1.5487
  102OSM    H3G10274   5.173   4.264   6.363  0.2824 -0.3157 -0.2431
  102OSM    C4F10275   5.204   4.440   6.251 -0.1159  0.0287 -0.2061
  102OSM    H4F10276   5.310   4.406   6.253 -0.1946 -0.2304  1.8798
  102OSM    H4G10277   5.184   4.517   6.329 -0.0438  0.5718 -0.7199
  102OSM    C5F10278   5.171   4.502   6.119 -0.0514  0.0395  0.2940
  102OSM    H5F10279   5.209   4.606   6.117 -0.7526  0.3691  2.3571
  102OSM    H5G10280   5.061   4.505   6.103 -0.0489  0.1577  0.3024
  102OSM    C6F10281   5.220   4.426   5.997 -0.8051 -0.5148  0.7083
  102OSM    H6F10282   5.145   4.349   5.969  0.2665 -1.7419  1.1235
  102OSM    H6G10283   5.323   4.387   6.014 -0.3124  0.7813  0.8044
  102OSM    C7F10284   5.248   4.516   5.876 -0.2217 -0.6910  0.2723
  102OSM    H7F10285   5.334   4.581   5.902 -1.1181  0.2371  0.9890
  102OSM    H7G10286   5.153   4.572   5.864  0.3153  0.1621 -0.0952
  102OSM    C8F10287   5.285   4.437   5.748 -0.7895  0.1702  0.7436
  102OSM    H8F10288   5.334   4.512   5.682 -0.4364  0.8575  1.7573
  102OSM    H8G10289   5.186   4.401   5.714  0.3046 -0.6367 -1.8421
  102OSM    C9F10290   5.372   4.314   5.769  0.3327 -0.0378 -1.0637
  102OSM    H9F10291   5.319   4.219   5.781 -1.1382  0.9116  0.3983
  102OSM   C10F10292   5.504   4.312   5.756  0.2000  0.1290  0.4761
  102OSM   H10F10293   5.552   4.218   5.785 -1.9905 -1.9390 -2.0184
  102OSM   C11F10294   5.588   4.428   5.728 -0.1147  0.7361 -0.1283
  102OSM   H11F10295   5.643   4.443   5.824  0.3232  1.0428 -0.4255
  102OSM   H11G10296   5.526   4.518   5.710  0.4016  1.7797  2.6995
  102OSM   C12F10297   5.694   4.408   5.615  0.2592 -0.0010  0.3828
  102OSM   H12F10298   5.777   4.351   5.662 -1.2133 -1.3806  1.4324
  102OSM   H12G10299   5.722   4.512   5.588  2.2618 -0.4902  0.3962
  102OSM   C13F10300   5.648   4.339   5.485  1.0984 -0.2971  0.1673
  102OSM   H13F10301   5.551   4.381   5.453  0.1428 -1.0584  1.9275
  102OSM   H13G10302   5.642   4.234   5.522 -0.1020 -0.1546  0.4092
  102OSM   C14F10303   5.744   4.366   5.374 -0.7725 -0.0963  0.0467
  102OSM   H14F10304   5.847   4.336   5.403 -0.3626 -0.2823 -1.4875
  102OSM   H14G10305   5.738   4.472   5.341 -1.8931 -0.5998 -1.4916
  102OSM   C15F10306   5.711   4.288   5.252 -0.2113 -0.3707  0.4544
  102OSM   H15F10307   5.617   4.332   5.211 -0.0058  0.1051  0.4920
  102OSM   H15G10308   5.696   4.181   5.279  0.0534 -0.2014  1.3195
  102OSM   C16F10309   5.827   4.285   5.152 -0.3658  0.1259  0.3622
  102OSM   H16F10310   5.894   4.210   5.198 -0.6101  0.1482  0.7615
  102OSM   H16G10311   5.875   4.385   5.153 -1.0167  0.4793  2.8664
  102OSM   C17F10312   5.785   4.236   5.006  0.4877 -0.3586 -0.2632
  102OSM   H17F10313   5.878   4.231   4.944  0.1857  0.7559 -0.8311
  102OSM   H17G10314   5.715   4.314   4.970 -1.5107 -1.9254  0.0694
  102OSM   C18F10315   5.709   4.106   5.002 -0.4897  0.2259  0.0648
  102OSM   H18F10316   5.783   4.030   5.036 -3.0757 -1.3942  2.4932
  102OSM   H18G10317   5.685   4.089   4.895  1.1618  1.0330 -0.4860
  102OSM   H18H10318   5.621   4.099   5.069 -0.9462 -0.7401 -0.6069
  103OSM      N10319   2.986   6.481   7.054  0.6142  0.1256  0.5714
  103OSM    C1510320   3.111   6.558   7.050 -0.4365 -0.2831  0.0614
  103OSM   H15A10321   3.140   6.623   7.132  2.2879  0.7253 -1.5820
  103OSM   H15B10322   3.135   6.628   6.972  2.1160 -0.3872  0.6615
  103OSM   H15C10323   3.186   6.481   7.044  1.0131  0.9111  1.6212
  103OSM    C1410324   2.982   6.399   7.178 -0.7012 -0.0574  0.0792
  103OSM   H14A10325   3.009   6.458   7.265 -0.8434  0.6051 -0.3222
  103OSM   H14B10326   3.040   6.308   7.168 -2.2915 -1.0954 -0.0633
  103OSM   H14C10327   2.881   6.360   7.184 -0.4369 -1.0569 -1.3537
  103OSM    C1310328   2.876   6.587   7.057  0.1129 -0.3779  0.4573
  103OSM   H13A10329   2.781   6.536   7.067  0.3451 -1.1116 -0.9170
  103OSM   H13B10330   2.868   6.654   6.972 -0.3195  0.6164  1.2560
  103OSM   H13C10331   2.891   6.654   7.140  0.1431  1.3601 -0.8964
  103OSM    C1210332   2.973   6.395   6.924  0.3904 -0.0285 -0.2433
  103OSM   H12A10333   2.998   6.455   6.838 -1.3884 -1.0569 -1.5379
  103OSM   H12B10334   2.872   6.366   6.901  0.6412  1.0683 -3.0489
  103OSM    C1110335   3.056   6.262   6.913  0.1130 -0.8636 -0.0301
  103OSM   H11A10336   3.027   6.222   6.814 -0.3909  3.4181 -1.8646
  103OSM   H11B10337   3.035   6.185   6.990  0.9500 -1.2187 -0.1483
  103OSM      P10338   3.300   6.233   6.988  0.0791  0.5775  0.1705
  103OSM    O1310339   3.321   6.310   7.111 -0.4138 -0.0705 -0.2873
  103OSM    O1410340   3.282   6.087   6.995 -0.1541 -0.0360 -0.2821
  103OSM    O1110341   3.424   6.255   6.898 -0.3179  0.9853  0.2375
  103OSM    O1210342   3.189   6.298   6.908  0.8231  0.6231  0.0481
  103OSM    C1S10343   3.423   6.183   6.773  0.3711 -0.2059 -0.4456
  103OSM    H1S10344   3.331   6.199   6.713  0.5667 -1.3550 -1.1042
  103OSM    H1T10345   3.433   6.075   6.798 -0.7317 -0.1705  0.1765
  103OSM     NF10346   3.523   6.158   6.541  0.4804 -0.0135 -0.4148
  103OSM    HNF10347   3.578   6.080   6.513  2.0173  0.6334  0.6715
  103OSM    C2S10348   3.544   6.212   6.677 -0.1494  0.1360  0.0325
  103OSM    H2S10349   3.553   6.322   6.665 -0.6866  0.0916 -0.9167
  103OSM    C3S10350   3.679   6.167   6.738 -0.7445 -0.5154 -0.6133
  103OSM    H3S10351   3.682   6.057   6.755 -1.5744 -0.0110  4.7996
  103OSM     O310352   3.699   6.220   6.878 -0.1813  0.4412 -0.2971
  103OSM    HO310353   3.611   6.249   6.902 -1.2676 -3.0727  0.5623
  103OSM    C4S10354   3.808   6.199   6.664  0.1452  0.2494  0.4480
  103OSM    H4S10355   3.837   6.304   6.648 -0.0677  0.3804  0.9031
  103OSM    C5S10356   3.888   6.101   6.612 -0.2784  0.0736  0.3750
  103OSM    H5S10357   3.856   5.996   6.622 -3.0097  0.7350 -0.5939
  103OSM    C6S10358   4.009   6.132   6.523 -0.1657 -0.1331 -0.6786
  103OSM    H6S10359   4.036   6.038   6.469  1.1338  1.5207 -3.1161
  103OSM    H6T10360   4.099   6.167   6.579 -0.5984  0.7248 -0.5008
  103OSM    C7S10361   3.979   6.232   6.414 -0.6851 -0.3511 -0.8403
  103OSM    H7S10362   4.070   6.267   6.361 -0.8053 -0.9562 -1.4731
  103OSM    H7T10363   3.926   6.322   6.450 -0.7423 -0.5138 -0.5111
  103OSM    C8S10364   3.900   6.181   6.295  0.0059  0.1493  0.8196
  103OSM    H8S10365   3.817   6.124   6.341 -0.0872 -0.5615 -0.1906
  103OSM    H8T10366   3.958   6.105   6.237 -1.5623  0.3824 -1.1673
  103OSM    C9S10367   3.847   6.302   6.212 -0.1810  0.2110  0.2954
  103OSM    H9S10368   3.904   6.396   6.232  2.1833 -1.1068  0.1260
  103OSM    H9T10369   3.747   6.329   6.254 -0.6517  0.0765 -0.7252
  103OSM   C10S10370   3.845   6.277   6.057 -0.0971  0.2051 -0.4415
  103OSM   H10S10371   3.800   6.177   6.039  1.5329 -1.1200  2.1894
  103OSM   H10T10372   3.943   6.276   6.005 -1.0742 -0.8403 -2.3678
  103OSM   C11S10373   3.771   6.400   5.994  0.2226  0.2198 -0.5875
  103OSM   H11S10374   3.832   6.494   5.991  0.9491 -0.2634 -2.0428
  103OSM   H11T10375   3.680   6.420   6.054 -0.0929 -4.0062  0.6155
  103OSM   C12S10376   3.710   6.371   5.860 -0.1927  0.2016  0.5009
  103OSM   H12S10377   3.660   6.454   5.806 -2.9481 -3.0124 -2.4191
  103OSM   H12T10378   3.637   6.288   5.868  0.0302  0.1002  1.7339
  103OSM   C13S10379   3.818   6.330   5.761 -0.6216  0.2091 -0.4601
  103OSM   H13S10380   3.899   6.267   5.805  1.0767  2.0141 -0.8698
  103OSM   H13T10381   3.880   6.421   5.748  0.5813 -0.7600 -1.9808
  103OSM   C14S10382   3.783   6.276   5.627  0.7411  0.0820  0.5733
  103OSM   H14S10383   3.741   6.361   5.570 -1.9358 -1.1481  0.5835
  103OSM   H14T10384   3.702   6.201   5.643 -2.1176  2.7618 -0.4814
  103OSM   C15S10385   3.894   6.201   5.556 -0.4436  0.6271  0.2630
  103OSM   H15S10386   3.944   6.120   5.614 -0.3185 -0.3183 -1.1187
  103OSM   H15T10387   3.982   6.269   5.548  0.1030 -0.2174 -1.2720
  103OSM   C16S10388   3.845   6.155   5.416 -0.6434  0.3234 -0.4192
  103OSM   H16S10389   3.808   6.244   5.360  0.6513  1.3653  0.3439
  103OSM   H16T10390   3.765   6.079   5.426 -0.0564 -0.1875  0.4155
  103OSM   C17S10391   3.952   6.086   5.329 -0.2327  0.0782  0.5323
  103OSM   H17S10392   4.026   6.159   5.289  0.4214 -1.6228 -1.5490
  103OSM   H17T10393   3.897   6.057   5.237  0.2425 -1.5861  0.7400
  103OSM   C18S10394   4.024   5.961   5.390  0.2390 -0.0442  0.3124
  103OSM   H18S10395   3.948   5.894   5.436  0.8019  0.3512  1.8882
  103OSM   H18T10396   4.100   6.001   5.461 -1.6218  2.4953  1.0272
  103OSM   H18U10397   4.076   5.910   5.306  2.2903 -0.2479  1.6503
  103OSM    C1F10398   3.428   6.202   6.459  0.1828  0.3684  0.5917
  103OSM     OF10399   3.349   6.291   6.486 -0.4103  0.5208  0.8889
  103OSM    C2F10400   3.419   6.145   6.323  0.0935  0.0782 -0.1118
  103OSM    H2F10401   3.338   6.071   6.334 -0.4388  0.7901  0.9285
  103OSM    H2G10402   3.513   6.099   6.284 -0.0336 -0.4789  0.2305
  103OSM    C3F10403   3.376   6.255   6.216  0.1689  0.2128 -0.8287
  103OSM    H3F10404   3.455   6.334   6.215 -0.1605  0.5406 -1.8244
  103OSM    H3G10405   3.278   6.300   6.241  1.0697  1.0647  1.5116
  103OSM    C4F10406   3.382   6.212   6.067 -0.4355  0.1892  0.9727
  103OSM    H4F10407   3.289   6.157   6.038 -1.0227  2.0560 -0.9626
  103OSM    H4G10408   3.469   6.145   6.056  0.1984  1.0077  0.9122
  103OSM    C5F10409   3.377   6.327   5.971 -0.7321 -0.1929  0.1078
  103OSM    H5F10410   3.373   6.292   5.866  0.7236 -1.7695  0.5437
  103OSM    H5G10411   3.477   6.375   5.969 -1.2354  0.9383  0.9010
  103OSM    C6F10412   3.278   6.439   6.010  0.3934  0.1569  0.5243
  103OSM    H6F10413   3.309   6.480   6.108  0.8793 -1.5784  1.1204
  103OSM    H6G10414   3.180   6.387   6.019  1.4263 -2.0349 -0.2299
  103OSM    C7F10415   3.258   6.546   5.894 -0.4284 -0.4219 -0.1748
  103OSM    H7F10416   3.176   6.620   5.904 -0.5541 -0.3385 -1.5968
  103OSM    H7G10417   3.237   6.488   5.801 -0.9090  0.5830 -0.7127
  103OSM    C8F10418   3.380   6.634   5.868  0.0747  0.4773 -0.7087
  103OSM    H8F10419   3.471   6.570   5.864  0.4591  0.5620  2.8493
  103OSM    H8G10420   3.397   6.711   5.946 -1.2292  1.3007 -1.2203
  103OSM    C9F10421   3.367   6.716   5.744 -0.1271 -0.1323 -0.5636
  103OSM    H9F10422   3.315   6.811   5.767 -0.6191 -0.1678 -1.4922
  103OSM   C10F10423   3.407   6.697   5.616 -0.0806  0.5709  0.6731
  103OSM   H10F10424   3.387   6.758   5.527 -0.5435 -0.9284 -0.2965
  103OSM   C11F10425   3.474   6.562   5.584  0.3371 -0.2136  0.5182
  103OSM   H11F10426   3.475   6.487   5.667  1.6818  0.2640  0.9573
  103OSM   H11G10427   3.578   6.578   5.549 -0.6066  2.1319 -1.4678
  103OSM   C12F10428   3.398   6.500   5.463  0.0564  0.1842 -0.4339
  103OSM   H12F10429   3.398   6.577   5.384  0.8177  0.4182 -0.2173
  103OSM   H12G10430   3.292   6.473   5.485  0.3578 -1.2569 -0.7002
  103OSM   C13F10431   3.444   6.363   5.405 -0.2778  0.6752  0.1709
  103OSM   H13F10432   3.473   6.291   5.484  1.4468 -0.9923 -1.8434
  103OSM   H13G10433   3.534   6.370   5.340  1.0998 -0.1601  1.9126
  103OSM   C14F10434   3.349   6.289   5.316  0.4902  0.3385 -0.1111
  103OSM   H14F10435   3.348   6.319   5.209  0.6279  1.4693  0.1882
  103OSM   H14G10436   3.243   6.297   5.349  0.8764  0.7230  1.0654
  103OSM   C15F10437   3.390   6.145   5.307 -0.9379  0.1983  0.1105
  103OSM   H15F10438   3.401   6.101   5.408 -0.4081 -1.6754 -0.7183
  103OSM   H15G10439   3.490   6.136   5.259 -1.2169 -1.3760 -0.2226
  103OSM   C16F10440   3.294   6.057   5.229  0.1791  0.4007  0.0748
  103OSM   H16F10441   3.342   5.957   5.222 -0.6853 -0.1791  1.7518
  103OSM   H16G10442   3.285   6.083   5.122  0.3105  1.2128  0.2548
  103OSM   C17F10443   3.156   6.051   5.296  0.7725 -0.4374  0.2781
  103OSM   H17F10444   3.100   6.145   5.278 -1.0265 -1.2609  1.2353
  103OSM   H17G10445   3.156   6.040   5.407 -2.3500  1.1532  0.5199
  103OSM   C18F10446   3.060   5.943   5.248 -0.1934 -0.6371 -0.0529
  103OSM   H18F10447   2.968   5.936   5.309  0.7640  1.3256  1.7611
  103OSM   H18G10448   3.108   5.845   5.269  0.2062 -0.1765  1.2640
  103OSM   H18H10449   3.042   5.948   5.138  0.3117 -1.3788 -0.1750
  104OSM      N10450   3.848   0.242   6.912 -1.1056  0.2295  0.1353
  104OSM    C1510451   3.962   0.278   6.814 -0.7297  0.9178 -1.0802
  104OSM   H15A10452   3.930   0.265   6.712 -1.1919 -0.8088 -0.7513
  104OSM   H15B10453   4.046   0.215   6.836 -0.8211  0.5823 -1.6823
  104OSM   H15C10454   3.992   0.382   6.817  0.3797  0.6823 -2.7411
  104OSM    C1410455   3.902   0.209   7.046 -0.3139  0.6071  0.6000
  104OSM   H14A10456   3.912   0.101   7.046 -1.5235  0.4091 -2.1626
  104OSM   H14B10457   3.828   0.225   7.123 -3.3050 -1.8092 -1.5118
  104OSM   H14C10458   3.984   0.276   7.065  0.2388  0.1962 -0.2899
  104OSM    C1310459   3.757   0.365   6.930 -0.2620  0.2682 -0.0930
  104OSM   H13A10460   3.688   0.350   7.012  1.3717 -1.4156  1.0494
  104OSM   H13B10461   3.705   0.384   6.837  0.6781  1.2105 -0.4491
  104OSM   H13C10462   3.824   0.448   6.952  0.6932 -1.0071  2.1780
  104OSM    C1210463   3.769   0.126   6.860 -0.4688 -0.1349 -0.4020
  104OSM   H12A10464   3.749   0.140   6.755 -1.9069 -3.1065 -0.6138
  104OSM   H12B10465   3.670   0.130   6.901 -0.2564 -3.0340  0.6350
  104OSM    C1110466   3.837  -0.016   6.878 -0.6442 -0.0389 -0.1529
  104OSM   H11A10467   3.946   0.006   6.875 -0.3547 -1.4545 -0.9874
  104OSM   H11B10468   3.836  -0.085   6.791  2.6248 -2.6953  1.6997
  104OSM      P10469   3.792  -0.224   7.039  0.5547 -0.5959  0.4376
  104OSM    O1310470   3.929  -0.283   7.044  0.3473 -0.2175  0.0398
  104OSM    O1410471   3.703  -0.241   7.156  0.2071 -0.1307 -0.0170
  104OSM    O1110472   3.714  -0.278   6.915 -0.1341 -0.4156 -0.0905
  104OSM    O1210473   3.805  -0.071   7.004 -0.2900  0.1262 -0.9735
  104OSM    C1S10474   3.567  -0.289   6.914 -0.2862  0.1039 -0.7124
  104OSM    H1S10475   3.515  -0.225   6.988  0.7263 -0.2708  0.3643
  104OSM    H1T10476   3.544  -0.395   6.936  0.1841  0.3752  1.3765
  104OSM     NF10477   3.360  -0.233   6.794  0.0350 -0.3676 -0.6870
  104OSM    HNF10478   3.314  -0.315   6.761 -1.4974  0.7503 -1.4176
  104OSM    C2S10479   3.505  -0.246   6.782  0.5185 -0.0519  0.1121
  104OSM    H2S10480   3.549  -0.148   6.756  0.4091 -0.5189 -2.0744
  104OSM    C3S10481   3.549  -0.341   6.673  0.1766  0.2405 -0.0463
  104OSM    H3S10482   3.484  -0.429   6.691 -0.4726  1.0125  1.4706
  104OSM     O310483   3.682  -0.396   6.677 -0.2343  0.3087 -0.7690
  104OSM    HO310484   3.708  -0.382   6.768  0.7211  1.0869 -1.1454
  104OSM    C4S10485   3.522  -0.281   6.536  0.3424 -0.2760  0.0615
  104OSM    H4S10486   3.599  -0.205   6.512  0.4948 -0.1248  0.9945
  104OSM    C5S10487   3.463  -0.332   6.426 -0.1106  0.1989 -0.4193
  104OSM    H5S10488   3.429  -0.436   6.432 -0.7115  0.4670  1.2562
  104OSM    C6S10489   3.469  -0.279   6.283  0.0399  0.2914 -0.1115
  104OSM    H6S10490   3.371  -0.260   6.234 -0.3735 -0.0858  0.5540
  104OSM    H6T10491   3.522  -0.363   6.233 -0.8318 -0.5600  0.3691
  104OSM    C7S10492   3.564  -0.151   6.255  0.2934  0.1025 -0.7339
  104OSM    H7S10493   3.661  -0.161   6.307 -0.6396  1.6225  1.4959
  104OSM    H7T10494   3.513  -0.074   6.317 -1.3037 -2.4748  1.3933
  104OSM    C8S10495   3.587  -0.118   6.108  0.0819 -0.3125 -0.8737
  104OSM    H8S10496   3.491  -0.078   6.071 -1.2925 -0.3224  2.3161
  104OSM    H8T10497   3.605  -0.214   6.055 -0.1323 -1.5130  1.1133
  104OSM    C9S10498   3.700  -0.009   6.099  0.3730 -0.0817  0.0687
  104OSM    H9S10499   3.674   0.062   6.180 -2.1820 -2.4210  1.4593
  104OSM    H9T10500   3.687   0.024   5.993 -1.8591 -0.1146  0.2894
  104OSM   C10S10501   3.846  -0.067   6.100  0.7218  0.3939 -0.2931
  104OSM   H10S10502   3.835  -0.171   6.063  0.6901  0.3513 -0.1662
  104OSM   H10T10503   3.895  -0.061   6.200  1.4317  1.6576 -0.6930
  104OSM   C11S10504   3.948   0.001   6.001 -0.2527 -0.2604 -0.4293
  104OSM   H11S10505   3.888   0.025   5.911 -1.2294  2.4291  0.8086
  104OSM   H11T10506   4.024  -0.071   5.964  0.6442  1.1641 -1.4557
  104OSM   C12S10507   4.019   0.124   6.062 -0.2952 -0.9294 -0.1836
  104OSM   H12S10508   4.059   0.092   6.161 -0.4993  1.8422  0.8963
  104OSM   H12T10509   3.947   0.207   6.077  2.2073  1.5984 -1.1571
  104OSM   C13S10510   4.122   0.168   5.965 -0.3447 -0.6916 -0.2050
  104OSM   H13S10511   4.079   0.168   5.863  0.1844 -0.7967 -0.4303
  104OSM   H13T10512   4.210   0.100   5.969 -0.5786 -0.9614  0.7026
  104OSM   C14S10513   4.183   0.307   5.989  0.0169 -0.2456 -0.0162
  104OSM   H14S10514   4.106   0.388   5.987 -0.0232 -0.2896 -0.9593
  104OSM   H14T10515   4.257   0.318   5.907  1.5609 -1.3618  1.1927
  104OSM   C15S10516   4.265   0.299   6.117  0.4131  0.2081  0.4111
  104OSM   H15S10517   4.306   0.196   6.126 -0.6229 -0.2575  0.0075
  104OSM   H15T10518   4.199   0.309   6.206 -0.2976  0.7039 -0.1637
  104OSM   C16S10519   4.379   0.398   6.111  0.6080 -0.4977  0.1564
  104OSM   H16S10520   4.424   0.418   6.210 -2.1809  0.9221  1.2558
  104OSM   H16T10521   4.333   0.494   6.078  0.5899 -0.7781 -0.6620
  104OSM   C17S10522   4.493   0.361   6.015  0.1340 -0.1883  0.5200
  104OSM   H17S10523   4.530   0.457   5.974 -1.3801  0.4327  0.5172
  104OSM   H17T10524   4.458   0.301   5.928  0.7114  2.4152 -1.6760
  104OSM   C18S10525   4.607   0.303   6.088 -0.1718 -0.0932 -0.1331
  104OSM   H18S10526   4.575   0.217   6.151  0.4477 -1.0035 -1.0418
  104OSM   H18T10527   4.649   0.381   6.156  1.4685  0.9354 -2.1985
  104OSM   H18U10528   4.687   0.263   6.022 -0.8012 -0.7822 -0.4935
  104OSM    C1F10529   3.287  -0.127   6.839 -0.4325 -0.4694 -0.8769
  104OSM     OF10530   3.342  -0.052   6.917  0.0599  0.3843  0.6740
  104OSM    C2F10531   3.141  -0.107   6.790 -0.1221 -0.3326  0.4124
  104OSM    H2F10532   3.103  -0.005   6.808  1.1206  0.2093  0.0423
  104OSM    H2G10533   3.080  -0.178   6.850 -0.3379 -1.2112 -0.8034
  104OSM    C3F10534   3.118  -0.152   6.642  0.2097 -0.2896 -0.9605
  104OSM    H3F10535   3.012  -0.184   6.630  0.7242 -2.2736 -0.6624
  104OSM    H3G10536   3.177  -0.242   6.613  0.0523 -0.7286  0.0595
  104OSM    C4F10537   3.153  -0.042   6.543 -0.9149  0.3892  0.0452
  104OSM    H4F10538   3.252   0.006   6.559  0.4789 -1.5960 -2.0735
  104OSM    H4G10539   3.083   0.042   6.562  0.3350  1.9485 -1.8142
  104OSM    C5F10540   3.140  -0.104   6.407 -0.0016  0.7058 -0.2567
  104OSM    H5F10541   3.047  -0.166   6.400  0.1390  0.6380 -1.8416
  104OSM    H5G10542   3.231  -0.166   6.397 -0.9254 -0.9027  0.7955
  104OSM    C6F10543   3.148  -0.004   6.294  0.3627 -0.0160 -0.0783
  104OSM    H6F10544   3.244   0.050   6.280 -0.0921  0.4106 -1.7673
  104OSM    H6G10545   3.072   0.076   6.306  1.0030  0.7890 -1.1515
  104OSM    C7F10546   3.131  -0.062   6.153 -0.0178  0.0841  0.2087
  104OSM    H7F10547   3.053  -0.140   6.145 -0.9476  1.0855 -0.6887
  104OSM    H7G10548   3.229  -0.107   6.126 -1.0826 -1.8877 -0.5647
  104OSM    C8F10549   3.117   0.049   6.049 -0.0880  0.0596 -0.0111
  104OSM    H8F10550   3.205   0.115   6.041 -0.9165  1.1310 -0.5258
  104OSM    H8G10551   3.042   0.122   6.087  1.5006  2.1231 -0.6791
  104OSM    C9F10552   3.077  -0.003   5.911 -0.2228 -0.1306  0.1260
  104OSM    H9F10553   3.005  -0.085   5.898 -0.3806  0.2253 -1.4285
  104OSM   C10F10554   3.112   0.053   5.796  0.0953  0.5694 -0.4342
  104OSM   H10F10555   3.079   0.006   5.703  1.5110 -2.9853  0.6724
  104OSM   C11F10556   3.190   0.181   5.784 -0.2550  0.7057  0.5096
  104OSM   H11F10557   3.296   0.164   5.813  0.9018  0.1652 -3.3928
  104OSM   H11G10558   3.143   0.272   5.828 -0.2966  1.7886 -1.6363
  104OSM   C12F10559   3.213   0.208   5.636 -0.3720  0.7014  0.2574
  104OSM   H12F10560   3.274   0.126   5.593  0.5886  0.6708  1.6018
  104OSM   H12G10561   3.273   0.302   5.630  1.8351 -0.5950  1.1346
  104OSM   C13F10562   3.087   0.233   5.541  0.0705  0.0138  0.6876
  104OSM   H13F10563   3.037   0.317   5.593 -0.3093  0.1285  0.1455
  104OSM   H13G10564   3.014   0.150   5.540  1.2389 -1.0595  1.3205
  104OSM   C14F10565   3.134   0.270   5.405 -0.3885 -0.9292  0.6825
  104OSM   H14F10566   3.181   0.370   5.413 -0.5255 -0.9903  2.7713
  104OSM   H14G10567   3.039   0.285   5.349 -0.4333 -0.6790  0.8242
  104OSM   C15F10568   3.225   0.175   5.336  0.1828 -0.1102 -0.4227
  104OSM   H15F10569   3.175   0.076   5.340  0.9728 -0.5246 -0.6239
  104OSM   H15G10570   3.316   0.146   5.393  1.9774  2.7940 -1.5198
  104OSM   C16F10571   3.264   0.225   5.196 -0.3785 -0.3993 -0.2882
  104OSM   H16F10572   3.343   0.164   5.148 -2.6054 -1.6094 -2.6480
  104OSM   H16G10573   3.302   0.329   5.212 -0.1938 -0.3802 -0.8543
  104OSM   C17F10574   3.142   0.232   5.099  0.7359 -0.2978  0.8218
  104OSM   H17F10575   3.083   0.320   5.133  1.4187  0.5684 -0.1483
  104OSM   H17G10576   3.093   0.135   5.119 -0.0282  0.1113  0.9455
  104OSM   C18F10577   3.185   0.248   4.949 -0.1833  0.3373 -0.1672
  104OSM   H18F10578   3.101   0.224   4.880 -1.2774  0.6161  1.0322
  104OSM   H18G10579   3.267   0.176   4.928 -0.5417 -0.4944  1.1281
  104OSM   H18H10580   3.221   0.352   4.936 -1.8178  0.7173 -2.0509
  105OSM      N10581   6.110   0.062   6.553  0.2184 -0.8464 -0.0182
  105OSM    C1510582   6.200  -0.050   6.582 -0.2626  0.8268  0.0338
  105OSM   H15A10583   6.256  -0.087   6.498  1.8531  0.5735  1.4764
  105OSM   H15B10584   6.138  -0.130   6.619  0.4410  0.0042 -0.5268
  105OSM   H15C10585   6.269  -0.030   6.662  0.7485 -1.8549 -0.1009
  105OSM    C1410586   6.056   0.114   6.682  0.1732  0.0821  0.5637
  105OSM   H14A10587   6.040   0.038   6.758 -0.2491 -0.6291 -0.2162
  105OSM   H14B10588   5.962   0.164   6.666  1.1962  1.6244 -1.0230
  105OSM   H14C10589   6.118   0.194   6.719 -0.1009  0.3840  0.3726
  105OSM    C1310590   6.186   0.164   6.484 -0.8379 -0.4832 -0.3357
  105OSM   H13A10591   6.209   0.114   6.391  0.5474  1.4420 -1.0940
  105OSM   H13B10592   6.284   0.175   6.526  0.3968  3.6944 -3.6179
  105OSM   H13C10593   6.135   0.258   6.466 -1.0983 -0.6009 -0.2263
  105OSM    C1210594   5.994   0.017   6.466 -0.1423 -0.5991  0.4979
  105OSM   H12A10595   5.937  -0.053   6.526  0.9254 -0.8833  1.2178
  105OSM   H12B10596   6.046  -0.033   6.386  0.4190  0.6151  0.0798
  105OSM    C1110597   5.897   0.119   6.403 -0.2371  0.5152  0.3095
  105OSM   H11A10598   5.833   0.070   6.327 -0.6413  2.4491 -0.6451
  105OSM   H11B10599   5.942   0.195   6.335  0.5831 -0.3645 -0.1461
  105OSM      P10600   5.674   0.147   6.559 -0.1263  0.1743 -0.0562
  105OSM    O1310601   5.701   0.014   6.620  0.2309  0.6588 -0.3010
  105OSM    O1410602   5.634   0.258   6.650 -0.2854  0.3175  0.3539
  105OSM    O1110603   5.570   0.130   6.437 -0.2052 -0.2311 -0.2549
  105OSM    O1210604   5.812   0.191   6.495 -0.1383 -0.2130  0.0046
  105OSM    C1S10605   5.504   0.245   6.389 -0.1987 -0.9133  0.0949
  105OSM    H1S10606   5.518   0.337   6.449  0.2500 -0.4065 -0.7614
  105OSM    H1T10607   5.396   0.220   6.382 -0.3461 -0.0487 -1.0426
  105OSM     NF10608   5.473   0.401   6.196  0.0303 -0.1653  0.2821
  105OSM    HNF10609   5.385   0.390   6.150 -0.4067 -0.6342  1.1943
  105OSM    C2S10610   5.540   0.281   6.244  0.1790 -0.2361 -0.3154
  105OSM    H2S10611   5.649   0.293   6.228 -0.3019  1.3610 -2.8906
  105OSM    C3S10612   5.503   0.159   6.156  0.2084  0.5682  0.8470
  105OSM    H3S10613   5.398   0.128   6.174  0.1530 -0.1765 -0.5972
  105OSM     O310614   5.575   0.045   6.201  0.4989  0.0950 -0.1949
  105OSM    HO310615   5.596   0.057   6.294  1.8894 -0.9598 -0.3487
  105OSM    C4S10616   5.517   0.192   6.007  0.5026  0.5177 -1.0965
  105OSM    H4S10617   5.420   0.229   5.971 -0.0221 -0.0431 -0.2876
  105OSM    C5S10618   5.622   0.178   5.925  0.4461 -0.9186  0.7541
  105OSM    H5S10619   5.713   0.128   5.959 -0.1704 -1.3981  1.7379
  105OSM    C6S10620   5.611   0.199   5.775 -0.5233  0.4633 -0.3316
  105OSM    H6S10621   5.660   0.114   5.722 -0.4231  2.4136 -3.6535
  105OSM    H6T10622   5.668   0.290   5.745  0.8148 -1.0817 -2.8481
  105OSM    C7S10623   5.482   0.221   5.696  0.0544  0.9235  0.0683
  105OSM    H7S10624   5.430   0.308   5.742  0.3747  0.4208  1.4126
  105OSM    H7T10625   5.425   0.127   5.710  1.2513 -0.0269 -1.2125
  105OSM    C8S10626   5.493   0.236   5.540 -0.7084 -0.1893  0.4918
  105OSM    H8S10627   5.541   0.142   5.506  1.2094  0.7739  0.3912
  105OSM    H8T10628   5.556   0.322   5.509  0.1331 -1.7114 -2.2889
  105OSM    C9S10629   5.361   0.253   5.468  0.2691  0.6903 -0.5952
  105OSM    H9S10630   5.310   0.351   5.477  1.5438  1.3268 -0.0571
  105OSM    H9T10631   5.296   0.167   5.495 -1.4023  1.8041 -0.9570
  105OSM   C10S10632   5.386   0.239   5.320  0.9914 -0.0185  0.3858
  105OSM   H10S10633   5.486   0.280   5.294  1.4747 -0.9024  0.7961
  105OSM   H10T10634   5.309   0.289   5.258 -0.0746  1.7113  2.9464
  105OSM   C11S10635   5.386   0.093   5.267 -0.0184  0.4116 -0.7691
  105OSM   H11S10636   5.303   0.034   5.311 -1.0537  3.0477  1.0282
  105OSM   H11T10637   5.487   0.062   5.301 -0.8636  1.7755  3.5535
  105OSM   C12S10638   5.378   0.098   5.112  0.1979 -0.1363 -0.6828
  105OSM   H12S10639   5.391  -0.006   5.074 -3.1992 -0.0495 -2.4662
  105OSM   H12T10640   5.435   0.179   5.061 -1.1361  0.7042 -0.8813
  105OSM   C13S10641   5.240   0.137   5.064  0.6871  0.7935  0.4810
  105OSM   H13S10642   5.186   0.230   5.091  0.3351  1.4592 -2.2317
  105OSM   H13T10643   5.176   0.050   5.088  1.4509 -0.0907 -0.5758
  105OSM   C14S10644   5.233   0.143   4.908 -0.1664  0.1822 -0.1117
  105OSM   H14S10645   5.253   0.250   4.884  1.1154 -0.0668 -0.1730
  105OSM   H14T10646   5.124   0.145   4.884 -0.1258 -2.1331 -0.6934
  105OSM   C15S10647   5.313   0.045   4.821  0.2073 -0.4103 -0.0048
  105OSM   H15S10648   5.420   0.034   4.847  0.2802  0.7899  0.2727
  105OSM   H15T10649   5.315   0.100   4.725 -1.1274 -0.1824  0.0737
  105OSM   C16S10650   5.242  -0.088   4.793  0.6310 -0.1753  0.1090
  105OSM   H16S10651   5.257  -0.160   4.876 -2.3633 -0.3156  0.6408
  105OSM   H16T10652   5.296  -0.122   4.702  1.0229 -2.6757  1.1903
  105OSM   C17S10653   5.090  -0.082   4.750 -0.5423  0.6517  0.3791
  105OSM   H17S10654   5.093  -0.007   4.668 -0.0353  0.3281  0.0897
  105OSM   H17T10655   5.032  -0.046   4.837 -0.7163  0.4643  0.3411
  105OSM   C18S10656   5.049  -0.217   4.701 -0.2468 -0.9268  0.8329
  105OSM   H18S10657   4.957  -0.201   4.639 -1.3809 -1.9720  2.1853
  105OSM   H18T10658   5.023  -0.288   4.782 -4.1921  0.2033  0.7749
  105OSM   H18U10659   5.124  -0.264   4.634 -3.3289 -2.4464 -1.8842
  105OSM    C1F10660   5.508   0.516   6.243  0.2435  0.1872  0.3587
  105OSM     OF10661   5.601   0.532   6.311 -1.0482  0.0539 -0.0054
  105OSM    C2F10662   5.416   0.630   6.201 -0.1622 -0.4682  0.8492
  105OSM    H2F10663   5.326   0.641   6.264 -0.4753  2.5402  0.0011
  105OSM    H2G10664   5.387   0.610   6.096  0.7199 -0.3723  0.5798
  105OSM    C3F10665   5.481   0.767   6.191 -0.6629  0.3663 -0.0822
  105OSM    H3F10666   5.528   0.797   6.286 -2.9389  1.4479  0.7642
  105OSM    H3G10667   5.394   0.835   6.187 -0.4017  1.0019  3.0247
  105OSM    C4F10668   5.569   0.791   6.056  0.5399  0.8516  0.3340
  105OSM    H4F10669   5.653   0.719   6.048  0.0992  0.2948  0.5665
  105OSM    H4G10670   5.613   0.892   6.061 -0.4167  1.2625  0.7812
  105OSM    C5F10671   5.485   0.783   5.928 -0.3565  0.6167  0.1686
  105OSM    H5F10672   5.390   0.840   5.939 -1.8652 -1.4245 -1.3946
  105OSM    H5G10673   5.455   0.676   5.917  0.1819  0.5395 -0.5901
  105OSM    C6F10674   5.555   0.835   5.810 -0.1820 -0.5503  0.2609
  105OSM    H6F10675   5.641   0.769   5.787 -2.6798 -3.1471 -2.4549
  105OSM    H6G10676   5.600   0.935   5.831  0.3079 -1.0923  1.9059
  105OSM    C7F10677   5.487   0.862   5.672  0.0270 -0.9925 -0.6613
  105OSM    H7F10678   5.557   0.910   5.601 -0.8274 -0.0460 -0.8888
  105OSM    H7G10679   5.407   0.937   5.693  0.0315 -1.2348  0.2668
  105OSM    C8F10680   5.432   0.744   5.610  0.3154  0.2145  0.5736
  105OSM    H8F10681   5.337   0.770   5.560 -1.2178 -0.9732  2.6865
  105OSM    H8G10682   5.391   0.674   5.687 -1.2640  2.2870  1.6930
  105OSM    C9F10683   5.529   0.675   5.520 -0.0754  0.3540  0.1005
  105OSM    H9F10684   5.625   0.639   5.559  1.9933  0.3067 -4.3890
  105OSM   C10F10685   5.500   0.626   5.400 -0.5197  0.2070  0.3324
  105OSM   H10F10686   5.581   0.565   5.356  0.3091  0.9258  0.8374
  105OSM   C11F10687   5.378   0.650   5.317 -0.3377  0.1410 -0.9993
  105OSM   H11F10688   5.329   0.742   5.355  0.1043  0.5412 -1.3768
  105OSM   H11G10689   5.306   0.568   5.335  1.5946 -0.9336  2.8401
  105OSM   C12F10690   5.383   0.647   5.165  0.6145 -0.1737 -0.0529
  105OSM   H12F10691   5.285   0.674   5.120  1.1341  1.8473 -0.0722
  105OSM   H12G10692   5.394   0.541   5.132  1.2741 -0.7289  1.8463
  105OSM   C13F10693   5.495   0.739   5.101  0.2160  0.4394 -0.1406
  105OSM   H13F10694   5.597   0.696   5.100  0.5182  1.1158  0.4625
  105OSM   H13G10695   5.503   0.822   5.175  0.1464 -0.0630  0.4465
  105OSM   C14F10696   5.466   0.784   4.951  0.2116  0.2895  0.4026
  105OSM   H14F10697   5.384   0.858   4.946  0.8854  0.9772 -1.4177
  105OSM   H14G10698   5.425   0.696   4.895  2.8523 -0.3787 -0.6420
  105OSM   C15F10699   5.591   0.825   4.867 -0.3280  0.2300  0.0356
  105OSM   H15F10700   5.556   0.860   4.767  4.3408 -0.5384 -2.1504
  105OSM   H15G10701   5.658   0.741   4.838  0.7884  1.3177 -0.6574
  105OSM   C16F10702   5.677   0.931   4.940  0.9790  0.5112  0.5771
  105OSM   H16F10703   5.719   0.873   5.025 -0.3190 -2.1445 -0.4666
  105OSM   H16G10704   5.614   1.017   4.971  0.4800  0.6168 -0.6690
  105OSM   C17F10705   5.795   0.973   4.847 -0.5884 -0.4900  0.4028
  105OSM   H17F10706   5.765   1.016   4.749 -0.0523 -0.5234  0.2209
  105OSM   H17G10707   5.856   0.882   4.828  2.1492  1.0882  1.0428
  105OSM   C18F10708   5.881   1.078   4.925  0.5705  0.2660  0.5269
  105OSM   H18F10709   5.986   1.066   4.891  0.5533  3.2344 -0.9367
  105OSM   H18G10710   5.877   1.060   5.034  1.5894 -0.9780  0.3774
  105OSM   H18H10711   5.836   1.178   4.905 -0.8881 -0.6817 -1.2048
  106OSM      N10712   4.334   4.414   6.985 -0.3212 -0.2727 -0.0211
  106OSM    C1510713   4.348   4.289   7.058 -0.0685 -0.6219  0.8860
  106OSM   H15A10714   4.453   4.263   7.066 -0.5045 -2.7343  0.3240
  106OSM   H15B10715   4.302   4.206   7.008 -1.5544  0.8428 -0.2855
  106OSM   H15C10716   4.308   4.297   7.158 -0.3544  1.9383  0.6266
  106OSM    C1410717   4.410   4.532   7.043 -0.0957 -0.4262 -0.1965
  106OSM   H14A10718   4.382   4.548   7.146  1.0752 -0.0158  0.0689
  106OSM   H14B10719   4.384   4.624   6.993  1.5197  0.9555  1.3628
  106OSM   H14C10720   4.516   4.512   7.039 -0.0207  0.0135 -0.5118
  106OSM    C1310721   4.377   4.399   6.839  0.5215  0.0646 -0.4099
  106OSM   H13A10722   4.333   4.315   6.787 -1.5481  0.7745  0.0917
  106OSM   H13B10723   4.483   4.397   6.817  0.4734  1.8037 -0.9668
  106OSM   H13C10724   4.335   4.484   6.788  1.0206 -0.8364 -2.4125
  106OSM    C1210725   4.179   4.447   6.974  0.2391 -0.3588  0.1403
  106OSM   H12A10726   4.130   4.365   6.926  1.6829 -1.6790  0.8309
  106OSM   H12B10727   4.172   4.545   6.929 -0.6671  0.7292  2.5024
  106OSM    C1110728   4.116   4.473   7.102  0.8137 -0.1319 -0.0562
  106OSM   H11A10729   4.158   4.567   7.143 -2.1434  2.0468 -1.6852
  106OSM   H11B10730   4.137   4.394   7.177  0.6502 -1.5032 -1.3920
  106OSM      P10731   3.879   4.373   7.062 -0.0083 -0.4375 -0.2976
  106OSM    O1310732   3.958   4.249   7.078  0.3321 -0.5986 -0.3583
  106OSM    O1410733   3.761   4.396   7.148 -0.7737  0.2475 -0.1660
  106OSM    O1110734   3.837   4.404   6.916  0.6107 -0.6626  0.5653
  106OSM    O1210735   3.979   4.496   7.085  1.3118  0.0171 -0.0366
  106OSM    C1S10736   3.765   4.519   6.880  0.0660 -0.6631 -0.3187
  106OSM    H1S10737   3.793   4.618   6.924 -0.7769 -0.6043  0.0992
  106OSM    H1T10738   3.658   4.510   6.909 -0.0739  3.2338  0.9839
  106OSM     NF10739   3.756   4.677   6.679  0.7004  0.3126  0.1133
  106OSM    HNF10740   3.682   4.713   6.623  1.7873 -0.4287 -1.9093
  106OSM    C2S10741   3.765   4.535   6.721  0.0154 -0.2116 -0.0965
  106OSM    H2S10742   3.865   4.501   6.688 -0.7064  0.8829 -3.9376
  106OSM    C3S10743   3.661   4.438   6.660  0.3221 -0.5339  0.0914
  106OSM    H3S10744   3.560   4.453   6.703 -0.1274 -0.9693 -0.7866
  106OSM     O310745   3.698   4.307   6.698 -0.0040  0.7247  0.0192
  106OSM    HO310746   3.766   4.332   6.761  0.2361  2.5485 -0.8827
  106OSM    C4S10747   3.647   4.453   6.509  0.4320 -0.3896  0.4995
  106OSM    H4S10748   3.578   4.534   6.479  1.0300 -0.1125 -0.1723
  106OSM    C5S10749   3.730   4.413   6.410  0.2675 -0.4912 -0.1321
  106OSM    H5S10750   3.824   4.357   6.421 -0.2299 -2.4080 -3.9688
  106OSM    C6S10751   3.702   4.456   6.268  0.2423  0.1587 -0.4550
  106OSM    H6S10752   3.670   4.363   6.217  0.3448 -0.3089  0.3120
  106OSM    H6T10753   3.800   4.484   6.225  1.2862  0.6856  2.0772
  106OSM    C7S10754   3.608   4.573   6.232 -0.0579 -1.0503 -0.5829
  106OSM    H7S10755   3.643   4.665   6.284 -0.7241  0.4966 -2.7202
  106OSM    H7T10756   3.505   4.554   6.270  0.3780 -2.3502 -0.0052
  106OSM    C8S10757   3.621   4.614   6.076 -0.0204 -0.6034 -0.0806
  106OSM    H8S10758   3.725   4.646   6.058  1.2043 -2.5837  2.6672
  106OSM    H8T10759   3.557   4.698   6.041  1.3373  0.0037 -1.1661
  106OSM    C9S10760   3.575   4.511   5.978 -0.1789  0.9988  0.0950
  106OSM    H9S10761   3.479   4.470   6.014  0.4764  0.8563  1.7842
  106OSM    H9T10762   3.649   4.429   5.993 -0.4597  0.9289  1.1803
  106OSM   C10S10763   3.586   4.559   5.836  0.3902  0.0900  0.2226
  106OSM   H10S10764   3.536   4.658   5.835  1.9454  0.9850 -3.2908
  106OSM   H10T10765   3.525   4.491   5.772  3.0561 -0.5251 -1.8481
  106OSM   C11S10766   3.730   4.568   5.780 -0.3237 -0.3959  0.1038
  106OSM   H11S10767   3.773   4.467   5.794 -1.6768 -1.0289 -0.1080
  106OSM   H11T10768   3.781   4.641   5.846  1.0291 -2.8243  1.8925
  106OSM   C12S10769   3.742   4.605   5.627 -0.1748 -0.0940  0.9244
  106OSM   H12S10770   3.845   4.583   5.592 -0.6918  0.3343 -0.9809
  106OSM   H12T10771   3.726   4.713   5.609  0.7154 -0.1134 -0.0314
  106OSM   C13S10772   3.633   4.538   5.537  0.2241  0.8342 -0.1774
  106OSM   H13S10773   3.539   4.585   5.574  0.2265  0.4687  0.2957
  106OSM   H13T10774   3.626   4.428   5.555  1.8589  0.4366 -1.6955
  106OSM   C14S10775   3.647   4.555   5.381 -0.2753 -0.3772 -0.0158
  106OSM   H14S10776   3.658   4.659   5.342  1.7318 -0.7863 -0.6729
  106OSM   H14T10777   3.554   4.511   5.339  0.8136 -2.1078 -0.7239
  106OSM   C15S10778   3.772   4.487   5.326 -0.0415 -0.0548 -0.0254
  106OSM   H15S10779   3.773   4.385   5.370  3.1953  0.4562  1.3864
  106OSM   H15T10780   3.856   4.549   5.365  0.3289  2.0245 -3.6530
  106OSM   C16S10781   3.788   4.488   5.171 -0.5960 -0.5201 -0.1698
  106OSM   H16S10782   3.707   4.452   5.105  0.0319 -1.5359 -0.4077
  106OSM   H16T10783   3.883   4.432   5.161  0.2820  0.8950 -0.1236
  106OSM   C17S10784   3.835   4.615   5.095  0.1309  1.0548 -0.4396
  106OSM   H17S10785   3.922   4.669   5.138  1.5023 -1.0140 -0.4733
  106OSM   H17T10786   3.751   4.688   5.098  0.4536  1.4874 -1.4006
  106OSM   C18S10787   3.852   4.592   4.942  0.0118 -0.4077  0.3409
  106OSM   H18S10788   3.747   4.576   4.910  0.0708  1.0983 -0.6738
  106OSM   H18T10789   3.910   4.500   4.917  0.5303  0.3895 -1.6055
  106OSM   H18U10790   3.898   4.682   4.897 -1.0107  0.6474  1.3345
  106OSM    C1F10791   3.855   4.763   6.698 -0.6656 -0.2167  0.2863
  106OSM     OF10792   3.952   4.729   6.767  0.3767  0.2282  0.5671
  106OSM    C2F10793   3.844   4.901   6.634  0.9795  0.1567 -0.1292
  106OSM    H2F10794   3.825   4.972   6.717 -3.8773 -2.2161  1.1759
  106OSM    H2G10795   3.752   4.902   6.572 -0.3316  1.2623  1.7332
  106OSM    C3F10796   3.976   4.939   6.567 -0.5727  0.4055  0.1460
  106OSM    H3F10797   4.058   4.898   6.629  0.2516  1.7524 -0.0227
  106OSM    H3G10798   3.974   5.049   6.580  0.7335  0.5175 -0.4531
  106OSM    C4F10799   4.000   4.893   6.422  0.3431 -0.2003  0.3298
  106OSM    H4F10800   4.012   4.783   6.425  1.2876 -0.0885  0.9952
  106OSM    H4G10801   4.089   4.943   6.379 -1.6772  1.7469 -1.9596
  106OSM    C5F10802   3.889   4.936   6.322 -0.6994 -0.0050 -0.2890
  106OSM    H5F10803   3.864   5.041   6.346 -0.4277 -0.1289  0.5686
  106OSM    H5G10804   3.793   4.879   6.322 -1.0369  0.5044  1.6006
  106OSM    C6F10805   3.953   4.954   6.180 -0.1695  0.2315 -0.6572
  106OSM    H6F10806   4.029   4.876   6.155  0.1115  0.5335 -0.7458
  106OSM    H6G10807   4.001   5.053   6.188 -1.5441  0.8863 -0.2025
  106OSM    C7F10808   3.836   4.952   6.073 -0.0137 -0.2538 -0.4341
  106OSM    H7F10809   3.788   5.052   6.072 -0.2278 -0.2992  1.5316
  106OSM    H7G10810   3.765   4.872   6.104  0.0754 -0.3281 -0.4175
  106OSM    C8F10811   3.885   4.925   5.923 -0.1230 -0.3277 -0.4321
  106OSM    H8F10812   3.799   4.919   5.852 -0.1604 -2.3506 -0.2799
  106OSM    H8G10813   3.943   4.830   5.920 -0.7508 -0.8095  1.3577
  106OSM    C9F10814   3.970   5.038   5.883  0.2743 -0.3578  0.8066
  106OSM    H9F10815   3.957   5.131   5.940  1.7267  0.1686  0.3220
  106OSM   C10F10816   4.057   5.035   5.781  0.0000 -0.3353 -0.4211
  106OSM   H10F10817   4.115   5.124   5.753 -0.1395 -0.3164 -0.6556
  106OSM   C11F10818   4.081   4.918   5.688  0.9123  0.3867 -0.3972
  106OSM   H11F10819   4.031   4.826   5.725 -1.0406  1.8683  0.8303
  106OSM   H11G10820   4.190   4.898   5.676  0.6026 -0.5467 -1.8506
  106OSM   C12F10821   4.023   4.936   5.548 -0.1086 -0.2143  0.4901
  106OSM   H12F10822   3.922   4.982   5.548  0.1310  0.3758 -0.7913
  106OSM   H12G10823   4.008   4.844   5.486  1.6710  0.7893 -1.5858
  106OSM   C13F10824   4.115   5.013   5.456  0.2183 -0.1426  0.4735
  106OSM   H13F10825   4.201   4.944   5.448  0.8664  0.5852  0.9684
  106OSM   H13G10826   4.157   5.100   5.512  2.0104 -0.6494 -0.0206
  106OSM   C14F10827   4.053   5.065   5.323 -0.0216 -0.3504  0.2662
  106OSM   H14F10828   4.109   5.158   5.301  0.0237 -0.0997  1.4040
  106OSM   H14G10829   3.948   5.100   5.325  0.3680  0.8341  1.3407
  106OSM   C15F10830   4.079   4.968   5.208 -0.1684  0.0050 -0.2468
  106OSM   H15F10831   4.014   4.882   5.235  0.4685 -0.1443  0.8945
  106OSM   H15G10832   4.181   4.924   5.204  1.1060  2.8568 -1.8335
  106OSM   C16F10833   4.050   5.021   5.072  0.1947 -0.2320  0.6585
  106OSM   H16F10834   4.120   5.105   5.052 -0.2373 -0.6687 -3.4960
  106OSM   H16G10835   3.943   5.049   5.065  0.3978  1.1450  2.3299
  106OSM   C17F10836   4.084   4.917   4.965  0.1819 -0.3719  0.4059
  106OSM   H17F10837   4.045   4.815   4.988  0.2491 -0.6199 -0.5547
  106OSM   H17G10838   4.193   4.892   4.959 -0.2698 -2.2837 -0.7733
  106OSM   C18F10839   4.026   4.960   4.829 -0.1470  0.3455  0.1446
  106OSM   H18F10840   4.030   5.069   4.807  2.9258  0.4727  0.8994
  106OSM   H18G10841   3.918   4.938   4.812  0.2295  0.3899 -3.0549
  106OSM   H18H10842   4.079   4.900   4.752 -0.0392 -0.2221  0.6553
  107OSM      N10843   3.216   3.674   7.319 -0.2658 -0.5027  0.0036
  107OSM    C1510844   3.085   3.609   7.355 -0.5519 -0.0122  0.5868
  107OSM   H15A10845   3.075   3.525   7.289  0.1971 -1.0321  1.7409
  107OSM   H15B10846   3.010   3.687   7.354 -0.7809 -0.2354  0.2008
  107OSM   H15C10847   3.095   3.580   7.459 -2.2931 -0.9686  0.5162
  107OSM    C1410848   3.249   3.769   7.426  0.0858  0.2055 -0.1001
  107OSM   H14A10849   3.193   3.862   7.421  0.9756  0.7421 -0.3303
  107OSM   H14B10850   3.353   3.795   7.413  0.6471 -1.7469  0.2164
  107OSM   H14C10851   3.223   3.737   7.526 -1.1647  0.9042 -0.1819
  107OSM    C1310852   3.326   3.569   7.327  0.6601 -0.3332 -0.2012
  107OSM   H13A10853   3.305   3.499   7.406 -0.1291  2.0606  1.7954
  107OSM   H13B10854   3.425   3.610   7.337  1.4273 -2.1460  0.0312
  107OSM   H13C10855   3.329   3.519   7.231 -0.3235 -1.4527  0.3305
  107OSM    C1210856   3.217   3.725   7.173 -0.0060 -0.0787 -0.4896
  107OSM   H12A10857   3.120   3.767   7.148 -2.2325 -4.2404  0.2800
  107OSM   H12B10858   3.219   3.637   7.110 -1.7237 -2.3569  2.4229
  107OSM    C1110859   3.333   3.811   7.123  0.2841  0.0757  0.1304
  107OSM   H11A10860   3.300   3.834   7.020 -1.0582  0.4257  0.6108
  107OSM   H11B10861   3.429   3.755   7.117  0.2122  0.1075 -1.9757
  107OSM      P10862   3.472   4.034   7.169 -0.3894  0.1577 -0.2046
  107OSM    O1310863   3.427   4.175   7.150 -0.0503 -0.3547 -0.5457
  107OSM    O1410864   3.578   4.001   7.268 -0.0119 -0.1771  0.4221
  107OSM    O1110865   3.510   3.987   7.022 -0.0835  0.7358  0.3021
  107OSM    O1210866   3.349   3.931   7.200 -0.2803 -0.4758 -0.0858
  107OSM    C1S10867   3.626   4.038   6.955 -0.0318  0.0953  0.3333
  107OSM    H1S10868   3.722   3.993   6.987  1.5791  2.2598 -1.1424
  107OSM    H1T10869   3.643   4.148   6.961 -0.7246  0.3529 -1.6720
  107OSM     NF10870   3.739   4.019   6.740  0.3175  0.1439  0.0366
  107OSM    HNF10871   3.733   4.108   6.696 -2.0003  0.3662  0.6984
  107OSM    C2S10872   3.608   3.991   6.803  0.2141  0.8083  0.5588
  107OSM    H2S10873   3.586   3.882   6.799 -1.4040  1.1294  0.2885
  107OSM    C3S10874   3.487   4.062   6.740 -0.0477  0.7898  0.3265
  107OSM    H3S10875   3.502   4.171   6.754  1.1031  0.7063 -0.1861
  107OSM     O310876   3.356   4.043   6.804 -0.6178 -0.0525 -0.0760
  107OSM    HO310877   3.377   3.976   6.870 -2.7583 -0.3648  0.3465
  107OSM    C4S10878   3.467   4.011   6.607  0.5449  0.5483 -0.6371
  107OSM    H4S10879   3.490   3.905   6.588  0.1386  0.0393  1.4706
  107OSM    C5S10880   3.419   4.087   6.507 -0.4639 -0.3328 -0.6386
  107OSM    H5S10881   3.412   4.194   6.529  2.7793  0.3215 -2.1842
  107OSM    C6S10882   3.385   4.041   6.368  0.6808  0.3888 -0.8538
  107OSM    H6S10883   3.275   4.052   6.354  0.4093 -1.0860 -0.1162
  107OSM    H6T10884   3.412   3.934   6.363 -1.3696 -0.2706  0.6025
  107OSM    C7S10885   3.452   4.119   6.262  0.2760  0.7623  0.0636
  107OSM    H7S10886   3.556   4.085   6.241  0.2116  0.2854  0.5224
  107OSM    H7T10887   3.456   4.229   6.282  1.0896  0.5740  1.0130
  107OSM    C8S10888   3.362   4.111   6.136 -0.3236  0.1637  0.4451
  107OSM    H8S10889   3.276   4.177   6.160  0.7972  1.7279  0.3414
  107OSM    H8T10890   3.321   4.011   6.110 -1.2997  0.2969  1.3897
  107OSM    C9S10891   3.428   4.167   6.008 -0.3005 -0.2006 -0.3361
  107OSM    H9S10892   3.521   4.112   5.980 -0.1722 -0.2410  0.1570
  107OSM    H9T10893   3.450   4.276   6.019 -2.3699  0.3535 -1.1542
  107OSM   C10S10894   3.346   4.144   5.885 -0.1048  0.4418 -0.3203
  107OSM   H10S10895   3.252   4.202   5.895 -0.3294  0.0736 -0.3001
  107OSM   H10T10896   3.328   4.035   5.871  1.3267  0.3536 -1.7138
  107OSM   C11S10897   3.421   4.189   5.755 -0.8262  0.3644 -0.6150
  107OSM   H11S10898   3.518   4.136   5.751 -1.3102 -0.5529 -0.5259
  107OSM   H11T10899   3.454   4.295   5.756  0.1121  0.1012 -1.6512
  107OSM   C12S10900   3.336   4.151   5.628 -0.1275 -0.7309  0.2274
  107OSM   H12S10901   3.253   4.222   5.608  0.6876  0.1524 -0.1274
  107OSM   H12T10902   3.301   4.046   5.622 -0.0892 -0.7640  0.5436
  107OSM   C13S10903   3.413   4.180   5.498  0.6294  0.2844 -0.2315
  107OSM   H13S10904   3.509   4.124   5.497  1.0415  0.8361  2.1294
  107OSM   H13T10905   3.445   4.286   5.505 -2.4510  1.4548 -2.0247
  107OSM   C14S10906   3.343   4.157   5.363  0.6374  0.1945 -0.2146
  107OSM   H14S10907   3.257   4.226   5.357 -0.7666 -1.4801 -0.0825
  107OSM   H14T10908   3.308   4.052   5.361  1.6786 -0.2469  1.6248
  107OSM   C15S10909   3.439   4.183   5.247 -0.0486 -0.2363 -0.0925
  107OSM   H15S10910   3.519   4.110   5.272  0.2257  1.0593  3.3624
  107OSM   H15T10911   3.481   4.285   5.256 -2.1506  0.5244  1.8628
  107OSM   C16S10912   3.382   4.178   5.106 -0.1670  0.4703  0.3178
  107OSM   H16S10913   3.313   4.263   5.085 -0.8216  0.3467  1.8335
  107OSM   H16T10914   3.322   4.085   5.093  0.7803  0.1230 -1.9725
  107OSM   C17S10915   3.495   4.178   5.000 -0.3077  0.9127  0.2656
  107OSM   H17S10916   3.570   4.100   5.023  0.4777  0.3650 -3.5352
  107OSM   H17T10917   3.546   4.277   5.004  0.0312  0.9253 -2.5324
  107OSM   C18S10918   3.445   4.127   4.858 -0.1373 -0.5029  0.8899
  107OSM   H18S10919   3.381   4.206   4.813 -0.4752 -0.5311  1.3090
  107OSM   H18T10920   3.384   4.034   4.867  1.6310 -1.7950 -0.0289
  107OSM   H18U10921   3.528   4.098   4.791 -1.2127  1.2376 -1.3026
  107OSM    C1F10922   3.854   3.954   6.758 -0.0396  0.0791  0.6935
  107OSM     OF10923   3.864   3.852   6.826 -0.0354 -1.0828 -0.1714
  107OSM    C2F10924   3.981   4.013   6.693  0.2448 -0.0210  0.2049
  107OSM    H2F10925   4.062   3.937   6.701  2.3057  2.0430  0.1981
  107OSM    H2G10926   4.019   4.087   6.767  1.4929 -0.5384  0.1180
  107OSM    C3F10927   3.952   4.081   6.561 -0.2340 -0.0519  0.2541
  107OSM    H3F10928   4.044   4.123   6.515  1.0814 -0.1911  2.6272
  107OSM    H3G10929   3.884   4.169   6.571 -1.4707 -1.0376  0.7435
  107OSM    C4F10930   3.875   4.002   6.450  0.2422 -0.7800  0.1956
  107OSM    H4F10931   3.768   3.979   6.469 -0.0655 -0.7088 -1.3075
  107OSM    H4G10932   3.915   3.898   6.443 -1.3710 -1.3413 -1.2670
  107OSM    C5F10933   3.879   4.066   6.308 -0.0112 -0.6550 -0.3645
  107OSM    H5F10934   3.978   4.112   6.290  0.0194 -0.3170  0.6460
  107OSM    H5G10935   3.802   4.147   6.306 -1.8274 -2.2883 -0.5209
  107OSM    C6F10936   3.857   3.964   6.197  0.3361 -0.4913 -0.1008
  107OSM    H6F10937   3.790   3.888   6.244 -0.1565 -0.8268 -1.3202
  107OSM    H6G10938   3.961   3.930   6.177  1.3944  2.2342  0.2865
  107OSM    C7F10939   3.800   4.021   6.071 -0.2308  0.0733 -0.0592
  107OSM    H7F10940   3.699   4.067   6.083 -0.0753  0.8149 -1.3925
  107OSM    H7G10941   3.770   3.943   5.998 -0.9315  1.4741 -1.3365
  107OSM    C8F10942   3.879   4.134   6.001 -0.5011 -0.8302 -0.0218
  107OSM    H8F10943   3.979   4.089   5.980 -0.6074 -1.7893  1.3989
  107OSM    H8G10944   3.899   4.219   6.069 -0.5497 -1.7680  1.1860
  107OSM    C9F10945   3.815   4.194   5.879 -0.4896 -0.3232 -0.2549
  107OSM    H9F10946   3.724   4.251   5.901  0.2482  0.8374 -0.0918
  107OSM   C10F10947   3.849   4.186   5.750 -0.3014  0.1444 -1.4569
  107OSM   H10F10948   3.778   4.222   5.674  0.3302  0.5138 -1.8785
  107OSM   C11F10949   3.976   4.130   5.695  0.0185 -0.1195  0.5964
  107OSM   H11F10950   3.965   4.019   5.686  1.5513 -0.1805 -0.9843
  107OSM   H11G10951   4.051   4.141   5.776 -0.4450  0.6189  0.9343
  107OSM   C12F10952   4.019   4.189   5.559 -0.5486 -0.0709  0.0417
  107OSM   H12F10953   4.129   4.180   5.545 -0.8366 -1.7039 -1.6564
  107OSM   H12G10954   3.997   4.297   5.567  0.3194  0.2685 -1.6832
  107OSM   C13F10955   3.945   4.139   5.433 -0.6571  0.5257  0.4470
  107OSM   H13F10956   3.836   4.161   5.431 -0.7098  0.8594 -4.0465
  107OSM   H13G10957   3.961   4.029   5.433 -1.3413  0.2411 -3.7480
  107OSM   C14F10958   4.002   4.199   5.307  0.3973  0.5928  0.3699
  107OSM   H14F10959   4.103   4.154   5.295 -0.7203 -1.7936 -0.8037
  107OSM   H14G10960   4.006   4.310   5.313  2.4239  0.8331 -2.9415
  107OSM   C15F10961   3.912   4.149   5.189 -0.2316  0.4456 -0.9145
  107OSM   H15F10962   3.810   4.191   5.193 -1.2482 -1.4939 -3.5231
  107OSM   H15G10963   3.893   4.040   5.191 -2.2207  0.7714  0.1640
  107OSM   C16F10964   3.977   4.188   5.059  1.0926  0.1509 -0.2034
  107OSM   H16F10965   4.069   4.127   5.045  0.7737 -0.9142  1.9163
  107OSM   H16G10966   4.002   4.295   5.073 -0.4262  0.5346 -0.3010
  107OSM   C17F10967   3.884   4.173   4.935  0.1865  0.5252  0.0779
  107OSM   H17F10968   3.804   4.248   4.949  0.2323  0.7364 -0.7545
  107OSM   H17G10969   3.845   4.069   4.942  3.6834 -1.0243 -1.1610
  107OSM   C18F10970   3.958   4.190   4.803  0.1780 -0.9666 -0.2409
  107OSM   H18F10971   3.881   4.211   4.726  0.7862  1.4968 -0.2507
  107OSM   H18G10972   4.022   4.102   4.778 -0.0671 -1.3069  0.3024
  107OSM   H18H10973   4.011   4.287   4.815  3.9116 -2.9922  1.2025
  108OSM      N10974   6.391   3.134   6.560 -0.5975 -0.4369  0.9055
  108OSM    C1510975   6.361   3.283   6.555 -0.2052 -0.4297 -0.7584
  108OSM   H15A10976   6.448   3.340   6.584 -0.0381 -1.0115 -0.0692
  108OSM   H15B10977   6.280   3.308   6.622  0.4435  1.0993 -0.4921
  108OSM   H15C10978   6.337   3.312   6.454  0.4248 -0.7620 -1.0099
  108OSM    C1410979   6.443   3.110   6.697  0.5848 -0.3885  0.3285
  108OSM   H14A10980   6.521   3.176   6.731  1.1398 -0.8645  0.0084
  108OSM   H14B10981   6.483   3.009   6.702 -0.6001 -0.8176  2.0295
  108OSM   H14C10982   6.370   3.125   6.775  0.0997  2.6811 -0.5876
  108OSM    C1310983   6.264   3.061   6.546 -0.7333  0.1409  0.8712
  108OSM   H13A10984   6.281   2.954   6.548  1.8749  0.5077  2.0871
  108OSM   H13B10985   6.217   3.082   6.452  1.5672  0.4157 -0.2840
  108OSM   H13C10986   6.198   3.085   6.628 -1.3196 -1.0200  0.7676
  108OSM    C1210987   6.495   3.105   6.446 -0.5008  0.4398  0.0232
  108OSM   H12A10988   6.456   3.133   6.349 -1.3869 -2.9418 -0.7351
  108OSM   H12B10989   6.503   2.998   6.446  1.5116  0.5366  1.2860
  108OSM    C1110990   6.636   3.172   6.461 -0.0498 -0.3771  0.1511
  108OSM   H11A10991   6.623   3.282   6.448  0.4470 -0.5399 -2.0177
  108OSM   H11B10992   6.696   3.133   6.376 -0.8441 -1.0722 -0.1009
  108OSM      P10993   6.809   3.212   6.647 -0.1919 -0.0675  0.2783
  108OSM    O1310994   6.758   3.341   6.710  0.6044 -0.2239  0.2154
  108OSM    O1410995   6.904   3.128   6.729 -0.8578 -0.2986 -0.9787
  108OSM    O1110996   6.881   3.251   6.509 -0.8862  0.2331 -0.2473
  108OSM    O1210997   6.692   3.127   6.586  0.2678 -0.5021 -0.5672
  108OSM    C1S10998   6.990   3.172   6.464  0.4511 -0.2411  0.7610
  108OSM    H1S10999   6.956   3.066   6.464 -1.8284  0.3954 -1.2654
  108OSM    H1T11000   7.071   3.183   6.539  1.4620 -3.3503  0.2869
  108OSM     NF11001   7.171   3.157   6.298 -0.0587  0.3636  0.2527
  108OSM    HNF11002   7.253   3.200   6.334 -0.6571  0.0235  2.1223
  108OSM    C2S11003   7.039   3.215   6.321  0.6599  0.0644  0.2934
  108OSM    H2S11004   6.959   3.179   6.253 -0.2534 -3.1539  2.7975
  108OSM    C3S11005   7.039   3.366   6.305  0.4507 -0.5786 -0.5763
  108OSM    H3S11006   7.107   3.399   6.387  0.4360 -0.0475 -0.7685
  108OSM     O311007   6.912   3.436   6.328 -0.4127 -0.4166  0.1520
  108OSM    HO311008   6.877   3.378   6.396 -0.8794 -3.2187 -2.2418
  108OSM    C4S11009   7.091   3.410   6.171  0.4402  0.1304 -0.4132
  108OSM    H4S11010   7.109   3.326   6.101 -0.0595 -1.9195  1.7841
  108OSM    C5S11011   7.113   3.529   6.124  0.3705  0.3004 -0.0296
  108OSM    H5S11012   7.089   3.616   6.187 -0.9335  0.6724 -0.9979
  108OSM    C6S11013   7.138   3.568   5.978 -0.0778 -0.2110 -0.4346
  108OSM    H6S11014   7.248   3.561   5.963  0.3542  0.1526  2.0700
  108OSM    H6T11015   7.106   3.673   5.964  1.1373  0.5426  1.9094
  108OSM    C7S11016   7.054   3.493   5.870 -0.5432  0.3350 -0.0501
  108OSM    H7S11017   6.944   3.486   5.884 -0.3648 -3.5863  0.5644
  108OSM    H7T11018   7.091   3.389   5.883 -2.2084 -0.2153  0.5403
  108OSM    C8S11019   7.089   3.536   5.729 -0.0117  0.9031 -0.2271
  108OSM    H8S11020   7.198   3.532   5.711 -0.2087 -1.7259 -1.3434
  108OSM    H8T11021   7.041   3.633   5.703 -1.4096  0.5238  0.8058
  108OSM    C9S11022   7.039   3.438   5.624 -0.0709  0.1512  0.9992
  108OSM    H9S11023   6.936   3.409   5.657  0.2125 -0.2141  1.5893
  108OSM    H9T11024   7.099   3.344   5.629 -1.4908 -0.7888  1.1623
  108OSM   C10S11025   7.045   3.492   5.486  0.0410  0.1957  0.5251
  108OSM   H10S11026   7.148   3.512   5.447 -0.5482  1.9240 -0.2492
  108OSM   H10T11027   7.004   3.595   5.489  0.5589  0.3760  2.1438
  108OSM   C11S11028   6.967   3.405   5.392  0.3974  0.2133 -0.4506
  108OSM   H11S11029   6.864   3.394   5.432 -1.5437  1.9537 -4.4393
  108OSM   H11T11030   7.002   3.299   5.388 -1.0944 -0.2772 -1.4785
  108OSM   C12S11031   6.964   3.468   5.255  0.7366 -0.0879 -0.9628
  108OSM   H12S11032   7.066   3.476   5.214 -0.2230  0.9513 -3.3320
  108OSM   H12T11033   6.924   3.571   5.266  1.0664  0.0820 -1.3184
  108OSM   C13S11034   6.889   3.392   5.149 -0.3081  0.4333 -0.1091
  108OSM   H13S11035   6.937   3.292   5.161  0.1353  0.7596  0.9206
  108OSM   H13T11036   6.917   3.438   5.052  1.7060 -1.7570 -0.6779
  108OSM   C14S11037   6.738   3.381   5.179  0.1353 -0.2174 -0.1704
  108OSM   H14S11038   6.704   3.486   5.190  0.8296 -0.0895  0.9529
  108OSM   H14T11039   6.717   3.332   5.276  0.5080  1.0536  0.5729
  108OSM   C15S11040   6.658   3.322   5.056  0.9540 -0.1077  0.0137
  108OSM   H15S11041   6.675   3.394   4.973 -1.3656  0.1000 -0.3451
  108OSM   H15T11042   6.550   3.322   5.082  0.8540  1.6345 -0.2744
  108OSM   C16S11043   6.704   3.175   5.018  0.2984  0.0859 -0.4901
  108OSM   H16S11044   6.698   3.112   5.109  1.2656 -0.7849 -1.0189
  108OSM   H16T11045   6.811   3.182   4.990  1.0134 -1.4658  1.5942
  108OSM   C17S11046   6.617   3.105   4.919 -1.1592 -0.3201  0.3897
  108OSM   H17S11047   6.516   3.093   4.964 -0.8035  1.4948  1.8000
  108OSM   H17T11048   6.642   2.998   4.905 -1.4886 -0.1975 -1.3601
  108OSM   C18S11049   6.610   3.162   4.779  0.3214  0.2578 -0.1440
  108OSM   H18S11050   6.715   3.179   4.748 -0.0401 -0.6397 -1.9643
  108OSM   H18T11051   6.560   3.262   4.769 -1.3206 -0.6208 -1.2102
  108OSM   H18U11052   6.571   3.087   4.707  1.7374 -1.5505  0.9133
  108OSM    C1F11053   7.190   3.027   6.275  0.5676 -0.1523  0.0304
  108OSM     OF11054   7.092   2.949   6.257 -0.0609  0.3247  0.3867
  108OSM    C2F11055   7.331   2.980   6.273  0.2263 -0.5496  0.7602
  108OSM    H2F11056   7.338   2.927   6.371  1.9866  0.0842  1.0078
  108OSM    H2G11057   7.394   3.071   6.273 -0.1310 -0.3001  0.9214
  108OSM    C3F11058   7.361   2.895   6.145 -0.2012 -0.0912  0.0532
  108OSM    H3F11059   7.282   2.818   6.134 -1.8719  1.6262 -0.7382
  108OSM    H3G11060   7.461   2.850   6.164 -0.9998 -1.6605  0.6860
  108OSM    C4F11061   7.351   2.987   6.020 -0.9025  0.1017  0.2022
  108OSM    H4F11062   7.427   3.063   6.049  2.7104 -2.8261 -0.7764
  108OSM    H4G11063   7.252   3.035   6.004 -1.6912 -1.0074  1.4533
  108OSM    C5F11064   7.400   2.933   5.882 -0.7201  1.0411  0.1033
  108OSM    H5F11065   7.329   2.851   5.860  0.8103  0.2029 -2.0155
  108OSM    H5G11066   7.495   2.879   5.902 -0.1500  1.6190 -0.9820
  108OSM    C6F11067   7.420   3.032   5.768 -0.2384  0.5900  0.2716
  108OSM    H6F11068   7.500   3.105   5.793  0.1858  0.3530 -0.3755
  108OSM    H6G11069   7.335   3.104   5.762 -0.1363  0.6171 -1.0539
  108OSM    C7F11070   7.441   2.966   5.628  0.5395 -0.5359  1.2245
  108OSM    H7F11071   7.357   2.895   5.612 -0.1477 -0.3208  3.5147
  108OSM    H7G11072   7.540   2.916   5.636  1.1648  0.9388  4.4099
  108OSM    C8F11073   7.432   3.065   5.514 -0.0631  0.0840 -0.1711
  108OSM    H8F11074   7.503   3.150   5.528 -0.2648 -0.0244  1.8519
  108OSM    H8G11075   7.332   3.113   5.512  1.1550  2.8112 -2.4926
  108OSM    C9F11076   7.448   2.999   5.371 -0.0823  0.4191 -1.0466
  108OSM    H9F11077   7.456   2.889   5.372  1.2461  0.4918 -1.2722
  108OSM   C10F11078   7.453   3.069   5.256 -0.4874 -0.6425 -0.1935
  108OSM   H10F11079   7.445   3.017   5.159 -3.2476 -1.0671  0.1637
  108OSM   C11F11080   7.436   3.226   5.248  0.5638 -0.4469  0.7303
  108OSM   H11F11081   7.514   3.260   5.176 -0.7225 -0.9087 -0.9451
  108OSM   H11G11082   7.446   3.276   5.347  1.0138  2.2493 -0.5744
  108OSM   C12F11083   7.302   3.261   5.186 -0.0445 -0.0553  0.2666
  108OSM   H12F11084   7.284   3.368   5.205 -0.2812  0.9427 -4.3294
  108OSM   H12G11085   7.223   3.191   5.221 -0.2377  0.6183  1.1965
  108OSM   C13F11086   7.301   3.263   5.029  0.5850  0.6916  0.8954
  108OSM   H13F11087   7.319   3.156   5.004  0.5595  0.2777  2.5096
  108OSM   H13G11088   7.385   3.320   4.984 -0.8722  1.4176 -1.0359
  108OSM   C14F11089   7.169   3.311   4.961 -0.0314 -0.1410  0.0533
  108OSM   H14F11090   7.155   3.420   4.978  0.8464  0.4057 -2.3274
  108OSM   H14G11091   7.080   3.256   4.997 -1.1546  1.1133 -0.6965
  108OSM   C15F11092   7.173   3.291   4.807  0.7421  0.5882 -0.5814
  108OSM   H15F11093   7.218   3.193   4.781 -0.0787  0.6764 -2.4904
  108OSM   H15G11094   7.233   3.375   4.766  1.4415  0.7977  0.7904
  108OSM   C16F11095   7.027   3.298   4.751  0.1641  0.1037  0.3553
  108OSM   H16F11096   6.970   3.384   4.791 -2.6889  0.3464 -3.6320
  108OSM   H16G11097   6.986   3.202   4.788  4.1521 -2.1454 -0.3818
  108OSM   C17F11098   7.024   3.308   4.601 -0.0499 -0.4021  0.5615
  108OSM   H17F11099   7.086   3.392   4.564 -0.5258 -0.4159 -0.2941
  108OSM   H17G11100   6.922   3.321   4.557  0.7640  0.8789 -1.0525
  108OSM   C18F11101   7.089   3.191   4.521  0.3569  0.1932 -0.1619
  108OSM   H18F11102   7.110   3.215   4.415 -0.0362 -0.6827 -0.4452
  108OSM   H18G11103   7.011   3.114   4.539  0.8619  0.4309  4.1015
  108OSM   H18H11104   7.185   3.163   4.569 -0.3357 -1.1781  0.4866
  109OSM      N11105   3.274   5.388   6.645 -0.1999 -0.5178  0.8153
  109OSM    C1511106   3.202   5.518   6.663 -0.3005  0.1640 -0.1201
  109OSM   H15A11107   3.117   5.525   6.596 -1.0544  1.6094  0.9186
  109OSM   H15B11108   3.268   5.601   6.646  0.8989 -0.0852  2.7766
  109OSM   H15C11109   3.168   5.521   6.766  0.4924 -1.1043  0.1986
  109OSM    C1411110   3.194   5.279   6.721 -0.0228 -0.4464  1.6663
  109OSM   H14A11111   3.243   5.183   6.711 -0.5905 -0.6220  0.3697
  109OSM   H14B11112   3.090   5.263   6.696 -0.2645  2.3739  0.5253
  109OSM   H14C11113   3.195   5.306   6.826 -0.4393  1.2387  1.2607
  109OSM    C1311114   3.279   5.350   6.499 -0.2993 -0.4572  0.8121
  109OSM   H13A11115   3.177   5.361   6.464 -0.9958 -2.6556  1.9832
  109OSM   H13B11116   3.321   5.253   6.481  0.0103 -0.6699  2.5029
  109OSM   H13C11117   3.329   5.428   6.443 -0.7599 -0.8085 -0.1128
  109OSM    C1211118   3.413   5.405   6.712  0.0609  0.1191  0.2582
  109OSM   H12A11119   3.464   5.479   6.653 -0.8218  0.2386 -0.3688
  109OSM   H12B11120   3.462   5.309   6.711  2.8150  1.4198 -0.8481
  109OSM    C1111121   3.421   5.462   6.858 -0.1741  0.7904  0.4636
  109OSM   H11A11122   3.511   5.422   6.909  0.9599  1.4616 -0.9410
  109OSM   H11B11123   3.331   5.421   6.908  0.7346 -0.6899  0.9327
  109OSM      P11124   3.552   5.689   6.849  0.3751 -0.4837 -0.3282
  109OSM    O1311125   3.527   5.823   6.914  0.5162 -0.3633 -0.6411
  109OSM    O1411126   3.674   5.624   6.902  0.3592 -0.0172 -0.4913
  109OSM    O1111127   3.573   5.710   6.690 -0.1044  0.0951 -0.3494
  109OSM    O1211128   3.424   5.604   6.846  0.1170  0.0872  0.1775
  109OSM    C1S11129   3.689   5.641   6.638  0.2384  0.7711  0.3004
  109OSM    H1S11130   3.678   5.533   6.662 -0.1447  0.5777 -0.6877
  109OSM    H1T11131   3.788   5.678   6.671  0.3571  0.9808 -0.2790
  109OSM     NF11132   3.818   5.587   6.448  0.6849  0.2363  0.5592
  109OSM    HNF11133   3.905   5.631   6.465  0.1650  2.1873 -1.3056
  109OSM    C2S11134   3.698   5.659   6.486 -0.1138  0.0415  0.2973
  109OSM    H2S11135   3.608   5.606   6.450  0.2763 -1.4294  1.3669
  109OSM    C3S11136   3.694   5.806   6.444  0.0592 -0.4414 -0.2145
  109OSM    H3S11137   3.773   5.867   6.493  0.0378 -1.1409  0.7144
  109OSM     O311138   3.570   5.874   6.477 -0.2644 -0.1906 -0.1069
  109OSM    HO311139   3.533   5.824   6.551  2.7885 -2.5578 -0.0012
  109OSM    C4S11140   3.730   5.822   6.299 -0.0994  0.1391 -0.6252
  109OSM    H4S11141   3.838   5.803   6.291 -0.5140 -2.6463 -0.7426
  109OSM    C5S11142   3.650   5.845   6.194  0.3936 -0.2702  0.4001
  109OSM    H5S11143   3.543   5.863   6.213  0.0424  0.3537 -1.8230
  109OSM    C6S11144   3.685   5.867   6.048 -0.4335  0.0619  1.2223
  109OSM    H6S11145   3.651   5.967   6.014  1.8651  0.9500  1.3367
  109OSM    H6T11146   3.627   5.795   5.987  1.0462 -0.5358  0.4721
  109OSM    C7S11147   3.833   5.864   6.004  0.2585  0.3941 -0.0798
  109OSM    H7S11148   3.871   5.760   6.005 -0.1933  0.2048  2.0824
  109OSM    H7T11149   3.894   5.918   6.080  3.4313 -2.4913 -0.3706
  109OSM    C8S11150   3.850   5.933   5.860  0.0267 -0.7792 -0.0360
  109OSM    H8S11151   3.951   5.979   5.857 -0.9373  1.4298 -2.1196
  109OSM    H8T11152   3.785   6.023   5.851  2.0095  0.9638  1.7576
  109OSM    C9S11153   3.849   5.832   5.735 -0.7466  0.8982  0.5665
  109OSM    H9S11154   3.918   5.751   5.764  1.6384  2.6569  0.1053
  109OSM    H9T11155   3.895   5.884   5.648  3.2495  0.1363  2.0187
  109OSM   C10S11156   3.705   5.779   5.706 -0.0853 -0.5491 -0.1831
  109OSM   H10S11157   3.666   5.711   5.784  0.0362  0.4171  0.7367
  109OSM   H10T11158   3.692   5.723   5.611 -2.1328  1.2645 -1.0548
  109OSM   C11S11159   3.607   5.893   5.689 -0.3163 -0.3717 -0.4809
  109OSM   H11S11160   3.661   5.959   5.618 -1.3280  2.2409  1.0091
  109OSM   H11T11161   3.597   5.961   5.777  1.2191  1.1912 -1.4491
  109OSM   C12S11162   3.469   5.844   5.648  0.5146 -0.0221 -0.0017
  109OSM   H12S11163   3.475   5.783   5.555  0.8916  0.3221 -0.2070
  109OSM   H12T11164   3.393   5.924   5.637  0.5520  0.1398  0.8791
  109OSM   C13S11165   3.399   5.760   5.764  0.7173 -0.6985 -0.0377
  109OSM   H13S11166   3.462   5.673   5.795 -1.0967 -2.1944 -0.3396
  109OSM   H13T11167   3.307   5.720   5.716 -0.1152  1.8889 -0.7409
  109OSM   C14S11168   3.352   5.847   5.878  0.1629  0.3686 -0.5363
  109OSM   H14S11169   3.282   5.927   5.845  0.2747  0.2805 -0.9844
  109OSM   H14T11170   3.439   5.902   5.921  1.3866 -1.0943 -1.0772
  109OSM   C15S11171   3.267   5.774   5.985  0.3522 -0.0376  0.4701
  109OSM   H15S11172   3.173   5.736   5.938  2.4319 -2.2106 -2.3139
  109OSM   H15T11173   3.239   5.848   6.063 -3.2676  0.9809 -1.5386
  109OSM   C16S11174   3.339   5.661   6.056  0.3464 -0.1946 -0.2054
  109OSM   H16S11175   3.442   5.692   6.083 -0.0996  1.6322 -0.4337
  109OSM   H16T11176   3.356   5.577   5.985  1.1706 -0.1295 -0.0970
  109OSM   C17S11177   3.262   5.614   6.179 -0.5362  0.7153 -0.0156
  109OSM   H17S11178   3.287   5.508   6.199 -1.7984  0.3211 -0.3920
  109OSM   H17T11179   3.154   5.622   6.153 -0.9580 -1.1619  0.9390
  109OSM   C18S11180   3.272   5.703   6.302  0.0265 -0.4313 -0.0458
  109OSM   H18S11181   3.221   5.658   6.390 -1.1738  0.4580 -0.2747
  109OSM   H18T11182   3.216   5.795   6.273 -1.9164 -1.9483 -1.3943
  109OSM   H18U11183   3.377   5.724   6.333  0.1727 -2.3236  0.8579
  109OSM    C1F11184   3.819   5.456   6.436 -0.3486 -0.6645  0.2866
  109OSM     OF11185   3.723   5.387   6.463 -0.4923  0.2950 -0.3587
  109OSM    C2F11186   3.958   5.403   6.410 -0.6314 -0.0315 -0.4546
  109OSM    H2F11187   3.986   5.335   6.493  0.2177  2.0945  1.0839
  109OSM    H2G11188   4.036   5.482   6.409 -1.3671  0.7599 -3.0815
  109OSM    C3F11189   3.973   5.334   6.276  0.6976  0.2912  0.5678
  109OSM    H3F11190   3.892   5.260   6.258  1.3516  0.2102 -2.7101
  109OSM    H3G11191   4.075   5.289   6.286  2.0458  3.2255  0.8960
  109OSM    C4F11192   3.951   5.429   6.159 -0.2701 -0.3293 -0.6608
  109OSM    H4F11193   3.996   5.530   6.173 -2.3702  0.5810  0.0810
  109OSM    H4G11194   3.842   5.452   6.165 -0.1545 -0.2136  2.7754
  109OSM    C5F11195   3.985   5.371   6.020  0.0178  1.3028  0.9734
  109OSM    H5F11196   3.905   5.297   6.001  1.5979  0.0358 -1.2431
  109OSM    H5G11197   4.087   5.328   6.019 -0.2258  0.6309 -1.0889
  109OSM    C6F11198   3.973   5.463   5.898 -0.9434 -0.6993  0.5905
  109OSM    H6F11199   4.050   5.543   5.906 -1.5696  0.0616 -0.7081
  109OSM    H6G11200   3.874   5.514   5.901 -1.2588 -1.2699  0.0291
  109OSM    C7F11201   3.978   5.401   5.758 -0.2795 -0.1056  0.0721
  109OSM    H7F11202   3.913   5.311   5.749 -0.1518 -0.3836  1.7585
  109OSM    H7G11203   4.082   5.364   5.746  0.5402  2.2446 -0.5634
  109OSM    C8F11204   3.938   5.505   5.658  0.0678  0.1913  0.3546
  109OSM    H8F11205   4.003   5.594   5.675  0.5481 -0.4202  1.9189
  109OSM    H8G11206   3.831   5.531   5.668  0.5337  1.8901  1.3770
  109OSM    C9F11207   3.959   5.441   5.522  0.5332  0.2735 -0.0469
  109OSM    H9F11208   4.050   5.381   5.515  1.9242  2.2948 -0.2627
  109OSM   C10F11209   3.875   5.445   5.413 -0.1063 -0.5454  0.0225
  109OSM   H10F11210   3.898   5.381   5.327  0.3148 -1.4426  0.7881
  109OSM   C11F11211   3.742   5.523   5.392 -0.3735 -0.5027  1.2662
  109OSM   H11F11212   3.712   5.558   5.493  0.3883 -2.1637  2.1064
  109OSM   H11G11213   3.661   5.462   5.348 -0.7723 -0.7998  2.3637
  109OSM   C12F11214   3.779   5.643   5.291 -0.3644  0.7727 -1.2796
  109OSM   H12F11215   3.780   5.600   5.189  0.6106 -1.7543 -0.2857
  109OSM   H12G11216   3.877   5.693   5.305  0.2537 -0.5746 -0.7174
  109OSM   C13F11217   3.665   5.741   5.289  0.4415 -0.5967 -0.8318
  109OSM   H13F11218   3.651   5.779   5.393  0.3806 -1.1647 -0.6294
  109OSM   H13G11219   3.570   5.688   5.267  0.3614 -1.5493  1.4544
  109OSM   C14F11220   3.686   5.857   5.183  0.6182 -0.0063 -0.3996
  109OSM   H14F11221   3.795   5.866   5.166  0.6059  0.1027 -0.4232
  109OSM   H14G11222   3.661   5.955   5.229  1.6282 -0.3010  0.8342
  109OSM   C15F11223   3.622   5.840   5.044  0.6132 -0.2975 -0.4051
  109OSM   H15F11224   3.636   5.939   4.995 -2.0949  0.3872  0.0112
  109OSM   H15G11225   3.514   5.818   5.057  0.1510  2.7610  2.2231
  109OSM   C16F11226   3.684   5.726   4.964  0.5360  0.0417  0.0736
  109OSM   H16F11227   3.649   5.632   5.013  0.2416 -0.3353 -0.8257
  109OSM   H16G11228   3.795   5.725   4.960  0.6576  3.0938  0.8915
  109OSM   C17F11229   3.648   5.730   4.815 -0.0246  0.6163 -0.0293
  109OSM   H17F11230   3.540   5.715   4.795 -0.0518  0.6259  0.1062
  109OSM   H17G11231   3.698   5.645   4.763 -0.3461  0.9748 -0.9425
  109OSM   C18F11232   3.691   5.856   4.744 -0.2404 -0.4844 -0.7742
  109OSM   H18F11233   3.699   5.836   4.635  0.8602 -1.7726 -0.4899
  109OSM   H18G11234   3.782   5.899   4.791  0.7705 -2.7131 -0.5540
  109OSM   H18H11235   3.611   5.932   4.755 -2.2531 -2.5481 -0.4726
  110OSM      N11236   5.449   0.630   6.676 -0.0104  0.2133  0.5017
  110OSM    C1511237   5.573   0.642   6.588  0.4493 -0.1966  0.2523
  110OSM   H15A11238   5.575   0.584   6.497 -1.3478  0.0066  0.0517
  110OSM   H15B11239   5.663   0.633   6.648  1.7595  2.9068 -1.0350
  110OSM   H15C11240   5.585   0.739   6.543  0.3717  0.4794  1.6219
  110OSM    C1411241   5.447   0.484   6.723 -0.3576  0.3457  0.5798
  110OSM   H14A11242   5.552   0.460   6.724 -0.4959 -0.4030 -0.9684
  110OSM   H14B11243   5.411   0.414   6.650 -0.4926  1.5032 -0.4856
  110OSM   H14C11244   5.400   0.468   6.819 -0.2902  1.8360  0.8844
  110OSM    C1311245   5.467   0.709   6.800 -0.5957 -0.3279 -0.2236
  110OSM   H13A11246   5.554   0.688   6.861 -1.5527  1.7778  2.0556
  110OSM   H13B11247   5.382   0.695   6.866 -0.9630 -1.2862 -0.8731
  110OSM   H13C11248   5.481   0.810   6.767 -0.0837 -0.5672 -0.7538
  110OSM    C1211249   5.319   0.662   6.599 -0.2494  0.1198 -0.1252
  110OSM   H12A11250   5.229   0.649   6.658 -0.4578  0.6772 -0.3088
  110OSM   H12B11251   5.307   0.591   6.519  0.0138  0.8664 -0.8470
  110OSM    C1111252   5.310   0.798   6.530 -0.2083  0.4819 -0.1909
  110OSM   H11A11253   5.240   0.780   6.445 -0.7915  0.2897  0.3253
  110OSM   H11B11254   5.408   0.819   6.483 -0.7291  0.2035 -1.4708
  110OSM      P11255   5.107   0.915   6.637 -0.5606 -0.6012  0.1849
  110OSM    O1311256   5.045   0.789   6.612  0.6480 -0.0827 -0.0364
  110OSM    O1411257   5.088   0.971   6.773 -0.0744  0.3814  0.9277
  110OSM    O1111258   5.065   1.019   6.522  0.1350 -0.3227  0.5305
  110OSM    O1211259   5.264   0.898   6.621  0.7299 -0.0344 -0.1361
  110OSM    C1S11260   5.165   1.109   6.469 -0.5421  0.0805  0.0081
  110OSM    H1S11261   5.247   1.123   6.543 -2.4901 -0.1664  2.3440
  110OSM    H1T11262   5.122   1.212   6.476 -1.4959 -0.2491 -0.7419
  110OSM     NF11263   5.327   1.203   6.303  0.1492 -0.7325  0.6946
  110OSM    HNF11264   5.300   1.290   6.264 -0.5044 -1.6594 -1.0246
  110OSM    C2S11265   5.226   1.105   6.324  0.2637  0.1861 -0.3605
  110OSM    H2S11266   5.283   1.009   6.325 -0.6190 -0.3622  0.7784
  110OSM    C3S11267   5.111   1.114   6.229  0.2562 -0.9339  0.2555
  110OSM    H3S11268   5.086   1.222   6.234  2.6575 -0.2511 -1.2856
  110OSM     O311269   4.992   1.048   6.272  0.0150  0.1778  0.0025
  110OSM    HO311270   4.996   1.034   6.367 -0.9951 -2.6819 -0.2601
  110OSM    C4S11271   5.147   1.076   6.092  0.6533  0.2532 -0.1010
  110OSM    H4S11272   5.191   0.975   6.086  2.0127  0.8675 -1.3476
  110OSM    C5S11273   5.114   1.143   5.982  0.0971  0.3090  1.0138
  110OSM    H5S11274   5.056   1.236   5.993  2.4425  2.2801 -1.7106
  110OSM    C6S11275   5.141   1.084   5.846 -0.2890  0.8086  0.4229
  110OSM    H6S11276   5.225   1.012   5.854 -0.8218 -0.0318 -1.1141
  110OSM    H6T11277   5.177   1.171   5.786 -0.4450 -0.0400 -0.9244
  110OSM    C7S11278   5.017   1.016   5.787  0.5004  0.7692 -0.2893
  110OSM    H7S11279   4.942   1.097   5.770 -0.7547 -0.3147 -0.0341
  110OSM    H7T11280   4.981   0.950   5.869  0.0541  0.4159 -0.7639
  110OSM    C8S11281   5.052   0.935   5.667  0.0471 -0.0845 -0.5942
  110OSM    H8S11282   4.967   0.868   5.639 -0.8713  0.1942  1.3390
  110OSM    H8T11283   5.139   0.871   5.692  0.7565  0.3125 -1.9374
  110OSM    C9S11284   5.080   1.031   5.553 -0.1298 -0.1038  0.3570
  110OSM    H9S11285   5.173   1.091   5.571 -0.4117  0.3677  0.2653
  110OSM    H9T11286   5.005   1.113   5.547  0.7826  0.6695 -1.2162
  110OSM   C10S11287   5.076   0.966   5.416  0.9059 -0.6577 -0.8945
  110OSM   H10S11288   4.995   0.890   5.419  0.3011 -0.0315  2.7064
  110OSM   H10T11289   5.163   0.901   5.393  0.3838 -2.0613  0.8908
  110OSM   C11S11290   5.061   1.060   5.290  1.2413 -0.1856 -0.3235
  110OSM   H11S11291   5.117   1.153   5.315  0.4022 -0.0580  1.1473
  110OSM   H11T11292   4.955   1.090   5.307  0.8284 -0.9673 -1.3862
  110OSM   C12S11293   5.061   1.001   5.153  0.4274 -0.1283  0.0472
  110OSM   H12S11294   4.992   0.913   5.156  0.5893 -0.3366 -1.3468
  110OSM   H12T11295   5.169   0.983   5.132 -0.4360 -2.4439 -3.3995
  110OSM   C13S11296   5.036   1.102   5.038 -0.7862 -0.8228  0.3740
  110OSM   H13S11297   5.127   1.163   5.020 -1.1773  1.0753  3.9412
  110OSM   H13T11298   4.964   1.178   5.075  0.2956  1.0216 -1.0877
  110OSM   C14S11299   4.980   1.034   4.915 -0.1909  0.4691 -0.0396
  110OSM   H14S11300   4.896   0.971   4.951 -0.2584  1.1282  0.9836
  110OSM   H14T11301   5.055   0.972   4.862 -0.5916 -1.0111  1.0709
  110OSM   C15S11302   4.919   1.135   4.815  0.3928  0.2895 -0.9467
  110OSM   H15S11303   4.854   1.199   4.877 -0.6067  1.2359 -2.8847
  110OSM   H15T11304   4.856   1.077   4.745  1.6110 -0.4231 -1.4868
  110OSM   C16S11305   5.016   1.231   4.751  0.1380 -0.2247  0.6456
  110OSM   H16S11306   5.086   1.188   4.676 -1.4196  0.8542 -1.5272
  110OSM   H16T11307   5.077   1.261   4.840  1.6786 -2.3544  0.3848
  110OSM   C17S11308   4.940   1.348   4.675 -0.5042 -0.2527  0.0470
  110OSM   H17S11309   5.025   1.404   4.630  0.1386  0.1303  1.6307
  110OSM   H17T11310   4.879   1.409   4.745  1.3877  0.6041  1.0412
  110OSM   C18S11311   4.849   1.300   4.562 -0.6557  0.7991  0.4041
  110OSM   H18S11312   4.768   1.240   4.608  0.4148 -0.3916  0.7968
  110OSM   H18T11313   4.916   1.241   4.496 -0.6541  0.6992  0.4952
  110OSM   H18U11314   4.822   1.391   4.504  0.9804  0.3383 -1.1618
  110OSM    C1F11315   5.454   1.187   6.337  0.0367  0.1380 -0.4629
  110OSM     OF11316   5.490   1.096   6.410  0.1874  0.2454  0.4086
  110OSM    C2F11317   5.569   1.278   6.295  0.4173  0.0466 -0.1505
  110OSM    H2F11318   5.643   1.267   6.377 -0.8235 -1.5717  0.7937
  110OSM    H2G11319   5.541   1.385   6.282 -0.4327 -0.1844 -0.3242
  110OSM    C3F11320   5.631   1.224   6.162 -0.2404 -0.3387 -0.3779
  110OSM    H3F11321   5.665   1.118   6.170  0.4149 -0.0379  1.2280
  110OSM    H3G11322   5.727   1.273   6.135  0.3000 -0.6818  0.8195
  110OSM    C4F11323   5.522   1.218   6.044 -0.0478 -0.7180 -0.3957
  110OSM    H4F11324   5.467   1.315   6.041 -1.3659 -1.2253  3.0694
  110OSM    H4G11325   5.438   1.147   6.065 -0.7028  0.7989  2.5804
  110OSM    C5F11326   5.606   1.206   5.917 -0.1886  0.3072 -0.0717
  110OSM    H5F11327   5.654   1.106   5.926 -1.3594 -0.1835  1.1448
  110OSM    H5G11328   5.688   1.281   5.917 -0.2732  0.4012 -0.4846
  110OSM    C6F11329   5.515   1.218   5.799 -0.0898  0.0930  0.1817
  110OSM    H6F11330   5.469   1.319   5.811 -0.0516 -0.0686  1.9952
  110OSM    H6G11331   5.443   1.134   5.803  0.8986 -0.7442  0.8828
  110OSM    C7F11332   5.584   1.232   5.660 -0.1439  0.2523 -0.9124
  110OSM    H7F11333   5.654   1.147   5.647 -1.1692 -0.5329 -1.4446
  110OSM    H7G11334   5.646   1.324   5.671  0.4696 -0.1174 -1.2814
  110OSM    C8F11335   5.498   1.242   5.526 -0.9929  0.8505  0.6016
  110OSM    H8F11336   5.445   1.336   5.498 -1.4041  0.3407 -0.3931
  110OSM    H8G11337   5.408   1.182   5.549 -0.8672  0.6671  0.6175
  110OSM    C9F11338   5.567   1.169   5.405  0.3783 -0.2331  0.0604
  110OSM    H9F11339   5.601   1.071   5.442  0.1393  0.5161  2.4980
  110OSM   C10F11340   5.577   1.215   5.278 -0.2170 -0.0598 -0.2057
  110OSM   H10F11341   5.633   1.159   5.202  1.0471  0.9837 -0.0698
  110OSM   C11F11342   5.543   1.364   5.238 -0.5969 -0.1675  0.4457
  110OSM   H11F11343   5.634   1.408   5.191 -1.3717  0.7282 -0.2561
  110OSM   H11G11344   5.515   1.425   5.326 -0.9263  0.2164  0.0794
  110OSM   C12F11345   5.439   1.365   5.130 -0.3707 -0.8625  0.7137
  110OSM   H12F11346   5.399   1.468   5.120 -0.4567 -0.8171  1.4727
  110OSM   H12G11347   5.347   1.304   5.145 -1.3239 -0.4634 -2.7737
  110OSM   C13F11348   5.502   1.332   4.990  0.0314 -0.2172  0.1809
  110OSM   H13F11349   5.534   1.227   5.002 -0.3562 -0.1476  2.1232
  110OSM   H13G11350   5.592   1.398   4.981 -0.0581 -0.1481 -0.2217
  110OSM   C14F11351   5.411   1.347   4.861  0.6474  0.0500 -0.0456
  110OSM   H14F11352   5.382   1.454   4.854 -1.1454 -0.4873 -2.0212
  110OSM   H14G11353   5.317   1.293   4.886  0.7063  0.5778  1.4438
  110OSM   C15F11354   5.482   1.285   4.743 -0.0442  0.6260  0.8163
  110OSM   H15F11355   5.415   1.294   4.656 -0.9321 -0.8078  1.3195
  110OSM   H15G11356   5.503   1.176   4.750 -0.3098  0.3462 -1.7701
  110OSM   C16F11357   5.615   1.356   4.719 -0.5392  0.1999 -0.9687
  110OSM   H16F11358   5.683   1.362   4.807  0.8522  4.0747 -2.0831
  110OSM   H16G11359   5.583   1.460   4.694 -1.5643  0.1241 -0.0289
  110OSM   C17F11360   5.703   1.295   4.606 -0.7907 -0.4653 -0.8074
  110OSM   H17F11361   5.658   1.301   4.504  0.2812 -1.7568 -1.3888
  110OSM   H17G11362   5.707   1.186   4.626 -2.1853 -0.0162  2.6131
  110OSM   C18F11363   5.844   1.350   4.602 -0.2105 -0.1192  0.7093
  110OSM   H18F11364   5.909   1.326   4.688  3.4820  0.5847 -1.6555
  110OSM   H18G11365   5.840   1.460   4.612  1.4957  0.0128  0.1808
  110OSM   H18H11366   5.902   1.331   4.509  0.3971  0.2622  1.0050
  111OSM      N11367   6.869   1.183   6.762  0.1434 -0.2072 -0.4794
  111OSM    C1511368   6.772   1.299   6.775 -0.5627 -0.4570 -0.7248
  111OSM   H15A11369   6.727   1.299   6.873  1.6509 -1.5899  0.3640
  111OSM   H15B11370   6.691   1.288   6.705 -0.2177  0.4467 -1.2889
  111OSM   H15C11371   6.815   1.397   6.758  0.5651 -1.2795 -3.1451
  111OSM    C1411372   6.972   1.191   6.869  0.0063  1.1112  0.2947
  111OSM   H14A11373   7.047   1.257   6.827  3.0538 -1.3437  1.4294
  111OSM   H14B11374   7.022   1.095   6.868 -1.5097  0.2776 -1.7103
  111OSM   H14C11375   6.944   1.202   6.973  0.4713  0.8178  0.4565
  111OSM    C1311376   6.785   1.058   6.790  0.5126  0.4894 -0.5985
  111OSM   H13A11377   6.747   1.063   6.891  1.9879 -1.2730  0.1256
  111OSM   H13B11378   6.851   0.972   6.794 -2.0805 -1.7096 -1.7540
  111OSM   H13C11379   6.700   1.048   6.724  0.2880  1.9302 -0.5558
  111OSM    C1211380   6.934   1.183   6.620 -0.1670 -0.1635  0.1518
  111OSM   H12A11381   6.859   1.160   6.546  0.0183 -1.2154  0.2800
  111OSM   H12B11382   7.006   1.104   6.607  2.3274  1.7187  1.5890
  111OSM    C1111383   7.009   1.308   6.564  0.2765  0.1929  0.4897
  111OSM   H11A11384   6.949   1.398   6.591 -0.9678 -0.1712 -0.9226
  111OSM   H11B11385   7.009   1.288   6.455  0.2079  0.0038  0.5237
  111OSM      P11386   7.253   1.219   6.573  0.0336 -0.3776  0.2703
  111OSM    O1311387   7.378   1.282   6.614 -0.6204 -0.2084 -0.2976
  111OSM    O1411388   7.223   1.089   6.632  0.3973 -0.5651  0.0681
  111OSM    O1111389   7.243   1.218   6.408 -0.0021  0.0425 -0.1635
  111OSM    O1211390   7.143   1.317   6.616  0.5801 -0.2542 -0.4576
  111OSM    C1S11391   7.277   1.337   6.333 -0.0730  0.7670 -0.4503
  111OSM    H1S11392   7.374   1.364   6.379 -0.1397 -2.6136  2.1480
  111OSM    H1T11393   7.206   1.416   6.363 -1.0559 -0.8696  1.9099
  111OSM     NF11394   7.358   1.424   6.127  0.0150  0.0789 -0.2622
  111OSM    HNF11395   7.314   1.507   6.094  2.4700  0.1397 -4.0407
  111OSM    C2S11396   7.279   1.315   6.179  1.0722 -0.5633  0.1036
  111OSM    H2S11397   7.329   1.219   6.153  3.6836  0.0580  2.3500
  111OSM    C3S11398   7.131   1.302   6.130 -0.8286 -0.2625  0.5878
  111OSM    H3S11399   7.079   1.390   6.175  2.3144  2.3553 -0.5110
  111OSM     O311400   7.076   1.176   6.166  0.1980 -0.2993  0.2263
  111OSM    HO311401   7.128   1.146   6.241 -0.8960 -0.5185  0.9142
  111OSM    C4S11402   7.126   1.325   5.985  0.0027 -0.4319 -0.7290
  111OSM    H4S11403   7.069   1.418   5.973 -0.4316 -0.9781 -3.9547
  111OSM    C5S11404   7.149   1.249   5.873 -0.6022  0.4577 -0.6418
  111OSM    H5S11405   7.203   1.153   5.883 -1.5681  0.0144  0.5669
  111OSM    C6S11406   7.101   1.276   5.734  0.4265  0.0313  0.0561
  111OSM    H6S11407   6.998   1.314   5.746 -0.4781 -2.4223  0.5101
  111OSM    H6T11408   7.102   1.182   5.674 -0.1596 -0.5714  0.9741
  111OSM    C7S11409   7.180   1.394   5.671  0.0382 -0.2506 -0.1415
  111OSM    H7S11410   7.287   1.365   5.663 -0.5147 -2.0711 -1.9090
  111OSM    H7T11411   7.156   1.485   5.730  0.3071  1.0805 -1.9917
  111OSM    C8S11412   7.130   1.424   5.529 -0.0126  0.3905  0.6604
  111OSM    H8S11413   7.025   1.462   5.528 -0.3626 -0.5009 -1.3760
  111OSM    H8T11414   7.113   1.328   5.477  1.5093  0.1115  0.6392
  111OSM    C9S11415   7.230   1.507   5.441 -0.1789 -0.6703 -0.2081
  111OSM    H9S11416   7.325   1.452   5.426  1.2874  1.5379  0.4359
  111OSM    H9T11417   7.257   1.603   5.489 -0.5860 -1.3914  1.5187
  111OSM   C10S11418   7.178   1.553   5.298  0.2217 -0.3565 -0.2154
  111OSM   H10S11419   7.085   1.615   5.300  0.4081 -0.0857  0.0956
  111OSM   H10T11420   7.145   1.466   5.238  0.0613  0.4032 -1.2717
  111OSM   C11S11421   7.289   1.631   5.225  0.7363  0.0691 -0.3532
  111OSM   H11S11422   7.329   1.706   5.296  0.2058 -0.4888  0.5519
  111OSM   H11T11423   7.234   1.685   5.145  1.9755  0.2544 -1.1036
  111OSM   C12S11424   7.403   1.553   5.176 -0.7666  0.3607 -0.0012
  111OSM   H12S11425   7.426   1.462   5.236  0.5586 -1.6508 -3.2584
  111OSM   H12T11426   7.499   1.609   5.178  0.3718 -1.5238  1.6112
  111OSM   C13S11427   7.374   1.501   5.037  0.4516  0.3443 -0.2190
  111OSM   H13S11428   7.364   1.585   4.966  3.3770  0.6482 -0.4313
  111OSM   H13T11429   7.287   1.432   5.034 -0.6310  1.6608  0.0276
  111OSM   C14S11430   7.497   1.420   4.975 -0.1126 -0.1816 -0.4659
  111OSM   H14S11431   7.498   1.330   5.040 -1.5021 -1.2595 -1.8700
  111OSM   H14T11432   7.588   1.480   4.996 -1.0725  1.1331  0.0903
  111OSM   C15S11433   7.481   1.390   4.827  0.7571 -0.2199  0.3050
  111OSM   H15S11434   7.472   1.482   4.765 -0.0884 -0.8643 -0.5733
  111OSM   H15T11435   7.390   1.330   4.805  0.4243  0.5604 -0.5059
  111OSM   C16S11436   7.609   1.328   4.776 -0.0137 -0.1907 -0.7804
  111OSM   H16S11437   7.684   1.407   4.756  0.1634  0.4067  1.9365
  111OSM   H16T11438   7.597   1.292   4.671  0.3065 -0.7237 -0.6399
  111OSM   C17S11439   7.668   1.211   4.857 -0.4641 -0.7221 -0.2948
  111OSM   H17S11440   7.589   1.139   4.886  0.8303 -2.2342 -0.3598
  111OSM   H17T11441   7.712   1.253   4.950 -0.4680 -1.1881 -0.0789
  111OSM   C18S11442   7.780   1.138   4.776 -0.2555  0.3273  0.0636
  111OSM   H18S11443   7.753   1.078   4.687  2.2062 -1.2225  0.2874
  111OSM   H18T11444   7.830   1.070   4.847 -3.6918 -2.4646  0.0949
  111OSM   H18U11445   7.851   1.211   4.732  1.2060  0.0316  1.7993
  111OSM    C1F11446   7.493   1.429   6.154 -0.2099  0.1759  0.2506
  111OSM     OF11447   7.552   1.338   6.217 -0.1126  0.2967  0.6127
  111OSM    C2F11448   7.558   1.551   6.099 -0.4316 -0.0595 -0.2354
  111OSM    H2F11449   7.499   1.644   6.117  1.4762  1.1971 -0.1296
  111OSM    H2G11450   7.577   1.533   5.991  0.6994 -0.6381  0.0443
  111OSM    C3F11451   7.698   1.575   6.166  0.5404 -0.3055  0.3511
  111OSM    H3F11452   7.760   1.484   6.150 -0.0055 -0.7157  0.5573
  111OSM    H3G11453   7.686   1.584   6.276  1.0516  0.5878  0.3445
  111OSM    C4F11454   7.760   1.707   6.104 -0.0505 -0.3225  0.2661
  111OSM    H4F11455   7.852   1.735   6.160  0.0884  0.1024 -0.1684
  111OSM    H4G11456   7.680   1.784   6.115  0.2178  0.2991 -1.7084
  111OSM    C5F11457   7.802   1.714   5.955  0.1029 -0.1191 -0.2642
  111OSM    H5F11458   7.717   1.743   5.890  1.5977  0.0542 -2.2576
  111OSM    H5G11459   7.828   1.615   5.911 -0.3068  0.1674 -1.1644
  111OSM    C6F11460   7.898   1.823   5.926 -0.3500  0.0184  0.4357
  111OSM    H6F11461   7.993   1.821   5.983  0.6971 -1.9168 -1.2531
  111OSM    H6G11462   7.847   1.919   5.952 -0.1264  0.4773 -0.7675
  111OSM    C7F11463   7.900   1.846   5.770 -0.2247 -0.0033 -0.6527
  111OSM    H7F11464   7.792   1.859   5.745 -0.8311  0.9097  2.0267
  111OSM    H7G11465   7.945   1.752   5.733  2.0658  1.6245 -2.2877
  111OSM    C8F11466   7.984   1.976   5.746 -0.2670  1.1148 -0.1967
  111OSM    H8F11467   8.082   1.953   5.793 -0.5301 -0.2199 -0.2873
  111OSM    H8G11468   7.929   2.065   5.786 -1.2322  1.7853 -2.8363
  111OSM    C9F11469   8.012   1.995   5.597  0.6282  0.1086  0.0682
  111OSM    H9F11470   7.984   1.906   5.538 -0.4484  1.9457 -2.3996
  111OSM   C10F11471   8.048   2.106   5.539 -0.0100  0.1095  0.1819
  111OSM   H10F11472   8.077   2.100   5.434  0.3569  1.3410  0.1990
  111OSM   C11F11473   8.073   2.238   5.607  0.4158 -0.0606 -0.6370
  111OSM   H11F11474   8.183   2.248   5.595  0.4767 -0.4627 -0.4356
  111OSM   H11G11475   8.045   2.245   5.714 -2.0536  1.2795 -1.2872
  111OSM   C12F11476   8.008   2.355   5.543 -0.1334 -0.1303 -0.1060
  111OSM   H12F11477   8.037   2.450   5.592 -0.2059  0.2173 -0.7325
  111OSM   H12G11478   7.898   2.351   5.559 -0.1310 -0.3411 -0.1371
  111OSM   C13F11479   8.040   2.366   5.398 -0.3717  0.1159  0.3264
  111OSM   H13F11480   8.003   2.286   5.330 -0.2411 -0.1244  0.5381
  111OSM   H13G11481   8.150   2.367   5.384 -0.3941 -0.0760  0.1343
  111OSM   C14F11482   7.992   2.499   5.333 -0.2457 -0.0917  0.4280
  111OSM   H14F11483   8.037   2.584   5.388 -0.1192 -0.5367  1.0277
  111OSM   H14G11484   7.883   2.515   5.346 -0.4232 -1.5846  0.9861
  111OSM   C15F11485   8.020   2.512   5.186  0.1427  0.1261  0.0554
  111OSM   H15F11486   8.004   2.408   5.151 -1.0394  0.0750  0.7158
  111OSM   H15G11487   8.128   2.539   5.179  0.1255  0.6899  1.6231
  111OSM   C16F11488   7.938   2.619   5.106 -0.4070  0.1887  0.4017
  111OSM   H16F11489   7.988   2.707   5.152 -0.2232 -0.3123  1.1776
  111OSM   H16G11490   7.830   2.610   5.132 -1.4050  3.2804 -2.0604
  111OSM   C17F11491   7.958   2.610   4.954  0.1015 -0.0670 -0.8948
  111OSM   H17F11492   7.870   2.661   4.908  0.7083  1.1040 -0.7888
  111OSM   H17G11493   7.942   2.504   4.924 -1.2927 -1.0664  2.8113
  111OSM   C18F11494   8.091   2.672   4.906 -0.1368 -0.4448  0.7781
  111OSM   H18F11495   8.095   2.774   4.951  3.2824 -0.1386  0.0843
  111OSM   H18G11496   8.105   2.665   4.796  0.2475  1.0486  0.7055
  111OSM   H18H11497   8.171   2.603   4.941 -1.5738 -2.3233  0.4994
  112OSM      N11498   2.962   4.134   7.203 -0.0581 -0.0220  0.6391
  112OSM    C1511499   2.904   4.036   7.310  0.3653 -0.2020 -0.2610
  112OSM   H15A11500   2.975   4.034   7.391 -0.0913  0.2266  0.1579
  112OSM   H15B11501   2.878   3.937   7.274 -1.4231 -0.4768  1.5728
  112OSM   H15C11502   2.811   4.077   7.347  0.2534 -0.8840  0.2348
  112OSM    C1411503   2.960   4.272   7.262 -0.0143  0.6158 -0.3964
  112OSM   H14A11504   3.004   4.341   7.192  1.3529  0.3551  0.1871
  112OSM   H14B11505   3.015   4.270   7.354  0.7410  0.2064 -0.8459
  112OSM   H14C11506   2.860   4.313   7.272  0.0170  0.6050 -0.0371
  112OSM    C1311507   3.105   4.099   7.172 -0.1641 -0.1414  0.2052
  112OSM   H13A11508   3.155   4.176   7.116 -0.9235 -0.2888 -0.6874
  112OSM   H13B11509   3.112   4.002   7.125  1.5549  1.3020 -2.8727
  112OSM   H13C11510   3.155   4.089   7.267 -1.3841  0.3567  0.9242
  112OSM    C1211511   2.875   4.122   7.078 -0.2347  0.2509 -0.2681
  112OSM   H12A11512   2.775   4.131   7.116  0.2840  0.9299  1.0173
  112OSM   H12B11513   2.882   4.019   7.048 -0.3108  0.2200 -0.1765
  112OSM    C1111514   2.910   4.213   6.955  0.0302 -0.0093 -0.4974
  112OSM   H11A11515   2.848   4.183   6.868 -1.6326  0.2212  0.5549
  112OSM   H11B11516   3.013   4.203   6.916 -0.2973 -2.1395 -0.9397
  112OSM      P11517   2.764   4.429   7.010  0.2504 -0.1790  0.0349
  112OSM    O1311518   2.691   4.357   7.110  0.1130 -0.1804 -0.6043
  112OSM    O1411519   2.791   4.572   7.046 -0.7769  1.0800  0.3232
  112OSM    O1111520   2.691   4.419   6.870  0.7569 -0.3712 -0.0211
  112OSM    O1211521   2.896   4.351   6.994 -0.2541  0.5664  0.6951
  112OSM    C1S11522   2.763   4.463   6.756 -0.3961  0.3764 -0.7243
  112OSM    H1S11523   2.863   4.416   6.746  0.5373  2.3153 -0.9986
  112OSM    H1T11524   2.769   4.574   6.756 -0.5518  0.4440  2.2696
  112OSM     NF11525   2.771   4.475   6.509 -0.5959  0.4613 -0.4597
  112OSM    HNF11526   2.738   4.557   6.462 -0.3383 -0.5137 -2.4273
  112OSM    C2S11527   2.692   4.424   6.616  0.3325  1.0189 -0.0614
  112OSM    H2S11528   2.703   4.313   6.607 -0.2454  0.8295  1.3562
  112OSM    C3S11529   2.543   4.461   6.609  0.3541  0.7165  0.7715
  112OSM    H3S11530   2.535   4.563   6.565  0.6553 -0.5021 -2.3605
  112OSM     O311531   2.466   4.439   6.725  0.4183 -0.1826 -1.1243
  112OSM    HO311532   2.530   4.413   6.792  0.4494 -0.6980 -1.3488
  112OSM    C4S11533   2.491   4.379   6.488  0.3985 -0.0989 -1.0648
  112OSM    H4S11534   2.502   4.428   6.390  0.2670 -2.2208 -2.1859
  112OSM    C5S11535   2.434   4.259   6.500 -0.7139 -0.7303  0.0414
  112OSM    H5S11536   2.426   4.219   6.603 -0.6655 -1.6261 -0.2934
  112OSM    C6S11537   2.402   4.160   6.387  0.3676  0.3873  0.6761
  112OSM    H6S11538   2.299   4.119   6.385  1.1394 -1.6831 -1.3722
  112OSM    H6T11539   2.457   4.066   6.410  0.3783  0.8114  2.5012
  112OSM    C7S11540   2.424   4.216   6.242  0.2479 -0.3363 -0.0788
  112OSM    H7S11541   2.530   4.250   6.244  0.3820 -0.7836  1.5269
  112OSM    H7T11542   2.367   4.311   6.230 -0.3556 -0.2850  2.5792
  112OSM    C8S11543   2.398   4.109   6.134 -0.5742 -0.5824 -0.4864
  112OSM    H8S11544   2.300   4.063   6.157 -0.7771 -1.0570 -2.1773
  112OSM    H8T11545   2.472   4.029   6.157  1.2038  0.9733 -0.5670
  112OSM    C9S11546   2.405   4.164   5.992  0.0149  0.0845  0.6581
  112OSM    H9S11547   2.501   4.220   5.990 -0.6809  1.4223  2.6151
  112OSM    H9T11548   2.326   4.240   5.976  0.4049  0.7951  1.9995
  112OSM   C10S11549   2.396   4.056   5.889 -0.5585 -0.4556  0.4124
  112OSM   H10S11550   2.292   4.017   5.889 -1.0415  0.7359 -1.0961
  112OSM   H10T11551   2.475   3.982   5.916  0.7352  1.7198  3.0209
  112OSM   C11S11552   2.419   4.113   5.747  1.5246  0.0337  0.1602
  112OSM   H11S11553   2.508   4.180   5.751  0.9055  0.9710 -0.9107
  112OSM   H11T11554   2.325   4.167   5.723  0.9229 -0.9381  0.3035
  112OSM   C12S11555   2.436   4.013   5.636 -0.3640 -0.1881 -0.0883
  112OSM   H12S11556   2.367   3.932   5.667 -0.7836  0.2763  0.2071
  112OSM   H12T11557   2.540   3.976   5.629  0.1584  1.3555 -1.2511
  112OSM   C13S11558   2.395   4.067   5.495  0.3532 -0.7399  0.6961
  112OSM   H13S11559   2.439   4.169   5.494  0.7048 -0.8895  0.4823
  112OSM   H13T11560   2.286   4.084   5.494  0.8633  3.6318  0.2024
  112OSM   C14S11561   2.444   3.989   5.376  0.0120 -0.3037  0.0057
  112OSM   H14S11562   2.385   3.895   5.379 -1.6359  0.5064 -2.6153
  112OSM   H14T11563   2.552   3.972   5.392 -0.0948 -0.7119  0.2890
  112OSM   C15S11564   2.434   4.069   5.244  0.1504 -0.4392 -0.1152
  112OSM   H15S11565   2.524   4.133   5.231 -1.3347  1.7009 -0.3877
  112OSM   H15T11566   2.348   4.138   5.253  1.3392  1.1538 -0.4623
  112OSM   C16S11567   2.418   3.973   5.121 -0.0903 -0.0851  0.6686
  112OSM   H16S11568   2.318   3.924   5.122  0.5270 -1.6022 -1.9255
  112OSM   H16T11569   2.494   3.894   5.141  1.1272  0.6754 -0.7785
  112OSM   C17S11570   2.443   4.049   4.992 -0.0030 -0.7015  0.7088
  112OSM   H17S11571   2.533   4.113   4.988 -1.1123  0.8606 -0.8668
  112OSM   H17T11572   2.363   4.125   4.979  1.4895  1.2684  2.4123
  112OSM   C18S11573   2.445   3.970   4.852  0.5793 -0.1332  0.3558
  112OSM   H18S11574   2.533   3.903   4.861  1.1946  0.8229  1.5630
  112OSM   H18T11575   2.460   4.028   4.758 -2.2505 -1.2986 -0.9397
  112OSM   H18U11576   2.351   3.910   4.855  0.1517  0.5483  0.7566
  112OSM    C1F11577   2.891   4.428   6.478  0.1290  0.6463  0.4057
  112OSM     OF11578   2.939   4.328   6.533  0.5041 -0.5579  0.5130
  112OSM    C2F11579   2.966   4.494   6.367 -0.3651 -0.2293 -0.4388
  112OSM    H2F11580   2.964   4.604   6.382 -1.0637 -0.2661 -0.2339
  112OSM    H2G11581   2.918   4.460   6.272  1.6991  0.0086 -1.6337
  112OSM    C3F11582   3.115   4.447   6.362  0.4413 -0.5323 -0.0925
  112OSM    H3F11583   3.116   4.338   6.344 -2.6530 -0.4803 -1.0940
  112OSM    H3G11584   3.164   4.472   6.459  1.7481  0.1762 -0.9069
  112OSM    C4F11585   3.182   4.527   6.257 -0.3305  0.1750 -0.1875
  112OSM    H4F11586   3.289   4.514   6.286 -1.0539  0.2485  2.9576
  112OSM    H4G11587   3.153   4.634   6.255  1.7209  0.7585 -1.6363
  112OSM    C5F11588   3.158   4.469   6.117 -0.1415  0.9573  0.1543
  112OSM    H5F11589   3.050   4.450   6.099 -0.2622  1.8138 -0.1121
  112OSM    H5G11590   3.225   4.382   6.102  0.8833  1.2029  2.8596
  112OSM    C6F11591   3.191   4.568   6.003  0.4646  0.2529  0.4192
  112OSM    H6F11592   3.281   4.620   6.042  0.8478 -1.6797  2.2992
  112OSM    H6G11593   3.107   4.640   5.997 -1.5855 -2.0532 -1.0416
  112OSM    C7F11594   3.206   4.506   5.863  0.2079  0.1129  0.1253
  112OSM    H7F11595   3.126   4.429   5.860 -0.7778  1.1259 -0.3415
  112OSM    H7G11596   3.306   4.458   5.854 -0.0745 -0.0389 -3.6535
  112OSM    C8F11597   3.192   4.592   5.742 -0.4621 -0.1192  0.0853
  112OSM    H8F11598   3.239   4.687   5.777  0.3771 -0.4555 -0.0901
  112OSM    H8G11599   3.084   4.615   5.737 -0.5346 -0.5528 -0.4703
  112OSM    C9F11600   3.259   4.546   5.612  0.7017  0.0748  0.1378
  112OSM    H9F11601   3.357   4.498   5.624 -0.2997 -1.8580  1.0764
  112OSM   C10F11602   3.209   4.529   5.490 -0.0168 -0.5507 -0.2198
  112OSM   H10F11603   3.280   4.511   5.408  0.6142  0.4035  0.0998
  112OSM   C11F11604   3.070   4.575   5.450 -0.0291  0.3771  0.2685
  112OSM   H11F11605   2.997   4.556   5.531  0.5275 -0.5751  0.5657
  112OSM   H11G11606   3.027   4.507   5.374  2.3532  0.6951 -1.4973
  112OSM   C12F11607   3.082   4.723   5.414  0.0834  0.2727  0.0099
  112OSM   H12F11608   3.147   4.739   5.325 -2.1650 -0.9479 -1.9765
  112OSM   H12G11609   3.125   4.775   5.503  0.6425  0.4873 -0.3790
  112OSM   C13F11610   2.948   4.791   5.379 -0.1943 -0.4308 -0.4167
  112OSM   H13F11611   2.869   4.748   5.445 -0.6273 -0.4616 -0.9440
  112OSM   H13G11612   2.908   4.762   5.279 -3.0317  1.4169  0.0325
  112OSM   C14F11613   2.943   4.946   5.399 -0.0627  0.8210 -0.0134
  112OSM   H14F11614   2.964   4.966   5.507 -0.7612 -0.0226  0.2884
  112OSM   H14G11615   2.840   4.978   5.374 -0.0708  1.6810  1.0288
  112OSM   C15F11616   3.036   5.036   5.315  0.2567  0.3935 -0.0767
  112OSM   H15F11617   3.133   5.015   5.365 -0.2802 -1.9783  0.1379
  112OSM   H15G11618   3.003   5.138   5.342  2.2443  0.8238  0.8871
  112OSM   C16F11619   3.037   5.007   5.169  0.2482 -0.5690  0.8013
  112OSM   H16F11620   3.044   4.899   5.142 -1.3266 -0.5098  0.0603
  112OSM   H16G11621   3.127   5.054   5.125  0.9521 -2.6894 -0.1613
  112OSM   C17F11622   2.906   5.060   5.104 -0.0748  0.1664  0.2465
  112OSM   H17F11623   2.887   5.165   5.133 -1.6004  0.4212 -1.4916
  112OSM   H17G11624   2.818   5.004   5.142 -1.1863 -0.9217 -3.4695
  112OSM   C18F11625   2.917   5.049   4.950 -0.3400 -0.6199  0.8198
  112OSM   H18F11626   3.023   5.061   4.919 -1.0520 -0.9457 -2.0422
  112OSM   H18G11627   2.852   5.121   4.895  2.0741  0.3735 -0.8871
  112OSM   H18H11628   2.884   4.949   4.914 -1.4156  0.2768 -0.8489
  113OSM      N11629   6.640   5.693   6.984 -0.1073  0.4260 -0.0411
  113OSM    C1511630   6.599   5.833   6.965  0.4355 -0.1777  0.4049
  113OSM   H15A11631   6.559   5.871   7.058 -0.9763 -0.7738  0.0734
  113OSM   H15B11632   6.532   5.841   6.881 -0.1507  1.4434  0.9976
  113OSM   H15C11633   6.683   5.893   6.933  1.0663 -0.4648  1.4645
  113OSM    C1411634   6.735   5.692   7.100 -0.7666 -0.0638  0.3243
  113OSM   H14A11635   6.757   5.592   7.135 -1.5594 -0.0902  0.7637
  113OSM   H14B11636   6.690   5.751   7.178 -2.8414  0.2519 -1.0290
  113OSM   H14C11637   6.828   5.740   7.073 -0.5164 -0.7984 -0.1486
  113OSM    C1311638   6.518   5.611   7.026  0.0268  0.1846  0.6619
  113OSM   H13A11639   6.555   5.517   7.063 -0.0929 -0.9867 -1.9522
  113OSM   H13B11640   6.464   5.590   6.934 -0.5059 -0.7480  1.1697
  113OSM   H13C11641   6.451   5.664   7.092 -2.2960 -0.0682 -1.3314
  113OSM    C1211642   6.713   5.631   6.869  0.3371  0.4262  0.1712
  113OSM   H12A11643   6.745   5.532   6.898 -1.2566  0.2217  1.3797
  113OSM   H12B11644   6.804   5.684   6.846  0.0697 -0.4630 -3.5366
  113OSM    C1111645   6.632   5.614   6.743  0.1911  0.5036 -0.5335
  113OSM   H11A11646   6.706   5.585   6.665  0.6841  0.5159 -0.0773
  113OSM   H11B11647   6.592   5.713   6.712 -0.6806  0.1685 -0.5087
  113OSM      P11648   6.552   5.360   6.725 -0.0292  0.4389 -0.0702
  113OSM    O1311649   6.692   5.326   6.751 -0.4810  0.9311 -0.3526
  113OSM    O1411650   6.441   5.289   6.794  0.4929 -0.2283  0.1435
  113OSM    O1111651   6.532   5.342   6.572  0.3846  0.0654 -0.3662
  113OSM    O1211652   6.523   5.517   6.758 -0.0384 -0.2597 -0.1228
  113OSM    C1S11653   6.578   5.219   6.508  0.4905  0.0090 -0.3453
  113OSM    H1S11654   6.525   5.134   6.558  1.8836 -1.0080 -0.5356
  113OSM    H1T11655   6.684   5.204   6.536  0.0600 -1.3103  0.7151
  113OSM     NF11656   6.613   5.091   6.298  0.3162 -0.1763 -0.4590
  113OSM    HNF11657   6.706   5.089   6.262  1.1146  2.1463  1.2300
  113OSM    C2S11658   6.571   5.217   6.358 -0.6350 -0.1491  0.0011
  113OSM    H2S11659   6.465   5.235   6.328 -0.6916 -2.6592 -1.6120
  113OSM    C3S11660   6.644   5.344   6.304 -0.2048 -0.2214  0.4884
  113OSM    H3S11661   6.751   5.315   6.313 -0.1075  0.1618  0.5922
  113OSM     O311662   6.629   5.463   6.375  0.2672 -0.3049  0.3516
  113OSM    HO311663   6.585   5.436   6.456 -2.3503 -0.1837 -0.9335
  113OSM    C4S11664   6.607   5.368   6.164  0.4494  0.0362 -0.0433
  113OSM    H4S11665   6.504   5.339   6.138  0.1147  0.8024  0.3610
  113OSM    C5S11666   6.690   5.391   6.064  0.1863 -0.5946 -1.0477
  113OSM    H5S11667   6.795   5.406   6.092 -0.3851  1.8272  0.0132
  113OSM    C6S11668   6.665   5.408   5.918 -0.3321 -0.1744  0.0280
  113OSM    H6S11669   6.628   5.513   5.916  0.6356  0.1897  0.6786
  113OSM    H6T11670   6.581   5.340   5.890 -0.7034  0.3259 -0.0962
  113OSM    C7S11671   6.775   5.385   5.816  0.2888 -0.2528  0.4552
  113OSM    H7S11672   6.819   5.283   5.825  0.4540 -0.3442 -1.1518
  113OSM    H7T11673   6.853   5.454   5.853 -0.2076  0.0146  1.0200
  113OSM    C8S11674   6.739   5.400   5.669  0.3967  0.5443  0.9394
  113OSM    H8S11675   6.823   5.423   5.601 -1.7580  0.8006 -1.8325
  113OSM    H8T11676   6.658   5.476   5.665 -1.9126 -1.7707  1.0375
  113OSM    C9S11677   6.676   5.265   5.615 -0.3957 -0.1708 -0.0516
  113OSM    H9S11678   6.610   5.220   5.693  2.0347 -0.1062  2.1924
  113OSM    H9T11679   6.763   5.197   5.616  1.3132  1.8116 -2.3175
  113OSM   C10S11680   6.626   5.287   5.470 -0.1408  0.1053  0.2270
  113OSM   H10S11681   6.702   5.350   5.418 -0.9555  0.0493 -1.0756
  113OSM   H10T11682   6.535   5.351   5.473  0.2304  0.7097 -0.7248
  113OSM   C11S11683   6.600   5.154   5.390  0.2413  0.0836 -0.2457
  113OSM   H11S11684   6.532   5.085   5.444  0.7133 -1.9159 -2.0595
  113OSM   H11T11685   6.700   5.113   5.368  0.4471  0.6285 -0.3482
  113OSM   C12S11686   6.529   5.173   5.250  0.9165  0.6215  0.1509
  113OSM   H12S11687   6.561   5.270   5.207  0.0102  1.6356  1.6525
  113OSM   H12T11688   6.420   5.171   5.270  0.8158 -1.4531 -0.3586
  113OSM   C13S11689   6.550   5.039   5.174  0.3337  0.0546  0.8395
  113OSM   H13S11690   6.539   4.956   5.247  0.2231 -0.0719  0.6799
  113OSM   H13T11691   6.658   5.037   5.148  0.6508  0.8095  2.0601
  113OSM   C14S11692   6.468   5.056   5.042  1.0059 -0.0183  0.1756
  113OSM   H14S11693   6.522   5.134   4.984  0.2971 -1.0229 -1.9681
  113OSM   H14T11694   6.368   5.100   5.062  2.0366  1.4552  2.5359
  113OSM   C15S11695   6.461   4.927   4.959  0.3253  0.6301  0.5253
  113OSM   H15S11696   6.385   4.928   4.879  0.8887  0.2451 -0.0236
  113OSM   H15T11697   6.429   4.846   5.029 -0.6786  1.2930  0.8550
  113OSM   C16S11698   6.599   4.882   4.915 -0.0057  0.8447 -0.1877
  113OSM   H16S11699   6.568   4.795   4.854  0.1270  1.6142 -1.3940
  113OSM   H16T11700   6.654   4.842   5.003 -0.1427  2.1011  0.4960
  113OSM   C17S11701   6.684   4.983   4.837  0.1915  0.2378  0.1241
  113OSM   H17S11702   6.711   5.068   4.902  1.4989  1.9301 -2.4599
  113OSM   H17T11703   6.624   5.023   4.752 -2.4849 -2.1839  0.6867
  113OSM   C18S11704   6.808   4.920   4.783 -0.2438  0.1160  0.4408
  113OSM   H18S11705   6.789   4.843   4.706  0.9300  0.6068 -0.3724
  113OSM   H18T11706   6.860   4.874   4.869 -1.6656 -1.6327  0.4057
  113OSM   H18U11707   6.875   4.995   4.734 -0.3109 -0.4226 -0.4945
  113OSM    C1F11708   6.543   4.972   6.309 -0.4254  0.3382  0.4117
  113OSM     OF11709   6.444   4.967   6.377 -0.0369 -0.0932 -0.5049
  113OSM    C2F11710   6.596   4.847   6.238  0.3052 -0.2426 -0.1860
  113OSM    H2F11711   6.512   4.776   6.254 -0.6012  0.6962 -0.7409
  113OSM    H2G11712   6.685   4.818   6.298 -0.3742  0.5157  1.2333
  113OSM    C3F11713   6.644   4.868   6.092  0.5175 -0.7203  0.0052
  113OSM    H3F11714   6.696   4.966   6.081 -1.2016  0.1686 -0.6839
  113OSM    H3G11715   6.557   4.884   6.024 -1.8628  0.2233  3.0261
  113OSM    C4F11716   6.740   4.766   6.033 -0.2684 -0.4560 -0.2039
  113OSM    H4F11717   6.676   4.681   6.001  0.9428 -0.6974 -2.1841
  113OSM    H4G11718   6.820   4.733   6.103  0.5564  0.3435 -0.7417
  113OSM    C5F11719   6.802   4.827   5.906  0.0714 -0.2764 -0.4275
  113OSM    H5F11720   6.891   4.768   5.877 -0.7603 -0.9717 -1.6426
  113OSM    H5G11721   6.845   4.923   5.943 -1.1881  0.2039 -0.1580
  113OSM    C6F11722   6.705   4.835   5.789  0.2592 -1.1981  0.7487
  113OSM    H6F11723   6.617   4.900   5.811  1.2125 -0.2098  1.7480
  113OSM    H6G11724   6.649   4.740   5.780  1.1797 -1.9867  2.9033
  113OSM    C7F11725   6.770   4.863   5.649  0.0447  0.3048 -0.5071
  113OSM    H7F11726   6.858   4.799   5.628  2.1001  3.0106 -0.7797
  113OSM    H7G11727   6.813   4.966   5.644  0.6186  0.1476  0.8442
  113OSM    C8F11728   6.678   4.839   5.532 -0.0531  0.0023 -0.4014
  113OSM    H8F11729   6.716   4.886   5.439 -1.4178 -1.0174 -1.5031
  113OSM    H8G11730   6.585   4.890   5.563 -0.6156 -1.2941  0.1074
  113OSM    C9F11731   6.643   4.695   5.513  0.1759 -0.2667  0.9476
  113OSM    H9F11732   6.581   4.648   5.591 -0.6547  0.2090  0.5844
  113OSM   C10F11733   6.664   4.632   5.398  0.5992 -0.0646  0.5163
  113OSM   H10F11734   6.631   4.527   5.394 -0.6592  0.2378  1.8325
  113OSM   C11F11735   6.725   4.688   5.272  0.0691  0.1789 -0.6838
  113OSM   H11F11736   6.710   4.798   5.266  0.6895  0.2428 -1.0776
  113OSM   H11G11737   6.680   4.641   5.182 -1.6438  0.4521 -0.0053
  113OSM   C12F11738   6.872   4.680   5.275 -0.6738  0.8165  0.6389
  113OSM   H12F11739   6.896   4.575   5.302 -0.7631  0.2644 -1.2939
  113OSM   H12G11740   6.911   4.743   5.358 -3.0436  0.3598  2.1932
  113OSM   C13F11741   6.945   4.718   5.143 -0.0675  0.8610 -0.7820
  113OSM   H13F11742   6.918   4.821   5.112  0.2665  0.8357 -1.1594
  113OSM   H13G11743   6.905   4.646   5.068  0.8594 -2.4683  1.6634
  113OSM   C14F11744   7.099   4.697   5.153 -0.2337 -0.5660 -0.0720
  113OSM   H14F11745   7.121   4.604   5.208 -2.3268 -1.0868 -0.0415
  113OSM   H14G11746   7.132   4.775   5.225 -0.2175 -1.6445  1.1144
  113OSM   C15F11747   7.178   4.706   5.022 -0.9783  0.0365 -0.5793
  113OSM   H15F11748   7.280   4.691   5.064 -1.0439 -2.0218 -1.0290
  113OSM   H15G11749   7.175   4.806   4.973 -0.0769 -0.4642 -1.7066
  113OSM   C16F11750   7.165   4.596   4.919  0.0904 -0.2928 -0.4230
  113OSM   H16F11751   7.233   4.622   4.836 -0.4802  2.4905 -0.1225
  113OSM   H16G11752   7.063   4.614   4.878  0.1669  1.9185  0.2526
  113OSM   C17F11753   7.174   4.451   4.974  0.1201  0.1034  0.2559
  113OSM   H17F11754   7.094   4.424   5.047 -1.6365  0.7944 -1.3468
  113OSM   H17G11755   7.271   4.449   5.028  0.4581 -0.9908 -0.3482
  113OSM   C18F11756   7.181   4.341   4.861 -0.3238 -0.2247  0.1892
  113OSM   H18F11757   7.084   4.338   4.807 -0.2606  1.7502 -0.0987
  113OSM   H18G11758   7.205   4.249   4.918  0.4405 -0.0343  0.1937
  113OSM   H18H11759   7.260   4.364   4.786 -2.0421 -2.3348 -2.4706
  114OSM      N11760   0.643   4.844   7.023 -0.5601  0.1818 -0.3671
  114OSM    C1511761   0.794   4.861   7.020 -0.1618  0.0779 -0.5288
  114OSM   H15A11762   0.839   4.845   6.923  1.9432 -0.5338  0.4830
  114OSM   H15B11763   0.840   4.793   7.091  3.0264  1.1616 -1.3731
  114OSM   H15C11764   0.829   4.958   7.050  0.3202 -1.1360  3.3334
  114OSM    C1411765   0.592   4.817   7.166  0.0655 -0.3419  0.2004
  114OSM   H14A11766   0.619   4.891   7.240  0.3064 -0.4146  0.1878
  114OSM   H14B11767   0.628   4.720   7.199  1.1511  0.0047  0.0586
  114OSM   H14C11768   0.484   4.817   7.167  0.0520  0.9177  0.6641
  114OSM    C1311769   0.577   4.965   6.979  0.8335 -0.8776 -0.5449
  114OSM   H13A11770   0.473   4.946   6.958  1.4028 -2.4423 -2.2364
  114OSM   H13B11771   0.623   5.006   6.891  1.4497  0.2379  0.2659
  114OSM   H13C11772   0.575   5.035   7.061 -0.1703 -0.7674 -0.6516
  114OSM    C1211773   0.604   4.728   6.937 -0.2111  0.3280 -0.2801
  114OSM   H12A11774   0.660   4.644   6.977  1.1529  1.0133 -0.6949
  114OSM   H12B11775   0.642   4.749   6.838  0.9616  0.8990  0.2729
  114OSM    C1111776   0.456   4.688   6.932  0.6524 -0.0866  0.0942
  114OSM   H11A11777   0.443   4.626   6.841 -2.9602  1.1172 -0.3803
  114OSM   H11B11778   0.406   4.785   6.913  1.9652  0.8047  1.0578
  114OSM      P11779   0.440   4.478   7.090 -0.0642  0.2155 -0.6135
  114OSM    O1311780   0.581   4.476   7.139  0.3831 -0.4208 -0.6870
  114OSM    O1411781   0.335   4.429   7.184  0.1173 -0.5045 -0.1172
  114OSM    O1111782   0.432   4.410   6.948  0.0909 -0.4687 -0.4553
  114OSM    O1211783   0.403   4.625   7.051 -0.0019 -0.3840  0.0533
  114OSM    C1S11784   0.303   4.365   6.905  0.2038 -0.1569 -0.6480
  114OSM    H1S11785   0.224   4.443   6.912  0.4297  0.2914 -2.6283
  114OSM    H1T11786   0.268   4.280   6.968 -1.0109 -0.4800 -1.7347
  114OSM     NF11787   0.202   4.333   6.684  0.2830  0.6296  0.3502
  114OSM    HNF11788   0.149   4.249   6.673 -1.6236  1.9627 -1.0121
  114OSM    C2S11789   0.322   4.320   6.758 -0.1773  0.1017 -0.0736
  114OSM    H2S11790   0.394   4.398   6.725 -1.1943  1.3755  0.6484
  114OSM    C3S11791   0.397   4.184   6.774 -0.5981  0.0366 -0.1875
  114OSM    H3S11792   0.323   4.103   6.791  0.9776 -1.1157  1.4993
  114OSM     O311793   0.496   4.176   6.874 -0.0961  0.1974 -0.5667
  114OSM    HO311794   0.498   4.265   6.910  0.6903  0.3804 -1.0306
  114OSM    C4S11795   0.466   4.155   6.639  0.3908 -0.1163  0.1998
  114OSM    H4S11796   0.426   4.069   6.583  0.3007  0.5558 -0.8061
  114OSM    C5S11797   0.582   4.206   6.594  0.0374 -0.0236 -0.0675
  114OSM    H5S11798   0.630   4.285   6.654 -2.8719  2.1297 -0.3939
  114OSM    C6S11799   0.659   4.153   6.475 -0.3725 -0.5381 -0.0565
  114OSM    H6S11800   0.651   4.042   6.478 -0.0984 -0.6854 -2.4491
  114OSM    H6T11801   0.765   4.180   6.491 -0.3746 -0.8521  0.5304
  114OSM    C7S11802   0.622   4.232   6.346  0.7492 -0.1746 -0.6929
  114OSM    H7S11803   0.663   4.335   6.354 -1.8811  0.9522 -0.5904
  114OSM    H7T11804   0.512   4.225   6.330  0.6288 -0.1328  0.0770
  114OSM    C8S11805   0.695   4.161   6.231 -0.1110 -0.3460 -0.0730
  114OSM    H8S11806   0.646   4.062   6.215 -0.6025 -0.2943  1.0404
  114OSM    H8T11807   0.804   4.151   6.249 -0.1792 -1.2721 -0.1520
  114OSM    C9S11808   0.686   4.228   6.091 -0.4759 -0.4146  0.3844
  114OSM    H9S11809   0.708   4.336   6.100 -0.3165 -0.3874 -0.2855
  114OSM    H9T11810   0.579   4.218   6.063  0.0058 -0.5365 -1.5674
  114OSM   C10S11811   0.775   4.161   5.984  0.0678  0.8512 -0.0006
  114OSM   H10S11812   0.803   4.060   6.022  0.2462  1.4134  1.4329
  114OSM   H10T11813   0.876   4.206   5.992  1.0219 -0.7623 -2.1084
  114OSM   C11S11814   0.714   4.163   5.847 -0.9405  0.5911  0.0380
  114OSM   H11S11815   0.702   4.270   5.821  0.3426  1.1379  1.5811
  114OSM   H11T11816   0.615   4.116   5.828 -0.6060  0.5756 -1.8718
  114OSM   C12S11817   0.809   4.095   5.745 -0.1348 -0.1766 -0.3471
  114OSM   H12S11818   0.825   3.988   5.770 -0.5106 -0.7331 -2.3077
  114OSM   H12T11819   0.910   4.139   5.760 -0.1557 -0.2713  0.0976
  114OSM   C13S11820   0.758   4.123   5.605  0.2972 -0.7778 -0.2161
  114OSM   H13S11821   0.760   4.231   5.580 -0.3271 -0.4253  1.1661
  114OSM   H13T11822   0.650   4.097   5.605 -0.2548  1.3759 -0.7744
  114OSM   C14S11823   0.840   4.044   5.501 -0.4972  0.0268 -0.3906
  114OSM   H14S11824   0.834   3.937   5.530 -0.2939 -0.1856 -1.1365
  114OSM   H14T11825   0.947   4.072   5.504 -0.1977 -1.1372  2.1862
  114OSM   C15S11826   0.795   4.053   5.354  0.2463  0.4426  1.1318
  114OSM   H15S11827   0.797   4.155   5.310 -0.6863 -0.2060 -0.5107
  114OSM   H15T11828   0.687   4.032   5.340 -0.0625  1.8286  1.2890
  114OSM   C16S11829   0.865   3.964   5.249  0.2644  1.1248 -0.4471
  114OSM   H16S11830   0.845   3.857   5.271  1.1513  1.1217  0.4015
  114OSM   H16T11831   0.976   3.971   5.251  0.4291 -0.7365 -0.8526
  114OSM   C17S11832   0.820   4.000   5.106  0.3793 -0.1248  0.4912
  114OSM   H17S11833   0.840   4.108   5.092 -4.4509  1.3228  2.3901
  114OSM   H17T11834   0.709   3.996   5.106  0.1862  2.3149  2.6447
  114OSM   C18S11835   0.870   3.904   4.994 -0.0198 -0.3054  0.5289
  114OSM   H18S11836   0.857   3.801   5.032  3.0415 -0.7313  0.6670
  114OSM   H18T11837   0.979   3.913   4.974 -0.4734 -1.6421 -3.3829
  114OSM   H18U11838   0.819   3.916   4.896 -0.7029  1.1245  1.0233
  114OSM    C1F11839   0.144   4.449   6.654 -0.0617 -0.4379 -0.0712
  114OSM     OF11840   0.187   4.556   6.694  0.0982  0.3799 -0.4130
  114OSM    C2F11841   0.014   4.437   6.577 -0.2480 -0.0867 -0.4491
  114OSM    H2F11842  -0.071   4.418   6.645 -1.5785 -1.9802 -2.5060
  114OSM    H2G11843   0.018   4.344   6.517 -1.8398 -0.6364  0.2604
  114OSM    C3F11844  -0.011   4.557   6.475  0.1060 -0.4552 -0.3502
  114OSM    H3F11845   0.077   4.575   6.410 -0.5752  1.8162 -0.7474
  114OSM    H3G11846  -0.019   4.646   6.542  2.1830  0.0058 -0.6382
  114OSM    C4F11847  -0.134   4.533   6.383  0.5488  0.7035 -0.1295
  114OSM    H4F11848  -0.156   4.621   6.318  2.5129 -1.0438 -3.4361
  114OSM    H4G11849  -0.221   4.516   6.449  0.2191 -2.5774 -1.2670
  114OSM    C5F11850  -0.121   4.406   6.304 -0.3164 -0.4643  0.4054
  114OSM    H5F11851  -0.150   4.313   6.357  0.1136 -1.6494 -1.3399
  114OSM    H5G11852  -0.020   4.399   6.259 -0.4910  0.0989 -0.0995
  114OSM    C6F11853  -0.219   4.413   6.178  0.7463 -0.2348 -0.0440
  114OSM    H6F11854  -0.188   4.501   6.117  1.6968  1.5904  2.8777
  114OSM    H6G11855  -0.325   4.428   6.209  1.4516  0.6510  2.1128
  114OSM    C7F11856  -0.214   4.293   6.075 -0.3272 -0.1307  0.3935
  114OSM    H7F11857  -0.240   4.198   6.127 -0.8143 -1.7143 -2.5411
  114OSM    H7G11858  -0.108   4.273   6.052 -0.6313 -0.8758 -0.3844
  114OSM    C8F11859  -0.299   4.303   5.944  0.3330 -0.6158  0.6096
  114OSM    H8F11860  -0.394   4.352   5.974  0.1554 -0.0078 -0.8765
  114OSM    H8G11861  -0.316   4.203   5.899  0.4106  0.5655 -2.2572
  114OSM    C9F11862  -0.225   4.394   5.846  0.1252 -0.6543  0.6099
  114OSM    H9F11863  -0.171   4.479   5.890  0.6080 -1.2096  1.1260
  114OSM   C10F11864  -0.208   4.368   5.709 -0.2337 -0.6577 -0.6091
  114OSM   H10F11865  -0.149   4.443   5.654  0.7840 -1.7848 -1.0942
  114OSM   C11F11866  -0.271   4.254   5.635  0.2926 -0.2393  0.3300
  114OSM   H11F11867  -0.366   4.221   5.681 -0.7185 -0.3130 -1.7078
  114OSM   H11G11868  -0.194   4.175   5.650  0.0755 -0.4973  0.0921
  114OSM   C12F11869  -0.299   4.279   5.484  0.6477  0.4165  0.1987
  114OSM   H12F11870  -0.209   4.329   5.442  1.3428 -1.0921 -0.1526
  114OSM   H12G11871  -0.382   4.353   5.476  0.9621  0.8387  0.7697
  114OSM   C13F11872  -0.332   4.156   5.402  0.5753 -0.3242  0.4269
  114OSM   H13F11873  -0.421   4.106   5.448 -1.8281  3.5649  0.4338
  114OSM   H13G11874  -0.249   4.082   5.402  0.4796 -0.4343  0.4976
  114OSM   C14F11875  -0.365   4.190   5.251  0.0165  0.2685  0.2691
  114OSM   H14F11876  -0.452   4.258   5.241 -1.0363 -1.1081 -0.2466
  114OSM   H14G11877  -0.392   4.092   5.207 -3.3149  1.9676 -1.8836
  114OSM   C15F11878  -0.243   4.244   5.169 -0.4598  0.2253 -0.2149
  114OSM   H15F11879  -0.151   4.188   5.198 -0.3494 -0.3638 -1.6001
  114OSM   H15G11880  -0.231   4.353   5.185 -2.8537  0.1844  2.7274
  114OSM   C16F11881  -0.260   4.209   5.017  1.1076 -0.0916 -0.3781
  114OSM   H16F11882  -0.358   4.251   4.985 -0.2356 -1.2570  1.9064
  114OSM   H16G11883  -0.279   4.101   5.003 -2.5650  0.5536 -1.5890
  114OSM   C17F11884  -0.153   4.270   4.925 -0.0592  0.0932 -0.6529
  114OSM   H17F11885  -0.180   4.244   4.820 -0.0413  0.9104 -0.8605
  114OSM   H17G11886  -0.048   4.235   4.934  0.0803  0.2587 -1.6079
  114OSM   C18F11887  -0.151   4.424   4.929  0.3235  0.1809  0.3683
  114OSM   H18F11888  -0.110   4.462   5.025  0.8536 -0.2495  0.3127
  114OSM   H18G11889  -0.253   4.463   4.909  0.0775 -0.9994 -0.8012
  114OSM   H18H11890  -0.083   4.463   4.851  2.5690  0.2980  2.2932
  115OSM      N11891   5.038   6.111   6.839  0.1713 -0.1840 -0.2475
  115OSM    C1511892   5.153   6.104   6.932  0.4800 -0.3112 -0.5248
  115OSM   H15A11893   5.194   6.204   6.941  0.0088 -0.0673 -1.0216
  115OSM   H15B11894   5.235   6.047   6.892  0.2713 -0.2921 -0.9890
  115OSM   H15C11895   5.120   6.059   7.024  1.8485  0.1357  0.2016
  115OSM    C1411896   4.949   5.989   6.853 -0.2010  0.4961  0.8920
  115OSM   H14A11897   4.907   5.971   6.951 -1.5226 -2.4336 -0.0964
  115OSM   H14B11898   5.002   5.898   6.830 -0.5552  0.8164 -1.5086
  115OSM   H14C11899   4.865   6.007   6.787  0.4752  3.5297  0.6872
  115OSM    C1311900   4.951   6.238   6.877 -1.1728 -0.2632  0.3642
  115OSM   H13A11901   4.983   6.328   6.826 -2.3430 -1.4830 -2.7147
  115OSM   H13B11902   4.961   6.259   6.983  0.3812  2.2169 -0.1788
  115OSM   H13C11903   4.853   6.217   6.839  1.0521 -3.6917 -4.3858
  115OSM    C1211904   5.097   6.119   6.699  0.6621  0.1291  0.1524
  115OSM   H12A11905   5.008   6.146   6.643  1.5201  0.5290 -1.0511
  115OSM   H12B11906   5.125   6.023   6.658 -1.5778 -0.0555 -1.1246
  115OSM    C1111907   5.198   6.232   6.671  0.2484 -0.0159  0.9755
  115OSM   H11A11908   5.237   6.217   6.568  1.2613 -0.3602  1.3948
  115OSM   H11B11909   5.286   6.215   6.737  1.5908 -0.2408 -0.7991
  115OSM      P11910   5.044   6.422   6.563  0.0488 -0.1753  0.0147
  115OSM    O1311911   5.020   6.314   6.464  0.0624  0.1319  0.2973
  115OSM    O1411912   4.924   6.481   6.618 -0.2818 -0.0032  0.4608
  115OSM    O1111913   5.133   6.527   6.493 -0.1874  0.2342  0.1178
  115OSM    O1211914   5.138   6.365   6.675 -0.0703  0.3892 -0.0289
  115OSM    C1S11915   5.249   6.496   6.427  0.0080  0.2393 -0.2187
  115OSM    H1S11916   5.282   6.390   6.435 -0.0406  0.3548  1.9583
  115OSM    H1T11917   5.334   6.549   6.475 -1.7122  0.3897  2.9104
  115OSM     NF11918   5.354   6.476   6.200 -0.0032  0.4110 -0.3744
  115OSM    HNF11919   5.421   6.544   6.171  1.0759  0.1026  1.2492
  115OSM    C2S11920   5.238   6.525   6.270 -0.4415 -0.0007 -0.0377
  115OSM    H2S11921   5.160   6.458   6.226  1.1282 -1.7106 -0.3257
  115OSM    C3S11922   5.207   6.669   6.242  0.6373 -0.1357 -0.2369
  115OSM    H3S11923   5.297   6.728   6.269  1.1681 -0.8293 -0.4642
  115OSM     O311924   5.094   6.719   6.307  0.3732  0.1017  0.4073
  115OSM    HO311925   5.085   6.664   6.386  0.1881 -2.7598 -1.4423
  115OSM    C4S11926   5.187   6.683   6.087 -0.2514 -0.8405 -0.7331
  115OSM    H4S11927   5.105   6.620   6.050 -1.1902 -0.6178  0.8746
  115OSM    C5S11928   5.260   6.777   6.023  0.1090 -0.4210 -0.5216
  115OSM    H5S11929   5.324   6.846   6.081 -0.2718 -1.1231  0.7842
  115OSM    C6S11930   5.246   6.809   5.875  0.3643 -0.5591 -0.5273
  115OSM    H6S11931   5.264   6.707   5.833  0.1610 -1.7064  2.0348
  115OSM    H6T11932   5.325   6.876   5.834 -0.8708  1.4531  0.2581
  115OSM    C7S11933   5.119   6.861   5.812  0.4719 -0.1733 -0.5445
  115OSM    H7S11934   5.106   6.957   5.866  0.9132 -0.2737 -0.2503
  115OSM    H7T11935   5.032   6.795   5.832 -0.7182  1.3990 -0.3154
  115OSM    C8S11936   5.143   6.889   5.663 -0.3017  0.2106 -0.2552
  115OSM    H8S11937   5.163   6.788   5.621 -1.8574 -0.6210  0.9308
  115OSM    H8T11938   5.230   6.957   5.657 -0.7100  0.8002  0.4597
  115OSM    C9S11939   5.021   6.957   5.605  0.0988 -0.5004 -0.1824
  115OSM    H9S11940   4.932   6.890   5.608 -1.1425  1.0875  2.2989
  115OSM    H9T11941   5.048   6.990   5.502  1.0209 -0.6959 -0.0087
  115OSM   C10S11942   4.963   7.074   5.691 -0.2102  0.0915  0.7072
  115OSM   H10S11943   5.049   7.143   5.703  0.2497 -0.6018  1.5134
  115OSM   H10T11944   4.925   7.036   5.789  1.7142  0.1950  1.5392
  115OSM   C11S11945   4.851   7.155   5.617  0.0146  1.2453 -0.4809
  115OSM   H11S11946   4.890   7.187   5.518  0.9706 -0.3625 -0.6687
  115OSM   H11T11947   4.830   7.241   5.684 -1.6775 -0.3806  1.1887
  115OSM   C12S11948   4.727   7.069   5.599  0.8559 -0.5751  0.5340
  115OSM   H12S11949   4.684   7.041   5.698  0.8473 -0.6031  0.5223
  115OSM   H12T11950   4.753   6.971   5.554 -0.3436 -0.3734 -0.6746
  115OSM   C13S11951   4.617   7.130   5.518  0.2110  0.1848 -0.4260
  115OSM   H13S11952   4.544   7.048   5.503 -0.3290  0.5725  0.0150
  115OSM   H13T11953   4.672   7.160   5.427  0.9582 -0.5562 -0.2287
  115OSM   C14S11954   4.561   7.248   5.592  0.3354  0.5487  0.2566
  115OSM   H14S11955   4.643   7.322   5.585  2.1231 -1.4875 -3.9455
  115OSM   H14T11956   4.539   7.212   5.695  0.6595 -1.0210 -0.1966
  115OSM   C15S11957   4.424   7.297   5.537  0.2009 -0.2301 -0.2658
  115OSM   H15S11958   4.434   7.341   5.436 -0.9578  2.0005  0.5205
  115OSM   H15T11959   4.403   7.387   5.598  1.9536  1.0386 -1.4397
  115OSM   C16S11960   4.302   7.199   5.551 -0.5453 -0.3593 -0.2922
  115OSM   H16S11961   4.309   7.151   5.651 -2.2740  3.7013  2.0356
  115OSM   H16T11962   4.314   7.130   5.465  1.8670 -0.1379 -0.2077
  115OSM   C17S11963   4.174   7.276   5.527  0.2165  0.1967  0.1471
  115OSM   H17S11964   4.132   7.260   5.425 -0.6021  1.4355  0.2720
  115OSM   H17T11965   4.193   7.386   5.522  2.8319 -0.2107 -0.6380
  115OSM   C18S11966   4.054   7.248   5.619 -0.0510 -0.0712  0.0376
  115OSM   H18S11967   3.963   7.305   5.590  0.9667  2.0967  0.8346
  115OSM   H18T11968   4.086   7.283   5.720  2.2711 -0.2244 -0.5907
  115OSM   H18U11969   4.031   7.139   5.616 -0.8356  0.0877  0.0307
  115OSM    C1F11970   5.374   6.347   6.182  0.4531 -0.0593  0.2008
  115OSM     OF11971   5.313   6.261   6.236  0.5916  0.3934  0.1268
  115OSM    C2F11972   5.489   6.321   6.091  0.1728 -0.6665  0.0986
  115OSM    H2F11973   5.556   6.250   6.144 -2.4403 -2.6961  0.8609
  115OSM    H2G11974   5.542   6.417   6.076 -0.1221 -0.7865 -1.9943
  115OSM    C3F11975   5.457   6.269   5.952 -0.2718  1.1983  0.4586
  115OSM    H3F11976   5.418   6.167   5.972 -0.0219  0.6631 -1.6011
  115OSM    H3G11977   5.547   6.248   5.892 -1.6216 -0.0851 -1.2260
  115OSM    C4F11978   5.365   6.350   5.870 -0.0259  0.1526 -0.1855
  115OSM    H4F11979   5.390   6.454   5.839 -1.4529  0.7287  0.4901
  115OSM    H4G11980   5.267   6.366   5.921 -0.2505 -1.6217  0.0204
  115OSM    C5F11981   5.347   6.299   5.726 -0.4307  0.2205 -0.2473
  115OSM    H5F11982   5.308   6.195   5.726 -1.0154  0.4157  1.1751
  115OSM    H5G11983   5.450   6.295   5.686  0.6309 -2.2566  2.4512
  115OSM    C6F11984   5.247   6.382   5.652 -0.0895  0.2388  1.0247
  115OSM    H6F11985   5.280   6.488   5.657  1.4561 -0.1908  0.3558
  115OSM    H6G11986   5.148   6.376   5.703  0.0006 -0.1169  1.1554
  115OSM    C7F11987   5.255   6.353   5.498  0.6505 -0.3763 -0.8667
  115OSM    H7F11988   5.217   6.250   5.477  1.5682 -1.2107  1.2728
  115OSM    H7G11989   5.362   6.369   5.469  1.2202 -2.5504 -0.2052
  115OSM    C8F11990   5.153   6.444   5.426  0.1445  0.1275 -0.5917
  115OSM    H8F11991   5.184   6.551   5.438 -1.2672  0.6270 -1.2269
  115OSM    H8G11992   5.052   6.443   5.473 -0.6856 -1.1893 -2.3087
  115OSM    C9F11993   5.158   6.421   5.283  0.0881  0.2305  0.2762
  115OSM    H9F11994   5.234   6.345   5.256 -1.6992 -1.8798  0.8995
  115OSM   C10F11995   5.095   6.499   5.200  0.0628  0.2946 -0.2568
  115OSM   H10F11996   5.099   6.481   5.091 -3.8957 -4.3638  0.0245
  115OSM   C11F11997   5.001   6.609   5.236  0.2226 -0.7852  0.1679
  115OSM   H11F11998   4.969   6.614   5.343  1.8115 -0.6283  0.6574
  115OSM   H11G11999   4.911   6.600   5.170  0.6512 -0.9175 -0.4036
  115OSM   C12F12000   5.057   6.750   5.223 -0.1604 -0.3448 -0.0907
  115OSM   H12F12001   5.089   6.763   5.118  2.6994  2.5405  0.9670
  115OSM   H12G12002   5.143   6.755   5.294  0.7181  3.2654 -1.1705
  115OSM   C13F12003   4.961   6.868   5.256  0.0610  0.0027 -0.3312
  115OSM   H13F12004   5.016   6.962   5.276  0.1302 -0.1514  0.2287
  115OSM   H13G12005   4.901   6.841   5.346 -1.2019 -0.9061 -1.4189
  115OSM   C14F12006   4.852   6.891   5.144  0.1804 -0.8153  0.4288
  115OSM   H14F12007   4.780   6.808   5.130  1.6129 -1.8871 -0.8955
  115OSM   H14G12008   4.907   6.907   5.048  1.8030 -3.4526  0.8275
  115OSM   C15F12009   4.786   7.024   5.180 -0.1513  0.4061  0.7904
  115OSM   H15F12010   4.859   7.107   5.191 -1.0685  1.5125 -1.0273
  115OSM   H15G12011   4.741   7.006   5.280 -0.4324 -0.1769  0.5619
  115OSM   C16F12012   4.684   7.069   5.072  0.0180  0.3254 -0.6504
  115OSM   H16F12013   4.626   6.988   5.022 -1.6067  1.5583 -0.8119
  115OSM   H16G12014   4.741   7.128   4.997  0.4347 -1.4055 -1.7536
  115OSM   C17F12015   4.576   7.161   5.135  0.0973 -0.0674 -0.3949
  115OSM   H17F12016   4.632   7.238   5.193 -0.4447 -1.4785  2.1733
  115OSM   H17G12017   4.517   7.099   5.207 -0.3756  1.5638  0.6862
  115OSM   C18F12018   4.478   7.227   5.041  0.0734 -0.5993 -0.3366
  115OSM   H18F12019   4.411   7.151   4.996  0.0190 -1.3816  0.9963
  115OSM   H18G12020   4.522   7.290   4.961 -2.3524  1.3508 -0.2252
  115OSM   H18H12021   4.401   7.281   5.099  0.3710 -0.1775 -0.3269
  116OSM      N12022   1.010   5.805   6.644  0.1712 -0.0628 -0.2757
  116OSM    C1512023   0.994   5.945   6.609  0.3541  0.2802  0.0966
  116OSM   H15A12024   0.989   6.013   6.692 -0.0555 -0.4465  0.6905
  116OSM   H15B12025   0.907   5.958   6.546 -0.5679  1.6939  1.5814
  116OSM   H15C12026   1.073   5.977   6.544  0.9377 -0.9513  0.1745
  116OSM    C1412027   1.137   5.788   6.724 -0.1036  0.7174  0.5217
  116OSM   H14A12028   1.218   5.823   6.662  1.1106 -3.7203 -0.7999
  116OSM   H14B12029   1.152   5.682   6.745 -1.2344  0.4154 -0.1567
  116OSM   H14C12030   1.135   5.848   6.814 -0.3775 -0.3976  1.2885
  116OSM    C1312031   0.894   5.761   6.725  0.1422  0.2398  0.0741
  116OSM   H13A12032   0.803   5.803   6.685  0.2179  0.4548  0.1234
  116OSM   H13B12033   0.890   5.805   6.824 -1.8924  3.2396 -1.1995
  116OSM   H13C12034   0.886   5.653   6.730  2.0896  0.1050  1.3389
  116OSM    C1212035   1.017   5.737   6.502 -0.8034  0.2087  0.2808
  116OSM   H12A12036   1.107   5.769   6.451 -0.8479 -0.0619  0.0304
  116OSM   H12B12037   0.934   5.772   6.442 -0.7953  0.1800  0.2534
  116OSM    C1112038   1.001   5.579   6.501 -0.2959 -0.2468 -0.4640
  116OSM   H11A12039   1.081   5.526   6.557 -0.3945  0.0570 -0.0367
  116OSM   H11B12040   1.011   5.549   6.394  0.2759 -2.7701  0.2210
  116OSM      P12041   0.836   5.419   6.647  0.5160  0.1169  0.5750
  116OSM    O1312042   0.910   5.437   6.772  0.8215  0.0709  0.2487
  116OSM    O1412043   0.687   5.423   6.666  0.6971 -0.0579  0.3470
  116OSM    O1112044   0.883   5.288   6.573 -0.0868 -0.2900 -0.1821
  116OSM    O1212045   0.876   5.541   6.548  0.5593  0.0059 -0.1492
  116OSM    C1S12046   0.815   5.262   6.450  0.4465  0.2529 -0.2417
  116OSM    H1S12047   0.802   5.353   6.388  1.3860 -0.9688 -2.3377
  116OSM    H1T12048   0.716   5.217   6.473  0.3320  0.5589 -0.1349
  116OSM     NF12049   0.842   5.150   6.218 -0.0143 -0.8972 -0.3316
  116OSM    HNF12050   0.785   5.070   6.200 -1.4022  0.4878 -2.7500
  116OSM    C2S12051   0.894   5.166   6.356 -1.0948 -0.2815 -0.0705
  116OSM    H2S12052   0.995   5.211   6.344 -0.4224 -1.1068  1.9889
  116OSM    C3S12053   0.928   5.032   6.431 -0.3125 -0.0162 -0.1585
  116OSM    H3S12054   0.834   4.978   6.454  0.2633 -0.7078  0.6309
  116OSM     O312055   0.988   5.050   6.557  0.1645  0.0430  0.0172
  116OSM    HO312056   0.965   5.140   6.580  0.4000  0.0004  0.4109
  116OSM    C4S12057   1.023   4.958   6.342  0.3703  0.3292 -0.5389
  116OSM    H4S12058   0.981   4.891   6.266 -1.1983 -0.8166  1.2277
  116OSM    C5S12059   1.150   4.995   6.323 -0.0233 -0.7289 -1.6513
  116OSM    H5S12060   1.190   5.076   6.386  0.4203 -1.5286 -0.8707
  116OSM    C6S12061   1.233   4.932   6.221  0.7653 -0.1760 -0.4580
  116OSM    H6S12062   1.337   4.969   6.234  1.7265 -2.6091 -0.7244
  116OSM    H6T12063   1.193   4.978   6.127  0.2393  1.8705  0.7009
  116OSM    C7S12064   1.224   4.781   6.206 -0.0233  0.4266  0.1333
  116OSM    H7S12065   1.133   4.757   6.147 -0.8217  0.0448  1.4772
  116OSM    H7T12066   1.210   4.724   6.301  0.8750 -1.9784 -1.0877
  116OSM    C8S12067   1.350   4.731   6.126  0.1867  0.2263 -0.8360
  116OSM    H8S12068   1.340   4.621   6.133 -1.3098  0.4582  3.0435
  116OSM    H8T12069   1.442   4.753   6.185  0.8667 -3.0326 -0.5046
  116OSM    C9S12070   1.350   4.787   5.994  0.2410 -0.5839 -0.0422
  116OSM    H9S12071   1.382   4.893   5.995  0.4147 -0.6277 -0.6241
  116OSM    H9T12072   1.246   4.778   5.956 -0.2614  1.6057  0.6759
  116OSM   C10S12073   1.425   4.712   5.883 -0.1044 -0.6249  0.3079
  116OSM   H10S12074   1.376   4.612   5.881 -2.4189  0.4306 -1.6912
  116OSM   H10T12075   1.535   4.716   5.891 -0.1705 -0.5727  1.3130
  116OSM   C11S12076   1.393   4.790   5.748 -0.5313  0.7611 -0.1594
  116OSM   H11S12077   1.438   4.892   5.745  3.2499 -0.7609 -1.3245
  116OSM   H11T12078   1.283   4.794   5.737 -0.4958 -0.8093 -1.4587
  116OSM   C12S12079   1.456   4.717   5.621  0.3933 -0.4376 -0.6431
  116OSM   H12S12080   1.408   4.617   5.617 -0.3420 -0.1229  0.2001
  116OSM   H12T12081   1.564   4.698   5.641  0.3637 -1.2230 -1.1857
  116OSM   C13S12082   1.424   4.805   5.495 -0.1717  0.1986 -0.6739
  116OSM   H13S12083   1.479   4.902   5.496 -1.4577  0.9571 -1.6635
  116OSM   H13T12084   1.318   4.836   5.501  0.1757  1.2618  0.4919
  116OSM   C14S12085   1.445   4.739   5.357  0.4808  0.2770 -0.4456
  116OSM   H14S12086   1.356   4.673   5.348 -0.3149  0.9737  1.7723
  116OSM   H14T12087   1.531   4.670   5.345 -0.4875 -1.1289  0.3847
  116OSM   C15S12088   1.427   4.841   5.240 -0.5788  0.5582 -0.3183
  116OSM   H15S12089   1.326   4.885   5.254 -1.0004 -0.6647  0.6948
  116OSM   H15T12090   1.427   4.780   5.148  0.7339 -1.2255  0.8050
  116OSM   C16S12091   1.551   4.932   5.238  0.4163 -0.5050 -0.9101
  116OSM   H16S12092   1.639   4.865   5.250 -0.5243 -1.7421 -0.7902
  116OSM   H16T12093   1.557   4.993   5.331 -2.3036 -1.2997 -0.1426
  116OSM   C17S12094   1.555   5.026   5.118 -1.0105 -0.2554  0.0361
  116OSM   H17S12095   1.458   5.075   5.098 -0.4141  2.1038  2.3401
  116OSM   H17T12096   1.577   4.962   5.030 -0.1279  0.3382 -0.1833
  116OSM   C18S12097   1.662   5.142   5.129 -0.6571  0.1934  0.6243
  116OSM   H18S12098   1.766   5.107   5.116 -1.2700 -1.0353 -1.3670
  116OSM   H18T12099   1.641   5.199   5.222 -0.8336  1.8076 -0.3518
  116OSM   H18U12100   1.654   5.217   5.047 -0.7088  0.7572  1.1320
  116OSM    C1F12101   0.843   5.246   6.125  0.0913 -0.1394  0.5273
  116OSM     OF12102   0.901   5.350   6.145  0.6822  1.2030 -0.0725
  116OSM    C2F12103   0.772   5.206   5.994 -0.1808 -0.4985 -0.6615
  116OSM    H2F12104   0.662   5.202   6.003 -0.1475 -0.5794 -0.2703
  116OSM    H2G12105   0.789   5.098   5.977 -2.0374 -0.8930 -0.2515
  116OSM    C3F12106   0.817   5.274   5.856  0.1112 -0.7562 -0.0189
  116OSM    H3F12107   0.927   5.285   5.868  0.1672 -0.9249 -0.3740
  116OSM    H3G12108   0.768   5.374   5.857  0.2873 -0.4480 -4.1934
  116OSM    C4F12109   0.770   5.187   5.739  0.5859  0.2237 -0.0157
  116OSM    H4F12110   0.660   5.174   5.740  0.4214  1.3584  1.8956
  116OSM    H4G12111   0.819   5.088   5.746  1.7193  0.5517 -2.3654
  116OSM    C5F12112   0.812   5.247   5.601  0.2769  0.0098  0.1918
  116OSM    H5F12113   0.918   5.282   5.609 -1.0243  4.0822  3.2899
  116OSM    H5G12114   0.754   5.340   5.588  1.9983  1.3330  1.3620
  116OSM    C6F12115   0.790   5.149   5.481 -0.6581 -0.0636  0.5249
  116OSM    H6F12116   0.683   5.123   5.463 -0.2069 -0.5697 -1.7535
  116OSM    H6G12117   0.851   5.058   5.494 -2.9981 -2.0514 -1.3849
  116OSM    C7F12118   0.831   5.214   5.344  0.3673  0.1937  0.3972
  116OSM    H7F12119   0.913   5.156   5.296 -0.3928 -0.1865 -0.4672
  116OSM    H7G12120   0.876   5.311   5.374  1.3230  0.1525 -0.8222
  116OSM    C8F12121   0.716   5.238   5.239 -0.5924  0.4326 -0.4202
  116OSM    H8F12122   0.662   5.143   5.218  0.1208 -0.4353  1.4335
  116OSM    H8G12123   0.766   5.266   5.144  1.3664  0.4904  0.5742
  116OSM    C9F12124   0.610   5.339   5.285  0.2340  0.0275  0.1187
  116OSM    H9F12125   0.566   5.324   5.384  1.5134  2.1250  1.0911
  116OSM   C10F12126   0.551   5.436   5.209 -1.1574  0.6459 -0.3986
  116OSM   H10F12127   0.488   5.514   5.254 -1.0115  0.3404  0.3549
  116OSM   C11F12128   0.591   5.453   5.062 -0.2561  1.2592  0.0226
  116OSM   H11F12129   0.634   5.356   5.029 -0.6667 -1.1398  5.4119
  116OSM   H11G12130   0.666   5.533   5.045  0.3174  0.6642 -0.2861
  116OSM   C12F12131   0.469   5.468   4.968 -0.9289 -0.2151 -0.3769
  116OSM   H12F12132   0.408   5.560   4.977  0.6540  0.6797  2.4082
  116OSM   H12G12133   0.405   5.382   4.998  1.7414 -2.1156  0.3227
  116OSM   C13F12134   0.490   5.435   4.815 -0.1788 -0.2666  0.5034
  116OSM   H13F12135   0.390   5.420   4.770  0.1695 -3.6082  0.6095
  116OSM   H13G12136   0.565   5.354   4.800  0.0881  0.0917 -0.1191
  116OSM   C14F12137   0.548   5.550   4.745 -0.4945 -0.8285 -0.2221
  116OSM   H14F12138   0.638   5.593   4.794 -0.9270 -1.6560  1.3916
  116OSM   H14G12139   0.476   5.633   4.759  0.4969 -0.2325  1.7613
  116OSM   C15F12140   0.580   5.533   4.602 -0.1800 -0.0719  0.3686
  116OSM   H15F12141   0.633   5.623   4.565  0.1976  0.2694  1.6682
  116OSM   H15G12142   0.490   5.509   4.542 -0.6248  2.5750 -0.1465
  116OSM   C16F12143   0.678   5.429   4.576 -0.0431  0.4207  0.3648
  116OSM   H16F12144   0.629   5.329   4.583 -0.5482  0.4792 -1.7859
  116OSM   H16G12145   0.764   5.439   4.646  0.1747  2.1146 -0.1026
  116OSM   C17F12146   0.737   5.426   4.436 -0.1508  0.5098 -0.6241
  116OSM   H17F12147   0.760   5.530   4.406 -1.4041  1.2891  0.9419
  116OSM   H17G12148   0.666   5.394   4.357 -0.0786 -0.8220 -0.1762
  116OSM   C18F12149   0.861   5.334   4.419  0.0539  0.2246 -0.8116
  116OSM   H18F12150   0.962   5.370   4.449 -0.3028  0.4413  0.1569
  116OSM   H18G12151   0.863   5.314   4.310 -0.0682 -1.8494 -0.4819
  116OSM   H18H12152   0.847   5.237   4.471 -1.5039  0.8425 -0.0304
  117OSM      N12153   0.753   1.849   6.667 -0.5626  0.8281  0.1418
  117OSM    C1512154   0.838   1.828   6.784  0.2143  0.1153  0.5456
  117OSM   H15A12155   0.892   1.917   6.809  1.9829 -0.0733 -2.1704
  117OSM   H15B12156   0.920   1.760   6.766 -0.9211 -1.3754  0.7152
  117OSM   H15C12157   0.782   1.795   6.871  0.3089  0.7183  0.8397
  117OSM    C1412158   0.673   1.972   6.704 -0.3133  0.1463 -0.4803
  117OSM   H14A12159   0.598   1.977   6.627  0.0411 -1.8180 -1.0225
  117OSM   H14B12160   0.730   2.063   6.714 -0.0785 -0.1535  1.1321
  117OSM   H14C12161   0.618   1.965   6.796  0.2809  1.4264  0.0024
  117OSM    C1312162   0.832   1.870   6.542 -0.5249  0.0528 -0.2487
  117OSM   H13A12163   0.913   1.799   6.541 -0.9713 -0.4565 -0.1452
  117OSM   H13B12164   0.876   1.969   6.541 -0.3513 -0.0112  0.3514
  117OSM   H13C12165   0.776   1.859   6.451  1.4618  0.5895 -1.6080
  117OSM    C1212166   0.670   1.718   6.655 -0.4478 -0.7344 -0.2159
  117OSM   H12A12167   0.619   1.698   6.748  0.5120  0.9580  0.7205
  117OSM   H12B12168   0.730   1.628   6.646 -0.3150 -0.6422 -0.2569
  117OSM    C1112169   0.581   1.723   6.529  0.5443  0.3440  0.0049
  117OSM   H11A12170   0.541   1.620   6.518  1.1928  0.0358  0.4527
  117OSM   H11B12171   0.637   1.736   6.434 -0.5722 -3.2187 -1.3114
  117OSM      P12172   0.342   1.785   6.614 -0.0983  0.0428 -0.4706
  117OSM    O1312173   0.368   1.697   6.728  0.2872  0.0206  0.1213
  117OSM    O1412174   0.270   1.910   6.639  0.2341 -0.4918 -0.5245
  117OSM    O1112175   0.265   1.699   6.508  0.4735 -0.1386  0.3354
  117OSM    O1212176   0.482   1.827   6.543  0.3806  0.4109  0.1516
  117OSM    C1S12177   0.267   1.757   6.374  0.3469  0.3477 -0.0965
  117OSM    H1S12178   0.361   1.725   6.324  0.3849  0.9514 -0.4193
  117OSM    H1T12179   0.261   1.867   6.369  0.6951  0.3607 -0.2880
  117OSM     NF12180   0.138   1.786   6.163  0.7917 -0.2194 -0.0142
  117OSM    HNF12181   0.071   1.859   6.154  2.5984  1.5825  0.4453
  117OSM    C2S12182   0.145   1.707   6.289  0.1343 -0.3872  0.7146
  117OSM    H2S12183   0.159   1.603   6.254 -1.7253 -0.3546 -0.2108
  117OSM    C3S12184   0.004   1.705   6.362  0.5628 -0.3347  0.1299
  117OSM    H3S12185  -0.029   1.809   6.387 -1.3896 -1.1115  0.9888
  117OSM     O312186   0.009   1.630   6.485 -0.2186 -0.0833  0.3901
  117OSM    HO312187   0.097   1.645   6.520  0.8027 -2.6416 -0.8488
  117OSM    C4S12188  -0.095   1.639   6.273 -0.7693 -0.6088 -0.2445
  117OSM    H4S12189  -0.057   1.548   6.224  1.2887  0.7173 -1.2797
  117OSM    C5S12190  -0.209   1.687   6.226  0.1047 -0.3935 -0.2314
  117OSM    H5S12191  -0.238   1.792   6.239  0.6749 -0.3325  0.7195
  117OSM    C6S12192  -0.283   1.609   6.125 -0.1693 -0.4491 -0.4987
  117OSM    H6S12193  -0.394   1.622   6.125  0.0183  1.5018  0.2611
  117OSM    H6T12194  -0.277   1.508   6.170 -0.6217  0.1192  0.8973
  117OSM    C7S12195  -0.218   1.613   5.985  0.3399 -0.3728  0.1421
  117OSM    H7S12196  -0.258   1.522   5.934  3.1218 -2.9316  2.2027
  117OSM    H7T12197  -0.110   1.588   5.992  0.5063 -0.0931 -1.1596
  117OSM    C8S12198  -0.234   1.740   5.896  0.0610 -0.4593  0.2980
  117OSM    H8S12199  -0.180   1.829   5.935  0.3267  0.5974 -2.2821
  117OSM    H8T12200  -0.343   1.761   5.891  0.1317 -0.4737 -2.1022
  117OSM    C9S12201  -0.192   1.733   5.749  0.1040 -0.0481  0.1944
  117OSM    H9S12202  -0.093   1.684   5.737  0.2853 -0.4550  2.7910
  117OSM    H9T12203  -0.166   1.839   5.729  0.6003 -0.0409  0.8493
  117OSM   C10S12204  -0.292   1.662   5.661 -0.2267  0.3838 -0.9971
  117OSM   H10S12205  -0.393   1.661   5.709 -0.5853  0.3154 -1.7351
  117OSM   H10T12206  -0.254   1.560   5.644  1.0274  0.8686 -1.1992
  117OSM   C11S12207  -0.311   1.734   5.521 -0.5173  0.0429  0.7091
  117OSM   H11S12208  -0.356   1.835   5.537 -1.2571 -0.5301  2.3821
  117OSM   H11T12209  -0.384   1.675   5.460  0.9147  0.5620 -1.6474
  117OSM   C12S12210  -0.174   1.730   5.442 -0.2475 -0.5397 -0.4251
  117OSM   H12S12211  -0.132   1.627   5.442 -0.5693 -0.6837 -1.7806
  117OSM   H12T12212  -0.101   1.796   5.493  1.1258 -1.2572 -1.4081
  117OSM   C13S12213  -0.175   1.784   5.295 -0.5710 -0.2641 -0.0935
  117OSM   H13S12214  -0.241   1.723   5.229  0.2177 -0.9469 -0.2638
  117OSM   H13T12215  -0.073   1.771   5.252 -0.6459  1.2243 -0.7617
  117OSM   C14S12216  -0.213   1.935   5.285  0.9900 -0.3544  0.2584
  117OSM   H14S12217  -0.159   2.000   5.357 -2.3438  2.0156  0.8938
  117OSM   H14T12218  -0.320   1.944   5.315  1.3789 -2.0251  2.3845
  117OSM   C15S12219  -0.220   1.981   5.138 -1.0442  0.3863  0.0733
  117OSM   H15S12220  -0.130   1.951   5.080 -1.7828 -0.4510 -0.6668
  117OSM   H15T12221  -0.214   2.092   5.136 -1.1481  0.3920  0.0756
  117OSM   C16S12222  -0.342   1.943   5.044  0.0272  0.5083 -0.3160
  117OSM   H16S12223  -0.437   1.993   5.074 -0.3648  0.4868 -1.4736
  117OSM   H16T12224  -0.363   1.836   5.060 -0.7083  0.7489  0.3902
  117OSM   C17S12225  -0.314   1.971   4.897 -0.2033 -1.1362 -0.4887
  117OSM   H17S12226  -0.222   1.918   4.863  1.0064  0.4014  0.2455
  117OSM   H17T12227  -0.301   2.080   4.882  1.8845 -1.2989 -0.1534
  117OSM   C18S12228  -0.439   1.926   4.812 -0.1294 -0.8823 -0.8880
  117OSM   H18S12229  -0.435   1.945   4.703 -1.0532  2.2808 -0.4685
  117OSM   H18T12230  -0.535   1.971   4.846  0.5151 -0.3286  0.2453
  117OSM   H18U12231  -0.454   1.817   4.829  0.1513 -0.5885  1.5918
  117OSM    C1F12232   0.228   1.776   6.066 -1.1142  0.4700  0.4527
  117OSM     OF12233   0.323   1.698   6.076 -0.0235  0.5197 -0.3350
  117OSM    C2F12234   0.207   1.861   5.942 -0.1741 -0.1729 -0.6533
  117OSM    H2F12235   0.210   1.965   5.982  0.9430 -0.5903  0.4058
  117OSM    H2G12236   0.102   1.849   5.906  0.3312 -2.6503 -1.4420
  117OSM    C3F12237   0.309   1.845   5.834  0.2560  0.3412  0.3671
  117OSM    H3F12238   0.323   1.738   5.807  1.0526  0.5432 -0.0668
  117OSM    H3G12239   0.408   1.881   5.869  0.0820  0.2624  0.9375
  117OSM    C4F12240   0.278   1.938   5.719  0.4367 -0.2509 -0.3891
  117OSM    H4F12241   0.363   1.909   5.654 -0.4059 -1.4625 -0.9730
  117OSM    H4G12242   0.291   2.046   5.743  0.9942 -0.3439 -0.2726
  117OSM    C5F12243   0.144   1.916   5.646  0.2790  0.2316  0.6327
  117OSM    H5F12244   0.055   1.941   5.708  1.6670 -1.0490  3.2605
  117OSM    H5G12245   0.147   1.806   5.631  1.9560  0.4516 -1.1840
  117OSM    C6F12246   0.132   1.985   5.510 -0.0839  0.6606 -1.3084
  117OSM    H6F12247   0.138   2.094   5.528 -0.9814  0.6940 -1.1664
  117OSM    H6G12248   0.033   1.967   5.464 -0.7125 -0.6442  0.4424
  117OSM    C7F12249   0.229   1.935   5.403 -0.7388 -0.0403  0.0360
  117OSM    H7F12250   0.214   1.825   5.399 -2.5746  0.0411  2.1472
  117OSM    H7G12251   0.334   1.964   5.424  0.4535 -1.9869 -2.7296
  117OSM    C8F12252   0.196   1.993   5.264 -0.7642  0.4984 -0.0451
  117OSM    H8F12253   0.086   1.980   5.254 -0.5294 -1.4217 -0.5196
  117OSM    H8G12254   0.244   1.932   5.185 -0.0640  1.9993 -0.8087
  117OSM    C9F12255   0.257   2.132   5.264  0.7141  0.2519  0.0739
  117OSM    H9F12256   0.359   2.143   5.302  0.9308 -1.0225 -0.1002
  117OSM   C10F12257   0.187   2.241   5.217 -0.1051 -0.2503 -0.2196
  117OSM   H10F12258   0.242   2.336   5.210 -2.1308  0.8980 -1.6365
  117OSM   C11F12259   0.052   2.233   5.156  0.0537 -0.4753 -0.6954
  117OSM   H11F12260  -0.020   2.273   5.230  2.1408 -0.5251  1.4874
  117OSM   H11G12261   0.015   2.133   5.123  2.1018 -1.9900  1.2631
  117OSM   C12F12262   0.027   2.319   5.031 -1.0456 -0.1419  0.5841
  117OSM   H12F12263   0.015   2.427   5.053  1.6673  0.6333 -1.2871
  117OSM   H12G12264  -0.066   2.271   4.994 -0.7888 -1.2172  1.2873
  117OSM   C13F12265   0.137   2.299   4.924 -0.0267  0.7644 -0.4502
  117OSM   H13F12266   0.184   2.199   4.918  1.3968  1.2361  1.8379
  117OSM   H13G12267   0.220   2.367   4.954  0.9935 -0.6306 -0.0608
  117OSM   C14F12268   0.092   2.347   4.788  0.4183 -0.5336 -0.1847
  117OSM   H14F12269   0.060   2.454   4.787  0.1520 -0.6103 -0.1483
  117OSM   H14G12270   0.007   2.292   4.741  1.1904 -1.3467 -0.6439
  117OSM   C15F12271   0.203   2.349   4.680  0.8231 -0.1145  0.5936
  117OSM   H15F12272   0.266   2.258   4.686  2.2322  0.8713  1.4333
  117OSM   H15G12273   0.263   2.437   4.711 -1.5061  2.6908 -2.1833
  117OSM   C16F12274   0.154   2.379   4.533  0.0901  1.0523 -0.0931
  117OSM   H16F12275   0.238   2.404   4.465 -0.7348 -0.1966 -1.6350
  117OSM   H16G12276   0.084   2.466   4.537  0.6151  1.4464  3.1761
  117OSM   C17F12277   0.083   2.258   4.468 -0.1337 -0.3382 -0.1810
  117OSM   H17F12278  -0.021   2.239   4.502  1.1784 -1.1509  3.8409
  117OSM   H17G12279   0.141   2.164   4.486 -0.6438 -0.8115 -0.9332
  117OSM   C18F12280   0.083   2.281   4.318  1.6231  0.2649  0.5948
  117OSM   H18F12281   0.029   2.372   4.282 -0.3108 -0.8136  0.6107
  117OSM   H18G12282   0.032   2.198   4.264 -1.9005  2.5789 -0.0027
  117OSM   H18H12283   0.186   2.290   4.279  1.1501  1.0355 -0.5619
  118OSM      N12284   0.401   6.747   6.897  0.7413  0.2024  0.3803
  118OSM    C1512285   0.292   6.659   6.965  0.4436 -0.5954  0.1488
  118OSM   H15A12286   0.191   6.699   6.958 -0.7873 -3.1352  1.7765
  118OSM   H15B12287   0.311   6.662   7.071  0.1228  1.9209  0.1991
  118OSM   H15C12288   0.290   6.558   6.929 -0.5166 -1.3307  2.1358
  118OSM    C1412289   0.413   6.871   6.972  0.2112 -0.4107  0.1952
  118OSM   H14A12290   0.324   6.932   6.961  0.8574  0.3242 -1.2906
  118OSM   H14B12291   0.501   6.925   6.940  1.6516 -1.3616  2.3278
  118OSM   H14C12292   0.425   6.859   7.079 -2.7353 -0.8769  0.5501
  118OSM    C1312293   0.523   6.671   6.904  0.0429  0.0586 -0.5072
  118OSM   H13A12294   0.532   6.632   7.004  1.5726 -0.3608 -0.7831
  118OSM   H13B12295   0.607   6.734   6.875  0.6693 -1.5246 -2.3452
  118OSM   H13C12296   0.535   6.585   6.840  0.8126 -0.2887  0.0818
  118OSM    C1212297   0.351   6.772   6.754 -0.6089 -0.2389 -0.1562
  118OSM   H12A12298   0.414   6.846   6.707  1.5836 -1.3963  0.8415
  118OSM   H12B12299   0.253   6.818   6.758  0.1291  1.5479 -1.2462
  118OSM    C1112300   0.351   6.649   6.652  0.3268 -0.5324  0.2527
  118OSM   H11A12301   0.456   6.617   6.639 -0.0824 -1.9017  0.1200
  118OSM   H11B12302   0.313   6.684   6.554  0.3393 -1.1373  0.0277
  118OSM      P12303   0.299   6.396   6.680 -0.0104  0.3603 -0.4650
  118OSM    O1312304   0.448   6.369   6.693  0.8014  0.6135 -0.3552
  118OSM    O1412305   0.205   6.312   6.763  0.5475  0.3462 -0.4328
  118OSM    O1112306   0.267   6.379   6.526 -0.0748 -0.4429  0.1170
  118OSM    O1212307   0.272   6.542   6.701 -0.1852 -0.5160  0.3367
  118OSM    C1S12308   0.140   6.433   6.483  0.3630  0.3021  0.0829
  118OSM    H1S12309   0.130   6.542   6.500  0.7851  0.2495  0.7149
  118OSM    H1T12310   0.057   6.392   6.544  2.0118 -1.1325  1.4811
  118OSM     NF12311   0.001   6.468   6.289 -0.2835 -0.5518 -0.4431
  118OSM    HNF12312  -0.086   6.420   6.282  1.3811 -3.5544 -3.0800
  118OSM    C2S12313   0.122   6.395   6.334  0.2524 -0.4632 -0.5375
  118OSM    H2S12314   0.212   6.437   6.283  0.4549 -0.2819 -0.0354
  118OSM    C3S12315   0.116   6.238   6.319 -0.7160 -0.0441  0.3732
  118OSM    H3S12316   0.032   6.201   6.381 -1.7376  0.0735 -0.8795
  118OSM     O312317   0.227   6.168   6.376 -0.0256 -0.0472  0.0026
  118OSM    HO312318   0.276   6.238   6.420 -1.5101  1.5497 -0.8048
  118OSM    C4S12319   0.097   6.198   6.172  0.0854 -0.4213 -0.1194
  118OSM    H4S12320  -0.004   6.187   6.130 -1.3343 -0.8126  3.1140
  118OSM    C5S12321   0.186   6.199   6.074 -0.0338 -0.1901 -0.1183
  118OSM    H5S12322   0.288   6.235   6.091  0.7810 -1.1749 -2.5427
  118OSM    C6S12323   0.149   6.154   5.938  0.2994  0.2251  0.4224
  118OSM    H6S12324   0.113   6.239   5.876  2.5924  0.8859 -0.0743
  118OSM    H6T12325   0.071   6.075   5.935 -1.1636  1.6105  0.2632
  118OSM    C7S12326   0.275   6.091   5.870 -0.5100 -0.4765 -0.7527
  118OSM    H7S12327   0.316   6.013   5.938 -1.4994  0.0574  0.5091
  118OSM    H7T12328   0.349   6.172   5.858 -2.5559  1.4883 -0.7082
  118OSM    C8S12329   0.236   6.030   5.739  0.5338 -0.2047 -0.1008
  118OSM    H8S12330   0.160   5.949   5.744 -1.9699  1.6029 -3.9031
  118OSM    H8T12331   0.330   5.984   5.704  1.4270  1.1919  0.3922
  118OSM    C9S12332   0.181   6.121   5.632 -0.4400  0.7426  0.3425
  118OSM    H9S12333   0.245   6.210   5.614 -1.5591  1.3066 -1.0170
  118OSM    H9T12334   0.076   6.150   5.652 -1.1779  0.2337 -2.4221
  118OSM   C10S12335   0.155   6.049   5.491  0.1001  0.0334  0.2331
  118OSM   H10S12336   0.099   6.117   5.424  1.1159  0.4526 -0.2115
  118OSM   H10T12337   0.092   5.960   5.514  0.7077 -0.1095  1.4398
  118OSM   C11S12338   0.279   6.011   5.413  0.1571  0.2008  0.2584
  118OSM   H11S12339   0.331   5.941   5.481  0.0677  1.2931  1.5023
  118OSM   H11T12340   0.343   6.099   5.391 -0.6772  0.3530 -1.8068
  118OSM   C12S12341   0.251   5.967   5.269 -0.0904  0.1215  0.1727
  118OSM   H12S12342   0.175   5.887   5.268 -0.3200  0.2672  1.8792
  118OSM   H12T12343   0.340   5.913   5.228  0.9668  1.9045  0.0023
  118OSM   C13S12344   0.219   6.081   5.178 -0.1590  0.6935  0.2175
  118OSM   H13S12345   0.307   6.148   5.177  0.5343 -0.1835  0.7301
  118OSM   H13T12346   0.131   6.135   5.222 -1.6724 -1.7406  0.3661
  118OSM   C14S12347   0.172   6.034   5.045  0.5536 -0.8957 -0.0739
  118OSM   H14S12348   0.128   5.934   5.063 -0.1824 -0.1677  2.8204
  118OSM   H14T12349   0.262   6.023   4.981 -0.2775  0.4172 -1.5301
  118OSM   C15S12350   0.075   6.122   4.973  0.5490 -0.0537 -0.0957
  118OSM   H15S12351   0.093   6.230   4.989  2.7979 -0.1019 -1.7912
  118OSM   H15T12352  -0.031   6.108   5.004  0.6359 -2.4355 -0.6451
  118OSM   C16S12353   0.074   6.093   4.822  0.1266 -0.1406  1.4606
  118OSM   H16S12354   0.041   5.994   4.784 -1.7088  1.3036 -0.9700
  118OSM   H16T12355   0.180   6.110   4.793 -0.7285 -0.7468 -2.5232
  118OSM   C17S12356  -0.017   6.198   4.751  0.4483  0.0854 -0.3456
  118OSM   H17S12357   0.014   6.302   4.775  0.0056  0.1274  0.0583
  118OSM   H17T12358  -0.125   6.182   4.771  0.8238 -3.1460 -0.4127
  118OSM   C18S12359  -0.014   6.182   4.605  1.1844  0.1930  0.1739
  118OSM   H18S12360   0.086   6.208   4.564  1.1621 -1.0521 -0.7266
  118OSM   H18T12361  -0.096   6.231   4.548 -0.1650  0.1852  2.0488
  118OSM   H18U12362  -0.030   6.075   4.577 -1.9079  0.1941  1.6006
  118OSM    C1F12363   0.004   6.603   6.273  0.0075 -0.3477  0.7289
  118OSM     OF12364   0.115   6.651   6.252 -0.3075 -0.7656 -0.5317
  118OSM    C2F12365  -0.127   6.676   6.261 -0.3880  0.1530  0.2530
  118OSM    H2F12366  -0.155   6.704   6.365 -3.4602  0.3868 -0.5424
  118OSM    H2G12367  -0.205   6.608   6.222  0.1228 -1.0671  1.2935
  118OSM    C3F12368  -0.108   6.814   6.187 -0.1983  0.5672 -0.6878
  118OSM    H3F12369  -0.048   6.803   6.094 -1.5968 -0.4077 -1.5023
  118OSM    H3G12370  -0.050   6.876   6.259 -0.7416 -0.1318  0.3805
  118OSM    C4F12371  -0.231   6.895   6.157  0.1407 -0.6077  0.1597
  118OSM    H4F12372  -0.286   6.913   6.252 -1.7247 -0.6242 -0.8717
  118OSM    H4G12373  -0.295   6.843   6.082 -1.3283  1.1359  0.1204
  118OSM    C5F12374  -0.191   7.028   6.088  0.2381  0.0155 -0.5097
  118OSM    H5F12375  -0.111   7.072   6.152 -0.4793  1.2467 -0.4326
  118OSM    H5G12376  -0.275   7.101   6.085  1.2808  1.2937  0.2760
  118OSM    C6F12377  -0.133   7.012   5.952 -0.6904  0.9575 -0.0911
  118OSM    H6F12378  -0.034   6.962   5.953  0.2743  2.7779 -0.3763
  118OSM    H6G12379  -0.107   7.114   5.917 -1.8043  1.4918  0.5824
  118OSM    C7F12380  -0.218   6.932   5.860 -1.0929 -0.0294  0.0840
  118OSM    H7F12381  -0.323   6.961   5.881 -1.9489 -0.4989 -3.1179
  118OSM    H7G12382  -0.203   6.824   5.880  0.7438 -0.1490 -1.6512
  118OSM    C8F12383  -0.164   6.949   5.714 -0.0380 -0.4920  0.0670
  118OSM    H8F12384  -0.182   6.851   5.665  1.0446 -1.5676  1.7358
  118OSM    H8G12385  -0.056   6.968   5.731 -0.2613  0.5478  0.3989
  118OSM    C9F12386  -0.224   7.075   5.644  0.1979 -0.0988 -0.7170
  118OSM    H9F12387  -0.200   7.165   5.703 -0.6203 -0.4191  0.1545
  118OSM   C10F12388  -0.289   7.088   5.526  0.1721  0.3850 -0.4171
  118OSM   H10F12389  -0.327   7.186   5.492 -0.0300 -0.4991 -2.9709
  118OSM   C11F12390  -0.313   6.974   5.429 -0.2106  0.0828 -0.4048
  118OSM   H11F12391  -0.287   6.881   5.486 -2.4823 -1.7659 -2.1931
  118OSM   H11G12392  -0.233   6.982   5.353 -1.0730 -0.0380 -1.3378
  118OSM   C12F12393  -0.457   6.964   5.376  0.2030  0.0964  0.5917
  118OSM   H12F12394  -0.484   7.058   5.322  0.1842  0.9081  1.9628
  118OSM   H12G12395  -0.522   6.956   5.466 -1.1598  0.9700 -0.2748
  118OSM   C13F12396  -0.483   6.851   5.273 -0.2374  0.0348 -0.4010
  118OSM   H13F12397  -0.452   6.751   5.309 -1.8482 -0.2608  0.2691
  118OSM   H13G12398  -0.408   6.868   5.193  1.9743 -0.3260  1.4760
  118OSM   C14F12399  -0.632   6.832   5.233 -0.7405 -0.2308 -0.2704
  118OSM   H14F12400  -0.683   6.930   5.217 -0.0351  0.1576 -0.1735
  118OSM   H14G12401  -0.684   6.799   5.325 -0.7203  2.4885  0.8219
  118OSM   C15F12402  -0.664   6.750   5.111 -0.0010  0.6772  0.4706
  118OSM   H15F12403  -0.748   6.681   5.133  0.2514  0.3586  0.4542
  118OSM   H15G12404  -0.575   6.685   5.096  0.0077  0.9138 -0.5742
  118OSM   C16F12405  -0.697   6.833   4.984  0.1302  0.3921  0.9912
  118OSM   H16F12406  -0.614   6.900   4.952  0.2163 -0.7282 -1.3825
  118OSM   H16G12407  -0.786   6.899   4.990  0.0491  0.2576  1.2426
  118OSM   C17F12408  -0.719   6.739   4.863  0.1821 -0.3907 -0.5039
  118OSM   H17F12409  -0.803   6.675   4.895  1.6499 -2.2538 -0.1891
  118OSM   H17G12410  -0.629   6.677   4.842  1.3586  0.6513  1.2281
  118OSM   C18F12411  -0.760   6.817   4.732 -0.1591  0.3466 -0.3571
  118OSM   H18F12412  -0.774   6.741   4.652 -1.9554  0.1200  0.1433
  118OSM   H18G12413  -0.681   6.886   4.694  1.8122 -1.8180 -0.4150
  118OSM   H18H12414  -0.855   6.869   4.758 -2.0466 -2.9262 -0.1440
  119OSM      N12415   0.761   2.776   6.956 -0.5043  0.6204 -0.5420
  119OSM    C1512416   0.880   2.756   7.037 -0.0406  0.1134  0.0508
  119OSM   H15A12417   0.940   2.677   6.995  1.0251  0.2004  1.3344
  119OSM   H15B12418   0.850   2.747   7.141 -0.9207  1.0532 -0.1021
  119OSM   H15C12419   0.942   2.844   7.043  0.6463 -0.4213  1.2815
  119OSM    C1412420   0.685   2.647   6.935 -0.0018 -0.0727 -0.0079
  119OSM   H14A12421   0.609   2.656   6.858 -1.3094 -3.4854  0.7035
  119OSM   H14B12422   0.650   2.607   7.029  1.4998  0.8817  0.9975
  119OSM   H14C12423   0.743   2.562   6.901  0.1495  0.7468 -1.9442
  119OSM    C1312424   0.672   2.859   7.038  0.1195  0.7795 -0.1388
  119OSM   H13A12425   0.717   2.954   7.063  0.2202  0.5330  0.6569
  119OSM   H13B12426   0.645   2.803   7.127  1.1426 -0.6402 -0.6672
  119OSM   H13C12427   0.580   2.872   6.985  2.0202  1.0988 -3.6415
  119OSM    C1212428   0.793   2.843   6.822 -0.3596  0.9148  0.0535
  119OSM   H12A12429   0.856   2.927   6.845  1.4040 -0.3446  0.1002
  119OSM   H12B12430   0.698   2.865   6.775 -0.1979  1.0976 -0.1917
  119OSM    C1112431   0.891   2.757   6.731  0.1909 -0.3167 -0.2909
  119OSM   H11A12432   0.882   2.806   6.632 -3.5475 -0.3001 -0.0822
  119OSM   H11B12433   0.851   2.653   6.733  1.1150 -0.6769  0.2507
  119OSM      P12434   1.121   2.645   6.784 -0.1067  0.0022 -0.0306
  119OSM    O1312435   1.262   2.692   6.801  1.1079  0.1827 -0.0200
  119OSM    O1412436   1.069   2.550   6.885  0.9076  1.1175 -0.2484
  119OSM    O1112437   1.110   2.584   6.639  0.1822  0.2909  0.2239
  119OSM    O1212438   1.027   2.771   6.773 -0.1397 -0.1822 -0.4970
  119OSM    C1S12439   1.139   2.660   6.522  0.0176 -0.0115  0.6739
  119OSM    H1S12440   1.246   2.685   6.506 -0.3036 -0.1675 -2.4871
  119OSM    H1T12441   1.082   2.754   6.536 -0.4137 -0.3143  1.0129
  119OSM     NF12442   1.141   2.685   6.278 -0.1245  0.5805  0.4930
  119OSM    HNF12443   1.075   2.743   6.232 -0.8566  0.5617  1.4803
  119OSM    C2S12444   1.090   2.598   6.384  0.1506 -0.2522  0.1904
  119OSM    H2S12445   1.125   2.494   6.365  1.2420 -0.3632  2.4960
  119OSM    C3S12446   0.938   2.587   6.390 -0.2377  0.3118 -0.2824
  119OSM    H3S12447   0.889   2.686   6.403  1.2300  0.9113  1.0007
  119OSM     O312448   0.895   2.516   6.503  0.3481  0.0886  0.5030
  119OSM    HO312449   0.972   2.508   6.560  1.1378  1.3955 -0.3276
  119OSM    C4S12450   0.879   2.526   6.266 -0.4875 -0.0125 -0.4359
  119OSM    H4S12451   0.930   2.433   6.237  2.2083  1.4838 -0.7970
  119OSM    C5S12452   0.803   2.586   6.174 -0.2967  0.2865  0.6426
  119OSM    H5S12453   0.755   2.684   6.192  0.3577  0.3306  2.3103
  119OSM    C6S12454   0.766   2.530   6.038 -0.4005 -0.4027 -0.2652
  119OSM    H6S12455   0.655   2.531   6.037 -0.5817 -2.1171  2.8320
  119OSM    H6T12456   0.793   2.423   6.022 -3.2809 -1.2799  0.1697
  119OSM    C7S12457   0.824   2.599   5.909  0.1981 -0.2806  0.2048
  119OSM    H7S12458   0.933   2.583   5.919  0.3941  1.4160  1.0727
  119OSM    H7T12459   0.802   2.707   5.917 -1.7080 -0.6553  0.7645
  119OSM    C8S12460   0.765   2.542   5.783  0.1871  0.0374 -0.3153
  119OSM    H8S12461   0.655   2.559   5.774 -0.0140 -0.4990  0.8802
  119OSM    H8T12462   0.759   2.431   5.785 -3.2818  0.1217  0.1762
  119OSM    C9S12463   0.856   2.590   5.663 -0.3551  0.0623  0.6034
  119OSM    H9S12464   0.867   2.527   5.572  2.5201  1.1889  0.0664
  119OSM    H9T12465   0.961   2.590   5.700  0.2261 -3.2692 -0.6294
  119OSM   C10S12466   0.811   2.729   5.613  0.7756 -0.1632  1.2360
  119OSM   H10S12467   0.818   2.789   5.706  2.9582 -1.4947  1.9942
  119OSM   H10T12468   0.709   2.732   5.569  1.2522 -0.7623  0.0591
  119OSM   C11S12469   0.911   2.797   5.514 -0.2895  0.4909 -0.0276
  119OSM   H11S12470   0.923   2.727   5.429 -1.4404  0.4231 -0.1590
  119OSM   H11T12471   1.004   2.813   5.571  0.6170 -1.6608 -0.8136
  119OSM   C12S12472   0.864   2.928   5.460  1.2907 -0.5254 -0.2645
  119OSM   H12S12473   0.883   3.004   5.538  2.7216 -0.5351 -0.5611
  119OSM   H12T12474   0.755   2.916   5.446  1.4172 -0.9361 -0.9822
  119OSM   C13S12475   0.928   2.968   5.326  0.1437  0.1453  0.3512
  119OSM   H13S12476   0.880   3.062   5.291 -0.7130 -0.8973 -1.4059
  119OSM   H13T12477   0.901   2.881   5.262 -0.3213 -0.2823  1.1066
  119OSM   C14S12478   1.083   2.993   5.332  0.3611  0.2438  0.3743
  119OSM   H14S12479   1.134   2.896   5.318 -0.0318 -0.2224  1.9585
  119OSM   H14T12480   1.106   3.058   5.419  3.4782  1.6259 -1.3160
  119OSM   C15S12481   1.120   3.081   5.210 -0.0929  0.7512  0.3873
  119OSM   H15S12482   1.069   3.179   5.208 -1.0791  0.2589  0.9286
  119OSM   H15T12483   1.084   3.031   5.117  2.7204 -0.5010 -0.1344
  119OSM   C16S12484   1.267   3.112   5.202 -0.4470  0.1579 -0.5783
  119OSM   H16S12485   1.329   3.022   5.223 -1.0390 -0.3504 -1.0177
  119OSM   H16T12486   1.302   3.187   5.277 -1.8475  0.0293  0.2395
  119OSM   C17S12487   1.299   3.159   5.063 -0.9019 -0.3504 -0.5022
  119OSM   H17S12488   1.277   3.267   5.050  0.9974  0.3560  1.5174
  119OSM   H17T12489   1.238   3.104   4.989 -0.8058  2.4158 -2.8167
  119OSM   C18S12490   1.446   3.140   5.016  0.3875  0.2112 -0.2892
  119OSM   H18S12491   1.452   3.043   4.962  0.0345  0.0723 -0.0902
  119OSM   H18T12492   1.502   3.123   5.111 -1.0023 -2.7054  0.1324
  119OSM   H18U12493   1.484   3.219   4.949  1.3386 -0.8639 -1.0457
  119OSM    C1F12494   1.271   2.689   6.247  0.1935  0.7387  0.2496
  119OSM     OF12495   1.342   2.598   6.284  0.0595 -0.4783 -0.4339
  119OSM    C2F12496   1.320   2.808   6.171  0.7340  0.1197  0.1394
  119OSM    H2F12497   1.290   2.904   6.218 -0.1688  0.5053 -1.1610
  119OSM    H2G12498   1.270   2.814   6.072  2.9946  3.0176 -0.9610
  119OSM    C3F12499   1.472   2.818   6.138  0.1318 -0.5548 -0.1144
  119OSM    H3F12500   1.505   2.746   6.060  0.4220  0.4573 -0.9476
  119OSM    H3G12501   1.528   2.792   6.231 -1.0663 -2.2286  0.1899
  119OSM    C4F12502   1.515   2.963   6.099  0.2323 -0.6059  0.5863
  119OSM    H4F12503   1.517   3.023   6.192  0.3541  3.3881 -1.7775
  119OSM    H4G12504   1.430   3.008   6.043  0.5083  0.6348  1.1390
  119OSM    C5F12505   1.651   2.984   6.032 -0.8440 -0.2357  0.2822
  119OSM    H5F12506   1.669   2.924   5.940 -1.1394 -2.2642  1.4877
  119OSM    H5G12507   1.727   2.955   6.108  1.5662 -0.9369 -2.2203
  119OSM    C6F12508   1.682   3.132   6.010 -0.0976 -0.2377  0.3798
  119OSM    H6F12509   1.676   3.195   6.101 -2.0257  0.5060 -0.2085
  119OSM    H6G12510   1.608   3.172   5.938 -0.0463  2.4104  1.6789
  119OSM    C7F12511   1.824   3.151   5.940 -0.8643 -0.2959  0.1946
  119OSM    H7F12512   1.827   3.080   5.855  0.2108 -0.1115  0.0611
  119OSM    H7G12513   1.911   3.134   6.007  0.2249 -0.3939 -1.2091
  119OSM    C8F12514   1.846   3.295   5.894 -0.2128  0.4431  0.1748
  119OSM    H8F12515   1.951   3.320   5.870 -0.8189  1.7244 -1.3042
  119OSM    H8G12516   1.820   3.350   5.987  0.2053 -0.6506  0.9628
  119OSM    C9F12517   1.756   3.338   5.787 -0.2793 -0.5636 -0.2069
  119OSM    H9F12518   1.670   3.396   5.822  0.7948  1.2120 -0.3773
  119OSM   C10F12519   1.789   3.332   5.653 -0.5750 -0.1811  0.0351
  119OSM   H10F12520   1.715   3.362   5.577 -0.5639  1.5421  0.6546
  119OSM   C11F12521   1.910   3.258   5.599  0.4630 -0.1958 -0.4607
  119OSM   H11F12522   1.934   3.172   5.665 -0.3038 -1.2715 -1.5379
  119OSM   H11G12523   1.996   3.327   5.589  0.3472  0.2956  1.5725
  119OSM   C12F12524   1.883   3.185   5.460  0.7084 -0.9602  0.8538
  119OSM   H12F12525   1.983   3.158   5.418  0.2765  0.6105 -1.3400
  119OSM   H12G12526   1.840   3.261   5.393  0.0560 -1.8735  0.2056
  119OSM   C13F12527   1.785   3.060   5.468 -0.0688 -0.8135  0.0027
  119OSM   H13F12528   1.703   3.102   5.531 -1.1109 -1.6165 -0.7721
  119OSM   H13G12529   1.832   2.985   5.535  0.9890 -1.2669 -1.2096
  119OSM   C14F12530   1.733   2.994   5.344 -0.1874  0.4775 -0.3265
  119OSM   H14F12531   1.819   2.940   5.298  1.1608  1.2585  1.1945
  119OSM   H14G12532   1.700   3.068   5.267  0.6638 -0.8302 -2.0191
  119OSM   C15F12533   1.619   2.895   5.379 -0.1415  0.4401  0.1201
  119OSM   H15F12534   1.532   2.947   5.424 -0.6716  0.5743 -1.0186
  119OSM   H15G12535   1.659   2.819   5.449 -1.0245 -2.4677 -2.3029
  119OSM   C16F12536   1.585   2.814   5.254 -0.3145 -0.7081  0.2383
  119OSM   H16F12537   1.682   2.783   5.212 -0.5713 -1.4744  0.1954
  119OSM   H16G12538   1.540   2.885   5.181 -1.9572 -1.4415  0.4939
  119OSM   C17F12539   1.503   2.693   5.285  0.4485 -0.1651  0.1312
  119OSM   H17F12540   1.546   2.645   5.375  1.5169 -2.9331 -1.7285
  119OSM   H17G12541   1.507   2.619   5.203  1.1314 -0.2737  0.2568
  119OSM   C18F12542   1.356   2.718   5.320 -0.7031 -0.0169 -0.2688
  119OSM   H18F12543   1.295   2.760   5.237 -0.6843 -3.3531 -2.1527
  119OSM   H18G12544   1.341   2.780   5.411 -3.2238 -2.1026  0.8965
  119OSM   H18H12545   1.305   2.621   5.341 -0.1918 -0.7051 -2.0463
  120OSM      N12546   4.718   2.351   7.261 -0.0328 -0.0493  1.3331
  120OSM    C1512547   4.874   2.343   7.239  0.8573  0.1594 -0.0174
  120OSM   H15A12548   4.927   2.274   7.302  1.5508  0.2438 -0.4938
  120OSM   H15B12549   4.912   2.443   7.250 -2.2512  1.4742 -0.1646
  120OSM   H15C12550   4.899   2.318   7.137  1.1467  1.6802 -0.3445
  120OSM    C1412551   4.644   2.234   7.199 -0.8878 -0.2703  0.4289
  120OSM   H14A12552   4.682   2.136   7.224 -1.9534 -1.1510 -1.2268
  120OSM   H14B12553   4.650   2.245   7.092  0.8715  0.5081  0.5700
  120OSM   H14C12554   4.542   2.227   7.234 -1.2468 -0.1846 -0.5747
  120OSM    C1312555   4.702   2.336   7.405 -0.6810 -0.0099 -0.3659
  120OSM   H13A12556   4.766   2.258   7.443 -2.7545 -1.5933  0.0525
  120OSM   H13B12557   4.601   2.315   7.437  0.4489 -0.4076  3.3738
  120OSM   H13C12558   4.723   2.432   7.450 -3.4287  1.6396 -2.2788
  120OSM    C1212559   4.663   2.477   7.210  0.6213  0.3581  0.4668
  120OSM   H12A12560   4.708   2.562   7.258  2.5937  0.8531 -2.0079
  120OSM   H12B12561   4.557   2.479   7.228  0.5551 -1.4937  0.5110
  120OSM    C1112562   4.683   2.505   7.059  0.1988 -0.4030 -0.6616
  120OSM   H11A12563   4.793   2.509   7.044  0.1915 -2.6317 -1.5998
  120OSM   H11B12564   4.626   2.600   7.051 -2.0316 -1.5292  0.7284
  120OSM      P12565   4.469   2.395   6.923 -0.2521 -0.1921 -0.1718
  120OSM    O1312566   4.445   2.258   6.870 -0.2087 -0.0616  0.1629
  120OSM    O1412567   4.379   2.449   7.027  0.1148 -0.2658 -0.1841
  120OSM    O1112568   4.466   2.498   6.807 -0.0982 -0.0107 -0.1582
  120OSM    O1212569   4.618   2.408   6.972  0.0647 -0.0141 -0.8864
  120OSM    C1S12570   4.582   2.511   6.723 -0.2665 -0.1458  0.8813
  120OSM    H1S12571   4.636   2.415   6.713  1.3248  0.6912  1.0288
  120OSM    H1T12572   4.657   2.584   6.760  1.7830 -2.0468  0.6266
  120OSM     NF12573   4.638   2.537   6.481  1.1941 -0.0482 -0.7798
  120OSM    HNF12574   4.688   2.621   6.462  0.8166  0.6130  0.9932
  120OSM    C2S12575   4.536   2.558   6.580 -0.7024 -0.4532 -0.3852
  120OSM    H2S12576   4.453   2.494   6.542 -1.7293  0.4910  0.1965
  120OSM    C3S12577   4.484   2.704   6.596  0.3640 -0.2566 -0.0963
  120OSM    H3S12578   4.567   2.767   6.633 -0.3580 -0.4124  1.9666
  120OSM     O312579   4.385   2.719   6.698  0.6837 -0.0396 -0.5256
  120OSM    HO312580   4.390   2.632   6.740 -4.0766  0.3284  1.4779
  120OSM    C4S12581   4.440   2.750   6.460  0.7107  0.2921  0.8681
  120OSM    H4S12582   4.511   2.818   6.411  0.7277  0.1133  0.6418
  120OSM    C5S12583   4.314   2.733   6.413  0.4011 -0.3304  0.3946
  120OSM    H5S12584   4.244   2.660   6.457  2.9600 -2.7039  0.8512
  120OSM    C6S12585   4.262   2.802   6.291  0.3880 -0.6741  0.2090
  120OSM    H6S12586   4.187   2.879   6.319  3.5543  3.8528 -2.5428
  120OSM    H6T12587   4.193   2.729   6.243  0.0581  0.9311 -1.9049
  120OSM    C7S12588   4.366   2.858   6.194  0.6831 -0.6358  0.4174
  120OSM    H7S12589   4.447   2.790   6.162  1.8099  0.8748 -0.0894
  120OSM    H7T12590   4.420   2.948   6.230  0.1012 -0.4508  0.8450
  120OSM    C8S12591   4.286   2.914   6.067  0.3837  0.0995 -0.6377
  120OSM    H8S12592   4.202   2.973   6.109  0.1642 -0.9445  0.4196
  120OSM    H8T12593   4.257   2.833   5.996  1.7470  0.2317 -1.3880
  120OSM    C9S12594   4.372   3.020   6.000  0.0813 -0.0301 -0.0718
  120OSM    H9S12595   4.473   2.975   5.988 -0.1652 -0.4576 -0.5798
  120OSM    H9T12596   4.379   3.099   6.078  0.8637  0.2274 -0.3963
  120OSM   C10S12597   4.316   3.060   5.860  0.1401  0.1096 -1.7253
  120OSM   H10S12598   4.299   2.965   5.804 -1.0950  0.5765 -2.1900
  120OSM   H10T12599   4.396   3.119   5.811 -0.6609  2.2033 -0.6444
  120OSM   C11S12600   4.177   3.135   5.874 -1.1097  0.1682 -0.0084
  120OSM   H11S12601   4.193   3.244   5.885 -2.3759  0.5241 -1.3114
  120OSM   H11T12602   4.124   3.090   5.962  1.3828 -1.7251  0.6283
  120OSM   C12S12603   4.084   3.119   5.754  0.0598  0.6474  0.3783
  120OSM   H12S12604   4.057   3.012   5.739  0.9011 -0.2074  3.9459
  120OSM   H12T12605   4.133   3.158   5.662  1.3750 -1.2575  0.2056
  120OSM   C13S12606   3.957   3.208   5.774 -0.9578  0.6913 -0.0476
  120OSM   H13S12607   3.979   3.305   5.822 -0.3064  0.6780 -0.3126
  120OSM   H13T12608   3.886   3.146   5.834 -0.6435 -0.0748 -0.4483
  120OSM   C14S12609   3.892   3.233   5.639  0.1497 -0.4067  0.0954
  120OSM   H14S12610   3.882   3.133   5.592 -0.2313 -0.8583  1.1164
  120OSM   H14T12611   3.957   3.306   5.586  1.7420  0.8644  3.5004
  120OSM   C15S12612   3.757   3.316   5.646 -0.3843 -0.0590 -0.0666
  120OSM   H15S12613   3.782   3.384   5.730  0.9956 -1.0003  0.3118
  120OSM   H15T12614   3.669   3.260   5.683  0.7422 -2.1281 -0.4062
  120OSM   C16S12615   3.731   3.397   5.520  0.6530  0.5866  0.7761
  120OSM   H16S12616   3.817   3.461   5.491 -0.7036  2.2834  0.2729
  120OSM   H16T12617   3.647   3.466   5.544  0.3376  0.8080 -0.8417
  120OSM   C17S12618   3.707   3.311   5.397 -0.0289  0.2665  0.3797
  120OSM   H17S12619   3.642   3.223   5.421  0.4846 -0.1060  0.4299
  120OSM   H17T12620   3.805   3.277   5.358  0.7573  1.0400  1.6368
  120OSM   C18S12621   3.640   3.386   5.283  0.0896  0.6090 -0.0233
  120OSM   H18S12622   3.706   3.472   5.257  0.3611  0.5898  0.6080
  120OSM   H18T12623   3.541   3.426   5.314 -0.0075 -0.8025  1.6272
  120OSM   H18U12624   3.640   3.329   5.187 -1.8955 -0.9955  0.8767
  120OSM    C1F12625   4.660   2.427   6.408  0.8453 -0.1284  0.3551
  120OSM     OF12626   4.599   2.321   6.425 -0.0707 -0.1866 -0.1882
  120OSM    C2F12627   4.766   2.446   6.302 -0.6028 -0.0130 -0.5012
  120OSM    H2F12628   4.863   2.436   6.355  1.2997  1.1093 -3.5237
  120OSM    H2G12629   4.765   2.550   6.266  0.2489  0.0463 -0.3724
  120OSM    C3F12630   4.763   2.336   6.194  0.2478  0.1282  0.2907
  120OSM    H3F12631   4.658   2.315   6.164  0.3037  0.2082  0.0371
  120OSM    H3G12632   4.809   2.240   6.224  1.8603  0.3543 -1.2940
  120OSM    C4F12633   4.841   2.377   6.073 -0.0076 -0.1018 -0.0630
  120OSM    H4F12634   4.866   2.286   6.013 -0.4904 -0.7588  0.7004
  120OSM    H4G12635   4.942   2.414   6.102  0.9823 -1.5817 -1.4616
  120OSM    C5F12636   4.764   2.467   5.981 -0.0804 -0.4733  0.3011
  120OSM    H5F12637   4.729   2.556   6.038  1.8477  0.2907  0.3728
  120OSM    H5G12638   4.677   2.405   5.951  1.6416 -2.3089 -1.1020
  120OSM    C6F12639   4.847   2.512   5.857 -0.7184  0.1695  0.5780
  120OSM    H6F12640   4.898   2.425   5.809  1.4969  0.8518  1.5605
  120OSM    H6G12641   4.936   2.560   5.902  1.5141 -2.6702 -0.4941
  120OSM    C7F12642   4.762   2.581   5.744  0.5041 -0.2281 -0.3314
  120OSM    H7F12643   4.822   2.675   5.737 -0.3900  0.2848 -1.4686
  120OSM    H7G12644   4.662   2.597   5.791  0.6722 -0.4956  0.1263
  120OSM    C8F12645   4.772   2.506   5.612 -0.1985 -0.5690  0.0084
  120OSM    H8F12646   4.740   2.400   5.625 -1.2704 -0.2242  0.2884
  120OSM    H8G12647   4.879   2.499   5.585  0.5616 -0.0245  2.6275
  120OSM    C9F12648   4.690   2.580   5.514  0.2340 -0.8769  0.0384
  120OSM    H9F12649   4.601   2.622   5.563  0.3702  0.7000 -0.9994
  120OSM   C10F12650   4.699   2.597   5.380  0.0261 -0.1699  0.3129
  120OSM   H10F12651   4.612   2.639   5.328  0.4505  0.1352 -0.1535
  120OSM   C11F12652   4.802   2.526   5.291  0.5060 -0.5237  0.1826
  120OSM   H11F12653   4.902   2.561   5.322 -0.7100  1.0660  2.6932
  120OSM   H11G12654   4.783   2.549   5.184 -0.5513 -2.2942 -0.0578
  120OSM   C12F12655   4.795   2.371   5.302 -0.3573 -0.0637 -0.6336
  120OSM   H12F12656   4.694   2.336   5.275 -0.9362 -1.0272  2.4746
  120OSM   H12G12657   4.811   2.357   5.411  1.4572 -0.2431 -0.8799
  120OSM   C13F12658   4.901   2.290   5.225 -0.6267 -0.0658 -0.8549
  120OSM   H13F12659   4.872   2.183   5.216 -0.3503 -0.1794 -0.4051
  120OSM   H13G12660   4.992   2.291   5.288 -1.6337 -2.3221  0.7731
  120OSM   C14F12661   4.923   2.341   5.080 -0.0432 -0.2065  0.7724
  120OSM   H14F12662   4.967   2.442   5.092  1.6352 -0.9991  1.6347
  120OSM   H14G12663   4.827   2.361   5.027  1.0068  0.2086 -1.0243
  120OSM   C15F12664   5.019   2.255   4.997  0.3829 -0.1751 -0.5456
  120OSM   H15F12665   4.976   2.153   5.006  1.8557 -1.1486 -3.1791
  120OSM   H15G12666   5.122   2.256   5.039  0.6322  2.0241 -1.0776
  120OSM   C16F12667   5.010   2.289   4.845  0.3702 -0.3008 -0.3679
  120OSM   H16F12668   5.067   2.383   4.825 -0.1122 -0.2310 -1.4580
  120OSM   H16G12669   4.903   2.307   4.820 -0.0173 -0.5765  0.9875
  120OSM   C17F12670   5.069   2.173   4.768 -0.2264 -0.1571  0.2060
  120OSM   H17F12671   4.993   2.092   4.762  1.2443 -1.4782 -2.8145
  120OSM   H17G12672   5.167   2.147   4.814 -1.1201 -2.0731  1.1394
  120OSM   C18F12673   5.096   2.218   4.619 -0.3591  0.1826  0.0996
  120OSM   H18F12674   5.152   2.313   4.606  0.4388 -0.5922 -2.7405
  120OSM   H18G12675   4.995   2.227   4.574  0.0494 -2.1799 -1.5112
  120OSM   H18H12676   5.148   2.137   4.564 -1.0834  0.0148 -0.3527
  121OSM      N12677   1.456   4.508   6.869 -0.2314  0.2009  0.8668
  121OSM    C1512678   1.399   4.368   6.833 -0.1773 -0.3381  0.5607
  121OSM   H15A12679   1.319   4.384   6.761  0.3474 -1.8153 -0.4066
  121OSM   H15B12680   1.354   4.317   6.916 -0.3603  0.4191  0.9370
  121OSM   H15C12681   1.476   4.316   6.778 -0.0397  0.4870 -0.0499
  121OSM    C1412682   1.568   4.488   6.971  0.2037 -0.0036  0.3547
  121OSM   H14A12683   1.605   4.586   6.996  2.2374 -0.7826  0.5216
  121OSM   H14B12684   1.652   4.434   6.931 -0.7146  0.4054 -2.3114
  121OSM   H14C12685   1.528   4.436   7.058  0.4283 -0.3086  0.2774
  121OSM    C1312686   1.524   4.545   6.734  0.9490  0.0813  0.1030
  121OSM   H13A12687   1.597   4.468   6.711  0.9780  0.3615 -0.7885
  121OSM   H13B12688   1.570   4.643   6.735 -1.0541  1.0674 -0.0114
  121OSM   H13C12689   1.453   4.535   6.653 -0.7732 -1.9231  1.7207
  121OSM    C1212690   1.344   4.602   6.913  0.0109 -0.2435  0.8410
  121OSM   H12A12691   1.387   4.690   6.957 -1.6131 -0.8282  3.8268
  121OSM   H12B12692   1.294   4.557   6.997  1.1210 -0.8092  1.2257
  121OSM    C1112693   1.233   4.632   6.809  0.5664 -0.1129 -0.1589
  121OSM   H11A12694   1.281   4.667   6.715  0.8937  1.1165  0.4480
  121OSM   H11B12695   1.174   4.723   6.832 -0.3589 -0.7279 -0.0365
  121OSM      P12696   1.001   4.526   6.848 -0.2842  0.4071  0.0965
  121OSM    O1312697   0.940   4.392   6.831 -0.7320  0.1313 -0.5654
  121OSM    O1412698   1.006   4.585   6.988  0.2213 -0.5599  0.8358
  121OSM    O1112699   0.926   4.625   6.753  0.4671  0.7715 -0.8663
  121OSM    O1212700   1.147   4.515   6.785  0.1764 -0.3776 -0.7144
  121OSM    C1S12701   0.960   4.621   6.612  0.0894  0.1250  0.8212
  121OSM    H1S12702   1.052   4.563   6.591  1.1279  2.1400 -0.4911
  121OSM    H1T12703   0.983   4.722   6.571  1.5360  0.5985  2.6572
  121OSM     NF12704   0.874   4.533   6.394  0.5418 -0.0148  0.7540
  121OSM    HNF12705   0.862   4.603   6.325 -0.0745  0.6571  1.5229
  121OSM    C2S12706   0.841   4.560   6.532 -0.1438 -0.2359  0.0058
  121OSM    H2S12707   0.804   4.470   6.585 -0.0884 -0.0655  0.3426
  121OSM    C3S12708   0.735   4.671   6.534  0.0240  0.1270 -0.1980
  121OSM    H3S12709   0.768   4.757   6.472 -1.8510  0.1869 -1.1908
  121OSM     O312710   0.713   4.731   6.659 -0.0362  0.2532 -0.3001
  121OSM    HO312711   0.786   4.705   6.715  1.0070  0.8313 -1.3387
  121OSM    C4S12712   0.609   4.637   6.457 -0.0886 -0.3869 -0.3958
  121OSM    H4S12713   0.586   4.704   6.373 -1.7041  2.9434  2.4442
  121OSM    C5S12714   0.515   4.545   6.494 -0.4060  0.6779 -0.4951
  121OSM    H5S12715   0.528   4.492   6.590 -3.6305 -0.3491 -0.5089
  121OSM    C6S12716   0.393   4.503   6.413 -0.3222  0.2617  0.2038
  121OSM    H6S12717   0.309   4.543   6.473 -1.1980 -2.1107  0.6976
  121OSM    H6T12718   0.376   4.393   6.417 -1.7126  0.4351 -0.6637
  121OSM    C7S12719   0.386   4.555   6.266  0.0953  0.3520 -0.1660
  121OSM    H7S12720   0.463   4.499   6.210  1.8196  0.6689  1.7802
  121OSM    H7T12721   0.409   4.663   6.262 -0.7990  0.5198 -1.2912
  121OSM    C8S12722   0.253   4.526   6.183 -0.6242 -0.9014 -0.2361
  121OSM    H8S12723   0.169   4.585   6.225  0.1708  1.3740 -1.6582
  121OSM    H8T12724   0.234   4.417   6.192 -0.1410 -0.8777  1.6097
  121OSM    C9S12725   0.260   4.565   6.038 -1.5938  0.3514 -0.1047
  121OSM    H9S12726   0.361   4.551   5.993 -1.6116  1.9523 -0.6975
  121OSM    H9T12727   0.227   4.670   6.024 -0.3707  0.5046 -2.2586
  121OSM   C10S12728   0.170   4.475   5.956 -0.2723 -0.2488  0.0926
  121OSM   H10S12729   0.070   4.479   6.002 -0.4183 -0.9853 -0.1413
  121OSM   H10T12730   0.198   4.367   5.965 -1.5777 -0.7301 -1.1841
  121OSM   C11S12731   0.168   4.514   5.804 -0.6855 -1.0646 -0.0685
  121OSM   H11S12732   0.146   4.622   5.792  0.3342 -0.7523  0.7384
  121OSM   H11T12733   0.086   4.465   5.746  0.4696 -0.6962 -2.0889
  121OSM   C12S12734   0.297   4.473   5.736 -0.3151 -0.1027  0.1482
  121OSM   H12S12735   0.307   4.363   5.746  1.7688 -0.1365 -1.6102
  121OSM   H12T12736   0.384   4.514   5.792 -0.1893  1.2394 -0.9794
  121OSM   C13S12737   0.303   4.526   5.592 -0.9629 -0.2618 -0.2550
  121OSM   H13S12738   0.404   4.522   5.545 -1.1720  2.2578 -1.1012
  121OSM   H13T12739   0.277   4.634   5.591 -1.4176 -0.3566 -2.2099
  121OSM   C14S12740   0.207   4.459   5.498 -0.8220 -0.3280 -0.2387
  121OSM   H14S12741   0.217   4.508   5.399  1.4743  2.8418  1.3556
  121OSM   H14T12742   0.102   4.479   5.529 -0.3964  2.2186 -0.1645
  121OSM   C15S12743   0.222   4.305   5.492 -0.0963 -0.2603  0.8037
  121OSM   H15S12744   0.128   4.273   5.442 -0.5712  0.5510  1.1465
  121OSM   H15T12745   0.223   4.257   5.592  2.4214  0.2410  1.0997
  121OSM   C16S12746   0.342   4.249   5.411  0.1452 -0.2413  0.0086
  121OSM   H16S12747   0.340   4.139   5.430  0.6342 -0.0432  1.2751
  121OSM   H16T12748   0.442   4.283   5.443  1.8557 -2.9518 -1.9870
  121OSM   C17S12749   0.331   4.273   5.264 -0.3797  1.4827  0.7973
  121OSM   H17S12750   0.342   4.383   5.248 -3.2006  1.4865 -2.0332
  121OSM   H17T12751   0.229   4.250   5.227  0.4167 -1.0007 -0.0616
  121OSM   C18S12752   0.428   4.189   5.178  0.5603 -0.2056 -0.5720
  121OSM   H18S12753   0.394   4.208   5.074 -0.9357 -1.5173 -0.3541
  121OSM   H18T12754   0.421   4.080   5.193 -0.0878 -0.2931 -1.4147
  121OSM   H18U12755   0.529   4.233   5.192  0.5930 -0.2157 -0.7767
  121OSM    C1F12756   0.950   4.426   6.381  0.6470  0.6576  0.1651
  121OSM     OF12757   0.975   4.362   6.481  0.0685 -0.3355 -0.0521
  121OSM    C2F12758   1.006   4.392   6.243  0.3207 -0.1678  0.1384
  121OSM    H2F12759   1.059   4.486   6.215 -0.4416  0.1270 -0.3158
  121OSM    H2G12760   0.932   4.370   6.163 -0.5219  0.0656  0.8359
  121OSM    C3F12761   1.108   4.281   6.258 -0.9780  0.6824  1.0824
  121OSM    H3F12762   1.062   4.191   6.305  1.2392 -2.0493 -1.5666
  121OSM    H3G12763   1.182   4.307   6.337 -1.0199 -0.4533  1.5140
  121OSM    C4F12764   1.176   4.250   6.115 -0.2558  0.3566 -0.6159
  121OSM    H4F12765   1.083   4.215   6.065 -2.6835  4.3234  0.6293
  121OSM    H4G12766   1.251   4.172   6.139 -1.2325 -0.3572  0.2519
  121OSM    C5F12767   1.245   4.363   6.045  0.4632  0.1551  0.3847
  121OSM    H5F12768   1.329   4.404   6.105 -1.1985 -0.5131  3.4221
  121OSM    H5G12769   1.171   4.443   6.022  0.3239  0.3944  1.6042
  121OSM    C6F12770   1.300   4.320   5.910 -0.3127  0.0524  0.6275
  121OSM    H6F12771   1.349   4.221   5.915  0.8351  0.4833 -1.2744
  121OSM    H6G12772   1.367   4.401   5.874  0.1708 -0.3292  0.6714
  121OSM    C7F12773   1.194   4.306   5.801  0.0626  0.7269 -0.9016
  121OSM    H7F12774   1.147   4.406   5.788 -0.9029  0.0644 -2.7968
  121OSM    H7G12775   1.108   4.246   5.838  0.1795  1.2435  0.2624
  121OSM    C8F12776   1.245   4.248   5.670 -0.5286 -1.1660  0.4386
  121OSM    H8F12777   1.324   4.320   5.641 -2.1935  0.5204 -0.0723
  121OSM    H8G12778   1.169   4.267   5.592  0.2837 -1.1808 -0.3795
  121OSM    C9F12779   1.279   4.107   5.660  0.7084 -0.1649 -0.9902
  121OSM    H9F12780   1.257   4.049   5.751  1.4312  0.4756 -0.3900
  121OSM   C10F12781   1.338   4.043   5.564  0.1618 -0.2967  0.1022
  121OSM   H10F12782   1.350   3.936   5.586  1.3308 -0.0991  0.4707
  121OSM   C11F12783   1.396   4.095   5.429 -0.0984 -0.1416 -0.7606
  121OSM   H11F12784   1.495   4.054   5.398  0.3846  0.2478  0.2246
  121OSM   H11G12785   1.410   4.204   5.442  3.2262 -0.5674  0.3714
  121OSM   C12F12786   1.298   4.073   5.310 -0.3895 -0.2718  0.1826
  121OSM   H12F12787   1.199   4.115   5.336 -0.7036 -0.8560 -0.0600
  121OSM   H12G12788   1.288   3.964   5.294  0.2273 -0.3570  0.3656
  121OSM   C13F12789   1.362   4.130   5.184  0.4570 -0.0547 -0.1957
  121OSM   H13F12790   1.458   4.077   5.169  0.5494 -0.3206  1.1671
  121OSM   H13G12791   1.367   4.241   5.185 -0.1036 -0.0239  1.5449
  121OSM   C14F12792   1.277   4.088   5.063  0.7912  0.5628  0.8829
  121OSM   H14F12793   1.185   4.150   5.071  0.9514  1.4553 -2.5120
  121OSM   H14G12794   1.249   3.982   5.075  2.3689 -0.0281 -0.3557
  121OSM   C15F12795   1.336   4.093   4.924  0.1002  0.2292 -0.1343
  121OSM   H15F12796   1.434   4.042   4.915  0.4631  1.0066 -0.7369
  121OSM   H15G12797   1.361   4.198   4.897  0.9931 -0.3579 -1.6769
  121OSM   C16F12798   1.254   4.035   4.818  0.5962  0.3506 -0.0000
  121OSM   H16F12799   1.210   3.935   4.836  0.6904  0.0077 -1.5198
  121OSM   H16G12800   1.316   4.030   4.725  1.6673 -0.6781  0.7407
  121OSM   C17F12801   1.135   4.130   4.789 -0.1257 -0.2370  0.9096
  121OSM   H17F12802   1.069   4.133   4.878 -1.9018  1.6066 -0.3682
  121OSM   H17G12803   1.080   4.073   4.712 -0.1508 -0.8845  1.3964
  121OSM   C18F12804   1.178   4.266   4.732 -0.3169 -0.3000  0.5262
  121OSM   H18F12805   1.259   4.248   4.657 -1.8910 -1.3935 -0.9717
  121OSM   H18G12806   1.219   4.322   4.819 -0.5914 -1.2491  1.2885
  121OSM   H18H12807   1.087   4.317   4.694  0.8378  2.3153  1.0074
  122OSM      N12808   4.678   0.243   6.856  0.5067 -0.1912 -1.0012
  122OSM    C1512809   4.818   0.298   6.843 -0.0434  0.8174 -0.2911
  122OSM   H15A12810   4.892   0.247   6.902 -0.2803 -0.4857 -1.0818
  122OSM   H15B12811   4.815   0.406   6.848 -1.3030  0.7522  1.0643
  122OSM   H15C12812   4.852   0.263   6.747  1.5078 -0.5051  0.7002
  122OSM    C1412813   4.675   0.119   6.779  0.2253  0.1362  0.1287
  122OSM   H14A12814   4.577   0.074   6.779  0.0430  0.2868  3.5019
  122OSM   H14B12815   4.730   0.036   6.821  1.7445  0.6628 -0.7536
  122OSM   H14C12816   4.697   0.132   6.674  0.2622  2.6108  0.3826
  122OSM    C1312817   4.640   0.230   7.003 -0.5763  0.5504  0.4865
  122OSM   H13A12818   4.641   0.325   7.054 -0.4076  1.3989 -1.0485
  122OSM   H13B12819   4.703   0.154   7.047 -1.3420 -0.9892 -0.9426
  122OSM   H13C12820   4.543   0.184   7.014 -0.9661  1.5496  1.3106
  122OSM    C1212821   4.586   0.341   6.779  0.2439 -0.3045  0.4343
  122OSM   H12A12822   4.501   0.285   6.742  2.0128 -2.4348 -0.6432
  122OSM   H12B12823   4.631   0.369   6.684  0.6463 -2.2469  0.0234
  122OSM    C1112824   4.546   0.470   6.843 -0.4602 -0.4057 -0.1041
  122OSM   H11A12825   4.476   0.461   6.929 -0.6011 -0.4316 -0.2206
  122OSM   H11B12826   4.491   0.532   6.769  1.0283  1.0800 -0.0167
  122OSM      P12827   4.631   0.702   6.934 -0.1187  0.2739 -0.0864
  122OSM    O1312828   4.519   0.707   7.034  0.3945 -0.5371  0.1776
  122OSM    O1412829   4.763   0.749   6.988 -0.3925  0.4115 -0.4992
  122OSM    O1112830   4.581   0.780   6.810  0.0312  0.4392 -0.0634
  122OSM    O1212831   4.648   0.553   6.879 -0.1630  0.4904  0.4329
  122OSM    C1S12832   4.654   0.765   6.682  0.2331 -0.2973 -0.1944
  122OSM    H1S12833   4.605   0.686   6.621  1.2294 -0.1376 -1.2393
  122OSM    H1T12834   4.764   0.752   6.689  0.5787  2.0752 -0.3810
  122OSM     NF12835   4.670   0.833   6.449  0.1227  0.2230  0.4688
  122OSM    HNF12836   4.768   0.847   6.442  0.1749  0.6364  1.8016
  122OSM    C2S12837   4.623   0.881   6.585 -1.2988 -0.0810 -0.5035
  122OSM    H2S12838   4.515   0.904   6.579 -1.6447 -1.2288  0.7168
  122OSM    C3S12839   4.705   1.002   6.635  0.1019 -0.0609 -0.0362
  122OSM    H3S12840   4.812   0.974   6.626  0.2659  0.3136  0.6472
  122OSM     O312841   4.678   1.025   6.772  0.0939  0.3181  0.4030
  122OSM    HO312842   4.636   0.942   6.794  1.0739 -0.2450  0.1765
  122OSM    C4S12843   4.671   1.119   6.558  0.8843 -0.2973 -0.6040
  122OSM    H4S12844   4.573   1.162   6.585  1.4570  1.2146 -0.8508
  122OSM    C5S12845   4.756   1.187   6.480  0.6179 -1.7038  0.3610
  122OSM    H5S12846   4.862   1.160   6.468  0.2925 -2.3102 -1.4721
  122OSM    C6S12847   4.718   1.309   6.405  0.4314  0.0195 -0.4056
  122OSM    H6S12848   4.755   1.394   6.465  0.1917  0.6391 -1.1121
  122OSM    H6T12849   4.609   1.335   6.404  0.9859  2.7300 -1.8263
  122OSM    C7S12850   4.777   1.326   6.262  0.4168  1.0445 -0.0829
  122OSM    H7S12851   4.741   1.243   6.197  0.7762  0.8229 -0.0056
  122OSM    H7T12852   4.887   1.309   6.264  0.1289 -1.0734  0.5606
  122OSM    C8S12853   4.746   1.465   6.207  1.1606 -1.1196  0.4053
  122OSM    H8S12854   4.798   1.526   6.285  2.0383 -1.1416 -0.1432
  122OSM    H8T12855   4.636   1.475   6.205  1.0013 -2.7691 -0.2247
  122OSM    C9S12856   4.803   1.500   6.071 -0.0477  0.4799  0.5904
  122OSM    H9S12857   4.909   1.534   6.069  0.3280 -0.6584  0.0159
  122OSM    H9T12858   4.757   1.593   6.030 -0.6063 -0.4580 -0.9918
  122OSM   C10S12859   4.787   1.395   5.955 -1.0498  0.9318 -0.2381
  122OSM   H10S12860   4.685   1.350   5.956 -1.1011  1.0219 -0.8380
  122OSM   H10T12861   4.862   1.313   5.962  1.7211  3.1802 -1.6076
  122OSM   C11S12862   4.808   1.468   5.822  0.1638  0.5883  0.0432
  122OSM   H11S12863   4.910   1.453   5.780 -0.0287 -0.0571 -0.2056
  122OSM   H11T12864   4.793   1.578   5.834 -1.0696  0.5250 -0.7344
  122OSM   C12S12865   4.708   1.422   5.717  0.4006 -0.0318 -1.2952
  122OSM   H12S12866   4.730   1.486   5.628  1.0410  0.2737 -0.9289
  122OSM   H12T12867   4.602   1.440   5.746  0.0787 -1.2920 -1.6490
  122OSM   C13S12868   4.740   1.275   5.678 -0.3348  0.2224  0.0653
  122OSM   H13S12869   4.724   1.196   5.754 -0.5959 -0.9365 -1.1658
  122OSM   H13T12870   4.846   1.258   5.650 -0.0469  0.9071  0.6996
  122OSM   C14S12871   4.650   1.242   5.553  0.1486  0.3370 -0.5473
  122OSM   H14S12872   4.699   1.168   5.487  0.8735  0.5541 -0.2599
  122OSM   H14T12873   4.645   1.344   5.508  1.8503  0.6507 -0.0694
  122OSM   C15S12874   4.506   1.189   5.573  0.3999 -0.2453  0.3306
  122OSM   H15S12875   4.457   1.256   5.647 -0.5351 -0.9730  0.3810
  122OSM   H15T12876   4.517   1.088   5.618 -1.2906  0.1449  1.7265
  122OSM   C16S12877   4.424   1.185   5.435 -0.1328 -0.8059 -0.5100
  122OSM   H16S12878   4.487   1.136   5.358  1.4076 -1.3771  1.0578
  122OSM   H16T12879   4.414   1.292   5.407  1.8382 -0.4604 -0.0675
  122OSM   C17S12880   4.283   1.124   5.443  0.0083 -1.0758  0.3645
  122OSM   H17S12881   4.298   1.015   5.456 -0.6828 -1.4203 -1.4361
  122OSM   H17T12882   4.223   1.131   5.349 -0.9778 -1.1695  0.9705
  122OSM   C18S12883   4.199   1.192   5.560 -0.0964  0.0182  0.2314
  122OSM   H18S12884   4.247   1.200   5.659 -0.5152 -0.1324  0.4518
  122OSM   H18T12885   4.111   1.126   5.580 -1.3747  1.5978 -0.0023
  122OSM   H18U12886   4.139   1.278   5.523  0.9904  0.7682  0.1687
  122OSM    C1F12887   4.595   0.746   6.373 -0.0702  0.0554  0.6333
  122OSM     OF12888   4.482   0.722   6.412 -0.6189  0.1606  0.4237
  122OSM    C2F12889   4.654   0.673   6.257 -0.3886  0.7540  0.0082
  122OSM    H2F12890   4.653   0.562   6.262  0.7243  0.7064 -0.5455
  122OSM    H2G12891   4.763   0.692   6.249 -0.4057  1.4082  1.2097
  122OSM    C3F12892   4.598   0.728   6.119  0.5792 -0.0963 -0.1561
  122OSM    H3F12893   4.582   0.838   6.120  1.6171  0.0638  0.4300
  122OSM    H3G12894   4.496   0.686   6.109  0.8456 -0.7806 -0.0872
  122OSM    C4F12895   4.695   0.699   6.004 -0.1817 -0.4018 -0.0019
  122OSM    H4F12896   4.710   0.589   6.012 -0.1985 -0.2978  1.8054
  122OSM    H4G12897   4.795   0.739   6.029  0.1832 -0.3291 -1.4893
  122OSM    C5F12898   4.634   0.733   5.866 -0.6087  0.1786  0.4377
  122OSM    H5F12899   4.626   0.843   5.853  0.3229  0.2170  0.1132
  122OSM    H5G12900   4.537   0.678   5.869 -0.0095 -0.9057  0.6693
  122OSM    C6F12901   4.718   0.670   5.745 -0.4463 -1.0663  0.0206
  122OSM    H6F12902   4.742   0.568   5.783  0.8473 -0.3284  1.2991
  122OSM    H6G12903   4.816   0.721   5.727 -0.8491 -0.6216 -0.9970
  122OSM    C7F12904   4.642   0.667   5.612  0.2845 -0.6991  0.0833
  122OSM    H7F12905   4.548   0.615   5.638 -0.1246 -0.1135 -0.2083
  122OSM    H7G12906   4.691   0.607   5.532 -0.1353  0.9416 -1.4956
  122OSM    C8F12907   4.595   0.804   5.558 -0.2747  0.4359  0.0288
  122OSM    H8F12908   4.689   0.857   5.532 -1.6798  2.1510 -1.8461
  122OSM    H8G12909   4.556   0.863   5.644  0.1012 -0.5593  0.8937
  122OSM    C9F12910   4.494   0.791   5.456 -0.2352 -0.8047  0.1351
  122OSM    H9F12911   4.393   0.812   5.493 -0.2552 -4.0938  2.2672
  122OSM   C10F12912   4.525   0.781   5.319  0.4470  0.0830  0.8651
  122OSM   H10F12913   4.437   0.767   5.255  0.8173 -2.4140  0.8060
  122OSM   C11F12914   4.653   0.782   5.245  0.5015  0.1758  0.4092
  122OSM   H11F12915   4.653   0.688   5.186  1.7448 -1.2605  2.5354
  122OSM   H11G12916   4.740   0.770   5.313  0.9841  2.1152  0.2067
  122OSM   C12F12917   4.682   0.902   5.148  0.1676  0.3196  0.6592
  122OSM   H12F12918   4.779   0.881   5.098 -0.8815  0.7080 -1.6606
  122OSM   H12G12919   4.705   0.987   5.215  0.5414 -0.1217  1.1013
  122OSM   C13F12920   4.559   0.915   5.056 -0.4182  0.7949 -0.1624
  122OSM   H13F12921   4.473   0.963   5.108 -0.8913 -0.1508 -0.0443
  122OSM   H13G12922   4.520   0.815   5.027 -0.4408  0.3811  1.2122
  122OSM   C14F12923   4.592   0.989   4.928  0.1896  0.3349  0.2364
  122OSM   H14F12924   4.687   0.957   4.880  0.4564 -0.0605  1.0043
  122OSM   H14G12925   4.598   1.097   4.955 -2.5003  0.0906  2.3159
  122OSM   C15F12926   4.482   0.962   4.816 -0.5153  0.4052  0.1754
  122OSM   H15F12927   4.386   0.994   4.862 -1.0698  0.0734 -0.7299
  122OSM   H15G12928   4.475   0.854   4.790 -1.3790  0.9404 -2.0577
  122OSM   C16F12929   4.518   1.033   4.682  0.9436 -0.3138  0.6667
  122OSM   H16F12930   4.596   0.969   4.634  0.0138 -0.1698 -1.1051
  122OSM   H16G12931   4.574   1.127   4.698  0.0246  0.5763 -1.1181
  122OSM   C17F12932   4.400   1.048   4.583  0.0124  0.0021 -0.0963
  122OSM   H17F12933   4.363   0.953   4.540  0.6583  0.1271 -0.9446
  122OSM   H17G12934   4.433   1.100   4.491 -1.3143  0.8472 -0.1205
  122OSM   C18F12935   4.276   1.122   4.646  0.5983  0.4783  0.2199
  122OSM   H18F12936   4.247   1.065   4.736  2.4722  1.1906  1.3352
  122OSM   H18G12937   4.184   1.119   4.583  1.3589 -0.3683 -0.8835
  122OSM   H18H12938   4.316   1.223   4.669  2.4542  0.7210 -3.3155
  123OSM      N12939   1.461   6.325   1.929  0.5277  0.1583 -0.1788
  123OSM    C1512940   1.401   6.272   1.804  0.1351  0.6112 -0.5120
  123OSM   H15A12941   1.328   6.194   1.821  0.1692  1.1379  2.6478
  123OSM   H15B12942   1.475   6.234   1.735  0.3638 -0.5278  0.3173
  123OSM   H15C12943   1.350   6.349   1.749  1.7407  1.3160 -1.0558
  123OSM    C1412944   1.553   6.431   1.888  0.2522 -0.1268  0.5490
  123OSM   H14A12945   1.505   6.503   1.823 -0.6035 -0.0972  1.1964
  123OSM   H14B12946   1.625   6.375   1.830 -0.5061 -0.6085  0.0445
  123OSM   H14C12947   1.590   6.483   1.975  0.5577 -1.8951  1.5099
  123OSM    C1312948   1.351   6.386   2.018  0.3530 -0.6063  0.0158
  123OSM   H13A12949   1.392   6.412   2.115 -2.2104 -1.6003  1.4972
  123OSM   H13B12950   1.271   6.317   2.043  0.7874 -1.0588  0.1743
  123OSM   H13C12951   1.310   6.479   1.981  3.5312  0.7272 -0.4679
  123OSM    C1212952   1.529   6.218   2.008 -1.1081 -0.1843  0.1499
  123OSM   H12A12953   1.452   6.145   2.027 -1.4756 -0.5305 -2.3324
  123OSM   H12B12954   1.563   6.269   2.097 -0.2913 -1.2661  0.4774
  123OSM    C1112955   1.659   6.158   1.944  0.0833 -0.4372 -0.3866
  123OSM   H11A12956   1.638   6.119   1.842  2.1285  1.1065 -1.4882
  123OSM   H11B12957   1.683   6.072   2.010 -0.7717 -2.3231 -2.4089
  123OSM      P12958   1.896   6.237   2.029 -0.3887  0.4418 -0.2760
  123OSM    O1312959   1.975   6.117   2.002 -0.0328 -0.0878  0.1313
  123OSM    O1412960   1.967   6.366   2.008 -0.1983 -0.5539 -0.1286
  123OSM    O1112961   1.831   6.233   2.177 -0.8665  0.5985 -0.3706
  123OSM    O1212962   1.771   6.254   1.938  0.1043  0.2827 -0.0790
  123OSM    C1S12963   1.760   6.346   2.229  0.1918 -0.3770  0.5618
  123OSM    H1S12964   1.673   6.372   2.165  0.4044 -0.2375  0.3282
  123OSM    H1T12965   1.827   6.434   2.238 -0.1132  0.0439 -0.9539
  123OSM     NF12966   1.648   6.460   2.412 -0.1745  0.1674 -0.4296
  123OSM    HNF12967   1.713   6.513   2.466  0.0626  0.3338 -0.8711
  123OSM    C2S12968   1.703   6.331   2.368  0.5458  0.2374 -0.0992
  123OSM    H2S12969   1.614   6.265   2.364  0.5234  0.3073 -0.8909
  123OSM    C3S12970   1.802   6.259   2.470  0.0528  0.1895  0.7790
  123OSM    H3S12971   1.896   6.318   2.483  0.3915 -0.2986  0.6033
  123OSM     O312972   1.849   6.130   2.411 -0.7721 -0.3329  0.3448
  123OSM    HO312973   1.859   6.152   2.318  0.3007 -1.8952  0.0479
  123OSM    C4S12974   1.738   6.235   2.602  0.0408 -0.3518 -0.2209
  123OSM    H4S12975   1.779   6.300   2.680  0.6862 -1.3210  0.2727
  123OSM    C5S12976   1.654   6.136   2.638 -0.5674  0.8356 -0.1249
  123OSM    H5S12977   1.620   6.062   2.564 -0.5254 -0.0049  0.6767
  123OSM    C6S12978   1.606   6.111   2.777 -0.0534 -0.3796 -0.6099
  123OSM    H6S12979   1.653   6.024   2.829  0.9821  0.7787  0.4364
  123OSM    H6T12980   1.496   6.110   2.787 -0.0824  1.0341 -0.7132
  123OSM    C7S12981   1.656   6.224   2.878 -0.1583  0.4877  0.6730
  123OSM    H7S12982   1.623   6.326   2.853 -0.3346 -0.1091 -1.7780
  123OSM    H7T12983   1.767   6.219   2.869 -0.3246  0.9185 -2.4849
  123OSM    C8S12984   1.612   6.179   3.018  0.0634  0.5146  0.2936
  123OSM    H8S12985   1.653   6.076   3.030 -1.0617 -0.1683 -1.3516
  123OSM    H8T12986   1.503   6.177   3.035  0.2579  0.5471  1.6526
  123OSM    C9S12987   1.662   6.258   3.133 -0.0508 -0.0417 -0.8178
  123OSM    H9S12988   1.647   6.365   3.108 -2.2581  0.6608  2.8046
  123OSM    H9T12989   1.772   6.244   3.137 -0.0530 -0.1229 -1.0368
  123OSM   C10S12990   1.597   6.223   3.275  0.2409  0.0797  0.6284
  123OSM   H10S12991   1.590   6.113   3.288  1.8323 -0.7760 -4.0645
  123OSM   H10T12992   1.496   6.269   3.284  0.9896  1.7696  0.8306
  123OSM   C11S12993   1.673   6.271   3.401 -0.0329 -0.6506  0.2889
  123OSM   H11S12994   1.680   6.382   3.398 -0.7300 -0.5029  2.1854
  123OSM   H11T12995   1.777   6.234   3.408  0.5282  1.0678  2.2295
  123OSM   C12S12996   1.604   6.243   3.534 -0.0086 -1.0517  0.5670
  123OSM   H12S12997   1.507   6.297   3.534  0.7223  0.3987 -1.4325
  123OSM   H12T12998   1.665   6.292   3.612 -1.7661  0.2306  1.2162
  123OSM   C13S12999   1.592   6.095   3.569  0.2285 -0.5253  0.1065
  123OSM   H13S13000   1.697   6.061   3.581  0.1046 -0.8296  0.3333
  123OSM   H13T13001   1.542   6.036   3.489  2.3752  0.1297 -1.8390
  123OSM   C14S13002   1.527   6.074   3.710 -0.0981  0.2852  0.2324
  123OSM   H14S13003   1.522   5.963   3.717  1.7792  0.1445 -0.1674
  123OSM   H14T13004   1.421   6.106   3.714 -0.3141 -0.5015  1.7397
  123OSM   C15S13005   1.600   6.140   3.826 -0.0430  0.1653 -0.0596
  123OSM   H15S13006   1.616   6.246   3.797 -0.3283 -0.4509 -2.7300
  123OSM   H15T13007   1.704   6.101   3.823 -0.0156 -0.0297  1.9779
  123OSM   C16S13008   1.553   6.134   3.973  0.6972 -0.3864  0.2961
  123OSM   H16S13009   1.526   6.034   4.014  1.3049 -1.1459 -1.0802
  123OSM   H16T13010   1.455   6.185   3.974 -0.9034 -3.2422 -0.7790
  123OSM   C17S13011   1.650   6.198   4.070  0.5589 -0.5603 -0.0990
  123OSM   H17S13012   1.647   6.306   4.044 -0.3678 -0.1072  1.7220
  123OSM   H17T13013   1.755   6.164   4.057  1.0021  0.5555  0.4465
  123OSM   C18S13014   1.599   6.184   4.216 -0.3040 -0.9035 -0.3369
  123OSM   H18S13015   1.529   6.263   4.251  1.3770  0.6004 -0.2186
  123OSM   H18T13016   1.688   6.199   4.281 -1.8987  0.9695  1.5641
  123OSM   H18U13017   1.558   6.085   4.244 -1.5736 -0.0752  0.8626
  123OSM    C1F13018   1.536   6.509   2.365  0.2399  0.5875 -1.1595
  123OSM     OF13019   1.469   6.446   2.288  0.0453 -0.0185  0.0668
  123OSM    C2F13020   1.479   6.648   2.409 -0.1908 -0.1456 -0.6742
  123OSM    H2F13021   1.372   6.628   2.434 -0.6233  1.3448 -1.2394
  123OSM    H2G13022   1.476   6.715   2.320  1.3739 -1.1896 -1.5491
  123OSM    C3F13023   1.551   6.707   2.537  0.2300 -0.5263 -0.3418
  123OSM    H3F13024   1.645   6.756   2.505 -0.1662  1.5314  1.4333
  123OSM    H3G13025   1.574   6.629   2.613 -0.2491 -0.9822 -0.6505
  123OSM    C4F13026   1.469   6.814   2.612  0.7272 -0.1065  0.0321
  123OSM    H4F13027   1.368   6.773   2.631  0.5955  0.2715  0.1498
  123OSM    H4G13028   1.448   6.898   2.542  1.2002  0.0354  0.0543
  123OSM    C5F13029   1.524   6.859   2.752 -0.7688  0.5452  0.7446
  123OSM    H5F13030   1.454   6.931   2.800 -0.8482  0.3592  0.9066
  123OSM    H5G13031   1.619   6.910   2.725  0.5468 -2.5451 -0.9354
  123OSM    C6F13032   1.545   6.743   2.856  0.5054  0.2867  0.3314
  123OSM    H6F13033   1.620   6.673   2.812  1.0586  0.5253  0.8807
  123OSM    H6G13034   1.449   6.688   2.853  0.7718 -0.1565 -1.3430
  123OSM    C7F13035   1.580   6.798   2.992  0.0996  0.8440 -0.0104
  123OSM    H7F13036   1.500   6.859   3.039  1.5635  2.5651  0.3360
  123OSM    H7G13037   1.662   6.872   2.981  0.4811  0.5479  0.7595
  123OSM    C8F13038   1.622   6.685   3.089 -0.2153  0.5023  0.3822
  123OSM    H8F13039   1.675   6.610   3.026 -1.0131 -0.2155  0.5517
  123OSM    H8G13040   1.536   6.624   3.125  0.7266 -0.6138  0.8414
  123OSM    C9F13041   1.715   6.730   3.201 -0.1762 -0.2993  0.3156
  123OSM    H9F13042   1.819   6.724   3.167 -0.2001 -0.8098  0.3219
  123OSM   C10F13043   1.679   6.780   3.320 -0.6659 -0.2720 -0.1128
  123OSM   H10F13044   1.756   6.804   3.395  1.7703 -0.5413 -2.3655
  123OSM   C11F13045   1.541   6.783   3.374  0.0372 -0.4318  0.2135
  123OSM   H11F13046   1.463   6.724   3.321  0.2733 -1.0650  0.5600
  123OSM   H11G13047   1.505   6.887   3.391 -0.0154 -0.3181 -0.5727
  123OSM   C12F13048   1.538   6.700   3.507  0.1281  0.2205  0.3945
  123OSM   H12F13049   1.615   6.735   3.579  0.2471  0.6735  0.0482
  123OSM   H12G13050   1.562   6.593   3.487  0.6736  0.4269 -0.0741
  123OSM   C13F13051   1.397   6.712   3.574 -0.5216  0.2584  0.0833
  123OSM   H13F13052   1.316   6.663   3.517 -0.7260  1.3865 -0.6063
  123OSM   H13G13053   1.371   6.817   3.598 -2.0275 -0.5952  2.6385
  123OSM   C14F13054   1.401   6.636   3.706 -0.0215 -0.6805 -0.3943
  123OSM   H14F13055   1.442   6.533   3.692 -2.0682 -1.6644  0.4082
  123OSM   H14G13056   1.297   6.636   3.744  0.4959  0.3810  1.1106
  123OSM   C15F13057   1.489   6.700   3.813 -1.2300  0.2837  0.2325
  123OSM   H15F13058   1.469   6.809   3.806  0.8305  0.6549 -0.8848
  123OSM   H15G13059   1.597   6.682   3.794 -1.2068  1.5966 -1.0626
  123OSM   C16F13060   1.458   6.644   3.950  0.3753 -0.3756  1.0213
  123OSM   H16F13061   1.443   6.534   3.943 -3.1754 -0.0597  1.7117
  123OSM   H16G13062   1.355   6.672   3.978 -0.0249 -0.7086 -0.0639
  123OSM   C17F13063   1.561   6.667   4.060  0.0611  0.0526  0.2159
  123OSM   H17F13064   1.573   6.771   4.097  0.7881  0.8827 -2.1580
  123OSM   H17G13065   1.659   6.623   4.032  0.3665  0.8250  0.0365
  123OSM   C18F13066   1.522   6.592   4.186  0.0185  0.0141 -0.3590
  123OSM   H18F13067   1.422   6.630   4.216 -0.5393 -0.1196 -1.9393
  123OSM   H18G13068   1.596   6.610   4.267  0.0302  0.8704 -0.5424
  123OSM   H18H13069   1.499   6.489   4.152 -0.5744 -0.4157  1.2436
  124OSM      N13070   3.629   0.919   2.268  0.1768  0.6196 -0.0211
  124OSM    C1513071   3.560   0.803   2.214 -0.6691 -0.0641 -0.4381
  124OSM   H15A13072   3.623   0.758   2.139  2.0465 -0.2298  1.7674
  124OSM   H15B13073   3.464   0.833   2.176 -0.8128  0.6145  0.4342
  124OSM   H15C13074   3.544   0.736   2.298  0.9721  2.0597  1.7026
  124OSM    C1413075   3.765   0.868   2.314  0.8754 -0.1768  0.0579
  124OSM   H14A13076   3.752   0.787   2.384  0.4372  1.2678  1.7312
  124OSM   H14B13077   3.819   0.946   2.367 -0.3569 -0.8776  2.4804
  124OSM   H14C13078   3.827   0.840   2.230 -0.1436  1.2238 -1.2318
  124OSM    C1313079   3.625   1.023   2.158 -0.1353 -0.1878 -1.0871
  124OSM   H13A13080   3.522   1.024   2.126 -0.8388 -0.1110  0.9810
  124OSM   H13B13081   3.691   1.001   2.076  3.0629  1.1607  0.9061
  124OSM   H13C13082   3.642   1.125   2.192 -0.8060  0.6944 -3.2261
  124OSM    C1213083   3.540   0.963   2.384 -0.4553  0.3985 -0.1035
  124OSM   H12A13084   3.569   1.058   2.425 -2.0402  0.1770  1.6933
  124OSM   H12B13085   3.561   0.891   2.462 -0.0170  1.1030  0.4353
  124OSM    C1113086   3.386   0.978   2.364 -0.2925 -0.3838 -0.1010
  124OSM   H11A13087   3.344   1.000   2.465 -1.7105 -1.3248 -0.4595
  124OSM   H11B13088   3.325   0.894   2.326 -0.8436  0.5385 -1.3082
  124OSM      P13089   3.342   1.231   2.330 -0.5117  0.1943 -0.2119
  124OSM    O1313090   3.419   1.314   2.239  0.6209 -0.0057  0.2296
  124OSM    O1413091   3.201   1.270   2.343 -0.0167 -0.0387  0.2190
  124OSM    O1113092   3.414   1.218   2.473 -0.7468 -0.1879  0.0656
  124OSM    O1213093   3.361   1.086   2.276 -0.5146  0.8725  0.9912
  124OSM    C1S13094   3.404   1.321   2.573 -0.2934  0.3689  0.7409
  124OSM    H1S13095   3.294   1.328   2.590 -0.0618  1.5306  1.8809
  124OSM    H1T13096   3.450   1.417   2.543  1.8887 -1.1312 -1.0616
  124OSM     NF13097   3.466   1.411   2.792 -0.9218  0.5143 -0.4063
  124OSM    HNF13098   3.549   1.464   2.803 -0.4789 -0.0211 -1.0983
  124OSM    C2S13099   3.472   1.294   2.708 -0.5416  0.3132 -0.6155
  124OSM    H2S13100   3.409   1.221   2.764 -0.3426  0.0276 -0.7638
  124OSM    C3S13101   3.620   1.228   2.689  0.3062  0.7802 -0.4484
  124OSM    H3S13102   3.680   1.306   2.637  1.2603  0.0158 -0.5443
  124OSM     O313103   3.616   1.108   2.617 -0.2524  0.1064  0.9703
  124OSM    HO313104   3.530   1.103   2.574  1.0156  2.4196 -2.2253
  124OSM    C4S13105   3.670   1.185   2.826 -0.0742  0.5829 -0.3892
  124OSM    H4S13106   3.619   1.094   2.861  0.4927  0.8223  1.1596
  124OSM    C5S13107   3.775   1.249   2.885 -0.0160 -0.2549  0.3424
  124OSM    H5S13108   3.831   1.329   2.834 -0.4902 -0.5077 -0.5868
  124OSM    C6S13109   3.837   1.196   3.010  0.0023 -0.2627  0.4184
  124OSM    H6S13110   3.938   1.153   2.992 -0.3420 -0.3628 -1.4430
  124OSM    H6T13111   3.782   1.105   3.044  1.7876 -1.8443 -0.6724
  124OSM    C7S13112   3.847   1.314   3.106 -0.1177 -0.0175 -0.2151
  124OSM    H7S13113   3.926   1.385   3.075 -0.3999  1.5735  2.4183
  124OSM    H7T13114   3.890   1.272   3.199 -1.2093  0.2184  0.4155
  124OSM    C8S13115   3.718   1.389   3.142  0.3269 -0.4196 -0.0890
  124OSM    H8S13116   3.645   1.316   3.186 -1.0932  0.8953 -0.1920
  124OSM    H8T13117   3.678   1.428   3.047 -1.3965 -1.0493  0.3429
  124OSM    C9S13118   3.739   1.507   3.226  0.2458 -0.3209  0.7806
  124OSM    H9S13119   3.649   1.570   3.240  0.1744 -0.4212  0.7666
  124OSM    H9T13120   3.816   1.570   3.176 -0.3254 -0.1186  0.1451
  124OSM   C10S13121   3.802   1.477   3.360  0.4378 -0.0953  0.0643
  124OSM   H10S13122   3.901   1.428   3.349  0.5009  0.2332 -0.9029
  124OSM   H10T13123   3.747   1.401   3.420  0.4529  0.3251  0.6217
  124OSM   C11S13124   3.819   1.601   3.452  1.0615 -0.0884 -0.3705
  124OSM   H11S13125   3.721   1.645   3.479  0.8461 -0.3566 -0.7213
  124OSM   H11T13126   3.878   1.664   3.383  0.5911 -0.0204 -0.7128
  124OSM   C12S13127   3.909   1.573   3.572  0.1638  0.5542  0.3981
  124OSM   H12S13128   4.002   1.526   3.534 -0.1621  0.9314 -0.9340
  124OSM   H12T13129   3.854   1.501   3.636 -2.0546  0.5939 -1.3143
  124OSM   C13S13130   3.947   1.694   3.650  0.7618 -0.1039  0.0538
  124OSM   H13S13131   3.854   1.753   3.663  1.9256  1.2817  3.2087
  124OSM   H13T13132   4.010   1.749   3.577 -0.9712  2.3099  0.2603
  124OSM   C14S13133   4.013   1.673   3.792  0.2974  0.1755  0.7177
  124OSM   H14S13134   4.019   1.770   3.845  1.6725  0.1647  0.6191
  124OSM   H14T13135   4.121   1.646   3.782  0.8798  2.5597 -0.2540
  124OSM   C15S13136   3.937   1.582   3.888  0.9312 -0.4464 -0.4238
  124OSM   H15S13137   4.005   1.560   3.973  2.9377 -1.2371 -2.1502
  124OSM   H15T13138   3.919   1.485   3.836 -0.3156 -0.7963  0.6125
  124OSM   C16S13139   3.796   1.631   3.920 -0.4018 -0.4614 -0.3198
  124OSM   H16S13140   3.746   1.660   3.825  2.6921  0.3059 -1.8511
  124OSM   H16T13141   3.796   1.724   3.981 -3.0915 -0.5754 -0.0209
  124OSM   C17S13142   3.706   1.523   3.977 -0.5035  0.2644  0.6155
  124OSM   H17S13143   3.678   1.441   3.907  0.8766  0.3417 -0.0739
  124OSM   H17T13144   3.613   1.570   4.014 -0.3590 -0.1510  1.5444
  124OSM   C18S13145   3.770   1.452   4.100 -0.6070  0.5896  0.6799
  124OSM   H18S13146   3.868   1.404   4.080  0.2239  2.5902 -0.3243
  124OSM   H18T13147   3.718   1.368   4.149  1.5145  0.3241  2.6202
  124OSM   H18U13148   3.800   1.518   4.184 -1.1328  1.3811  0.2683
  124OSM    C1F13149   3.363   1.470   2.846  0.2711 -0.1499  0.3224
  124OSM     OF13150   3.253   1.461   2.806 -0.3585 -0.5131 -0.6570
  124OSM    C2F13151   3.395   1.555   2.966  0.1372  0.2248  0.0525
  124OSM    H2F13152   3.500   1.591   2.958  0.5726 -1.1474 -0.6308
  124OSM    H2G13153   3.396   1.485   3.052  0.9984 -0.1234 -0.2265
  124OSM    C3F13154   3.303   1.673   3.000 -0.0553  0.6895  0.5254
  124OSM    H3F13155   3.213   1.623   3.041  0.3919  0.1602  0.8683
  124OSM    H3G13156   3.287   1.742   2.914 -2.6036  0.7389  0.9369
  124OSM    C4F13157   3.360   1.757   3.118 -0.0768  0.2716 -0.2669
  124OSM    H4F13158   3.307   1.855   3.120 -3.3402 -1.3546 -0.3831
  124OSM    H4G13159   3.470   1.772   3.112 -0.0266 -0.0080 -0.0608
  124OSM    C5F13160   3.339   1.692   3.263 -0.0873  0.0329  0.3779
  124OSM    H5F13161   3.405   1.607   3.289 -1.9723 -0.6797  3.3046
  124OSM    H5G13162   3.238   1.647   3.253  1.1824 -2.8270 -0.4550
  124OSM    C6F13163   3.323   1.794   3.376 -0.4866  0.2802 -0.3336
  124OSM    H6F13164   3.244   1.864   3.342  0.7400  0.4582 -3.0731
  124OSM    H6G13165   3.419   1.848   3.387 -0.9758  1.1852 -0.3909
  124OSM    C7F13166   3.288   1.729   3.509  0.7524 -0.4370 -0.1693
  124OSM    H7F13167   3.366   1.654   3.532  0.3839 -1.6055 -2.3840
  124OSM    H7G13168   3.187   1.681   3.509  0.6858 -0.5623  3.2544
  124OSM    C8F13169   3.270   1.837   3.624 -0.8436  0.0883  0.0768
  124OSM    H8F13170   3.189   1.909   3.602 -3.8841 -2.8903  0.7161
  124OSM    H8G13171   3.365   1.896   3.625 -1.6124  1.3695 -0.5866
  124OSM    C9F13172   3.225   1.783   3.763 -0.2514  0.1536  0.9443
  124OSM    H9F13173   3.125   1.738   3.772 -0.7454  1.1729  0.7056
  124OSM   C10F13174   3.307   1.776   3.873  0.0524  0.7535  0.3636
  124OSM   H10F13175   3.254   1.743   3.963  0.8697 -2.6954 -0.2948
  124OSM   C11F13176   3.448   1.824   3.884  0.5795  0.4794 -0.2800
  124OSM   H11F13177   3.502   1.828   3.787  0.7596 -1.2352 -0.2789
  124OSM   H11G13178   3.500   1.760   3.959 -0.5972  1.7984  1.7761
  124OSM   C12F13179   3.447   1.969   3.938  0.1311  0.0038  0.4166
  124OSM   H12F13180   3.391   1.982   4.033  0.0313  1.9004  0.1457
  124OSM   H12G13181   3.411   2.031   3.853  3.7014  2.0206  0.1515
  124OSM   C13F13182   3.596   2.012   3.946  0.0935 -0.1881  0.0885
  124OSM   H13F13183   3.584   2.123   3.947 -3.4715 -0.4596  1.8493
  124OSM   H13G13184   3.639   1.980   3.848 -0.6748  0.2756 -0.4104
  124OSM   C14F13185   3.678   1.973   4.072 -0.5362  0.1344  0.1744
  124OSM   H14F13186   3.666   1.863   4.074  1.3093 -0.1093  2.4947
  124OSM   H14G13187   3.628   2.015   4.162 -0.1084  0.5314  0.2314
  124OSM   C15F13188   3.818   2.020   4.086  0.3690  0.7645 -0.2589
  124OSM   H15F13189   3.812   2.120   4.135  2.6636  0.8159  0.0111
  124OSM   H15G13190   3.850   2.044   3.982 -3.3639  2.9591 -1.0863
  124OSM   C16F13191   3.911   1.921   4.158  0.5973 -0.2103  0.3870
  124OSM   H16F13192   4.009   1.971   4.176  1.4638 -1.4680 -0.6317
  124OSM   H16G13193   3.928   1.834   4.091  1.5612 -1.4873  2.1995
  124OSM   C17F13194   3.852   1.861   4.280 -0.3900  0.8565  0.1188
  124OSM   H17F13195   3.763   1.799   4.257  0.5754 -0.2781 -0.6546
  124OSM   H17G13196   3.821   1.935   4.357 -0.8517  0.7392  0.0493
  124OSM   C18F13197   3.960   1.778   4.351 -0.1980  0.2511 -0.0789
  124OSM   H18F13198   3.921   1.724   4.440 -0.5565 -0.3170 -0.5755
  124OSM   H18G13199   4.044   1.846   4.378 -2.3810  3.2351 -0.3353
  124OSM   H18H13200   3.996   1.701   4.280 -1.9388 -0.6589 -0.0195
  125OSM      N13201   3.494   3.965   2.108 -0.1281 -0.1802  0.4832
  125OSM    C1513202   3.456   3.839   2.031 -0.6818 -0.6241  1.3971
  125OSM   H15A13203   3.536   3.809   1.966 -2.2135 -1.6754 -0.0750
  125OSM   H15B13204   3.363   3.849   1.977 -0.5834  1.0231  1.4708
  125OSM   H15C13205   3.456   3.754   2.097 -0.0462 -0.6985  1.3098
  125OSM    C1413206   3.629   3.939   2.160 -0.5173  0.6956 -0.1589
  125OSM   H14A13207   3.630   3.847   2.215 -0.8875  0.3654 -0.6958
  125OSM   H14B13208   3.663   4.021   2.223  0.4446  0.4602 -0.3661
  125OSM   H14C13209   3.706   3.917   2.088 -0.1418  0.6781  0.2434
  125OSM    C1313210   3.493   4.084   2.017  0.3290 -0.5884  0.2260
  125OSM   H13A13211   3.397   4.107   1.973  0.2881  1.6627  1.3138
  125OSM   H13B13212   3.571   4.085   1.942  0.3603  0.6620  0.2424
  125OSM   H13C13213   3.503   4.171   2.080 -0.9756 -0.7260  0.6438
  125OSM    C1213214   3.402   3.995   2.220  0.9874 -0.3565 -0.4846
  125OSM   H12A13215   3.393   3.907   2.281  1.0786  1.4711  2.3571
  125OSM   H12B13216   3.301   4.023   2.194  0.3085  0.1452  2.3331
  125OSM    C1113217   3.445   4.103   2.330 -0.5852  0.0809 -0.4136
  125OSM   H11A13218   3.526   4.056   2.390  0.3150  2.4300  0.3074
  125OSM   H11B13219   3.357   4.111   2.396 -0.2800 -2.0975  0.3409
  125OSM      P13220   3.630   4.285   2.305  0.3475  0.3905 -0.1732
  125OSM    O1313221   3.736   4.180   2.282  0.1389 -0.2021 -0.3859
  125OSM    O1413222   3.647   4.409   2.221  0.0368  0.2874 -0.5297
  125OSM    O1113223   3.627   4.331   2.452  0.3282  0.3798  0.2977
  125OSM    O1213224   3.481   4.234   2.275 -0.3551  0.3606 -0.5312
  125OSM    C1S13225   3.651   4.245   2.564 -0.2699 -0.1409  0.7421
  125OSM    H1S13226   3.758   4.214   2.553  0.6607  2.9135  0.0986
  125OSM    H1T13227   3.594   4.152   2.546  0.0851 -0.1488 -0.4699
  125OSM     NF13228   3.680   4.229   2.809  0.5760 -0.5148 -0.0254
  125OSM    HNF13229   3.614   4.200   2.878 -1.0965  0.6956 -1.0390
  125OSM    C2S13230   3.632   4.313   2.698 -0.1748  0.1300 -0.0601
  125OSM    H2S13231   3.688   4.409   2.690 -1.4887  0.8299 -1.6958
  125OSM    C3S13232   3.482   4.369   2.716 -0.2608  0.6964 -0.7357
  125OSM    H3S13233   3.415   4.280   2.714  1.0085 -0.2894 -1.4921
  125OSM     O313234   3.436   4.446   2.607 -0.5218  0.0664 -0.6143
  125OSM    HO313235   3.502   4.421   2.542  0.3683  0.7315  0.0147
  125OSM    C4S13236   3.463   4.444   2.845 -0.2563 -0.4291 -0.3238
  125OSM    H4S13237   3.434   4.381   2.930  3.0265  0.1580  1.4024
  125OSM    C5S13238   3.460   4.578   2.860  0.3043 -0.0535 -0.0562
  125OSM    H5S13239   3.474   4.637   2.768 -1.1036 -1.3208 -1.1217
  125OSM    C6S13240   3.440   4.661   2.989 -0.0056  0.0827 -0.0584
  125OSM    H6S13241   3.346   4.717   2.971 -2.1416 -3.6362 -1.8739
  125OSM    H6T13242   3.521   4.735   2.998 -0.8808  1.0868 -0.2359
  125OSM    C7S13243   3.419   4.580   3.119  0.2039  0.4259  0.4917
  125OSM    H7S13244   3.501   4.506   3.131 -0.6471 -0.5148  0.6695
  125OSM    H7T13245   3.324   4.521   3.117 -0.1506  0.7815  3.0578
  125OSM    C8S13246   3.425   4.673   3.243 -0.0409  0.9944  0.0656
  125OSM    H8S13247   3.367   4.768   3.238 -1.7748 -0.0045  0.2546
  125OSM    H8T13248   3.531   4.692   3.269  0.0122 -1.0263  1.6781
  125OSM    C9S13249   3.387   4.604   3.372  0.1880  0.7553 -0.7577
  125OSM    H9S13250   3.460   4.534   3.419 -2.5039 -1.2970  0.5934
  125OSM    H9T13251   3.289   4.552   3.373  0.7080 -0.2381 -0.5401
  125OSM   C10S13252   3.382   4.695   3.498  0.6861  0.2624  0.0903
  125OSM   H10S13253   3.313   4.779   3.478 -2.0555 -1.6101  0.9420
  125OSM   H10T13254   3.481   4.733   3.529  0.2697  0.2773  1.4853
  125OSM   C11S13255   3.318   4.624   3.618 -0.8117 -0.4323 -0.3843
  125OSM   H11S13256   3.338   4.515   3.617 -0.8202 -0.4430  0.1758
  125OSM   H11T13257   3.207   4.629   3.612 -0.6895  2.4051 -2.0063
  125OSM   C12S13258   3.369   4.681   3.753  1.3102  0.0906 -0.8760
  125OSM   H12S13259   3.349   4.790   3.746 -0.3756  0.3111  3.7493
  125OSM   H12T13260   3.480   4.678   3.758  1.3328 -1.3195 -1.6659
  125OSM   C13S13261   3.309   4.625   3.883  0.0050 -0.0627 -0.0719
  125OSM   H13S13262   3.335   4.520   3.909 -0.8850 -0.7223 -1.7182
  125OSM   H13T13263   3.200   4.614   3.865 -0.3157 -0.4049  1.8818
  125OSM   C14S13264   3.330   4.723   3.999 -0.1160 -0.1355  0.0327
  125OSM   H14S13265   3.293   4.823   3.969  3.3352  0.7415 -1.8233
  125OSM   H14T13266   3.439   4.733   4.016 -0.0134 -0.9682 -0.0981
  125OSM   C15S13267   3.260   4.686   4.132  0.0025  1.0669 -0.6759
  125OSM   H15S13268   3.292   4.580   4.146 -2.6745 -0.2686 -3.4733
  125OSM   H15T13269   3.149   4.687   4.130 -0.0405  0.6782  0.7910
  125OSM   C16S13270   3.307   4.763   4.256  0.6174  0.7783  0.1094
  125OSM   H16S13271   3.415   4.757   4.279  0.3120 -2.0561  1.2439
  125OSM   H16T13272   3.268   4.709   4.345  0.3920 -0.8873 -0.9396
  125OSM   C17S13273   3.264   4.910   4.268  0.5507 -0.2835 -0.2956
  125OSM   H17S13274   3.153   4.913   4.269  0.5480 -0.3056  0.5146
  125OSM   H17T13275   3.302   4.960   4.177  0.2752 -0.4762 -0.5201
  125OSM   C18S13276   3.320   4.986   4.394 -0.2823  0.2918 -0.7972
  125OSM   H18S13277   3.422   5.029   4.380 -0.9245  2.5259  0.8460
  125OSM   H18T13278   3.317   4.919   4.482  1.5415  0.7420 -0.3441
  125OSM   H18U13279   3.257   5.077   4.410 -0.6613 -0.1425  0.2714
  125OSM    C1F13280   3.808   4.200   2.836 -0.0428  0.9166 -0.3622
  125OSM     OF13281   3.902   4.239   2.765  0.4278 -0.2505 -0.1961
  125OSM    C2F13282   3.840   4.102   2.959  0.2421 -0.4589  0.7770
  125OSM    H2F13283   3.893   4.015   2.916 -0.9985 -1.1462  0.6001
  125OSM    H2G13284   3.742   4.072   3.003 -2.1022  3.8348 -0.9408
  125OSM    C3F13285   3.919   4.182   3.061 -0.0305 -0.2540  0.1081
  125OSM    H3F13286   4.003   4.237   3.014 -0.7367  0.9663  0.2542
  125OSM    H3G13287   3.970   4.129   3.144 -1.0729 -0.8962  0.3669
  125OSM    C4F13288   3.822   4.289   3.132 -0.2515 -0.0597 -0.3303
  125OSM    H4F13289   3.746   4.225   3.181  0.0704  1.9528  3.0885
  125OSM    H4G13290   3.761   4.348   3.059 -0.2802  0.9279  0.4767
  125OSM    C5F13291   3.891   4.374   3.236 -0.8696  0.1962 -0.4501
  125OSM    H5F13292   3.978   4.424   3.187  0.6550 -0.8684  1.0537
  125OSM    H5G13293   3.929   4.302   3.311 -1.5346  1.6073  1.3223
  125OSM    C6F13294   3.800   4.463   3.315 -0.3179 -0.0502 -0.0966
  125OSM    H6F13295   3.718   4.397   3.351  0.9558 -0.5511  2.0606
  125OSM    H6G13296   3.756   4.545   3.255 -0.3531 -1.5948 -2.3190
  125OSM    C7F13297   3.868   4.518   3.442 -0.1010  0.3239 -0.4837
  125OSM    H7F13298   3.783   4.565   3.496 -1.6832 -2.8685  0.0184
  125OSM    H7G13299   3.950   4.589   3.416  0.5351 -0.7386 -1.5120
  125OSM    C8F13300   3.941   4.419   3.542  0.5967 -0.6755 -0.5067
  125OSM    H8F13301   3.996   4.473   3.622  1.7415 -2.4220 -0.0631
  125OSM    H8G13302   4.016   4.364   3.482  3.1920  0.8812  1.1242
  125OSM    C9F13303   3.849   4.316   3.601  0.5481 -0.1300  0.4158
  125OSM    H9F13304   3.816   4.233   3.537 -0.8823 -2.2845  3.6849
  125OSM   C10F13305   3.798   4.325   3.722  0.3167 -0.4314  0.2688
  125OSM   H10F13306   3.741   4.242   3.765  0.7535 -0.9248 -0.0937
  125OSM   C11F13307   3.820   4.440   3.811 -0.0808  0.0032 -0.3590
  125OSM   H11F13308   3.835   4.536   3.757 -0.8512  0.6503  0.5491
  125OSM   H11G13309   3.911   4.424   3.873  0.3076 -0.5066 -1.0373
  125OSM   C12F13310   3.701   4.467   3.900  0.3510 -0.0943  0.4320
  125OSM   H12F13311   3.617   4.503   3.837  1.2076  1.9164  0.3762
  125OSM   H12G13312   3.728   4.562   3.951 -0.4727 -0.6864  2.0420
  125OSM   C13F13313   3.671   4.354   4.001  0.5453 -0.2076 -0.1944
  125OSM   H13F13314   3.770   4.331   4.046  1.0268 -0.3767 -1.3096
  125OSM   H13G13315   3.624   4.267   3.951  0.0268 -0.8040  1.2706
  125OSM   C14F13316   3.574   4.398   4.114  0.1191  0.3763  0.8206
  125OSM   H14F13317   3.483   4.438   4.064  0.2592 -0.7663 -0.4057
  125OSM   H14G13318   3.639   4.468   4.171  2.1463  0.4643 -1.4314
  125OSM   C15F13319   3.533   4.291   4.215 -0.0830  0.8615  0.1301
  125OSM   H15F13320   3.622   4.262   4.274 -0.0337  2.0263  0.6674
  125OSM   H15G13321   3.498   4.195   4.172 -1.1303 -0.7584  4.2038
  125OSM   C16F13322   3.420   4.341   4.306  0.1840  0.4453 -0.4126
  125OSM   H16F13323   3.330   4.386   4.257 -0.2033  0.9181  0.7005
  125OSM   H16G13324   3.466   4.428   4.358 -0.1914 -0.6035  1.7821
  125OSM   C17F13325   3.371   4.239   4.415  0.1169  0.3064  0.2484
  125OSM   H17F13326   3.469   4.206   4.455  0.3924 -0.8514 -1.2852
  125OSM   H17G13327   3.320   4.156   4.363  0.7496  0.2409 -0.2845
  125OSM   C18F13328   3.281   4.305   4.515 -0.4748  0.0969 -0.7232
  125OSM   H18F13329   3.328   4.375   4.587 -0.1921  0.0306 -0.8438
  125OSM   H18G13330   3.231   4.231   4.581  0.6894  0.4860  0.6441
  125OSM   H18H13331   3.218   4.373   4.454  1.2935  1.9973 -0.5344
  126OSM      N13332   2.388   3.294   2.535  0.0950 -0.4900 -0.6745
  126OSM    C1513333   2.413   3.175   2.449 -1.1815  1.0850  0.1481
  126OSM   H15A13334   2.382   3.207   2.350 -2.1628  1.6414  0.6239
  126OSM   H15B13335   2.354   3.090   2.478 -0.4761  0.8137  0.8155
  126OSM   H15C13336   2.515   3.141   2.456 -1.7605 -0.6308  0.6449
  126OSM    C1413337   2.242   3.325   2.517  0.4910 -0.0349 -0.3900
  126OSM   H14A13338   2.180   3.239   2.492  2.3898 -1.2881 -1.0094
  126OSM   H14B13339   2.227   3.385   2.428  1.7455  1.1358  0.1623
  126OSM   H14C13340   2.218   3.389   2.600  1.3360 -0.9172  0.5596
  126OSM    C1313341   2.410   3.259   2.681  0.1898 -0.6369 -0.7430
  126OSM   H13A13342   2.369   3.343   2.734  2.9681  0.6146 -0.3719
  126OSM   H13B13343   2.514   3.255   2.711 -0.4470 -1.0326  1.5901
  126OSM   H13C13344   2.366   3.164   2.708  1.0184 -0.6596  0.6844
  126OSM    C1213345   2.481   3.411   2.505 -0.1599  0.9887 -0.1682
  126OSM   H12A13346   2.491   3.424   2.398 -1.8936 -1.6232 -0.7611
  126OSM   H12B13347   2.582   3.386   2.537 -0.8648  0.1425  1.5493
  126OSM    C1113348   2.450   3.546   2.576  0.3036  0.4689  0.7364
  126OSM   H11A13349   2.539   3.613   2.573  0.1536  0.6405 -1.7052
  126OSM   H11B13350   2.422   3.537   2.683 -2.4772  1.0743  0.1282
  126OSM      P13351   2.332   3.693   2.394 -0.1075  0.1439 -0.4704
  126OSM    O1313352   2.449   3.655   2.309  0.6935  1.4857  0.2870
  126OSM    O1413353   2.204   3.675   2.331  0.2115  0.5814  0.1517
  126OSM    O1113354   2.354   3.843   2.447  0.6526  0.0790 -0.7859
  126OSM    O1213355   2.333   3.603   2.521  0.0074 -0.7640  0.2404
  126OSM    C1S13356   2.305   3.875   2.581 -0.0384  0.2626 -0.6374
  126OSM    H1S13357   2.342   3.798   2.653  2.8105  2.0499 -0.0181
  126OSM    H1T13358   2.196   3.888   2.594  0.0720  0.3313  0.3525
  126OSM     NF13359   2.349   4.030   2.770 -0.2191  0.6037  0.0343
  126OSM    HNF13360   2.304   4.118   2.788 -0.8742  0.4089 -0.5957
  126OSM    C2S13361   2.381   3.996   2.627 -0.0383 -0.2328 -0.4261
  126OSM    H2S13362   2.490   3.978   2.622  0.6668  3.4112 -0.9472
  126OSM    C3S13363   2.360   4.121   2.534  0.2016 -0.0207 -0.2469
  126OSM    H3S13364   2.250   4.140   2.542 -0.1146 -2.1647  1.3283
  126OSM     O313365   2.391   4.107   2.394  0.3705 -0.5099 -0.4644
  126OSM    HO313366   2.377   4.012   2.384  1.4693 -0.7412  0.0748
  126OSM    C4S13367   2.411   4.257   2.581  0.0730  0.0698 -0.5951
  126OSM    H4S13368   2.331   4.329   2.601  0.7466  0.7915 -0.4721
  126OSM    C5S13369   2.542   4.288   2.574  0.9668  0.1605  0.1063
  126OSM    H5S13370   2.617   4.214   2.544  0.5346  0.1663 -1.0423
  126OSM    C6S13371   2.603   4.424   2.603 -0.2948 -0.4259  0.3270
  126OSM    H6S13372   2.530   4.506   2.590 -1.8916 -1.5634  1.7225
  126OSM    H6T13373   2.685   4.459   2.537 -0.3103  1.0891  1.0853
  126OSM    C7S13374   2.663   4.430   2.747 -0.5390  0.2212 -0.0632
  126OSM    H7S13375   2.724   4.522   2.759 -1.0459  0.4201  1.2107
  126OSM    H7T13376   2.727   4.339   2.755  2.2053  2.1597  1.8906
  126OSM    C8S13377   2.555   4.427   2.860 -0.2523 -0.7853  0.6116
  126OSM    H8S13378   2.486   4.344   2.838 -0.0652 -1.1101  1.2250
  126OSM    H8T13379   2.510   4.529   2.852 -0.6241 -1.0655 -1.1690
  126OSM    C9S13380   2.612   4.426   3.001 -0.2449  0.2043 -0.3630
  126OSM    H9S13381   2.687   4.505   3.019 -0.7859  0.6892 -0.2044
  126OSM    H9T13382   2.676   4.338   3.023  1.8700  1.7491 -0.0087
  126OSM   C10S13383   2.508   4.455   3.111 -0.1358  0.1555 -0.8713
  126OSM   H10S13384   2.434   4.371   3.109  0.6791 -0.5625 -2.4800
  126OSM   H10T13385   2.461   4.555   3.113  0.2002  0.3652  2.5192
  126OSM   C11S13386   2.583   4.422   3.242  0.4221  0.3139  0.1293
  126OSM   H11S13387   2.669   4.492   3.254 -0.0494  0.5779  2.2180
  126OSM   H11T13388   2.626   4.320   3.244  2.4334  1.0768 -0.8329
  126OSM   C12S13389   2.483   4.435   3.366 -0.0591  1.0495 -0.1722
  126OSM   H12S13390   2.399   4.365   3.344 -0.0231  0.6719  0.8193
  126OSM   H12T13391   2.452   4.542   3.366 -0.8767  0.8199 -0.3672
  126OSM   C13S13392   2.554   4.411   3.498  0.4421  0.2472 -0.8057
  126OSM   H13S13393   2.629   4.494   3.501  1.4787 -0.5725 -2.2727
  126OSM   H13T13394   2.592   4.306   3.499 -0.9584 -0.3258 -2.6376
  126OSM   C14S13395   2.459   4.412   3.617  0.2481 -0.0241  0.0444
  126OSM   H14S13396   2.373   4.350   3.582 -0.9285  1.1321  0.7923
  126OSM   H14T13397   2.421   4.516   3.624  0.8899  0.2322 -0.1815
  126OSM   C15S13398   2.501   4.359   3.754 -0.2746 -0.0816 -0.0078
  126OSM   H15S13399   2.604   4.400   3.769 -0.7374  1.2544 -0.2748
  126OSM   H15T13400   2.502   4.248   3.754  3.0061 -0.1934  1.8077
  126OSM   C16S13401   2.405   4.410   3.862 -0.7845  0.2335  0.1599
  126OSM   H16S13402   2.306   4.365   3.839 -1.0054  0.5465  0.4710
  126OSM   H16T13403   2.394   4.520   3.846  1.1369  0.0125 -3.9112
  126OSM   C17S13404   2.447   4.370   4.002  0.0289  0.1422 -0.0619
  126OSM   H17S13405   2.555   4.393   4.012  0.4024 -1.9499  1.1728
  126OSM   H17T13406   2.437   4.260   4.010  1.9730 -0.1183 -0.6215
  126OSM   C18S13407   2.380   4.442   4.116  0.4479 -0.2059 -0.0041
  126OSM   H18S13408   2.443   4.447   4.208  1.3560 -0.3154 -0.6112
  126OSM   H18T13409   2.281   4.401   4.143 -0.4344  0.7879 -1.6063
  126OSM   H18U13410   2.371   4.549   4.086 -0.4976 -0.5577 -1.0234
  126OSM    C1F13411   2.377   3.939   2.866 -0.4113  0.7510  0.1202
  126OSM     OF13412   2.465   3.855   2.848  0.5718  0.6191 -0.4354
  126OSM    C2F13413   2.304   3.952   2.995  0.5096  0.3036 -0.7646
  126OSM    H2F13414   2.217   3.882   2.998  0.0669  0.8411 -1.0116
  126OSM    H2G13415   2.264   4.054   3.010 -2.9167 -1.1697  1.3519
  126OSM    C3F13416   2.400   3.914   3.109  0.6236  0.0985 -0.1941
  126OSM    H3F13417   2.500   3.960   3.095  1.4860 -1.6385 -0.0536
  126OSM    H3G13418   2.413   3.804   3.116  0.5579  0.1223  0.3676
  126OSM    C4F13419   2.353   3.963   3.242 -0.3727 -0.0914  0.5403
  126OSM    H4F13420   2.323   4.069   3.253 -1.9008 -0.2154 -1.8422
  126OSM    H4G13421   2.433   3.932   3.313  1.1011 -0.2567 -1.1030
  126OSM    C5F13422   2.221   3.888   3.295  0.0466  0.0533  0.5602
  126OSM    H5F13423   2.239   3.782   3.321 -0.7338 -0.4397 -0.7914
  126OSM    H5G13424   2.154   3.895   3.206  1.0651 -1.9706 -0.4210
  126OSM    C6F13425   2.167   3.954   3.423  0.6024  0.7479  0.8987
  126OSM    H6F13426   2.124   4.055   3.406 -0.6622  0.0813 -0.0733
  126OSM    H6G13427   2.254   3.975   3.488  2.0694 -0.4043 -0.6193
  126OSM    C7F13428   2.066   3.869   3.500 -0.2206  0.2839  0.1928
  126OSM    H7F13429   2.118   3.775   3.529 -1.7143  0.2551  3.2168
  126OSM    H7G13430   1.976   3.842   3.440 -0.4389 -2.6303  1.6478
  126OSM    C8F13431   2.022   3.921   3.634  0.6684  0.1521 -0.2020
  126OSM    H8F13432   2.117   3.946   3.687 -0.9929  1.0521  2.5645
  126OSM    H8G13433   1.966   3.848   3.696 -3.3236  2.1609 -1.1234
  126OSM    C9F13434   1.937   4.041   3.627 -0.1064  0.0967  0.1979
  126OSM    H9F13435   1.933   4.107   3.538  1.6567  0.5970  0.4529
  126OSM   C10F13436   1.879   4.101   3.733  0.5348 -0.2061 -0.4103
  126OSM   H10F13437   1.816   4.191   3.731  2.5509  1.2784 -0.8138
  126OSM   C11F13438   1.888   4.045   3.871  0.1089  0.3901 -0.1060
  126OSM   H11F13439   1.915   3.938   3.885  0.1760  0.5561  1.1940
  126OSM   H11G13440   1.785   4.038   3.913 -0.4709 -0.7917 -1.6436
  126OSM   C12F13441   1.985   4.128   3.973  0.5263  0.5038  0.2019
  126OSM   H12F13442   1.929   4.220   4.000 -0.0062  0.2338  0.0344
  126OSM   H12G13443   2.078   4.155   3.919 -0.0200  0.0104 -1.0491
  126OSM   C13F13444   2.017   4.057   4.105 -0.5568 -0.6867 -0.3444
  126OSM   H13F13445   2.078   3.967   4.084  1.3751  0.6817 -0.9304
  126OSM   H13G13446   1.922   4.033   4.158 -0.3753  1.8910  1.2828
  126OSM   C14F13447   2.107   4.150   4.192  0.6840 -0.4268  0.4065
  126OSM   H14F13448   2.045   4.243   4.193  1.1788 -0.0875  0.0961
  126OSM   H14G13449   2.202   4.169   4.139  0.8823 -0.0736  0.8756
  126OSM   C15F13450   2.127   4.094   4.333  0.2280  0.3249  0.1977
  126OSM   H15F13451   2.034   4.089   4.393  0.7502  1.1615  1.0883
  126OSM   H15G13452   2.187   4.166   4.393  0.5695  0.2395 -0.0315
  126OSM   C16F13453   2.207   3.962   4.349 -0.0310  0.3992 -0.0123
  126OSM   H16F13454   2.305   3.979   4.300  0.1533  2.3536  0.9522
  126OSM   H16G13455   2.151   3.878   4.301 -1.2107  1.4659 -0.5493
  126OSM   C17F13456   2.232   3.937   4.501 -0.2311 -0.1576 -0.7088
  126OSM   H17F13457   2.130   3.929   4.543  0.1470  1.2526  0.5193
  126OSM   H17G13458   2.288   4.013   4.559 -1.7677  0.2574  0.2717
  126OSM   C18F13459   2.298   3.807   4.533 -0.4619  0.5044  0.4450
  126OSM   H18F13460   2.304   3.757   4.434 -1.8754 -0.0396  0.6016
  126OSM   H18G13461   2.226   3.750   4.596  0.1078  0.7731  1.3469
  126OSM   H18H13462   2.398   3.813   4.580 -0.9680  1.6845  1.4253
  127OSM      N13463   2.654   0.843   2.192 -0.6854 -0.1398  0.4722
  127OSM    C1513464   2.719   0.929   2.090 -0.4460 -0.4855  0.2523
  127OSM   H15A13465   2.654   0.951   2.006  1.9680  3.5719 -0.8543
  127OSM   H15B13466   2.806   0.887   2.041 -0.2612  0.9178 -0.7126
  127OSM   H15C13467   2.758   1.024   2.123 -0.7950 -0.5363  0.8260
  127OSM    C1413468   2.595   0.714   2.141  0.0388  0.0566  1.5927
  127OSM   H14A13469   2.548   0.663   2.223  0.3665 -2.5032  0.2702
  127OSM   H14B13470   2.666   0.646   2.097 -2.1695 -2.0069  1.0665
  127OSM   H14C13471   2.527   0.732   2.059  1.5767  1.2788  0.5153
  127OSM    C1313472   2.757   0.813   2.297  0.3183 -0.5996 -0.3697
  127OSM   H13A13473   2.835   0.755   2.250 -1.1171 -2.5019 -0.5253
  127OSM   H13B13474   2.709   0.753   2.373 -0.0410  0.7145  0.4762
  127OSM   H13C13475   2.811   0.898   2.336 -0.2098  0.2576 -1.4634
  127OSM    C1213476   2.540   0.928   2.245  0.4244  0.4592  0.0936
  127OSM   H12A13477   2.474   0.965   2.167 -1.4865 -1.3765  0.7281
  127OSM   H12B13478   2.588   1.009   2.298 -0.4549  0.6086  0.6715
  127OSM    C1113479   2.452   0.866   2.356  0.2634  0.3279  0.3355
  127OSM   H11A13480   2.395   0.948   2.405  1.1751 -0.8980  3.7546
  127OSM   H11B13481   2.516   0.824   2.437 -1.3398  1.3259  2.2055
  127OSM      P13482   2.227   0.806   2.224 -0.1490  0.3064  0.1224
  127OSM    O1313483   2.260   0.917   2.130  0.4497 -0.0160  0.1370
  127OSM    O1413484   2.183   0.679   2.160  0.2435  0.0486 -0.4482
  127OSM    O1113485   2.120   0.856   2.315 -0.4528 -0.1230  0.0789
  127OSM    O1213486   2.356   0.766   2.312  0.4803  0.1608  0.7519
  127OSM    C1S13487   2.060   0.778   2.422 -0.3107  0.2196 -0.4710
  127OSM    H1S13488   2.114   0.682   2.440 -0.5357  0.1426 -0.2105
  127OSM    H1T13489   1.954   0.758   2.395 -0.6794  1.0248  0.3388
  127OSM     NF13490   2.038   0.771   2.675 -0.2955  0.2123  0.4349
  127OSM    HNF13491   1.946   0.793   2.706 -0.3150 -0.0290  0.5515
  127OSM    C2S13492   2.075   0.852   2.558  0.0885  0.4310 -0.1688
  127OSM    H2S13493   2.179   0.893   2.562 -0.0955  0.8450  0.7802
  127OSM    C3S13494   1.995   0.990   2.553  0.7417 -0.1879 -0.0043
  127OSM    H3S13495   1.887   0.967   2.546  0.3868  1.5795 -1.0522
  127OSM     O313496   2.017   1.076   2.442 -0.0410  0.2920 -0.3516
  127OSM    HO313497   2.081   1.033   2.385  2.1624  2.8181  0.0229
  127OSM    C4S13498   2.021   1.067   2.674  0.5738  0.4120 -1.3990
  127OSM    H4S13499   2.122   1.052   2.715  0.6807  1.4866 -1.2305
  127OSM    C5S13500   1.936   1.135   2.752 -0.1181  0.4703  0.2560
  127OSM    H5S13501   1.833   1.147   2.713  0.0565  0.1937 -0.2958
  127OSM    C6S13502   1.984   1.198   2.880  0.3426  0.4981 -0.5671
  127OSM    H6S13503   1.891   1.203   2.942 -0.7154  0.0711 -2.0538
  127OSM    H6T13504   2.017   1.303   2.859  1.3203  1.1713  3.4972
  127OSM    C7S13505   2.097   1.130   2.950  0.0926 -0.9200  0.7046
  127OSM    H7S13506   2.115   1.190   3.042  1.4875  2.5420 -1.6075
  127OSM    H7T13507   2.196   1.137   2.899  1.2741  1.4055  3.0532
  127OSM    C8S13508   2.074   0.982   2.995  0.7372 -0.4125  0.4175
  127OSM    H8S13509   2.172   0.939   3.025  1.7220 -1.9600 -4.2421
  127OSM    H8T13510   2.053   0.924   2.903 -0.6474 -0.4276  0.7223
  127OSM    C9S13511   1.963   0.966   3.094  0.5398 -0.2237  0.0466
  127OSM    H9S13512   1.977   0.868   3.144  1.6605 -1.0251 -1.7441
  127OSM    H9T13513   1.865   0.972   3.041  0.1618  1.0934  0.8379
  127OSM   C10S13514   1.975   1.065   3.215  0.1417  0.0909 -0.5316
  127OSM   H10S13515   1.929   1.162   3.187  0.4304  0.4987  0.3738
  127OSM   H10T13516   2.085   1.075   3.224  0.0334  1.9472 -0.9058
  127OSM   C11S13517   1.941   1.017   3.356 -0.3856  0.1780 -0.4434
  127OSM   H11S13518   1.974   0.911   3.359  1.0333  0.5747 -0.9730
  127OSM   H11T13519   1.831   1.016   3.372 -0.4480 -0.1623 -0.8674
  127OSM   C12S13520   2.000   1.087   3.482  0.0916 -0.4566 -0.0535
  127OSM   H12S13521   1.959   1.189   3.496 -1.7263 -1.3597  1.7493
  127OSM   H12T13522   2.110   1.095   3.487 -0.0893  1.8100  1.7022
  127OSM   C13S13523   1.975   1.000   3.609  0.5001  0.3040 -0.2907
  127OSM   H13S13524   2.030   0.903   3.608  0.4850  0.0575  4.1093
  127OSM   H13T13525   1.866   0.987   3.626  0.4878  0.9250  0.1370
  127OSM   C14S13526   2.037   1.083   3.728 -0.1285  0.6914  0.3174
  127OSM   H14S13527   1.975   1.175   3.729  0.1349  1.0926 -3.6308
  127OSM   H14T13528   2.141   1.113   3.705  0.8559 -2.2414  0.4232
  127OSM   C15S13529   2.042   1.005   3.861 -0.2526 -0.2322  0.2594
  127OSM   H15S13530   2.097   0.913   3.830  1.6869  0.1174  2.4350
  127OSM   H15T13531   1.941   0.979   3.901 -1.1619  0.7202 -1.3109
  127OSM   C16S13532   2.116   1.073   3.973  0.0359 -0.2660 -0.0201
  127OSM   H16S13533   2.069   1.171   3.996  0.9895 -0.0260  0.9907
  127OSM   H16T13534   2.221   1.083   3.937 -0.0128 -2.0428 -0.7608
  127OSM   C17S13535   2.128   0.984   4.096 -0.5588 -0.7731 -0.1913
  127OSM   H17S13536   2.143   0.876   4.078  0.2115 -0.7568  0.3256
  127OSM   H17T13537   2.025   0.991   4.138 -0.0900 -1.2828  1.0931
  127OSM   C18S13538   2.219   1.038   4.208  0.1348 -0.3972  1.1146
  127OSM   H18S13539   2.217   1.149   4.203  0.8978 -0.4454 -2.7759
  127OSM   H18T13540   2.327   1.022   4.187 -0.1125 -0.7361  0.0278
  127OSM   H18U13541   2.194   0.998   4.309  0.7823  0.9954  1.8562
  127OSM    C1F13542   2.105   0.669   2.725  0.8009 -0.1287  0.4472
  127OSM     OF13543   2.219   0.656   2.687 -0.1305 -0.0081  0.3857
  127OSM    C2F13544   2.043   0.585   2.833 -0.0772 -0.2262 -0.0495
  127OSM    H2F13545   1.979   0.507   2.787 -1.2724  1.3675 -1.2416
  127OSM    H2G13546   1.979   0.659   2.886  0.9124  1.0613 -0.5758
  127OSM    C3F13547   2.152   0.529   2.920  0.1899 -0.3884  0.0403
  127OSM    H3F13548   2.228   0.608   2.941  0.2899 -0.0885 -1.4082
  127OSM    H3G13549   2.183   0.448   2.850 -2.8683 -1.4331 -0.2667
  127OSM    C4F13550   2.106   0.467   3.055  0.0375  0.0432 -0.1490
  127OSM    H4F13551   2.182   0.388   3.076 -0.9199 -0.5785  1.1928
  127OSM    H4G13552   2.003   0.424   3.054 -0.4395  1.0914  1.0334
  127OSM    C5F13553   2.099   0.568   3.167  0.0008 -0.3201  0.2475
  127OSM    H5F13554   2.020   0.637   3.131  0.3266 -0.6848 -1.2032
  127OSM    H5G13555   2.197   0.622   3.170  0.4638 -1.1358 -0.0322
  127OSM    C6F13556   2.047   0.511   3.303  0.7191  0.2305 -0.3598
  127OSM    H6F13557   2.126   0.465   3.366 -0.0493  0.8338  1.0778
  127OSM    H6G13558   1.969   0.434   3.286  0.3645  0.0019  1.9832
  127OSM    C7F13559   1.977   0.613   3.389 -0.1196  0.2017  0.3309
  127OSM    H7F13560   1.909   0.662   3.317  1.8589  0.7779 -1.2517
  127OSM    H7G13561   2.052   0.688   3.423 -0.2523  0.8491 -0.7730
  127OSM    C8F13562   1.924   0.553   3.522  0.6527 -0.1998 -0.0094
  127OSM    H8F13563   1.995   0.493   3.584  0.2793  1.1841  1.8751
  127OSM    H8G13564   1.844   0.485   3.488  0.8175 -0.3333 -0.1315
  127OSM    C9F13565   1.859   0.673   3.594  0.5032  0.5596 -0.1875
  127OSM    H9F13566   1.833   0.755   3.526 -0.7132  1.7248  1.6068
  127OSM   C10F13567   1.836   0.678   3.727 -0.2886 -0.4537 -0.8446
  127OSM   H10F13568   1.795   0.772   3.768 -1.0326 -0.0800 -2.3712
  127OSM   C11F13569   1.884   0.579   3.827  0.8600 -0.8256  1.0158
  127OSM   H11F13570   1.987   0.553   3.794 -0.0432  0.4381 -3.5449
  127OSM   H11G13571   1.831   0.483   3.808  3.1778 -2.0661  0.3358
  127OSM   C12F13572   1.874   0.633   3.966 -0.0551  0.6603 -0.3506
  127OSM   H12F13573   1.893   0.743   3.957 -3.6151  1.3424 -1.3713
  127OSM   H12G13574   1.961   0.585   4.014  0.4065  1.8016 -0.0036
  127OSM   C13F13575   1.734   0.603   4.032  0.3780  0.1797  0.1629
  127OSM   H13F13576   1.706   0.496   4.022  3.1854 -0.7283  0.9914
  127OSM   H13G13577   1.658   0.664   3.978 -0.8229 -0.5196  1.0225
  127OSM   C14F13578   1.730   0.641   4.181  0.7355  0.0732  0.1107
  127OSM   H14F13579   1.783   0.738   4.192 -2.5076  2.1187 -0.8731
  127OSM   H14G13580   1.796   0.576   4.242  0.5008 -0.5058 -0.2498
  127OSM   C15F13581   1.591   0.665   4.241  0.7622  0.8312  0.4795
  127OSM   H15F13582   1.533   0.570   4.240  0.3982  0.9277 -3.8668
  127OSM   H15G13583   1.526   0.729   4.177  0.1573  1.8212  2.0073
  127OSM   C16F13584   1.597   0.727   4.394  0.5948 -0.4681  0.3365
  127OSM   H16F13585   1.490   0.744   4.422 -0.2299 -1.8959 -1.7479
  127OSM   H16G13586   1.664   0.815   4.389  0.6100 -0.3988  1.5029
  127OSM   C17F13587   1.650   0.624   4.496 -0.2645  0.5677 -0.2870
  127OSM   H17F13588   1.757   0.600   4.479 -0.3809 -1.3217  1.2517
  127OSM   H17G13589   1.595   0.529   4.478  0.1782  0.4396 -1.0205
  127OSM   C18F13590   1.638   0.672   4.641  0.6745  0.5137 -0.5814
  127OSM   H18F13591   1.531   0.668   4.671  0.5919  3.6861 -0.0964
  127OSM   H18G13592   1.661   0.781   4.651 -1.5373  0.8946  1.2922
  127OSM   H18H13593   1.696   0.611   4.713 -0.3776  0.8505  0.6055
  128OSM      N13594   2.273   6.587   2.149 -0.3703 -0.5006  0.1173
  128OSM    C1513595   2.304   6.581   2.009 -0.1469 -0.1401  0.0899
  128OSM   H15A13596   2.377   6.659   1.992 -1.7816  1.8206  1.4744
  128OSM   H15B13597   2.221   6.595   1.941 -0.9465  0.2114  1.1076
  128OSM   H15C13598   2.336   6.480   1.987  0.4198 -0.4916  2.2560
  128OSM    C1413599   2.405   6.586   2.224 -0.1467  0.0525  0.2221
  128OSM   H14A13600   2.446   6.492   2.189  1.0186  0.5773  0.1469
  128OSM   H14B13601   2.389   6.579   2.331 -3.2265  0.9739 -0.0703
  128OSM   H14C13602   2.470   6.667   2.197  0.3969 -0.7690 -1.0032
  128OSM    C1313603   2.194   6.711   2.161  0.3048 -0.4662  0.2556
  128OSM   H13A13604   2.137   6.730   2.071  1.0365  0.2145 -0.0805
  128OSM   H13B13605   2.267   6.790   2.165  0.0555 -0.2313  0.1917
  128OSM   H13C13606   2.120   6.704   2.239 -1.2739 -0.0476 -1.1638
  128OSM    C1213607   2.189   6.468   2.193 -0.3755  0.0339 -0.4060
  128OSM   H12A13608   2.233   6.372   2.171 -2.0850 -1.5106  2.2241
  128OSM   H12B13609   2.102   6.460   2.129  0.3480 -1.0223 -1.2784
  128OSM    C1113610   2.153   6.465   2.346  0.1230 -0.1613  0.5639
  128OSM   H11A13611   2.073   6.388   2.357  2.2811 -2.6694 -0.1285
  128OSM   H11B13612   2.099   6.558   2.372 -1.2787 -0.4592 -1.0822
  128OSM      P13613   2.322   6.297   2.454  0.0870 -0.0079 -0.4797
  128OSM    O1313614   2.312   6.223   2.332 -0.0369  0.1789  0.0427
  128OSM    O1413615   2.454   6.308   2.530  0.6033 -0.2147 -0.3890
  128OSM    O1113616   2.211   6.245   2.552  0.1189  0.0330  0.5141
  128OSM    O1213617   2.266   6.443   2.434  0.0330 -0.0404 -0.4600
  128OSM    C1S13618   2.184   6.317   2.669  0.5529  0.1790 -0.6689
  128OSM    H1S13619   2.119   6.404   2.643 -0.6216 -0.4288  0.1548
  128OSM    H1T13620   2.277   6.340   2.726  2.0460 -1.2679 -2.3791
  128OSM     NF13621   2.062   6.306   2.894  0.3012  0.4653 -0.4093
  128OSM    HNF13622   2.120   6.286   2.973  0.8926 -1.3559 -1.2517
  128OSM    C2S13623   2.102   6.233   2.778  0.5396 -0.3958 -0.1137
  128OSM    H2S13624   2.007   6.196   2.731  1.0565 -2.0523  0.0740
  128OSM    C3S13625   2.178   6.106   2.807  0.5749  0.2069 -0.8621
  128OSM    H3S13626   2.281   6.133   2.838  0.9759  0.7216 -2.5414
  128OSM     O313627   2.197   6.023   2.694 -0.0928 -0.2146 -0.4664
  128OSM    HO313628   2.173   6.087   2.627  0.6369  0.6037  0.0264
  128OSM    C4S13629   2.108   6.026   2.911  0.2676 -0.1438 -0.3450
  128OSM    H4S13630   2.003   5.997   2.895  0.2967 -0.6780  0.3914
  128OSM    C5S13631   2.160   5.996   3.036 -0.2755 -0.0279  0.9759
  128OSM    H5S13632   2.269   6.002   3.046 -0.0505 -0.1488 -1.0581
  128OSM    C6S13633   2.084   5.932   3.150  0.1638 -0.2716  0.1889
  128OSM    H6S13634   2.077   5.821   3.139  0.0253 -0.2251 -0.2036
  128OSM    H6T13635   1.977   5.960   3.138  0.5728  0.8631 -1.1588
  128OSM    C7S13636   2.130   5.970   3.288 -0.1352  0.8420 -0.5203
  128OSM    H7S13637   2.137   6.081   3.297  2.1370  0.7716 -0.9692
  128OSM    H7T13638   2.232   5.929   3.303 -0.4997  0.3425  0.7043
  128OSM    C8S13639   2.046   5.921   3.409  0.5151  0.9525  0.4380
  128OSM    H8S13640   2.023   5.812   3.407 -0.0327  1.0784 -1.1818
  128OSM    H8T13641   1.954   5.982   3.418  0.1036  0.3558  0.4096
  128OSM    C9S13642   2.126   5.958   3.530 -0.4217 -0.1547 -0.3630
  128OSM    H9S13643   2.145   6.067   3.524  1.6390 -0.4251  0.5543
  128OSM    H9T13644   2.219   5.899   3.525  0.1477  0.2275  3.1816
  128OSM   C10S13645   2.061   5.926   3.669  0.1770  0.0719 -0.2004
  128OSM   H10S13646   2.040   5.818   3.681 -1.5290  0.0922 -2.3992
  128OSM   H10T13647   1.961   5.972   3.650  0.6656  0.8804 -0.8782
  128OSM   C11S13648   2.133   5.983   3.789 -0.2230  0.0047  0.5355
  128OSM   H11S13649   2.148   6.091   3.765 -2.0135  0.5832  1.7170
  128OSM   H11T13650   2.236   5.942   3.789 -0.2825 -0.2238 -1.3714
  128OSM   C12S13651   2.064   5.963   3.925 -0.3463 -0.4818 -0.6021
  128OSM   H12S13652   2.027   5.859   3.941  1.0106 -1.2792 -2.3297
  128OSM   H12T13653   1.982   6.039   3.923  0.1830  0.0812 -1.4051
  128OSM   C13S13654   2.164   5.991   4.042  0.0854 -0.2434  0.2492
  128OSM   H13S13655   2.187   6.100   4.038 -0.0349 -0.1509  1.5652
  128OSM   H13T13656   2.256   5.933   4.023  0.3115  0.5200 -1.0628
  128OSM   C14S13657   2.096   5.977   4.183 -0.7424  0.4301  0.5525
  128OSM   H14S13658   2.178   5.959   4.256  0.0165  3.6543  0.6353
  128OSM   H14T13659   2.025   5.892   4.181  2.6302 -2.6528 -1.7799
  128OSM   C15S13660   2.028   6.103   4.229  0.5467  0.3175 -0.8791
  128OSM   H15S13661   1.955   6.119   4.148 -1.6635  2.7988  1.4012
  128OSM   H15T13662   2.099   6.189   4.227  2.3527 -1.0359  0.4947
  128OSM   C16S13663   1.970   6.097   4.367 -0.2804  0.2060 -0.3478
  128OSM   H16S13664   2.013   6.011   4.424 -0.5321 -0.5985 -1.3434
  128OSM   H16T13665   1.863   6.069   4.371 -0.0854 -0.5397 -0.2858
  128OSM   C17S13666   1.990   6.228   4.447  0.3516  0.4422  0.4287
  128OSM   H17S13667   1.894   6.283   4.448  0.8349  1.2899  1.1267
  128OSM   H17T13668   2.063   6.298   4.400  1.3797 -0.2941  0.8889
  128OSM   C18S13669   2.029   6.195   4.593  0.1543 -0.7323  0.3875
  128OSM   H18S13670   2.025   6.287   4.656  0.4552 -0.6800  0.3312
  128OSM   H18T13671   2.131   6.151   4.597 -0.1032 -1.2475  1.7389
  128OSM   H18U13672   1.942   6.134   4.625 -0.2362  0.2557  1.2854
  128OSM    C1F13673   1.987   6.416   2.896  0.0031 -0.1306 -0.7371
  128OSM     OF13674   1.937   6.448   2.794  0.0943 -0.1110 -0.3244
  128OSM    C2F13675   1.968   6.485   3.027 -0.5363  0.6372 -0.1802
  128OSM    H2F13676   1.859   6.486   3.048 -0.3029  1.7995  1.0756
  128OSM    H2G13677   2.017   6.584   3.015  3.1025 -1.2685 -3.8726
  128OSM    C3F13678   2.047   6.423   3.146 -0.2637 -0.9595 -0.3532
  128OSM    H3F13679   2.156   6.427   3.123 -0.5129  0.3315 -1.4319
  128OSM    H3G13680   2.021   6.317   3.167 -0.3285 -1.4075 -2.4536
  128OSM    C4F13681   2.021   6.502   3.281 -0.3002  0.4886 -0.4173
  128OSM    H4F13682   1.911   6.503   3.295 -0.2354  0.5365  0.1394
  128OSM    H4G13683   2.052   6.609   3.281 -1.0309  0.7024 -0.3021
  128OSM    C5F13684   2.082   6.425   3.400 -0.6412  0.0966  0.1734
  128OSM    H5F13685   2.187   6.393   3.384 -1.1534 -0.0206 -4.3313
  128OSM    H5G13686   2.022   6.331   3.404  0.3484 -0.5927 -0.5522
  128OSM    C6F13687   2.067   6.503   3.534  0.2147  0.4020  0.5987
  128OSM    H6F13688   2.129   6.594   3.544 -1.6500  1.8001 -0.0221
  128OSM    H6G13689   2.116   6.434   3.607  0.0498  0.3867  0.6953
  128OSM    C7F13690   1.920   6.531   3.569  0.7756 -0.4975 -0.2624
  128OSM    H7F13691   1.856   6.444   3.544  0.3608 -0.1874 -0.2814
  128OSM    H7G13692   1.875   6.617   3.515 -0.3599  0.5056  2.1584
  128OSM    C8F13693   1.906   6.571   3.715 -1.0040 -0.0360  0.9528
  128OSM    H8F13694   1.813   6.631   3.723 -0.9016  0.8747 -2.8018
  128OSM    H8G13695   1.992   6.632   3.750  0.1458 -0.5247 -0.8604
  128OSM    C9F13696   1.895   6.442   3.792  0.6233  0.3840 -0.4180
  128OSM    H9F13697   1.850   6.359   3.737  0.2388 -0.7427  1.5018
  128OSM   C10F13698   1.938   6.418   3.919 -0.5065  0.3364  0.1317
  128OSM   H10F13699   1.913   6.317   3.955  0.9770 -0.1698 -0.1843
  128OSM   C11F13700   2.012   6.508   4.012  0.5954  0.2588  0.3770
  128OSM   H11F13701   2.041   6.608   3.973  3.4694 -0.0744  1.3858
  128OSM   H11G13702   2.110   6.461   4.036  0.2175 -0.5564  0.3311
  128OSM   C12F13703   1.933   6.522   4.139  0.6026 -0.6929  0.1062
  128OSM   H12F13704   1.920   6.422   4.186 -2.3218 -1.2982 -1.6977
  128OSM   H12G13705   1.829   6.547   4.106  1.0664 -0.8771 -1.6092
  128OSM   C13F13706   1.992   6.625   4.244 -0.0316  0.4213 -0.6367
  128OSM   H13F13707   1.999   6.728   4.203  2.9237  1.0061  1.1148
  128OSM   H13G13708   2.097   6.596   4.267 -0.0472  0.0645 -0.9917
  128OSM   C14F13709   1.908   6.641   4.368  0.5783  0.0360 -0.0565
  128OSM   H14F13710   1.882   6.542   4.409 -1.9030  0.3642 -0.6871
  128OSM   H14G13711   1.809   6.688   4.349  0.6290  0.4759  0.7244
  128OSM   C15F13712   1.987   6.721   4.472 -0.5707  0.4676 -0.1958
  128OSM   H15F13713   2.022   6.821   4.439 -1.5315  1.1793  0.8667
  128OSM   H15G13714   2.081   6.663   4.484 -0.7986  0.4061  1.6495
  128OSM   C16F13715   1.911   6.742   4.607 -0.0751 -0.0914  0.0280
  128OSM   H16F13716   1.874   6.643   4.640 -1.7394  0.2343 -0.7644
  128OSM   H16G13717   1.822   6.808   4.597 -1.3117 -1.2914  2.2348
  128OSM   C17F13718   1.994   6.784   4.728 -0.6567 -0.3580 -0.0554
  128OSM   H17F13719   2.050   6.874   4.694 -3.1798  0.9934 -0.9278
  128OSM   H17G13720   2.059   6.706   4.772 -1.2736  0.1514  1.8553
  128OSM   C18F13721   1.910   6.831   4.842 -0.1863 -0.3836  0.3534
  128OSM   H18F13722   1.874   6.936   4.832 -2.8505 -1.1019  1.4445
  128OSM   H18G13723   1.973   6.841   4.932 -0.6922  1.3144  0.5682
  128OSM   H18H13724   1.828   6.758   4.860 -0.4879 -0.3998 -0.9401
  129OSM      N13725   4.867   4.969   2.270 -0.2625  1.1079 -0.5878
  129OSM    C1513726   4.990   5.038   2.207  0.2130 -0.9439 -0.3306
  129OSM   H15A13727   5.037   4.975   2.133 -0.2288  2.0827 -3.4189
  129OSM   H15B13728   5.066   5.060   2.280  1.0868  0.0584 -1.5207
  129OSM   H15C13729   4.951   5.130   2.167  1.8354 -0.8729 -1.8135
  129OSM    C1413730   4.767   4.943   2.160 -0.3854 -0.2488 -0.3117
  129OSM   H14A13731   4.822   4.898   2.079  0.7246 -0.5546  0.5886
  129OSM   H14B13732   4.718   5.032   2.122 -0.4510 -1.7932 -4.3153
  129OSM   H14C13733   4.690   4.876   2.194 -1.5259  1.5042  0.7556
  129OSM    C1313734   4.918   4.834   2.312  0.1425 -0.1672  0.0879
  129OSM   H13A13735   4.991   4.840   2.391 -0.3478 -1.3389  0.6490
  129OSM   H13B13736   4.960   4.778   2.230 -0.0202  0.0111 -0.1183
  129OSM   H13C13737   4.831   4.782   2.349 -0.9308  0.5938 -1.2540
  129OSM    C1213738   4.805   5.035   2.387  0.7967  0.1156 -0.4525
  129OSM   H12A13739   4.715   4.988   2.422  0.7374  0.5892  0.0539
  129OSM   H12B13740   4.774   5.136   2.364  0.1131 -0.0548 -0.2839
  129OSM    C1113741   4.886   5.050   2.524 -0.2409  0.5391 -0.0221
  129OSM   H11A13742   4.934   4.955   2.555 -0.7527  0.2693 -0.0614
  129OSM   H11B13743   4.817   5.077   2.607  1.4837 -1.0992  2.0552
  129OSM      P13744   4.964   5.297   2.531 -0.0018  0.4230  0.0183
  129OSM    O1313745   5.085   5.367   2.473  0.5884  0.5144 -0.8250
  129OSM    O1413746   4.830   5.328   2.483  0.3624 -0.4037  0.1875
  129OSM    O1113747   4.965   5.317   2.687 -0.4832 -0.0618 -0.1128
  129OSM    O1213748   4.992   5.146   2.506 -0.2430 -0.2184 -0.1980
  129OSM    C1S13749   5.047   5.240   2.776 -0.0616  0.2275  0.2658
  129OSM    H1S13750   5.156   5.258   2.776  0.6877 -3.3725  1.6376
  129OSM    H1T13751   5.029   5.131   2.761  1.0411  0.0902 -0.1382
  129OSM     NF13752   5.115   5.203   3.006  0.2228  0.2951  0.3818
  129OSM    HNF13753   5.108   5.106   3.031  1.8297  0.9938  4.1108
  129OSM    C2S13754   5.006   5.263   2.926  0.1287 -0.0748  0.0991
  129OSM    H2S13755   4.997   5.371   2.951 -0.7916 -0.0468 -0.2940
  129OSM    C3S13756   4.853   5.208   2.937 -0.6520 -0.1908 -0.0680
  129OSM    H3S13757   4.862   5.100   2.911 -1.8116 -0.4391  0.4729
  129OSM     O313758   4.768   5.270   2.841 -0.0964 -0.4542 -0.5401
  129OSM    HO313759   4.834   5.266   2.771  1.9145  0.0353  1.2049
  129OSM    C4S13760   4.802   5.229   3.075 -0.0033 -0.2344  0.1981
  129OSM    H4S13761   4.760   5.330   3.091  2.3934  0.7622  0.6566
  129OSM    C5S13762   4.789   5.134   3.172  0.0521  0.0421 -0.0618
  129OSM    H5S13763   4.810   5.029   3.145 -1.3839 -0.7021  1.5372
  129OSM    C6S13764   4.719   5.155   3.303  0.3456 -1.1440  0.1153
  129OSM    H6S13765   4.793   5.113   3.374  1.1032  0.3623  0.2576
  129OSM    H6T13766   4.627   5.093   3.301  0.2028 -0.9837  1.1393
  129OSM    C7S13767   4.671   5.298   3.338 -0.5770 -0.2558 -0.0110
  129OSM    H7S13768   4.611   5.348   3.259  0.5424  1.3550  0.1005
  129OSM    H7T13769   4.755   5.370   3.345 -2.0071  1.4187  0.8685
  129OSM    C8S13770   4.600   5.300   3.481  0.5016  0.4428 -0.1241
  129OSM    H8S13771   4.515   5.230   3.463  1.3986 -0.6254 -0.3863
  129OSM    H8T13772   4.556   5.399   3.502 -0.4298  0.0026  0.0249
  129OSM    C9S13773   4.696   5.253   3.593  0.2918  0.2615  0.3881
  129OSM    H9S13774   4.803   5.260   3.565  0.0503  0.2237 -0.5671
  129OSM    H9T13775   4.671   5.146   3.613  2.2976 -0.2493  0.3740
  129OSM   C10S13776   4.681   5.346   3.718 -0.1117  0.3940  0.1205
  129OSM   H10S13777   4.573   5.337   3.741 -0.3035 -0.4014 -1.0015
  129OSM   H10T13778   4.703   5.447   3.677 -2.7807  1.3044  0.6908
  129OSM   C11S13779   4.770   5.309   3.834 -0.4525  1.0285  0.1215
  129OSM   H11S13780   4.879   5.316   3.812 -0.1189 -3.1381 -0.3850
  129OSM   H11T13781   4.763   5.199   3.844  2.8177  0.7083  0.0139
  129OSM   C12S13782   4.746   5.366   3.981  0.8349  0.0397  0.1806
  129OSM   H12S13783   4.639   5.345   3.999  0.8315 -0.6345 -0.5434
  129OSM   H12T13784   4.760   5.476   3.989  0.0126  0.1448  0.2186
  129OSM   C13S13785   4.832   5.297   4.088 -0.0560  0.4090 -0.5407
  129OSM   H13S13786   4.935   5.338   4.080  0.4150 -0.7502 -0.5131
  129OSM   H13T13787   4.843   5.191   4.059  0.6276  0.0238  1.0114
  129OSM   C14S13788   4.787   5.293   4.243 -0.2408  0.4510  0.0372
  129OSM   H14S13789   4.683   5.253   4.241  0.2953 -1.1107 -2.3897
  129OSM   H14T13790   4.790   5.397   4.281 -4.2177  0.1318  1.6362
  129OSM   C15S13791   4.864   5.191   4.330  0.9474 -0.0792  0.1867
  129OSM   H15S13792   4.972   5.209   4.309  1.1135 -0.9259  0.2695
  129OSM   H15T13793   4.825   5.092   4.300 -0.3015 -0.2452  2.1458
  129OSM   C16S13794   4.839   5.197   4.480 -0.7694 -0.5425  0.2589
  129OSM   H16S13795   4.732   5.224   4.496 -0.7560 -0.9078  1.0609
  129OSM   H16T13796   4.894   5.284   4.520  0.1222 -0.7040 -0.5902
  129OSM   C17S13797   4.896   5.072   4.556 -0.0046  0.4920 -0.4063
  129OSM   H17S13798   4.862   4.988   4.492  0.7229  0.7658 -1.1801
  129OSM   H17T13799   4.857   5.060   4.660 -1.7755  4.6947 -0.3674
  129OSM   C18S13800   5.047   5.070   4.572  0.4957  0.3251 -0.3260
  129OSM   H18S13801   5.078   5.169   4.612 -1.4144  0.2818  1.4147
  129OSM   H18T13802   5.095   5.064   4.472  3.8400 -0.2560  1.1923
  129OSM   H18U13803   5.082   4.991   4.642 -0.5378  0.0432 -0.1080
  129OSM    C1F13804   5.236   5.256   3.015 -0.1378  0.1258  0.1672
  129OSM     OF13805   5.270   5.367   2.969 -0.2021  0.0330  0.2761
  129OSM    C2F13806   5.342   5.167   3.072  0.0064 -0.0742 -0.6111
  129OSM    H2F13807   5.312   5.064   3.044 -1.1667 -0.1111  0.6884
  129OSM    H2G13808   5.348   5.166   3.183  0.9460 -0.0410 -0.6508
  129OSM    C3F13809   5.480   5.185   3.013 -0.8653 -0.7142 -0.2578
  129OSM    H3F13810   5.506   5.285   3.053 -1.5123 -0.5610 -0.2198
  129OSM    H3G13811   5.492   5.182   2.902  1.4804  1.2946 -0.1442
  129OSM    C4F13812   5.578   5.081   3.075 -0.4510 -0.1030 -0.1043
  129OSM    H4F13813   5.546   4.982   3.035 -1.1234 -0.0780  0.3630
  129OSM    H4G13814   5.564   5.083   3.185 -1.9941  1.3333 -0.2881
  129OSM    C5F13815   5.724   5.103   3.051  0.8714  0.7192  0.3402
  129OSM    H5F13816   5.743   5.120   2.942 -1.4028 -1.2319 -0.4448
  129OSM    H5G13817   5.761   4.999   3.067 -0.6514  0.3182  1.4000
  129OSM    C6F13818   5.793   5.202   3.144  0.8011  0.7244  0.0925
  129OSM    H6F13819   5.780   5.171   3.250 -0.4697 -0.5873 -0.4069
  129OSM    H6G13820   5.743   5.301   3.145 -1.9868 -0.5834  1.9276
  129OSM    C7F13821   5.949   5.204   3.115  0.6858 -0.0641  0.4716
  129OSM    H7F13822   5.949   5.205   3.003 -0.7245  2.4300  0.4220
  129OSM    H7G13823   5.993   5.106   3.144 -1.0854 -1.0830 -0.0986
  129OSM    C8F13824   6.025   5.328   3.171  0.5236  0.9556 -0.1388
  129OSM    H8F13825   6.133   5.306   3.154 -0.1073 -2.4443 -0.4211
  129OSM    H8G13826   6.013   5.318   3.281  1.1060 -0.6383 -0.2056
  129OSM    C9F13827   5.965   5.460   3.107  0.9860  0.3177  0.1915
  129OSM    H9F13828   5.991   5.473   3.001 -0.1554  1.3529  0.0173
  129OSM   C10F13829   5.898   5.553   3.176 -0.4392  0.1506 -0.4899
  129OSM   H10F13830   5.862   5.650   3.140 -1.5146 -0.1142 -0.1853
  129OSM   C11F13831   5.866   5.549   3.321  1.1698 -0.1264 -0.6090
  129OSM   H11F13832   5.940   5.596   3.389 -0.8505  0.8578  0.9968
  129OSM   H11G13833   5.863   5.444   3.358 -1.5124 -0.0113 -0.3418
  129OSM   C12F13834   5.733   5.618   3.356  0.1229 -0.5030  0.3138
  129OSM   H12F13835   5.734   5.723   3.321 -1.1993  0.3876  2.7077
  129OSM   H12G13836   5.725   5.610   3.467 -2.4789 -0.5603  0.1982
  129OSM   C13F13837   5.613   5.544   3.300  0.6702  0.4299 -0.1142
  129OSM   H13F13838   5.608   5.440   3.339 -1.2331  1.3818  2.4417
  129OSM   H13G13839   5.632   5.531   3.191  1.3281  1.4130 -0.1270
  129OSM   C14F13840   5.471   5.598   3.335 -0.0547  0.0432  0.2670
  129OSM   H14F13841   5.474   5.701   3.294  2.0707  1.0766  2.7573
  129OSM   H14G13842   5.456   5.609   3.444  0.4941 -0.2311  0.3732
  129OSM   C15F13843   5.365   5.513   3.273  0.2122 -0.0503  0.6392
  129OSM   H15F13844   5.350   5.425   3.339  2.2344  0.1513  1.4576
  129OSM   H15G13845   5.390   5.480   3.170  0.4780 -0.1935  0.7488
  129OSM   C16F13846   5.222   5.581   3.281  0.3747 -0.1614 -0.2665
  129OSM   H16F13847   5.215   5.664   3.207  0.9847  0.3617  0.2501
  129OSM   H16G13848   5.213   5.623   3.384  1.1793 -0.9519  0.1409
  129OSM   C17F13849   5.106   5.483   3.266 -0.7072  0.2107  0.0678
  129OSM   H17F13850   5.107   5.436   3.165  0.6778 -1.1650  0.6907
  129OSM   H17G13851   5.012   5.542   3.253 -1.9775 -1.8499 -0.7417
  129OSM   C18F13852   5.075   5.375   3.376 -0.2717  0.0186  0.4906
  129OSM   H18F13853   5.082   5.412   3.480 -3.0145  1.8911  0.1276
  129OSM   H18G13854   5.141   5.286   3.364 -1.5647 -1.1505  1.7563
  129OSM   H18H13855   4.966   5.351   3.377 -0.8985  2.4837 -0.3830
  130OSM      N13856   3.117   6.546   2.585  0.1755 -0.1038 -0.2538
  130OSM    C1513857   3.108   6.604   2.728 -0.0263 -0.2744  0.0586
  130OSM   H15A13858   3.083   6.708   2.712  0.2970 -0.2607 -0.3804
  130OSM   H15B13859   3.202   6.587   2.778  0.6786 -2.4229 -1.8275
  130OSM   H15C13860   3.037   6.552   2.791  1.8174 -0.4638  2.0724
  130OSM    C1413861   3.170   6.404   2.591  0.1974  0.0621  0.2316
  130OSM   H14A13862   3.190   6.371   2.490 -1.3270 -0.5558  0.1085
  130OSM   H14B13863   3.093   6.338   2.628 -0.4651  0.7222  0.0344
  130OSM   H14C13864   3.266   6.393   2.640  1.2822  2.4257 -1.1832
  130OSM    C1313865   2.974   6.547   2.534  0.3634  0.4831  0.0101
  130OSM   H13A13866   2.897   6.530   2.608 -0.6472 -0.6617 -1.2362
  130OSM   H13B13867   2.958   6.468   2.461  0.6320  0.3703  0.0727
  130OSM   H13C13868   2.959   6.645   2.491  1.1743  0.4538 -0.3581
  130OSM    C1213869   3.211   6.639   2.508 -0.9079  0.1340 -0.4075
  130OSM   H12A13870   3.250   6.581   2.425 -2.2470 -1.2359 -0.1151
  130OSM   H12B13871   3.295   6.663   2.572 -0.6359 -0.8961 -0.3599
  130OSM    C1113872   3.155   6.764   2.441  0.1442 -0.5830  0.2440
  130OSM   H11A13873   3.060   6.739   2.388 -0.8858  1.6830  0.8822
  130OSM   H11B13874   3.227   6.806   2.368 -1.0155  0.0241 -0.5822
  130OSM      P13875   3.090   7.006   2.530 -0.0941  0.4206 -0.0239
  130OSM    O1313876   3.209   7.074   2.479 -0.2695  0.7883 -0.6448
  130OSM    O1413877   2.965   7.026   2.454  0.2019  0.2252 -0.4819
  130OSM    O1113878   3.059   7.052   2.676 -0.0330 -0.0891 -0.4769
  130OSM    O1213879   3.125   6.853   2.548 -0.4646  0.2060 -0.2746
  130OSM    C1S13880   3.147   7.005   2.781 -0.7504 -0.5072  0.1486
  130OSM    H1S13881   3.225   7.084   2.787 -0.3378 -0.8656 -0.5054
  130OSM    H1T13882   3.192   6.905   2.766 -1.6346 -1.4340  3.0305
  130OSM     NF13883   3.166   6.973   3.022 -0.3353  0.3329  0.2939
  130OSM    HNF13884   3.184   6.877   3.044  2.8047  0.4130 -1.3769
  130OSM    C2S13885   3.069   6.998   2.914  0.6964 -0.5984  0.5832
  130OSM    H2S13886   3.041   7.106   2.917  0.1834 -0.6433 -1.1615
  130OSM    C3S13887   2.938   6.921   2.908 -0.1043  0.2122 -0.6924
  130OSM    H3S13888   2.953   6.813   2.888 -2.4629 -0.2560 -0.2207
  130OSM     O313889   2.850   6.966   2.808  0.2666  0.1101  0.2713
  130OSM    HO313890   2.912   7.007   2.747 -0.5836 -1.2068 -1.5774
  130OSM    C4S13891   2.877   6.921   3.041  0.2773  0.4136  0.3122
  130OSM    H4S13892   2.918   6.840   3.102 -0.6238  1.0935  1.8922
  130OSM    C5S13893   2.778   7.007   3.088 -0.4553 -0.4727 -0.3987
  130OSM    H5S13894   2.747   7.085   3.018 -1.2083  0.8527  1.3354
  130OSM    C6S13895   2.713   6.997   3.226 -0.7382  0.2964  0.2823
  130OSM    H6S13896   2.676   6.894   3.245 -1.1186  0.8338  2.8585
  130OSM    H6T13897   2.630   7.071   3.235  0.9034  2.2534  0.0982
  130OSM    C7S13898   2.815   7.050   3.328 -0.2281  0.0904 -0.1319
  130OSM    H7S13899   2.854   7.148   3.292  2.1757  0.2049  2.4660
  130OSM    H7T13900   2.901   6.981   3.329  0.2264  0.4815 -3.1440
  130OSM    C8S13901   2.755   7.059   3.470 -0.2419  0.6369 -0.0207
  130OSM    H8S13902   2.760   6.958   3.516 -1.4951  1.0780  1.2042
  130OSM    H8T13903   2.647   7.087   3.465 -0.3032  0.1757 -1.9696
  130OSM    C9S13904   2.805   7.168   3.568 -0.3596 -0.1760  0.0251
  130OSM    H9S13905   2.798   7.270   3.525 -1.3403 -0.9319 -1.7165
  130OSM    H9T13906   2.910   7.135   3.587  0.4029  2.5078  0.8368
  130OSM   C10S13907   2.732   7.155   3.703 -0.6003 -0.4228  0.0065
  130OSM   H10S13908   2.739   7.047   3.726 -0.4311 -0.4423 -0.1361
  130OSM   H10T13909   2.625   7.182   3.714 -0.1656  1.2841  0.4249
  130OSM   C11S13910   2.813   7.219   3.812  0.1697 -0.6199  0.6380
  130OSM   H11S13911   2.805   7.328   3.788 -2.6011 -0.6096  1.2812
  130OSM   H11T13912   2.919   7.183   3.812  0.2761 -0.4699 -1.6307
  130OSM   C12S13913   2.739   7.188   3.942 -0.8200  0.0111  0.0674
  130OSM   H12S13914   2.739   7.078   3.950  2.2757 -0.2855 -2.2594
  130OSM   H12T13915   2.635   7.228   3.932 -0.9298 -0.6158 -1.5173
  130OSM   C13S13916   2.791   7.248   4.072  0.3046 -0.1186  0.2027
  130OSM   H13S13917   2.786   7.359   4.076 -0.0463 -0.1347  0.2055
  130OSM   H13T13918   2.898   7.217   4.070  0.4583  0.3856 -2.5228
  130OSM   C14S13919   2.712   7.204   4.196  0.5563 -0.4929 -0.2344
  130OSM   H14S13920   2.758   7.109   4.227  1.7545  0.3716  0.7354
  130OSM   H14T13921   2.604   7.191   4.173  0.2803  1.0741  0.0054
  130OSM   C15S13922   2.732   7.300   4.315 -0.1476  0.2200  0.0590
  130OSM   H15S13923   2.698   7.401   4.284 -2.7768 -1.0246 -1.4818
  130OSM   H15T13924   2.835   7.309   4.355 -0.0068 -0.6381 -0.0907
  130OSM   C16S13925   2.646   7.257   4.437 -0.2049 -0.2121 -0.1201
  130OSM   H16S13926   2.688   7.160   4.470 -0.3054 -0.4738 -0.7562
  130OSM   H16T13927   2.541   7.233   4.410  0.4429 -3.5691 -0.1258
  130OSM   C17S13928   2.627   7.359   4.553  0.5387 -0.4164 -0.4121
  130OSM   H17S13929   2.565   7.317   4.635  1.1231 -2.4600 -0.9613
  130OSM   H17T13930   2.574   7.445   4.508 -1.1213 -3.3389 -4.7529
  130OSM   C18S13931   2.759   7.405   4.626  0.4834 -0.6126 -0.0959
  130OSM   H18S13932   2.718   7.450   4.719  1.4841 -1.0574  0.5792
  130OSM   H18T13933   2.805   7.484   4.563 -1.0291 -0.3626 -0.9466
  130OSM   H18U13934   2.826   7.321   4.652 -1.4450 -1.7298  1.6390
  130OSM    C1F13935   3.244   7.070   3.057  0.2651  0.3386  0.1114
  130OSM     OF13936   3.219   7.189   3.042  0.5592 -0.6202 -0.5465
  130OSM    C2F13937   3.376   7.031   3.119 -0.0065  0.5937 -0.0009
  130OSM    H2F13938   3.437   6.989   3.035  0.3987  1.1585  0.0112
  130OSM    H2G13939   3.350   6.958   3.199 -0.5275  0.0946 -0.6118
  130OSM    C3F13940   3.461   7.142   3.176 -0.0816  0.4357 -0.2366
  130OSM    H3F13941   3.421   7.195   3.265  1.6670  2.4120 -0.5543
  130OSM    H3G13942   3.485   7.219   3.101 -1.3154 -0.4328 -1.5770
  130OSM    C4F13943   3.596   7.089   3.222 -1.0008 -0.3937  0.8024
  130OSM    H4F13944   3.674   7.168   3.217 -0.7812 -0.4092  2.9780
  130OSM    H4G13945   3.615   7.016   3.140 -3.8949  1.3701 -1.6191
  130OSM    C5F13946   3.600   7.021   3.356 -0.0504 -0.1428 -0.1644
  130OSM    H5F13947   3.703   6.983   3.373  1.1827  2.7860 -0.4923
  130OSM    H5G13948   3.529   6.935   3.364 -1.7944  1.0748 -1.7746
  130OSM    C6F13949   3.579   7.119   3.479  0.7993 -0.5603  0.5100
  130OSM    H6F13950   3.473   7.152   3.488  0.7573 -0.6933  0.4968
  130OSM    H6G13951   3.643   7.208   3.463  0.4965 -0.4376 -0.0118
  130OSM    C7F13952   3.594   7.041   3.611  0.2364 -0.0700 -0.0318
  130OSM    H7F13953   3.689   6.984   3.616  0.7222  0.8402  2.6967
  130OSM    H7G13954   3.520   6.958   3.604  2.0241 -1.5889 -2.2671
  130OSM    C8F13955   3.586   7.131   3.731  0.2025  0.0918 -0.2670
  130OSM    H8F13956   3.501   7.202   3.723 -0.7052 -0.8769  0.5411
  130OSM    H8G13957   3.677   7.195   3.727  1.6518 -1.8827  0.0358
  130OSM    C9F13958   3.564   7.058   3.864 -0.0182  0.1459 -0.1201
  130OSM    H9F13959   3.463   7.031   3.898 -1.3527  0.4217 -3.4419
  130OSM   C10F13960   3.662   6.999   3.941 -0.3945  0.2368  0.0989
  130OSM   H10F13961   3.647   6.967   4.045 -0.0565  1.9272  0.7076
  130OSM   C11F13962   3.809   7.005   3.909 -0.3879 -0.0592  0.3937
  130OSM   H11F13963   3.863   7.079   3.972  0.6303  2.2257 -2.8730
  130OSM   H11G13964   3.816   7.022   3.800 -1.3516 -0.3925  0.2668
  130OSM   C12F13965   3.870   6.866   3.937  0.2458  0.8254 -0.4409
  130OSM   H12F13966   3.964   6.862   3.878  0.7546 -1.7535  0.4442
  130OSM   H12G13967   3.798   6.807   3.877 -1.3834  2.4376 -0.1732
  130OSM   C13F13968   3.879   6.815   4.080 -0.2646 -0.2805  0.4497
  130OSM   H13F13969   3.775   6.790   4.111 -1.1316  2.4789  0.0468
  130OSM   H13G13970   3.915   6.897   4.145 -0.0647 -1.1812  1.5080
  130OSM   C14F13971   3.977   6.694   4.092  0.5500 -0.1643  0.4312
  130OSM   H14F13972   4.080   6.730   4.070  0.1158  0.1107 -1.2555
  130OSM   H14G13973   3.947   6.630   4.006  0.9742 -0.8325  0.7632
  130OSM   C15F13974   3.950   6.616   4.226 -0.6199 -0.8465 -0.6227
  130OSM   H15F13975   3.967   6.510   4.199  2.5788 -0.6113  0.0509
  130OSM   H15G13976   3.846   6.636   4.260  0.3593  2.1455  0.9321
  130OSM   C16F13977   4.042   6.668   4.340  0.6290 -0.0574 -0.5046
  130OSM   H16F13978   4.031   6.779   4.339  2.3819  0.1445 -2.1804
  130OSM   H16G13979   4.149   6.643   4.322  1.2832  2.2654 -0.1419
  130OSM   C17F13980   4.010   6.627   4.482  0.5326 -0.0748 -0.2608
  130OSM   H17F13981   4.001   6.516   4.488 -0.9743  0.1027  2.1542
  130OSM   H17G13982   3.913   6.675   4.506  0.2498 -1.8449  2.6245
  130OSM   C18F13983   4.115   6.668   4.583  0.0138 -0.3031 -0.4180
  130OSM   H18F13984   4.094   6.604   4.671  0.9345 -0.8255 -0.5631
  130OSM   H18G13985   4.100   6.778   4.597 -0.6248 -0.5541  1.0462
  130OSM   H18H13986   4.214   6.645   4.538  0.3100 -0.8261  0.4806
  131OSM      N13987   2.247   4.690   2.014  0.0485  0.2657  0.4721
  131OSM    C1513988   2.145   4.591   2.049  0.0453  0.6464  0.3093
  131OSM   H15A13989   2.045   4.627   2.028 -0.1521 -0.4723 -0.8115
  131OSM   H15B13990   2.137   4.553   2.149 -4.2598 -1.7761 -0.7126
  131OSM   H15C13991   2.163   4.495   2.003 -2.7686 -0.5192  1.4192
  131OSM    C1413992   2.388   4.644   2.033 -0.5192  0.2391  0.4873
  131OSM   H14A13993   2.419   4.551   1.986  1.7096  0.2777  1.7284
  131OSM   H14B13994   2.407   4.623   2.137 -0.6721  1.4612  0.7776
  131OSM   H14C13995   2.451   4.722   1.992  0.2418  0.3339  1.7679
  131OSM    C1313996   2.232   4.732   1.873 -0.1129 -0.0775 -0.0530
  131OSM   H13A13997   2.238   4.642   1.814 -0.5537 -0.2197  0.1150
  131OSM   H13B13998   2.312   4.800   1.846 -0.3946  1.3142  2.3156
  131OSM   H13C13999   2.141   4.787   1.853  0.6923  1.3494  0.0219
  131OSM    C1214000   2.237   4.816   2.095 -0.1494 -0.3729 -0.3706
  131OSM   H12A14001   2.140   4.862   2.090 -0.1575 -0.2190  0.8032
  131OSM   H12B14002   2.307   4.883   2.048  0.1361  0.4349  1.1379
  131OSM    C1114003   2.273   4.822   2.250  0.0596 -0.5374  0.3619
  131OSM   H11A14004   2.242   4.924   2.283 -2.1963 -0.1911 -2.4277
  131OSM   H11B14005   2.383   4.816   2.242  0.1009 -2.0956  1.6220
  131OSM      P14006   2.307   4.645   2.428 -0.1940  0.3127  0.4719
  131OSM    O1314007   2.225   4.562   2.523 -0.2431  0.2914  0.0429
  131OSM    O1414008   2.400   4.578   2.340  0.8617  0.1860  0.4668
  131OSM    O1114009   2.379   4.760   2.499  0.4102  0.5393  0.0141
  131OSM    O1214010   2.209   4.720   2.333  0.7505 -0.0103 -0.3990
  131OSM    C1S14011   2.322   4.846   2.601 -0.7801 -0.4522 -0.3715
  131OSM    H1S14012   2.211   4.834   2.604 -0.6666 -2.2417 -1.6339
  131OSM    H1T14013   2.327   4.953   2.573  0.3565 -0.6141 -0.8367
  131OSM     NF14014   2.301   4.906   2.841 -0.5377 -0.3429 -0.0866
  131OSM    HNF14015   2.331   4.999   2.857 -1.1780  0.0241 -0.9520
  131OSM    C2S14016   2.381   4.823   2.745  0.5230 -0.0416  0.0887
  131OSM    H2S14017   2.368   4.715   2.766  0.6135 -0.0213  0.2468
  131OSM    C3S14018   2.530   4.857   2.739  0.1146 -0.0457 -0.0153
  131OSM    H3S14019   2.533   4.965   2.713 -0.3934 -0.3498 -1.4351
  131OSM     O314020   2.594   4.793   2.632  0.7685  0.0572  0.4849
  131OSM    HO314021   2.521   4.771   2.573  1.0913 -0.3761  0.2388
  131OSM    C4S14022   2.598   4.827   2.866 -0.6477 -0.1421  0.3713
  131OSM    H4S14023   2.573   4.730   2.912  0.3632 -1.1390 -1.0683
  131OSM    C5S14024   2.675   4.914   2.937  0.2644  0.0829  0.5535
  131OSM    H5S14025   2.662   5.020   2.912 -1.9193 -0.5035 -1.0864
  131OSM    C6S14026   2.728   4.869   3.073 -0.0679 -0.2734  0.5044
  131OSM    H6S14027   2.829   4.903   3.102 -0.1065 -0.5724  0.9980
  131OSM    H6T14028   2.725   4.759   3.083 -0.3872 -0.5519 -2.0681
  131OSM    C7S14029   2.634   4.925   3.190  0.8062  0.1764 -0.2466
  131OSM    H7S14030   2.605   5.028   3.162  0.8343 -0.3811 -2.5501
  131OSM    H7T14031   2.696   4.956   3.277 -2.8880  0.2538  2.5926
  131OSM    C8S14032   2.537   4.814   3.235  0.1725  0.0647 -0.1159
  131OSM    H8S14033   2.596   4.735   3.287  2.0635  2.2318  1.2269
  131OSM    H8T14034   2.489   4.773   3.144  0.8899  1.3932 -1.1299
  131OSM    C9S14035   2.425   4.860   3.333  0.2852  0.5807  0.4572
  131OSM    H9S14036   2.337   4.791   3.334  1.5945 -1.1737 -0.1344
  131OSM    H9T14037   2.400   4.961   3.295  0.6941  0.2712 -0.6619
  131OSM   C10S14038   2.470   4.874   3.477 -0.3400 -0.1045  0.8603
  131OSM   H10S14039   2.522   4.972   3.488  0.2587 -0.5352  2.0405
  131OSM   H10T14040   2.540   4.790   3.497 -0.6326 -0.6692 -0.3832
  131OSM   C11S14041   2.356   4.870   3.576 -0.0718  0.5887 -0.5013
  131OSM   H11S14042   2.316   4.767   3.592  2.3957 -0.3808 -0.2438
  131OSM   H11T14043   2.271   4.928   3.535  1.2739  1.8213 -1.6235
  131OSM   C12S14044   2.407   4.929   3.707  0.3182 -0.4493 -0.0016
  131OSM   H12S14045   2.470   5.017   3.682 -0.1427 -0.0126  0.3467
  131OSM   H12T14046   2.467   4.855   3.764  0.2390  0.8137  1.8350
  131OSM   C13S14047   2.298   4.984   3.791  0.4538  0.2873 -0.0350
  131OSM   H13S14048   2.224   4.911   3.831  0.2350  0.0861 -0.7752
  131OSM   H13T14049   2.240   5.050   3.723 -3.5586 -1.0184  1.7671
  131OSM   C14S14050   2.328   5.087   3.900 -0.6425  0.0798  0.0058
  131OSM   H14S14051   2.243   5.145   3.940 -0.5502  0.1448  0.1104
  131OSM   H14T14052   2.396   5.162   3.852  0.2146 -1.6228 -1.5771
  131OSM   C15S14053   2.407   5.037   4.016  0.5329  0.1395 -0.0912
  131OSM   H15S14054   2.509   5.022   3.977  0.6489  2.4650 -0.8622
  131OSM   H15T14055   2.370   4.939   4.054  0.9307  0.7388  1.9969
  131OSM   C16S14056   2.413   5.136   4.129  0.3911 -0.3292  0.1147
  131OSM   H16S14057   2.310   5.166   4.157 -0.3593 -4.7021  2.8881
  131OSM   H16T14058   2.471   5.225   4.095  1.3972 -0.6078  1.0184
  131OSM   C17S14059   2.484   5.087   4.256  0.4548  0.0682 -0.4425
  131OSM   H17S14060   2.522   5.181   4.302  0.6337  0.4794 -1.4034
  131OSM   H17T14061   2.574   5.025   4.239  1.0615  1.4380 -2.5691
  131OSM   C18S14062   2.409   5.005   4.362 -0.0921  0.5502 -1.0428
  131OSM   H18S14063   2.475   4.989   4.450  1.7828 -0.7598 -2.5949
  131OSM   H18T14064   2.403   4.899   4.329 -1.4825 -0.5795  2.3393
  131OSM   H18U14065   2.306   5.037   4.386  0.3721  1.5184 -0.2351
  131OSM    C1F14066   2.190   4.863   2.892 -0.2201  0.5922  0.4462
  131OSM     OF14067   2.146   4.753   2.853 -0.6988 -1.3015  0.7652
  131OSM    C2F14068   2.116   4.952   2.991  0.7189  0.4965 -0.0820
  131OSM    H2F14069   2.107   5.055   2.953  2.5756  0.8343  0.3257
  131OSM    H2G14070   2.187   4.961   3.076  0.4519 -0.7665  0.3063
  131OSM    C3F14071   1.974   4.896   3.024 -0.2857 -0.4054  0.0707
  131OSM    H3F14072   1.967   4.786   3.034  1.8066 -0.5256  0.6494
  131OSM    H3G14073   1.913   4.916   2.933 -0.7889  1.4957  0.7788
  131OSM    C4F14074   1.903   4.971   3.131  0.2489 -0.4881  0.1556
  131OSM    H4F14075   1.802   4.932   3.154 -0.2858 -0.0325 -1.3346
  131OSM    H4G14076   1.898   5.076   3.095  0.4741 -0.5094  0.0635
  131OSM    C5F14077   1.975   4.979   3.266 -0.3782  0.1471  0.1252
  131OSM    H5F14078   2.068   5.038   3.249 -2.0061  2.5170 -1.1556
  131OSM    H5G14079   1.990   4.872   3.290  0.2566  0.1562 -0.2223
  131OSM    C6F14080   1.900   5.025   3.385 -0.9199  0.3224  0.1103
  131OSM    H6F14081   1.792   5.039   3.365 -0.6649 -0.2997 -1.9655
  131OSM    H6G14082   1.953   5.118   3.414  0.0919  0.0459 -0.7692
  131OSM    C7F14083   1.915   4.928   3.512  0.4762  0.4071 -0.0882
  131OSM    H7F14084   2.021   4.905   3.535  0.8462  1.3406 -0.8042
  131OSM    H7G14085   1.865   4.832   3.488  0.4735 -0.5877  3.4102
  131OSM    C8F14086   1.848   4.968   3.644 -0.8082 -0.6593  0.3638
  131OSM    H8F14087   1.829   4.883   3.713  1.5729  0.4160  2.4951
  131OSM    H8G14088   1.752   5.014   3.612 -0.6746 -2.0882 -2.3987
  131OSM    C9F14089   1.926   5.082   3.709 -0.6457 -0.1657 -0.1170
  131OSM    H9F14090   1.940   5.167   3.641  1.2426 -1.2130 -1.1344
  131OSM   C10F14091   1.967   5.097   3.834  0.0383  0.5061  0.1340
  131OSM   H10F14092   2.014   5.193   3.861  1.2535  0.0425 -0.2870
  131OSM   C11F14093   1.954   4.990   3.936 -0.4684 -0.1696 -0.3105
  131OSM   H11F14094   2.048   4.973   3.993  0.5391 -0.9400 -2.1232
  131OSM   H11G14095   1.952   4.894   3.880 -1.0872 -1.7673  2.2674
  131OSM   C12F14096   1.837   4.988   4.022  0.2447 -0.0929 -0.3593
  131OSM   H12F14097   1.839   4.896   4.083  0.2930  0.8613  1.1238
  131OSM   H12G14098   1.742   4.989   3.966  0.0422  1.0877 -0.0296
  131OSM   C13F14099   1.837   5.103   4.123 -0.3906  0.5017  0.2294
  131OSM   H13F14100   1.832   5.196   4.063  2.0844  0.2803 -0.4190
  131OSM   H13G14101   1.934   5.101   4.177 -0.0477  0.3232 -0.3899
  131OSM   C14F14102   1.713   5.101   4.223  0.3405  0.7894  0.1158
  131OSM   H14F14103   1.627   5.078   4.158 -0.0153 -1.1945  1.2280
  131OSM   H14G14104   1.706   5.204   4.264 -0.3128  1.3572 -1.3619
  131OSM   C15F14105   1.723   5.013   4.345 -0.4078 -0.0040  0.5961
  131OSM   H15F14106   1.823   5.025   4.391  0.1747 -0.0925 -0.6129
  131OSM   H15G14107   1.714   4.904   4.325  0.4355 -0.1197  0.8192
  131OSM   C16F14108   1.614   5.053   4.445 -0.2888  0.2172 -0.1463
  131OSM   H16F14109   1.515   5.049   4.395 -0.2436 -1.6227 -0.1385
  131OSM   H16G14110   1.631   5.159   4.474 -0.9818  0.1583  0.4970
  131OSM   C17F14111   1.604   4.957   4.561 -0.7645 -0.2471 -0.0938
  131OSM   H17F14112   1.700   4.961   4.616 -0.5053 -0.7908 -0.4911
  131OSM   H17G14113   1.591   4.853   4.523  1.9018 -0.4998 -0.4855
  131OSM   C18F14114   1.501   4.992   4.670  0.3548  0.3679 -0.4058
  131OSM   H18F14115   1.523   5.097   4.700  2.7682 -0.1616 -0.0691
  131OSM   H18G14116   1.507   4.922   4.756  1.4724 -0.5601 -1.2095
  131OSM   H18H14117   1.400   4.985   4.625  0.8383 -1.8362 -1.2717
  132OSM      N14118   0.205   5.262   2.093 -0.7453 -0.5328  0.7507
  132OSM    C1514119   0.166   5.355   2.195  0.8323 -0.6434 -1.2866
  132OSM   H15A14120   0.071   5.332   2.242  1.4561  0.1979  0.4858
  132OSM   H15B14121   0.163   5.459   2.164  2.6666 -0.6256 -1.5040
  132OSM   H15C14122   0.238   5.356   2.275  1.0929 -3.2684 -1.4100
  132OSM    C1414123   0.131   5.288   1.968 -0.2537 -0.5408  0.2598
  132OSM   H14A14124   0.025   5.281   1.985 -0.4779  0.3630 -0.6429
  132OSM   H14B14125   0.161   5.221   1.889 -1.6000  0.2053 -0.9331
  132OSM   H14C14126   0.158   5.389   1.940 -1.4675  0.4250  2.3668
  132OSM    C1314127   0.347   5.276   2.052  0.0231  0.5915 -0.5223
  132OSM   H13A14128   0.415   5.236   2.125  1.1776  1.3521 -1.1512
  132OSM   H13B14129   0.370   5.380   2.034 -2.1209  0.8513 -2.1667
  132OSM   H13C14130   0.374   5.222   1.962 -0.5655 -0.3210 -0.1725
  132OSM    C1214131   0.187   5.120   2.153  0.2388  0.1475 -0.4254
  132OSM   H12A14132   0.202   5.041   2.081 -0.5751  0.4728 -0.9740
  132OSM   H12B14133   0.082   5.121   2.181  0.5084 -0.1323  0.6419
  132OSM    C1114134   0.280   5.073   2.266  0.8011  0.0372  0.1360
  132OSM   H11A14135   0.226   4.989   2.315  1.1041  0.0939  0.5696
  132OSM   H11B14136   0.285   5.150   2.346 -2.2910  0.8142 -0.2763
  132OSM      P14137   0.444   4.898   2.159 -0.1313 -0.4477  0.4222
  132OSM    O1314138   0.339   4.866   2.068 -0.1663  0.3119  0.1054
  132OSM    O1414139   0.576   4.907   2.095 -0.4899 -0.4269  0.3553
  132OSM    O1114140   0.438   4.804   2.287 -0.0218 -0.0765 -0.2332
  132OSM    O1214141   0.407   5.040   2.215 -0.3653  0.2350 -0.5093
  132OSM    C1S14142   0.503   4.838   2.408 -0.0136 -0.3258 -0.2027
  132OSM    H1S14143   0.547   4.940   2.402 -0.4051 -0.1527 -0.1516
  132OSM    H1T14144   0.589   4.771   2.430 -1.3693 -2.6272 -1.4337
  132OSM     NF14145   0.468   4.905   2.640  0.0377 -0.5488  0.2504
  132OSM    HNF14146   0.497   4.848   2.716  1.2282  0.1247  0.3391
  132OSM    C2S14147   0.403   4.837   2.525  0.4570  0.9216 -0.9073
  132OSM    H2S14148   0.315   4.899   2.502 -0.8239 -0.9039 -1.1316
  132OSM    C3S14149   0.342   4.694   2.551 -0.0996 -0.1334  0.2080
  132OSM    H3S14150   0.426   4.626   2.578 -0.1579 -1.0868 -1.8072
  132OSM     O314151   0.278   4.631   2.441 -0.4466  0.0685  0.2412
  132OSM    HO314152   0.307   4.682   2.364  1.7239 -1.0035  0.2667
  132OSM    C4S14153   0.252   4.686   2.676  0.1479 -0.3422 -0.2225
  132OSM    H4S14154   0.308   4.634   2.755  1.1531 -0.0628 -0.7277
  132OSM    C5S14155   0.122   4.723   2.695 -0.5850 -0.9238  0.2238
  132OSM    H5S14156   0.063   4.782   2.623 -0.5233  1.7967  2.2354
  132OSM    C6S14157   0.040   4.704   2.823  0.5490  0.7837 -0.3647
  132OSM    H6S14158  -0.044   4.635   2.803  0.1368  1.5936 -1.4797
  132OSM    H6T14159  -0.008   4.800   2.852  0.2729  0.8891 -1.1540
  132OSM    C7S14160   0.103   4.631   2.940 -0.5136  0.8881  0.6845
  132OSM    H7S14161   0.187   4.682   2.992 -0.3185  0.4684  0.7841
  132OSM    H7T14162   0.141   4.539   2.890 -1.0018  1.3109 -0.5090
  132OSM    C8S14163  -0.003   4.584   3.048 -0.0376  0.4010  0.5025
  132OSM    H8S14164  -0.093   4.550   2.993 -1.9001  1.9791  2.3974
  132OSM    H8T14165  -0.038   4.663   3.118  0.8087  1.0258  0.2452
  132OSM    C9S14166   0.051   4.460   3.131  0.3840 -0.1418  0.1494
  132OSM    H9S14167   0.132   4.494   3.198 -0.7498  1.7821  0.6202
  132OSM    H9T14168   0.088   4.392   3.051  0.4084  1.3460 -1.1614
  132OSM   C10S14169  -0.063   4.402   3.218 -0.3853  0.3695 -0.1108
  132OSM   H10S14170  -0.017   4.311   3.263 -0.6378  0.7051  0.8509
  132OSM   H10T14171  -0.148   4.380   3.149  0.1746  0.6559 -0.9165
  132OSM   C11S14172  -0.109   4.484   3.341  0.4593 -0.3978 -0.6107
  132OSM   H11S14173  -0.164   4.561   3.283  0.3922  0.1694  0.1831
  132OSM   H11T14174  -0.024   4.533   3.394 -1.2403 -0.3365  2.2663
  132OSM   C12S14175  -0.190   4.412   3.448 -0.2033  0.4085 -0.4753
  132OSM   H12S14176  -0.126   4.346   3.510 -1.3251 -0.0316  0.2445
  132OSM   H12T14177  -0.274   4.353   3.406  1.6911 -1.9800 -1.1842
  132OSM   C13S14178  -0.258   4.509   3.546  0.3267  0.3943  0.4872
  132OSM   H13S14179  -0.332   4.567   3.486 -2.7828 -3.6998 -0.0762
  132OSM   H13T14180  -0.179   4.573   3.591 -1.5548  1.6419  2.2198
  132OSM   C14S14181  -0.337   4.445   3.660 -0.1430 -0.0397 -0.2780
  132OSM   H14S14182  -0.275   4.373   3.717 -0.3169 -0.7128 -0.9259
  132OSM   H14T14183  -0.423   4.392   3.613  0.4514 -1.1972 -0.1032
  132OSM   C15S14184  -0.399   4.551   3.757 -0.4434  0.1995  0.1756
  132OSM   H15S14185  -0.452   4.628   3.698 -2.1841 -1.2546 -0.2424
  132OSM   H15T14186  -0.312   4.614   3.787  1.1220 -0.0302 -3.2901
  132OSM   C16S14187  -0.479   4.495   3.868  0.7547 -0.0778 -0.4662
  132OSM   H16S14188  -0.426   4.412   3.919  1.6588 -1.0874 -2.8785
  132OSM   H16T14189  -0.573   4.443   3.840 -0.4705  0.3518  2.4781
  132OSM   C17S14190  -0.512   4.598   3.980 -0.5964 -0.0135 -0.3901
  132OSM   H17S14191  -0.571   4.681   3.935 -2.8052 -1.2437  0.1277
  132OSM   H17T14192  -0.418   4.641   4.022  0.4800 -1.4185 -1.2687
  132OSM   C18S14193  -0.590   4.518   4.086 -0.1232 -0.5260  0.5029
  132OSM   H18S14194  -0.625   4.591   4.161  3.9305  0.9913  1.1815
  132OSM   H18T14195  -0.518   4.445   4.130  0.8544  0.1071 -0.0107
  132OSM   H18U14196  -0.667   4.467   4.024  0.3452 -1.1443  0.4162
  132OSM    C1F14197   0.490   5.036   2.649  0.9523 -0.1080 -0.5058
  132OSM     OF14198   0.430   5.108   2.563  0.0070 -0.0670 -0.3080
  132OSM    C2F14199   0.581   5.084   2.753  0.3912  0.0827  0.3347
  132OSM    H2F14200   0.675   5.028   2.737  1.1865  1.4051  0.2745
  132OSM    H2G14201   0.540   5.043   2.848  0.1828  0.8836  0.5989
  132OSM    C3F14202   0.585   5.233   2.748 -0.5236  0.0312 -0.0155
  132OSM    H3F14203   0.486   5.280   2.767 -1.1849 -0.3201 -2.2517
  132OSM    H3G14204   0.610   5.263   2.644 -0.2424  2.3245  0.6788
  132OSM    C4F14205   0.677   5.295   2.852  0.2663 -0.3515  0.4001
  132OSM    H4F14206   0.663   5.404   2.833  0.5393 -0.6361 -1.6448
  132OSM    H4G14207   0.782   5.273   2.825  0.3419  0.3985  0.0607
  132OSM    C5F14208   0.637   5.266   2.997  0.4171  0.4688 -0.1341
  132OSM    H5F14209   0.626   5.158   3.017 -3.0194  0.5152 -1.1877
  132OSM    H5G14210   0.540   5.319   3.008  0.5147  0.5943  0.1236
  132OSM    C6F14211   0.723   5.343   3.101 -0.0717  0.1099  0.2069
  132OSM    H6F14212   0.752   5.447   3.073  0.4551  0.3706  1.6294
  132OSM    H6G14213   0.824   5.302   3.121  0.8185  2.1182  0.0809
  132OSM    C7F14214   0.646   5.353   3.231 -0.3354 -0.3284  0.4173
  132OSM    H7F14215   0.604   5.254   3.262 -2.5661  1.2937  3.0293
  132OSM    H7G14216   0.561   5.418   3.202 -0.8798 -1.6067 -0.9949
  132OSM    C8F14217   0.729   5.407   3.348 -0.5717 -0.6294 -0.3489
  132OSM    H8F14218   0.652   5.414   3.427 -2.6995 -3.6302 -1.9689
  132OSM    H8G14219   0.791   5.496   3.326  1.6129 -1.9963 -0.1028
  132OSM    C9F14220   0.837   5.309   3.404  0.8975 -0.6750 -0.1826
  132OSM    H9F14221   0.932   5.303   3.350  1.6413  0.0063  1.0212
  132OSM   C10F14222   0.830   5.236   3.510 -0.1129 -0.1775 -0.2536
  132OSM   H10F14223   0.925   5.189   3.541 -0.2847 -0.7165 -0.5187
  132OSM   C11F14224   0.717   5.232   3.611 -0.2453 -0.0768  0.7878
  132OSM   H11F14225   0.706   5.128   3.646  1.3433 -0.6365 -0.2271
  132OSM   H11G14226   0.620   5.254   3.562  0.9560 -0.3133 -1.9277
  132OSM   C12F14227   0.765   5.335   3.713 -0.0449  0.0751  0.0145
  132OSM   H12F14228   0.787   5.432   3.663 -1.0508  0.4910  0.3572
  132OSM   H12G14229   0.856   5.303   3.768 -0.3327 -0.7695  0.0090
  132OSM   C13F14230   0.656   5.369   3.816  0.4974 -0.6591 -0.2175
  132OSM   H13F14231   0.563   5.404   3.767  0.7068  1.0532  0.5029
  132OSM   H13G14232   0.691   5.462   3.866 -1.7962 -1.0380  2.3026
  132OSM   C14F14233   0.625   5.261   3.921  0.5867 -0.3097  0.3025
  132OSM   H14F14234   0.713   5.243   3.986 -0.5738 -1.9168  1.5189
  132OSM   H14G14235   0.609   5.165   3.868 -1.3443 -0.2387  0.6982
  132OSM   C15F14236   0.502   5.298   4.007 -0.0132 -0.1404 -0.8537
  132OSM   H15F14237   0.485   5.230   4.093 -1.8841  0.3292 -0.7995
  132OSM   H15G14238   0.409   5.295   3.946  0.5599  1.9358 -1.9078
  132OSM   C16F14239   0.513   5.435   4.077 -0.5799  0.8421 -0.2581
  132OSM   H16F14240   0.532   5.524   4.012  2.4194  1.1369  0.8246
  132OSM   H16G14241   0.612   5.433   4.127 -1.4616 -3.2860  1.6814
  132OSM   C17F14242   0.407   5.465   4.182  0.3666 -0.2664  0.4873
  132OSM   H17F14243   0.407   5.386   4.259  1.8787  0.9272  1.7826
  132OSM   H17G14244   0.311   5.468   4.125  0.1472  0.5384  0.8782
  132OSM   C18F14245   0.412   5.610   4.231  0.0483  0.2527 -0.3542
  132OSM   H18F14246   0.403   5.670   4.139  0.0330  1.2184  0.2677
  132OSM   H18G14247   0.509   5.624   4.283  0.4559 -0.7499 -0.8176
  132OSM   H18H14248   0.324   5.633   4.295  0.4549  1.0033 -0.0566
  133OSM      N14249   1.083   5.377   2.037  0.1320 -0.1650  0.2242
  133OSM    C1514250   1.020   5.244   2.022  0.4418 -0.4134 -0.3867
  133OSM   H15A14251   1.007   5.211   1.920 -2.1102  1.3940 -0.7411
  133OSM   H15B14252   0.921   5.242   2.066  1.0919 -0.2311  1.1648
  133OSM   H15C14253   1.073   5.171   2.081 -2.2814  0.1680  3.1601
  133OSM    C1414254   1.033   5.465   1.926 -0.7409 -0.4985 -0.0943
  133OSM   H14A14255   1.023   5.416   1.830  0.0781 -1.9613  0.5481
  133OSM   H14B14256   1.096   5.554   1.924 -0.2335 -0.8542 -0.2525
  133OSM   H14C14257   0.945   5.516   1.960 -0.9264 -1.0027  0.1792
  133OSM    C1314258   1.043   5.432   2.170 -0.0397 -0.7308 -0.6057
  133OSM   H13A14259   0.936   5.443   2.177  0.1483  1.8095 -0.6968
  133OSM   H13B14260   1.093   5.527   2.184 -1.5423  0.2170 -1.3722
  133OSM   H13C14261   1.082   5.363   2.243 -2.1963 -1.0683  0.2988
  133OSM    C1214262   1.234   5.360   2.019  0.0974  0.3863  0.0838
  133OSM   H12A14263   1.252   5.324   1.919  0.3838 -0.2730  0.3652
  133OSM   H12B14264   1.277   5.288   2.087 -2.3839  0.9584  2.4257
  133OSM    C1114265   1.324   5.485   2.042  0.0802  0.5077 -0.1860
  133OSM   H11A14266   1.306   5.551   1.954 -0.7865  0.7983  0.1991
  133OSM   H11B14267   1.424   5.445   2.018 -0.7764 -0.2435 -2.9078
  133OSM      P14268   1.392   5.508   2.291  0.2790 -0.0227 -0.1211
  133OSM    O1314269   1.335   5.386   2.345  0.1343  0.1299  0.5791
  133OSM    O1414270   1.530   5.501   2.240 -0.0848 -0.4823 -0.0456
  133OSM    O1114271   1.379   5.635   2.390 -0.3274 -0.0742  0.1418
  133OSM    O1214272   1.310   5.548   2.168  0.3425 -0.3115 -0.5893
  133OSM    C1S14273   1.250   5.692   2.415 -0.2551  0.1788 -0.5621
  133OSM    H1S14274   1.164   5.633   2.374 -0.9830 -0.5489  1.8567
  133OSM    H1T14275   1.250   5.787   2.357 -0.3061  0.5784  0.0870
  133OSM     NF14276   1.090   5.773   2.578  0.1655  0.1024 -0.4643
  133OSM    HNF14277   1.071   5.866   2.608  2.7411  0.9296 -1.1159
  133OSM    C2S14278   1.233   5.731   2.564  0.4126  0.0591 -0.3443
  133OSM    H2S14279   1.244   5.634   2.618  0.5041  0.3382  0.1513
  133OSM    C3S14280   1.339   5.823   2.624 -0.1204 -0.3366 -0.2765
  133OSM    H3S14281   1.349   5.919   2.569 -1.3680  0.0404  0.1223
  133OSM     O314282   1.472   5.775   2.609 -0.1873  0.2280 -0.2500
  133OSM    HO314283   1.478   5.707   2.542 -0.4163 -0.8627  0.8049
  133OSM    C4S14284   1.303   5.849   2.767 -0.0557  0.1994  0.3397
  133OSM    H4S14285   1.247   5.943   2.779  0.2856  0.4540 -0.0301
  133OSM    C5S14286   1.338   5.774   2.869 -0.1268 -0.7030 -0.1375
  133OSM    H5S14287   1.398   5.684   2.852  0.8339 -0.0221 -0.4439
  133OSM    C6S14288   1.332   5.823   3.011  0.0377 -0.1256 -0.4634
  133OSM    H6S14289   1.435   5.816   3.051  0.3638 -3.1970 -1.5783
  133OSM    H6T14290   1.264   5.754   3.065 -3.1444  3.3372  0.4012
  133OSM    C7S14291   1.263   5.953   3.044 -0.1972 -0.3175 -0.3640
  133OSM    H7S14292   1.158   5.936   3.012 -0.1413 -0.3432 -0.5328
  133OSM    H7T14293   1.306   6.039   2.989  0.1888 -0.3519 -0.1254
  133OSM    C8S14294   1.279   5.991   3.196  0.8105  0.3085  0.2187
  133OSM    H8S14295   1.230   6.088   3.218  1.5769  1.4403 -2.6150
  133OSM    H8T14296   1.387   6.008   3.215  0.7341  2.5673 -1.0024
  133OSM    C9S14297   1.229   5.881   3.296 -0.0542 -0.1276  0.0827
  133OSM    H9S14298   1.291   5.791   3.276  1.4293  1.1225 -1.1812
  133OSM    H9T14299   1.122   5.864   3.274 -0.1396 -2.0942  1.7505
  133OSM   C10S14300   1.251   5.925   3.437 -0.3183  0.2735 -0.3928
  133OSM   H10S14301   1.200   6.020   3.462  0.7327  1.2082 -1.6488
  133OSM   H10T14302   1.354   5.938   3.477 -0.7189 -1.4674  1.3630
  133OSM   C11S14303   1.201   5.824   3.542  0.2989  0.2033  0.0437
  133OSM   H11S14304   1.274   5.741   3.552  2.2233  1.7363 -0.6413
  133OSM   H11T14305   1.111   5.780   3.495  1.0506 -0.5661 -0.6879
  133OSM   C12S14306   1.181   5.888   3.683  0.3983 -0.3054 -0.3145
  133OSM   H12S14307   1.093   5.956   3.688  1.2792  0.7608  2.4224
  133OSM   H12T14308   1.275   5.942   3.707  0.1735  0.3295 -0.8518
  133OSM   C13S14309   1.160   5.775   3.787 -0.2897  0.0230 -0.2360
  133OSM   H13S14310   1.237   5.697   3.769  0.9981  1.5819 -1.8891
  133OSM   H13T14311   1.058   5.731   3.774  0.6472 -2.1082 -0.8965
  133OSM   C14S14312   1.165   5.833   3.928  0.4357  0.2565 -0.8044
  133OSM   H14S14313   1.089   5.912   3.946 -1.5829 -2.0578  1.5022
  133OSM   H14T14314   1.257   5.891   3.950  1.0246  0.0597 -2.5287
  133OSM   C15S14315   1.168   5.726   4.037  0.2549  0.1999  0.3153
  133OSM   H15S14316   1.187   5.782   4.131 -1.1667  1.7197 -0.2552
  133OSM   H15T14317   1.252   5.655   4.023 -0.1657 -0.2271 -0.0761
  133OSM   C16S14318   1.035   5.647   4.043 -0.1247 -0.1830 -1.0127
  133OSM   H16S14319   1.027   5.576   4.128  3.9029 -0.9610 -1.1032
  133OSM   H16T14320   1.034   5.578   3.956  1.1047 -1.2446 -0.2167
  133OSM   C17S14321   0.910   5.742   4.049  0.5977 -0.0431  0.3605
  133OSM   H17S14322   0.910   5.793   3.950  2.7436  0.8410  0.7662
  133OSM   H17T14323   0.933   5.819   4.125 -0.9941  3.0388 -2.0494
  133OSM   C18S14324   0.772   5.679   4.067 -0.6094 -0.0029  0.6670
  133OSM   H18S14325   0.700   5.762   4.079  0.1623  0.7101  0.4161
  133OSM   H18T14326   0.758   5.609   4.153 -1.7424  1.2386  1.5358
  133OSM   H18U14327   0.750   5.627   3.971  2.4916 -0.2309 -0.0317
  133OSM    C1F14328   0.991   5.691   2.579  0.0363  0.1357  0.1936
  133OSM     OF14329   1.010   5.574   2.581 -0.7598  0.2456 -0.5737
  133OSM    C2F14330   0.850   5.744   2.589  0.2846  0.3202 -1.0974
  133OSM    H2F14331   0.810   5.766   2.488 -0.2670 -0.3134 -1.0203
  133OSM    H2G14332   0.856   5.844   2.638 -1.4368  0.2595 -0.7063
  133OSM    C3F14333   0.744   5.654   2.671  0.5352  0.0445 -0.1749
  133OSM    H3F14334   0.745   5.550   2.632 -1.9059  0.3512 -1.2439
  133OSM    H3G14335   0.641   5.690   2.651  1.1323  1.7628 -0.2986
  133OSM    C4F14336   0.755   5.658   2.824 -0.0809 -0.2355  0.4276
  133OSM    H4F14337   0.860   5.627   2.845  0.9610  1.3675 -1.9271
  133OSM    H4G14338   0.679   5.594   2.875 -0.3730  0.4163  0.8252
  133OSM    C5F14339   0.737   5.804   2.880  0.2178  0.6715  0.5624
  133OSM    H5F14340   0.639   5.836   2.838 -0.0459 -0.7498  0.0374
  133OSM    H5G14341   0.810   5.873   2.834  1.2929 -0.8894 -0.1801
  133OSM    C6F14342   0.729   5.807   3.031  0.1143  0.0608 -0.3281
  133OSM    H6F14343   0.641   5.745   3.058 -0.1809  0.4612 -0.3623
  133OSM    H6G14344   0.698   5.911   3.057  0.3291  0.0070  0.1446
  133OSM    C7F14345   0.849   5.756   3.104 -0.0886 -0.2248 -0.4528
  133OSM    H7F14346   0.937   5.807   3.059  0.4339 -0.0363  0.7452
  133OSM    H7G14347   0.862   5.646   3.100  0.7718 -0.2103  0.9916
  133OSM    C8F14348   0.846   5.779   3.253  0.0287 -1.0319 -0.7064
  133OSM    H8F14349   0.924   5.719   3.305 -1.4634 -1.7430  0.8139
  133OSM    H8G14350   0.750   5.739   3.293  0.0960 -0.6537 -0.1414
  133OSM    C9F14351   0.865   5.923   3.304 -0.1704 -0.1660 -0.1122
  133OSM    H9F14352   0.896   5.999   3.231  0.7914  0.6520  1.1035
  133OSM   C10F14353   0.855   5.951   3.432  0.0831 -0.3994 -0.0319
  133OSM   H10F14354   0.880   6.055   3.459  2.3296 -1.4591  2.4878
  133OSM   C11F14355   0.819   5.870   3.554 -0.7213 -0.1953  0.1261
  133OSM   H11F14356   0.891   5.891   3.636  1.2402 -0.5631 -1.4119
  133OSM   H11G14357   0.821   5.769   3.509 -1.1144  0.7300 -2.1612
  133OSM   C12F14358   0.681   5.896   3.613 -0.7823 -0.3502  0.1768
  133OSM   H12F14359   0.644   5.794   3.638  1.0045 -0.4128  3.0746
  133OSM   H12G14360   0.617   5.935   3.531  0.0067  2.6439  0.8582
  133OSM   C13F14361   0.681   5.984   3.734 -0.6705  0.1939 -0.1063
  133OSM   H13F14362   0.709   6.086   3.699  1.6213 -0.4657 -0.3721
  133OSM   H13G14363   0.756   5.949   3.809 -1.0082  1.2571  0.7495
  133OSM   C14F14364   0.545   5.980   3.807 -0.1763 -0.2527 -0.1216
  133OSM   H14F14365   0.529   5.883   3.860  0.1209  0.2091  0.8285
  133OSM   H14G14366   0.464   5.990   3.732 -1.5142  1.2633  1.4370
  133OSM   C15F14367   0.518   6.108   3.892 -0.4254  0.0753 -0.4579
  133OSM   H15F14368   0.521   6.200   3.830 -0.8126  1.0827  0.9807
  133OSM   H15G14369   0.600   6.120   3.966 -0.2283  1.9322 -0.9418
  133OSM   C16F14370   0.382   6.106   3.964 -0.1722 -0.2734 -0.4052
  133OSM   H16F14371   0.367   6.013   4.022 -1.0674 -0.3737 -0.7906
  133OSM   H16G14372   0.301   6.105   3.888  0.7379 -1.4042 -1.3991
  133OSM   C17F14373   0.365   6.231   4.050  0.6884 -0.1160  0.0599
  133OSM   H17F14374   0.370   6.315   3.977  1.0543  0.9823  1.3100
  133OSM   H17G14375   0.452   6.234   4.119 -1.3056 -2.2371  2.9328
  133OSM   C18F14376   0.237   6.253   4.127 -0.0982  0.9792  0.6099
  133OSM   H18F14377   0.241   6.340   4.196  1.7283  0.7684  0.8300
  133OSM   H18G14378   0.211   6.167   4.193 -0.0940  0.3368 -0.2080
  133OSM   H18H14379   0.162   6.279   4.050  1.2859 -1.0603 -1.5564
  134OSM      N14380   5.610   6.926   2.011  0.0189  0.0220  0.5098
  134OSM    C1514381   5.644   6.823   1.909 -0.7580  0.1626 -0.4240
  134OSM   H15A14382   5.583   6.736   1.928 -0.8984  0.3958  0.2547
  134OSM   H15B14383   5.747   6.793   1.914 -0.9799 -0.6160 -0.4226
  134OSM   H15C14384   5.619   6.859   1.810  0.5353 -0.4992 -1.0030
  134OSM    C1414385   5.684   7.047   1.973  0.3562 -0.9060  0.0558
  134OSM   H14A14386   5.646   7.126   2.036 -1.6912  0.7402 -2.9898
  134OSM   H14B14387   5.680   7.080   1.870  0.6642  1.6405  0.7948
  134OSM   H14C14388   5.788   7.035   2.002  0.4965 -0.3692 -0.2089
  134OSM    C1314389   5.467   6.948   2.003  0.1875 -0.8775 -0.3403
  134OSM   H13A14390   5.442   7.042   2.050  1.1299 -0.8134  0.0454
  134OSM   H13B14391   5.413   6.865   2.047  0.4325 -1.9858 -2.0435
  134OSM   H13C14392   5.427   6.940   1.903 -0.9302 -1.7084  0.1501
  134OSM    C1214393   5.641   6.876   2.151 -0.1937 -0.1948 -0.1499
  134OSM   H12A14394   5.658   6.964   2.211 -1.6583 -0.1697  0.2488
  134OSM   H12B14395   5.742   6.838   2.140 -0.5124 -1.0545 -0.1846
  134OSM    C1114396   5.560   6.762   2.216 -0.3898 -0.7069 -0.2099
  134OSM   H11A14397   5.462   6.802   2.250 -0.6727  1.5515 -3.2446
  134OSM   H11B14398   5.618   6.729   2.304  0.7722  1.5539 -0.0580
  134OSM      P14399   5.392   6.595   2.110  0.2528 -0.3037  0.3126
  134OSM    O1314400   5.301   6.702   2.056 -0.3570  0.0233  0.0560
  134OSM    O1414401   5.394   6.471   2.034 -0.5198 -0.1135  1.3111
  134OSM    O1114402   5.345   6.571   2.256  0.6422  0.2107  0.0972
  134OSM    O1214403   5.544   6.648   2.128  0.0537 -0.6758  0.2092
  134OSM    C1S14404   5.413   6.482   2.341  0.6230  0.3298  0.0160
  134OSM    H1S14405   5.523   6.494   2.331  0.4971  1.4886 -0.0892
  134OSM    H1T14406   5.385   6.375   2.327 -0.7747  0.8604 -1.6035
  134OSM     NF14407   5.465   6.446   2.573 -0.3030  0.3727  0.3792
  134OSM    HNF14408   5.445   6.359   2.618 -1.2824  0.5903  0.3871
  134OSM    C2S14409   5.369   6.512   2.485  0.3070 -0.1855  0.7606
  134OSM    H2S14410   5.375   6.622   2.499 -0.3928 -0.1878  1.1446
  134OSM    C3S14411   5.224   6.460   2.513  0.2708  0.3497 -0.2278
  134OSM    H3S14412   5.223   6.349   2.507  0.0239  0.2368  1.4581
  134OSM     O314413   5.124   6.509   2.419 -0.4137  0.2915 -0.6542
  134OSM    HO314414   5.180   6.563   2.363 -2.1751  0.1834 -2.6198
  134OSM    C4S14415   5.188   6.512   2.647  0.4769  0.5767 -0.7480
  134OSM    H4S14416   5.215   6.617   2.667  2.7709  0.2591 -1.7527
  134OSM    C5S14417   5.160   6.434   2.755 -0.0738  0.1552 -0.0326
  134OSM    H5S14418   5.150   6.326   2.741  0.7291 -0.0646  1.0180
  134OSM    C6S14419   5.130   6.502   2.892  0.0549 -0.0300 -0.0406
  134OSM    H6S14420   5.043   6.454   2.942  0.5658  0.6036  1.5144
  134OSM    H6T14421   5.099   6.607   2.870 -2.2740 -1.1182 -2.4743
  134OSM    C7S14422   5.261   6.512   2.968 -0.0780  0.1046 -0.4841
  134OSM    H7S14423   5.338   6.570   2.912  0.4846  2.3032  2.3379
  134OSM    H7T14424   5.301   6.413   3.000  0.1171  0.5214  0.6097
  134OSM    C8S14425   5.257   6.606   3.099  0.2363  0.2176  0.0720
  134OSM    H8S14426   5.214   6.702   3.062  1.0383  0.2704 -0.7693
  134OSM    H8T14427   5.356   6.632   3.142  0.4161 -1.6495  0.8658
  134OSM    C9S14428   5.179   6.551   3.220 -0.2991  0.0428  0.3299
  134OSM    H9S14429   5.171   6.440   3.220  0.2175 -0.0271  2.3713
  134OSM    H9T14430   5.075   6.586   3.208 -0.7255 -1.6929 -1.6301
  134OSM   C10S14431   5.239   6.601   3.353  0.0619 -0.2831  0.1996
  134OSM   H10S14432   5.350   6.605   3.362 -0.1408  1.4856  3.2408
  134OSM   H10T14433   5.205   6.532   3.433  0.8622  1.4656  2.1347
  134OSM   C11S14434   5.187   6.742   3.377  0.1534 -0.1632 -0.1851
  134OSM   H11S14435   5.077   6.743   3.395  0.0419  0.6611 -0.8661
  134OSM   H11T14436   5.193   6.806   3.287  1.0243 -0.4810 -0.3613
  134OSM   C12S14437   5.271   6.802   3.492 -0.2287  0.1010  0.8898
  134OSM   H12S14438   5.380   6.806   3.471 -0.6580  1.2211 -1.4927
  134OSM   H12T14439   5.247   6.749   3.586 -1.4211 -0.7157  0.1601
  134OSM   C13S14440   5.231   6.944   3.521 -0.7212 -0.0258  0.0154
  134OSM   H13S14441   5.220   6.993   3.421  1.6197 -0.5149 -0.5201
  134OSM   H13T14442   5.320   6.988   3.570 -1.6095  0.2779  1.4154
  134OSM   C14S14443   5.106   6.955   3.608 -0.3422 -0.1229 -0.5408
  134OSM   H14S14444   5.139   6.909   3.704 -1.2241  2.0259  0.8795
  134OSM   H14T14445   5.019   6.896   3.574 -1.0572  1.1471 -0.9972
  134OSM   C15S14446   5.075   7.102   3.642 -0.1305 -0.0369  0.3330
  134OSM   H15S14447   5.172   7.153   3.665  1.9224 -1.7793 -3.5848
  134OSM   H15T14448   5.003   7.115   3.725  0.2886  0.1935  0.6681
  134OSM   C16S14449   5.009   7.189   3.528  0.6010 -0.3236 -0.2530
  134OSM   H16S14450   5.094   7.220   3.464 -0.8353  1.3789 -1.4233
  134OSM   H16T14451   4.968   7.277   3.582  0.9690 -0.7197  0.7112
  134OSM   C17S14452   4.903   7.118   3.445  0.2228  0.7120 -0.0358
  134OSM   H17S14453   4.830   7.062   3.507 -0.3532 -1.4627 -2.4748
  134OSM   H17T14454   4.949   7.029   3.396 -1.6815 -0.7833  0.7613
  134OSM   C18S14455   4.824   7.213   3.352 -0.3604 -0.2456 -0.0338
  134OSM   H18S14456   4.735   7.165   3.305 -1.1430 -0.6909  1.8302
  134OSM   H18T14457   4.885   7.247   3.266  1.3302 -2.6978  0.1044
  134OSM   H18U14458   4.781   7.295   3.414 -0.7131  0.5087 -1.2191
  134OSM    C1F14459   5.593   6.489   2.575 -0.2218 -0.2943  0.5368
  134OSM     OF14460   5.620   6.596   2.524  0.3242  0.1001  0.3626
  134OSM    C2F14461   5.688   6.404   2.652  0.3686  0.2670 -0.3119
  134OSM    H2F14462   5.766   6.365   2.583 -0.0704 -1.8114  0.3133
  134OSM    H2G14463   5.632   6.318   2.693 -0.5218  0.8495 -0.2917
  134OSM    C3F14464   5.762   6.490   2.759 -0.0524  0.4661 -0.6463
  134OSM    H3F14465   5.789   6.594   2.729  1.1201  1.2594  2.6950
  134OSM    H3G14466   5.858   6.451   2.800  1.2630  1.3808 -2.7327
  134OSM    C4F14467   5.670   6.512   2.893 -0.2916  0.4234  0.2442
  134OSM    H4F14468   5.655   6.408   2.927  2.0027  0.1461  0.5587
  134OSM    H4G14469   5.575   6.561   2.862 -0.5551  0.1841  0.6667
  134OSM    C5F14470   5.735   6.599   2.998 -0.3463 -0.0488  0.2386
  134OSM    H5F14471   5.768   6.694   2.952  1.7143 -1.3616 -1.1098
  134OSM    H5G14472   5.834   6.565   3.035  0.5740  1.5434 -0.6378
  134OSM    C6F14473   5.650   6.613   3.127 -0.3955  0.2350 -0.0894
  134OSM    H6F14474   5.634   6.512   3.171 -0.0176 -0.2740 -1.0872
  134OSM    H6G14475   5.546   6.645   3.110 -0.1784  1.2699  0.4791
  134OSM    C7F14476   5.729   6.695   3.235  0.6444  0.3896 -0.1339
  134OSM    H7F14477   5.789   6.775   3.186  1.9032 -0.6004 -0.2467
  134OSM    H7G14478   5.806   6.627   3.276  0.5172  0.3743  0.0824
  134OSM    C8F14479   5.647   6.755   3.356 -0.8993  0.3366  0.1666
  134OSM    H8F14480   5.616   6.671   3.422 -0.6857  1.0642  1.2045
  134OSM    H8G14481   5.560   6.808   3.313  0.0270 -1.6487 -4.8520
  134OSM    C9F14482   5.745   6.851   3.423 -0.3343  0.6884  0.3831
  134OSM    H9F14483   5.768   6.940   3.363  0.6192 -1.3607 -2.5477
  134OSM   C10F14484   5.805   6.830   3.542 -0.2970 -0.8112  1.2730
  134OSM   H10F14485   5.867   6.909   3.586  0.3564 -0.8861  0.5199
  134OSM   C11F14486   5.773   6.714   3.635 -0.0275 -0.7925 -0.1884
  134OSM   H11F14487   5.863   6.716   3.700  0.5176  1.4762 -0.9222
  134OSM   H11G14488   5.748   6.622   3.577 -1.4840 -0.2364 -0.4828
  134OSM   C12F14489   5.653   6.739   3.737  0.3435  0.0059 -0.1661
  134OSM   H12F14490   5.559   6.756   3.681  2.5983  3.4684 -3.3264
  134OSM   H12G14491   5.676   6.817   3.813 -0.7062  1.2558 -1.0794
  134OSM   C13F14492   5.615   6.614   3.831  0.0846 -0.6641  0.4280
  134OSM   H13F14493   5.614   6.516   3.779 -0.0903  0.3155 -1.5088
  134OSM   H13G14494   5.517   6.631   3.881  1.0265  0.5152  1.9719
  134OSM   C14F14495   5.713   6.609   3.952  0.4066  0.8574 -0.0192
  134OSM   H14F14496   5.709   6.710   3.997 -3.4458  0.8498 -0.0594
  134OSM   H14G14497   5.808   6.573   3.907 -2.0593 -1.9572 -3.4728
  134OSM   C15F14498   5.663   6.506   4.059 -0.3502 -0.1552  0.0034
  134OSM   H15F14499   5.691   6.407   4.017  0.3914 -0.3005  0.8152
  134OSM   H15G14500   5.553   6.512   4.074  0.0099  4.0244  2.7316
  134OSM   C16F14501   5.722   6.516   4.204  0.2637  0.0602 -0.3221
  134OSM   H16F14502   5.680   6.431   4.261 -2.3533  1.9940  0.8758
  134OSM   H16G14503   5.679   6.611   4.244  2.9208  1.8917 -1.5504
  134OSM   C17F14504   5.876   6.522   4.199 -0.5343  0.4028 -0.1124
  134OSM   H17F14505   5.889   6.611   4.134  0.4422  0.4610  0.1583
  134OSM   H17G14506   5.929   6.442   4.144 -0.6590 -0.1248  0.5252
  134OSM   C18F14507   5.939   6.520   4.339 -0.0640  0.4942 -0.4642
  134OSM   H18F14508   5.925   6.422   4.388  0.1755  2.2051  3.3932
  134OSM   H18G14509   5.884   6.595   4.399  0.7589 -0.1419  1.1216
  134OSM   H18H14510   6.050   6.531   4.337 -0.1755  2.6256  1.1809
  135OSM      N14511   0.926   1.215   2.172 -0.6755 -0.2172 -0.0785
  135OSM    C1514512   1.023   1.324   2.166 -0.3662  0.1749  0.3813
  135OSM   H15A14513   0.998   1.413   2.223  0.5962  1.0601 -0.5395
  135OSM   H15B14514   1.068   1.341   2.069 -2.2375  1.4872 -0.3084
  135OSM   H15C14515   1.106   1.282   2.221  0.6627 -0.7974 -1.8121
  135OSM    C1414516   0.816   1.238   2.075  0.0222 -0.3890  0.1255
  135OSM   H14A14517   0.755   1.322   2.104 -1.7307 -1.1215 -1.2911
  135OSM   H14B14518   0.752   1.152   2.080  2.5761 -2.4776 -1.0020
  135OSM   H14C14519   0.845   1.262   1.974  0.0018  2.4956  0.7047
  135OSM    C1314520   1.001   1.097   2.134 -0.1156  0.0697 -0.1177
  135OSM   H13A14521   0.942   1.007   2.121  0.6521 -0.5775  0.7315
  135OSM   H13B14522   1.085   1.078   2.200 -0.6260  1.8004  1.1077
  135OSM   H13C14523   1.073   1.109   2.054 -1.6111 -0.6575 -1.6287
  135OSM    C1214524   0.870   1.199   2.310 -0.2211 -0.4407  0.0611
  135OSM   H12A14525   0.810   1.110   2.322 -0.3264 -0.2340  1.2081
  135OSM   H12B14526   0.798   1.280   2.315  0.1907  0.0645 -1.7023
  135OSM    C1114527   0.953   1.218   2.441  0.3571  0.8212  0.1511
  135OSM   H11A14528   0.892   1.209   2.533 -0.9637 -0.1950 -0.7905
  135OSM   H11B14529   0.992   1.322   2.439  0.1951  0.9076  1.3362
  135OSM      P14530   1.209   1.149   2.483  0.3397 -0.2312 -0.1441
  135OSM    O1314531   1.274   1.020   2.506 -0.1396  0.0432  0.0814
  135OSM    O1414532   1.254   1.238   2.373 -0.3523  0.2760  0.3152
  135OSM    O1114533   1.197   1.232   2.613  0.5282  0.2381 -0.1338
  135OSM    O1214534   1.058   1.117   2.450  0.2990  0.3837  0.0683
  135OSM    C1S14535   1.120   1.182   2.728 -0.5364 -0.5604  0.4342
  135OSM    H1S14536   1.174   1.092   2.763  0.2374  0.0018  0.7095
  135OSM    H1T14537   1.021   1.136   2.706  0.1628 -1.7190 -0.4069
  135OSM     NF14538   1.054   1.226   2.961 -0.2640 -0.1871 -0.2590
  135OSM    HNF14539   0.957   1.224   2.985  0.0206 -0.9136  0.9090
  135OSM    C2S14540   1.106   1.289   2.837  0.0100  1.2937 -1.0386
  135OSM    H2S14541   1.210   1.318   2.865 -0.3850 -0.5572  3.1546
  135OSM    C3S14542   1.026   1.408   2.797 -0.1118  0.2732  0.1724
  135OSM    H3S14543   0.920   1.374   2.799  1.0171 -3.8630  0.0778
  135OSM     O314544   1.052   1.444   2.664 -1.4632 -0.2808  0.1854
  135OSM    HO314545   1.107   1.370   2.639 -1.7109 -0.7842  1.0780
  135OSM    C4S14546   1.052   1.519   2.898  0.2461 -0.9375  0.0572
  135OSM    H4S14547   0.986   1.519   2.986 -0.0384 -0.4729 -0.1544
  135OSM    C5S14548   1.164   1.599   2.892  0.1618 -0.1105 -0.3954
  135OSM    H5S14549   1.225   1.578   2.802  0.8393 -1.2524  0.2974
  135OSM    C6S14550   1.203   1.701   2.995  0.7489 -0.0521  0.6834
  135OSM    H6S14551   1.180   1.801   2.952  0.7215 -0.1408  0.4937
  135OSM    H6T14552   1.312   1.694   3.016  1.3642  3.6489 -0.4148
  135OSM    C7S14553   1.138   1.687   3.141 -0.2930  0.2856 -0.2004
  135OSM    H7S14554   1.027   1.692   3.147 -0.3513 -1.8138  2.5055
  135OSM    H7T14555   1.169   1.774   3.202 -0.6589 -1.4655  2.6886
  135OSM    C8S14556   1.186   1.561   3.215  0.7204  0.6660 -0.7275
  135OSM    H8S14557   1.292   1.532   3.200  0.0078 -2.9120  0.0852
  135OSM    H8T14558   1.133   1.475   3.168  1.7676 -0.5950  0.2980
  135OSM    C9S14559   1.145   1.575   3.364 -0.9471  0.1274 -0.9284
  135OSM    H9S14560   1.036   1.597   3.365 -1.4193 -1.8498  0.9330
  135OSM    H9T14561   1.198   1.664   3.403 -0.8627 -0.0643 -0.5912
  135OSM   C10S14562   1.178   1.451   3.456 -0.2186 -0.4374  1.3281
  135OSM   H10S14563   1.285   1.420   3.453  0.3959  1.5960 -0.6047
  135OSM   H10T14564   1.116   1.363   3.429 -1.6228  0.4065  1.7020
  135OSM   C11S14565   1.123   1.469   3.600 -0.3187 -0.3305  0.6641
  135OSM   H11S14566   1.018   1.504   3.590  0.2567  1.1653 -0.6059
  135OSM   H11T14567   1.172   1.554   3.654 -1.4366  0.0108  1.1845
  135OSM   C12S14568   1.130   1.349   3.696 -0.8050  0.2690  0.4771
  135OSM   H12S14569   1.232   1.306   3.686 -0.5218  0.9387  0.4048
  135OSM   H12T14570   1.049   1.279   3.669 -1.4067  0.3002  2.0801
  135OSM   C13S14571   1.111   1.394   3.841 -0.4268  0.2915 -1.1318
  135OSM   H13S14572   1.004   1.424   3.844  0.0758  2.2759 -1.6431
  135OSM   H13T14573   1.178   1.478   3.869  1.7033 -1.9761  1.0165
  135OSM   C14S14574   1.131   1.273   3.946 -0.1094  0.4746 -0.0721
  135OSM   H14S14575   1.240   1.250   3.947 -0.1095  0.4754  0.8830
  135OSM   H14T14576   1.094   1.175   3.909  0.7975 -0.3847  1.2087
  135OSM   C15S14577   1.090   1.297   4.088 -1.2744 -0.1125  0.1091
  135OSM   H15S14578   1.130   1.394   4.123  0.4191 -0.6961 -0.1123
  135OSM   H15T14579   1.121   1.210   4.150 -0.8071  0.4457  0.6641
  135OSM   C16S14580   0.934   1.308   4.110 -0.4050 -0.3463  0.3125
  135OSM   H16S14581   0.899   1.219   4.053 -0.9273  0.4969 -0.7224
  135OSM   H16T14582   0.895   1.399   4.061  0.2891  0.3902  1.0943
  135OSM   C17S14583   0.889   1.322   4.255  0.2051 -0.8731 -0.0603
  135OSM   H17S14584   0.903   1.218   4.291 -2.3582 -1.6286 -1.0058
  135OSM   H17T14585   0.778   1.336   4.253  0.4969  2.6223  1.6216
  135OSM   C18S14586   0.955   1.421   4.350  0.5322 -0.3727  0.3520
  135OSM   H18S14587   0.929   1.411   4.458 -0.0243 -0.6256  0.1963
  135OSM   H18T14588   0.939   1.526   4.318 -2.4418 -0.8491 -0.0542
  135OSM   H18U14589   1.064   1.400   4.357  0.6220 -0.1164 -0.2313
  135OSM    C1F14590   1.142   1.173   3.046  0.2784  0.1670  0.4289
  135OSM     OF14591   1.257   1.196   3.034  0.5018  0.2148 -0.1603
  135OSM    C2F14592   1.088   1.101   3.159  0.0337 -0.0401  0.0783
  135OSM    H2F14593   1.071   0.994   3.134 -2.3065  0.3008 -0.0816
  135OSM    H2G14594   0.991   1.145   3.191 -0.2816 -0.1965 -0.6483
  135OSM    C3F14595   1.183   1.117   3.277  0.4027  0.1806 -0.0490
  135OSM    H3F14596   1.214   1.217   3.315  1.1065  0.8851 -2.3283
  135OSM    H3G14597   1.277   1.066   3.249  1.0239  0.2445  1.7991
  135OSM    C4F14598   1.137   1.055   3.407 -0.2642  0.3175  0.1785
  135OSM    H4F14599   1.203   1.090   3.489  0.1919  1.9723 -0.8480
  135OSM    H4G14600   1.152   0.946   3.390  3.5814  0.9136 -1.1847
  135OSM    C5F14601   0.990   1.080   3.439 -0.0038 -0.6437  0.0422
  135OSM    H5F14602   0.920   1.045   3.360  0.7226 -0.1954 -0.8120
  135OSM    H5G14603   0.977   1.191   3.441  0.3087 -0.6163  0.5221
  135OSM    C6F14604   0.927   1.005   3.566 -0.7662 -0.6401 -0.1578
  135OSM    H6F14605   1.014   1.001   3.636 -0.3625 -1.2272 -0.6869
  135OSM    H6G14606   0.905   0.898   3.550 -0.2729 -0.5596 -1.5140
  135OSM    C7F14607   0.821   1.082   3.652 -0.1955 -0.4217 -0.2512
  135OSM    H7F14608   0.732   1.112   3.593  1.2830 -0.8563 -2.8539
  135OSM    H7G14609   0.857   1.179   3.692 -1.5442 -0.0006 -0.0124
  135OSM    C8F14610   0.780   1.000   3.773 -0.3920  0.4137 -0.0238
  135OSM    H8F14611   0.873   0.989   3.833 -0.6019 -0.8942  0.0913
  135OSM    H8G14612   0.763   0.894   3.744 -1.9216  1.4205 -3.2863
  135OSM    C9F14613   0.660   1.054   3.842  0.3784  0.9301 -0.7542
  135OSM    H9F14614   0.594   1.114   3.779  0.6986  1.3702 -0.6769
  135OSM   C10F14615   0.605   1.006   3.960 -0.7004  0.7803  0.5814
  135OSM   H10F14616   0.523   1.064   4.005 -0.3985  1.8677 -0.2294
  135OSM   C11F14617   0.683   0.913   4.054  0.2843  0.1754  0.8145
  135OSM   H11F14618   0.785   0.882   4.022  1.3363  0.8684  3.2728
  135OSM   H11G14619   0.627   0.818   4.073  2.6255 -1.4485  0.0971
  135OSM   C12F14620   0.717   0.974   4.191  0.5920  0.3593  0.2154
  135OSM   H12F14621   0.770   1.070   4.175  0.6417  0.2650 -0.1996
  135OSM   H12G14622   0.785   0.912   4.252 -3.1232 -0.5874  3.8015
  135OSM   C13F14623   0.590   0.996   4.282 -0.7043  0.0098 -0.0170
  135OSM   H13F14624   0.533   0.901   4.275  0.6128 -0.7482 -1.1580
  135OSM   H13G14625   0.529   1.081   4.245  0.6608  0.0433 -2.3996
  135OSM   C14F14626   0.638   1.032   4.421 -0.1113 -0.2977 -0.2125
  135OSM   H14F14627   0.683   1.134   4.422 -2.5598  0.8641  0.5073
  135OSM   H14G14628   0.715   0.958   4.453  0.0814  0.4742  1.1900
  135OSM   C15F14629   0.524   1.038   4.534 -0.4090  0.5225  1.1119
  135OSM   H15F14630   0.455   1.120   4.504  0.2367  1.0788  1.1274
  135OSM   H15G14631   0.562   1.059   4.636  0.3654 -2.0498  1.4321
  135OSM   C16F14632   0.429   0.916   4.534 -0.2993  0.4107 -0.2630
  135OSM   H16F14633   0.380   0.891   4.438 -0.1600 -0.0813 -0.2097
  135OSM   H16G14634   0.351   0.923   4.613  1.6581 -0.0135  1.8181
  135OSM   C17F14635   0.507   0.787   4.567  0.5833  0.5472  0.4645
  135OSM   H17F14636   0.573   0.803   4.655  2.1596 -1.4773 -0.2983
  135OSM   H17G14637   0.568   0.766   4.477 -1.1224 -2.8065 -0.0517
  135OSM   C18F14638   0.420   0.662   4.559 -0.7188  0.4757 -0.1671
  135OSM   H18F14639   0.473   0.566   4.541 -0.7445  0.4959 -0.3532
  135OSM   H18G14640   0.361   0.660   4.465  1.6551  1.3495 -1.7587
  135OSM   H18H14641   0.340   0.661   4.637 -1.3764  2.4591 -0.7483
  136OSM      N14642   4.683   3.256   2.172 -0.4670  0.3929 -0.1364
  136OSM    C1514643   4.666   3.239   2.022  0.3863 -0.2377  0.1189
  136OSM   H15A14644   4.732   3.161   1.990 -0.2037 -0.1924 -1.2988
  136OSM   H15B14645   4.698   3.329   1.972  0.3292  1.2220  2.5234
  136OSM   H15C14646   4.566   3.209   1.995 -0.1298  1.9378 -0.6375
  136OSM    C1414647   4.667   3.119   2.231 -0.0525 -0.1221  0.1693
  136OSM   H14A14648   4.668   3.116   2.339 -0.7701  1.6241  0.2627
  136OSM   H14B14649   4.753   3.059   2.205 -0.7063 -1.5780  1.2084
  136OSM   H14C14650   4.581   3.069   2.189 -0.2622  0.1354  0.2890
  136OSM    C1314651   4.813   3.322   2.199 -0.0410 -0.0024  0.6478
  136OSM   H13A14652   4.849   3.322   2.301 -0.1050  0.8623  0.6819
  136OSM   H13B14653   4.791   3.423   2.168  0.5296  0.4869  1.7551
  136OSM   H13C14654   4.896   3.282   2.142  0.3580 -0.7200  1.6953
  136OSM    C1214655   4.567   3.338   2.233  0.2209  0.6800 -0.2036
  136OSM   H12A14656   4.573   3.336   2.341 -0.9312 -0.8529 -0.1345
  136OSM   H12B14657   4.475   3.283   2.220 -0.6103  2.1070 -0.5270
  136OSM    C1114658   4.536   3.479   2.182 -0.1626  0.4832 -0.7392
  136OSM   H11A14659   4.437   3.506   2.225  1.1019 -0.2237  3.0039
  136OSM   H11B14660   4.541   3.472   2.071  1.3552 -1.3813 -0.6102
  136OSM      P14661   4.632   3.657   2.357 -0.2777 -0.4597 -0.4084
  136OSM    O1314662   4.758   3.741   2.365 -0.2861 -0.0489 -0.0421
  136OSM    O1414663   4.498   3.729   2.365 -0.3723 -0.2175 -0.2646
  136OSM    O1114664   4.642   3.543   2.469 -0.0899  0.0184  0.3700
  136OSM    O1214665   4.635   3.571   2.226  0.2030  0.5691 -0.2390
  136OSM    C1S14666   4.723   3.560   2.586 -0.4009 -0.4624  0.0822
  136OSM    H1S14667   4.739   3.668   2.605  1.0070 -0.9460  2.0855
  136OSM    H1T14668   4.828   3.525   2.574  0.4197  1.7882  0.3367
  136OSM     NF14669   4.747   3.556   2.827 -0.0850 -0.1930 -0.2581
  136OSM    HNF14670   4.831   3.514   2.860  2.0963  2.3411 -2.1219
  136OSM    C2S14671   4.671   3.496   2.712 -0.2638  0.0039 -0.6661
  136OSM    H2S14672   4.565   3.527   2.729  0.0929  0.2507  1.3236
  136OSM    C3S14673   4.672   3.337   2.717 -0.6250 -0.1158 -0.2622
  136OSM    H3S14674   4.775   3.295   2.715 -0.2716  0.6863  0.3796
  136OSM     O314675   4.626   3.285   2.594 -0.4239  0.5746 -0.7971
  136OSM    HO314676   4.605   3.372   2.559 -0.7244  1.1392  0.6782
  136OSM    C4S14677   4.588   3.282   2.830 -0.2958 -0.2013  0.1871
  136OSM    H4S14678   4.480   3.299   2.814 -0.8484 -2.8280  0.6894
  136OSM    C5S14679   4.622   3.203   2.936 -0.1082 -0.4787 -0.5866
  136OSM    H5S14680   4.726   3.166   2.931 -1.0583 -3.4835 -0.0921
  136OSM    C6S14681   4.530   3.139   3.031 -0.4263 -0.4011 -0.0262
  136OSM    H6S14682   4.522   3.031   3.006 -0.2306 -0.1124 -1.4121
  136OSM    H6T14683   4.427   3.181   3.028 -0.2658 -0.0551 -2.0387
  136OSM    C7S14684   4.577   3.146   3.186 -0.2895 -0.7291 -0.2406
  136OSM    H7S14685   4.678   3.102   3.198 -0.6369 -1.3804  0.4032
  136OSM    H7T14686   4.504   3.083   3.241 -0.5111  0.5888  1.0289
  136OSM    C8S14687   4.567   3.282   3.251 -0.4947  0.1245 -0.0092
  136OSM    H8S14688   4.495   3.344   3.194 -0.0378  0.8610  0.1950
  136OSM    H8T14689   4.660   3.340   3.230 -0.7966 -0.0171 -1.8617
  136OSM    C9S14690   4.528   3.290   3.399  0.4595 -0.2782  0.0518
  136OSM    H9S14691   4.424   3.255   3.411 -0.0967  1.3154  0.1179
  136OSM    H9T14692   4.529   3.393   3.440 -0.9193 -0.7365  1.3313
  136OSM   C10S14693   4.618   3.203   3.493  0.1166  0.1600  0.0570
  136OSM   H10S14694   4.716   3.254   3.498 -0.0641  0.4703  0.4496
  136OSM   H10T14695   4.630   3.104   3.444 -0.2159 -0.5743  1.4088
  136OSM   C11S14696   4.565   3.201   3.632  0.0959  0.1863  0.1717
  136OSM   H11S14697   4.527   3.302   3.661 -1.2070 -0.4109  0.5866
  136OSM   H11T14698   4.651   3.185   3.700  0.1725 -3.3732 -0.6030
  136OSM   C12S14699   4.461   3.103   3.660 -0.4519  0.1426 -0.4563
  136OSM   H12S14700   4.491   2.996   3.656  0.6379  0.2789  2.1599
  136OSM   H12T14701   4.393   3.110   3.573 -0.1198 -0.3438 -0.7615
  136OSM   C13S14702   4.383   3.124   3.791 -0.7461  0.5317  0.0537
  136OSM   H13S14703   4.316   3.035   3.793  0.6565 -0.6538 -1.6106
  136OSM   H13T14704   4.324   3.218   3.794  0.7475  1.5697 -1.3091
  136OSM   C14S14705   4.477   3.134   3.915  0.6247  0.2478  0.9432
  136OSM   H14S14706   4.560   3.207   3.904  2.6928 -1.9210  1.3835
  136OSM   H14T14707   4.531   3.037   3.920 -1.8029 -1.1997  0.3756
  136OSM   C15S14708   4.403   3.143   4.047 -0.2268 -0.1785 -0.1745
  136OSM   H15S14709   4.323   3.067   4.056  0.4371 -0.7404  1.2262
  136OSM   H15T14710   4.347   3.238   4.055 -1.7247 -1.0235 -0.3423
  136OSM   C16S14711   4.504   3.116   4.163 -0.0246 -0.2737  0.0981
  136OSM   H16S14712   4.560   3.210   4.182  1.6405 -0.8170 -1.7573
  136OSM   H16T14713   4.577   3.037   4.135  0.1528  0.4190 -1.5298
  136OSM   C17S14714   4.433   3.062   4.288 -0.1965 -1.1022 -0.3667
  136OSM   H17S14715   4.503   3.018   4.363 -1.5513 -0.6800  1.2123
  136OSM   H17T14716   4.371   2.976   4.253 -1.3534 -0.5923  0.3980
  136OSM   C18S14717   4.334   3.160   4.363  0.0375 -0.0765  0.2097
  136OSM   H18S14718   4.403   3.223   4.423  0.2386 -0.7301  0.6824
  136OSM   H18T14719   4.263   3.104   4.428  1.3026  0.3092  2.0084
  136OSM   H18U14720   4.280   3.221   4.288  1.2150  1.3211  0.4523
  136OSM    C1F14721   4.711   3.679   2.869 -0.1082  0.0404 -0.0533
  136OSM     OF14722   4.600   3.729   2.845  0.2965 -0.1969  0.1457
  136OSM    C2F14723   4.820   3.756   2.915 -0.0380 -0.7534 -0.1630
  136OSM    H2F14724   4.819   3.845   2.848 -2.4195  0.1567  0.9621
  136OSM    H2G14725   4.917   3.704   2.929  0.7938  1.2068  2.1714
  136OSM    C3F14726   4.796   3.811   3.052 -0.0275  0.4693  0.3253
  136OSM    H3F14727   4.701   3.867   3.060 -0.6466 -0.5597  0.3438
  136OSM    H3G14728   4.868   3.892   3.073  0.7382 -0.1028 -0.0453
  136OSM    C4F14729   4.802   3.697   3.157 -0.1189 -0.6083 -0.6139
  136OSM    H4F14730   4.895   3.636   3.153  1.9751  2.3983 -0.4874
  136OSM    H4G14731   4.720   3.627   3.128 -1.0668  0.2224  0.0025
  136OSM    C5F14732   4.775   3.743   3.299  0.1627 -0.3822  0.4645
  136OSM    H5F14733   4.682   3.804   3.294  0.1235 -0.4462  0.4147
  136OSM    H5G14734   4.848   3.819   3.333  0.3441 -0.2801 -0.1576
  136OSM    C6F14735   4.762   3.634   3.401  0.2867 -0.4031  0.4452
  136OSM    H6F14736   4.843   3.569   3.440 -0.1161  0.0153  2.0652
  136OSM    H6G14737   4.686   3.566   3.356  0.1847  0.7553 -1.1935
  136OSM    C7F14738   4.706   3.692   3.534 -0.2153 -0.0553  0.0805
  136OSM    H7F14739   4.604   3.732   3.519 -0.8480 -0.7355  2.2177
  136OSM    H7G14740   4.775   3.775   3.563  0.1008 -0.7999  1.5777
  136OSM    C8F14741   4.695   3.589   3.655  0.1447 -0.8062 -0.1291
  136OSM    H8F14742   4.637   3.497   3.629 -0.5689 -0.0574 -1.2701
  136OSM    H8G14743   4.642   3.648   3.733  1.5081  0.9565 -0.4874
  136OSM    C9F14744   4.831   3.546   3.704  0.4273 -0.0727 -0.1806
  136OSM    H9F14745   4.914   3.534   3.632  1.3022  0.4869  0.7163
  136OSM   C10F14746   4.857   3.520   3.840 -0.6465 -0.2500  0.3434
  136OSM   H10F14747   4.957   3.485   3.872 -0.3568  0.7506  0.5492
  136OSM   C11F14748   4.760   3.526   3.957 -0.1528  0.7096  0.4566
  136OSM   H11F14749   4.667   3.483   3.914 -0.3793  0.0604  1.5527
  136OSM   H11G14750   4.738   3.629   3.993  1.1346  0.8952  0.7555
  136OSM   C12F14751   4.802   3.430   4.071  0.0407  0.1865 -0.3730
  136OSM   H12F14752   4.720   3.436   4.145  0.1169 -1.4646 -0.1174
  136OSM   H12G14753   4.892   3.467   4.125  0.9054 -3.0117  0.6134
  136OSM   C13F14754   4.828   3.274   4.039 -0.4274  0.8003 -0.2411
  136OSM   H13F14755   4.918   3.271   3.974 -2.0990 -1.5643 -2.6027
  136OSM   H13G14756   4.749   3.229   3.975  0.5894 -1.1805 -0.1747
  136OSM   C14F14757   4.858   3.181   4.159  0.1073 -1.4978  0.1653
  136OSM   H14F14758   4.766   3.158   4.218 -0.8624  0.5283 -0.4838
  136OSM   H14G14759   4.920   3.247   4.224 -1.1423  0.7843 -0.8584
  136OSM   C15F14760   4.918   3.051   4.112 -0.1599 -0.0926 -0.9277
  136OSM   H15F14761   5.012   3.071   4.057 -0.8283  1.6057 -1.5316
  136OSM   H15G14762   4.857   3.005   4.030 -0.5903  0.2331 -0.7946
  136OSM   C16F14763   4.929   2.945   4.223  0.6619  0.8130  0.5882
  136OSM   H16F14764   4.925   2.845   4.175  1.4013  0.8269  0.4895
  136OSM   H16G14765   4.834   2.941   4.280  0.7055  0.6618  0.6491
  136OSM   C17F14766   5.043   2.962   4.321 -0.5532  0.5227 -0.3877
  136OSM   H17F14767   5.041   3.064   4.363  1.4284  0.0702  0.9852
  136OSM   H17G14768   5.136   2.952   4.261 -1.4875 -2.2595 -1.5515
  136OSM   C18F14769   5.051   2.868   4.440  0.2691 -0.7235 -0.2549
  136OSM   H18F14770   5.152   2.863   4.486 -0.1277  0.6291  0.8387
  136OSM   H18G14771   5.041   2.768   4.393  1.7449 -0.1209 -1.9822
  136OSM   H18H14772   4.978   2.879   4.522  1.5053  0.2812  0.7471
  137OSM      N14773   1.251   3.264   1.797 -0.2218  0.2045 -0.1722
  137OSM    C1514774   1.135   3.214   1.874  0.4999  0.5585  0.5959
  137OSM   H15A14775   1.154   3.197   1.978 -0.4598  0.1590  0.7062
  137OSM   H15B14776   1.118   3.115   1.835 -2.6882  1.3007 -0.2101
  137OSM   H15C14777   1.044   3.271   1.860 -1.0763 -1.9980 -0.0547
  137OSM    C1414778   1.215   3.259   1.659 -0.1580 -0.2026  0.2886
  137OSM   H14A14779   1.146   3.339   1.634  1.4705  0.7846 -1.3527
  137OSM   H14B14780   1.170   3.164   1.634  0.7090 -0.1863 -1.5446
  137OSM   H14C14781   1.297   3.273   1.590 -0.7682 -1.4295 -0.7176
  137OSM    C1314782   1.281   3.402   1.841 -0.0398 -0.1369 -0.7695
  137OSM   H13A14783   1.284   3.405   1.949  0.8515  0.9120 -0.8021
  137OSM   H13B14784   1.227   3.484   1.796 -1.2956 -0.1924  0.5750
  137OSM   H13C14785   1.380   3.423   1.802  0.1177 -0.7655 -0.7105
  137OSM    C1214786   1.371   3.169   1.813 -0.2348 -0.4917 -0.2177
  137OSM   H12A14787   1.451   3.214   1.757 -1.1344  4.3214  1.8774
  137OSM   H12B14788   1.349   3.070   1.775  2.2393 -1.8232  1.4834
  137OSM    C1114789   1.431   3.146   1.955  0.4714  0.6740  0.4007
  137OSM   H11A14790   1.458   3.240   2.008 -3.3379  1.9798  0.3020
  137OSM   H11B14791   1.525   3.095   1.925 -0.9256 -2.0475  0.3466
  137OSM      P14792   1.347   3.049   2.185 -0.1061  0.0941  0.3947
  137OSM    O1314793   1.207   3.057   2.236  0.0797 -0.1249  0.0828
  137OSM    O1414794   1.417   2.934   2.234 -0.2560  0.7479  0.5810
  137OSM    O1114795   1.435   3.166   2.236 -0.6400  0.5300  0.0995
  137OSM    O1214796   1.346   3.050   2.026  0.3723  0.1789 -0.1131
  137OSM    C1S14797   1.427   3.204   2.374 -0.0841 -0.2929 -0.3751
  137OSM    H1S14798   1.334   3.183   2.431 -0.5063  3.7783  0.7424
  137OSM    H1T14799   1.450   3.312   2.389  3.4168 -0.9735  0.1797
  137OSM     NF14800   1.514   3.126   2.598  0.3634  0.5764  0.3671
  137OSM    HNF14801   1.567   3.187   2.656  0.8508  1.7465 -1.2505
  137OSM    C2S14802   1.543   3.132   2.453  0.3135 -0.5255 -0.4099
  137OSM    H2S14803   1.543   3.028   2.414  0.5786 -0.5359 -0.3868
  137OSM    C3S14804   1.679   3.202   2.433  0.1213 -0.0370  0.1538
  137OSM    H3S14805   1.681   3.310   2.456  1.1404  0.2437 -1.1644
  137OSM     O314806   1.709   3.221   2.296  0.6363  0.0620 -0.5608
  137OSM    HO314807   1.630   3.192   2.250  1.3936 -0.1728 -1.7892
  137OSM    C4S14808   1.783   3.123   2.509  0.1207 -0.0567 -0.2255
  137OSM    H4S14809   1.772   3.014   2.507 -1.9490  0.1224 -0.6009
  137OSM    C5S14810   1.854   3.177   2.615 -0.4002  0.1469  0.5147
  137OSM    H5S14811   1.842   3.276   2.660  0.1554  0.4332  0.0379
  137OSM    C6S14812   1.940   3.102   2.708  0.2437  0.5334 -0.4322
  137OSM    H6S14813   1.997   3.168   2.776 -0.2549  0.7214 -0.1902
  137OSM    H6T14814   2.028   3.048   2.666 -0.2705 -2.6348  2.2385
  137OSM    C7S14815   1.852   3.014   2.799 -0.0121  0.3040 -0.4993
  137OSM    H7S14816   1.815   2.931   2.736  0.6141  1.0536 -1.9050
  137OSM    H7T14817   1.769   3.068   2.850 -0.0075 -0.4800  0.3574
  137OSM    C8S14818   1.923   2.939   2.916 -0.4020  0.1564 -0.2266
  137OSM    H8S14819   1.989   3.012   2.968 -2.0500  0.5912  1.3442
  137OSM    H8T14820   1.986   2.860   2.869  1.4216  0.4878  1.5329
  137OSM    C9S14821   1.818   2.875   3.006  0.8425 -0.4342  0.4539
  137OSM    H9S14822   1.851   2.782   3.058 -2.7461 -1.5019  1.1482
  137OSM    H9T14823   1.735   2.834   2.944  0.1641 -0.7322  1.5324
  137OSM   C10S14824   1.757   2.975   3.106  0.2001 -0.1832 -0.4830
  137OSM   H10S14825   1.654   2.938   3.128 -0.0404  0.5250 -0.3797
  137OSM   H10T14826   1.726   3.072   3.060 -1.2295 -0.8779 -1.0635
  137OSM   C11S14827   1.844   2.980   3.235 -0.2728  0.1356 -0.6564
  137OSM   H11S14828   1.945   3.005   3.197 -0.7883  0.7914 -1.6461
  137OSM   H11T14829   1.842   2.880   3.284 -0.2145 -0.8259 -2.5597
  137OSM   C12S14830   1.795   3.079   3.336 -0.2426 -0.1637 -0.0846
  137OSM   H12S14831   1.704   3.036   3.382 -0.1984  0.4996  0.6475
  137OSM   H12T14832   1.770   3.169   3.275 -1.4455 -1.0660 -0.9816
  137OSM   C13S14833   1.896   3.127   3.443 -0.0322  0.6711 -0.2240
  137OSM   H13S14834   1.980   3.168   3.383  0.0419 -1.4342 -1.6783
  137OSM   H13T14835   1.945   3.038   3.490 -1.3657 -1.0493 -1.9112
  137OSM   C14S14836   1.840   3.226   3.537 -0.4594 -0.4499 -0.4000
  137OSM   H14S14837   1.775   3.183   3.616  2.0951 -0.2790  1.9525
  137OSM   H14T14838   1.762   3.291   3.491  0.5331  1.3029  0.2645
  137OSM   C15S14839   1.957   3.318   3.593  0.7346 -0.3866  0.1848
  137OSM   H15S14840   1.980   3.365   3.495 -1.6444  0.5395 -0.0003
  137OSM   H15T14841   2.033   3.247   3.631 -2.0986 -3.5888  0.3761
  137OSM   C16S14842   1.919   3.428   3.693 -0.1529  0.3160 -0.0845
  137OSM   H16S14843   1.869   3.393   3.786  2.6237 -0.0809  1.3629
  137OSM   H16T14844   1.853   3.497   3.637  0.4388  0.9447 -0.0170
  137OSM   C17S14845   2.038   3.516   3.732 -0.0266 -0.5147 -0.3284
  137OSM   H17S14846   2.065   3.581   3.646 -0.1520 -1.0290 -0.7614
  137OSM   H17T14847   2.132   3.464   3.761 -0.4838 -0.8919  0.5252
  137OSM   C18S14848   1.997   3.599   3.854 -0.1562 -0.0424  0.6597
  137OSM   H18S14849   2.090   3.639   3.901  1.2575 -2.3403 -0.0167
  137OSM   H18T14850   1.945   3.529   3.923  1.3928 -1.2501  0.6723
  137OSM   H18U14851   1.929   3.682   3.826 -0.9382 -1.1506 -0.8961
  137OSM    C1F14852   1.409   3.054   2.653 -0.3240  0.0619 -0.0491
  137OSM     OF14853   1.356   2.973   2.582 -0.0460 -0.0973 -0.7892
  137OSM    C2F14854   1.366   3.082   2.792  0.4940 -0.4640  0.1192
  137OSM    H2F14855   1.298   3.168   2.806  0.0381 -0.8632  0.4167
  137OSM    H2G14856   1.457   3.116   2.846 -0.2695  1.2645  0.3721
  137OSM    C3F14857   1.311   2.953   2.866 -0.1796  0.1613  0.2947
  137OSM    H3F14858   1.374   2.861   2.866  0.3226  0.4854  1.5627
  137OSM    H3G14859   1.229   2.913   2.803 -0.6500  0.3069  0.7985
  137OSM    C4F14860   1.241   2.985   2.996 -0.2298  0.2780 -0.8686
  137OSM    H4F14861   1.207   2.889   3.040  1.7914  0.1275  0.4638
  137OSM    H4G14862   1.161   3.061   2.980  0.9526  1.7803  0.1180
  137OSM    C5F14863   1.339   3.023   3.099 -0.1057  0.1902  0.2164
  137OSM    H5F14864   1.392   3.117   3.074 -0.7365  0.4011 -0.3542
  137OSM    H5G14865   1.414   2.941   3.107 -2.4651 -2.1556 -0.4865
  137OSM    C6F14866   1.285   3.032   3.241 -0.2934  0.0624 -0.0196
  137OSM    H6F14867   1.256   2.934   3.283 -0.1557  1.4854  3.7964
  137OSM    H6G14868   1.197   3.099   3.239 -1.2262 -1.1284  0.3879
  137OSM    C7F14869   1.395   3.084   3.339 -0.7108 -0.7110 -0.1931
  137OSM    H7F14870   1.422   3.188   3.310  3.6009 -1.4611  0.4715
  137OSM    H7G14871   1.489   3.027   3.321  0.4729  0.6861  1.2169
  137OSM    C8F14872   1.355   3.079   3.489 -0.1644 -0.0534  0.3568
  137OSM    H8F14873   1.317   2.979   3.519  0.5635 -0.7453 -0.9195
  137OSM    H8G14874   1.270   3.151   3.493 -1.1433 -0.9888 -1.6905
  137OSM    C9F14875   1.455   3.145   3.574  0.1264 -0.7793 -0.0133
  137OSM    H9F14876   1.500   3.237   3.534  0.4607 -1.8060 -2.1680
  137OSM   C10F14877   1.486   3.112   3.700  0.3849  0.1965  0.2716
  137OSM   H10F14878   1.573   3.161   3.745  0.6009 -0.8563  1.0454
  137OSM   C11F14879   1.425   2.994   3.769  1.3851 -0.4578 -0.5027
  137OSM   H11F14880   1.406   2.913   3.695 -0.1072 -0.3196 -0.2967
  137OSM   H11G14881   1.333   3.020   3.825  0.8066 -0.5268 -1.4081
  137OSM   C12F14882   1.515   2.930   3.878  0.2449  0.1914 -0.5287
  137OSM   H12F14883   1.613   2.898   3.836  1.1443  2.2515 -0.1534
  137OSM   H12G14884   1.473   2.833   3.912 -1.0073  1.0515  0.4776
  137OSM   C13F14885   1.552   3.029   3.993 -0.4405  0.4621  0.0086
  137OSM   H13F14886   1.459   3.082   4.021 -0.0056  1.6585 -0.7195
  137OSM   H13G14887   1.632   3.102   3.966 -1.4758  0.9454 -1.9356
  137OSM   C14F14888   1.613   2.949   4.113  0.3569  0.4359 -0.7792
  137OSM   H14F14889   1.711   2.901   4.096 -0.0189  0.3348 -3.1331
  137OSM   H14G14890   1.548   2.863   4.139  1.7713 -0.7294 -1.0012
  137OSM   C15F14891   1.626   3.036   4.244  0.6155 -1.1025  0.2253
  137OSM   H15F14892   1.530   3.085   4.269  0.5792 -1.2104  0.2966
  137OSM   H15G14893   1.700   3.116   4.221  0.1647 -0.9491 -0.7036
  137OSM   C16F14894   1.700   2.966   4.360 -0.4732 -0.5014 -0.0759
  137OSM   H16F14895   1.789   2.922   4.310 -0.9890 -0.2919 -1.2123
  137OSM   H16G14896   1.643   2.877   4.394 -1.2135 -0.7044 -1.7687
  137OSM   C17F14897   1.770   3.058   4.464 -0.0565 -0.6522 -0.0237
  137OSM   H17F14898   1.694   3.110   4.527 -0.3462 -1.8954  0.6966
  137OSM   H17G14899   1.836   3.128   4.409 -1.4323  0.6056 -0.1568
  137OSM   C18F14900   1.877   2.988   4.550  0.4936 -0.2164  0.8659
  137OSM   H18F14901   1.927   3.042   4.633  3.3333 -0.3007 -0.6902
  137OSM   H18G14902   1.956   2.939   4.488  0.4039  1.5453 -0.7314
  137OSM   H18H14903   1.828   2.896   4.589 -0.3033 -0.3862 -0.4601
  138OSM      N14904   6.624   1.766   1.988 -0.4188 -0.1809  0.0173
  138OSM    C1514905   6.556   1.648   2.035 -0.3324 -0.1840  0.1043
  138OSM   H15A14906   6.593   1.562   1.982  1.9047  2.3456 -2.8035
  138OSM   H15B14907   6.452   1.647   2.007  0.4313  1.4402 -3.2331
  138OSM   H15C14908   6.561   1.638   2.143 -1.0810  1.0498  0.2718
  138OSM    C1414909   6.769   1.734   2.010  0.6459 -0.6021  0.0219
  138OSM   H14A14910   6.830   1.801   1.951 -1.0029 -0.3079 -1.4489
  138OSM   H14B14911   6.783   1.632   1.976  0.0812 -0.4501 -0.6900
  138OSM   H14C14912   6.794   1.736   2.115  3.5843 -1.7120 -0.5485
  138OSM    C1314913   6.599   1.786   1.840  0.4255  0.0705  0.0588
  138OSM   H13A14914   6.602   1.704   1.769 -0.3491 -0.7417  0.9391
  138OSM   H13B14915   6.656   1.874   1.811 -0.1438  0.4437  0.0594
  138OSM   H13C14916   6.494   1.808   1.832  0.7188  1.8726  0.6019
  138OSM    C1214917   6.576   1.887   2.062  0.2269  0.1220 -0.4759
  138OSM   H12A14918   6.469   1.893   2.044  0.0350  0.2980  0.6263
  138OSM   H12B14919   6.618   1.976   2.018  2.8706 -0.1597  1.2348
  138OSM    C1114920   6.596   1.907   2.217 -0.0015 -0.2060  0.1399
  138OSM   H11A14921   6.540   1.824   2.265 -0.4254 -1.8901 -2.9922
  138OSM   H11B14922   6.550   2.006   2.237  1.1953  1.3814 -3.9268
  138OSM      P14923   6.849   2.010   2.249  0.0372  0.4078 -0.2155
  138OSM    O1314924   6.975   1.947   2.294 -0.3291  0.1532 -0.4318
  138OSM    O1414925   6.849   2.068   2.112 -0.3120 -0.2043 -0.2559
  138OSM    O1114926   6.812   2.125   2.347  0.1578 -0.7811 -0.1552
  138OSM    O1214927   6.730   1.898   2.252 -0.9642 -0.0885 -0.7011
  138OSM    C1S14928   6.798   2.095   2.483 -0.2454  0.2881 -0.4821
  138OSM    H1S14929   6.894   2.086   2.537 -0.8613 -0.7944  0.4871
  138OSM    H1T14930   6.740   2.002   2.503 -0.3780  0.7645  1.5287
  138OSM     NF14931   6.699   2.182   2.704 -0.0220 -0.1406  0.0091
  138OSM    HNF14932   6.610   2.171   2.748  0.6377 -0.2091  1.3555
  138OSM    C2S14933   6.713   2.205   2.557 -0.3961  0.0977 -0.1483
  138OSM    H2S14934   6.772   2.298   2.540  1.1531 -0.2915  2.4430
  138OSM    C3S14935   6.583   2.225   2.482 -0.0614 -1.2082 -0.2716
  138OSM    H3S14936   6.527   2.128   2.479 -1.6639 -0.3787  1.1419
  138OSM     O314937   6.602   2.274   2.349  0.6847 -0.1299 -0.3978
  138OSM    HO314938   6.695   2.262   2.328  0.6485  0.4160 -0.8954
  138OSM    C4S14939   6.495   2.323   2.562 -0.3608  0.2338 -0.1109
  138OSM    H4S14940   6.433   2.261   2.628  0.5033  0.0345  0.5449
  138OSM    C5S14941   6.491   2.457   2.566 -0.3419  0.2278 -0.4713
  138OSM    H5S14942   6.565   2.511   2.506 -0.3622  1.1305  0.2899
  138OSM    C6S14943   6.405   2.526   2.671  0.2969 -0.5191 -0.4017
  138OSM    H6S14944   6.328   2.575   2.608 -0.1158  1.3880  1.5002
  138OSM    H6T14945   6.461   2.612   2.712 -3.1741  1.2378  1.1069
  138OSM    C7S14946   6.341   2.455   2.793  0.3156  0.8501  0.2898
  138OSM    H7S14947   6.284   2.365   2.761 -1.9089  1.7165  1.5905
  138OSM    H7T14948   6.257   2.519   2.828 -1.7062 -0.3893 -1.9827
  138OSM    C8S14949   6.438   2.418   2.907  0.7142 -0.4803  0.3375
  138OSM    H8S14950   6.497   2.505   2.943  1.9578 -1.3588  0.5105
  138OSM    H8T14951   6.513   2.351   2.859  0.9463  0.3621 -0.5043
  138OSM    C9S14952   6.360   2.344   3.025  0.5183 -0.3885  0.5564
  138OSM    H9S14953   6.287   2.275   2.977  0.7684  0.2148 -0.7593
  138OSM    H9T14954   6.303   2.422   3.079 -0.5135  0.2094 -1.3148
  138OSM   C10S14955   6.452   2.261   3.114 -0.2847 -0.3406 -0.0815
  138OSM   H10S14956   6.532   2.329   3.148  1.3348 -2.2307  0.0872
  138OSM   H10T14957   6.496   2.191   3.039  0.4388  0.0682 -0.0528
  138OSM   C11S14958   6.380   2.196   3.234  0.2133  0.0374 -0.0754
  138OSM   H11S14959   6.320   2.105   3.213 -0.4007  0.7577 -1.5362
  138OSM   H11T14960   6.307   2.266   3.280  1.0668 -0.4529  2.2004
  138OSM   C12S14961   6.487   2.169   3.338 -0.4578 -0.2749  0.0133
  138OSM   H12S14962   6.520   2.269   3.374  2.1086 -1.4030  0.9940
  138OSM   H12T14963   6.572   2.132   3.278 -0.5899  0.1328 -0.4326
  138OSM   C13S14964   6.439   2.083   3.447 -0.2371 -1.1275  0.2525
  138OSM   H13S14965   6.396   1.992   3.399 -1.0716  0.1769 -1.5841
  138OSM   H13T14966   6.358   2.136   3.502  2.5501  1.0476  2.5539
  138OSM   C14S14967   6.553   2.030   3.537  0.1298 -0.0263  0.3415
  138OSM   H14S14968   6.582   2.110   3.608 -0.7437  0.5318  0.0828
  138OSM   H14T14969   6.643   1.998   3.480 -0.6899  0.6699 -1.4210
  138OSM   C15S14970   6.513   1.910   3.618 -0.3002  0.6465 -0.4973
  138OSM   H15S14971   6.500   1.839   3.534  0.3599  0.3665 -0.3737
  138OSM   H15T14972   6.413   1.925   3.663  1.2819  0.9198  3.2408
  138OSM   C16S14973   6.604   1.853   3.729 -0.9713 -0.2636 -0.7198
  138OSM   H16S14974   6.610   1.742   3.720  3.0288 -0.1254 -1.5547
  138OSM   H16T14975   6.566   1.891   3.826 -0.8441  1.2987 -1.2538
  138OSM   C17S14976   6.739   1.913   3.712  0.3541  0.0122  0.1140
  138OSM   H17S14977   6.732   2.023   3.726  2.6568  0.1581  0.5859
  138OSM   H17T14978   6.774   1.895   3.608  1.4400  0.3879  0.3929
  138OSM   C18S14979   6.836   1.853   3.812  0.9131 -0.6634 -0.8594
  138OSM   H18S14980   6.794   1.849   3.914  0.6954 -0.8058 -0.9562
  138OSM   H18T14981   6.936   1.901   3.806  0.0028  1.4261 -0.2457
  138OSM   H18U14982   6.856   1.748   3.783 -0.6731 -1.7206  1.5617
  138OSM    C1F14983   6.804   2.178   2.787  1.0403 -0.8676  0.0909
  138OSM     OF14984   6.906   2.232   2.758 -0.1599 -0.6538  0.1763
  138OSM    C2F14985   6.781   2.112   2.922 -0.5776 -0.1782  0.2982
  138OSM    H2F14986   6.854   2.028   2.922  0.5517  0.7767  0.7474
  138OSM    H2G14987   6.681   2.067   2.938 -0.4157 -0.7805 -0.3595
  138OSM    C3F14988   6.809   2.222   3.030  0.0309 -0.1361  0.0416
  138OSM    H3F14989   6.723   2.293   3.033  0.8639  0.8851  0.5291
  138OSM    H3G14990   6.902   2.276   3.003 -0.7890  0.0081 -2.7919
  138OSM    C4F14991   6.840   2.146   3.158 -0.1450 -0.8679  0.2059
  138OSM    H4F14992   6.918   2.068   3.142 -0.2467 -0.5778 -1.9693
  138OSM    H4G14993   6.751   2.094   3.199  0.4774 -1.3842  0.9281
  138OSM    C5F14994   6.866   2.241   3.274 -0.2623 -0.2458 -0.4030
  138OSM    H5F14995   6.772   2.297   3.294 -0.3179 -0.2307 -0.6972
  138OSM    H5G14996   6.950   2.309   3.251  1.3284 -2.8137 -2.9690
  138OSM    C6F14997   6.894   2.161   3.406  0.2099  0.1896 -0.3401
  138OSM    H6F14998   6.817   2.081   3.409 -1.8549  2.0503 -0.9612
  138OSM    H6G14999   6.880   2.230   3.491 -0.7274  1.6494 -1.6280
  138OSM    C7F15000   7.038   2.100   3.414  0.1315  0.2657 -0.2767
  138OSM    H7F15001   7.109   2.186   3.420 -0.6451  1.0849 -2.0919
  138OSM    H7G15002   7.051   2.051   3.315 -0.9899  1.2808 -0.9539
  138OSM    C8F15003   7.053   1.997   3.529  0.4264  0.5443  0.7808
  138OSM    H8F15004   6.965   1.930   3.524 -0.8715  2.0962  1.5844
  138OSM    H8G15005   7.045   2.054   3.625 -0.7957 -0.0817  1.0765
  138OSM    C9F15006   7.166   1.908   3.527  0.4404  0.4283 -0.8191
  138OSM    H9F15007   7.168   1.849   3.435 -2.8590  0.0763 -0.7740
  138OSM   C10F15008   7.273   1.928   3.609 -0.2999 -0.6619 -0.1469
  138OSM   H10F15009   7.362   1.863   3.597  0.8412  0.7927  0.0875
  138OSM   C11F15010   7.301   2.013   3.730  0.1647  0.3878 -0.0569
  138OSM   H11F15011   7.219   2.084   3.756 -3.0500 -2.7966 -0.6450
  138OSM   H11G15012   7.394   2.073   3.719  1.9246 -2.6570 -4.1580
  138OSM   C12F15013   7.320   1.921   3.853  0.6663 -0.2968 -0.6830
  138OSM   H12F15014   7.404   1.856   3.821  0.0313  0.0055 -3.1132
  138OSM   H12G15015   7.233   1.854   3.872  0.9594 -0.5933 -0.3560
  138OSM   C13F15016   7.352   1.997   3.982 -0.1545 -0.0120  0.9762
  138OSM   H13F15017   7.388   2.098   3.955  1.2760 -0.4866  1.0091
  138OSM   H13G15018   7.439   1.962   4.041  0.3696 -0.2500  0.0859
  138OSM   C14F15019   7.234   2.004   4.087 -0.4916 -0.8923  0.6957
  138OSM   H14F15020   7.131   2.018   4.047 -0.1453  1.8890  0.5949
  138OSM   H14G15021   7.237   2.095   4.150 -2.0299  0.1883 -0.6935
  138OSM   C15F15022   7.227   1.881   4.176 -0.3188  0.4882  0.0045
  138OSM   H15F15023   7.311   1.868   4.248 -0.4717 -4.1875 -0.3216
  138OSM   H15G15024   7.236   1.789   4.115  1.7144  0.1248  0.7597
  138OSM   C16F15025   7.097   1.876   4.255 -0.1865  0.4124 -0.0118
  138OSM   H16F15026   7.016   1.891   4.180 -2.3460  1.5168  2.3712
  138OSM   H16G15027   7.090   1.967   4.318 -1.7353  0.5969 -0.4037
  138OSM   C17F15028   7.062   1.755   4.353 -0.0982  0.1642 -0.2875
  138OSM   H17F15029   7.152   1.698   4.384 -0.7389 -0.4508  0.4630
  138OSM   H17G15030   7.008   1.676   4.297  0.7290  0.5072 -1.6203
  138OSM   C18F15031   6.968   1.783   4.472  0.3244 -0.3742 -0.2213
  138OSM   H18F15032   6.953   1.692   4.535 -1.5423  0.0027 -0.0804
  138OSM   H18G15033   6.874   1.826   4.434  1.1320  1.2126 -0.4846
  138OSM   H18H15034   7.012   1.860   4.539 -0.4092  1.1891 -1.4955
  139OSM      N15035   2.102   1.490   2.519  0.0756 -0.1075 -0.0350
  139OSM    C1515036   2.211   1.499   2.417  0.6247 -0.5069  0.0552
  139OSM   H15A15037   2.258   1.596   2.429  1.6536 -0.7314 -1.8134
  139OSM   H15B15038   2.176   1.486   2.316  0.9003  0.8813 -0.2383
  139OSM   H15C15039   2.285   1.424   2.439  0.9428 -0.2632 -0.1760
  139OSM    C1415040   2.033   1.364   2.491 -0.7106 -0.0585  0.0342
  139OSM   H14A15041   1.954   1.346   2.561 -1.4490 -0.0709 -0.7801
  139OSM   H14B15042   2.108   1.287   2.480 -0.2207  0.5151 -0.8189
  139OSM   H14C15043   1.986   1.370   2.394  0.4597 -0.0403 -0.5537
  139OSM    C1315044   2.161   1.469   2.657  0.1828  0.0289 -0.3220
  139OSM   H13A15045   2.089   1.469   2.738  0.1699 -2.0767 -0.2761
  139OSM   H13B15046   2.233   1.549   2.670 -0.0129 -0.0816  1.9024
  139OSM   H13C15047   2.216   1.377   2.645  0.5210  0.0681  0.8283
  139OSM    C1215048   2.007   1.611   2.516  0.0237 -0.0372  0.1194
  139OSM   H12A15049   1.984   1.634   2.413 -0.3151  0.3858  0.2904
  139OSM   H12B15050   2.053   1.707   2.532  0.3705  0.2787 -2.3230
  139OSM    C1115051   1.860   1.598   2.573 -0.5209  1.1595 -0.0950
  139OSM   H11A15052   1.819   1.698   2.600  0.4834  1.8746 -1.1318
  139OSM   H11B15053   1.871   1.534   2.663 -1.1470 -0.6256 -1.2354
  139OSM      P15054   1.652   1.465   2.483 -0.2690 -0.0486  0.1527
  139OSM    O1315055   1.543   1.561   2.474 -0.4979 -0.3449 -0.6734
  139OSM    O1415056   1.656   1.351   2.393 -0.0798 -0.5265 -0.1975
  139OSM    O1115057   1.666   1.405   2.629 -0.4101  0.7355 -0.9274
  139OSM    O1215058   1.789   1.538   2.474 -0.0718  0.4514 -0.4122
  139OSM    C1S15059   1.557   1.316   2.667  0.5370  0.4187 -0.6513
  139OSM    H1S15060   1.563   1.213   2.625 -0.3818  0.3794 -0.7002
  139OSM    H1T15061   1.452   1.350   2.656  0.3719 -0.0152 -0.4639
  139OSM     NF15062   1.492   1.179   2.856  0.2051  0.3276 -0.2795
  139OSM    HNF15063   1.408   1.194   2.908  0.8211 -0.9127  1.1807
  139OSM    C2S15064   1.574   1.291   2.821  0.7163  0.1332 -0.3055
  139OSM    H2S15065   1.683   1.275   2.835  0.6035  0.4205  1.0515
  139OSM    C3S15066   1.536   1.428   2.899  0.3580 -0.5216  0.2815
  139OSM    H3S15067   1.426   1.441   2.885  0.7021  0.0496 -2.3506
  139OSM     O315068   1.584   1.544   2.834  0.3250 -0.2896 -0.5705
  139OSM    HO315069   1.629   1.505   2.759  0.6775 -2.1336  0.5624
  139OSM    C4S15070   1.565   1.420   3.047 -0.2676 -0.4007  0.2500
  139OSM    H4S15071   1.477   1.427   3.113 -1.0613 -1.3392 -0.6846
  139OSM    C5S15072   1.689   1.424   3.100  0.3267  0.0282 -0.2492
  139OSM    H5S15073   1.776   1.431   3.033  0.6262 -0.2820  0.1015
  139OSM    C6S15074   1.709   1.406   3.249  0.0806  0.4422  0.6905
  139OSM    H6S15075   1.724   1.506   3.295  0.2813 -0.3975  2.5617
  139OSM    H6T15076   1.806   1.354   3.264  0.6822  1.6904  1.2492
  139OSM    C7S15077   1.597   1.320   3.324 -0.6848 -0.1630 -0.6424
  139OSM    H7S15078   1.566   1.243   3.250 -3.6568  0.2987 -0.0119
  139OSM    H7T15079   1.509   1.387   3.338 -1.2828 -0.4631 -2.6272
  139OSM    C8S15080   1.635   1.271   3.463  0.2542 -0.3055 -0.4509
  139OSM    H8S15081   1.669   1.351   3.532 -1.1664  1.3813 -1.6206
  139OSM    H8T15082   1.718   1.197   3.454  1.4911  0.9720  0.1152
  139OSM    C9S15083   1.523   1.186   3.529 -0.4850 -0.4106  0.4429
  139OSM    H9S15084   1.509   1.092   3.472 -1.3084 -0.9370  1.4722
  139OSM    H9T15085   1.434   1.253   3.536 -1.6591 -2.0891  3.8546
  139OSM   C10S15086   1.536   1.144   3.678  0.2606 -0.1710  0.4191
  139OSM   H10S15087   1.632   1.091   3.690 -0.3539 -1.4090  0.0083
  139OSM   H10T15088   1.456   1.070   3.697  0.7239 -1.6333 -2.6456
  139OSM   C11S15089   1.545   1.263   3.780  0.1343  0.4093 -0.6255
  139OSM   H11S15090   1.463   1.335   3.760  1.5260  2.3269  0.2005
  139OSM   H11T15091   1.647   1.306   3.765  1.1533 -1.3590  0.8055
  139OSM   C12S15092   1.531   1.215   3.924 -0.4331 -0.0225  0.0792
  139OSM   H12S15093   1.436   1.166   3.954 -0.4217  0.6922  1.3479
  139OSM   H12T15094   1.532   1.305   3.990 -2.5577  0.3861 -0.3794
  139OSM   C13S15095   1.641   1.118   3.962 -0.6142 -0.1959  0.4171
  139OSM   H13S15096   1.744   1.157   3.946 -0.3132 -1.2774 -0.4265
  139OSM   H13T15097   1.637   1.025   3.902  0.2971 -0.5462  0.8831
  139OSM   C14S15098   1.623   1.075   4.106 -0.2437 -0.5102 -0.4066
  139OSM   H14S15099   1.699   0.995   4.119 -0.0697 -0.0749  1.6801
  139OSM   H14T15100   1.522   1.031   4.119 -0.1433  0.0221  3.4232
  139OSM   C15S15101   1.655   1.187   4.214 -0.2146 -0.4205  0.2329
  139OSM   H15S15102   1.573   1.262   4.220  1.9784  2.1737 -0.0884
  139OSM   H15T15103   1.736   1.253   4.176  2.1511 -2.7226  0.9999
  139OSM   C16S15104   1.699   1.141   4.351 -0.7095  0.1824  0.2658
  139OSM   H16S15105   1.753   1.217   4.412 -1.6886 -0.7013  2.3122
  139OSM   H16T15106   1.770   1.056   4.345  1.1316  1.7031 -1.5226
  139OSM   C17S15107   1.583   1.099   4.442  0.3462  0.1643 -0.4680
  139OSM   H17S15108   1.602   1.005   4.499  2.7379  0.1784 -1.1324
  139OSM   H17T15109   1.495   1.095   4.374  1.1672  1.2690 -1.6209
  139OSM   C18S15110   1.564   1.205   4.555 -0.2037  0.5095 -0.2902
  139OSM   H18S15111   1.494   1.166   4.632 -0.8316 -0.6988 -1.4333
  139OSM   H18T15112   1.519   1.290   4.499  0.1213 -0.1846 -1.6312
  139OSM   H18U15113   1.661   1.236   4.600  0.2531  0.2496 -1.0691
  139OSM    C1F15114   1.533   1.053   2.834  0.7829 -0.5142 -0.0968
  139OSM     OF15115   1.633   1.021   2.767  0.1544  0.2189 -0.2681
  139OSM    C2F15116   1.441   0.952   2.890 -0.5923  0.3656  0.1694
  139OSM    H2F15117   1.423   0.884   2.804  1.1041 -1.6812  1.3544
  139OSM    H2G15118   1.347   1.001   2.924 -0.8633 -1.2657  1.9164
  139OSM    C3F15119   1.522   0.883   3.000 -0.0721 -0.1086  0.6168
  139OSM    H3F15120   1.612   0.841   2.950  0.0780  1.5653 -0.5998
  139OSM    H3G15121   1.464   0.797   3.041 -2.0002  0.8486  0.0196
  139OSM    C4F15122   1.562   0.979   3.114 -0.1717 -0.1558 -0.1617
  139OSM    H4F15123   1.490   1.062   3.131  3.6557  3.0502  2.3846
  139OSM    H4G15124   1.660   1.022   3.084  0.1839 -1.4235 -0.8636
  139OSM    C5F15125   1.599   0.910   3.248 -0.5271 -0.6430 -0.0484
  139OSM    H5F15126   1.649   0.988   3.310 -1.2392  0.3197 -0.6591
  139OSM    H5G15127   1.665   0.824   3.226 -0.9481 -0.9037 -0.3043
  139OSM    C6F15128   1.481   0.865   3.329  0.0362 -0.0262 -0.8022
  139OSM    H6F15129   1.413   0.798   3.272 -0.4178 -1.3318  1.1911
  139OSM    H6G15130   1.422   0.957   3.350 -2.3500 -1.4979 -0.6662
  139OSM    C7F15131   1.512   0.793   3.464  0.4247 -0.3715 -0.2702
  139OSM    H7F15132   1.577   0.857   3.526  0.3866  0.1972 -0.8003
  139OSM    H7G15133   1.569   0.698   3.455  0.4097 -0.3566 -0.5359
  139OSM    C8F15134   1.378   0.773   3.539 -0.9857  0.3151 -0.8165
  139OSM    H8F15135   1.307   0.710   3.482 -0.7893 -0.3612 -0.3346
  139OSM    H8G15136   1.333   0.875   3.538  0.0564  0.9630  2.5525
  139OSM    C9F15137   1.401   0.717   3.673  1.4347  0.3740  0.1132
  139OSM    H9F15138   1.446   0.617   3.672  3.0836  1.0758  0.5244
  139OSM   C10F15139   1.357   0.767   3.792 -0.2598  0.8547  0.4164
  139OSM   H10F15140   1.398   0.710   3.876  0.0695 -1.7051 -1.3544
  139OSM   C11F15141   1.278   0.896   3.815  0.2335 -0.7672  0.4961
  139OSM   H11F15142   1.250   0.946   3.719  3.8539  0.0919 -0.2695
  139OSM   H11G15143   1.348   0.965   3.868 -1.5978  2.8963 -1.4097
  139OSM   C12F15144   1.149   0.886   3.894  0.1373  0.2635 -0.5788
  139OSM   H12F15145   1.082   0.807   3.851  0.6810 -0.0948 -0.7747
  139OSM   H12G15146   1.088   0.977   3.874 -3.0725 -1.6219 -0.0377
  139OSM   C13F15147   1.178   0.866   4.048  0.6678 -0.5021 -0.0205
  139OSM   H13F15148   1.242   0.950   4.082 -0.4450  0.6239 -0.6296
  139OSM   H13G15149   1.247   0.780   4.056  1.5061  0.2522  1.1562
  139OSM   C14F15150   1.036   0.844   4.125 -0.0079 -0.0929  0.7083
  139OSM   H14F15151   0.983   0.755   4.083  0.2006 -0.5479  1.3967
  139OSM   H14G15152   0.975   0.934   4.103  1.5693  0.7894 -0.3564
  139OSM   C15F15153   1.057   0.825   4.276 -0.1169 -0.0559  1.1668
  139OSM   H15F15154   1.126   0.739   4.291  0.3875  0.2273  0.5361
  139OSM   H15G15155   0.955   0.808   4.316 -1.5099  1.1357 -1.6331
  139OSM   C16F15156   1.116   0.939   4.344 -0.9412  0.0750  0.0752
  139OSM   H16F15157   1.062   1.033   4.317 -0.8463 -0.0673 -0.6325
  139OSM   H16G15158   1.222   0.956   4.314 -1.3304  0.2420 -1.2551
  139OSM   C17F15159   1.119   0.927   4.497 -0.1225 -0.0019  0.9489
  139OSM   H17F15160   1.163   0.829   4.523  2.9590  1.0585  0.2079
  139OSM   H17G15161   1.015   0.934   4.535 -1.1395 -2.2496 -1.1450
  139OSM   C18F15162   1.203   1.032   4.562  0.2856  0.0760 -0.0692
  139OSM   H18F15163   1.140   1.104   4.620  2.4396  0.2814  2.1742
  139OSM   H18G15164   1.268   1.101   4.504  0.7655 -0.0103  0.3682
  139OSM   H18H15165   1.265   0.976   4.635  1.7952 -1.5614 -2.4684
  140OSM      N15166   5.538   3.826   2.564 -0.5252  0.3293  0.4783
  140OSM    C1515167   5.584   3.792   2.421  0.1818  0.2326  0.1267
  140OSM   H15A15168   5.689   3.767   2.424  0.6847  2.2498  0.2990
  140OSM   H15B15169   5.570   3.876   2.355 -1.2012  0.2986  0.4575
  140OSM   H15C15170   5.519   3.715   2.381 -0.9870  0.4167  1.5622
  140OSM    C1415171   5.629   3.934   2.614 -0.4266 -0.0205 -0.1279
  140OSM   H14A15172   5.730   3.909   2.583 -0.5330  0.3479 -0.8038
  140OSM   H14B15173   5.627   3.945   2.721 -2.4257  2.8873 -0.3647
  140OSM   H14C15174   5.588   4.028   2.580 -1.1811  0.3268  1.6631
  140OSM    C1315175   5.395   3.859   2.554  0.3163 -0.3468  0.2828
  140OSM   H13A15176   5.365   3.897   2.651  1.9598  0.6533  0.4356
  140OSM   H13B15177   5.329   3.777   2.529 -3.0792  2.4656 -0.7660
  140OSM   H13C15178   5.376   3.948   2.496  1.3929  1.1669  2.1396
  140OSM    C1215179   5.561   3.698   2.649 -0.4492 -0.2154  0.6056
  140OSM   H12A15180   5.507   3.621   2.595 -0.0993  0.8010 -1.3081
  140OSM   H12B15181   5.508   3.713   2.742 -0.5344  0.2412  0.4867
  140OSM    C1115182   5.705   3.650   2.672 -1.2838  0.5390 -0.4166
  140OSM   H11A15183   5.715   3.564   2.741  0.4071 -0.2733 -1.6081
  140OSM   H11B15184   5.761   3.727   2.729 -2.3071  0.2814  0.9822
  140OSM      P15185   5.785   3.465   2.500 -0.4009  0.1890 -0.2425
  140OSM    O1315186   5.651   3.422   2.457  0.5407 -0.2759 -0.2292
  140OSM    O1415187   5.903   3.460   2.412 -0.0102  0.4562 -0.1239
  140OSM    O1115188   5.830   3.387   2.629 -0.2267  0.3901  0.7047
  140OSM    O1215189   5.770   3.617   2.548  0.3146 -0.4719  0.7305
  140OSM    C1S15190   5.955   3.391   2.689 -0.8342 -0.6875 -0.4593
  140OSM    H1S15191   5.965   3.480   2.755  0.2622 -0.4775 -0.8776
  140OSM    H1T15192   6.038   3.403   2.616 -1.7396  1.2429 -1.2468
  140OSM     NF15193   6.093   3.302   2.871  0.1120 -0.3567 -0.3498
  140OSM    HNF15194   6.184   3.270   2.844  0.3491 -0.2232  0.2782
  140OSM    C2S15195   5.977   3.272   2.789  0.0184 -0.3286  0.3379
  140OSM    H2S15196   5.886   3.263   2.853 -0.2507  1.7047  0.2994
  140OSM    C3S15197   5.984   3.139   2.712  0.0515 -0.2139 -0.8626
  140OSM    H3S15198   6.082   3.150   2.662  0.1893 -1.2289 -0.8539
  140OSM     O315199   5.876   3.123   2.620 -0.5790  0.2124  0.4201
  140OSM    HO315200   5.828   3.207   2.628 -0.3542  0.3972 -0.1151
  140OSM    C4S15201   5.991   3.034   2.809 -0.1884  0.1206 -0.3265
  140OSM    H4S15202   5.902   3.043   2.873 -0.0285 -0.1746 -0.0619
  140OSM    C5S15203   6.080   2.939   2.837  0.3335  1.1203  0.8356
  140OSM    H5S15204   6.152   2.920   2.756 -1.5594 -1.1078 -0.4722
  140OSM    C6S15205   6.068   2.833   2.945 -0.5526 -0.1924  0.2359
  140OSM    H6S15206   6.065   2.733   2.897  0.7213  0.1082 -0.5112
  140OSM    H6T15207   5.977   2.856   3.005 -1.7107  0.3709 -1.6471
  140OSM    C7S15208   6.190   2.834   3.046  0.1794  0.4782 -0.0243
  140OSM    H7S15209   6.202   2.934   3.094 -1.6553 -0.1834  1.9966
  140OSM    H7T15210   6.281   2.814   2.987 -0.2141 -1.3039 -0.1037
  140OSM    C8S15211   6.170   2.719   3.152  0.2903  0.0689  0.5942
  140OSM    H8S15212   6.181   2.618   3.106  0.6641 -0.0270  0.8984
  140OSM    H8T15213   6.064   2.714   3.186  0.4797  2.8054  1.8526
  140OSM    C9S15214   6.276   2.717   3.261 -0.0950  0.1624  0.4639
  140OSM    H9S15215   6.293   2.820   3.301 -1.1191  0.7083 -0.4783
  140OSM    H9T15216   6.376   2.693   3.217  0.3590 -1.4128  2.2297
  140OSM   C10S15217   6.271   2.611   3.368  0.5214 -0.1878  0.1133
  140OSM   H10S15218   6.254   2.510   3.326 -2.7909 -0.6704  2.2436
  140OSM   H10T15219   6.186   2.629   3.438  0.1217  2.4915 -0.9493
  140OSM   C11S15220   6.403   2.610   3.449 -0.4068  0.4881 -0.2762
  140OSM   H11S15221   6.438   2.713   3.470  1.1538  0.0654 -0.6424
  140OSM   H11T15222   6.487   2.566   3.390 -0.9791  0.1884 -0.8761
  140OSM   C12S15223   6.377   2.533   3.579 -0.1456 -0.3909  0.1253
  140OSM   H12S15224   6.333   2.431   3.574  1.3568 -1.0077 -1.6238
  140OSM   H12T15225   6.301   2.592   3.635  0.9054  1.8499 -0.6913
  140OSM   C13S15226   6.503   2.531   3.671  0.1338  0.2184  0.0555
  140OSM   H13S15227   6.531   2.630   3.715  1.5743 -1.1836  2.5316
  140OSM   H13T15228   6.589   2.488   3.616 -0.3977  0.9786 -1.4180
  140OSM   C14S15229   6.479   2.425   3.774 -0.2467 -0.5202 -0.3480
  140OSM   H14S15230   6.490   2.327   3.722  1.6823 -1.7719  2.2368
  140OSM   H14T15231   6.373   2.436   3.806 -0.2971  0.7233 -0.9008
  140OSM   C15S15232   6.573   2.435   3.898  0.5550  0.1410 -0.4081
  140OSM   H15S15233   6.550   2.533   3.945 -0.4756  0.3120 -1.2328
  140OSM   H15T15234   6.679   2.428   3.865  1.1793 -2.1342  1.7921
  140OSM   C16S15235   6.553   2.329   4.007  0.9191  0.0264 -0.2771
  140OSM   H16S15236   6.455   2.322   4.060  0.7587  1.2896 -0.3758
  140OSM   H16T15237   6.636   2.355   4.076  1.1420 -1.8702  0.2164
  140OSM   C17S15238   6.598   2.194   3.956 -0.4825 -0.5576  0.0775
  140OSM   H17S15239   6.703   2.198   3.919 -0.5212 -1.0015 -0.0818
  140OSM   H17T15240   6.537   2.171   3.866 -0.7948  2.8545 -0.7185
  140OSM   C18S15241   6.588   2.085   4.067 -0.1877 -0.3619 -0.6712
  140OSM   H18S15242   6.481   2.078   4.095 -0.7590  5.2937 -0.3044
  140OSM   H18T15243   6.649   2.116   4.154 -1.1149  0.3258 -0.2473
  140OSM   H18U15244   6.616   1.986   4.025  2.3612 -0.1309  0.3408
  140OSM    C1F15245   6.084   3.390   2.968  0.4786  0.1308  0.3665
  140OSM     OF15246   5.977   3.436   2.999  0.3367 -0.4560 -0.3938
  140OSM    C2F15247   6.206   3.434   3.041 -0.6806  0.3911 -0.4767
  140OSM    H2F15248   6.208   3.545   3.042  0.5183  0.4028 -1.4925
  140OSM    H2G15249   6.299   3.395   2.994 -0.7742  0.3705 -0.6449
  140OSM    C3F15250   6.202   3.386   3.189 -0.2246 -0.1204  0.0725
  140OSM    H3F15251   6.102   3.400   3.237 -1.3629 -0.6383 -2.0144
  140OSM    H3G15252   6.281   3.442   3.243 -0.6045  1.5889 -1.0623
  140OSM    C4F15253   6.237   3.231   3.186  0.3545  0.3296  0.7559
  140OSM    H4F15254   6.344   3.230   3.157 -0.1181  0.0778 -1.1077
  140OSM    H4G15255   6.179   3.177   3.108  2.8038 -1.3399 -0.0107
  140OSM    C5F15256   6.232   3.151   3.317 -0.4641  0.3434 -0.2472
  140OSM    H5F15257   6.272   3.048   3.321 -0.2789  0.4528  1.2895
  140OSM    H5G15258   6.125   3.146   3.348 -0.4733  2.8621  0.3799
  140OSM    C6F15259   6.315   3.213   3.430 -0.4258 -0.0330  0.9103
  140OSM    H6F15260   6.290   3.320   3.445  1.9988  0.7745 -0.3549
  140OSM    H6G15261   6.419   3.203   3.392 -0.8245 -0.8637  0.0133
  140OSM    C7F15262   6.306   3.136   3.557 -0.0053 -0.3200 -0.6552
  140OSM    H7F15263   6.326   3.027   3.545  0.9711 -0.2844  0.5245
  140OSM    H7G15264   6.203   3.149   3.596 -0.3060 -0.9344 -1.2235
  140OSM    C8F15265   6.396   3.200   3.669 -0.0131  0.0622 -0.2895
  140OSM    H8F15266   6.359   3.164   3.767  0.6342  3.2392  1.2673
  140OSM    H8G15267   6.376   3.309   3.672  1.3860  0.3790 -1.1837
  140OSM    C9F15268   6.545   3.178   3.666  0.1350  0.2150  0.2870
  140OSM    H9F15269   6.609   3.234   3.596 -0.2428 -0.3398 -0.5198
  140OSM   C10F15270   6.616   3.094   3.750 -0.2559 -0.5015 -0.3523
  140OSM   H10F15271   6.720   3.070   3.725 -0.0292 -0.4068  0.4743
  140OSM   C11F15272   6.554   2.999   3.852 -0.0847  0.0396 -0.4563
  140OSM   H11F15273   6.443   2.999   3.849 -0.1122  1.2807 -0.1045
  140OSM   H11G15274   6.585   3.032   3.953 -1.3089 -0.8663  0.2222
  140OSM   C12F15275   6.614   2.858   3.836  0.0362 -0.4158 -0.4709
  140OSM   H12F15276   6.632   2.833   3.729  0.6971  0.3599 -0.5502
  140OSM   H12G15277   6.533   2.793   3.875 -1.1960  1.1116 -0.3908
  140OSM   C13F15278   6.745   2.845   3.928 -0.2126 -0.5456 -1.0556
  140OSM   H13F15279   6.705   2.857   4.031  1.5183  0.8986 -0.5001
  140OSM   H13G15280   6.816   2.930   3.925  0.2097 -0.7399  1.2298
  140OSM   C14F15281   6.829   2.714   3.915  0.1858  0.4344 -0.0552
  140OSM   H14F15282   6.867   2.697   3.812  1.7569  0.1837  0.5258
  140OSM   H14G15283   6.757   2.631   3.930 -0.5474  1.1212  0.2703
  140OSM   C15F15284   6.952   2.692   3.995 -0.2409  0.4588  0.5623
  140OSM   H15F15285   6.946   2.740   4.095  0.3735  2.2200 -0.2189
  140OSM   H15G15286   7.032   2.749   3.945 -0.1393 -1.2654 -1.3917
  140OSM   C16F15287   7.002   2.543   4.004  1.3567 -0.5096 -0.3445
  140OSM   H16F15288   6.918   2.484   4.048  1.0759  0.3822  0.3334
  140OSM   H16G15289   7.087   2.534   4.075  0.7589 -2.8874  0.1825
  140OSM   C17F15290   7.043   2.479   3.865 -0.0449  0.1546 -0.4136
  140OSM   H17F15291   7.136   2.526   3.828  0.0131  2.3314  2.1996
  140OSM   H17G15292   6.957   2.513   3.803 -0.9194  1.3677  1.3677
  140OSM   C18F15293   7.064   2.333   3.876  0.6609  0.6325 -0.0191
  140OSM   H18F15294   7.130   2.332   3.965 -1.9824 -1.5251  2.1377
  140OSM   H18G15295   7.102   2.288   3.782 -2.8891  1.2831 -1.9444
  140OSM   H18H15296   6.972   2.275   3.900  0.6081  1.0955  0.9586
  141OSM      N15297   3.107   2.681   2.148  0.0389  0.2583  0.8145
  141OSM    C1515298   3.233   2.759   2.124  0.0377 -0.7000  0.0076
  141OSM   H15A15299   3.225   2.857   2.169  0.6892 -0.8786  0.5334
  141OSM   H15B15300   3.266   2.759   2.021  1.8435 -1.7927  0.5529
  141OSM   H15C15301   3.316   2.709   2.171  0.5323 -0.9700 -1.1274
  141OSM    C1415302   2.995   2.778   2.133 -0.2118 -0.1969  0.2213
  141OSM   H14A15303   2.987   2.839   2.222 -2.8140 -2.1319  1.4437
  141OSM   H14B15304   2.904   2.721   2.121  0.3396 -0.5857 -3.0790
  141OSM   H14C15305   3.008   2.836   2.043 -1.3074 -0.9973 -0.4851
  141OSM    C1315306   3.100   2.574   2.046  0.3259  0.0460  0.0425
  141OSM   H13A15307   3.005   2.523   2.047  0.9400 -1.1663 -1.2072
  141OSM   H13B15308   3.174   2.499   2.070  2.5638  1.8229 -0.9984
  141OSM   H13C15309   3.124   2.602   1.945  0.0741 -1.0895 -0.3511
  141OSM    C1215310   3.112   2.621   2.288 -0.3935  0.1774  0.4607
  141OSM   H12A15311   3.189   2.545   2.299 -2.1360 -1.6025  1.1012
  141OSM   H12B15312   3.020   2.564   2.290 -1.1930  1.4560  0.9340
  141OSM    C1115313   3.134   2.712   2.416  0.1272 -0.5363 -0.4632
  141OSM   H11A15314   3.236   2.757   2.418  0.3363 -1.0107  0.7988
  141OSM   H11B15315   3.129   2.641   2.501  1.4981 -0.5263 -0.3496
  141OSM      P15316   2.890   2.762   2.489 -0.4361  0.2870  0.1516
  141OSM    O1315317   2.778   2.843   2.439 -0.2756 -0.6831  0.0759
  141OSM    O1415318   2.878   2.617   2.459 -0.3081 -0.2684  0.0789
  141OSM    O1115319   2.921   2.780   2.639 -0.5236 -0.5069  0.0572
  141OSM    O1215320   3.032   2.817   2.422  0.2393  0.2038 -0.1573
  141OSM    C1S15321   3.009   2.866   2.704  0.0900 -0.7132 -0.9869
  141OSM    H1S15322   2.973   2.970   2.699  1.0582 -0.3121 -0.0716
  141OSM    H1T15323   3.112   2.865   2.662  0.7181 -0.6673  0.5037
  141OSM     NF15324   3.039   2.961   2.942 -0.1222 -0.1565 -0.6099
  141OSM    HNF15325   3.130   2.975   2.979  0.0209 -1.2013 -0.5485
  141OSM    C2S15326   3.021   2.837   2.858  0.3435  0.1253  0.0206
  141OSM    H2S15327   2.923   2.790   2.881 -2.4949  5.2108 -0.0806
  141OSM    C3S15328   3.128   2.723   2.873 -0.5102 -0.0128  0.4467
  141OSM    H3S15329   3.228   2.770   2.867 -0.4412 -0.0027  1.4954
  141OSM     O315330   3.112   2.623   2.776  0.0591  0.1522  0.3215
  141OSM    HO315331   3.036   2.653   2.726  0.2451  2.3971  1.2805
  141OSM    C4S15332   3.127   2.665   3.010  0.6317 -0.5012 -0.3945
  141OSM    H4S15333   3.037   2.607   3.035  0.0213 -0.2946 -1.9458
  141OSM    C5S15334   3.226   2.684   3.102 -0.9234  0.6187  0.1406
  141OSM    H5S15335   3.311   2.747   3.073 -0.2880  1.1710  2.9170
  141OSM    C6S15336   3.230   2.637   3.248 -1.0323  0.6768  0.5211
  141OSM    H6S15337   3.335   2.625   3.283 -0.9877 -0.4710  0.0326
  141OSM    H6T15338   3.180   2.538   3.257 -1.7958  0.7940 -1.7057
  141OSM    C7S15339   3.174   2.751   3.330 -0.1198  0.1154  0.4103
  141OSM    H7S15340   3.077   2.787   3.289 -0.0327  1.2951  1.1970
  141OSM    H7T15341   3.252   2.831   3.337 -0.4924  0.4535  0.7451
  141OSM    C8S15342   3.140   2.707   3.478  0.1614 -0.0202 -0.1252
  141OSM    H8S15343   3.052   2.640   3.478 -1.2073  1.7145  0.3795
  141OSM    H8T15344   3.111   2.795   3.539  0.3023 -0.3052  0.3652
  141OSM    C9S15345   3.254   2.636   3.557  0.2835  0.4946 -0.3954
  141OSM    H9S15346   3.344   2.664   3.499 -0.6596  1.3677 -1.5068
  141OSM    H9T15347   3.245   2.526   3.565  0.5589  0.5968  1.9158
  141OSM   C10S15348   3.275   2.693   3.695 -0.2339  0.5767 -0.2589
  141OSM   H10S15349   3.199   2.668   3.772 -0.3719  1.5378 -0.0682
  141OSM   H10T15350   3.285   2.804   3.698  1.2992  0.5156 -1.4002
  141OSM   C11S15351   3.404   2.632   3.760  0.7092  0.2549 -0.2358
  141OSM   H11S15352   3.483   2.628   3.683  0.2839 -2.0971 -0.6539
  141OSM   H11T15353   3.385   2.526   3.788 -0.4082  0.5168  0.0546
  141OSM   C12S15354   3.442   2.693   3.892 -0.4818  0.0429 -0.3157
  141OSM   H12S15355   3.348   2.715   3.947 -1.6988  3.2643 -3.3029
  141OSM   H12T15356   3.482   2.795   3.875  1.5441 -0.2786  1.8779
  141OSM   C13S15357   3.533   2.606   3.981  0.2907  0.1609 -0.1812
  141OSM   H13S15358   3.576   2.666   4.064 -2.3535  1.3397  0.4569
  141OSM   H13T15359   3.612   2.556   3.921  1.0301 -0.3484  1.1856
  141OSM   C14S15360   3.455   2.484   4.035 -0.4480 -0.3507  0.2462
  141OSM   H14S15361   3.426   2.417   3.952 -0.5596 -1.5346  1.2179
  141OSM   H14T15362   3.360   2.517   4.082 -0.6283 -0.5511  0.0224
  141OSM   C15S15363   3.537   2.411   4.147 -0.5676  0.3946  0.1201
  141OSM   H15S15364   3.560   2.477   4.233 -2.8279  0.7714  0.4869
  141OSM   H15T15365   3.638   2.387   4.107 -1.4923  0.1518 -2.2851
  141OSM   C16S15366   3.471   2.283   4.192 -0.4875 -0.7159 -0.1779
  141OSM   H16S15367   3.469   2.217   4.103  0.4926 -0.7942 -0.1499
  141OSM   H16T15368   3.370   2.310   4.230  0.1405  1.6744 -0.0025
  141OSM   C17S15369   3.550   2.210   4.307 -0.0048 -0.4076 -0.2778
  141OSM   H17S15370   3.655   2.190   4.276 -0.6382 -1.1933 -2.0717
  141OSM   H17T15371   3.498   2.111   4.310 -2.2072  0.5842 -2.1659
  141OSM   C18S15372   3.546   2.292   4.434 -0.0037  0.3391 -1.2877
  141OSM   H18S15373   3.607   2.238   4.509  1.3957  3.2348 -0.1747
  141OSM   H18T15374   3.452   2.320   4.486  1.2915  1.6139  0.4890
  141OSM   H18U15375   3.595   2.390   4.416 -0.1212  1.0924  1.8599
  141OSM    C1F15376   2.939   3.045   2.955 -0.0107 -0.7413 -0.1383
  141OSM     OF15377   2.835   3.011   2.901 -0.1970  0.1719 -0.1261
  141OSM    C2F15378   2.965   3.178   3.015  0.1002 -0.3460 -0.2453
  141OSM    H2F15379   2.882   3.239   2.974  0.8526  1.1548  0.4167
  141OSM    H2G15380   3.064   3.219   2.986  0.0937  0.5193  0.8994
  141OSM    C3F15381   2.939   3.170   3.168 -0.4262 -0.7537  0.3250
  141OSM    H3F15382   2.943   3.270   3.215  2.3472 -0.1734 -0.9905
  141OSM    H3G15383   3.009   3.100   3.219  1.5156  0.7468 -0.2074
  141OSM    C4F15384   2.797   3.126   3.199  0.0880  0.4615  0.1099
  141OSM    H4F15385   2.774   3.021   3.173 -1.4854  0.5167  1.1179
  141OSM    H4G15386   2.733   3.189   3.134 -0.9237 -0.1648  0.4799
  141OSM    C5F15387   2.756   3.161   3.343  0.2632  0.6531  0.3691
  141OSM    H5F15388   2.771   3.271   3.354 -1.4735  0.9782 -0.1898
  141OSM    H5G15389   2.826   3.113   3.414 -0.4511 -4.6910 -2.0951
  141OSM    C6F15390   2.609   3.126   3.369  0.3642 -0.0725 -0.1843
  141OSM    H6F15391   2.584   3.024   3.330 -0.1080  0.0902 -0.3134
  141OSM    H6G15392   2.545   3.199   3.315  1.8429  1.0902 -0.4492
  141OSM    C7F15393   2.566   3.134   3.522  0.3985 -0.6878 -0.0036
  141OSM    H7F15394   2.606   3.229   3.562 -1.5201  0.5164 -0.8369
  141OSM    H7G15395   2.619   3.058   3.584  3.0033 -0.1125 -1.3637
  141OSM    C8F15396   2.412   3.135   3.546 -0.9343  0.0967  0.3887
  141OSM    H8F15397   2.377   3.213   3.475 -2.5388  2.5182  3.5719
  141OSM    H8G15398   2.382   3.183   3.641  1.4861  1.5133  0.5302
  141OSM    C9F15399   2.354   2.997   3.528  0.3457  0.6602 -0.2679
  141OSM    H9F15400   2.369   2.963   3.425  1.7873  0.5347 -0.0436
  141OSM   C10F15401   2.295   2.911   3.617  0.5723 -0.4541 -0.1583
  141OSM   H10F15402   2.263   2.810   3.587  3.2750 -1.3620 -0.2994
  141OSM   C11F15403   2.285   2.930   3.769 -0.1566 -0.4094 -0.9030
  141OSM   H11F15404   2.348   3.013   3.804 -0.2706 -0.1579 -1.2848
  141OSM   H11G15405   2.313   2.836   3.821 -0.9472 -0.4119 -0.4554
  141OSM   C12F15406   2.144   2.981   3.802  0.7209  0.7617 -0.1121
  141OSM   H12F15407   2.068   2.919   3.750  1.5056 -0.9613  0.7151
  141OSM   H12G15408   2.136   3.089   3.777 -0.7101  0.6878 -0.0435
  141OSM   C13F15409   2.120   2.976   3.956 -0.3182  0.5380 -0.6423
  141OSM   H13F15410   2.197   3.029   4.016 -0.1102  0.1218 -0.5360
  141OSM   H13G15411   2.133   2.869   3.982 -1.3008  0.5553 -0.0164
  141OSM   C14F15412   1.981   3.016   3.995 -0.2309  1.0387 -0.3123
  141OSM   H14F15413   1.972   2.982   4.100  1.3458 -2.7281 -1.2295
  141OSM   H14G15414   1.899   2.955   3.951 -1.2897  0.2272  2.5869
  141OSM   C15F15415   1.950   3.164   3.995 -0.3728  0.4007  0.6813
  141OSM   H15F15416   1.845   3.170   3.958 -0.0890  1.9811  0.0540
  141OSM   H15G15417   2.010   3.227   3.927 -0.8122 -1.1786 -1.2560
  141OSM   C16F15418   1.968   3.234   4.135 -0.3843 -0.3764  0.5637
  141OSM   H16F15419   1.907   3.171   4.203  2.0768 -1.1059  2.2256
  141OSM   H16G15420   1.927   3.337   4.133 -2.8153 -1.2744 -1.4570
  141OSM   C17F15421   2.109   3.239   4.189  0.6139 -0.5916  0.5396
  141OSM   H17F15422   2.175   3.278   4.109  0.4699  1.2362  1.2553
  141OSM   H17G15423   2.141   3.134   4.202 -2.1366 -1.6931 -1.0035
  141OSM   C18F15424   2.117   3.313   4.323  0.2100  0.0253  0.4118
  141OSM   H18F15425   2.088   3.420   4.313 -1.5950 -0.2635  1.9323
  141OSM   H18G15426   2.221   3.305   4.362 -0.3759 -1.4080  1.7806
  141OSM   H18H15427   2.052   3.269   4.401 -1.3854  1.1155 -0.2550
  142OSM      N15428   3.370   5.609   2.303  0.0233  0.1462  1.0986
  142OSM    C1515429   3.519   5.638   2.266  0.6389 -0.5508 -0.2869
  142OSM   H15A15430   3.581   5.569   2.321  0.6069 -0.3813 -0.0374
  142OSM   H15B15431   3.550   5.736   2.301  2.4617 -1.0928 -0.2672
  142OSM   H15C15432   3.533   5.634   2.159  0.3094  1.5650 -0.4595
  142OSM    C1415433   3.361   5.638   2.452  0.1086 -0.6170 -0.0792
  142OSM   H14A15434   3.437   5.577   2.499  1.1187  1.5913  1.3399
  142OSM   H14B15435   3.272   5.599   2.500  1.4771 -0.3287  2.9356
  142OSM   H14C15436   3.392   5.739   2.475  0.2975 -0.7776  0.3958
  142OSM    C1315437   3.275   5.703   2.236 -0.1367 -0.2464 -0.1365
  142OSM   H13A15438   3.181   5.707   2.289  0.9452  1.4379  1.8226
  142OSM   H13B15439   3.270   5.675   2.132 -1.8926 -1.5426  0.2608
  142OSM   H13C15440   3.314   5.804   2.228 -0.4963 -0.0498  0.5113
  142OSM    C1215441   3.324   5.463   2.277 -0.3882 -0.0490  0.5863
  142OSM   H12A15442   3.371   5.400   2.351  0.7784  1.2375  0.9733
  142OSM   H12B15443   3.362   5.420   2.186  2.5828 -1.1659  2.2254
  142OSM    C1115444   3.170   5.440   2.283 -0.5675  0.0515  0.0171
  142OSM   H11A15445   3.139   5.337   2.253  0.9260 -0.2748 -0.4935
  142OSM   H11B15446   3.120   5.498   2.202 -2.7756 -1.4499  0.2057
  142OSM      P15447   3.017   5.393   2.490 -0.2180  0.1569 -0.1915
  142OSM    O1315448   2.880   5.436   2.465 -0.0102 -1.0742 -0.4109
  142OSM    O1415449   3.039   5.247   2.475  0.5230  0.9448 -0.0883
  142OSM    O1115450   3.072   5.441   2.639  0.0486  0.3072 -0.3548
  142OSM    O1215451   3.118   5.479   2.409  0.7258 -0.0262  0.0478
  142OSM    C1S15452   2.993   5.528   2.715  0.6636  0.1756 -0.3150
  142OSM    H1S15453   2.893   5.479   2.723  1.1092 -0.6376  0.3978
  142OSM    H1T15454   2.980   5.625   2.662  0.8657  0.0414 -0.6104
  142OSM     NF15455   2.962   5.627   2.947 -0.3030 -0.3000  0.2335
  142OSM    HNF15456   3.010   5.702   2.992 -0.2677 -0.6491  0.7929
  142OSM    C2S15457   3.046   5.547   2.863 -0.5328  0.8329  0.3428
  142OSM    H2S15458   3.050   5.443   2.902  0.2776  0.9268  0.5223
  142OSM    C3S15459   3.194   5.600   2.858 -0.0867 -0.4645 -0.0124
  142OSM    H3S15460   3.180   5.703   2.819 -3.1463 -1.3563 -1.5312
  142OSM     O315461   3.279   5.531   2.765 -0.1645 -0.4379 -0.0809
  142OSM    HO315462   3.226   5.464   2.721  1.8707 -1.0106 -1.8500
  142OSM    C4S15463   3.262   5.614   2.996  0.1056 -0.3861  0.0090
  142OSM    H4S15464   3.220   5.696   3.056 -1.9250 -2.0495  1.0093
  142OSM    C5S15465   3.343   5.534   3.068 -0.3587  0.1038 -0.7034
  142OSM    H5S15466   3.381   5.442   3.022  0.1179  0.2577 -0.6213
  142OSM    C6S15467   3.406   5.562   3.198  0.3640 -0.3854 -0.4564
  142OSM    H6S15468   3.497   5.625   3.188  1.4640 -1.9527 -0.6216
  142OSM    H6T15469   3.426   5.460   3.235 -0.2015 -0.2381  0.2778
  142OSM    C7S15470   3.311   5.630   3.297  0.0193  0.1229 -0.0067
  142OSM    H7S15471   3.224   5.563   3.311 -1.3546  2.1316  1.7368
  142OSM    H7T15472   3.278   5.728   3.257  0.4326  1.4754  2.6720
  142OSM    C8S15473   3.385   5.658   3.435 -0.1304  0.5775 -0.3119
  142OSM    H8S15474   3.458   5.736   3.406 -1.6016  1.7762 -0.9491
  142OSM    H8T15475   3.433   5.561   3.460 -2.3969 -0.3723  0.7274
  142OSM    C9S15476   3.288   5.706   3.542  0.2192 -0.6378  0.3109
  142OSM    H9S15477   3.194   5.647   3.546 -0.4989  0.3987 -0.6679
  142OSM    H9T15478   3.260   5.809   3.509 -1.0426 -1.7739 -2.4926
  142OSM   C10S15479   3.341   5.706   3.689  0.8213 -0.5637 -0.1512
  142OSM   H10S15480   3.424   5.779   3.696 -1.7815  2.8128 -1.5416
  142OSM   H10T15481   3.385   5.606   3.708  1.2111 -0.9950 -2.9210
  142OSM   C11S15482   3.235   5.740   3.799  0.1995  0.3482  0.1581
  142OSM   H11S15483   3.150   5.668   3.794  0.0629  0.5250 -0.0649
  142OSM   H11T15484   3.193   5.841   3.779 -0.3963  0.1478  0.4030
  142OSM   C12S15485   3.281   5.748   3.945  0.3084  0.1024 -0.0916
  142OSM   H12S15486   3.198   5.775   4.014  1.4489 -1.4770  2.0003
  142OSM   H12T15487   3.340   5.842   3.957  1.7697 -0.7097 -0.6674
  142OSM   C13S15488   3.353   5.626   3.986  0.0775  0.0081 -0.1937
  142OSM   H13S15489   3.461   5.636   3.962  0.0333  0.5623 -0.1589
  142OSM   H13T15490   3.313   5.533   3.940  1.6810 -0.0176 -1.6321
  142OSM   C14S15491   3.357   5.612   4.138 -0.5622 -0.0769  0.1037
  142OSM   H14S15492   3.256   5.622   4.184 -0.2963  2.7481  0.2629
  142OSM   H14T15493   3.424   5.687   4.186 -0.0711 -2.0855  2.7845
  142OSM   C15S15494   3.422   5.474   4.168 -0.1169 -0.2486 -0.3269
  142OSM   H15S15495   3.481   5.438   4.081 -0.7628  0.1863 -0.9573
  142OSM   H15T15496   3.346   5.396   4.187  0.4195 -0.6017  0.4599
  142OSM   C16S15497   3.518   5.473   4.294 -0.0007  0.3698  0.2253
  142OSM   H16S15498   3.603   5.541   4.277  1.1710 -0.5356  2.1684
  142OSM   H16T15499   3.553   5.368   4.303  2.6101  1.2960  1.9567
  142OSM   C17S15500   3.444   5.517   4.426  0.0160 -0.0466 -0.2170
  142OSM   H17S15501   3.362   5.446   4.447 -0.3655  0.7741  1.2572
  142OSM   H17T15502   3.410   5.621   4.404  0.6332  0.0104 -0.9396
  142OSM   C18S15503   3.531   5.517   4.551  0.2082 -0.3024 -0.1312
  142OSM   H18S15504   3.565   5.413   4.569  0.5021 -0.2909 -0.6024
  142OSM   H18T15505   3.479   5.539   4.647  2.4255 -4.6301  2.3766
  142OSM   H18U15506   3.617   5.587   4.554 -0.2579  0.3263  3.7931
  142OSM    C1F15507   2.843   5.593   2.984  0.1806  0.7277 -0.1428
  142OSM     OF15508   2.783   5.499   2.935  0.1015  0.3010 -0.2775
  142OSM    C2F15509   2.769   5.669   3.091 -0.2293  0.3510 -0.3545
  142OSM    H2F15510   2.661   5.646   3.087  0.1806 -1.6797 -0.9727
  142OSM    H2G15511   2.792   5.778   3.092  0.4074  0.2277  0.9952
  142OSM    C3F15512   2.822   5.633   3.232  1.1885  0.2161 -0.6865
  142OSM    H3F15513   2.933   5.640   3.236  1.3919 -2.3902  0.7260
  142OSM    H3G15514   2.800   5.528   3.259 -1.8028  0.9200 -0.0459
  142OSM    C4F15515   2.769   5.717   3.352 -0.3838 -0.6009  0.6183
  142OSM    H4F15516   2.659   5.729   3.361 -0.2998  1.1620 -0.3810
  142OSM    H4G15517   2.793   5.824   3.338  1.0517 -0.7391  1.7077
  142OSM    C5F15518   2.843   5.687   3.487 -0.0307  0.3362  0.2008
  142OSM    H5F15519   2.953   5.697   3.471  0.5128 -2.3772  1.5635
  142OSM    H5G15520   2.818   5.582   3.513 -3.5642  1.6466  2.8334
  142OSM    C6F15521   2.784   5.754   3.609 -0.2461  0.1295 -0.0243
  142OSM    H6F15522   2.678   5.719   3.616 -0.2806  0.0103 -0.9470
  142OSM    H6G15523   2.768   5.864   3.608 -0.4154  0.1025 -0.7156
  142OSM    C7F15524   2.850   5.728   3.749  0.4246 -0.1364  0.0644
  142OSM    H7F15525   2.960   5.731   3.731  0.6400  2.9229  1.2833
  142OSM    H7G15526   2.819   5.626   3.779 -1.7069  0.5603  0.4077
  142OSM    C8F15527   2.820   5.827   3.857  0.3489  0.0630 -0.1965
  142OSM    H8F15528   2.713   5.853   3.864  0.5403  0.7323  0.3783
  142OSM    H8G15529   2.865   5.927   3.836 -1.4311  1.3513  1.7813
  142OSM    C9F15530   2.881   5.778   3.995  0.4604 -0.2000  0.1126
  142OSM    H9F15531   2.965   5.707   3.987  0.5503 -0.2779  1.4532
  142OSM   C10F15532   2.855   5.839   4.113 -0.1130  0.0378 -0.6717
  142OSM   H10F15533   2.915   5.807   4.199  1.6414  0.6471 -1.6314
  142OSM   C11F15534   2.751   5.952   4.138 -0.5614  0.0183 -0.7529
  142OSM   H11F15535   2.657   5.907   4.098  1.3500 -3.5072 -1.7796
  142OSM   H11G15536   2.774   6.047   4.086 -1.1081  0.1254 -0.8016
  142OSM   C12F15537   2.731   5.977   4.289  0.0473 -0.3751  0.2567
  142OSM   H12F15538   2.699   5.880   4.333  3.2982 -1.1568  1.1600
  142OSM   H12G15539   2.643   6.041   4.311  1.3980  0.7778  2.6015
  142OSM   C13F15540   2.852   6.031   4.373  0.6018 -0.1261 -0.4680
  142OSM   H13F15541   2.874   6.133   4.334 -2.3614  0.6163 -0.4149
  142OSM   H13G15542   2.939   5.964   4.355  0.9749  0.6774 -1.8587
  142OSM   C14F15543   2.830   6.029   4.528  0.2732  0.6503  0.3130
  142OSM   H14F15544   2.927   6.023   4.581  0.2354  2.1316  0.5844
  142OSM   H14G15545   2.771   5.940   4.558 -0.3603  1.3914  1.3510
  142OSM   C15F15546   2.755   6.143   4.589  0.5785 -0.4538 -0.6301
  142OSM   H15F15547   2.648   6.147   4.558  0.3554  1.5596  0.2358
  142OSM   H15G15548   2.800   6.239   4.556 -0.3033  0.5247  0.8970
  142OSM   C16F15549   2.757   6.146   4.746  0.4052 -0.1499  0.7622
  142OSM   H16F15550   2.740   6.253   4.773 -0.1042 -0.0221 -0.0490
  142OSM   H16G15551   2.859   6.112   4.774  0.8720 -1.4558 -2.2029
  142OSM   C17F15552   2.654   6.056   4.810 -0.1930  0.6218 -0.5618
  142OSM   H17F15553   2.666   5.949   4.780  0.8119  0.6780 -0.3947
  142OSM   H17G15554   2.551   6.092   4.789  0.0472  1.3228 -0.5682
  142OSM   C18F15555   2.680   6.055   4.961 -0.5742  0.1190  0.4568
  142OSM   H18F15556   2.589   6.012   5.008  1.2016 -1.6828  2.4379
  142OSM   H18G15557   2.703   6.159   4.992 -0.7420 -0.3148  2.1095
  142OSM   H18H15558   2.774   6.006   4.993 -0.1474 -0.2826 -1.2642
  143OSM      N15559   2.595   3.964   2.069  0.4168  0.2351 -0.2500
  143OSM    C1515560   2.704   3.877   2.030  0.6724 -0.6642 -0.0894
  143OSM   H15A15561   2.690   3.810   1.946  1.2910 -0.1960 -0.5777
  143OSM   H15B15562   2.726   3.805   2.107  1.2195 -0.5717 -0.1588
  143OSM   H15C15563   2.792   3.934   2.005  1.7580 -2.1167  0.2873
  143OSM    C1415564   2.552   4.068   1.975 -0.4349 -0.3382 -0.2268
  143OSM   H14A15565   2.482   4.139   2.017 -2.2984 -1.8232 -0.6689
  143OSM   H14B15566   2.508   4.016   1.891  0.4761 -1.3441 -0.0991
  143OSM   H14C15567   2.640   4.128   1.956  0.9585 -2.8147 -2.3389
  143OSM    C1315568   2.468   3.880   2.105 -0.3026 -0.0011  0.2173
  143OSM   H13A15569   2.436   3.826   2.018  0.3015 -3.2294  1.8604
  143OSM   H13B15570   2.388   3.950   2.124 -2.4894 -2.7651  1.9100
  143OSM   H13C15571   2.499   3.816   2.186 -0.6058  0.3969  0.6532
  143OSM    C1215572   2.635   4.031   2.194 -0.3635 -0.3826  0.2190
  143OSM   H12A15573   2.549   4.092   2.218 -1.4573 -1.3373 -1.1424
  143OSM   H12B15574   2.718   4.100   2.189 -1.7866  1.3493 -1.7332
  143OSM    C1115575   2.654   3.950   2.325 -0.4056  0.1199 -0.5082
  143OSM   H11A15576   2.565   3.891   2.357  1.4390 -2.0110  0.9447
  143OSM   H11B15577   2.667   4.020   2.410 -1.1692 -1.6721  1.1479
  143OSM      P15578   2.906   3.899   2.355 -0.2051 -0.6303  0.0091
  143OSM    O1315579   2.991   3.783   2.332 -0.8079  0.3535 -0.4427
  143OSM    O1415580   2.945   4.033   2.300  0.0522  0.1820  0.2494
  143OSM    O1115581   2.883   3.918   2.509 -0.8520  0.4675 -0.5027
  143OSM    O1215582   2.764   3.851   2.306 -0.2304 -0.0619 -1.3790
  143OSM    C1S15583   2.800   3.831   2.583 -0.3587 -0.5184  1.0947
  143OSM    H1S15584   2.825   3.724   2.569 -0.4278 -0.7700  2.6805
  143OSM    H1T15585   2.695   3.851   2.553  0.3810  1.5329 -0.3680
  143OSM     NF15586   2.734   3.757   2.800  0.3708  0.1616  0.3563
  143OSM    HNF15587   2.636   3.773   2.813  0.0944 -2.1961  1.8736
  143OSM    C2S15588   2.812   3.863   2.732 -0.5760  0.4725  0.4029
  143OSM    H2S15589   2.915   3.866   2.772 -0.3621  0.8149 -0.1587
  143OSM    C3S15590   2.756   4.014   2.760 -0.1437  0.5155 -0.5917
  143OSM    H3S15591   2.647   4.004   2.739 -0.6120  2.5671  0.5548
  143OSM     O315592   2.801   4.108   2.668 -0.1515 -0.2905  0.0826
  143OSM    HO315593   2.830   4.053   2.595  0.3681  1.5052 -1.1396
  143OSM    C4S15594   2.764   4.042   2.910 -0.0554  0.2450 -0.1952
  143OSM    H4S15595   2.666   4.025   2.959  0.5080  4.3677  2.9435
  143OSM    C5S15596   2.867   4.084   2.975 -0.0715  0.0417 -0.1942
  143OSM    H5S15597   2.959   4.107   2.918 -0.7358  0.8971 -0.9579
  143OSM    C6S15598   2.883   4.112   3.121  0.3805 -0.4830  0.5267
  143OSM    H6S15599   2.905   4.220   3.133 -1.8848  0.2386 -1.0756
  143OSM    H6T15600   2.973   4.054   3.148  1.7049  0.4970 -1.5591
  143OSM    C7S15601   2.766   4.066   3.210  0.5909  0.0266 -0.1498
  143OSM    H7S15602   2.759   3.955   3.202 -0.4328  0.1167 -0.7210
  143OSM    H7T15603   2.670   4.098   3.164 -0.4975 -3.7213 -0.8737
  143OSM    C8S15604   2.779   4.092   3.362 -0.1927  0.8265 -0.2041
  143OSM    H8S15605   2.775   4.203   3.370  0.0638  0.9449 -1.4558
  143OSM    H8T15606   2.881   4.055   3.389 -1.5033 -0.7885  3.0604
  143OSM    C9S15607   2.666   4.037   3.443  0.3087 -0.0954 -0.0786
  143OSM    H9S15608   2.670   3.926   3.439  0.2757 -0.1276  0.7677
  143OSM    H9T15609   2.570   4.077   3.403  0.6925  1.0750  0.1308
  143OSM   C10S15610   2.666   4.072   3.592 -0.1234  0.0952  0.2182
  143OSM   H10S15611   2.674   4.181   3.614 -3.4489  0.1450  1.6991
  143OSM   H10T15612   2.753   4.024   3.640 -2.3376 -2.7133  1.7158
  143OSM   C11S15613   2.535   4.010   3.653 -0.4779  0.2094  0.5506
  143OSM   H11S15614   2.514   3.917   3.595 -2.3427  0.6885  0.3759
  143OSM   H11T15615   2.454   4.083   3.631  1.5028  1.6452 -2.5373
  143OSM   C12S15616   2.560   3.995   3.810  0.4886  0.7845  0.4668
  143OSM   H12S15617   2.597   4.095   3.841 -1.4808  2.1327 -1.1994
  143OSM   H12T15618   2.641   3.920   3.823  0.0887  0.3755  0.6098
  143OSM   C13S15619   2.430   3.951   3.884 -0.1014  0.1105  0.7470
  143OSM   H13S15620   2.367   3.867   3.849 -0.5502 -0.2674  2.3835
  143OSM   H13T15621   2.366   4.041   3.889  1.2196  1.2168 -1.0083
  143OSM   C14S15622   2.459   3.925   4.038 -0.6480  0.2748 -0.0422
  143OSM   H14S15623   2.360   3.913   4.087 -1.1411  0.2909 -1.0128
  143OSM   H14T15624   2.511   4.010   4.087 -1.2208  0.4709  0.2380
  143OSM   C15S15625   2.543   3.805   4.064 -0.6307  0.5465 -0.1757
  143OSM   H15S15626   2.618   3.775   3.987  0.3822  2.6506 -0.0596
  143OSM   H15T15627   2.476   3.717   4.075 -1.1354  1.1663  2.2360
  143OSM   C16S15628   2.619   3.805   4.200  0.0585 -0.1615 -0.7053
  143OSM   H16S15629   2.643   3.699   4.223 -2.1353 -0.3000  1.3878
  143OSM   H16T15630   2.551   3.846   4.279  1.1163 -0.9548  0.6589
  143OSM   C17S15631   2.752   3.883   4.195  0.5720  0.3962  0.7135
  143OSM   H17S15632   2.738   3.993   4.189 -1.5011  0.1115 -0.7323
  143OSM   H17T15633   2.804   3.855   4.100  0.4973  2.1250  0.1316
  143OSM   C18S15634   2.857   3.852   4.300  0.0789  0.3144  0.5737
  143OSM   H18S15635   2.948   3.908   4.270  1.2203 -1.8099 -0.1970
  143OSM   H18T15636   2.881   3.743   4.302 -0.2860  0.1859 -0.8728
  143OSM   H18U15637   2.821   3.893   4.396  1.0078  0.5090  0.8520
  143OSM    C1F15638   2.776   3.632   2.817 -0.3260 -0.0326 -0.0577
  143OSM     OF15639   2.894   3.608   2.790  0.2373  0.2296 -0.8323
  143OSM    C2F15640   2.675   3.525   2.857  0.2125 -0.6569  0.5517
  143OSM    H2F15641   2.680   3.433   2.795 -1.5619 -1.4018  1.4235
  143OSM    H2G15642   2.575   3.572   2.845  0.6967  0.0594 -0.9697
  143OSM    C3F15643   2.696   3.500   3.003 -0.2983 -0.0179 -0.3032
  143OSM    H3F15644   2.799   3.465   3.024 -0.8439 -2.4510 -1.2900
  143OSM    H3G15645   2.628   3.418   3.036 -0.0435 -0.5595 -1.0667
  143OSM    C4F15646   2.671   3.623   3.091 -0.3646  0.4669  0.0627
  143OSM    H4F15647   2.593   3.695   3.057  0.8747  2.6873  1.6558
  143OSM    H4G15648   2.760   3.690   3.092  1.4833 -1.8593 -0.3759
  143OSM    C5F15649   2.645   3.587   3.238  0.8694 -0.0553  0.4646
  143OSM    H5F15650   2.664   3.679   3.297 -1.7592  0.5738  0.4461
  143OSM    H5G15651   2.716   3.510   3.273  0.8299 -0.1561  0.3235
  143OSM    C6F15652   2.506   3.520   3.272  0.3066 -0.2686 -0.2340
  143OSM    H6F15653   2.496   3.415   3.237 -1.1071 -1.1662  2.5614
  143OSM    H6G15654   2.430   3.582   3.220 -0.2416 -0.2391  0.5781
  143OSM    C7F15655   2.460   3.511   3.421  0.0656 -0.2621  0.0452
  143OSM    H7F15656   2.513   3.421   3.461  0.8241 -0.6051 -1.6302
  143OSM    H7G15657   2.351   3.489   3.414 -0.0234  0.1595  0.1021
  143OSM    C8F15658   2.497   3.636   3.506 -0.4218  0.2733  0.6332
  143OSM    H8F15659   2.467   3.729   3.454 -1.6567 -0.2146  0.4443
  143OSM    H8G15660   2.607   3.635   3.526 -0.8203  0.7572  3.2205
  143OSM    C9F15661   2.416   3.638   3.640  0.7064 -0.0315  0.0933
  143OSM    H9F15662   2.335   3.712   3.638  0.7296  0.0132 -2.0806
  143OSM   C10F15663   2.441   3.576   3.749  0.2196  0.1197  0.3353
  143OSM   H10F15664   2.398   3.612   3.844 -0.4515  0.4485 -0.0854
  143OSM   C11F15665   2.535   3.459   3.773 -0.7849 -0.0244 -0.4792
  143OSM   H11F15666   2.639   3.499   3.771  0.2135 -2.2223  1.8173
  143OSM   H11G15667   2.526   3.383   3.692 -0.7117 -2.6758  1.8246
  143OSM   C12F15668   2.496   3.385   3.904 -0.1487 -0.3216  0.6768
  143OSM   H12F15669   2.404   3.326   3.884 -0.3136  0.0565  0.3058
  143OSM   H12G15670   2.469   3.460   3.981 -0.4675  0.3044 -0.0328
  143OSM   C13F15671   2.616   3.300   3.951 -0.7560 -0.2794 -0.2428
  143OSM   H13F15672   2.701   3.370   3.960  0.1654 -1.1568 -1.6625
  143OSM   H13G15673   2.653   3.227   3.876  1.1649  0.5506 -0.1629
  143OSM   C14F15674   2.607   3.227   4.090 -0.0814  0.0468  0.2822
  143OSM   H14F15675   2.583   3.294   4.175 -1.1052 -0.5242  0.4675
  143OSM   H14G15676   2.702   3.172   4.106 -0.4182 -0.1959  1.5610
  143OSM   C15F15677   2.499   3.116   4.089  0.1474 -0.4308  0.2762
  143OSM   H15F15678   2.519   3.055   3.998  1.4116 -0.3523  0.4901
  143OSM   H15G15679   2.401   3.168   4.087  0.4663  0.3490  2.4278
  143OSM   C16F15680   2.501   3.024   4.211  0.5795  0.0923 -0.1945
  143OSM   H16F15681   2.445   2.930   4.193 -0.6564  0.9227 -0.8258
  143OSM   H16G15682   2.433   3.073   4.285  0.2789 -1.5325  0.6601
  143OSM   C17F15683   2.634   2.991   4.276  0.7865 -0.2682 -0.6424
  143OSM   H17F15684   2.674   3.090   4.306  0.2922 -0.1813 -0.2653
  143OSM   H17G15685   2.703   2.948   4.200  2.9062  1.7257  0.0416
  143OSM   C18F15686   2.619   2.903   4.400 -0.0271  0.3621  0.4153
  143OSM   H18F15687   2.716   2.896   4.453  0.9639 -0.3384 -1.4065
  143OSM   H18G15688   2.578   2.806   4.364  4.0192 -0.6016 -2.2054
  143OSM   H18H15689   2.543   2.947   4.468  0.1790  0.5126  0.5505
  144OSM      N15690   1.564   2.342   2.410  0.0266 -0.3682 -0.2869
  144OSM    C1515691   1.701   2.296   2.458  0.3392 -0.1736 -0.1121
  144OSM   H15A15692   1.769   2.349   2.393 -0.2837 -0.2497 -0.8460
  144OSM   H15B15693   1.718   2.189   2.456  0.1443 -0.2429 -3.1127
  144OSM   H15C15694   1.710   2.334   2.558  1.5279  1.2769 -0.7396
  144OSM    C1415695   1.519   2.263   2.286 -0.1663  0.2938  0.3276
  144OSM   H14A15696   1.575   2.284   2.197 -0.1364 -3.4518 -0.7302
  144OSM   H14B15697   1.413   2.276   2.269 -0.7862 -5.0892 -1.9296
  144OSM   H14C15698   1.526   2.157   2.306 -0.0474  0.0022 -1.1549
  144OSM    C1315699   1.468   2.302   2.511 -0.5773  0.0214 -0.6589
  144OSM   H13A15700   1.498   2.202   2.539 -0.7409  0.1496 -0.0217
  144OSM   H13B15701   1.368   2.304   2.472 -0.4713 -0.9392 -1.0219
  144OSM   H13C15702   1.475   2.361   2.601 -0.4085  0.9098 -1.2445
  144OSM    C1215703   1.560   2.493   2.375 -0.2536 -0.4593 -0.2318
  144OSM   H12A15704   1.570   2.547   2.468 -0.0876  1.5965 -1.3771
  144OSM   H12B15705   1.466   2.524   2.332  0.4636  0.1645 -1.3972
  144OSM    C1115706   1.675   2.535   2.274  0.3020  0.8333 -0.1802
  144OSM   H11A15707   1.640   2.627   2.223  1.0335 -0.3566 -2.9926
  144OSM   H11B15708   1.681   2.459   2.194  2.6236 -2.1699  2.5776
  144OSM      P15709   1.844   2.683   2.376  0.1028  0.1864  0.4160
  144OSM    O1315710   1.947   2.724   2.278  0.3078  0.2182  0.2020
  144OSM    O1415711   1.726   2.773   2.385  0.3860 -0.2768 -0.1344
  144OSM    O1115712   1.898   2.661   2.526 -0.6534 -0.3859  0.1035
  144OSM    O1215713   1.802   2.542   2.328  0.3208  0.2382 -0.0130
  144OSM    C1S15714   2.004   2.574   2.554 -0.1506  1.1088 -0.4855
  144OSM    H1S15715   2.103   2.621   2.536 -0.2119  1.3249 -0.2554
  144OSM    H1T15716   1.995   2.480   2.495 -0.6720  1.7625 -1.4890
  144OSM     NF15717   2.120   2.498   2.744 -0.0161 -0.3696  0.3484
  144OSM    HNF15718   2.112   2.406   2.782  0.7385  0.5101  2.8494
  144OSM    C2S15719   1.991   2.550   2.698  0.0349 -0.4167  0.2323
  144OSM    H2S15720   1.991   2.652   2.740  0.0104  0.1210 -1.0196
  144OSM    C3S15721   1.856   2.484   2.739  0.1906  0.4849 -0.1908
  144OSM    H3S15722   1.855   2.379   2.704 -0.6266 -1.0074  3.7533
  144OSM     O315723   1.735   2.548   2.695 -0.1243  0.0780 -0.0500
  144OSM    HO315724   1.764   2.608   2.626 -0.3627 -0.9868 -1.1203
  144OSM    C4S15725   1.835   2.472   2.890  1.0516  0.3393 -0.8810
  144OSM    H4S15726   1.858   2.565   2.944 -0.1684  0.5617 -0.7116
  144OSM    C5S15727   1.794   2.369   2.965  0.1049  0.7492 -0.5809
  144OSM    H5S15728   1.745   2.285   2.914  2.0746 -0.5851 -0.3917
  144OSM    C6S15729   1.780   2.388   3.114 -0.5814  0.0166  0.5126
  144OSM    H6S15730   1.671   2.393   3.134 -0.5764  1.3074  0.2817
  144OSM    H6T15731   1.820   2.485   3.147 -0.3480  0.5102 -1.1104
  144OSM    C7S15732   1.845   2.264   3.179  0.2524 -0.3498 -0.1646
  144OSM    H7S15733   1.955   2.261   3.164  0.1857 -1.4181 -0.5166
  144OSM    H7T15734   1.819   2.171   3.125  2.1405 -0.0631 -1.6960
  144OSM    C8S15735   1.798   2.254   3.322 -0.1658  0.1798  0.1097
  144OSM    H8S15736   1.833   2.157   3.364  2.2806  0.9292 -0.0187
  144OSM    H8T15737   1.688   2.246   3.330 -0.3559  3.2714  2.0581
  144OSM    C9S15738   1.859   2.355   3.416 -0.3008 -0.4919 -0.0907
  144OSM    H9S15739   1.777   2.423   3.447 -1.2642 -0.2583 -2.8579
  144OSM    H9T15740   1.930   2.420   3.361  0.2156  0.1031  1.2284
  144OSM   C10S15741   1.920   2.299   3.547  0.6507 -0.4043 -0.1927
  144OSM   H10S15742   1.957   2.382   3.612  1.3247 -1.5154  0.8729
  144OSM   H10T15743   2.010   2.241   3.517 -0.4449 -1.6026 -1.2585
  144OSM   C11S15744   1.827   2.208   3.634  0.1719 -0.0422 -0.1790
  144OSM   H11S15745   1.787   2.120   3.578 -1.4556 -0.7780  2.0128
  144OSM   H11T15746   1.736   2.261   3.670  0.7479  1.3695 -0.7244
  144OSM   C12S15747   1.912   2.156   3.750  0.4275 -0.5955  0.0259
  144OSM   H12S15748   1.954   2.246   3.800 -1.7470  0.2972  0.3548
  144OSM   H12T15749   2.001   2.094   3.725  0.1709 -1.6655  1.6019
  144OSM   C13S15750   1.831   2.074   3.859  1.1330 -0.6855  0.5883
  144OSM   H13S15751   1.796   1.979   3.814 -4.6670  0.2091  2.4389
  144OSM   H13T15752   1.742   2.136   3.882  1.5227 -0.0384  0.3867
  144OSM   C14S15753   1.902   2.043   3.989 -0.1330  0.3904  0.1579
  144OSM   H14S15754   1.932   2.139   4.035 -2.0469  0.2919  1.7175
  144OSM   H14T15755   1.992   1.984   3.960  0.3428  0.4818  1.4100
  144OSM   C15S15756   1.812   1.972   4.091  0.5537  0.4355 -0.0596
  144OSM   H15S15757   1.878   1.916   4.161  0.7184 -0.6502 -1.0535
  144OSM   H15T15758   1.737   1.912   4.036  1.1272  0.0047 -0.3854
  144OSM   C16S15759   1.737   2.074   4.176  0.0980  0.2175 -0.2013
  144OSM   H16S15760   1.680   2.128   4.097  0.3001 -2.2187 -2.1493
  144OSM   H16T15761   1.809   2.138   4.231  3.0660 -1.9025 -1.3828
  144OSM   C17S15762   1.647   2.002   4.274  0.8872  0.0078  0.7461
  144OSM   H17S15763   1.714   1.942   4.338  0.2840 -0.9230  0.5431
  144OSM   H17T15764   1.577   1.935   4.218  1.0640  0.4269  0.0052
  144OSM   C18S15765   1.555   2.102   4.346  0.7816 -0.1152 -0.7668
  144OSM   H18S15766   1.602   2.136   4.440 -0.3033 -0.5507 -0.0396
  144OSM   H18T15767   1.459   2.051   4.371  0.4525  1.3624  1.1402
  144OSM   H18U15768   1.535   2.193   4.286  1.8451  1.3254  0.9771
  144OSM    C1F15769   2.236   2.570   2.738  0.1865 -0.0743 -0.8082
  144OSM     OF15770   2.235   2.693   2.727 -0.6998  0.3841 -0.0221
  144OSM    C2F15771   2.360   2.496   2.767 -0.8051 -0.6910 -0.0911
  144OSM    H2F15772   2.377   2.421   2.687  0.3647 -2.7387  1.9444
  144OSM    H2G15773   2.341   2.442   2.863 -1.8514 -1.1490 -0.5375
  144OSM    C3F15774   2.484   2.592   2.775  0.1854 -0.3230  0.3418
  144OSM    H3F15775   2.456   2.677   2.840 -1.9000 -0.5851 -0.1285
  144OSM    H3G15776   2.526   2.625   2.677 -1.4707  2.0345  0.3374
  144OSM    C4F15777   2.622   2.541   2.824  0.3650  0.2899 -0.0246
  144OSM    H4F15778   2.689   2.630   2.826  1.3597 -0.4398 -0.1736
  144OSM    H4G15779   2.656   2.461   2.754  1.0840  0.3314  0.2687
  144OSM    C5F15780   2.609   2.495   2.972 -0.1556 -0.6421 -0.1629
  144OSM    H5F15781   2.608   2.384   2.975  1.3617 -0.7758 -2.3990
  144OSM    H5G15782   2.518   2.535   3.023  0.9183 -0.6390  1.8556
  144OSM    C6F15783   2.721   2.553   3.059 -0.5864 -0.3123  0.4629
  144OSM    H6F15784   2.718   2.664   3.051  0.2490 -0.1856  1.7752
  144OSM    H6G15785   2.818   2.513   3.023  0.5370  1.7974  0.9836
  144OSM    C7F15786   2.696   2.513   3.206 -0.2607 -0.1829  0.2776
  144OSM    H7F15787   2.701   2.403   3.218 -0.6372 -0.1725  0.5480
  144OSM    H7G15788   2.589   2.531   3.229 -1.0543 -2.5736 -1.1752
  144OSM    C8F15789   2.791   2.570   3.310  0.3031  0.3788  0.2955
  144OSM    H8F15790   2.890   2.547   3.264 -0.8698  1.7040 -3.1706
  144OSM    H8G15791   2.768   2.513   3.402  0.3695 -0.7069 -0.3451
  144OSM    C9F15792   2.775   2.723   3.325  0.0637  0.1625  1.1459
  144OSM    H9F15793   2.806   2.788   3.241  0.9391 -1.5502  0.0807
  144OSM   C10F15794   2.725   2.788   3.424 -0.6759 -0.2297  0.3812
  144OSM   H10F15795   2.727   2.898   3.429  2.8350 -0.2259  1.8964
  144OSM   C11F15796   2.659   2.727   3.544  0.1026 -0.2138 -0.0296
  144OSM   H11F15797   2.635   2.621   3.521 -3.6800  0.5442 -0.2197
  144OSM   H11G15798   2.556   2.766   3.553 -0.5648 -1.7886 -0.5842
  144OSM   C12F15799   2.739   2.729   3.683  0.4152  0.0149  0.1034
  144OSM   H12F15800   2.777   2.830   3.707  0.0567 -0.1060  1.2168
  144OSM   H12G15801   2.833   2.672   3.664  1.9447  2.5071 -0.2585
  144OSM   C13F15802   2.654   2.669   3.795 -0.2427 -0.3419 -0.2601
  144OSM   H13F15803   2.609   2.572   3.765  3.2357 -1.5066 -2.3321
  144OSM   H13G15804   2.568   2.740   3.799 -1.0801 -1.0577 -3.1764
  144OSM   C14F15805   2.743   2.639   3.924  0.3088  0.3697  0.1074
  144OSM   H14F15806   2.767   2.738   3.968 -2.2799  1.6539 -1.1368
  144OSM   H14G15807   2.834   2.581   3.897  0.0417 -0.8653  1.6832
  144OSM   C15F15808   2.648   2.552   4.010  0.5849 -0.2458  0.0900
  144OSM   H15F15809   2.709   2.502   4.088  0.1682 -2.6840 -1.0473
  144OSM   H15G15810   2.622   2.470   3.940  3.1555 -1.0254 -0.0735
  144OSM   C16F15811   2.538   2.635   4.070  0.2742  0.3366  0.0461
  144OSM   H16F15812   2.477   2.676   3.987 -2.4323 -2.6452  0.3300
  144OSM   H16G15813   2.581   2.714   4.135  0.0313 -0.0577  0.6942
  144OSM   C17F15814   2.437   2.564   4.156 -0.0714 -0.6096 -0.1328
  144OSM   H17F15815   2.486   2.501   4.233 -0.7343  1.4720  2.1233
  144OSM   H17G15816   2.376   2.496   4.092  1.5903 -1.0731 -1.2909
  144OSM   C18F15817   2.347   2.661   4.233 -0.5987 -0.0447  0.1209
  144OSM   H18F15818   2.257   2.611   4.277  0.1065  0.5399  2.3879
  144OSM   H18G15819   2.327   2.746   4.165 -0.2382 -0.3877 -0.4121
  144OSM   H18H15820   2.386   2.704   4.328 -1.2839 -1.6036  1.1739
  145SAPE     N15821   2.173   6.244   7.264 -0.2414  0.2238  0.1752
  145SAPE   HN115822   2.165   6.259   7.367  0.0324 -0.0528  0.2376
  145SAPE   HN215823   2.184   6.338   7.222  0.7245 -0.8911 -2.2376
  145SAPE   HN315824   2.081   6.213   7.226  0.3993  0.8646 -2.0207
  145SAPE   C1215825   2.281   6.159   7.223  0.1245 -0.0239 -0.3939
  145SAPE  H12A15826   2.280   6.064   7.280 -1.1029 -0.9578 -1.8873
  145SAPE  H12B15827   2.374   6.219   7.230  0.0047  0.1034  0.2117
  145SAPE   C1115828   2.265   6.122   7.078 -0.0474 -0.0926 -0.2801
  145SAPE  H11A15829   2.170   6.068   7.058 -0.1972 -0.1710  0.6253
  145SAPE  H11B15830   2.341   6.042   7.063 -0.1592 -0.7068  2.0937
  145SAPE     P15831   2.413   6.249   6.904 -0.0324  0.3634 -0.0107
  145SAPE   O1315832   2.532   6.257   6.990 -0.0647  0.0244  0.2673
  145SAPE   O1415833   2.415   6.136   6.813 -0.3559 -0.2734  0.5407
  145SAPE   O1215834   2.280   6.237   6.993  0.2775  0.0959  0.1270
  145SAPE   O1115835   2.399   6.384   6.828  0.2113  0.3691 -0.1206
  145SAPE    C115836   2.273   6.448   6.804 -0.5482  0.3861  0.0755
  145SAPE    HA15837   2.186   6.393   6.846 -1.5403  0.8569 -1.2937
  145SAPE    HB15838   2.271   6.551   6.847 -2.8048  0.3998  0.0972
  145SAPE    C215839   2.246   6.463   6.651  0.3585 -0.2007 -0.8700
  145SAPE    HS15840   2.235   6.359   6.614 -0.2751 -0.6897  0.5812
  145SAPE   O2115841   2.353   6.542   6.592 -0.4095  0.0846  0.4118
  145SAPE   C2115842   2.373   6.512   6.466 -0.6917 -0.2516  0.0312
  145SAPE   O2215843   2.312   6.429   6.402 -0.3239 -0.8788 -0.2183
  145SAPE   C2215844   2.489   6.597   6.411 -0.1787  0.1800 -0.7097
  145SAPE   H2R15845   2.452   6.694   6.372 -1.6249 -0.8061 -1.9116
  145SAPE   H2S15846   2.556   6.615   6.498 -0.0699  1.6324 -1.0834
  145SAPE    C315847   2.114   6.547   6.638 -0.7506 -0.3424  0.5316
  145SAPE    HX15848   2.135   6.645   6.686 -2.6360  0.9102 -1.0416
  145SAPE    HY15849   2.037   6.500   6.702 -0.7397 -0.0694  0.7438
  145SAPE   O3115850   2.079   6.568   6.502  0.3497 -0.1867  0.0895
  145SAPE   C3115851   2.003   6.477   6.449  0.3532  0.0219  0.9244
  145SAPE   O3215852   1.966   6.372   6.506 -0.3339 -1.1372  0.0652
  145SAPE   C3215853   1.958   6.506   6.302 -0.0664  0.1020  0.0921
  145SAPE   H2X15854   1.994   6.606   6.269 -2.9206  2.3109  3.0053
  145SAPE   H2Y15855   1.846   6.508   6.300 -0.0563  0.9799 -0.2566
  145SAPE   C2315856   2.560   6.534   6.286  0.6006 -0.3629  0.1789
  145SAPE   H3R15857   2.501   6.519   6.193  3.1383 -2.0815 -1.2618
  145SAPE   H3S15858   2.585   6.428   6.309 -2.5446 -1.3041 -0.1881
  145SAPE   C2415859   2.693   6.616   6.254  1.0120  0.0860 -0.1072
  145SAPE   H4R15860   2.736   6.555   6.172  0.9890  0.9328 -0.7607
  145SAPE   H4S15861   2.760   6.623   6.343  0.3238 -1.0106  0.5222
  145SAPE   C2515862   2.675   6.760   6.196  0.6808 -0.0573 -0.8522
  145SAPE   H5R15863   2.659   6.831   6.279  2.3347 -2.0405  1.2867
  145SAPE   C2615864   2.677   6.808   6.068 -0.0605 -0.0304  0.0231
  145SAPE   H6R15865   2.673   6.915   6.043  1.8492  0.0845  0.0500
  145SAPE   C2715866   2.689   6.723   5.942  0.4964  0.9573  0.0377
  145SAPE   H7R15867   2.744   6.629   5.963  1.0866  1.2803 -0.0436
  145SAPE   H7S15868   2.749   6.784   5.871 -0.6302  1.4698 -0.5138
  145SAPE   C2815869   2.549   6.692   5.893  1.0131 -0.2866  0.5542
  145SAPE   H8R15870   2.478   6.665   5.972  1.1088  0.7742  1.0266
  145SAPE   C2915871   2.506   6.695   5.763 -0.4377  0.0055 -0.9512
  145SAPE   H9R15872   2.397   6.691   5.748 -0.6273 -0.7811  0.4826
  145SAPE  C21015873   2.579   6.732   5.640 -1.3264 -0.1774  0.4597
  145SAPE  H10R15874   2.635   6.640   5.611 -2.2615  0.2199 -3.1050
  145SAPE  H10S15875   2.646   6.818   5.660 -0.6245 -0.9310  1.4915
  145SAPE  C21115876   2.491   6.760   5.516 -0.4204  0.1819 -1.0974
  145SAPE  H11R15877   2.464   6.865   5.498  0.3361  0.3628 -1.2050
  145SAPE  C21215878   2.465   6.670   5.422  0.7167 -0.3560  0.0464
  145SAPE  H12R15879   2.396   6.704   5.343  1.5441 -0.0498 -0.5610
  145SAPE  C21315880   2.519   6.530   5.417  0.5663 -0.0577  0.0835
  145SAPE  H13R15881   2.507   6.476   5.513 -0.5676  0.9594  0.5294
  145SAPE  H13S15882   2.630   6.532   5.408  0.6356  1.0463  0.9118
  145SAPE  C21415883   2.451   6.448   5.310 -0.5479  0.2289  0.5915
  145SAPE  H14R15884   2.351   6.410   5.334 -0.0603 -0.4890  1.5687
  145SAPE  C21515885   2.498   6.429   5.189  0.4039 -0.3463 -0.0122
  145SAPE  H15R15886   2.441   6.368   5.118  1.3521 -1.2840 -0.0018
  145SAPE  C21615887   2.629   6.489   5.136 -0.3585 -0.1177 -0.2839
  145SAPE  H16R15888   2.628   6.593   5.175  0.2648 -0.5670  0.9767
  145SAPE  H16S15889   2.619   6.488   5.026 -0.8978 -0.9413 -0.2386
  145SAPE  C21715890   2.761   6.427   5.179 -0.6583 -0.0490 -0.0589
  145SAPE  H17R15891   2.742   6.318   5.168  0.0342 -0.0216 -1.7557
  145SAPE  H17S15892   2.774   6.449   5.287 -0.3689  1.1766 -0.3325
  145SAPE  C21815893   2.875   6.480   5.088 -1.0424  0.4330 -0.2502
  145SAPE  H18R15894   2.892   6.589   5.101  2.5463 -0.0285 -0.1624
  145SAPE  H18S15895   2.858   6.472   4.978 -0.2707  2.4617 -0.5726
  145SAPE  C21915896   3.016   6.424   5.129  0.3169  0.1535 -0.4353
  145SAPE  H19R15897   3.017   6.313   5.123  0.3159  0.0224  1.5149
  145SAPE  H19S15898   3.031   6.452   5.235 -1.9045 -1.2739  0.3239
  145SAPE  C22015899   3.135   6.472   5.048 -0.2222  0.7098  0.1972
  145SAPE  H20R15900   3.121   6.433   4.946  1.1659 -1.3722  0.7526
  145SAPE  H20S15901   3.234   6.433   5.081 -0.4473 -0.3965 -0.4237
  145SAPE  H20T15902   3.146   6.583   5.048  0.2859  0.6905  1.7594
  145SAPE   C3315903   2.001   6.399   6.194  0.3369  0.3726 -0.6049
  145SAPE   H3X15904   1.967   6.298   6.226  0.7354  0.5563  0.4516
  145SAPE   H3Y15905   2.111   6.408   6.195  0.5516 -1.7043  0.7898
  145SAPE   C3415906   1.952   6.425   6.049 -0.4703  0.7277 -0.0851
  145SAPE   H4X15907   1.999   6.518   6.010  1.9340 -0.6429 -0.7026
  145SAPE   H4Y15908   1.843   6.441   6.062 -0.3404  1.7364 -0.1354
  145SAPE   C3515909   1.978   6.302   5.954  0.1771  0.7257 -0.1534
  145SAPE   H5X15910   1.942   6.213   6.010 -0.2569 -1.0542 -3.0092
  145SAPE   H5Y15911   2.086   6.285   5.938 -0.3628  0.2642 -4.9598
  145SAPE   C3615912   1.902   6.303   5.823 -0.3004 -0.7038 -0.2639
  145SAPE   H6X15913   1.794   6.313   5.846 -0.2993  3.7733 -1.1175
  145SAPE   H6Y15914   1.922   6.206   5.773  3.9331  0.1764 -0.6863
  145SAPE   C3715915   1.946   6.419   5.739  0.4523 -0.4152  0.0992
  145SAPE   H7X15916   2.057   6.417   5.742  0.6822  0.6838 -3.2547
  145SAPE   H7Y15917   1.895   6.506   5.785  0.7180 -0.0986 -0.2021
  145SAPE   C3815918   1.905   6.412   5.590 -0.4814 -0.3577  0.4481
  145SAPE   H8X15919   1.944   6.317   5.548  1.0965  0.4844 -0.0801
  145SAPE   H8Y15920   1.934   6.493   5.520 -0.4300 -0.6294  0.1518
  145SAPE   C3915921   1.758   6.398   5.565  1.4242 -0.6884 -0.3049
  145SAPE   H9X15922   1.707   6.476   5.625  0.0173 -1.8731  0.0886
  145SAPE   H9Y15923   1.709   6.306   5.603  0.9715 -0.7176 -0.9369
  145SAPE  C31015924   1.715   6.423   5.422  0.1547 -0.0783  0.3107
  145SAPE  H10X15925   1.743   6.524   5.387 -2.7361  0.3452 -1.1074
  145SAPE  H10Y15926   1.604   6.421   5.413  0.0235  0.2787  1.6012
  145SAPE  C31115927   1.764   6.319   5.325 -0.2712 -0.1193 -0.2032
  145SAPE  H11X15928   1.739   6.221   5.370 -0.1587  0.3703  0.9745
  145SAPE  H11Y15929   1.875   6.317   5.329 -0.2533 -0.7984 -0.9395
  145SAPE  C31215930   1.707   6.333   5.183  0.2265  0.2852 -0.1707
  145SAPE  H12X15931   1.724   6.438   5.151  0.3419 -0.8087 -4.2837
  145SAPE  H12Y15932   1.598   6.315   5.182 -0.0591  1.8103 -1.6641
  145SAPE  C31315933   1.769   6.237   5.079  0.0629 -0.1003  0.0240
  145SAPE  H13X15934   1.747   6.131   5.107 -3.1292  0.5228  0.3271
  145SAPE  H13Y15935   1.879   6.241   5.067  0.3001 -0.8938  1.6780
  145SAPE  C31415936   1.719   6.260   4.936  0.3503 -0.2543 -0.0290
  145SAPE  H14X15937   1.608   6.259   4.948  0.3697  0.4054  0.2282
  145SAPE  H14Y15938   1.745   6.179   4.864 -1.7145 -0.1615 -0.9453
  145SAPE  C31515939   1.776   6.384   4.856  0.1215 -0.2223  0.3526
  145SAPE  H15X15940   1.887   6.387   4.856  0.1165  0.2010 -0.4204
  145SAPE  H15Y15941   1.732   6.475   4.902  0.7411 -0.0579  0.6251
  145SAPE  C31615942   1.738   6.373   4.714  0.7277  0.4082 -0.0056
  145SAPE  H16X15943   1.743   6.267   4.683 -0.7543 -0.4410  2.3709
  145SAPE  H16Y15944   1.815   6.417   4.648  0.0705 -0.8718 -1.6829
  145SAPE  C31715945   1.593   6.429   4.685 -0.7271 -0.2213 -0.4173
  145SAPE  H17X15946   1.603   6.539   4.695  1.4068 -0.4775  0.8655
  145SAPE  H17Y15947   1.521   6.404   4.766  2.0410  1.4382  2.7914
  145SAPE  C31815948   1.543   6.389   4.543  0.6067 -0.0832 -0.2822
  145SAPE  H18X15949   1.588   6.467   4.478  1.7718  0.0746  0.6619
  145SAPE  H18Y15950   1.434   6.379   4.529  0.5088  1.7585 -1.0883
  145SAPE  H18Z15951   1.580   6.289   4.510  0.3319  0.1984 -1.4599
  146SAPE     N15952   5.084   4.196   7.189  0.3315  0.1525  0.4534
  146SAPE   HN115953   5.018   4.271   7.219 -0.0655  1.0623 -2.3742
  146SAPE   HN215954   5.019   4.136   7.134 -0.0047 -0.1447  1.1655
  146SAPE   HN315955   5.114   4.139   7.270  0.9882 -0.0299  0.0863
  146SAPE   C1215956   5.206   4.267   7.130 -0.1068 -0.2505  0.2604
  146SAPE  H12A15957   5.232   4.341   7.208  0.1351  0.2110 -0.2479
  146SAPE  H12B15958   5.178   4.316   7.034 -1.7353 -0.0411  0.8205
  146SAPE   C1115959   5.333   4.177   7.116  0.4315 -0.3219  0.4912
  146SAPE  H11A15960   5.344   4.142   7.221 -0.8665  2.3293  1.5906
  146SAPE  H11B15961   5.418   4.240   7.083 -0.6653  0.6419 -0.5953
  146SAPE     P15962   5.428   3.978   6.962 -0.1661  0.2927 -0.1396
  146SAPE   O1315963   5.483   3.905   7.079 -0.2069 -0.2929 -0.3034
  146SAPE   O1415964   5.363   3.896   6.864  0.0776  0.6622  0.1185
  146SAPE   O1215965   5.322   4.071   7.025 -0.3741 -0.3773 -0.1844
  146SAPE   O1115966   5.534   4.078   6.901 -0.8633  0.5062 -0.4423
  146SAPE    C115967   5.477   4.174   6.810 -0.4210  0.6862 -0.1995
  146SAPE    HA15968   5.387   4.227   6.848 -0.0342 -0.6872  3.0213
  146SAPE    HB15969   5.549   4.255   6.786 -0.9704  1.8748  1.8788
  146SAPE    C215970   5.435   4.118   6.673 -0.6569  0.7393  0.0798
  146SAPE    HS15971   5.347   4.052   6.688 -0.7849  0.5085 -1.4671
  146SAPE   O2115972   5.537   4.039   6.614  0.8306  0.4691 -0.1762
  146SAPE   C2115973   5.497   3.939   6.526 -0.5173  0.6315  0.6063
  146SAPE   O2215974   5.380   3.913   6.507  0.2291  0.1150  0.0595
  146SAPE   C2215975   5.617   3.870   6.475 -0.2240 -0.1367 -0.6748
  146SAPE   H2R15976   5.715   3.918   6.498  0.0986 -1.5037  1.0309
  146SAPE   H2S15977   5.621   3.771   6.526 -1.4467 -0.4874 -1.2430
  146SAPE    C315978   5.382   4.229   6.578 -0.3043  0.3542  1.1665
  146SAPE    HX15979   5.295   4.282   6.622 -0.3810  0.3457  1.0277
  146SAPE    HY15980   5.348   4.178   6.485 -0.7507  2.2798  0.2042
  146SAPE   O3115981   5.482   4.322   6.538 -0.5902 -0.2557 -0.3390
  146SAPE   C3115982   5.569   4.304   6.439 -0.0149 -0.2750  0.1070
  146SAPE   O3215983   5.559   4.222   6.350 -0.2528  0.7486 -0.5778
  146SAPE   C3215984   5.680   4.404   6.458 -0.2512 -0.8160  0.0363
  146SAPE   H2X15985   5.766   4.341   6.488  1.3230 -0.0047 -2.5466
  146SAPE   H2Y15986   5.666   4.476   6.542  1.2989  0.1723 -0.5158
  146SAPE   C2315987   5.617   3.850   6.316  1.5468 -0.2062  0.2882
  146SAPE   H3R15988   5.715   3.805   6.290  1.5685  0.0936 -0.1777
  146SAPE   H3S15989   5.615   3.950   6.266 -0.6673  0.1442  0.9763
  146SAPE   C2415990   5.498   3.775   6.252  0.1355 -0.0387 -0.4250
  146SAPE   H4R15991   5.407   3.837   6.258 -0.2018 -0.6785  2.0188
  146SAPE   H4S15992   5.463   3.693   6.318 -2.6513 -0.3119 -2.0954
  146SAPE   C2515993   5.546   3.722   6.115 -0.1477  0.1137 -0.2299
  146SAPE   H5R15994   5.548   3.613   6.097  1.1598 -0.1368  1.2595
  146SAPE   C2615995   5.550   3.783   5.995  0.7669 -0.3201  0.5429
  146SAPE   H6R15996   5.582   3.718   5.911  0.2497 -3.5218  2.6452
  146SAPE   C2715997   5.514   3.929   5.967 -0.1073  0.4988  0.3416
  146SAPE   H7R15998   5.599   3.998   5.955 -1.5336  2.3937  0.7340
  146SAPE   H7S15999   5.466   3.965   6.061  0.1638  0.7891  0.3692
  146SAPE   C2816000   5.422   3.954   5.850 -0.3972 -0.2278 -1.1716
  146SAPE   H8R16001   5.327   4.003   5.877  1.4014  1.8947  1.8365
  146SAPE   C2916002   5.448   3.949   5.716  0.2131 -0.2404  0.0602
  146SAPE   H9R16003   5.364   3.967   5.646 -1.3444 -3.3807  0.9464
  146SAPE  C21016004   5.583   3.918   5.655  0.5568  0.8978  0.0626
  146SAPE  H10R16005   5.657   3.898   5.736 -0.1723 -1.4265  0.2017
  146SAPE  H10S16006   5.631   3.998   5.595  0.6289  0.7289 -0.1048
  146SAPE  C21116007   5.552   3.801   5.566  0.2192 -0.0624 -0.4405
  146SAPE  H11R16008   5.542   3.708   5.624  1.8033 -0.4383 -0.7205
  146SAPE  C21216009   5.523   3.805   5.439  0.2938  0.0687  0.0406
  146SAPE  H12R16010   5.518   3.710   5.383  0.5682  1.3781 -2.3715
  146SAPE  C21316011   5.507   3.921   5.344 -0.0946 -0.1097  0.1728
  146SAPE  H13R16012   5.541   4.017   5.388  0.7183 -0.0619 -0.5216
  146SAPE  H13S16013   5.402   3.949   5.321  0.4142  0.1441 -2.0570
  146SAPE  C21416014   5.570   3.897   5.209 -0.8956  0.1079 -0.6560
  146SAPE  H14R16015   5.678   3.916   5.202 -0.1460 -2.2680  2.2423
  146SAPE  C21516016   5.503   3.845   5.102 -0.0563 -0.9349  0.1282
  146SAPE  H15R16017   5.562   3.825   5.011 -0.6195 -0.3250 -0.3858
  146SAPE  C21616018   5.361   3.796   5.091 -0.1665 -0.6259 -0.3390
  146SAPE  H16R16019   5.294   3.860   5.029 -1.6577 -0.2245  1.5744
  146SAPE  H16S16020   5.305   3.794   5.187 -0.7358  0.8856 -0.6139
  146SAPE  C21716021   5.360   3.653   5.033  0.8686 -0.1317 -0.0830
  146SAPE  H17R16022   5.265   3.599   5.054  1.3687 -0.9200  0.2174
  146SAPE  H17S16023   5.434   3.594   5.092 -0.6699  0.0253  2.1283
  146SAPE  C21816024   5.388   3.639   4.882  0.1337 -0.5992  0.8999
  146SAPE  H18R16025   5.494   3.665   4.863 -0.2242  0.4214  0.2621
  146SAPE  H18S16026   5.322   3.711   4.829  0.2892 -2.7479 -2.4649
  146SAPE  C21916027   5.362   3.498   4.823  0.7997 -0.5822  0.3557
  146SAPE  H19R16028   5.262   3.462   4.856  0.8575 -1.0733  0.0159
  146SAPE  H19S16029   5.441   3.428   4.857 -0.3707 -1.0003  2.3935
  146SAPE  C22016030   5.366   3.496   4.667 -0.3461  0.0080  0.3707
  146SAPE  H20R16031   5.459   3.535   4.622 -0.1903 -1.8627 -1.0644
  146SAPE  H20S16032   5.295   3.570   4.623  0.0944 -0.1002 -0.5433
  146SAPE  H20T16033   5.344   3.394   4.627  1.8125  0.1096 -1.2405
  146SAPE   C3316034   5.713   4.475   6.331  0.2413  0.1851 -0.3252
  146SAPE   H3X16035   5.631   4.544   6.301 -0.0235  0.0282  0.0383
  146SAPE   H3Y16036   5.738   4.414   6.242  1.4522  1.0735 -0.6147
  146SAPE   C3416037   5.839   4.569   6.349  0.1883  0.6223  0.0683
  146SAPE   H4X16038   5.916   4.512   6.405  0.5100  1.4594  0.4967
  146SAPE   H4Y16039   5.805   4.656   6.409  3.4855  1.7934  0.4630
  146SAPE   C3516040   5.901   4.624   6.218 -0.1285 -0.6069 -1.1722
  146SAPE   H5X16041   5.890   4.540   6.146  1.6979  0.0304 -2.2517
  146SAPE   H5Y16042   6.006   4.650   6.243 -0.8655 -0.0888  1.8048
  146SAPE   C3616043   5.826   4.750   6.166 -0.1668  0.2050 -0.3833
  146SAPE   H6X16044   5.849   4.832   6.237  0.0925 -0.0918 -0.1222
  146SAPE   H6Y16045   5.718   4.728   6.158 -0.3119  0.8685 -0.2569
  146SAPE   C3716046   5.876   4.786   6.017 -0.1039  0.1476  0.1941
  146SAPE   H7X16047   5.829   4.714   5.947  0.0147  0.0653  0.1992
  146SAPE   H7Y16048   5.986   4.783   6.011 -0.1109  0.8709 -0.4793
  146SAPE   C3816049   5.830   4.925   5.959 -0.3529 -0.4652 -0.5484
  146SAPE   H8X16050   5.886   5.011   6.000 -0.6264 -0.5817  0.0830
  146SAPE   H8Y16051   5.726   4.946   5.992 -0.0115 -0.0352  0.2767
  146SAPE   C3916052   5.840   4.923   5.807  0.0096  0.7314  0.1180
  146SAPE   H9X16053   5.931   4.880   5.759  0.1332  2.2566 -1.1034
  146SAPE   H9Y16054   5.830   5.028   5.773  0.1533 -0.0616 -2.5933
  146SAPE  C31016055   5.719   4.857   5.734  0.5102 -0.4157 -0.1526
  146SAPE  H10X16056   5.632   4.923   5.748 -0.2617 -0.9933 -1.9429
  146SAPE  H10Y16057   5.692   4.755   5.771  0.4300 -0.1172  0.6313
  146SAPE  C31116058   5.743   4.866   5.584  0.8968 -0.1777 -0.2234
  146SAPE  H11X16059   5.826   4.804   5.545  2.8189  1.0649  1.6573
  146SAPE  H11Y16060   5.782   4.969   5.570 -0.5909  0.2359 -1.6726
  146SAPE  C31216061   5.612   4.835   5.507 -0.9405 -0.3506 -0.8353
  146SAPE  H12X16062   5.529   4.906   5.527  1.1184  2.9410 -3.1307
  146SAPE  H12Y16063   5.577   4.738   5.549 -0.8281  0.7434  2.0021
  146SAPE  C31316064   5.636   4.818   5.363 -0.5827 -0.5753  0.2562
  146SAPE  H13X16065   5.719   4.745   5.348 -1.0863 -0.9906 -0.6364
  146SAPE  H13Y16066   5.681   4.911   5.323 -1.4424 -0.4842 -0.5374
  146SAPE  C31416067   5.512   4.791   5.276  0.6931 -0.0095 -0.0499
  146SAPE  H14X16068   5.448   4.881   5.286 -3.0753 -2.1739 -2.2293
  146SAPE  H14Y16069   5.456   4.706   5.321  1.7301 -0.5380  0.2741
  146SAPE  C31516070   5.524   4.763   5.124  0.6974  0.5622  0.4427
  146SAPE  H15X16071   5.573   4.851   5.075 -0.5978  1.9713  1.5642
  146SAPE  H15Y16072   5.421   4.772   5.083 -0.1060  2.3794  2.6699
  146SAPE  C31616073   5.586   4.627   5.080  0.6972  0.0812  0.3388
  146SAPE  H16X16074   5.534   4.548   5.140 -0.1729 -0.8100 -1.5039
  146SAPE  H16Y16075   5.693   4.630   5.107  1.5229 -1.4645 -2.3684
  146SAPE  C31716076   5.567   4.601   4.928 -0.6349 -0.0001 -0.1668
  146SAPE  H17X16077   5.655   4.541   4.896 -0.5465  0.4551 -0.7927
  146SAPE  H17Y16078   5.580   4.699   4.878  1.5789 -1.8205 -3.6281
  146SAPE  C31816079   5.439   4.533   4.885 -0.1344 -0.4916  0.6718
  146SAPE  H18X16080   5.460   4.501   4.780  0.7754  2.9861 -0.3378
  146SAPE  H18Y16081   5.352   4.602   4.891 -0.4609 -0.9760  1.7308
  146SAPE  H18Z16082   5.422   4.442   4.946  2.3581 -1.1617  0.4838
  147SAPE     N16083   1.492   2.829   6.778 -0.0216  0.0780  0.1037
  147SAPE   HN116084   1.408   2.769   6.763  1.3848 -2.3422  1.3348
  147SAPE   HN216085   1.485   2.900   6.701 -1.7215  0.2543  0.3725
  147SAPE   HN316086   1.570   2.762   6.765 -0.5456 -0.5244  0.0403
  147SAPE   C1216087   1.486   2.898   6.915  0.1665  0.7340  0.3675
  147SAPE  H12A16088   1.508   2.814   6.985 -0.1183  0.5920  0.2882
  147SAPE  H12B16089   1.382   2.932   6.933 -0.5917 -1.5131  0.6197
  147SAPE   C1116090   1.584   3.016   6.930  0.2083  0.4889  0.9307
  147SAPE  H11A16091   1.567   3.083   6.843 -1.8386  0.4897  1.2686
  147SAPE  H11B16092   1.686   2.974   6.916 -0.6320 -0.7080 -2.4164
  147SAPE     P16093   1.687   3.171   7.115 -0.0546  0.2450 -0.5826
  147SAPE   O1316094   1.636   3.247   7.232 -0.5989  0.0943 -0.0197
  147SAPE   O1416095   1.809   3.092   7.144 -0.5992  0.1298  0.7376
  147SAPE   O1216096   1.572   3.082   7.059 -0.3403  0.2109 -0.1669
  147SAPE   O1116097   1.711   3.266   6.981 -0.6621 -0.4624  0.0784
  147SAPE    C116098   1.633   3.393   6.966  0.1168  0.1160 -0.5785
  147SAPE    HA16099   1.527   3.367   6.945 -1.3673  3.1807  2.1708
  147SAPE    HB16100   1.633   3.444   7.065 -0.4317 -0.9048 -0.0349
  147SAPE    C216101   1.686   3.497   6.870 -0.3005 -0.7666  0.2877
  147SAPE    HS16102   1.626   3.590   6.864 -1.8423 -1.8243 -3.3452
  147SAPE   O2116103   1.694   3.453   6.734 -0.1126 -0.0875  0.1039
  147SAPE   C2116104   1.578   3.419   6.673 -0.3013 -0.7616 -0.1643
  147SAPE   O2216105   1.470   3.454   6.718  0.2922 -0.3806 -0.0613
  147SAPE   C2216106   1.604   3.370   6.537 -0.1403 -0.1098  0.1345
  147SAPE   H2R16107   1.653   3.270   6.540 -1.1275 -0.6035  0.3489
  147SAPE   H2S16108   1.504   3.350   6.492  0.9557 -1.3750 -1.9026
  147SAPE    C316109   1.832   3.529   6.908 -0.7545  0.1440  0.1589
  147SAPE    HX16110   1.894   3.437   6.918 -0.2217 -0.0022 -3.3099
  147SAPE    HY16111   1.832   3.576   7.009  3.2616 -0.3825  0.5701
  147SAPE   O3116112   1.891   3.621   6.813 -0.7219  0.3602 -0.0311
  147SAPE   C3116113   1.983   3.556   6.729 -0.7764 -0.0617  0.1674
  147SAPE   O3216114   2.014   3.441   6.725 -0.5588  0.0812 -0.3365
  147SAPE   C3216115   2.052   3.666   6.632 -0.7643 -0.3946  0.0305
  147SAPE   H2X16116   2.094   3.611   6.545  2.9635  0.9913  0.7783
  147SAPE   H2Y16117   2.137   3.706   6.692 -2.5438  0.4367  2.1247
  147SAPE   C2316118   1.675   3.474   6.437 -0.5172  0.2093 -0.2606
  147SAPE   H3R16119   1.758   3.517   6.497  0.0656 -1.6543  0.3434
  147SAPE   H3S16120   1.597   3.550   6.412 -1.4439  0.0042  1.7823
  147SAPE   C2416121   1.717   3.414   6.305 -0.2618  0.0025 -0.5030
  147SAPE   H4R16122   1.621   3.398   6.251 -0.4093 -1.2938  0.1148
  147SAPE   H4S16123   1.758   3.314   6.330 -2.4903 -1.2480 -1.5391
  147SAPE   C2516124   1.822   3.508   6.241  0.1553  0.2605 -0.1924
  147SAPE   H5R16125   1.926   3.486   6.268 -0.5286 -0.3676  2.1829
  147SAPE   C2616126   1.794   3.609   6.157  0.2250  0.0986 -0.0525
  147SAPE   H6R16127   1.871   3.672   6.111 -1.4648  1.1152 -1.6284
  147SAPE   C2716128   1.658   3.644   6.107 -0.3672 -0.8410 -0.1189
  147SAPE   H7R16129   1.583   3.565   6.127  0.3076 -1.6318 -0.6485
  147SAPE   H7S16130   1.678   3.660   5.998  0.3707  0.5343  0.1935
  147SAPE   C2816131   1.600   3.767   6.162  0.2463 -0.1789 -0.8614
  147SAPE   H8R16132   1.640   3.786   6.263  1.8994  2.4871 -1.8928
  147SAPE   C2916133   1.515   3.852   6.105  0.3827  0.0062  0.3633
  147SAPE   H9R16134   1.481   3.943   6.157 -1.4912 -0.4385 -0.0188
  147SAPE  C21016135   1.462   3.845   5.963  0.5286  0.3894 -0.5748
  147SAPE  H10R16136   1.366   3.901   5.961  0.8978  1.1811  1.7455
  147SAPE  H10S16137   1.435   3.740   5.935 -2.3368  0.5929  1.0326
  147SAPE  C21116138   1.547   3.917   5.862 -0.4143 -0.0301  0.4334
  147SAPE  H11R16139   1.564   4.025   5.877  0.3519 -0.1963  0.8488
  147SAPE  C21216140   1.602   3.867   5.743  0.4165 -0.5352 -0.2099
  147SAPE  H12R16141   1.657   3.943   5.685 -1.3647  2.2805  1.4945
  147SAPE  C21316142   1.591   3.726   5.692 -1.2996  0.5694  0.6375
  147SAPE  H13R16143   1.497   3.721   5.633 -0.3199  0.6098 -1.0188
  147SAPE  H13S16144   1.583   3.650   5.772 -0.3425 -0.0253  0.1924
  147SAPE  C21416145   1.715   3.694   5.606  0.3842  0.1382 -0.5186
  147SAPE  H14R16146   1.806   3.672   5.664  1.4969  0.8091 -1.9670
  147SAPE  C21516147   1.714   3.693   5.474  0.0986 -0.4849  0.3501
  147SAPE  H15R16148   1.801   3.658   5.418  1.5653  1.1621  1.4749
  147SAPE  C21616149   1.595   3.735   5.389  0.8878  0.4061 -0.5470
  147SAPE  H16R16150   1.531   3.809   5.441 -0.2084 -1.3076  0.6086
  147SAPE  H16S16151   1.533   3.647   5.364 -1.5708  2.3157 -1.5884
  147SAPE  C21716152   1.637   3.807   5.252  0.6524 -0.1651 -0.2059
  147SAPE  H17R16153   1.711   3.888   5.265 -0.8248  1.2876 -0.4764
  147SAPE  H17S16154   1.548   3.865   5.219  0.6393 -0.1009 -0.0578
  147SAPE  C21816155   1.670   3.710   5.147  0.7956  0.8890  0.0191
  147SAPE  H18R16156   1.587   3.647   5.109  2.2350 -0.6008 -0.8093
  147SAPE  H18S16157   1.738   3.636   5.193  1.4943 -0.5488 -3.0413
  147SAPE  C21916158   1.738   3.784   5.029  0.4449 -0.5415  0.3477
  147SAPE  H19R16159   1.789   3.725   4.949  1.4942  1.0528 -0.2089
  147SAPE  H19S16160   1.823   3.850   5.057  1.8370 -1.4839 -1.4041
  147SAPE  C22016161   1.646   3.883   4.945 -0.5269 -0.0256 -0.3869
  147SAPE  H20R16162   1.703   3.930   4.862 -2.3997  3.5862  0.2007
  147SAPE  H20S16163   1.599   3.959   5.011 -0.8247 -0.3714 -0.1950
  147SAPE  H20T16164   1.566   3.821   4.899  2.1896 -3.2300 -1.2662
  147SAPE   C3316165   1.955   3.766   6.569 -0.2846 -1.3224 -0.5991
  147SAPE   H3X16166   1.915   3.829   6.651 -0.8579 -0.9932 -1.1232
  147SAPE   H3Y16167   1.866   3.712   6.531 -0.7939 -0.2463 -0.9738
  147SAPE   C3416168   2.018   3.841   6.448 -0.3291 -0.0066  0.2192
  147SAPE   H4X16169   2.019   3.774   6.360 -0.8826 -1.1798  1.0812
  147SAPE   H4Y16170   2.114   3.888   6.476 -1.1274  0.6536  1.9738
  147SAPE   C3516171   1.944   3.976   6.402 -0.8680  0.4212 -0.1793
  147SAPE   H5X16172   1.942   4.054   6.482  0.4209  1.0902 -0.7609
  147SAPE   H5Y16173   1.840   3.951   6.374 -0.6824  0.1719 -0.6501
  147SAPE   C3616174   2.013   4.037   6.276  0.1900 -0.7776 -0.9933
  147SAPE   H6X16175   2.121   4.040   6.301  0.0199  0.6900 -0.3628
  147SAPE   H6Y16176   1.981   4.143   6.265  0.2842 -0.3378  2.0019
  147SAPE   C3716177   1.969   3.969   6.143  0.7506 -0.1865  0.0835
  147SAPE   H7X16178   1.861   3.945   6.132  0.9446 -1.1192  0.1457
  147SAPE   H7Y16179   2.030   3.876   6.139  1.8169  0.4766  0.5431
  147SAPE   C3816180   2.016   4.058   6.025  0.4408  0.4384 -0.3626
  147SAPE   H8X16181   2.121   4.093   6.037  0.8498 -0.6028 -0.7483
  147SAPE   H8Y16182   1.948   4.145   6.024  0.7990  0.7316  0.0480
  147SAPE   C3916183   2.014   3.971   5.890  0.0742 -0.4516 -0.2531
  147SAPE   H9X16184   1.918   3.916   5.898 -0.4924  0.5568  0.0244
  147SAPE   H9Y16185   2.091   3.892   5.877 -0.6802 -0.7547 -4.4116
  147SAPE  C31016186   2.005   4.065   5.767  0.7715  0.1778 -0.5763
  147SAPE  H10X16187   2.103   4.113   5.746  1.3533 -0.3995  0.6452
  147SAPE  H10Y16188   1.931   4.147   5.776  2.2832  1.4857  0.7230
  147SAPE  C31116189   1.981   3.982   5.635  0.0230  0.6149  0.6221
  147SAPE  H11X16190   1.894   3.912   5.638  1.5754 -1.3904  0.9599
  147SAPE  H11Y16191   2.076   3.926   5.627  1.0538  2.1084  1.9748
  147SAPE  C31216192   1.974   4.071   5.497 -0.2536 -0.3159  0.1715
  147SAPE  H12X16193   2.070   4.125   5.492  0.6557 -1.8774  0.0982
  147SAPE  H12Y16194   1.894   4.148   5.496 -0.0944 -0.1286  1.1115
  147SAPE  C31316195   1.966   3.992   5.369 -0.0082 -1.0153 -0.1632
  147SAPE  H13X16196   1.888   3.913   5.369 -0.0213 -1.0027 -0.2365
  147SAPE  H13Y16197   2.064   3.943   5.352  0.1534 -1.1995  1.1827
  147SAPE  C31416198   1.937   4.086   5.254 -0.7224 -0.0496 -0.0712
  147SAPE  H14X16199   1.963   4.192   5.276 -0.8572 -0.2107  0.9061
  147SAPE  H14Y16200   1.829   4.083   5.225 -0.4963  2.1750 -1.3855
  147SAPE  C31516201   2.006   4.050   5.109  0.3204 -0.1270 -0.1053
  147SAPE  H15X16202   1.974   3.950   5.073  0.9797 -0.2157 -0.4571
  147SAPE  H15Y16203   2.117   4.058   5.109  0.4142 -1.1394  0.7138
  147SAPE  C31616204   1.962   4.143   4.999  0.2215 -0.1218 -0.1071
  147SAPE  H16X16205   1.994   4.249   5.011  1.9687 -0.7309  0.9884
  147SAPE  H16Y16206   1.852   4.148   5.013  0.2535  0.2828  0.0325
  147SAPE  C31716207   1.989   4.107   4.852 -0.1893 -0.3714 -0.8482
  147SAPE  H17X16208   1.949   4.006   4.829  1.1847 -1.4430  1.1505
  147SAPE  H17Y16209   2.098   4.107   4.830  0.2518  0.1254  1.1632
  147SAPE  C31816210   1.923   4.206   4.763  0.7141  0.3116  0.1791
  147SAPE  H18X16211   1.943   4.189   4.655 -2.6996 -0.5864 -0.4338
  147SAPE  H18Y16212   1.975   4.301   4.790  2.4124 -0.0416 -1.6272
  147SAPE  H18Z16213   1.813   4.218   4.776  0.9311 -0.6611  4.3302
  148SAPE     N16214   5.129   1.501   6.926 -0.3865  0.7677 -0.7521
  148SAPE   HN116215   5.204   1.538   6.865  0.6087  2.4685  1.3774
  148SAPE   HN216216   5.122   1.566   7.007 -0.8677 -1.0032  0.6874
  148SAPE   HN316217   5.141   1.400   6.948 -1.5006  0.6115 -0.7997
  148SAPE   C1216218   5.006   1.510   6.838  0.0229 -0.4947  0.5216
  148SAPE  H12A16219   4.931   1.457   6.900  2.3682 -2.2696  2.0245
  148SAPE  H12B16220   5.035   1.461   6.743 -1.8843 -1.0726  0.2109
  148SAPE   C1116221   4.966   1.659   6.815  0.4831 -0.4707  0.0272
  148SAPE  H11A16222   4.914   1.689   6.909  0.7233 -0.7531  0.2539
  148SAPE  H11B16223   4.885   1.666   6.739 -0.9191  0.9326  1.5535
  148SAPE     P16224   5.045   1.870   6.697  0.0515  0.2181  0.4083
  148SAPE   O1316225   4.956   1.967   6.767  0.5481 -0.3471 -0.4323
  148SAPE   O1416226   5.175   1.926   6.654 -0.1713  0.0882 -0.4716
  148SAPE   O1216227   5.075   1.744   6.791 -0.0340 -0.1975  0.3284
  148SAPE   O1116228   4.961   1.808   6.570 -0.1833  0.1597 -0.2362
  148SAPE    C116229   5.021   1.705   6.496 -0.4073  0.4666 -0.3273
  148SAPE    HA16230   5.104   1.657   6.553 -0.8624  0.6836  0.5444
  148SAPE    HB16231   4.936   1.635   6.478  1.0573 -1.2373 -0.9352
  148SAPE    C216232   5.064   1.757   6.351  0.4387  0.7799  0.1550
  148SAPE    HS16233   5.121   1.852   6.360  0.0549  1.0797 -0.5475
  148SAPE   O2116234   4.940   1.759   6.273 -1.2405  0.1530 -0.0417
  148SAPE   C2116235   4.898   1.888   6.253 -0.9247  0.0421 -0.3939
  148SAPE   O2216236   4.954   1.991   6.293  0.4766 -0.3392 -0.0171
  148SAPE   C2216237   4.771   1.888   6.178  0.1689 -0.3623 -0.5140
  148SAPE   H2R16238   4.757   1.781   6.148 -0.1938  0.3713 -3.2010
  148SAPE   H2S16239   4.683   1.924   6.234  2.3756  2.1284  1.6369
  148SAPE    C316240   5.172   1.660   6.284 -0.6074 -0.1392 -0.7487
  148SAPE    HX16241   5.128   1.559   6.302 -0.7494 -0.0528 -0.6098
  148SAPE    HY16242   5.267   1.659   6.341 -1.1416 -1.7883  0.1927
  148SAPE   O3116243   5.182   1.693   6.143  0.8315  0.4297  0.1838
  148SAPE   C3116244   5.228   1.589   6.078 -0.9909  0.5584 -0.1671
  148SAPE   O3216245   5.254   1.477   6.123 -0.1252 -0.1419 -0.0502
  148SAPE   C3216246   5.253   1.627   5.931  0.4097 -0.1515  0.2660
  148SAPE   H2X16247   5.357   1.663   5.920  0.0833  0.3791 -1.1731
  148SAPE   H2Y16248   5.191   1.714   5.901  1.6853  0.6488 -0.0885
  148SAPE   C2316249   4.778   1.970   6.048  0.3811 -0.0276  0.2411
  148SAPE   H3R16250   4.849   1.922   5.978  1.3708 -0.5488  1.5581
  148SAPE   H3S16251   4.801   2.076   6.074  2.8016 -0.4393 -0.0066
  148SAPE   C2416252   4.640   1.971   5.973  0.4543 -0.4627  0.3263
  148SAPE   H4R16253   4.595   1.872   5.996  0.4371 -0.5378 -0.0163
  148SAPE   H4S16254   4.665   1.980   5.865 -0.7662 -0.3182  0.0421
  148SAPE   C2516255   4.553   2.088   6.012 -0.7133 -0.0005  0.2970
  148SAPE   H5R16256   4.564   2.116   6.118 -0.0537  0.9485 -0.0018
  148SAPE   C2616257   4.477   2.172   5.940 -0.3981 -0.4951  0.4323
  148SAPE   H6R16258   4.417   2.249   5.990 -1.8508 -0.9334 -0.5891
  148SAPE   C2716259   4.447   2.143   5.796  0.0121 -0.5085 -0.7504
  148SAPE   H7R16260   4.489   2.045   5.764 -0.4329 -1.3757  1.1654
  148SAPE   H7S16261   4.499   2.225   5.741  0.4429 -0.2985 -0.0343
  148SAPE   C2816262   4.299   2.145   5.769 -0.1474 -0.2216  1.1575
  148SAPE   H8R16263   4.240   2.169   5.858 -0.5358 -0.2094  0.8956
  148SAPE   C2916264   4.241   2.133   5.648  0.1172 -0.2880  0.9262
  148SAPE   H9R16265   4.131   2.127   5.639  0.2616 -1.0630 -0.8313
  148SAPE  C21016266   4.323   2.088   5.533 -0.5456 -0.7350 -0.3371
  148SAPE  H10R16267   4.372   1.990   5.550  1.4158  0.3815  0.8787
  148SAPE  H10S16268   4.400   2.167   5.520 -2.8754  1.6274 -0.7659
  148SAPE  C21116269   4.233   2.089   5.410  0.3509  0.5654  0.1600
  148SAPE  H11R16270   4.141   2.029   5.413  0.4854  0.3851  0.6354
  148SAPE  C21216271   4.247   2.158   5.297  0.0028  0.5182  0.3337
  148SAPE  H12R16272   4.163   2.157   5.226  1.1041  1.5788 -1.0674
  148SAPE  C21316273   4.355   2.259   5.251  0.0751  0.1252  0.0795
  148SAPE  H13R16274   4.399   2.214   5.160  2.2130  0.1516  1.0402
  148SAPE  H13S16275   4.446   2.264   5.314  0.9874 -1.0749 -1.0943
  148SAPE  C21416276   4.310   2.394   5.207  0.2532  0.1557  0.1013
  148SAPE  H14R16277   4.226   2.429   5.269  1.3755 -0.0538  1.8247
  148SAPE  C21516278   4.350   2.462   5.096 -0.5077  0.6841 -0.2601
  148SAPE  H15R16279   4.304   2.561   5.082  0.2047  1.1596  0.6333
  148SAPE  C21616280   4.453   2.407   5.002 -0.0354  0.9807 -0.2549
  148SAPE  H16R16281   4.395   2.362   4.919  1.7027 -1.7623 -0.1238
  148SAPE  H16S16282   4.518   2.330   5.050 -2.4990 -0.8148  0.4092
  148SAPE  C21716283   4.554   2.504   4.941 -0.9647  0.2364  0.0164
  148SAPE  H17R16284   4.616   2.448   4.868 -1.7833  0.3794 -0.8122
  148SAPE  H17S16285   4.617   2.544   5.023  0.2699  0.4427 -1.0116
  148SAPE  C21816286   4.495   2.629   4.876 -0.6426  0.7580  0.3426
  148SAPE  H18R16287   4.460   2.693   4.959  0.1725  0.2262  1.1232
  148SAPE  H18S16288   4.412   2.616   4.803  1.3834  1.4009 -2.2633
  148SAPE  C21916289   4.607   2.698   4.793  0.1771  0.1266 -0.1486
  148SAPE  H19R16290   4.696   2.712   4.858 -1.0735  0.7435  1.4969
  148SAPE  H19S16291   4.571   2.798   4.761 -2.1338 -0.7705 -0.6141
  148SAPE  C22016292   4.652   2.626   4.662  0.2382 -0.6699 -0.1125
  148SAPE  H20R16293   4.573   2.631   4.584  1.5655  2.8223 -1.4328
  148SAPE  H20S16294   4.698   2.527   4.683  3.6240  0.7049 -0.4406
  148SAPE  H20T16295   4.740   2.681   4.623  1.5446 -1.5211  1.5249
  148SAPE   C3316296   5.222   1.503   5.851 -0.1343  0.3353  0.2961
  148SAPE   H3X16297   5.113   1.481   5.852  0.1784 -1.3080  0.5832
  148SAPE   H3Y16298   5.274   1.417   5.898 -0.1386 -0.5538 -1.2708
  148SAPE   C3416299   5.278   1.511   5.716  0.3183 -0.4009 -0.3185
  148SAPE   H4X16300   5.242   1.429   5.650 -2.0525  1.9169 -2.1015
  148SAPE   H4Y16301   5.388   1.501   5.729  0.5103 -0.5778 -1.8389
  148SAPE   C3516302   5.243   1.632   5.630  0.2777  0.2021  0.9597
  148SAPE   H5X16303   5.298   1.721   5.669  0.4617  0.8671 -0.7635
  148SAPE   H5Y16304   5.134   1.652   5.641  0.4764  4.4021 -2.2374
  148SAPE   C3616305   5.298   1.613   5.485  0.5593 -0.3702  0.4737
  148SAPE   H6X16306   5.406   1.589   5.482  0.2469 -1.8205 -1.5811
  148SAPE   H6Y16307   5.293   1.715   5.443  0.9937 -0.9405 -1.0447
  148SAPE   C3716308   5.229   1.522   5.384  0.6183  0.0760  0.0666
  148SAPE   H7X16309   5.237   1.416   5.417 -1.6416 -0.0559  0.3425
  148SAPE   H7Y16310   5.266   1.526   5.279 -0.7611  1.4684 -0.3948
  148SAPE   C3816311   5.082   1.557   5.365 -0.5605 -0.2397  0.1183
  148SAPE   H8X16312   5.064   1.646   5.301 -1.7615 -1.9333 -2.0381
  148SAPE   H8Y16313   5.036   1.575   5.465  0.8759  0.8768  0.6099
  148SAPE   C3916314   5.008   1.444   5.282  0.0149 -0.4677  0.4604
  148SAPE   H9X16315   5.028   1.355   5.346  1.9799 -0.6551 -0.3579
  148SAPE   H9Y16316   5.058   1.431   5.184 -1.4525  0.9036 -0.5303
  148SAPE  C31016317   4.862   1.488   5.265  0.6377 -0.2380  0.2297
  148SAPE  H10X16318   4.857   1.591   5.222  1.7080 -0.2467  0.0350
  148SAPE  H10Y16319   4.794   1.491   5.352 -1.5664  0.0275 -1.3925
  148SAPE  C31116320   4.793   1.390   5.172 -0.8169 -0.5994  0.1749
  148SAPE  H11X16321   4.762   1.303   5.234 -0.4178 -0.0109  1.2192
  148SAPE  H11Y16322   4.852   1.363   5.082 -0.0599  1.8897 -0.1445
  148SAPE  C31216323   4.669   1.459   5.101  0.2640  0.5167 -0.2210
  148SAPE  H12X16324   4.707   1.536   5.031  1.9520 -1.7456 -1.9328
  148SAPE  H12Y16325   4.598   1.495   5.179  0.1344 -1.1982  0.5052
  148SAPE  C31316326   4.576   1.366   5.022  0.1673 -0.4127  0.3581
  148SAPE  H13X16327   4.528   1.288   5.085 -0.8880 -0.3659 -0.3696
  148SAPE  H13Y16328   4.636   1.301   4.955 -2.3446 -1.7053 -0.7785
  148SAPE  C31416329   4.463   1.423   4.936  0.3966 -0.5261  0.4178
  148SAPE  H14X16330   4.372   1.451   4.994  0.0312 -0.5516 -0.1337
  148SAPE  H14Y16331   4.430   1.338   4.873  0.6917  0.7064 -1.4696
  148SAPE  C31516332   4.489   1.546   4.847 -0.9247 -0.0189 -0.0505
  148SAPE  H15X16333   4.588   1.545   4.796 -1.2698  0.9287 -0.7559
  148SAPE  H15Y16334   4.490   1.634   4.915  1.1607  0.5142 -0.6943
  148SAPE  C31616335   4.376   1.555   4.742  0.4728 -0.5623  0.0499
  148SAPE  H16X16336   4.281   1.546   4.800 -0.6103 -1.1436 -1.7201
  148SAPE  H16Y16337   4.359   1.467   4.676  0.7519 -1.3464  0.9977
  148SAPE  C31716338   4.370   1.684   4.656 -0.3155 -0.1500 -0.3219
  148SAPE  H17X16339   4.377   1.769   4.727 -0.2544  0.4274 -1.0074
  148SAPE  H17Y16340   4.270   1.704   4.612 -1.1312 -0.4901  1.3208
  148SAPE  C31816341   4.477   1.703   4.548 -0.9108 -0.2690  0.1028
  148SAPE  H18X16342   4.511   1.601   4.519  5.7925  1.0005  1.6600
  148SAPE  H18Y16343   4.572   1.750   4.581 -0.6573 -1.7629  1.6709
  148SAPE  H18Z16344   4.433   1.750   4.458  1.2400  0.7129 -0.5020
  149SAPE     N16345   2.153   0.100   7.046 -0.4940 -0.4006  0.1575
  149SAPE   HN116346   2.237   0.056   7.086 -2.1908 -2.2778  1.8854
  149SAPE   HN216347   2.178   0.140   6.953  1.6109 -0.3839  0.6950
  149SAPE   HN316348   2.127   0.169   7.120  3.3807 -0.0191  1.3653
  149SAPE   C1216349   2.042  -0.003   7.025  0.4814  0.2951  0.1345
  149SAPE  H12A16350   2.013  -0.047   7.123 -1.3720  0.7628 -0.1642
  149SAPE  H12B16351   2.088  -0.085   6.967  0.6699  1.0250 -0.7732
  149SAPE   C1116352   1.913   0.040   6.953 -0.1163 -1.1598  0.6360
  149SAPE  H11A16353   1.855  -0.055   6.954  2.0596 -2.5635  0.3252
  149SAPE  H11B16354   1.943   0.070   6.850  0.9428 -0.7793  1.0435
  149SAPE     P16355   1.831   0.290   7.003 -0.2532  0.4548  0.5912
  149SAPE   O1316356   1.719   0.358   7.067  0.2460 -0.1068 -0.4512
  149SAPE   O1416357   1.966   0.348   7.016 -0.5383 -0.1686 -0.1408
  149SAPE   O1216358   1.841   0.137   7.031  0.2534  0.3707  0.5399
  149SAPE   O1116359   1.808   0.292   6.853 -0.5434  0.2154  0.1463
  149SAPE    C116360   1.675   0.298   6.798 -0.4964  0.1348 -0.7450
  149SAPE    HA16361   1.615   0.386   6.828 -2.5247 -0.4674 -2.7524
  149SAPE    HB16362   1.683   0.309   6.687 -0.9929 -0.1738 -0.8125
  149SAPE    C216363   1.592   0.174   6.830 -0.4613 -0.0889 -0.5179
  149SAPE    HS16364   1.608   0.165   6.940  3.1748  0.8817 -0.8482
  149SAPE   O2116365   1.640   0.060   6.765 -0.2691 -0.0874  0.5980
  149SAPE   C2116366   1.611  -0.057   6.810  0.1422  0.0645  0.0410
  149SAPE   O2216367   1.562  -0.078   6.922 -0.2696  0.1013 -0.0924
  149SAPE   C2216368   1.645  -0.162   6.705  0.4363 -0.4262 -0.2278
  149SAPE   H2R16369   1.745  -0.190   6.744  1.3196 -0.7512 -2.6026
  149SAPE   H2S16370   1.584  -0.255   6.715 -0.4677  0.2917  1.2390
  149SAPE    C316371   1.440   0.208   6.819  0.9375 -0.4042  0.8147
  149SAPE    HX16372   1.431   0.288   6.896 -2.0307 -0.4409  0.6221
  149SAPE    HY16373   1.370   0.126   6.848 -0.0322  0.1335  0.0643
  149SAPE   O3116374   1.405   0.266   6.686 -0.3017  0.0828  0.5136
  149SAPE   C3116375   1.369   0.176   6.594 -0.6979  0.6139 -0.8625
  149SAPE   O3216376   1.349   0.057   6.623 -0.6267 -0.1434 -0.3021
  149SAPE   C3216377   1.353   0.235   6.455  0.1411 -0.3323  0.5051
  149SAPE   H2X16378   1.383   0.342   6.452  0.9155 -0.5705 -1.2450
  149SAPE   H2Y16379   1.246   0.228   6.426  0.5570 -0.8334 -0.9870
  149SAPE   C2316380   1.642  -0.117   6.560 -0.4938  0.2356  0.3767
  149SAPE   H3R16381   1.738  -0.067   6.534 -0.9223  0.4231 -0.8835
  149SAPE   H3S16382   1.555  -0.049   6.554 -1.5021 -1.1044 -0.7814
  149SAPE   C2416383   1.637  -0.238   6.469  0.1170  0.4336 -0.0722
  149SAPE   H4R16384   1.558  -0.310   6.498  0.7940 -0.7337 -1.0524
  149SAPE   H4S16385   1.722  -0.308   6.458 -2.0018 -1.8783 -3.9066
  149SAPE   C2516386   1.608  -0.184   6.325  0.6972 -0.2976  0.2603
  149SAPE   H5R16387   1.647  -0.084   6.303  0.3854 -0.0022  1.0049
  149SAPE   C2616388   1.529  -0.239   6.228 -0.0300  0.4529  0.2430
  149SAPE   H6R16389   1.515  -0.178   6.138 -2.0984  0.6783  0.6559
  149SAPE   C2716390   1.464  -0.368   6.212  0.2501 -0.4228  0.7938
  149SAPE   H7R16391   1.357  -0.370   6.181  0.3123  1.4927  0.2855
  149SAPE   H7S16392   1.467  -0.411   6.314  1.8606 -2.7128 -0.1307
  149SAPE   C2816393   1.546  -0.469   6.137 -0.1315  0.9362  0.4129
  149SAPE   H8R16394   1.611  -0.529   6.202  0.7184  0.9481 -0.3936
  149SAPE   C2916395   1.552  -0.492   6.004 -0.1235 -0.1960 -0.2545
  149SAPE   H9R16396   1.601  -0.583   5.967 -1.9611 -0.9625 -0.9077
  149SAPE  C21016397   1.462  -0.428   5.902  0.2478 -0.5204 -0.2130
  149SAPE  H10R16398   1.521  -0.446   5.810  0.4253 -0.5354 -0.0967
  149SAPE  H10S16399   1.461  -0.318   5.912  1.7551 -0.4499 -0.6037
  149SAPE  C21116400   1.324  -0.494   5.891 -1.0504  0.1202  0.1036
  149SAPE  H11R16401   1.272  -0.515   5.986  1.7033  0.0794  1.6829
  149SAPE  C21216402   1.269  -0.529   5.777 -0.3751 -0.0560  0.9221
  149SAPE  H12R16403   1.162  -0.552   5.769 -0.0754 -1.3317  0.4009
  149SAPE  C21316404   1.321  -0.504   5.639 -0.8264  1.1665 -0.5716
  149SAPE  H13R16405   1.265  -0.575   5.574 -0.5199 -0.0039  0.4047
  149SAPE  H13S16406   1.424  -0.546   5.630  0.4186  3.6075  1.0189
  149SAPE  C21416407   1.320  -0.368   5.580  0.3647 -0.6424 -0.4907
  149SAPE  H14R16408   1.383  -0.297   5.635  0.2787  0.5822 -1.9144
  149SAPE  C21516409   1.253  -0.326   5.472  0.1641  0.1541  0.1628
  149SAPE  H15R16410   1.256  -0.219   5.450 -2.7318  0.3942  0.4970
  149SAPE  C21616411   1.166  -0.414   5.387  0.3857  0.9795  0.6569
  149SAPE  H16R16412   1.083  -0.358   5.341  2.3715  2.4715 -1.3342
  149SAPE  H16S16413   1.115  -0.489   5.451  0.0154  2.0809  1.6931
  149SAPE  C21716414   1.252  -0.487   5.277 -0.0161 -0.5512  0.0584
  149SAPE  H17R16415   1.203  -0.572   5.225 -1.0530  0.0743 -0.0291
  149SAPE  H17S16416   1.347  -0.523   5.321  0.5702  2.2147  1.3066
  149SAPE  C21816417   1.297  -0.384   5.171 -0.0605  0.5011 -0.1468
  149SAPE  H18R16418   1.357  -0.447   5.102 -0.0028 -0.5695  0.8456
  149SAPE  H18S16419   1.377  -0.320   5.214  0.3999 -1.0643  1.4530
  149SAPE  C21916420   1.198  -0.300   5.093 -0.2081  0.1384  1.1529
  149SAPE  H19R16421   1.168  -0.223   5.168  0.6050 -0.1816  1.8259
  149SAPE  H19S16422   1.106  -0.354   5.063 -0.0998  1.3226 -1.5946
  149SAPE  C22016423   1.264  -0.236   4.969  0.0710 -0.2355 -0.3577
  149SAPE  H20R16424   1.311  -0.317   4.908  0.2121 -0.2812 -0.1912
  149SAPE  H20S16425   1.345  -0.165   4.996  1.0463 -1.0243 -1.1128
  149SAPE  H20T16426   1.189  -0.169   4.923  0.7979  0.6418 -0.2874
  149SAPE   C3316427   1.446   0.166   6.355 -0.1853  0.3636 -0.4280
  149SAPE   H3X16428   1.410   0.064   6.328 -1.5260  0.7324 -0.0882
  149SAPE   H3Y16429   1.552   0.154   6.388 -0.4236  0.1742  0.2760
  149SAPE   C3416430   1.455   0.250   6.227  0.3680  0.0480 -0.0438
  149SAPE   H4X16431   1.535   0.327   6.238 -0.8742  1.7028 -1.9098
  149SAPE   H4Y16432   1.362   0.310   6.215  1.1002  1.4125  0.7848
  149SAPE   C3516433   1.476   0.160   6.104 -0.4055  0.1424 -1.2604
  149SAPE   H5X16434   1.387   0.094   6.100 -1.0799  0.7989  1.2143
  149SAPE   H5Y16435   1.569   0.103   6.127 -0.4268  0.3000 -0.7702
  149SAPE   C3616436   1.500   0.239   5.976 -0.1165 -0.1942 -0.2766
  149SAPE   H6X16437   1.585   0.308   5.994  1.7270 -2.0442 -1.4516
  149SAPE   H6Y16438   1.404   0.295   5.978 -1.1991 -1.9857  0.7465
  149SAPE   C3716439   1.534   0.152   5.850  0.2906  0.3038  0.4617
  149SAPE   H7X16440   1.449   0.083   5.834  2.3728 -2.4482  0.3800
  149SAPE   H7Y16441   1.625   0.089   5.865  0.4037  0.9401  2.9942
  149SAPE   C3816442   1.564   0.229   5.723 -0.0785 -0.9637 -0.2864
  149SAPE   H8X16443   1.605   0.156   5.649  1.5708 -2.2918  1.7990
  149SAPE   H8Y16444   1.656   0.288   5.740 -1.7977  2.5593 -2.1886
  149SAPE   C3916445   1.442   0.311   5.667  0.5133 -0.5208  0.1662
  149SAPE   H9X16446   1.411   0.381   5.748 -2.0524  0.5486 -1.6237
  149SAPE   H9Y16447   1.353   0.249   5.646 -0.5344  0.9176  0.2539
  149SAPE  C31016448   1.479   0.382   5.533 -0.4876  0.5970  0.4520
  149SAPE  H10X16449   1.476   0.294   5.466 -1.6185 -0.3678  1.7049
  149SAPE  H10Y16450   1.584   0.416   5.541  0.7440 -2.9224  1.1220
  149SAPE  C31116451   1.386   0.485   5.483  0.5480 -0.0035 -0.2764
  149SAPE  H11X16452   1.389   0.581   5.539  1.4500  0.1714 -0.6085
  149SAPE  H11Y16453   1.283   0.446   5.497  0.7658 -1.7128 -2.7088
  149SAPE  C31216454   1.413   0.520   5.339  0.1130  0.0545 -0.0799
  149SAPE  H12X16455   1.348   0.604   5.307 -1.9240 -2.1070 -1.9911
  149SAPE  H12Y16456   1.387   0.440   5.266 -2.4335  0.4026  0.3491
  149SAPE  C31316457   1.559   0.560   5.302  0.6156  0.2409  0.5451
  149SAPE  H13X16458   1.631   0.510   5.371  0.9777 -1.6899 -1.1466
  149SAPE  H13Y16459   1.571   0.669   5.316 -0.6175  0.2857  1.4043
  149SAPE  C31416460   1.593   0.505   5.161 -0.7887  0.4634  0.4338
  149SAPE  H14X16461   1.523   0.538   5.081  0.8138  0.2596 -1.1294
  149SAPE  H14Y16462   1.583   0.395   5.162 -1.4015  0.5135  0.3912
  149SAPE  C31516463   1.743   0.531   5.125  0.6659  0.3408  1.1113
  149SAPE  H15X16464   1.798   0.509   5.218 -0.2588 -1.3508  1.2870
  149SAPE  H15Y16465   1.746   0.640   5.104 -1.8743  0.3353  0.3486
  149SAPE  C31616466   1.798   0.442   5.002 -0.9393  0.5793 -0.6408
  149SAPE  H16X16467   1.757   0.491   4.910 -0.8310 -1.6407 -1.9594
  149SAPE  H16Y16468   1.749   0.342   5.007  0.7486 -0.2129  0.8679
  149SAPE  C31716469   1.953   0.431   4.996  0.9480  0.4250  0.6622
  149SAPE  H17X16470   1.986   0.368   5.081 -0.3855 -1.1583  0.0594
  149SAPE  H17Y16471   1.993   0.534   5.000 -1.1390  1.2994  0.4879
  149SAPE  C31816472   2.006   0.363   4.867  0.6964 -0.3019  0.2333
  149SAPE  H18X16473   2.115   0.369   4.848  0.2705  0.6484 -2.3508
  149SAPE  H18Y16474   1.960   0.416   4.781 -0.2646  1.7278  1.9187
  149SAPE  H18Z16475   1.974   0.257   4.883  0.3143  0.1661  3.0596
  150SAPE     N16476   6.643   6.286   6.778 -0.5927 -0.5348  0.0582
  150SAPE   HN116477   6.660   6.386   6.755 -3.1243  0.0219  0.4260
  150SAPE   HN216478   6.543   6.279   6.802 -0.6038 -0.0771  0.1559
  150SAPE   HN316479   6.695   6.257   6.863 -1.4913  0.1099  0.8412
  150SAPE   C1216480   6.678   6.199   6.658 -0.1407 -0.4159 -0.0944
  150SAPE  H12A16481   6.709   6.099   6.695  0.5994  0.3197  1.3658
  150SAPE  H12B16482   6.765   6.250   6.612 -0.8213 -0.1063 -1.0873
  150SAPE   C1116483   6.561   6.182   6.567  0.3186  0.3076  0.2454
  150SAPE  H11A16484   6.476   6.141   6.626 -0.2103 -1.8468 -1.8969
  150SAPE  H11B16485   6.575   6.102   6.492  0.0211 -1.3142  1.8431
  150SAPE     P16486   6.401   6.317   6.405  0.1213 -0.0538 -0.4439
  150SAPE   O1316487   6.281   6.265   6.474  0.4033 -0.0119  0.8359
  150SAPE   O1416488   6.387   6.454   6.348 -0.7267 -0.4185 -0.7130
  150SAPE   O1216489   6.523   6.309   6.503 -0.1116 -0.1006 -0.9608
  150SAPE   O1116490   6.449   6.216   6.292 -0.4744 -0.0924 -0.2685
  150SAPE    C116491   6.404   6.086   6.271 -0.6406 -0.3060 -0.3806
  150SAPE    HA16492   6.488   6.020   6.299 -1.3159 -0.7212  0.7700
  150SAPE    HB16493   6.320   6.055   6.336  2.0242 -2.2657  2.3906
  150SAPE    C216494   6.381   6.054   6.121 -0.3489 -0.2379 -0.0862
  150SAPE    HS16495   6.353   5.946   6.117 -0.7772 -0.1321 -4.0684
  150SAPE   O2116496   6.507   6.067   6.048 -0.1006  0.0646  0.2131
  150SAPE   C2116497   6.593   5.967   6.063  0.5455  0.0782  0.2367
  150SAPE   O2216498   6.567   5.859   6.111 -0.6897  0.0382  0.0850
  150SAPE   C2216499   6.730   6.009   6.012 -0.3375  0.4625 -0.4488
  150SAPE   H2R16500   6.753   6.100   6.071  0.3216 -0.5713  0.9392
  150SAPE   H2S16501   6.794   5.927   6.050 -0.2737  0.7388  0.0494
  150SAPE    C316502   6.264   6.139   6.061 -0.6752  0.4259 -0.5118
  150SAPE    HX16503   6.268   6.243   6.097 -1.4451  0.1371  0.4371
  150SAPE    HY16504   6.166   6.097   6.093  0.9503 -2.0242  1.7592
  150SAPE   O3116505   6.268   6.140   5.916  0.1893 -0.2718 -0.3087
  150SAPE   C3116506   6.219   6.034   5.843  0.1729 -0.3455 -0.1047
  150SAPE   O3216507   6.181   5.936   5.892  0.1294 -0.1078  0.3235
  150SAPE   C3216508   6.231   6.064   5.698  0.4051  0.5131  0.8840
  150SAPE   H2X16509   6.330   6.047   5.653  0.9667  1.7777  1.5621
  150SAPE   H2Y16510   6.203   6.172   5.699 -0.9168  0.1922  1.9067
  150SAPE   C2316511   6.754   6.032   5.863  0.0658  0.2899  0.0321
  150SAPE   H3R16512   6.829   6.113   5.854  0.1131  0.3902  1.2167
  150SAPE   H3S16513   6.670   6.073   5.804  2.0129  2.1369 -1.6393
  150SAPE   C2416514   6.805   5.900   5.788 -0.0139 -1.2367  0.5905
  150SAPE   H4R16515   6.882   5.851   5.851  0.4636  0.7663  1.6405
  150SAPE   H4S16516   6.853   5.927   5.692 -0.9471 -0.5667  0.2940
  150SAPE   C2516517   6.693   5.802   5.778 -0.3414 -0.3153 -0.7839
  150SAPE   H5R16518   6.659   5.759   5.873  1.0088 -0.3716 -0.2971
  150SAPE   C2616519   6.635   5.769   5.659  0.1329 -0.5948  0.3454
  150SAPE   H6R16520   6.548   5.704   5.673 -0.4198  0.5514  2.8853
  150SAPE   C2716521   6.657   5.812   5.516  0.1381  0.5895 -0.6845
  150SAPE   H7R16522   6.723   5.901   5.517 -0.4837  1.0536 -0.5299
  150SAPE   H7S16523   6.560   5.840   5.470 -1.5533  0.4103  2.5069
  150SAPE   C2816524   6.723   5.700   5.440 -0.2611 -0.4844 -0.1260
  150SAPE   H8R16525   6.785   5.624   5.490  0.3788 -1.3114 -2.0763
  150SAPE   C2916526   6.719   5.686   5.306  0.3557  0.2176 -0.0713
  150SAPE   H9R16527   6.780   5.602   5.270  1.0143  1.2714 -1.4834
  150SAPE  C21016528   6.650   5.766   5.203  0.3354 -0.3206  0.9324
  150SAPE  H10R16529   6.591   5.851   5.241  1.7466  1.9132 -1.5021
  150SAPE  H10S16530   6.579   5.705   5.143  0.9093  0.3295 -0.4654
  150SAPE  C21116531   6.746   5.834   5.103  0.2553 -0.6104  0.0705
  150SAPE  H11R16532   6.828   5.884   5.159 -1.6524  1.4992  1.1634
  150SAPE  C21216533   6.731   5.853   4.975 -0.3627 -0.7480  0.7922
  150SAPE  H12R16534   6.805   5.916   4.923  1.9961 -2.9453  1.2641
  150SAPE  C21316535   6.625   5.798   4.888  0.5528 -0.0746  0.5555
  150SAPE  H13R16536   6.555   5.883   4.878 -0.7679 -1.4486 -3.6674
  150SAPE  H13S16537   6.571   5.713   4.935  0.5125  0.7125  2.0030
  150SAPE  C21416538   6.670   5.772   4.748 -0.1356  0.0181  0.7493
  150SAPE  H14R16539   6.776   5.783   4.721 -0.2333  0.0343  0.3675
  150SAPE  C21516540   6.586   5.715   4.658 -0.1442 -0.2251 -0.1184
  150SAPE  H15R16541   6.623   5.677   4.561  1.0241 -1.3735  0.7463
  150SAPE  C21616542   6.439   5.686   4.686 -0.3184  0.6663  0.0700
  150SAPE  H16R16543   6.388   5.758   4.754 -0.7044  0.6558 -0.2018
  150SAPE  H16S16544   6.428   5.587   4.736  1.6459  1.1469  1.5511
  150SAPE  C21716545   6.360   5.666   4.553 -0.7080 -0.1539 -0.2656
  150SAPE  H17R16546   6.405   5.577   4.505  0.8101 -0.0511  0.9213
  150SAPE  H17S16547   6.380   5.753   4.486  2.7642 -0.0630  0.7128
  150SAPE  C21816548   6.216   5.656   4.579 -0.0217 -0.1980 -0.2864
  150SAPE  H18R16549   6.196   5.750   4.636  2.0351  0.2612 -0.2270
  150SAPE  H18S16550   6.177   5.571   4.640 -0.1442 -1.2888 -1.8333
  150SAPE  C21916551   6.127   5.662   4.451 -0.1679  0.3978  0.5187
  150SAPE  H19R16552   6.171   5.750   4.401  0.4881  0.4425  1.1509
  150SAPE  H19S16553   6.020   5.690   4.464 -0.0852  0.1090  1.9887
  150SAPE  C22016554   6.155   5.550   4.354  0.0882  0.0262 -0.5286
  150SAPE  H20R16555   6.108   5.589   4.261  0.2554 -0.5010 -0.8394
  150SAPE  H20S16556   6.103   5.453   4.371 -0.7941  0.5447 -0.2055
  150SAPE  H20T16557   6.262   5.518   4.361  0.2857  0.5166 -1.2004
  150SAPE   C3316558   6.120   5.998   5.611  0.4670  0.0460  0.2064
  150SAPE   H3X16559   6.029   6.060   5.625  0.2871  0.1486 -1.2825
  150SAPE   H3Y16560   6.111   5.889   5.630  0.7666  0.0446  0.3620
  150SAPE   C3416561   6.160   6.008   5.462 -0.7899 -0.6721 -0.4716
  150SAPE   H4X16562   6.250   5.948   5.439  0.7713  2.1802 -2.3919
  150SAPE   H4Y16563   6.192   6.114   5.455  0.1397 -0.8359  0.9142
  150SAPE   C3516564   6.043   5.985   5.375 -0.2268 -0.0208 -0.1748
  150SAPE   H5X16565   6.022   5.876   5.361  0.2685 -0.1356 -0.0497
  150SAPE   H5Y16566   6.067   6.019   5.272  1.7899  0.0944  0.2996
  150SAPE   C3616567   5.915   6.060   5.404 -0.2272  0.3239 -0.7174
  150SAPE   H6X16568   5.937   6.164   5.435 -0.4300 -0.1862  1.3291
  150SAPE   H6Y16569   5.860   6.010   5.487  1.0568 -1.6608 -0.9934
  150SAPE   C3716570   5.820   6.078   5.286 -0.2789 -0.1171 -0.5696
  150SAPE   H7X16571   5.781   5.982   5.246  0.6877 -2.0848  2.8486
  150SAPE   H7Y16572   5.883   6.128   5.209  1.0052 -0.7898  0.0184
  150SAPE   C3816573   5.704   6.171   5.322  0.2734 -0.2187 -0.9485
  150SAPE   H8X16574   5.735   6.268   5.367  1.1359 -1.1157  0.4595
  150SAPE   H8Y16575   5.639   6.127   5.400  3.0868 -0.0612  1.7016
  150SAPE   C3916576   5.612   6.207   5.205 -0.4744 -0.4800  0.5074
  150SAPE   H9X16577   5.674   6.262   5.130 -1.7701 -0.6983 -0.7517
  150SAPE   H9Y16578   5.539   6.284   5.238 -0.2027  0.5253 -1.1013
  150SAPE  C31016579   5.539   6.098   5.133  0.3528 -0.1198 -0.3041
  150SAPE  H10X16580   5.435   6.133   5.114  0.2844 -0.8310 -1.2545
  150SAPE  H10Y16581   5.529   6.015   5.206 -3.8830  1.6747  1.4961
  150SAPE  C31116582   5.598   6.055   4.997 -0.3399 -0.1876  0.1063
  150SAPE  H11X16583   5.709   6.053   5.009  0.0207 -0.3301 -2.6275
  150SAPE  H11Y16584   5.584   6.134   4.920  0.5475 -0.2645 -0.1452
  150SAPE  C31216585   5.535   5.921   4.949 -0.0051 -0.0480 -0.5460
  150SAPE  H12X16586   5.428   5.915   4.979  0.0407 -1.0985 -0.5637
  150SAPE  H12Y16587   5.598   5.848   5.004  0.6123  0.9285  0.0783
  150SAPE  C31316588   5.534   5.880   4.799  0.7230 -0.1436  0.3312
  150SAPE  H13X16589   5.510   5.772   4.783  1.8368 -0.4374  0.5653
  150SAPE  H13Y16590   5.639   5.886   4.765  0.5933  1.5500  0.1643
  150SAPE  C31416591   5.448   5.963   4.704 -1.3808 -0.5966  0.9982
  150SAPE  H14X16592   5.473   6.071   4.714 -2.7742 -0.3925  2.7760
  150SAPE  H14Y16593   5.344   5.954   4.741 -1.4018  2.3534  1.9028
  150SAPE  C31516594   5.465   5.908   4.558  0.2255 -0.0882 -0.1172
  150SAPE  H15X16595   5.416   5.808   4.565  0.6189 -0.4173 -1.6731
  150SAPE  H15Y16596   5.566   5.910   4.513 -0.4733  0.1852 -1.7491
  150SAPE  C31616597   5.373   5.983   4.452  0.3505 -0.5320 -0.3385
  150SAPE  H16X16598   5.441   6.066   4.423  1.0032 -0.2328  1.8717
  150SAPE  H16Y16599   5.284   6.021   4.505  0.9376  0.0142  0.2735
  150SAPE  C31716600   5.344   5.900   4.325  0.5093  1.2542  0.6372
  150SAPE  H17X16601   5.268   5.954   4.265 -1.9531 -1.4066  1.1493
  150SAPE  H17Y16602   5.288   5.809   4.356  1.2849 -0.3238 -2.2659
  150SAPE  C31816603   5.463   5.851   4.241 -0.1479 -0.2437  0.3901
  150SAPE  H18X16604   5.425   5.833   4.138  0.2916 -0.6726  0.3005
  150SAPE  H18Y16605   5.512   5.757   4.275 -0.5608 -1.2641 -1.6802
  150SAPE  H18Z16606   5.544   5.925   4.227 -0.5318 -0.2030 -2.2401
  151SAPE     N16607   5.505   3.432   6.958 -0.2853  0.2212  0.2089
  151SAPE   HN116608   5.440   3.397   7.032 -0.1450  1.2041  0.8179
  151SAPE   HN216609   5.592   3.475   6.995 -0.1894  0.4251 -0.2478
  151SAPE   HN316610   5.455   3.506   6.905  0.6439  0.7667  0.0843
  151SAPE   C1216611   5.536   3.316   6.870 -0.7346  0.0287  0.6495
  151SAPE  H12A16612   5.436   3.274   6.847 -0.9600  1.4449 -1.0857
  151SAPE  H12B16613   5.606   3.244   6.918  2.6544  0.0416 -3.6781
  151SAPE   C1116614   5.587   3.362   6.732 -0.1148  0.6480  0.6923
  151SAPE  H11A16615   5.524   3.438   6.682  0.7946  0.5862 -0.5961
  151SAPE  H11B16616   5.577   3.273   6.665 -1.5540  0.2669  1.3811
  151SAPE     P16617   5.841   3.343   6.679 -0.0979  0.0760 -0.2479
  151SAPE   O1316618   5.972   3.402   6.718 -0.3113  0.1639  0.0735
  151SAPE   O1416619   5.816   3.203   6.709  0.5912  0.2148  0.4664
  151SAPE   O1216620   5.720   3.421   6.737 -0.3506  0.3443  0.0386
  151SAPE   O1116621   5.824   3.357   6.518  0.3418 -0.2380 -0.1441
  151SAPE    C116622   5.776   3.480   6.468 -0.0920  0.1789 -0.5926
  151SAPE    HA16623   5.672   3.486   6.506 -0.1014 -4.4178  0.6887
  151SAPE    HB16624   5.837   3.569   6.493  3.3216 -2.0774 -0.1735
  151SAPE    C216625   5.772   3.492   6.313  0.5438  0.2858 -0.3698
  151SAPE    HS16626   5.675   3.542   6.289 -1.5005 -3.6529 -1.3084
  151SAPE   O2116627   5.780   3.356   6.242 -0.1290  0.3345 -0.0145
  151SAPE   C2116628   5.666   3.291   6.252  0.3220 -0.0911 -0.1162
  151SAPE   O2216629   5.559   3.349   6.283 -0.2821  0.2434 -0.3299
  151SAPE   C2216630   5.677   3.144   6.218  0.4955 -0.2625  0.2440
  151SAPE   H2R16631   5.731   3.137   6.121  0.4450  0.0436  0.1944
  151SAPE   H2S16632   5.722   3.093   6.306 -0.9463 -0.4679  0.8932
  151SAPE    C316633   5.894   3.573   6.260 -0.8499 -0.4588  0.0219
  151SAPE    HX16634   5.988   3.518   6.283 -0.6869  0.4504  1.6413
  151SAPE    HY16635   5.905   3.671   6.311 -0.9088 -0.1884 -0.4750
  151SAPE   O3116636   5.866   3.599   6.119 -0.7851  0.4813 -0.5374
  151SAPE   C3116637   5.958   3.628   6.026 -0.2122 -0.1903 -0.2153
  151SAPE   O3216638   6.071   3.663   6.048 -0.6614 -0.0096 -0.3632
  151SAPE   C3216639   5.885   3.633   5.893  0.0473 -0.5136  1.1883
  151SAPE   H2X16640   5.818   3.719   5.874 -1.1587 -1.3860  1.3889
  151SAPE   H2Y16641   5.821   3.542   5.888 -1.0828  0.2599  1.1903
  151SAPE   C2316642   5.537   3.073   6.206  0.1470  0.0853 -0.4140
  151SAPE   H3R16643   5.489   3.075   6.306 -1.8515  0.2495 -1.3166
  151SAPE   H3S16644   5.557   2.965   6.188  0.4265  0.3329 -1.6610
  151SAPE   C2416645   5.442   3.128   6.095  0.0661  0.3119 -0.3385
  151SAPE   H4R16646   5.400   3.223   6.134  1.1779  1.2763 -1.4160
  151SAPE   H4S16647   5.356   3.058   6.085  0.9217 -1.0647  1.4711
  151SAPE   C2516648   5.509   3.153   5.961 -0.0748  0.0492 -0.0744
  151SAPE   H5R16649   5.545   3.057   5.922 -0.7244 -0.6357  0.9827
  151SAPE   C2616650   5.548   3.265   5.901 -0.4524 -0.0904  0.2519
  151SAPE   H6R16651   5.609   3.254   5.810 -0.0992  1.0048  0.3354
  151SAPE   C2716652   5.518   3.410   5.938  0.2055 -0.0372 -0.1888
  151SAPE   H7R16653   5.602   3.476   5.906 -1.0339  1.0368 -1.3801
  151SAPE   H7S16654   5.517   3.422   6.049 -1.8218  1.7729 -0.3356
  151SAPE   C2816655   5.382   3.466   5.897  0.2456 -0.1113 -0.5510
  151SAPE   H8R16656   5.326   3.513   5.980  2.6547 -2.6799  2.7744
  151SAPE   C2916657   5.325   3.469   5.773 -0.4566 -0.3251  0.0646
  151SAPE   H9R16658   5.218   3.493   5.769 -0.2850  0.2774 -1.8028
  151SAPE  C21016659   5.386   3.423   5.643 -0.4074 -0.1328 -0.3912
  151SAPE  H10R16660   5.496   3.426   5.657 -0.6553  1.4346  1.4905
  151SAPE  H10S16661   5.363   3.492   5.559 -1.1271 -2.0243 -1.8360
  151SAPE  C21116662   5.347   3.282   5.614 -1.0358 -0.1020  0.0353
  151SAPE  H11R16663   5.302   3.230   5.700 -0.0831  3.3199  2.8166
  151SAPE  C21216664   5.332   3.229   5.492 -0.3252 -0.3805 -0.2307
  151SAPE  H12R16665   5.280   3.132   5.483 -1.3405  0.3035 -2.1059
  151SAPE  C21316666   5.348   3.293   5.357  0.0365 -0.7927  1.1265
  151SAPE  H13R16667   5.400   3.228   5.284  0.8086  0.4533  0.5343
  151SAPE  H13S16668   5.429   3.368   5.371  0.4016 -1.0881  0.6370
  151SAPE  C21416669   5.219   3.363   5.312  0.1879 -0.8923  0.7615
  151SAPE  H14R16670   5.211   3.472   5.324  0.3038 -0.8714  0.6512
  151SAPE  C21516671   5.131   3.294   5.241  0.0238  0.4553 -0.2092
  151SAPE  H15R16672   5.038   3.344   5.209 -0.0700  1.8372  1.9760
  151SAPE  C21616673   5.130   3.146   5.215  0.2253  0.3897  0.5666
  151SAPE  H16R16674   5.058   3.098   5.284  0.8504 -0.8805  0.3699
  151SAPE  H16S16675   5.224   3.088   5.231 -1.7724 -4.0274 -1.7578
  151SAPE  C21716676   5.108   3.121   5.065  0.0741 -0.2623  1.0773
  151SAPE  H17R16677   5.198   3.163   5.016 -0.3962 -1.2972 -0.7368
  151SAPE  H17S16678   5.023   3.182   5.027  0.1268 -0.0242  1.3407
  151SAPE  C21816679   5.104   2.978   5.025 -0.4730 -0.1242  0.3714
  151SAPE  H18R16680   5.025   2.915   5.073 -2.4036  2.5189  0.9010
  151SAPE  H18S16681   5.205   2.938   5.046 -0.4654 -0.5066 -0.3614
  151SAPE  C21916682   5.079   2.951   4.871 -0.1141 -0.4527  0.2517
  151SAPE  H19R16683   5.155   2.987   4.799 -2.6355  0.8870 -1.9426
  151SAPE  H19S16684   4.982   3.003   4.855 -0.0229 -0.3380  0.0733
  151SAPE  C22016685   5.038   2.807   4.837  0.1534  0.2455  0.6139
  151SAPE  H20R16686   5.124   2.738   4.850 -1.3557 -2.8352 -3.3466
  151SAPE  H20S16687   5.005   2.801   4.731  1.5028 -0.5797  0.2214
  151SAPE  H20T16688   4.955   2.776   4.905 -1.5366  3.1810  0.0811
  151SAPE   C3316689   5.988   3.629   5.774  0.3667  0.4796 -0.2226
  151SAPE   H3X16690   6.047   3.535   5.778 -1.1028 -0.5784 -2.1006
  151SAPE   H3Y16691   6.057   3.716   5.772  1.1335 -0.1121 -0.3449
  151SAPE   C3416692   5.921   3.617   5.641  0.0199  0.0788 -0.4551
  151SAPE   H4X16693   5.996   3.632   5.561 -1.0977 -1.5449 -1.8923
  151SAPE   H4Y16694   5.850   3.702   5.641  1.7772  1.6391  1.3282
  151SAPE   C3516695   5.839   3.482   5.618  0.6670 -0.2460 -0.0590
  151SAPE   H5X16696   5.763   3.469   5.698 -0.6058  1.8256 -0.8387
  151SAPE   H5Y16697   5.913   3.401   5.632  1.2806  0.2706 -0.2593
  151SAPE   C3616698   5.769   3.489   5.477  0.4669 -0.9102 -0.1254
  151SAPE   H6X16699   5.699   3.575   5.475  2.0015  0.4340  1.0656
  151SAPE   H6Y16700   5.706   3.397   5.477  1.9928 -1.9936  0.2082
  151SAPE   C3716701   5.856   3.487   5.356 -0.9912 -0.5699 -1.7686
  151SAPE   H7X16702   5.917   3.395   5.374 -1.0361 -0.1695  0.9665
  151SAPE   H7Y16703   5.916   3.580   5.350 -0.5669 -0.8100 -1.3623
  151SAPE   C3816704   5.771   3.492   5.230  0.0214 -0.5756  0.0980
  151SAPE   H8X16705   5.712   3.586   5.237  0.5971 -0.1000 -1.1840
  151SAPE   H8Y16706   5.694   3.412   5.228  0.2710 -0.8970  1.8547
  151SAPE   C3916707   5.860   3.492   5.107  0.4763 -0.3047 -0.1146
  151SAPE   H9X16708   5.885   3.385   5.091 -1.5549 -0.5640 -1.8710
  151SAPE   H9Y16709   5.953   3.549   5.128 -0.1636  1.1847 -1.1476
  151SAPE  C31016710   5.783   3.546   4.983 -0.1690  0.2292  0.5478
  151SAPE  H10X16711   5.779   3.657   4.984  0.2614  0.3001 -1.1923
  151SAPE  H10Y16712   5.679   3.508   4.985 -0.4213  0.9275  1.1751
  151SAPE  C31116713   5.853   3.499   4.848 -0.4167 -0.3545 -0.2516
  151SAPE  H11X16714   5.847   3.388   4.841 -2.0904 -0.2753 -0.5993
  151SAPE  H11Y16715   5.961   3.525   4.853 -0.1121 -1.3645 -1.1818
  151SAPE  C31216716   5.785   3.559   4.725  0.1991 -0.3880  0.2715
  151SAPE  H12X16717   5.788   3.670   4.722  0.4749 -0.4115 -0.5854
  151SAPE  H12Y16718   5.677   3.532   4.726 -0.3401  1.4671 -1.1022
  151SAPE  C31316719   5.856   3.515   4.599 -0.0403 -0.1670  0.0048
  151SAPE  H13X16720   5.888   3.409   4.598  1.3292  0.2225  0.7230
  151SAPE  H13Y16721   5.948   3.577   4.591  0.5043 -1.1116 -1.3200
  151SAPE  C31416722   5.776   3.539   4.472 -0.5897  0.7778 -0.9682
  151SAPE  H14X16723   5.750   3.646   4.463 -1.8301  0.7706  1.4945
  151SAPE  H14Y16724   5.677   3.494   4.495 -0.1834 -0.5447 -1.7041
  151SAPE  C31516725   5.848   3.467   4.358 -0.7671 -0.3748  0.0792
  151SAPE  H15X16726   5.884   3.368   4.392  0.6902 -0.3667 -1.2998
  151SAPE  H15Y16727   5.929   3.531   4.316 -0.8315 -0.3902 -0.0702
  151SAPE  C31616728   5.752   3.442   4.238  0.4220  0.1022  0.2671
  151SAPE  H16X16729   5.667   3.376   4.264  1.1629 -0.6747  0.7437
  151SAPE  H16Y16730   5.821   3.391   4.167 -0.8075  0.0764 -0.9588
  151SAPE  C31716731   5.688   3.562   4.163  0.2070  0.1365  1.1560
  151SAPE  H17X16732   5.617   3.615   4.229 -0.8478  1.3248 -0.8470
  151SAPE  H17Y16733   5.628   3.521   4.079  2.1134  0.5287 -0.4859
  151SAPE  C31816734   5.799   3.662   4.107  0.0278  0.9381 -0.0553
  151SAPE  H18X16735   5.874   3.605   4.049 -1.3196 -0.1379 -0.8056
  151SAPE  H18Y16736   5.851   3.711   4.192  1.1847  0.7189 -0.6201
  151SAPE  H18Z16737   5.759   3.745   4.045 -0.2145 -0.5270 -1.9533
  152SAPE     N16738   5.661   5.296   6.694  0.0736 -0.1327 -0.8086
  152SAPE   HN116739   5.708   5.218   6.744  4.0482  1.5710 -1.4785
  152SAPE   HN216740   5.732   5.371   6.684  0.1692 -0.1093 -0.0058
  152SAPE   HN316741   5.579   5.332   6.746  0.8935 -1.3159  1.4373
  152SAPE   C1216742   5.622   5.265   6.554  0.6998 -0.3921 -0.6062
  152SAPE  H12A16743   5.534   5.199   6.567  1.0989 -0.3573  3.6336
  152SAPE  H12B16744   5.712   5.214   6.512  1.0899 -0.8792  0.7804
  152SAPE   C1116745   5.590   5.394   6.484  0.4268  0.0150  0.2853
  152SAPE  H11A16746   5.525   5.453   6.551  0.0160 -0.5945  0.4326
  152SAPE  H11B16747   5.547   5.382   6.382  0.9400  0.6931 -0.0182
  152SAPE     P16748   5.729   5.625   6.481  0.1949  0.2042  0.0124
  152SAPE   O1316749   5.630   5.696   6.408 -0.3693 -0.5486  0.0365
  152SAPE   O1416750   5.733   5.653   6.625 -0.4829 -0.2401 -0.2703
  152SAPE   O1216751   5.716   5.466   6.466  0.0223 -0.0484 -0.3875
  152SAPE   O1116752   5.871   5.660   6.420  0.3070  0.5084 -0.3920
  152SAPE    C116753   5.912   5.619   6.289  0.1789 -0.3610 -0.2812
  152SAPE    HA16754   6.023   5.623   6.279  0.1180  0.2703 -0.8015
  152SAPE    HB16755   5.883   5.512   6.277 -0.1359 -0.4397  1.0724
  152SAPE    C216756   5.853   5.713   6.188 -0.2878  0.4741  0.6019
  152SAPE    HS16757   5.842   5.814   6.232  1.9682  0.4789  1.3016
  152SAPE   O2116758   5.738   5.650   6.138 -0.0574  0.0829  0.1492
  152SAPE   C2116759   5.637   5.729   6.109 -0.2948 -0.3581  0.1604
  152SAPE   O2216760   5.621   5.848   6.133  0.8852 -0.3236 -0.9113
  152SAPE   C2216761   5.532   5.651   6.030 -0.5742  0.0147 -0.6353
  152SAPE   H2R16762   5.577   5.642   5.929 -2.4367 -1.8392 -1.3628
  152SAPE   H2S16763   5.525   5.548   6.069  0.9040 -0.4080 -1.4044
  152SAPE    C316764   5.946   5.744   6.065 -0.5422 -0.3553  0.0451
  152SAPE    HX16765   5.985   5.648   6.025 -1.0011 -0.3462 -0.4493
  152SAPE    HY16766   6.034   5.794   6.110  0.3977  0.3353 -2.3990
  152SAPE   O3116767   5.888   5.818   5.957  0.1396 -0.2714 -0.1965
  152SAPE   C3116768   5.882   5.951   5.973 -0.2358  0.0390  0.7135
  152SAPE   O3216769   5.929   6.013   6.065  0.5556 -0.2929  0.2314
  152SAPE   C3216770   5.820   6.012   5.851  0.0130 -0.7976 -1.0424
  152SAPE   H2X16771   5.883   5.968   5.771  0.8759 -1.8398  0.1631
  152SAPE   H2Y16772   5.805   6.122   5.854 -0.0223 -0.8166  1.0408
  152SAPE   C2316773   5.404   5.732   6.020  0.1787 -0.7280  0.8418
  152SAPE   H3R16774   5.436   5.828   5.973  1.5333 -1.5851 -0.0701
  152SAPE   H3S16775   5.348   5.751   6.114  0.0227 -0.5912  0.7235
  152SAPE   C2416776   5.298   5.664   5.924 -0.6437 -1.1734  0.5710
  152SAPE   H4R16777   5.348   5.646   5.827  1.5116  1.5458  1.0483
  152SAPE   H4S16778   5.212   5.734   5.912 -0.0084 -0.6100 -0.9527
  152SAPE   C2516779   5.249   5.530   5.983  0.2540 -0.5876 -0.4550
  152SAPE   H5R16780   5.190   5.553   6.073 -2.2840  0.7671 -2.3323
  152SAPE   C2616781   5.251   5.408   5.926 -0.5887 -0.7503 -0.4706
  152SAPE   H6R16782   5.197   5.329   5.980  0.3426 -0.9017  0.2567
  152SAPE   C2716783   5.323   5.366   5.801  0.1880  0.0858 -0.7502
  152SAPE   H7R16784   5.352   5.261   5.821  0.6788  0.4894  0.8313
  152SAPE   H7S16785   5.420   5.421   5.796  0.0727  0.5860  1.4194
  152SAPE   C2816786   5.247   5.387   5.673 -0.5990  0.3927 -0.4354
  152SAPE   H8R16787   5.175   5.470   5.663  0.2783  1.4033  1.1651
  152SAPE   C2916788   5.262   5.308   5.565  0.1374 -0.6073  0.4720
  152SAPE   H9R16789   5.216   5.341   5.470  2.9962  0.3256 -0.6943
  152SAPE  C21016790   5.373   5.208   5.554  0.2328  0.4942  0.9277
  152SAPE  H10R16791   5.345   5.126   5.625  2.2566  0.5559  1.8750
  152SAPE  H10S16792   5.473   5.243   5.587  2.6964 -3.6512 -1.3332
  152SAPE  C21116793   5.384   5.148   5.413 -0.0280  0.0591  0.8354
  152SAPE  H11R16794   5.291   5.091   5.397 -0.9133  1.2591  1.5320
  152SAPE  C21216795   5.471   5.161   5.306  0.7838 -0.0050 -0.9604
  152SAPE  H12R16796   5.449   5.119   5.206  1.0940  0.9733 -1.4516
  152SAPE  C21316797   5.594   5.246   5.316 -0.2417 -0.7215 -0.4741
  152SAPE  H13R16798   5.621   5.260   5.423 -1.1972  0.1254 -0.3297
  152SAPE  H13S16799   5.556   5.344   5.280 -0.2690 -0.3146  0.6272
  152SAPE  C21416800   5.710   5.202   5.223  0.6569 -0.3413 -0.0371
  152SAPE  H14R16801   5.787   5.138   5.269  0.4512 -0.6480 -0.1103
  152SAPE  C21516802   5.727   5.224   5.093 -0.1978 -0.7124  0.4239
  152SAPE  H15R16803   5.813   5.173   5.048  3.3785  2.5428  2.8285
  152SAPE  C21616804   5.625   5.293   5.009  0.3933  0.4876 -0.4037
  152SAPE  H16R16805   5.570   5.374   5.062  1.0596  0.4585  0.3499
  152SAPE  H16S16806   5.555   5.219   4.965  0.9296 -0.8986  1.0124
  152SAPE  C21716807   5.712   5.359   4.892  0.7407 -0.5750  0.6653
  152SAPE  H17R16808   5.743   5.272   4.829 -0.5525 -3.2800  3.4716
  152SAPE  H17S16809   5.801   5.414   4.927  2.5445 -2.2526 -1.0138
  152SAPE  C21816810   5.620   5.447   4.801 -0.5094  0.0635 -0.3966
  152SAPE  H18R16811   5.559   5.525   4.852  0.9125  0.6692  0.4260
  152SAPE  H18S16812   5.544   5.389   4.744  0.0550  1.7792 -3.0959
  152SAPE  C21916813   5.706   5.513   4.690 -0.0876  0.4062  0.0048
  152SAPE  H19R16814   5.780   5.439   4.652 -2.1173 -0.4461 -2.6017
  152SAPE  H19S16815   5.762   5.602   4.726  0.4473 -0.4037  1.2373
  152SAPE  C22016816   5.627   5.556   4.568 -0.2917 -0.0928  0.5851
  152SAPE  H20R16817   5.676   5.620   4.490  0.7513 -2.7253 -1.0701
  152SAPE  H20S16818   5.536   5.609   4.604  2.0852  2.1151  3.8963
  152SAPE  H20T16819   5.597   5.462   4.517  2.3210 -1.0099  0.5575
  152SAPE   C3316820   5.680   5.951   5.823  0.5878 -0.0239  0.8534
  152SAPE   H3X16821   5.615   5.998   5.901  1.9353 -0.7781  2.5035
  152SAPE   H3Y16822   5.673   5.841   5.839 -0.3922 -0.2219 -0.6979
  152SAPE   C3416823   5.637   5.999   5.686 -0.4556  0.1341 -0.6061
  152SAPE   H4X16824   5.707   5.961   5.609 -0.2807  0.2476 -0.5026
  152SAPE   H4Y16825   5.652   6.109   5.680  0.3866  0.1181  0.8548
  152SAPE   C3516826   5.495   5.966   5.649 -0.3364 -0.1001  0.0083
  152SAPE   H5X16827   5.473   6.058   5.591  2.3251  0.0651 -0.8713
  152SAPE   H5Y16828   5.427   5.967   5.737  3.0237  1.3195  2.8033
  152SAPE   C3616829   5.484   5.836   5.565  0.0863  0.0436 -0.7885
  152SAPE   H6X16830   5.500   5.757   5.641 -0.4505  0.0597 -0.6571
  152SAPE   H6Y16831   5.552   5.840   5.477 -0.5721 -0.1667 -1.3125
  152SAPE   C3716832   5.339   5.815   5.530  0.3614  0.3748  0.0959
  152SAPE   H7X16833   5.318   5.902   5.465 -1.1228 -0.8718 -1.1666
  152SAPE   H7Y16834   5.267   5.815   5.615 -1.7319 -0.5546 -1.5914
  152SAPE   C3816835   5.317   5.688   5.438  0.2489 -0.3338 -1.0848
  152SAPE   H8X16836   5.208   5.671   5.439  0.1543 -0.1160 -3.1708
  152SAPE   H8Y16837   5.380   5.601   5.466  2.1412 -0.0196 -3.9312
  152SAPE   C3916838   5.335   5.723   5.289 -0.5494 -0.3011  0.1319
  152SAPE   H9X16839   5.442   5.751   5.287 -0.0773 -2.0293 -1.4082
  152SAPE   H9Y16840   5.285   5.819   5.265  2.0484  1.2637  0.6198
  152SAPE  C31016841   5.282   5.626   5.187 -0.5506 -0.2517  0.0982
  152SAPE  H10X16842   5.172   5.616   5.200 -0.4896  0.4206  1.2506
  152SAPE  H10Y16843   5.326   5.529   5.217 -0.0713 -0.0748 -0.0162
  152SAPE  C31116844   5.312   5.655   5.037 -0.7453 -0.0342  0.8577
  152SAPE  H11X16845   5.420   5.649   5.013 -0.6008  2.2579  0.7252
  152SAPE  H11Y16846   5.280   5.757   5.009  0.5226  0.4040  0.9420
  152SAPE  C31216847   5.244   5.554   4.942 -0.1264  0.0564 -0.4049
  152SAPE  H12X16848   5.139   5.534   4.970 -0.2596 -0.0091 -0.9534
  152SAPE  H12Y16849   5.306   5.462   4.942  0.7423  0.5774 -2.5577
  152SAPE  C31316850   5.249   5.605   4.797  0.5646 -0.1693  0.6903
  152SAPE  H13X16851   5.356   5.613   4.768 -0.1713  0.0356 -2.4052
  152SAPE  H13Y16852   5.214   5.710   4.793  1.0289 -0.0405 -0.7564
  152SAPE  C31416853   5.165   5.522   4.701 -0.8242 -0.3167  0.1479
  152SAPE  H14X16854   5.061   5.519   4.740 -1.0165  1.7922 -0.0615
  152SAPE  H14Y16855   5.206   5.420   4.686 -0.3784 -0.0394 -0.5990
  152SAPE  C31516856   5.187   5.583   4.558  0.6996 -0.1505 -0.0454
  152SAPE  H15X16857   5.293   5.569   4.529  0.1001 -2.5218 -1.3240
  152SAPE  H15Y16858   5.155   5.690   4.559 -0.6771 -0.4813  3.3235
  152SAPE  C31616859   5.104   5.502   4.460  0.6022  1.4447  0.4309
  152SAPE  H16X16860   4.999   5.477   4.488  1.7029 -0.0511  3.7899
  152SAPE  H16Y16861   5.152   5.402   4.471  1.0904  1.5758 -0.4168
  152SAPE  C31716862   5.101   5.552   4.313  0.2259  0.5229  0.1330
  152SAPE  H17X16863   5.060   5.476   4.242  1.1380  1.6359 -1.6745
  152SAPE  H17Y16864   5.208   5.566   4.287  0.4795  0.0977  0.9326
  152SAPE  C31816865   5.019   5.681   4.292 -0.0182 -0.2245 -0.3596
  152SAPE  H18X16866   5.034   5.744   4.383  0.8799 -0.4380 -0.3492
  152SAPE  H18Y16867   4.911   5.675   4.267 -0.6026 -0.5527  1.9352
  152SAPE  H18Z16868   5.073   5.738   4.213 -1.0200  0.9127 -0.2541
  153SAPE     N16869   5.541   5.948   6.391  0.4622 -0.1853 -0.5411
  153SAPE   HN116870   5.569   5.848   6.379  2.5942  0.5000 -1.8284
  153SAPE   HN216871   5.611   6.009   6.346 -0.8553  0.4336 -1.8449
  153SAPE   HN316872   5.550   5.978   6.490 -1.4277  1.5951 -0.8435
  153SAPE   C1216873   5.399   5.982   6.365 -0.5178 -0.3146  0.8024
  153SAPE  H12A16874   5.379   6.006   6.259  0.8321  2.5515  1.1034
  153SAPE  H12B16875   5.372   6.069   6.428  0.5926 -0.0018  0.8721
  153SAPE   C1116876   5.305   5.871   6.404 -0.2019  0.2926  0.1571
  153SAPE  H11A16877   5.331   5.793   6.330 -0.9542  1.0962 -0.9855
  153SAPE  H11B16878   5.203   5.914   6.395 -0.9660 -1.2916  0.8842
  153SAPE     P16879   5.233   5.741   6.616  0.1873 -0.2817  0.1687
  153SAPE   O1316880   5.321   5.673   6.718  0.7235 -0.1084  1.0178
  153SAPE   O1416881   5.119   5.819   6.673 -0.0826 -0.0033  0.4519
  153SAPE   O1216882   5.336   5.829   6.537  0.4851 -0.0425  0.3152
  153SAPE   O1116883   5.179   5.639   6.510  0.0310  0.1989  0.5544
  153SAPE    C116884   5.085   5.536   6.537 -0.1135  0.2706 -0.8944
  153SAPE    HA16885   5.138   5.456   6.592 -0.2885 -0.0569 -1.1986
  153SAPE    HB16886   4.992   5.577   6.583 -2.2776 -1.1699 -3.6186
  153SAPE    C216887   5.028   5.485   6.403  0.4877 -0.6430  0.1573
  153SAPE    HS16888   4.940   5.425   6.433 -0.6314  0.3275 -1.0881
  153SAPE   O2116889   5.118   5.407   6.320  0.4317 -0.2366 -0.2063
  153SAPE   C2116890   5.141   5.291   6.376 -0.5071 -0.0455 -0.3999
  153SAPE   O2216891   5.077   5.243   6.466  0.7163  0.5556 -0.1092
  153SAPE   C2216892   5.270   5.230   6.319 -0.0488 -0.7514  0.0785
  153SAPE   H2R16893   5.279   5.272   6.216 -0.2771 -0.7791  0.0460
  153SAPE   H2S16894   5.354   5.265   6.381 -0.8540 -1.3421  1.5451
  153SAPE    C316895   4.975   5.602   6.324  0.2138 -0.5378  0.5036
  153SAPE    HX16896   5.061   5.670   6.301 -0.7565  1.5709  2.6834
  153SAPE    HY16897   4.894   5.662   6.370  1.6389  0.3687  1.9569
  153SAPE   O3116898   4.919   5.566   6.191 -0.0083 -0.0959 -0.6691
  153SAPE   C3116899   4.799   5.504   6.191  0.1381  0.7053  0.0525
  153SAPE   O3216900   4.740   5.473   6.291 -0.0476 -0.4916 -0.4048
  153SAPE   C3216901   4.743   5.494   6.053 -0.1773 -0.0072 -0.0373
  153SAPE   H2X16902   4.735   5.594   6.006  0.5459 -1.1433 -2.7747
  153SAPE   H2Y16903   4.639   5.454   6.061 -0.2228  0.4683  2.8835
  153SAPE   C2316904   5.277   5.073   6.298  0.9894  0.0860  0.0944
  153SAPE   H3R16905   5.183   5.037   6.251  1.6912 -0.4298 -0.9859
  153SAPE   H3S16906   5.285   5.019   6.395 -1.5495 -1.0673 -0.2612
  153SAPE   C2416907   5.394   5.019   6.205  0.0865 -0.6907  0.1875
  153SAPE   H4R16908   5.395   5.080   6.112 -1.2739  0.3836  0.8259
  153SAPE   H4S16909   5.385   4.914   6.172 -1.7326 -0.3860 -0.4175
  153SAPE   C2516910   5.531   5.039   6.261  0.2027  0.2986 -0.5588
  153SAPE   H5R16911   5.552   4.961   6.335 -1.3402 -0.4667 -0.8968
  153SAPE   C2616912   5.627   5.124   6.229  0.5706  0.3097 -0.5611
  153SAPE   H6R16913   5.720   5.115   6.287  0.0539 -1.0885  0.0977
  153SAPE   C2716914   5.626   5.228   6.121  0.0244  0.3138 -1.0243
  153SAPE   H7R16915   5.576   5.312   6.174  0.2860 -0.5986  0.7473
  153SAPE   H7S16916   5.558   5.194   6.041 -1.4854  0.7398  0.0410
  153SAPE   C2816917   5.763   5.273   6.077 -0.3501  0.2149 -0.7063
  153SAPE   H8R16918   5.838   5.295   6.154 -0.5628 -0.0240 -0.4265
  153SAPE   C2916919   5.801   5.290   5.950 -0.3052 -0.2272  0.5448
  153SAPE   H9R16920   5.900   5.334   5.930  0.6730 -2.3051  0.5335
  153SAPE  C21016921   5.704   5.289   5.826  0.0470  0.4634  0.4183
  153SAPE  H10R16922   5.619   5.361   5.832  0.4153  0.8945  0.5936
  153SAPE  H10S16923   5.665   5.186   5.836 -1.3805  0.9988  0.5684
  153SAPE  C21116924   5.758   5.298   5.687 -0.2376  0.3290 -0.1466
  153SAPE  H11R16925   5.820   5.211   5.663 -1.2978 -0.4583 -0.1302
  153SAPE  C21216926   5.752   5.398   5.601  0.3144  0.2187 -0.0384
  153SAPE  H12R16927   5.797   5.390   5.501 -3.4350  0.5774 -1.9280
  153SAPE  C21316928   5.683   5.534   5.621 -0.3796  0.5130  0.1447
  153SAPE  H13R16929   5.684   5.554   5.730  0.7554  0.3342  0.1794
  153SAPE  H13S16930   5.572   5.537   5.615 -0.5963 -2.6750  0.6014
  153SAPE  C21416931   5.745   5.655   5.557 -0.1122  0.0717 -0.5887
  153SAPE  H14R16932   5.780   5.720   5.639 -0.3372 -1.2460  0.6069
  153SAPE  C21516933   5.767   5.686   5.427 -0.3018 -0.3781  0.2125
  153SAPE  H15R16934   5.798   5.786   5.396  2.0109 -0.6788  1.3555
  153SAPE  C21616935   5.747   5.603   5.308 -0.0093  0.4528 -0.3782
  153SAPE  H16R16936   5.655   5.645   5.262 -0.2864  1.5642  1.1381
  153SAPE  H16S16937   5.725   5.498   5.336 -0.2011  0.7792  0.7188
  153SAPE  C21716938   5.860   5.597   5.202 -0.0165 -0.1403  0.2893
  153SAPE  H17R16939   5.844   5.507   5.140  0.2466  1.4377 -2.2249
  153SAPE  H17S16940   5.959   5.599   5.252  0.7441  0.4502 -1.2115
  153SAPE  C21816941   5.851   5.713   5.108  0.2883 -0.0184 -0.2922
  153SAPE  H18R16942   5.822   5.810   5.154  1.9009 -0.3744  1.6029
  153SAPE  H18S16943   5.779   5.696   5.025  0.8439  0.6152 -0.9153
  153SAPE  C21916944   5.994   5.747   5.056  0.2702  0.2136 -0.7144
  153SAPE  H19R16945   6.031   5.663   4.993 -2.2003 -1.7724  0.3325
  153SAPE  H19S16946   6.057   5.751   5.148 -1.4119  2.0203  0.4269
  153SAPE  C22016947   5.990   5.864   4.965  0.2368  0.6439  0.0627
  153SAPE  H20R16948   6.087   5.874   4.912 -0.4489  0.9306 -1.1619
  153SAPE  H20S16949   5.958   5.953   5.024 -0.8713  0.6382 -0.5071
  153SAPE  H20T16950   5.910   5.842   4.892 -1.9667  0.0087  2.5124
  153SAPE   C3316951   4.821   5.381   5.976  0.2353 -0.1925  0.1117
  153SAPE   H3X16952   4.805   5.282   6.022 -2.5850 -0.9286 -2.1654
  153SAPE   H3Y16953   4.928   5.410   5.971  0.9767 -2.6935  0.3786
  153SAPE   C3416954   4.759   5.373   5.829  0.0672 -0.1968 -0.7184
  153SAPE   H4X16955   4.753   5.473   5.781  0.1190  1.1514  1.8531
  153SAPE   H4Y16956   4.651   5.349   5.828 -0.5897  2.2476  0.9703
  153SAPE   C3516957   4.835   5.279   5.736  0.2595 -0.1118  0.5142
  153SAPE   H5X16958   4.804   5.175   5.759  1.6842 -0.3883  1.2980
  153SAPE   H5Y16959   4.943   5.293   5.753  0.7124 -0.1789 -1.9312
  153SAPE   C3616960   4.811   5.310   5.582  0.1610  0.1426 -0.3764
  153SAPE   H6X16961   4.839   5.415   5.557 -0.6162  0.0508 -1.7866
  153SAPE   H6Y16962   4.702   5.296   5.565 -0.1510 -3.0266  3.0212
  153SAPE   C3716963   4.893   5.223   5.493  0.6115  0.6720  0.2219
  153SAPE   H7X16964   4.842   5.126   5.479 -1.2483  1.2811  2.2360
  153SAPE   H7Y16965   4.987   5.195   5.545  0.2253 -0.5896  0.2602
  153SAPE   C3816966   4.928   5.285   5.356  0.3193 -0.3280 -0.2829
  153SAPE   H8X16967   4.993   5.368   5.391  0.1669 -0.4686  0.3392
  153SAPE   H8Y16968   4.835   5.320   5.306 -0.5217 -2.1491 -0.0672
  153SAPE   C3916969   5.006   5.191   5.263 -0.0531 -0.5700  0.2601
  153SAPE   H9X16970   4.937   5.109   5.234  0.0418 -0.3222 -0.6813
  153SAPE   H9Y16971   5.094   5.149   5.316  0.8418  0.6756 -0.1960
  153SAPE  C31016972   5.064   5.262   5.138 -0.5993 -0.2155  0.4941
  153SAPE  H10X16973   5.158   5.317   5.161 -1.2978  0.1659  2.6318
  153SAPE  H10Y16974   5.000   5.348   5.108  2.1399  1.0912 -2.2187
  153SAPE  C31116975   5.085   5.162   5.015 -0.5347 -1.1267  0.8330
  153SAPE  H11X16976   5.138   5.222   4.938 -0.8015 -3.5030 -1.3110
  153SAPE  H11Y16977   4.982   5.139   4.982  0.0486 -1.2459 -1.0136
  153SAPE  C31216978   5.151   5.028   5.045 -0.3378 -0.4697  0.0357
  153SAPE  H12X16979   5.065   4.961   5.067 -1.3633  0.6362 -0.5571
  153SAPE  H12Y16980   5.218   5.030   5.134  1.1940 -2.1855 -0.9938
  153SAPE  C31316981   5.219   4.962   4.927 -0.0711  0.3917 -0.0943
  153SAPE  H13X16982   5.157   4.968   4.835  1.2260 -1.9640 -1.2057
  153SAPE  H13Y16983   5.245   4.859   4.958  0.0544  1.1345  2.5629
  153SAPE  C31416984   5.351   5.021   4.887  0.0082  0.4290  0.1266
  153SAPE  H14X16985   5.416   5.005   4.976 -2.1452  0.5114  1.8090
  153SAPE  H14Y16986   5.338   5.131   4.881 -1.2627  0.2499 -0.6130
  153SAPE  C31516987   5.404   4.964   4.755 -0.6021  0.3497  0.0150
  153SAPE  H15X16988   5.337   4.990   4.670 -0.2117  2.0390  0.1841
  153SAPE  H15Y16989   5.414   4.853   4.761  1.1297  0.4771  0.0535
  153SAPE  C31616990   5.544   5.025   4.727  0.2840 -0.5515 -0.2244
  153SAPE  H16X16991   5.624   5.006   4.801  0.4985 -0.0023 -0.3157
  153SAPE  H16Y16992   5.524   5.134   4.722  0.9536 -0.3676  0.7839
  153SAPE  C31716993   5.606   4.990   4.594  0.5099  0.1628  0.5417
  153SAPE  H17X16994   5.535   5.009   4.511  0.7904 -0.9496  0.0166
  153SAPE  H17Y16995   5.627   4.880   4.589  0.8497  0.2233  0.6001
  153SAPE  C31816996   5.737   5.071   4.576  0.2742  0.0364  0.0504
  153SAPE  H18X16997   5.801   5.045   4.489  0.4195 -0.0978  0.1998
  153SAPE  H18Y16998   5.811   5.063   4.658 -0.2858 -0.3110  0.5241
  153SAPE  H18Z16999   5.715   5.178   4.556  3.0630  0.5608 -0.5797
  154SAPE     N17000   2.844   3.558   6.555  0.2365 -0.3378 -0.2631
  154SAPE   HN117001   2.764   3.496   6.530  0.7914 -0.5340 -1.6295
  154SAPE   HN217002   2.822   3.657   6.531  2.0647 -0.1914 -1.5144
  154SAPE   HN317003   2.929   3.527   6.504 -0.0973 -1.2586 -0.2924
  154SAPE   C1217004   2.881   3.545   6.699  0.2606 -0.2609  0.1264
  154SAPE  H12A17005   2.988   3.574   6.706  0.0983  0.1388  0.9862
  154SAPE  H12B17006   2.886   3.435   6.711  1.3454 -0.1379  1.0545
  154SAPE   C1117007   2.786   3.619   6.791  0.4609  0.1650 -0.1988
  154SAPE  H11A17008   2.817   3.584   6.892 -0.5580 -1.3752 -0.3912
  154SAPE  H11B17009   2.680   3.595   6.770  0.6696  1.0580 -2.5416
  154SAPE     P17010   2.666   3.840   6.726 -0.9088 -0.1780 -0.0374
  154SAPE   O1317011   2.553   3.813   6.813  0.5545 -0.6637  0.1901
  154SAPE   O1417012   2.701   3.981   6.693 -0.6193  0.1046  0.0837
  154SAPE   O1217013   2.798   3.761   6.769  0.1897 -0.3942  0.2773
  154SAPE   O1117014   2.650   3.760   6.592  0.5257 -0.6037 -0.0184
  154SAPE    C117015   2.520   3.764   6.526 -0.4064 -0.2456 -0.4519
  154SAPE    HA17016   2.466   3.675   6.565  2.3991 -0.9273  2.3235
  154SAPE    HB17017   2.464   3.859   6.540 -0.8078 -0.7891  2.0875
  154SAPE    C217018   2.543   3.743   6.372  0.5937 -0.1503  0.1000
  154SAPE    HS17019   2.611   3.660   6.342  0.0029 -0.6188  0.0500
  154SAPE   O2117020   2.600   3.860   6.315 -0.7748 -0.1809 -0.3682
  154SAPE   C2117021   2.729   3.869   6.326  0.3668  0.1009  0.7472
  154SAPE   O2217022   2.814   3.797   6.365 -0.3598  0.3301  0.5100
  154SAPE   C2217023   2.757   3.999   6.257  0.2898  0.2595 -0.5249
  154SAPE   H2R17024   2.692   4.018   6.168 -0.6054 -1.8938 -0.3837
  154SAPE   H2S17025   2.756   4.074   6.338  4.0500 -0.4174  0.3110
  154SAPE    C317026   2.403   3.721   6.313 -0.0539  1.3247  0.2277
  154SAPE    HX17027   2.333   3.804   6.339 -0.7538  0.8027  0.0505
  154SAPE    HY17028   2.359   3.635   6.369  1.8590 -0.1252 -0.3788
  154SAPE   O3117029   2.395   3.712   6.168 -0.5360 -0.6432  0.0986
  154SAPE   C3117030   2.287   3.660   6.123 -0.1495 -0.2178  0.7048
  154SAPE   O3217031   2.198   3.615   6.184  0.3275 -0.3184 -0.0851
  154SAPE   C3217032   2.292   3.672   5.968  0.2443  0.4290 -0.2602
  154SAPE   H2X17033   2.386   3.617   5.949 -0.4179 -0.7417 -0.2319
  154SAPE   H2Y17034   2.303   3.780   5.945  3.1798 -0.1333 -1.9973
  154SAPE   C2317035   2.904   4.020   6.212 -0.7106 -0.1644 -0.4549
  154SAPE   H3R17036   2.927   3.959   6.123 -0.5975 -1.1846  0.2555
  154SAPE   H3S17037   2.979   3.984   6.286  0.1905 -0.2877 -1.4095
  154SAPE   C2417038   2.943   4.157   6.180 -1.2732  0.0900 -0.3588
  154SAPE   H4R17039   3.042   4.151   6.128  0.0136 -1.4676  2.1056
  154SAPE   H4S17040   2.971   4.211   6.273  1.9632  1.6935 -2.0661
  154SAPE   C2517041   2.845   4.245   6.101 -0.5506 -0.2031  0.7222
  154SAPE   H5R17042   2.792   4.315   6.167 -0.3954 -0.7324  1.4268
  154SAPE   C2617043   2.804   4.237   5.971  0.6453 -0.2546 -0.2759
  154SAPE   H6R17044   2.738   4.320   5.942  1.4130  1.2451  1.9967
  154SAPE   C2717045   2.835   4.145   5.859  0.1250  0.1540  1.2633
  154SAPE   H7R17046   2.745   4.134   5.794  0.0082 -1.8386  1.6924
  154SAPE   H7S17047   2.865   4.048   5.904  2.7062  0.6042  0.7186
  154SAPE   C2817048   2.949   4.191   5.768  0.5187 -0.5623 -0.3625
  154SAPE   H8R17049   3.049   4.155   5.798 -0.8359 -2.5118  2.2996
  154SAPE   C2917050   2.927   4.255   5.644 -0.2994 -0.0915 -1.0581
  154SAPE   H9R17051   3.017   4.288   5.590  0.6179 -1.6928 -0.5783
  154SAPE  C21017052   2.795   4.296   5.582  0.1398 -1.3348  0.4671
  154SAPE  H10R17053   2.783   4.406   5.580 -0.5444 -1.3243  2.6557
  154SAPE  H10S17054   2.702   4.260   5.632 -1.3689  0.6244 -0.7669
  154SAPE  C21117055   2.782   4.246   5.440  0.1014 -0.1113 -0.1746
  154SAPE  H11R17056   2.794   4.139   5.415 -2.7387 -0.2958 -1.0725
  154SAPE  C21217057   2.755   4.324   5.334 -0.3744 -0.4839  0.1827
  154SAPE  H12R17058   2.757   4.268   5.239  3.7913  1.6317 -1.2362
  154SAPE  C21317059   2.727   4.473   5.331 -0.3358  0.3558 -0.6263
  154SAPE  H13R17060   2.810   4.536   5.369  0.0648  0.5797 -1.8452
  154SAPE  H13S17061   2.644   4.509   5.395  0.6051  0.4425  0.5970
  154SAPE  C21417062   2.708   4.511   5.186 -0.0208  0.2752 -0.2783
  154SAPE  H14R17063   2.603   4.527   5.160  0.2502  0.4350 -1.3276
  154SAPE  C21517064   2.790   4.534   5.081  0.2290 -0.1171  0.5262
  154SAPE  H15R17065   2.747   4.557   4.982  3.1766  1.4360 -0.5234
  154SAPE  C21617066   2.944   4.520   5.082 -0.4641 -0.5526 -0.1122
  154SAPE  H16R17067   2.984   4.425   5.040 -1.2145 -0.8503 -0.1867
  154SAPE  H16S17068   2.985   4.524   5.185  1.5777  0.0443 -0.9114
  154SAPE  C21717069   3.018   4.625   4.997  0.5059  0.1717  0.0010
  154SAPE  H17R17070   2.985   4.725   5.031  1.2116  0.3638  0.1175
  154SAPE  H17S17071   3.008   4.615   4.886  1.4605  0.5083 -0.1191
  154SAPE  C21817072   3.170   4.611   5.014  0.6560 -0.6579 -0.7861
  154SAPE  H18R17073   3.218   4.519   4.975  2.4536 -0.4986  0.8530
  154SAPE  H18S17074   3.194   4.613   5.123 -1.9088  1.0714 -0.1845
  154SAPE  C21917075   3.232   4.730   4.942 -0.7021  0.1035  0.4504
  154SAPE  H19R17076   3.342   4.733   4.957 -0.3422 -1.9963 -1.3569
  154SAPE  H19S17077   3.197   4.826   4.986  0.9183  1.3109 -0.7543
  154SAPE  C22017078   3.206   4.733   4.790 -0.6987 -0.0382  0.0469
  154SAPE  H20R17079   3.108   4.783   4.774 -0.5204  1.0269  1.9977
  154SAPE  H20S17080   3.214   4.631   4.746  1.6927  0.7309 -1.4589
  154SAPE  H20T17081   3.283   4.799   4.744 -2.2143  2.0873  0.4065
  154SAPE   C3317082   2.174   3.604   5.892 -0.5677  0.1432  0.7908
  154SAPE   H3X17083   2.083   3.645   5.941 -0.8500  0.9635 -0.3731
  154SAPE   H3Y17084   2.178   3.494   5.906 -0.0564 -0.3513 -2.4717
  154SAPE   C3417085   2.175   3.638   5.746 -0.1594  0.0642  0.3598
  154SAPE   H4X17086   2.243   3.724   5.726  0.7331 -0.9055 -0.9244
  154SAPE   H4Y17087   2.070   3.667   5.726  0.2208 -0.0625 -2.1044
  154SAPE   C3517088   2.218   3.524   5.652  0.3790  0.3313 -0.5214
  154SAPE   H5X17089   2.138   3.448   5.666 -1.3460  2.4616  2.3950
  154SAPE   H5Y17090   2.316   3.484   5.687  0.3524  1.2209  0.6201
  154SAPE   C3617091   2.244   3.561   5.503 -0.2417 -1.3056 -0.0873
  154SAPE   H6X17092   2.326   3.494   5.469  1.8996  1.3815 -0.4502
  154SAPE   H6Y17093   2.291   3.661   5.495 -1.0194 -0.9441 -0.2427
  154SAPE   C3717094   2.117   3.558   5.409 -0.4064 -0.6719  0.2129
  154SAPE   H7X17095   2.067   3.657   5.402  1.3725  0.1720 -1.2062
  154SAPE   H7Y17096   2.043   3.481   5.442 -3.0892  0.9956 -1.5284
  154SAPE   C3817097   2.143   3.520   5.259  0.2828 -0.1906 -0.2553
  154SAPE   H8X17098   2.046   3.515   5.205 -0.3098  0.7867  0.6803
  154SAPE   H8Y17099   2.183   3.416   5.266  1.7134  0.3699  0.1343
  154SAPE   C3917100   2.253   3.598   5.184  0.6755  0.5374  0.0931
  154SAPE   H9X17101   2.340   3.614   5.251  0.8066  1.2709 -0.2489
  154SAPE   H9Y17102   2.218   3.703   5.183  0.0372  0.3325 -0.0058
  154SAPE  C31017103   2.289   3.539   5.045  1.5257 -0.7311  0.1418
  154SAPE  H10X17104   2.312   3.431   5.054  0.2692 -0.9888  0.4726
  154SAPE  H10Y17105   2.376   3.599   5.010  0.1782  0.8982 -0.6364
  154SAPE  C31117106   2.175   3.557   4.942 -0.5542 -0.5382 -1.0053
  154SAPE  H11X17107   2.149   3.664   4.927  1.5811 -0.1573 -2.5464
  154SAPE  H11Y17108   2.088   3.503   4.985  0.6699 -0.0826  2.3348
  154SAPE  C31217109   2.223   3.497   4.807  1.0119  0.0423  0.7640
  154SAPE  H12X17110   2.277   3.403   4.829 -1.5902 -1.3796  1.5659
  154SAPE  H12Y17111   2.288   3.573   4.759  4.0313 -2.3264  0.8566
  154SAPE  C31317112   2.100   3.449   4.718 -0.6959  0.2187 -0.0255
  154SAPE  H13X17113   2.078   3.346   4.754  1.8679 -1.1805 -2.1012
  154SAPE  H13Y17114   2.137   3.444   4.613  1.7841  0.5311  0.7742
  154SAPE  C31417115   1.982   3.542   4.700 -0.3306  0.1686 -0.0217
  154SAPE  H14X17116   2.018   3.647   4.694  1.1562 -0.1058  2.5463
  154SAPE  H14Y17117   1.920   3.528   4.792 -1.0501 -0.8909 -0.6512
  154SAPE  C31517118   1.900   3.519   4.573  0.2237  0.2330 -0.2856
  154SAPE  H15X17119   1.858   3.416   4.568  3.8297 -1.3750 -0.2554
  154SAPE  H15Y17120   1.962   3.535   4.482 -2.8744 -1.0092 -2.7973
  154SAPE  C31617121   1.787   3.623   4.564  0.3849  0.2641  0.0673
  154SAPE  H16X17122   1.704   3.621   4.637 -0.3462 -0.3375 -0.7546
  154SAPE  H16Y17123   1.737   3.611   4.465  1.6641  1.9903 -0.8594
  154SAPE  C31717124   1.845   3.773   4.546  0.1989 -0.1450 -0.5860
  154SAPE  H17X17125   1.924   3.763   4.467  0.3174  1.9615 -0.7946
  154SAPE  H17Y17126   1.897   3.808   4.638 -0.5305  0.2216 -0.3115
  154SAPE  C31817127   1.741   3.878   4.499 -0.0692  0.0563  0.1793
  154SAPE  H18X17128   1.681   3.841   4.413 -2.7144 -0.4514  2.0973
  154SAPE  H18Y17129   1.789   3.976   4.483 -1.8364  0.9519  0.1117
  154SAPE  H18Z17130   1.663   3.891   4.577 -0.5548 -0.4708 -0.2072
  155SAPE     N17131   6.283   4.872   6.572  0.2463 -0.0032 -0.4903
  155SAPE   HN117132   6.278   4.771   6.595 -1.2268  0.7742  3.3976
  155SAPE   HN217133   6.365   4.886   6.509  1.8805 -2.1520  1.0156
  155SAPE   HN317134   6.295   4.928   6.659  3.3745 -2.4951  0.8382
  155SAPE   C1217135   6.144   4.900   6.516  0.5165 -0.6205  0.0292
  155SAPE  H12A17136   6.124   4.823   6.439  0.2057  0.0525 -0.5822
  155SAPE  H12B17137   6.149   4.986   6.445 -0.3596  0.1761  0.8980
  155SAPE   C1117138   6.038   4.905   6.623 -0.5782 -0.6550 -0.2456
  155SAPE  H11A17139   6.014   4.810   6.675 -2.1089  0.0636  0.4181
  155SAPE  H11B17140   5.940   4.925   6.574  0.7226  0.7223 -2.4587
  155SAPE     P17141   5.982   5.132   6.736  0.1294 -0.0061 -0.1104
  155SAPE   O1317142   5.839   5.087   6.745  0.1901 -0.3990  0.0034
  155SAPE   O1417143   6.031   5.208   6.853 -0.1943 -0.2896  0.0071
  155SAPE   O1217144   6.079   5.008   6.716  0.4251  0.0434 -0.0701
  155SAPE   O1117145   5.998   5.202   6.599  0.0756 -0.3910  0.0123
  155SAPE    C117146   6.104   5.294   6.573 -0.4781  0.2639 -0.5052
  155SAPE    HA17147   6.095   5.388   6.632 -2.2542  0.0280 -0.3243
  155SAPE    HB17148   6.204   5.256   6.601 -0.6294 -0.3014 -0.7262
  155SAPE    C217149   6.122   5.335   6.428 -0.9726 -0.6033 -0.5856
  155SAPE    HS17150   6.028   5.378   6.386 -0.6802  0.7197  0.0421
  155SAPE   O2117151   6.157   5.213   6.358  0.3797  0.2791 -0.0492
  155SAPE   C2117152   6.126   5.204   6.231 -0.8536  0.2035 -0.0636
  155SAPE   O2217153   6.071   5.292   6.172 -0.2808 -0.1390 -0.3257
  155SAPE   C2217154   6.183   5.083   6.171  0.5114  0.4464  0.1259
  155SAPE   H2R17155   6.266   5.034   6.227  1.2663 -0.1564 -1.4740
  155SAPE   H2S17156   6.100   5.009   6.173  0.7984  0.0594  3.1583
  155SAPE    C317157   6.237   5.451   6.413  1.4350  0.5003 -0.1710
  155SAPE    HX17158   6.336   5.418   6.453  2.2227  4.0267  1.1479
  155SAPE    HY17159   6.195   5.532   6.476 -0.3555 -1.2750  1.0408
  155SAPE   O3117160   6.249   5.489   6.278  0.6520  0.4986 -0.0632
  155SAPE   C3117161   6.310   5.602   6.264  0.2825 -0.6762  0.6251
  155SAPE   O3217162   6.317   5.686   6.351  0.2666  0.4684 -0.1446
  155SAPE   C3217163   6.333   5.631   6.113 -0.7106  0.3343 -0.0694
  155SAPE   H2X17164   6.440   5.650   6.092 -0.5435 -1.6597 -1.3449
  155SAPE   H2Y17165   6.274   5.723   6.094 -0.1504  0.7436  0.1660
  155SAPE   C2317166   6.246   5.120   6.031  0.7428 -0.4523 -0.0687
  155SAPE   H3R17167   6.324   5.198   6.043  1.1698 -0.4827 -2.3269
  155SAPE   H3S17168   6.167   5.170   5.970 -0.2370 -1.9657 -0.0989
  155SAPE   C2417169   6.298   5.005   5.945  1.4209  0.1913  0.3635
  155SAPE   H4R17170   6.215   4.937   5.915 -0.2968  2.3515 -0.0155
  155SAPE   H4S17171   6.365   4.944   6.009  1.5011 -0.8592 -0.6845
  155SAPE   C2517172   6.383   5.070   5.838 -0.2422 -0.0782 -0.2508
  155SAPE   H5R17173   6.479   5.106   5.879  0.6400 -2.3420 -0.1547
  155SAPE   C2617174   6.350   5.078   5.703 -0.5099  0.1824  0.0023
  155SAPE   H6R17175   6.416   5.125   5.628  1.8051  0.1384  1.9008
  155SAPE   C2717176   6.222   5.033   5.642 -0.3573 -0.0519 -0.0090
  155SAPE   H7R17177   6.173   4.957   5.707  2.3133 -1.4330  0.5120
  155SAPE   H7S17178   6.255   4.985   5.548 -0.5473  2.2251 -1.3278
  155SAPE   C2817179   6.122   5.145   5.603  0.5177  0.4653  0.2530
  155SAPE   H8R17180   6.121   5.227   5.677 -1.8537 -0.1307  0.9618
  155SAPE   C2917181   6.032   5.143   5.508  0.2741  0.0151 -0.7464
  155SAPE   H9R17182   5.979   5.237   5.486  0.5003  0.2766 -0.1913
  155SAPE  C21017183   6.022   5.041   5.399 -0.2283  0.7438  0.1708
  155SAPE  H10R17184   5.914   5.020   5.383  0.2601 -1.4006 -0.7247
  155SAPE  H10S17185   6.063   4.944   5.435 -1.9936 -0.8348 -1.8406
  155SAPE  C21117186   6.102   5.070   5.277 -0.0787  0.1885 -0.5895
  155SAPE  H11R17187   6.174   5.149   5.302 -1.3835  0.8498  1.2457
  155SAPE  C21217188   6.111   4.992   5.171 -0.0586 -0.7361  0.0821
  155SAPE  H12R17189   6.156   5.036   5.081 -0.7904  0.7634  0.4144
  155SAPE  C21317190   6.039   4.866   5.140  0.3867  0.1143  0.2700
  155SAPE  H13R17191   6.023   4.811   5.235 -1.1054 -0.4192 -0.2657
  155SAPE  H13S17192   6.104   4.803   5.076 -0.3012  0.3145 -0.6524
  155SAPE  C21417193   5.908   4.891   5.069 -0.8160  0.8381  0.3170
  155SAPE  H14R17194   5.829   4.942   5.126 -0.2446  0.3144  1.6267
  155SAPE  C21517195   5.869   4.840   4.956 -0.3058 -0.9123 -0.0066
  155SAPE  H15R17196   5.764   4.858   4.929 -0.0882 -0.2698 -0.4418
  155SAPE  C21617197   5.950   4.754   4.852  0.2738  0.2928  1.1387
  155SAPE  H16R17198   5.915   4.648   4.855 -0.8216  0.6409  1.0551
  155SAPE  H16S17199   6.061   4.757   4.853  0.4101 -1.6628 -0.4937
  155SAPE  C21717200   5.923   4.796   4.702 -0.1500  0.8703  0.4434
  155SAPE  H17R17201   5.947   4.904   4.711 -1.2580  1.0047  2.5586
  155SAPE  H17S17202   5.817   4.777   4.678  0.6415 -1.1367 -1.8854
  155SAPE  C21817203   5.991   4.708   4.592 -0.3330  0.1352  0.0195
  155SAPE  H18R17204   5.928   4.720   4.501 -0.9199 -1.1688  0.2282
  155SAPE  H18S17205   5.975   4.600   4.616 -3.1320  0.5366  0.2253
  155SAPE  C21917206   6.134   4.757   4.556 -0.2776 -1.0908 -0.1401
  155SAPE  H19R17207   6.196   4.739   4.647  0.4247 -0.4744 -0.4858
  155SAPE  H19S17208   6.122   4.866   4.538  2.7352 -1.0504 -2.5957
  155SAPE  C22017209   6.191   4.670   4.437 -0.4697 -0.5109 -0.0598
  155SAPE  H20R17210   6.274   4.721   4.384 -0.5980  0.7333  0.8841
  155SAPE  H20S17211   6.116   4.640   4.361  2.7377 -0.0811 -3.6995
  155SAPE  H20T17212   6.230   4.575   4.479 -0.5724 -0.0584  1.1106
  155SAPE   C3317213   6.277   5.528   6.001  0.1331 -0.5038 -0.6607
  155SAPE   H3X17214   6.169   5.501   6.012  0.4236 -1.7714 -0.7950
  155SAPE   H3Y17215   6.333   5.433   6.015  0.2933 -0.6343 -1.9935
  155SAPE   C3417216   6.295   5.583   5.865 -0.6178  0.3741  0.1541
  155SAPE   H4X17217   6.404   5.597   5.850 -0.4359  0.4822  1.4264
  155SAPE   H4Y17218   6.238   5.679   5.867  3.7472  3.2778  0.4264
  155SAPE   C3517219   6.244   5.476   5.759  0.4573 -1.1619 -0.0943
  155SAPE   H5X17220   6.136   5.487   5.738  0.7106  1.1045 -0.4601
  155SAPE   H5Y17221   6.261   5.374   5.800  0.6601 -1.1353 -0.1100
  155SAPE   C3617222   6.320   5.502   5.629  0.7570 -0.0766  0.0821
  155SAPE   H6X17223   6.293   5.416   5.565  1.5355 -1.3658  1.4286
  155SAPE   H6Y17224   6.429   5.485   5.639  0.2046 -3.6890  1.8151
  155SAPE   C3717225   6.270   5.616   5.551  0.0617 -0.0430 -0.0669
  155SAPE   H7X17226   6.288   5.713   5.603 -2.8595  1.6933 -1.9876
  155SAPE   H7Y17227   6.160   5.617   5.536 -0.2279  0.8818  1.8339
  155SAPE   C3817228   6.337   5.627   5.410 -0.9489  0.4313 -0.2950
  155SAPE   H8X17229   6.443   5.602   5.428 -1.3842 -0.2445  1.6854
  155SAPE   H8Y17230   6.315   5.722   5.357 -0.8355  0.4882 -0.2405
  155SAPE   C3917231   6.285   5.517   5.311  0.2467 -0.4834 -0.7083
  155SAPE   H9X17232   6.178   5.499   5.335 -0.6514  0.3974 -3.6637
  155SAPE   H9Y17233   6.334   5.428   5.356  1.2965  0.5053  0.1861
  155SAPE  C31017234   6.324   5.531   5.166 -0.5805  0.6026  0.2921
  155SAPE  H10X17235   6.433   5.549   5.157 -0.3664  1.1543  2.9360
  155SAPE  H10Y17236   6.273   5.616   5.115  0.3081 -0.6951 -3.0111
  155SAPE  C31117237   6.294   5.406   5.078  0.5917 -0.1783 -0.6904
  155SAPE  H11X17238   6.287   5.323   5.150  2.7925 -0.4471 -0.7174
  155SAPE  H11Y17239   6.367   5.373   5.001 -0.8686 -1.8996 -1.3974
  155SAPE  C31217240   6.163   5.432   5.006  0.5189 -0.4440 -0.1287
  155SAPE  H12X17241   6.177   5.517   4.936 -0.2731 -0.5998 -0.4908
  155SAPE  H12Y17242   6.081   5.463   5.075  0.6246 -0.1198 -0.1503
  155SAPE  C31317243   6.122   5.316   4.914  0.7829  0.0239 -0.1963
  155SAPE  H13X17244   6.024   5.347   4.872  0.3110  0.7783  1.3947
  155SAPE  H13Y17245   6.095   5.230   4.978  0.6817  1.4367  1.7368
  155SAPE  C31417246   6.228   5.299   4.805  0.5331  0.2936 -0.8324
  155SAPE  H14X17247   6.321   5.247   4.838  0.7823 -0.7786 -3.0192
  155SAPE  H14Y17248   6.252   5.399   4.764 -0.8057  1.2453  0.5887
  155SAPE  C31517249   6.177   5.207   4.695  0.5046 -0.2177 -0.6231
  155SAPE  H15X17250   6.108   5.271   4.636 -1.8161  0.9554  2.9989
  155SAPE  H15Y17251   6.125   5.119   4.738  2.3486 -0.7543  0.5969
  155SAPE  C31617252   6.289   5.158   4.607  0.9338  1.0369  0.8111
  155SAPE  H16X17253   6.254   5.087   4.529  1.5764 -0.0310  1.4852
  155SAPE  H16Y17254   6.367   5.096   4.655  2.1632  0.2252 -2.0293
  155SAPE  C31717255   6.365   5.259   4.525  0.3908  0.1422  0.4794
  155SAPE  H17X17256   6.404   5.336   4.595  3.1361 -0.5960 -0.0963
  155SAPE  H17Y17257   6.296   5.314   4.458 -0.3106 -0.1349  0.9737
  155SAPE  C31817258   6.474   5.207   4.431  0.1081  0.5531 -0.3550
  155SAPE  H18X17259   6.436   5.127   4.364  0.0523  1.7023 -1.7480
  155SAPE  H18Y17260   6.557   5.155   4.484 -0.8172 -0.3515  0.2371
  155SAPE  H18Z17261   6.513   5.291   4.370  0.7124  1.4405  1.1997
  156SAPE     N17262   0.264   4.981   6.602  0.8651  0.5036  0.0714
  156SAPE   HN117263   0.219   4.941   6.686  0.5906  0.1188 -0.2523
  156SAPE   HN217264   0.252   5.084   6.589  0.3008  0.3548 -0.7092
  156SAPE   HN317265   0.218   4.937   6.520  0.8568  0.2230  0.2271
  156SAPE   C1217266   0.411   4.936   6.601  0.6974 -0.0315  0.6728
  156SAPE  H12A17267   0.409   4.826   6.588 -2.2646 -0.5062  3.9088
  156SAPE  H12B17268   0.438   4.962   6.705 -1.9000 -0.9086  1.6459
  156SAPE   C1117269   0.491   5.011   6.495  0.7806 -0.1157  0.9364
  156SAPE  H11A17270   0.600   4.990   6.500  0.7623 -1.0128 -1.3370
  156SAPE  H11B17271   0.483   5.120   6.513  0.8020 -0.0214  0.3927
  156SAPE     P17272   0.497   5.005   6.227  0.0679  0.0607 -0.0475
  156SAPE   O1317273   0.635   4.952   6.221  0.0116 -0.1823  0.2887
  156SAPE   O1417274   0.399   4.958   6.126 -0.4183 -0.9787  0.2608
  156SAPE   O1217275   0.437   4.973   6.366 -0.1853 -0.4163  0.5949
  156SAPE   O1117276   0.490   5.161   6.235  0.4149  0.2504 -1.0581
  156SAPE    C117277   0.360   5.217   6.261 -0.0130 -0.5098  0.4906
  156SAPE    HA17278   0.276   5.148   6.278 -0.7090  0.0100 -0.7290
  156SAPE    HB17279   0.373   5.280   6.352  1.2368  0.9441 -0.6351
  156SAPE    C217280   0.343   5.323   6.146  0.0043 -0.3780  0.1651
  156SAPE    HS17281   0.241   5.362   6.165 -0.2053  0.1136 -1.7783
  156SAPE   O2117282   0.346   5.263   6.014 -0.4305 -0.4924 -0.0352
  156SAPE   C2117283   0.259   5.169   5.986  0.1267  0.2217  0.8894
  156SAPE   O2217284   0.161   5.143   6.054  0.7146  0.0841  0.5940
  156SAPE   C2217285   0.292   5.089   5.856 -0.4250  0.5766  0.2229
  156SAPE   H2R17286   0.348   5.156   5.787 -1.1094  1.8724  0.9130
  156SAPE   H2S17287   0.367   5.015   5.891 -0.2638  1.0750  0.9415
  156SAPE    C317288   0.460   5.426   6.154  0.3449 -1.3627 -0.2019
  156SAPE    HX17289   0.555   5.382   6.117  1.5680  1.6311 -0.9251
  156SAPE    HY17290   0.469   5.449   6.262  2.3774 -1.4792 -0.3067
  156SAPE   O3117291   0.431   5.548   6.075 -0.8815  0.4051 -0.2055
  156SAPE   C3117292   0.366   5.651   6.119  0.2571 -0.4309  0.2336
  156SAPE   O3217293   0.325   5.666   6.232  0.1917 -0.3998  0.4936
  156SAPE   C3217294   0.356   5.761   6.009  0.5682  0.7977 -0.3374
  156SAPE   H2X17295   0.452   5.817   6.020  0.0376  1.5715  0.4821
  156SAPE   H2Y17296   0.267   5.820   6.040 -0.6172 -0.4926 -1.1801
  156SAPE   C2317297   0.175   5.032   5.769  0.1301  0.2071  0.1368
  156SAPE   H3R17298   0.114   5.113   5.723 -0.0575  0.1745  0.3274
  156SAPE   H3S17299   0.111   4.975   5.839 -1.2872  1.3904 -0.1179
  156SAPE   C2417300   0.223   4.935   5.658 -0.8037 -0.2597  0.3047
  156SAPE   H4R17301   0.133   4.887   5.615  0.0703 -1.3560 -0.3488
  156SAPE   H4S17302   0.277   4.849   5.702 -1.3053 -0.8644 -0.2579
  156SAPE   C2517303   0.316   5.007   5.562  0.1552  0.3535 -0.2184
  156SAPE   H5R17304   0.418   5.025   5.598  0.3633  0.6790 -0.9590
  156SAPE   C2617305   0.288   5.052   5.436 -0.1605  0.3479  0.5655
  156SAPE   H6R17306   0.358   5.114   5.378 -0.0787 -0.8218 -0.6242
  156SAPE   C2717307   0.163   5.025   5.357 -0.4749 -0.2531 -0.1944
  156SAPE   H7R17308   0.097   4.957   5.415 -2.7486  1.3503 -0.7583
  156SAPE   H7S17309   0.199   4.977   5.263  1.6583  1.2447 -0.2151
  156SAPE   C2817310   0.073   5.145   5.335  0.0657 -0.0924  0.7015
  156SAPE   H8R17311   0.041   5.201   5.425 -1.3384  1.0734 -0.4713
  156SAPE   C2917312   0.028   5.190   5.217  0.3390  0.0684 -0.0923
  156SAPE   H9R17313  -0.039   5.276   5.221  0.9985  0.5649  0.4466
  156SAPE  C21017314   0.050   5.126   5.088 -0.6544 -0.1895  0.0991
  156SAPE  H10R17315  -0.034   5.057   5.063 -0.8601 -0.0116  0.3048
  156SAPE  H10S17316   0.136   5.056   5.084 -1.9013 -1.8424  1.1262
  156SAPE  C21117317   0.039   5.221   4.970 -0.7061  0.1354  0.2934
  156SAPE  H11R17318  -0.044   5.294   4.974 -2.1860 -1.4704 -0.1296
  156SAPE  C21217319   0.115   5.212   4.857 -0.0440 -0.1897  0.3042
  156SAPE  H12R17320   0.114   5.295   4.784  2.3687  0.2878  0.7440
  156SAPE  C21317321   0.226   5.108   4.837 -0.0373  0.4818 -0.3379
  156SAPE  H13R17322   0.251   5.121   4.730  0.5391 -1.2911 -0.4472
  156SAPE  H13S17323   0.187   5.005   4.852 -2.6024  1.5069  0.6146
  156SAPE  C21417324   0.356   5.130   4.916  0.0258  0.0121  0.3505
  156SAPE  H14R17325   0.335   5.160   5.019  1.9937  1.0509  0.5069
  156SAPE  C21517326   0.488   5.118   4.880  0.2919  0.5608 -0.2167
  156SAPE  H15R17327   0.557   5.147   4.960 -0.3776 -1.6821  1.2988
  156SAPE  C21617328   0.548   5.082   4.750  0.4050 -0.0646  0.4652
  156SAPE  H16R17329   0.523   5.159   4.673  1.0207  2.4877  2.6759
  156SAPE  H16S17330   0.499   4.990   4.711  0.1489  0.2079  0.1385
  156SAPE  C21717331   0.695   5.035   4.765  0.0884 -0.2197  0.3923
  156SAPE  H17R17332   0.736   5.012   4.664 -0.5903 -3.1464  0.6822
  156SAPE  H17S17333   0.692   4.940   4.822 -0.1388 -1.4883 -1.6376
  156SAPE  C21817334   0.787   5.135   4.834  0.4701 -0.0354  0.1299
  156SAPE  H18R17335   0.749   5.138   4.939 -2.0290  0.0504 -0.6986
  156SAPE  H18S17336   0.780   5.235   4.786  0.0122 -0.7111 -1.2571
  156SAPE  C21917337   0.935   5.092   4.829 -0.1212 -0.3776 -0.4869
  156SAPE  H19R17338   0.940   4.987   4.867 -0.9343 -0.0748  0.4989
  156SAPE  H19S17339   0.985   5.155   4.906  0.9055  0.4872 -1.8354
  156SAPE  C22017340   1.007   5.110   4.699  0.0188 -0.3411  0.1246
  156SAPE  H20R17341   1.022   5.219   4.679 -1.2946 -0.0267  0.7152
  156SAPE  H20S17342   0.952   5.065   4.613  1.9113  0.5094 -1.6187
  156SAPE  H20T17343   1.105   5.060   4.709  1.1932  1.6133 -0.9091
  156SAPE   C3317344   0.329   5.690   5.865 -0.5885 -0.1344 -0.1933
  156SAPE   H3X17345   0.415   5.624   5.838 -1.5524 -0.3839 -3.0721
  156SAPE   H3Y17346   0.338   5.762   5.780  0.9970 -1.1378 -0.9317
  156SAPE   C3417347   0.200   5.614   5.849 -0.7432 -0.8877  0.0305
  156SAPE   H4X17348   0.116   5.680   5.877  1.3272  1.7858  0.3590
  156SAPE   H4Y17349   0.201   5.524   5.915 -1.1384 -0.5067  0.5707
  156SAPE   C3517350   0.163   5.580   5.704 -0.3677 -0.1298  0.2295
  156SAPE   H5X17351   0.139   5.673   5.649  1.6631  0.0520 -0.4284
  156SAPE   H5Y17352   0.069   5.523   5.718 -2.5883  3.2769  0.3129
  156SAPE   C3617353   0.277   5.514   5.624  0.2740 -0.4699 -0.3059
  156SAPE   H6X17354   0.330   5.433   5.678 -2.6145 -1.6431  1.0062
  156SAPE   H6Y17355   0.353   5.595   5.630 -1.0944  0.9653 -1.3455
  156SAPE   C3717356   0.263   5.475   5.474  0.3361 -0.4975  0.2002
  156SAPE   H7X17357   0.205   5.380   5.477 -1.4323  0.5633  1.2025
  156SAPE   H7Y17358   0.363   5.432   5.451  0.0157 -0.3975 -1.4942
  156SAPE   C3817359   0.205   5.577   5.372  0.4126  0.4689 -0.2905
  156SAPE   H8X17360   0.260   5.671   5.351 -1.6247  1.8411  0.2638
  156SAPE   H8Y17361   0.113   5.605   5.427 -0.2901 -2.8953  0.4627
  156SAPE   C3917362   0.167   5.525   5.238 -0.9668  0.0193 -0.6409
  156SAPE   H9X17363   0.074   5.464   5.248 -1.5973  1.0329 -0.1850
  156SAPE   H9Y17364   0.250   5.469   5.191 -0.4376  0.2459  0.0174
  156SAPE  C31017365   0.128   5.634   5.139  0.7689 -0.2680 -0.5304
  156SAPE  H10X17366   0.216   5.700   5.128  0.5690  0.3870  1.3406
  156SAPE  H10Y17367   0.038   5.688   5.177 -0.1546 -1.9586 -0.2123
  156SAPE  C31117368   0.089   5.591   5.003 -0.4305  0.2628  0.2550
  156SAPE  H11X17369  -0.020   5.573   5.002 -0.4096  0.0177  1.1491
  156SAPE  H11Y17370   0.144   5.499   4.972 -1.5696 -0.9766  1.7420
  156SAPE  C31217371   0.099   5.691   4.879 -0.3282 -0.2930 -0.3532
  156SAPE  H12X17372   0.204   5.725   4.887 -0.5141  0.0297  0.9687
  156SAPE  H12Y17373   0.031   5.776   4.901 -0.1646 -0.3219  0.2992
  156SAPE  C31317374   0.070   5.629   4.746 -0.3989  0.3307 -0.2379
  156SAPE  H13X17375  -0.032   5.586   4.751 -0.1884 -0.2730 -1.0207
  156SAPE  H13Y17376   0.132   5.539   4.727  0.3948  0.2115  2.4900
  156SAPE  C31417377   0.087   5.721   4.624 -0.5152 -0.4084 -0.5319
  156SAPE  H14X17378   0.032   5.814   4.650 -2.4358 -1.8517  0.9105
  156SAPE  H14Y17379   0.050   5.663   4.537  2.2823 -1.6877 -0.9766
  156SAPE  C31517380   0.232   5.765   4.606 -0.1930 -0.6671  0.0335
  156SAPE  H15X17381   0.280   5.678   4.555  0.3738 -0.0697 -0.4731
  156SAPE  H15Y17382   0.281   5.779   4.705  1.5227  1.2731 -1.0140
  156SAPE  C31617383   0.245   5.889   4.515 -0.0939  0.2112  0.7133
  156SAPE  H16X17384   0.187   5.975   4.555 -1.5033 -0.8649  1.0724
  156SAPE  H16Y17385   0.206   5.868   4.413  0.8641 -0.3795  0.4532
  156SAPE  C31717386   0.391   5.932   4.495  0.7226 -0.1298  0.6381
  156SAPE  H17X17387   0.446   5.837   4.477  1.8186  0.5797  0.1555
  156SAPE  H17Y17388   0.436   5.985   4.582  1.6992  0.9354 -0.4810
  156SAPE  C31817389   0.411   6.019   4.371  0.1610  0.1083  0.2997
  156SAPE  H18X17390   0.522   6.028   4.366  0.0726  1.1812  0.0342
  156SAPE  H18Y17391   0.366   6.121   4.372 -0.7330 -0.2417 -1.1806
  156SAPE  H18Z17392   0.371   5.965   4.282 -0.1243  2.1061 -0.8512
  157SAPE     N17393   0.107   3.606   6.886 -0.0099  0.3319 -0.4458
  157SAPE   HN117394   0.163   3.578   6.969  0.1534  1.3285 -0.2120
  157SAPE   HN217395   0.160   3.680   6.837 -1.3522  2.2877  0.8717
  157SAPE   HN317396   0.018   3.642   6.927  1.1139 -0.9078  3.6141
  157SAPE   C1217397   0.094   3.486   6.798  0.4249 -0.2651  0.2376
  157SAPE  H12A17398   0.011   3.512   6.729  1.0123  0.2475 -0.2844
  157SAPE  H12B17399   0.051   3.408   6.865  2.0519 -0.4502  1.1121
  157SAPE   C1117400   0.232   3.438   6.752 -0.3207  0.2965 -1.3394
  157SAPE  H11A17401   0.275   3.486   6.661 -0.7265  3.7040  0.1329
  157SAPE  H11B17402   0.215   3.331   6.725 -1.5554 -0.3007  1.4479
  157SAPE     P17403   0.464   3.347   6.833  0.2054 -0.1172  0.4640
  157SAPE   O1317404   0.563   3.392   6.930 -0.4106  0.2800  0.2471
  157SAPE   O1417405   0.437   3.206   6.820 -0.1488 -0.2222  0.5712
  157SAPE   O1217406   0.325   3.422   6.869 -0.3984  0.3495  0.3887
  157SAPE   O1117407   0.516   3.389   6.692  0.0507 -0.1127  0.8452
  157SAPE    C117408   0.627   3.481   6.692 -0.1378 -0.3928 -0.5437
  157SAPE    HA17409   0.612   3.568   6.759 -0.5407 -1.5422  0.9038
  157SAPE    HB17410   0.721   3.429   6.721  0.2717 -0.6003 -2.1631
  157SAPE    C217411   0.653   3.546   6.549  0.1945  0.6002 -0.0982
  157SAPE    HS17412   0.721   3.631   6.573  0.4407 -0.3902  3.3744
  157SAPE   O2117413   0.536   3.584   6.471  0.3711  0.4823 -0.2832
  157SAPE   C2117414   0.468   3.684   6.501 -0.5915  0.2160 -1.5124
  157SAPE   O2217415   0.498   3.771   6.586 -0.1647  0.9143  0.0209
  157SAPE   C2217416   0.337   3.682   6.426  0.5244 -0.3569 -0.1951
  157SAPE   H2R17417   0.342   3.611   6.340 -1.7630 -0.4296 -0.3289
  157SAPE   H2S17418   0.249   3.646   6.483  0.0741 -1.1559 -1.3385
  157SAPE    C317419   0.735   3.450   6.455  0.3776 -0.6301 -0.4677
  157SAPE    HX17420   0.680   3.354   6.453 -1.4488  0.3736 -1.1088
  157SAPE    HY17421   0.832   3.436   6.508 -0.3498  1.1245  1.4682
  157SAPE   O3117422   0.757   3.500   6.320  0.1277 -0.0351 -0.9040
  157SAPE   C3117423   0.697   3.437   6.219  0.1924  0.5176  0.2798
  157SAPE   O3217424   0.630   3.333   6.224  0.2921 -0.1712  0.1961
  157SAPE   C3217425   0.726   3.522   6.099 -0.3853 -0.2985 -0.1154
  157SAPE   H2X17426   0.765   3.458   6.017  0.1150 -1.2133  0.8052
  157SAPE   H2Y17427   0.810   3.585   6.133  1.1358 -0.9180 -2.4659
  157SAPE   C2317428   0.273   3.819   6.376 -0.3688 -0.2680 -0.1948
  157SAPE   H3R17429   0.268   3.879   6.470  0.2542 -0.3431 -0.1110
  157SAPE   H3S17430   0.171   3.798   6.336 -0.8028  0.4839  0.4868
  157SAPE   C2417431   0.358   3.889   6.260 -0.5874  0.0133 -0.1574
  157SAPE   H4R17432   0.354   3.822   6.171 -0.3723  0.1219 -0.2485
  157SAPE   H4S17433   0.460   3.883   6.303 -0.4765 -0.7427 -0.5006
  157SAPE   C2517434   0.305   4.021   6.216 -0.0870  0.1521  0.2099
  157SAPE   H5R17435   0.325   4.101   6.289  1.5124 -2.2387  2.6129
  157SAPE   C2617436   0.272   4.060   6.093 -0.0930  0.0340  0.6726
  157SAPE   H6R17437   0.239   4.162   6.072 -0.8188 -0.5258 -1.0465
  157SAPE   C2717438   0.281   3.982   5.964  0.3013  0.6917  0.0377
  157SAPE   H7R17439   0.178   3.955   5.931  0.2901 -2.8311  2.3998
  157SAPE   H7S17440   0.341   3.889   5.978  1.5241  1.4717  0.1269
  157SAPE   C2817441   0.350   4.071   5.859  0.6452  0.7140 -0.6728
  157SAPE   H8R17442   0.387   4.169   5.892 -1.3315  2.1196 -2.3509
  157SAPE   C2917443   0.352   4.043   5.727 -0.7510  0.5431 -0.1672
  157SAPE   H9R17444   0.416   4.109   5.667 -0.4509 -0.5956 -1.1368
  157SAPE  C21017445   0.295   3.919   5.653 -0.3486 -0.3021  0.0821
  157SAPE  H10R17446   0.280   3.825   5.711 -3.3649 -0.7561 -1.2139
  157SAPE  H10S17447   0.359   3.899   5.565 -0.6222  2.5290 -0.8409
  157SAPE  C21117448   0.146   3.963   5.618 -0.2010 -0.6940 -0.0066
  157SAPE  H11R17449   0.087   4.005   5.700  0.7145  1.7421 -0.5200
  157SAPE  C21217450   0.091   3.953   5.496 -0.5646 -0.0162  0.1471
  157SAPE  H12R17451  -0.006   4.001   5.476 -0.1895  0.7006  0.0194
  157SAPE  C21317452   0.153   3.898   5.367  0.3177  0.0206  0.0930
  157SAPE  H13R17453   0.221   3.812   5.382  0.6447  0.2431 -0.1072
  157SAPE  H13S17454   0.211   3.983   5.324  0.8282 -1.2661 -1.8796
  157SAPE  C21417455   0.052   3.843   5.272  0.4653  0.2051  0.2301
  157SAPE  H14R17456  -0.009   3.760   5.311  1.2648 -1.0058 -1.0089
  157SAPE  C21517457   0.019   3.877   5.146 -0.1581  0.6159 -0.6724
  157SAPE  H15R17458  -0.055   3.809   5.101 -1.5413 -0.3476  2.7253
  157SAPE  C21617459   0.070   3.988   5.054  0.2775 -0.5034 -0.3380
  157SAPE  H16R17460   0.165   4.025   5.096  0.1343 -2.3443  1.8003
  157SAPE  H16S17461   0.005   4.078   5.042 -1.4093 -1.4000  1.4644
  157SAPE  C21717462   0.099   3.944   4.911 -0.1361  0.2884 -0.1698
  157SAPE  H17R17463   0.160   3.853   4.928 -0.8674 -0.4059 -1.1587
  157SAPE  H17S17464   0.160   4.020   4.857 -3.4544  2.5879 -1.0366
  157SAPE  C21817465  -0.026   3.920   4.827  0.5121 -0.1548  0.6534
  157SAPE  H18R17466  -0.079   4.017   4.823 -0.0111 -0.4079  1.3353
  157SAPE  H18S17467  -0.093   3.848   4.878 -1.4881  0.3850 -1.0903
  157SAPE  C21917468   0.000   3.865   4.683 -1.2370 -0.3053  0.7574
  157SAPE  H19R17469   0.056   3.770   4.671  0.6044  1.0367 -2.7209
  157SAPE  H19S17470   0.071   3.943   4.648 -2.4807  0.5414  0.0438
  157SAPE  C22017471  -0.114   3.868   4.587 -0.0802  0.0235 -0.1957
  157SAPE  H20R17472  -0.081   3.864   4.480  1.8304 -1.2158  0.3808
  157SAPE  H20S17473  -0.173   3.960   4.607 -2.7290 -1.0314 -2.4610
  157SAPE  H20T17474  -0.192   3.794   4.614 -1.2472  1.0569 -0.6391
  157SAPE   C3317475   0.607   3.607   6.050 -0.0311 -0.4391 -0.1890
  157SAPE   H3X17476   0.573   3.667   6.137 -2.4512 -2.3779  0.3177
  157SAPE   H3Y17477   0.515   3.555   6.017 -0.9368  0.9242  0.1177
  157SAPE   C3417478   0.653   3.687   5.921  0.5284 -0.1540  0.3218
  157SAPE   H4X17479   0.764   3.688   5.909  0.3444  2.2014 -2.1100
  157SAPE   H4Y17480   0.624   3.794   5.928 -1.5356 -0.6178 -0.4696
  157SAPE   C3517481   0.578   3.629   5.801 -0.1839  0.1733 -0.3698
  157SAPE   H5X17482   0.468   3.636   5.818 -0.1870  1.3426 -0.7703
  157SAPE   H5Y17483   0.587   3.518   5.794  0.1037  0.2314 -0.9368
  157SAPE   C3617484   0.597   3.699   5.661 -0.2497  0.2522 -0.1194
  157SAPE   H6X17485   0.707   3.696   5.646  0.1048  2.1186  1.6673
  157SAPE   H6Y17486   0.573   3.806   5.676 -1.2077  0.1600 -0.9074
  157SAPE   C3717487   0.515   3.639   5.545 -0.3779 -0.1923  0.4375
  157SAPE   H7X17488   0.405   3.637   5.562 -0.8945  1.6750 -2.2124
  157SAPE   H7Y17489   0.545   3.532   5.533  2.2686  0.5193  0.0087
  157SAPE   C3817490   0.534   3.716   5.412 -0.7541  0.4033  0.1086
  157SAPE   H8X17491   0.643   3.721   5.393 -1.0868  1.2389 -1.8942
  157SAPE   H8Y17492   0.479   3.812   5.417 -1.9959 -0.0395 -2.6308
  157SAPE   C3917493   0.465   3.641   5.294  0.1948  0.2478 -0.3347
  157SAPE   H9X17494   0.355   3.632   5.305  0.3664 -0.1069  1.3396
  157SAPE   H9Y17495   0.500   3.535   5.287 -3.5393 -1.1944  0.3772
  157SAPE  C31017496   0.491   3.706   5.153 -0.5872  0.5918 -0.4467
  157SAPE  H10X17497   0.595   3.731   5.125 -0.7818  0.3964 -1.3688
  157SAPE  H10Y17498   0.429   3.798   5.158 -0.3691  0.6777  1.7230
  157SAPE  C31117499   0.434   3.626   5.040  0.0679  0.0743  0.1803
  157SAPE  H11X17500   0.326   3.611   5.064  0.0696  0.8875  0.7321
  157SAPE  H11Y17501   0.482   3.526   5.029 -0.6493 -0.0986 -1.5997
  157SAPE  C31217502   0.455   3.686   4.901  0.0389  0.2388 -0.9890
  157SAPE  H12X17503   0.418   3.791   4.897 -0.4571  0.2429  1.8037
  157SAPE  H12Y17504   0.393   3.625   4.831  2.0237 -0.1816 -2.4667
  157SAPE  C31317505   0.594   3.681   4.848  0.8046  1.3123 -0.0027
  157SAPE  H13X17506   0.650   3.600   4.899 -0.0870  0.5562 -0.2106
  157SAPE  H13Y17507   0.654   3.774   4.864  1.9213  1.1031 -2.5937
  157SAPE  C31417508   0.591   3.672   4.697 -0.3659  0.8951  0.1545
  157SAPE  H14X17509   0.537   3.760   4.654  0.2607  0.8549 -0.7440
  157SAPE  H14Y17510   0.520   3.588   4.683  0.3328  0.5068 -1.2122
  157SAPE  C31517511   0.726   3.651   4.626 -0.2417  0.3127 -0.5684
  157SAPE  H15X17512   0.717   3.604   4.526 -0.6977 -1.6941  0.3628
  157SAPE  H15Y17513   0.775   3.572   4.686 -2.8164 -0.4006  0.7335
  157SAPE  C31617514   0.811   3.770   4.614  0.2709 -0.1269  0.4487
  157SAPE  H16X17515   0.844   3.808   4.713  0.7353 -0.0537  0.2692
  157SAPE  H16Y17516   0.750   3.846   4.561  0.1042 -0.2363  0.4834
  157SAPE  C31717517   0.926   3.768   4.517  0.7493  0.1145  0.0295
  157SAPE  H17X17518   0.939   3.869   4.474 -0.1657  0.3848  0.3502
  157SAPE  H17Y17519   0.890   3.708   4.430 -1.6030 -0.0567  1.0403
  157SAPE  C31817520   1.050   3.713   4.581  0.0474  0.0671 -0.0270
  157SAPE  H18X17521   1.106   3.792   4.636  0.1663 -0.8754  1.2600
  157SAPE  H18Y17522   1.104   3.653   4.505 -1.9573 -0.2067 -1.2983
  157SAPE  H18Z17523   1.026   3.637   4.659  3.0104 -1.0908 -0.0874
  158SAPE     N17524   4.043   2.705   6.933 -0.1051  0.0812 -0.4985
  158SAPE   HN117525   4.123   2.658   6.980 -1.6332 -1.0994  1.0442
  158SAPE   HN217526   4.025   2.676   6.835 -3.0178 -0.5738  0.1517
  158SAPE   HN317527   4.067   2.806   6.930 -0.9016  0.3437  1.0964
  158SAPE   C1217528   3.924   2.683   7.016  0.1513  0.0920 -0.0558
  158SAPE  H12A17529   3.859   2.773   7.009  0.5608  0.3922  0.0240
  158SAPE  H12B17530   3.951   2.687   7.123 -0.1870  2.9631  0.0170
  158SAPE   C1117531   3.850   2.563   6.956 -0.2203 -0.0496  0.1724
  158SAPE  H11A17532   3.765   2.529   7.019 -0.2353  0.2360  0.3083
  158SAPE  H11B17533   3.920   2.477   6.960 -0.0384  0.0698 -0.4588
  158SAPE     P17534   3.669   2.625   6.776 -0.1000  0.1939  0.0183
  158SAPE   O1317535   3.628   2.735   6.863  0.2272  0.2791  0.8487
  158SAPE   O1417536   3.662   2.645   6.630 -0.7034  0.1764 -0.3467
  158SAPE   O1217537   3.812   2.594   6.818  0.0166  0.3820 -0.3625
  158SAPE   O1117538   3.590   2.494   6.819  0.3988 -0.5769 -0.1630
  158SAPE    C117539   3.582   2.372   6.750  0.8467 -0.3135  0.0909
  158SAPE    HA17540   3.504   2.305   6.791  0.0306  1.1478  0.9748
  158SAPE    HB17541   3.548   2.392   6.646  0.2902  2.3946  0.7163
  158SAPE    C217542   3.718   2.292   6.747  0.0527 -0.2041  0.2931
  158SAPE    HS17543   3.774   2.287   6.843  0.0326 -1.1342  0.2694
  158SAPE   O2117544   3.808   2.360   6.658  0.3565 -0.5649 -0.6755
  158SAPE   C2117545   3.935   2.335   6.650  0.3894  1.0256 -0.1403
  158SAPE   O2217546   4.001   2.260   6.722  0.1722  0.0071  0.0938
  158SAPE   C2217547   3.980   2.394   6.513  0.0210 -0.5786 -0.6555
  158SAPE   H2R17548   3.897   2.359   6.447 -0.4595 -0.5936 -0.0527
  158SAPE   H2S17549   3.969   2.504   6.526  2.4139 -0.4653  1.0364
  158SAPE    C317550   3.702   2.140   6.719  0.9712 -0.4713 -0.0477
  158SAPE    HX17551   3.632   2.096   6.793 -0.5931  0.3229 -1.0017
  158SAPE    HY17552   3.794   2.078   6.720  2.4482  1.6306  1.5330
  158SAPE   O3117553   3.642   2.125   6.589 -0.2608  0.2069  0.2289
  158SAPE   C3117554   3.597   2.001   6.557  0.2056  0.4723  0.0440
  158SAPE   O3217555   3.605   1.905   6.633 -0.3207  0.0213 -0.7455
  158SAPE   C3217556   3.544   1.990   6.419 -0.1235  0.1661 -0.7875
  158SAPE   H2X17557   3.626   2.039   6.363  1.0641  1.7417  2.0956
  158SAPE   H2Y17558   3.457   2.058   6.409 -0.8048 -0.7868 -1.5956
  158SAPE   C2317559   4.122   2.357   6.467 -0.3530  0.2068 -0.6157
  158SAPE   H3R17560   4.144   2.250   6.486  0.7405  0.6009  0.5314
  158SAPE   H3S17561   4.194   2.411   6.532  1.1889 -0.8566 -1.3929
  158SAPE   C2417562   4.149   2.403   6.321  0.8116 -0.3437 -0.3378
  158SAPE   H4R17563   4.135   2.513   6.314 -0.3998 -0.4712 -0.1447
  158SAPE   H4S17564   4.075   2.353   6.255 -0.3326  2.3900 -1.2963
  158SAPE   C2517565   4.291   2.378   6.282  0.3483 -0.1148 -0.5013
  158SAPE   H5R17566   4.350   2.324   6.358 -1.6974 -1.4126  0.2750
  158SAPE   C2617567   4.349   2.413   6.165 -0.3470  0.4060 -0.5902
  158SAPE   H6R17568   4.457   2.395   6.157 -0.2023  0.7766  0.3384
  158SAPE   C2717569   4.275   2.483   6.060 -0.2398 -0.1190  0.4068
  158SAPE   H7R17570   4.184   2.542   6.084  0.3887  1.5393 -1.1001
  158SAPE   H7S17571   4.252   2.404   5.987 -0.2984  1.6190 -1.5393
  158SAPE   C2817572   4.370   2.579   5.997 -0.1493  0.1769  0.1372
  158SAPE   H8R17573   4.469   2.598   6.041 -0.7203  1.2629  0.9828
  158SAPE   C2917574   4.365   2.601   5.866 -0.7277 -0.2900 -0.3239
  158SAPE   H9R17575   4.428   2.680   5.821  0.2589 -0.8482  0.0460
  158SAPE  C21017576   4.248   2.575   5.776 -0.2455 -0.3634 -0.4640
  158SAPE  H10R17577   4.179   2.659   5.755 -0.4128  0.0622  1.5715
  158SAPE  H10S17578   4.184   2.493   5.812 -0.4801 -0.3252 -0.7926
  158SAPE  C21117579   4.291   2.519   5.650 -0.0132  0.2398  0.3449
  158SAPE  H11R17580   4.348   2.425   5.656  0.1977  0.3671  0.3398
  158SAPE  C21217581   4.301   2.582   5.527 -0.3207  0.5410 -0.6094
  158SAPE  H12R17582   4.339   2.527   5.439 -1.9508 -0.0620 -0.9837
  158SAPE  C21317583   4.243   2.717   5.510 -0.2828 -0.1293  0.0976
  158SAPE  H13R17584   4.290   2.794   5.574 -0.3066 -0.0515  0.0211
  158SAPE  H13S17585   4.133   2.720   5.531 -1.0920  0.7048 -3.6077
  158SAPE  C21417586   4.249   2.772   5.372  0.1591  0.2117  0.7346
  158SAPE  H14R17587   4.312   2.722   5.296  0.9892  0.4317  1.2651
  158SAPE  C21517588   4.192   2.877   5.313  0.0065 -0.8430 -0.2870
  158SAPE  H15R17589   4.200   2.889   5.204  2.1553  3.2772  0.1072
  158SAPE  C21617590   4.095   2.974   5.382 -0.5900  0.8011  0.7089
  158SAPE  H16R17591   4.129   2.999   5.484  0.4781 -0.3253  0.6623
  158SAPE  H16S17592   4.011   2.906   5.406  1.3939 -2.5716 -1.0261
  158SAPE  C21717593   4.051   3.101   5.295 -0.7985  0.3176  0.3954
  158SAPE  H17R17594   3.955   3.138   5.336  0.2404  1.4021  1.9566
  158SAPE  H17S17595   4.029   3.052   5.197 -1.9687 -0.2880  0.9464
  158SAPE  C21817596   4.153   3.213   5.271  0.4485 -0.2553 -0.1655
  158SAPE  H18R17597   4.260   3.184   5.257  0.7629  0.8127 -0.0280
  158SAPE  H18S17598   4.148   3.277   5.361 -1.2031 -0.7819  0.1469
  158SAPE  C21917599   4.123   3.301   5.149 -0.0607 -0.3079  0.1509
  158SAPE  H19R17600   4.141   3.248   5.053  2.5042 -0.4056  0.6154
  158SAPE  H19S17601   4.194   3.385   5.140 -0.7273  0.2217 -0.2498
  158SAPE  C22017602   3.983   3.358   5.155  0.0368 -0.2757  0.0886
  158SAPE  H20R17603   3.956   3.386   5.259  0.4349 -0.2946  0.2002
  158SAPE  H20S17604   3.913   3.281   5.117  0.7814 -1.1156  0.3783
  158SAPE  H20T17605   3.987   3.451   5.094  1.8096  0.3709  1.0964
  158SAPE   C3317606   3.510   1.845   6.376 -0.6020 -0.0984  0.2284
  158SAPE   H3X17607   3.419   1.807   6.427 -0.8589 -1.8779 -1.4292
  158SAPE   H3Y17608   3.585   1.770   6.409 -1.2845 -0.8914  0.0152
  158SAPE   C3417609   3.492   1.826   6.225 -0.1845 -0.1815 -0.7199
  158SAPE   H4X17610   3.457   1.722   6.206 -1.9733  0.0411  0.9887
  158SAPE   H4Y17611   3.584   1.860   6.174  0.6197  2.0446  1.9800
  158SAPE   C3517612   3.387   1.917   6.150 -0.8354 -0.7537 -0.2705
  158SAPE   H5X17613   3.375   2.017   6.196  3.5667 -0.1558 -0.0561
  158SAPE   H5Y17614   3.292   1.860   6.139 -2.1682  1.4427 -0.5694
  158SAPE   C3617615   3.435   1.964   6.010 -0.4460  0.1430 -0.5990
  158SAPE   H6X17616   3.449   1.878   5.942  0.1771 -1.0749  1.0124
  158SAPE   H6Y17617   3.524   2.027   6.032 -0.0780 -0.4801 -0.2988
  158SAPE   C3717618   3.328   2.045   5.942 -0.3946 -0.4366 -0.1798
  158SAPE   H7X17619   3.323   2.138   6.002  2.0375 -1.2734  1.5121
  158SAPE   H7Y17620   3.230   1.995   5.959 -1.2520  0.7257 -1.5078
  158SAPE   C3817621   3.372   2.073   5.800  0.2978 -0.4555  0.1089
  158SAPE   H8X17622   3.282   2.086   5.736  0.3838 -0.4023 -0.0014
  158SAPE   H8Y17623   3.430   1.987   5.762  2.3708 -0.7718  3.5248
  158SAPE   C3917624   3.449   2.202   5.782 -0.0598 -0.0404  0.2057
  158SAPE   H9X17625   3.530   2.201   5.857  1.0341  3.2810 -0.7503
  158SAPE   H9Y17626   3.386   2.287   5.816  0.6562  0.3091  0.6722
  158SAPE  C31017627   3.519   2.224   5.648 -0.6818  0.2351 -0.1483
  158SAPE  H10X17628   3.582   2.139   5.616 -1.3885  0.7323 -3.1030
  158SAPE  H10Y17629   3.589   2.307   5.671 -0.7279 -0.4992  3.2153
  158SAPE  C31117630   3.423   2.252   5.533  0.0331 -0.5255 -0.0654
  158SAPE  H11X17631   3.350   2.330   5.564 -0.5447 -0.7021 -0.9565
  158SAPE  H11Y17632   3.365   2.159   5.515  0.5077 -1.0986  1.2331
  158SAPE  C31217633   3.486   2.308   5.402  0.3140 -0.2519  0.0302
  158SAPE  H12X17634   3.577   2.247   5.382 -0.9680 -1.2566 -3.2475
  158SAPE  H12Y17635   3.522   2.413   5.410 -0.3557  0.1172 -1.6013
  158SAPE  C31317636   3.380   2.299   5.294 -0.2595  0.1279 -0.3818
  158SAPE  H13X17637   3.290   2.357   5.325  1.0000  1.4725  0.8502
  158SAPE  H13Y17638   3.359   2.190   5.289  1.3280 -0.1902 -0.6691
  158SAPE  C31417639   3.423   2.338   5.150 -0.1440 -0.1884  0.3087
  158SAPE  H14X17640   3.462   2.442   5.144  0.9485 -0.5058  1.3390
  158SAPE  H14Y17641   3.339   2.311   5.084 -0.1235 -0.8776  0.5561
  158SAPE  C31517642   3.555   2.249   5.102  0.7098  0.3560 -0.3555
  158SAPE  H15X17643   3.528   2.143   5.117 -1.0340  0.7588 -0.4385
  158SAPE  H15Y17644   3.641   2.276   5.167  1.7061 -1.7684 -0.7078
  158SAPE  C31617645   3.588   2.281   4.957  0.7988 -0.4389 -0.0064
  158SAPE  H16X17646   3.595   2.392   4.961  1.5802 -0.3614 -2.0447
  158SAPE  H16Y17647   3.506   2.264   4.884 -0.9932  2.0691  1.2892
  158SAPE  C31717648   3.718   2.221   4.909  0.4093 -0.2512 -0.1407
  158SAPE  H17X17649   3.799   2.248   4.981  1.1149  1.6075 -1.5657
  158SAPE  H17Y17650   3.750   2.261   4.810  0.1584 -2.1437 -1.0321
  158SAPE  C31817651   3.710   2.070   4.891 -0.1350 -0.2416 -0.2923
  158SAPE  H18X17652   3.682   2.020   4.986  0.9286 -2.2904 -1.0004
  158SAPE  H18Y17653   3.809   2.034   4.855 -0.3237  1.4103 -2.7542
  158SAPE  H18Z17654   3.650   2.060   4.798 -0.0557 -2.7318 -0.1479
  159SAPE     N17655   6.134   6.777   2.529  0.2029  0.2287 -0.0588
  159SAPE   HN117656   6.195   6.712   2.474  0.7698 -0.7536  1.6447
  159SAPE   HN217657   6.117   6.732   2.621 -1.4486 -1.1987 -1.0120
  159SAPE   HN317658   6.042   6.787   2.483 -0.2204  1.0783  0.9474
  159SAPE   C1217659   6.208   6.915   2.536  0.3095 -0.0358 -0.2546
  159SAPE  H12A17660   6.146   7.001   2.568  2.1539  0.3735  2.4587
  159SAPE  H12B17661   6.240   6.932   2.431  1.5678  0.5530  0.2096
  159SAPE   C1117662   6.338   6.891   2.615  0.4797 -0.5210  0.2180
  159SAPE  H11A17663   6.317   6.873   2.723 -0.8703  1.7328  0.3826
  159SAPE  H11B17664   6.396   6.985   2.620 -2.4123  1.3172  1.8708
  159SAPE     P17665   6.542   6.804   2.468 -0.1339 -0.1057 -0.3741
  159SAPE   O1317666   6.502   6.858   2.333 -0.3437 -0.1017  0.5831
  159SAPE   O1417667   6.647   6.891   2.538  0.1292  0.0678 -0.4924
  159SAPE   O1217668   6.413   6.788   2.557 -0.7780  0.1328  0.4496
  159SAPE   O1117669   6.590   6.657   2.462 -0.2486  0.5413  0.4782
  159SAPE    C117670   6.580   6.562   2.572 -0.6663  1.0795  0.0769
  159SAPE    HA17671   6.482   6.563   2.625 -0.4665  0.2831  0.4670
  159SAPE    HB17672   6.588   6.458   2.534  1.0652  1.4850 -0.7464
  159SAPE    C217673   6.682   6.599   2.693 -0.7166  0.1090 -0.1404
  159SAPE    HS17674   6.682   6.710   2.701 -0.6757  0.1475 -0.6294
  159SAPE   O2117675   6.808   6.547   2.672  0.3837 -0.6148 -0.1609
  159SAPE   C2117676   6.907   6.627   2.708 -0.0999 -0.4176  0.1784
  159SAPE   O2217677   6.898   6.745   2.733 -0.0780 -0.3145 -0.3126
  159SAPE   C2217678   7.033   6.549   2.685  0.0972 -0.3893 -0.5185
  159SAPE   H2R17679   7.024   6.481   2.597 -1.9332  0.4472 -1.0193
  159SAPE   H2S17680   7.111   6.624   2.665 -0.5619  0.0781 -1.4235
  159SAPE    C317681   6.621   6.542   2.825  0.0816 -0.2183 -0.1015
  159SAPE    HX17682   6.697   6.569   2.902  0.8447  3.1195 -1.8497
  159SAPE    HY17683   6.638   6.433   2.809  2.1096  0.4628 -4.1663
  159SAPE   O3117684   6.482   6.575   2.853 -0.4212  0.5337 -0.0531
  159SAPE   C3117685   6.457   6.695   2.889 -0.1293 -0.0348 -0.0378
  159SAPE   O3217686   6.526   6.796   2.888 -0.3431 -0.5724 -0.5802
  159SAPE   C3217687   6.319   6.700   2.952 -0.0915  0.5884  0.6242
  159SAPE   H2X17688   6.324   6.621   3.031 -1.1085  0.5716  0.6794
  159SAPE   H2Y17689   6.254   6.653   2.875  0.6300  0.7655 -0.1064
  159SAPE   C2317690   7.098   6.469   2.805  0.1501  0.4499  0.0475
  159SAPE   H3R17691   7.186   6.411   2.772  1.5287  2.6302 -0.2647
  159SAPE   H3S17692   7.022   6.394   2.837 -0.8043  0.7308 -1.4756
  159SAPE   C2417693   7.132   6.551   2.927 -0.6258 -0.1408  0.3165
  159SAPE   H4R17694   7.161   6.477   3.005  0.6687 -0.6726 -0.6382
  159SAPE   H4S17695   7.049   6.613   2.967 -0.2131 -0.1153  1.1679
  159SAPE   C2517696   7.256   6.633   2.888 -0.2243 -0.2920 -0.6101
  159SAPE   H5R17697   7.355   6.586   2.877  2.3681  4.0818  1.2522
  159SAPE   C2617698   7.259   6.765   2.892 -0.3087  0.3705 -0.0399
  159SAPE   H6R17699   7.359   6.807   2.880  0.5657 -1.9596 -1.7131
  159SAPE   C2717700   7.146   6.862   2.922 -0.1732  0.3003  0.4331
  159SAPE   H7R17701   7.050   6.807   2.926  0.0560 -0.1522 -0.1719
  159SAPE   H7S17702   7.125   6.916   2.827 -2.8361 -0.7868  0.3195
  159SAPE   C2817703   7.173   6.945   3.052 -0.3213  0.9589 -0.2523
  159SAPE   H8R17704   7.279   6.965   3.075 -0.0398 -0.0382 -0.6497
  159SAPE   C2917705   7.091   6.986   3.146  0.2638 -0.1529  0.5338
  159SAPE   H9R17706   7.129   7.053   3.225  1.8988  0.0198 -0.3718
  159SAPE  C21017707   6.940   6.980   3.163  0.8714 -0.0486  0.4146
  159SAPE  H10R17708   6.891   6.936   3.074 -0.1476 -0.6928  1.2682
  159SAPE  H10S17709   6.906   7.085   3.174 -0.2277 -0.2791 -0.6671
  159SAPE  C21117710   6.903   6.901   3.286 -0.0059 -0.2280  0.0453
  159SAPE  H11R17711   6.935   6.938   3.385  0.6015 -4.5771  1.6961
  159SAPE  C21217712   6.825   6.793   3.295  0.0772 -0.5626 -0.8935
  159SAPE  H12R17713   6.836   6.749   3.396  0.6664 -0.8940 -1.0953
  159SAPE  C21317714   6.757   6.724   3.184 -0.4329 -0.2184  0.5181
  159SAPE  H13R17715   6.770   6.783   3.091  0.9500  0.2998  1.0165
  159SAPE  H13S17716   6.650   6.732   3.213 -0.8737  0.6355 -1.2336
  159SAPE  C21417717   6.799   6.577   3.168 -0.4827  0.2671 -0.1367
  159SAPE  H14R17718   6.907   6.557   3.173 -0.2279  1.8293  2.1414
  159SAPE  C21517719   6.713   6.469   3.175 -0.3053 -0.2568 -0.3210
  159SAPE  H15R17720   6.755   6.367   3.174  0.3033 -0.2090  3.6247
  159SAPE  C21617721   6.567   6.448   3.186  0.0699 -0.4605 -0.2695
  159SAPE  H16R17722   6.517   6.452   3.087 -1.9860  2.1117  0.7337
  159SAPE  H16S17723   6.524   6.538   3.235 -1.8336 -1.3779 -0.1670
  159SAPE  C21717724   6.538   6.330   3.274  0.4387 -0.0165 -0.1019
  159SAPE  H17R17725   6.592   6.342   3.371  3.3183 -1.0918 -1.4698
  159SAPE  H17S17726   6.583   6.239   3.229  0.3934  0.1660 -0.5195
  159SAPE  C21817727   6.387   6.321   3.310  0.0622  0.0003 -0.9547
  159SAPE  H18R17728   6.331   6.303   3.215  0.9531 -1.6978 -1.1847
  159SAPE  H18S17729   6.352   6.416   3.356 -0.8842 -1.3219  1.1616
  159SAPE  C21917730   6.361   6.209   3.413  0.0298  0.1884 -0.0120
  159SAPE  H19R17731   6.403   6.108   3.394 -3.0436 -1.7198  2.2727
  159SAPE  H19S17732   6.252   6.189   3.398  0.0932  0.5777 -1.0961
  159SAPE  C22017733   6.398   6.243   3.557  0.5524 -0.4109 -0.0373
  159SAPE  H20R17734   6.508   6.258   3.562  0.6753 -1.1616 -0.2639
  159SAPE  H20S17735   6.378   6.158   3.625 -2.5159 -0.0120 -0.2708
  159SAPE  H20T17736   6.351   6.335   3.595 -1.7856 -1.6900  0.3687
  159SAPE   C3317737   6.261   6.829   3.016 -0.8791  0.3512 -0.6035
  159SAPE   H3X17738   6.235   6.913   2.949 -3.6443  0.7199  0.7902
  159SAPE   H3Y17739   6.334   6.863   3.093  0.4422 -0.4713 -1.4510
  159SAPE   C3417740   6.132   6.797   3.089 -0.3259 -0.1229  0.4566
  159SAPE   H4X17741   6.122   6.690   3.118  2.2965 -0.7378 -0.6151
  159SAPE   H4Y17742   6.050   6.821   3.018  0.0502 -2.7915 -0.9842
  159SAPE   C3517743   6.108   6.896   3.216 -0.0505  0.1160 -0.2848
  159SAPE   H5X17744   6.002   6.888   3.249 -0.1702 -1.9880 -1.0229
  159SAPE   H5Y17745   6.124   6.996   3.171 -0.6836 -0.6644 -2.3531
  159SAPE   C3617746   6.203   6.858   3.340 -0.3235 -0.4850  0.8291
  159SAPE   H6X17747   6.195   6.949   3.404 -1.7181  0.4315 -0.5704
  159SAPE   H6Y17748   6.308   6.876   3.308 -0.4849  0.5731  0.8379
  159SAPE   C3717749   6.173   6.730   3.408  0.1396  0.6868 -0.0930
  159SAPE   H7X17750   6.187   6.654   3.328 -2.4684  2.2777 -2.2317
  159SAPE   H7Y17751   6.076   6.725   3.462  0.8860 -0.3828  1.2183
  159SAPE   C3817752   6.269   6.689   3.526 -0.0084 -0.1216 -1.0987
  159SAPE   H8X17753   6.264   6.580   3.550  0.3495 -0.0038 -0.4522
  159SAPE   H8Y17754   6.244   6.743   3.620 -0.9430 -2.0812 -0.1475
  159SAPE   C3917755   6.419   6.702   3.499 -0.5556 -0.4287  0.8178
  159SAPE   H9X17756   6.444   6.806   3.471  1.8796 -1.2753 -0.4612
  159SAPE   H9Y17757   6.434   6.651   3.401 -1.3308  1.3282 -0.2593
  159SAPE  C31017758   6.512   6.640   3.608  0.1382  0.0616 -0.0120
  159SAPE  H10X17759   6.503   6.529   3.613 -0.2224 -0.0560 -2.1438
  159SAPE  H10Y17760   6.477   6.680   3.705 -0.6141 -0.1588 -0.1877
  159SAPE  C31117761   6.657   6.676   3.589 -0.0938 -0.5442 -0.6988
  159SAPE  H11X17762   6.663   6.786   3.576 -0.5413 -0.4118  0.1368
  159SAPE  H11Y17763   6.690   6.635   3.491  1.3510 -0.4033 -0.2923
  159SAPE  C31217764   6.744   6.630   3.709  0.0510 -1.2071 -0.2295
  159SAPE  H12X17765   6.737   6.520   3.723 -1.5576 -1.1810 -0.6268
  159SAPE  H12Y17766   6.689   6.672   3.796  2.3974 -0.1349  0.8397
  159SAPE  C31317767   6.876   6.702   3.713 -0.5100  0.3161 -0.2803
  159SAPE  H13X17768   6.872   6.813   3.713 -1.3551  0.3086  1.0680
  159SAPE  H13Y17769   6.930   6.661   3.625 -2.6714 -0.0546 -1.5287
  159SAPE  C31417770   6.952   6.657   3.841 -0.6849  0.2410 -0.8354
  159SAPE  H14X17771   6.958   6.546   3.840 -1.6230  0.1498  0.8097
  159SAPE  H14Y17772   6.891   6.688   3.928 -0.2545  1.3306 -0.9117
  159SAPE  C31517773   7.087   6.718   3.847  0.9907  0.5711 -0.1016
  159SAPE  H15X17774   7.073   6.828   3.838 -1.8212  0.1522 -2.3636
  159SAPE  H15Y17775   7.146   6.689   3.758  0.4169 -1.4225  0.1334
  159SAPE  C31617776   7.170   6.669   3.963 -0.2198 -0.0907 -0.2303
  159SAPE  H16X17777   7.134   6.574   4.007  1.9367  0.1443  2.3004
  159SAPE  H16Y17778   7.143   6.740   4.044 -3.0884 -0.6518 -0.5972
  159SAPE  C31717779   7.313   6.666   3.932 -0.0713 -0.9180 -0.0814
  159SAPE  H17X17780   7.343   6.767   3.897 -1.1918 -1.1515 -1.8298
  159SAPE  H17Y17781   7.331   6.591   3.852  1.2945 -1.2917  0.5437
  159SAPE  C31817782   7.403   6.630   4.049 -0.1080 -0.2964 -0.0255
  159SAPE  H18X17783   7.510   6.648   4.023  0.8721 -2.2324  2.2125
  159SAPE  H18Y17784   7.395   6.520   4.066 -4.3137 -0.3937 -1.6389
  159SAPE  H18Z17785   7.374   6.674   4.147 -2.4935 -3.3232  0.7919
  160SAPE     N17786   5.785   4.743   2.430 -0.2612 -0.3956 -0.4072
  160SAPE   HN117787   5.747   4.669   2.368 -0.7237 -2.5439  2.2532
  160SAPE   HN217788   5.701   4.781   2.477 -0.3177  1.6072 -2.0187
  160SAPE   HN317789   5.848   4.796   2.367  0.8725 -0.2585  0.7914
  160SAPE   C1217790   5.885   4.685   2.528 -0.2915  0.4731 -0.5875
  160SAPE  H12A17791   5.864   4.579   2.554  1.0551 -0.3955 -2.7839
  160SAPE  H12B17792   5.884   4.750   2.618  1.7656  0.7148 -0.7001
  160SAPE   C1117793   6.020   4.690   2.452  0.4045 -0.0820 -0.2076
  160SAPE  H11A17794   6.006   4.622   2.365  3.0334  1.0210 -1.6115
  160SAPE  H11B17795   6.097   4.660   2.526  1.4626  1.4372 -0.6449
  160SAPE     P17796   6.181   4.901   2.458 -0.0624  0.0540 -0.0407
  160SAPE   O1317797   6.302   4.834   2.411  0.2219 -0.6920 -0.3121
  160SAPE   O1417798   6.160   5.043   2.427 -0.4827  0.3076  0.5991
  160SAPE   O1217799   6.057   4.819   2.403 -0.2714  0.5558 -0.2901
  160SAPE   O1117800   6.173   4.886   2.614  0.7989 -0.2942  0.4000
  160SAPE    C117801   6.101   4.986   2.692  0.8628 -0.4510  0.8060
  160SAPE    HA17802   6.129   5.091   2.672 -0.4813 -0.2156  0.0976
  160SAPE    HB17803   5.991   4.983   2.684  0.8805  0.3051  0.1455
  160SAPE    C217804   6.126   4.944   2.841  0.0537 -0.1236 -0.0725
  160SAPE    HS17805   6.060   5.008   2.904  1.8156 -0.3634  2.1161
  160SAPE   O2117806   6.262   4.978   2.871  0.1489  0.3200 -0.1550
  160SAPE   C2117807   6.313   5.098   2.851  0.1119  0.3237  0.0436
  160SAPE   O2217808   6.247   5.198   2.826 -0.1630 -0.7882 -0.3711
  160SAPE   C2217809   6.467   5.089   2.871  0.3324  0.5375  0.2840
  160SAPE   H2R17810   6.484   4.980   2.865 -1.8480 -0.1193  3.6348
  160SAPE   H2S17811   6.514   5.135   2.781  1.0447  0.3471  0.5580
  160SAPE    C317812   6.084   4.795   2.875 -1.2637  0.5698  0.8671
  160SAPE    HX17813   6.132   4.757   2.968 -0.7050  1.7004  1.0547
  160SAPE    HY17814   6.120   4.727   2.795 -1.4526  2.1444 -0.5872
  160SAPE   O3117815   5.944   4.788   2.886 -0.4217  0.2173 -0.0898
  160SAPE   C3117816   5.897   4.664   2.909  0.1225  1.0983  0.2509
  160SAPE   O3217817   5.964   4.563   2.911 -0.2393  0.0647 -0.1013
  160SAPE   C3217818   5.750   4.673   2.947  0.1060 -0.4755 -0.5193
  160SAPE   H2X17819   5.702   4.582   2.905 -0.0860 -0.6296  0.0293
  160SAPE   H2Y17820   5.700   4.763   2.905 -1.3230 -1.3731 -0.7986
  160SAPE   C2317821   6.519   5.155   2.994  0.6491  0.5452 -0.3505
  160SAPE   H3R17822   6.494   5.094   3.083 -0.6782 -1.1672 -1.8344
  160SAPE   H3S17823   6.461   5.246   3.022 -0.1773  0.1092 -0.6200
  160SAPE   C2417824   6.668   5.184   2.997  0.3471  0.0024  0.2449
  160SAPE   H4R17825   6.702   5.235   3.090 -2.3853  1.4947  0.5405
  160SAPE   H4S17826   6.685   5.261   2.919  0.1217 -0.5786 -0.3788
  160SAPE   C2517827   6.751   5.057   2.974  0.4417  0.0579  1.1151
  160SAPE   H5R17828   6.752   5.012   2.874  2.1720 -0.9614  1.5583
  160SAPE   C2617829   6.814   4.977   3.063 -0.2035  0.4682 -0.3758
  160SAPE   H6R17830   6.860   4.882   3.031  0.4503 -0.3648  2.6761
  160SAPE   C2717831   6.818   4.999   3.217  0.5974  0.0153  0.7385
  160SAPE   H7R17832   6.738   5.070   3.245 -0.3637 -1.0848  0.8937
  160SAPE   H7S17833   6.907   5.058   3.247  1.1487  0.3459 -1.3794
  160SAPE   C2817834   6.800   4.886   3.317  0.9537  0.1702 -0.0297
  160SAPE   H8R17835   6.806   4.780   3.285 -0.4661 -0.1144  0.5951
  160SAPE   C2917836   6.779   4.897   3.450  0.1778 -0.4562 -0.3700
  160SAPE   H9R17837   6.777   4.813   3.522  0.6440  1.1811  1.6313
  160SAPE  C21017838   6.762   5.033   3.519  0.3389 -0.2237  0.0031
  160SAPE  H10R17839   6.763   5.119   3.449  0.1446  0.8102  1.2216
  160SAPE  H10S17840   6.848   5.050   3.588 -0.3083  0.7254  0.5986
  160SAPE  C21117841   6.628   5.043   3.583  0.1476 -0.1292 -0.7178
  160SAPE  H11R17842   6.552   5.086   3.516 -0.2164  0.9664  0.3465
  160SAPE  C21217843   6.595   4.992   3.707  0.0680  0.8777 -0.5500
  160SAPE  H12R17844   6.492   4.990   3.745  1.4343  0.3321  3.5771
  160SAPE  C21317845   6.689   4.920   3.801 -0.7010  0.6840  0.1678
  160SAPE  H13R17846   6.767   4.862   3.749 -0.3423  0.5273  0.8629
  160SAPE  H13S17847   6.632   4.854   3.870  0.9994  1.0170  1.9795
  160SAPE  C21417848   6.778   5.023   3.878 -0.1428  0.4524  0.6280
  160SAPE  H14R17849   6.850   5.085   3.822 -0.7987  0.8895  0.2561
  160SAPE  C21517850   6.766   5.050   4.008 -0.7445 -0.4487 -0.3250
  160SAPE  H15R17851   6.841   5.116   4.053 -0.5113  0.0801 -1.4622
  160SAPE  C21617852   6.675   4.986   4.110 -0.3334  0.9054 -0.0678
  160SAPE  H16R17853   6.623   4.899   4.066  0.5579 -0.3959  1.3592
  160SAPE  H16S17854   6.597   5.058   4.143 -0.2268  2.3578 -2.6906
  160SAPE  C21717855   6.741   4.921   4.236  0.4018 -0.3090  0.7606
  160SAPE  H17R17856   6.787   5.007   4.289 -0.2876  0.2746  0.4307
  160SAPE  H17S17857   6.821   4.851   4.203 -0.0849 -1.2208  1.4968
  160SAPE  C21817858   6.636   4.861   4.333  0.7747 -0.0705 -0.5847
  160SAPE  H18R17859   6.599   4.765   4.292  3.0628 -0.5450 -1.6793
  160SAPE  H18S17860   6.554   4.935   4.346 -0.1015 -1.1250  0.0192
  160SAPE  C21917861   6.687   4.815   4.468 -0.0736  0.3309  0.0720
  160SAPE  H19R17862   6.696   4.908   4.528 -0.9188  0.0905  0.5955
  160SAPE  H19S17863   6.780   4.755   4.467  0.8034  1.6623 -0.5999
  160SAPE  C22017864   6.575   4.739   4.541  0.6663 -0.1402 -0.1042
  160SAPE  H20R17865   6.610   4.680   4.629  2.2428 -1.5547 -1.6253
  160SAPE  H20S17866   6.537   4.658   4.475  0.0608 -0.0441  0.1184
  160SAPE  H20T17867   6.491   4.810   4.556  0.9487  0.4955 -1.4354
  160SAPE   C3317868   5.743   4.660   3.098 -0.2425 -0.1509 -0.1344
  160SAPE   H3X17869   5.817   4.721   3.154  0.2807 -1.1341  0.2647
  160SAPE   H3Y17870   5.770   4.556   3.123  1.0961  0.4365  0.9569
  160SAPE   C3417871   5.600   4.684   3.146 -0.6493 -0.2001 -0.3286
  160SAPE   H4X17872   5.531   4.600   3.124  1.4581 -0.9178 -5.7795
  160SAPE   H4Y17873   5.560   4.761   3.076 -2.5368 -1.5162 -0.7555
  160SAPE   C3517874   5.591   4.741   3.286 -0.2449  0.2519 -0.4014
  160SAPE   H5X17875   5.489   4.732   3.330 -0.2448 -1.5327 -0.6981
  160SAPE   H5Y17876   5.624   4.846   3.280  0.4060  0.1698  1.1677
  160SAPE   C3617877   5.683   4.662   3.380 -0.4873 -0.0379 -0.3641
  160SAPE   H6X17878   5.790   4.685   3.364 -0.0577 -1.6554 -0.0102
  160SAPE   H6Y17879   5.668   4.552   3.369  1.6455 -0.1990 -2.2446
  160SAPE   C3717880   5.653   4.698   3.527 -0.3741  0.1047  0.6095
  160SAPE   H7X17881   5.548   4.673   3.552 -0.6487  1.4595  0.8957
  160SAPE   H7Y17882   5.663   4.808   3.530  1.3497  0.1276 -2.1763
  160SAPE   C3817883   5.741   4.622   3.626  0.8158  0.0547 -0.6551
  160SAPE   H8X17884   5.842   4.623   3.580  0.3129 -1.3138 -1.8680
  160SAPE   H8Y17885   5.711   4.517   3.642  1.5166  0.0556  0.8197
  160SAPE   C3917886   5.736   4.699   3.760 -0.5904 -0.4229  0.5407
  160SAPE   H9X17887   5.755   4.808   3.748  2.4154 -1.0569 -1.4257
  160SAPE   H9Y17888   5.813   4.653   3.824  0.2668  0.4797  0.1877
  160SAPE  C31017889   5.597   4.676   3.837  0.0299 -0.6160 -0.0455
  160SAPE  H10X17890   5.555   4.573   3.837  0.7251 -0.9215 -1.0909
  160SAPE  H10Y17891   5.525   4.722   3.765 -1.8290 -0.7825  1.6426
  160SAPE  C31117892   5.577   4.756   3.965  0.8016  0.5455 -0.3142
  160SAPE  H11X17893   5.472   4.792   3.969  0.2255 -0.8946 -1.4033
  160SAPE  H11Y17894   5.637   4.850   3.966  2.3807 -0.3891 -1.7436
  160SAPE  C31217895   5.609   4.669   4.090 -0.2700 -0.5324  0.7536
  160SAPE  H12X17896   5.720   4.666   4.095 -0.2323 -2.6040 -0.1054
  160SAPE  H12Y17897   5.563   4.570   4.069 -2.3071  0.7630 -1.3529
  160SAPE  C31317898   5.554   4.729   4.219  0.2834  0.0870 -0.0431
  160SAPE  H13X17899   5.443   4.722   4.222  0.4165 -2.4019  1.3147
  160SAPE  H13Y17900   5.577   4.838   4.215 -0.3375  0.2451  0.4884
  160SAPE  C31417901   5.627   4.660   4.338 -0.3839 -0.4827 -0.6141
  160SAPE  H14X17902   5.612   4.720   4.430 -1.0986 -2.2801  0.4967
  160SAPE  H14Y17903   5.737   4.673   4.325 -0.7772  3.5664 -1.2825
  160SAPE  C31517904   5.578   4.514   4.354 -0.6633  0.1951  0.2159
  160SAPE  H15X17905   5.596   4.462   4.258 -2.8599 -1.7572  0.7718
  160SAPE  H15Y17906   5.468   4.509   4.374 -0.6684 -3.6736 -0.0430
  160SAPE  C31617907   5.660   4.445   4.465  0.4160  0.2341  0.0751
  160SAPE  H16X17908   5.685   4.518   4.544  0.1703 -0.5140  0.8548
  160SAPE  H16Y17909   5.758   4.419   4.420  0.4911 -1.8112  1.3081
  160SAPE  C31717910   5.590   4.315   4.524 -0.0391 -0.0012  0.5649
  160SAPE  H17X17911   5.577   4.258   4.430  1.0870 -0.4247  0.6515
  160SAPE  H17Y17912   5.490   4.344   4.565  0.3156  0.3888  1.1734
  160SAPE  C31817913   5.679   4.240   4.627  0.2494  0.4133  0.3042
  160SAPE  H18X17914   5.636   4.139   4.647  0.9903  0.1722  0.7375
  160SAPE  H18Y17915   5.695   4.290   4.725 -1.1522  1.9707 -0.2343
  160SAPE  H18Z17916   5.779   4.221   4.582 -0.4140 -4.2351  0.3384
  161SAPE     N17917   4.009   6.893   2.023 -0.2209 -0.3407  0.4312
  161SAPE   HN117918   3.922   6.931   1.981 -0.8121 -3.1625 -1.1460
  161SAPE   HN217919   4.015   6.923   2.123  4.9208  0.2139  0.2361
  161SAPE   HN317920   4.089   6.942   1.979 -1.2783  3.0169  1.9333
  161SAPE   C1217921   4.013   6.743   2.005  0.5317 -1.1469  0.8598
  161SAPE  H12A17922   4.099   6.704   2.064  0.3861 -0.5497  1.4813
  161SAPE  H12B17923   4.035   6.726   1.897 -1.8255  0.6139  0.0258
  161SAPE   C1117924   3.888   6.675   2.063 -0.3291  0.0210 -0.5256
  161SAPE  H11A17925   3.896   6.564   2.053 -0.5209 -0.1068  0.6348
  161SAPE  H11B17926   3.808   6.705   1.992 -0.6683  0.7151  0.1343
  161SAPE     P17927   3.771   6.641   2.289  0.2045  0.1247 -0.1219
  161SAPE   O1317928   3.719   6.725   2.399 -0.2850 -1.0715 -0.6747
  161SAPE   O1417929   3.661   6.581   2.212  0.6279  0.2922 -0.0058
  161SAPE   O1217930   3.858   6.728   2.192  0.1596 -0.0111 -0.0321
  161SAPE   O1117931   3.864   6.534   2.353 -0.1218  0.2531 -0.4808
  161SAPE    C117932   3.981   6.567   2.423 -0.0671 -0.4409  0.7512
  161SAPE    HA17933   4.064   6.499   2.392  0.4307  0.4457  0.0903
  161SAPE    HB17934   4.014   6.671   2.404 -0.4594 -0.4047  0.2495
  161SAPE    C217935   3.958   6.540   2.572  0.1889 -0.7559 -0.1641
  161SAPE    HS17936   3.909   6.441   2.587 -0.3300 -0.6673 -1.2131
  161SAPE   O2117937   3.877   6.642   2.634 -0.1922 -0.5278 -0.1751
  161SAPE   C2117938   3.796   6.605   2.739  0.1116 -0.5988 -0.6758
  161SAPE   O2217939   3.792   6.491   2.771 -0.1529  0.0290 -0.2927
  161SAPE   C2217940   3.753   6.732   2.812  0.2303 -0.1567 -0.4597
  161SAPE   H2R17941   3.819   6.811   2.768  2.2673  0.3555  3.1045
  161SAPE   H2S17942   3.650   6.765   2.787  0.9493  1.5842 -1.3469
  161SAPE    C317943   4.102   6.528   2.637 -0.0267 -0.6722  0.5848
  161SAPE    HX17944   4.133   6.632   2.613 -0.3294 -0.7792 -0.3360
  161SAPE    HY17945   4.164   6.459   2.577 -0.8840 -1.1787  0.2523
  161SAPE   O3117946   4.096   6.507   2.781 -0.4016  1.2479 -0.0662
  161SAPE   C3117947   4.089   6.378   2.808 -0.2806  0.7706  0.4261
  161SAPE   O3217948   4.084   6.287   2.726  0.1013  0.1001  0.6097
  161SAPE   C3217949   4.067   6.356   2.955  0.2334 -0.1912  1.1770
  161SAPE   H2X17950   4.026   6.446   3.006 -0.2897 -0.1394  0.6771
  161SAPE   H2Y17951   4.166   6.336   3.000  0.4499  1.3590  1.4302
  161SAPE   C2317952   3.773   6.730   2.968  0.5921  0.7070 -0.0334
  161SAPE   H3R17953   3.797   6.836   2.990 -0.5670  0.7359  1.1801
  161SAPE   H3S17954   3.858   6.661   2.987 -0.6055 -1.1889 -1.2540
  161SAPE   C2417955   3.638   6.683   3.040 -0.0548  0.1692 -0.1077
  161SAPE   H4R17956   3.549   6.726   2.989 -1.2020 -2.2956 -0.3719
  161SAPE   H4S17957   3.634   6.726   3.143 -4.2583 -1.6896  0.7361
  161SAPE   C2517958   3.623   6.535   3.046  0.4866 -0.3487 -0.1110
  161SAPE   H5R17959   3.625   6.476   2.954  0.9418 -1.2098  0.4378
  161SAPE   C2617960   3.608   6.468   3.166 -0.0345  0.3390 -0.2217
  161SAPE   H6R17961   3.581   6.362   3.162 -2.2986  0.8278  0.3442
  161SAPE   C2717962   3.621   6.529   3.305 -0.2748 -0.2469  0.0029
  161SAPE   H7R17963   3.691   6.615   3.303  0.7325 -1.0511 -1.5719
  161SAPE   H7S17964   3.665   6.441   3.357  0.4955 -0.8948 -1.6831
  161SAPE   C2817965   3.492   6.582   3.365 -0.5701 -0.0673  0.2877
  161SAPE   H8R17966   3.423   6.634   3.297 -0.3226  1.0136  0.8507
  161SAPE   C2917967   3.454   6.570   3.491  0.3386  0.4192 -0.4230
  161SAPE   H9R17968   3.360   6.619   3.520  1.3092  2.7602 -0.9714
  161SAPE  C21017969   3.521   6.510   3.607 -0.4129 -0.7201 -0.4072
  161SAPE  H10R17970   3.604   6.440   3.585  0.7174  0.6456 -0.6147
  161SAPE  H10S17971   3.443   6.456   3.665 -1.1343 -0.1083 -0.7980
  161SAPE  C21117972   3.570   6.625   3.687 -0.0970  0.9360 -0.0040
  161SAPE  H11R17973   3.624   6.703   3.632 -0.7126  1.2435 -0.1877
  161SAPE  C21217974   3.562   6.642   3.821  0.7921 -0.8873 -0.2364
  161SAPE  H12R17975   3.615   6.730   3.860 -1.6491  0.6835 -0.2012
  161SAPE  C21317976   3.499   6.563   3.929  0.2231 -0.0120 -1.1907
  161SAPE  H13R17977   3.504   6.463   3.883  1.0539 -1.0877  1.0782
  161SAPE  H13S17978   3.392   6.587   3.943  0.3015  0.1188 -0.7837
  161SAPE  C21417979   3.569   6.573   4.059 -0.2345  0.3094  0.1472
  161SAPE  H14R17980   3.679   6.573   4.057 -0.1001 -3.1342  1.4430
  161SAPE  C21517981   3.516   6.578   4.180 -0.2859 -0.6888  0.3505
  161SAPE  H15R17982   3.580   6.579   4.270  0.0005  0.0375  0.1474
  161SAPE  C21617983   3.371   6.553   4.214  0.3105 -0.3445 -0.2043
  161SAPE  H16R17984   3.311   6.491   4.144  1.6377 -1.8262 -0.0755
  161SAPE  H16S17985   3.324   6.653   4.204  0.9177 -0.0425 -0.0900
  161SAPE  C21717986   3.351   6.497   4.356 -0.2222 -0.4669  0.0738
  161SAPE  H17R17987   3.435   6.436   4.393 -1.0853 -1.7947 -0.1065
  161SAPE  H17S17988   3.256   6.439   4.354 -0.2766 -0.7148  3.6185
  161SAPE  C21817989   3.330   6.603   4.463 -0.4936 -0.1566  0.0944
  161SAPE  H18R17990   3.270   6.685   4.417  1.9382  1.1791 -0.9178
  161SAPE  H18S17991   3.425   6.645   4.503 -1.2576  1.5974  0.1509
  161SAPE  C21917992   3.247   6.550   4.583 -0.0647 -0.1859 -0.4400
  161SAPE  H19R17993   3.299   6.455   4.606  0.0613 -0.5546 -2.1348
  161SAPE  H19S17994   3.148   6.520   4.542  0.6604 -0.4116 -2.0860
  161SAPE  C22017995   3.239   6.641   4.701 -0.3155 -0.0351  0.0901
  161SAPE  H20R17996   3.153   6.710   4.692 -0.3959  0.1661  2.1020
  161SAPE  H20S17997   3.331   6.701   4.717 -0.3463  0.1405 -0.3651
  161SAPE  H20T17998   3.217   6.576   4.788  0.4420  0.7931  0.9273
  161SAPE   C3317999   3.987   6.227   2.975  0.3483 -0.6929  0.6365
  161SAPE   H3X18000   4.042   6.151   2.916  4.3398 -0.6991  3.8668
  161SAPE   H3Y18001   3.884   6.228   2.934  1.0064 -0.2090 -1.0690
  161SAPE   C3418002   3.994   6.170   3.119  0.0207 -0.6714  0.0581
  161SAPE   H4X18003   4.099   6.138   3.132  0.5357 -0.2844 -2.5380
  161SAPE   H4Y18004   3.929   6.080   3.124 -2.8037  1.2357 -0.1144
  161SAPE   C3518005   3.931   6.268   3.218 -0.3638  0.4526  0.5953
  161SAPE   H5X18006   3.843   6.311   3.166  1.9127  4.9652 -0.0629
  161SAPE   H5Y18007   3.993   6.357   3.245 -1.5581  1.3183  0.5798
  161SAPE   C3618008   3.888   6.210   3.352 -0.6351 -0.2985  0.5201
  161SAPE   H6X18009   3.795   6.150   3.337  1.0939 -3.2293  0.8062
  161SAPE   H6Y18010   3.859   6.290   3.423 -0.7614 -1.3526  1.6828
  161SAPE   C3718011   3.986   6.129   3.430 -0.5105 -0.2284  0.8945
  161SAPE   H7X18012   4.088   6.173   3.416  0.3144 -2.0120  0.9788
  161SAPE   H7Y18013   3.990   6.026   3.388 -0.6906  0.1866 -0.1914
  161SAPE   C3818014   3.963   6.127   3.575 -0.1414 -0.4207  0.2542
  161SAPE   H8X18015   3.864   6.084   3.602 -0.0957 -0.0139  1.1176
  161SAPE   H8Y18016   3.955   6.232   3.612 -0.3667 -0.0272 -0.8649
  161SAPE   C3918017   4.071   6.068   3.659 -0.7093 -0.3861 -0.3530
  161SAPE   H9X18018   4.171   6.111   3.633 -1.4664  2.5453  1.1428
  161SAPE   H9Y18019   4.073   5.958   3.646 -0.5943 -0.2422 -1.6980
  161SAPE  C31018020   4.061   6.093   3.811 -0.8300  0.1927 -1.1557
  161SAPE  H10X18021   3.954   6.078   3.839 -1.3947  1.1658 -2.6593
  161SAPE  H10Y18022   4.096   6.196   3.837  1.6694 -1.1869  1.5056
  161SAPE  C31118023   4.153   6.008   3.896  0.2287  0.2072 -0.2247
  161SAPE  H11X18024   4.250   6.023   3.845 -0.8353 -0.0341 -2.4637
  161SAPE  H11Y18025   4.122   5.901   3.901  0.8681  0.0262 -0.0520
  161SAPE  C31218026   4.166   6.062   4.044  0.5476 -0.0439  0.3779
  161SAPE  H12X18027   4.067   6.051   4.095  0.7577 -0.0580  0.7879
  161SAPE  H12Y18028   4.202   6.166   4.038  0.6187 -0.1708 -2.5085
  161SAPE  C31318029   4.277   5.982   4.116  0.9112  0.0107 -0.0045
  161SAPE  H13X18030   4.382   5.995   4.082  0.4187  3.0721 -0.6695
  161SAPE  H13Y18031   4.254   5.875   4.099  1.8664  0.1018 -2.1900
  161SAPE  C31418032   4.274   5.997   4.268 -0.7318  0.5129  0.4436
  161SAPE  H14X18033   4.170   5.974   4.296 -0.3952  0.7087  1.9154
  161SAPE  H14Y18034   4.276   6.107   4.282 -1.8203  0.7569 -1.1028
  161SAPE  C31518035   4.382   5.919   4.350  0.0317  0.0817  0.2720
  161SAPE  H15X18036   4.474   5.930   4.289 -0.8584 -2.8156 -1.8741
  161SAPE  H15Y18037   4.357   5.811   4.356 -0.8239  0.1749 -0.9656
  161SAPE  C31618038   4.391   5.979   4.490  0.2413  0.7903 -1.2015
  161SAPE  H16X18039   4.300   5.969   4.551  0.3490  0.5507 -1.0779
  161SAPE  H16Y18040   4.403   6.086   4.466  0.8352  0.6072 -1.7694
  161SAPE  C31718041   4.511   5.927   4.568 -0.0157  1.3648 -0.2838
  161SAPE  H17X18042   4.598   5.917   4.500 -0.2665  0.3950 -0.4899
  161SAPE  H17Y18043   4.480   5.828   4.608 -0.1148  1.6349  0.3202
  161SAPE  C31818044   4.551   5.998   4.705 -1.1362  0.2170 -0.0316
  161SAPE  H18X18045   4.637   5.945   4.751 -0.0815  1.4712 -0.5310
  161SAPE  H18Y18046   4.464   5.999   4.774 -3.9211 -1.2422 -3.2362
  161SAPE  H18Z18047   4.595   6.097   4.685  0.5150 -0.3456  0.6250
  162SAPE     N18048   4.137   4.077   2.357  0.0914  0.3229  0.0560
  162SAPE   HN118049   4.189   4.017   2.424 -0.0713 -1.5017 -1.3731
  162SAPE   HN218050   4.035   4.055   2.365  0.2375  0.0348  1.2723
  162SAPE   HN318051   4.170   4.069   2.258  1.1392  2.2297  0.1945
  162SAPE   C1218052   4.171   4.222   2.396  0.0209 -0.3523 -0.1004
  162SAPE  H12A18053   4.164   4.226   2.507 -0.5889  0.5704 -0.1584
  162SAPE  H12B18054   4.095   4.290   2.353 -0.9090 -0.9213  0.5982
  162SAPE   C1118055   4.306   4.263   2.348 -0.3830  0.1320 -0.3866
  162SAPE  H11A18056   4.323   4.372   2.360 -3.3303  0.7196 -0.8302
  162SAPE  H11B18057   4.311   4.245   2.238  0.7175 -2.4739  0.0166
  162SAPE     P18058   4.551   4.217   2.445 -0.2478  0.2436 -0.1935
  162SAPE   O1318059   4.645   4.106   2.460  0.0699  0.1126  0.6726
  162SAPE   O1418060   4.596   4.328   2.354  0.1309  0.2158 -0.1360
  162SAPE   O1218061   4.404   4.168   2.398 -0.4950 -0.1658  0.2466
  162SAPE   O1118062   4.528   4.270   2.593  0.3572 -0.7013  0.6653
  162SAPE    C118063   4.602   4.389   2.630  0.0892 -0.3595 -1.6153
  162SAPE    HA18064   4.711   4.363   2.630  0.1481 -0.8491  2.5366
  162SAPE    HB18065   4.581   4.477   2.566 -2.5235 -0.8066 -1.4842
  162SAPE    C218066   4.572   4.421   2.778  0.1916 -0.4791 -0.3597
  162SAPE    HS18067   4.639   4.502   2.811 -1.9678  0.7853  1.1606
  162SAPE   O2118068   4.581   4.306   2.861 -0.3660 -0.1881 -0.2539
  162SAPE   C2118069   4.697   4.258   2.880 -0.0613  0.1512 -0.3242
  162SAPE   O2218070   4.808   4.297   2.847 -0.4705 -1.0497  0.3601
  162SAPE   C2218071   4.681   4.141   2.977 -0.8696  1.3585  0.2112
  162SAPE   H2R18072   4.633   4.057   2.924 -1.0656  1.5279  0.1195
  162SAPE   H2S18073   4.783   4.096   2.975 -1.6453 -0.5187  0.7680
  162SAPE    C318074   4.429   4.472   2.789 -0.3265 -0.1766 -1.2163
  162SAPE    HX18075   4.355   4.410   2.734 -0.8966 -0.1083 -0.5420
  162SAPE    HY18076   4.433   4.572   2.741 -0.9301  0.9032  0.8829
  162SAPE   O3118077   4.392   4.501   2.922 -0.5504  0.0481  0.2370
  162SAPE   C3118078   4.337   4.407   2.985  0.1624  0.0961 -0.5703
  162SAPE   O3218079   4.308   4.296   2.938 -0.3557  0.2808  0.2185
  162SAPE   C3218080   4.339   4.434   3.136  0.9843 -1.1142 -0.1843
  162SAPE   H2X18081   4.278   4.523   3.163  1.5084 -1.7788  3.8171
  162SAPE   H2Y18082   4.443   4.452   3.170  0.7057 -2.0986  1.2778
  162SAPE   C2318083   4.610   4.168   3.110  0.5241 -1.0925  0.1642
  162SAPE   H3R18084   4.583   4.080   3.172 -1.1442 -1.7590 -1.4155
  162SAPE   H3S18085   4.510   4.217   3.101  0.1102 -1.7056  1.2234
  162SAPE   C2418086   4.692   4.255   3.199  0.2422  0.8245  0.1267
  162SAPE   H4R18087   4.648   4.303   3.288  0.3997  0.3490  0.4672
  162SAPE   H4S18088   4.722   4.344   3.140  0.3320 -0.1316 -1.3305
  162SAPE   C2518089   4.815   4.171   3.240 -0.1462 -0.5827 -0.4975
  162SAPE   H5R18090   4.877   4.137   3.155 -0.3447 -0.3454 -0.7410
  162SAPE   C2618091   4.855   4.128   3.359 -0.0755 -0.7447 -0.8401
  162SAPE   H6R18092   4.944   4.064   3.357  0.5009  0.0681 -2.1787
  162SAPE   C2718093   4.784   4.143   3.485  0.8661 -0.4855  0.1210
  162SAPE   H7R18094   4.816   4.068   3.562  0.7530 -0.4323  0.2199
  162SAPE   H7S18095   4.681   4.111   3.463 -0.1034  1.3481  1.6702
  162SAPE   C2818096   4.799   4.288   3.544 -0.2362  0.6771 -0.0457
  162SAPE   H8R18097   4.846   4.366   3.483  1.2295 -0.0511  0.1023
  162SAPE   C2918098   4.759   4.315   3.664 -0.6929 -0.5220  0.0255
  162SAPE   H9R18099   4.785   4.418   3.693 -2.4635  0.4047 -1.4734
  162SAPE  C21018100   4.693   4.225   3.771  0.0190 -0.2150 -0.2177
  162SAPE  H10R18101   4.625   4.149   3.728 -0.5996  0.1544  0.0873
  162SAPE  H10S18102   4.625   4.292   3.828 -0.7474 -0.3071 -1.0098
  162SAPE  C21118103   4.799   4.181   3.866  0.2883 -0.1785 -0.4743
  162SAPE  H11R18104   4.889   4.243   3.879 -0.2902  0.2962  1.5640
  162SAPE  C21218105   4.796   4.062   3.930  0.1654  0.5834  0.0561
  162SAPE  H12R18106   4.880   4.037   3.997 -1.4013  0.7490  2.1936
  162SAPE  C21318107   4.703   3.951   3.914  0.6434  0.1622 -0.0915
  162SAPE  H13R18108   4.757   3.855   3.899 -0.6282 -0.3393 -1.6846
  162SAPE  H13S18109   4.639   3.965   3.825  0.5995  1.9587  0.1893
  162SAPE  C21418110   4.616   3.923   4.033  0.5325 -0.5400  0.5032
  162SAPE  H14R18111   4.508   3.925   4.009  0.5266  1.6160  0.5019
  162SAPE  C21518112   4.648   3.901   4.160 -0.4984  0.6286  0.7930
  162SAPE  H15R18113   4.575   3.880   4.241  0.2241 -0.7689  1.1141
  162SAPE  C21618114   4.788   3.898   4.227 -0.2729 -1.2014 -0.2851
  162SAPE  H16R18115   4.776   3.954   4.322 -1.7261  2.0131 -2.2123
  162SAPE  H16S18116   4.863   3.967   4.182 -0.8382  0.6227  1.4274
  162SAPE  C21718117   4.848   3.760   4.239 -0.3735 -0.3783 -0.0148
  162SAPE  H17R18118   4.869   3.716   4.139  0.8079 -0.9902  0.4805
  162SAPE  H17S18119   4.777   3.684   4.279  0.4162 -0.6721  0.8473
  162SAPE  C21818120   4.970   3.748   4.324 -0.1892  0.5018 -0.3395
  162SAPE  H18R18121   4.934   3.762   4.428  0.4517 -3.1737  0.5107
  162SAPE  H18S18122   5.047   3.824   4.299  2.1555 -1.8162 -0.4914
  162SAPE  C21918123   5.039   3.616   4.300 -0.2200 -0.5237  0.1774
  162SAPE  H19R18124   5.082   3.625   4.198 -2.3747 -0.6805 -0.7975
  162SAPE  H19S18125   4.962   3.536   4.304 -1.2016  0.4303  1.6599
  162SAPE  C22018126   5.153   3.568   4.400  0.3969 -0.0188  0.2421
  162SAPE  H20R18127   5.121   3.556   4.506  1.1562  0.2109  0.5047
  162SAPE  H20S18128   5.226   3.651   4.391 -1.7467  1.8800 -0.8821
  162SAPE  H20T18129   5.195   3.470   4.370  0.0724  0.1203 -0.7181
  162SAPE   C3318130   4.290   4.316   3.224  0.1397 -0.6114 -0.2782
  162SAPE   H3X18131   4.352   4.224   3.225 -1.2812 -1.6161  1.3247
  162SAPE   H3Y18132   4.189   4.277   3.198  0.0011 -0.5274  0.1190
  162SAPE   C3418133   4.288   4.359   3.368 -0.6003  0.3894 -0.3770
  162SAPE   H4X18134   4.205   4.430   3.388  0.1794  1.4293 -0.7561
  162SAPE   H4Y18135   4.382   4.410   3.396 -0.1829 -1.2012  1.3302
  162SAPE   C3518136   4.271   4.241   3.458  0.1045 -0.0958 -0.4292
  162SAPE   H5X18137   4.354   4.167   3.444  1.1529  0.9269  0.1996
  162SAPE   H5Y18138   4.171   4.196   3.439 -0.1003 -0.2632  0.9495
  162SAPE   C3618139   4.276   4.283   3.607 -0.0757  0.4937 -0.0977
  162SAPE   H6X18140   4.186   4.334   3.647 -0.2199  1.7137 -1.8861
  162SAPE   H6Y18141   4.363   4.351   3.619  1.8426 -1.5947 -1.3032
  162SAPE   C3718142   4.287   4.148   3.678  1.1658  0.1766 -0.3089
  162SAPE   H7X18143   4.380   4.096   3.647  0.5986 -0.5889 -0.7747
  162SAPE   H7Y18144   4.202   4.079   3.659 -0.2363  2.2011 -1.8309
  162SAPE   C3818145   4.297   4.161   3.836 -0.1934  0.5891 -0.2222
  162SAPE   H8X18146   4.393   4.208   3.868 -0.8416  1.0242  1.1460
  162SAPE   H8Y18147   4.290   4.059   3.878  0.1767  1.1187  1.1680
  162SAPE   C3918148   4.178   4.224   3.906  0.3859  0.4016 -0.0391
  162SAPE   H9X18149   4.088   4.163   3.883  0.3947  0.7119 -0.9039
  162SAPE   H9Y18150   4.163   4.327   3.867  1.6362  0.3852 -0.6027
  162SAPE  C31018151   4.183   4.219   4.062  0.0463 -0.0467 -0.4416
  162SAPE  H10X18152   4.275   4.274   4.090  1.0665 -1.5624 -0.6746
  162SAPE  H10Y18153   4.175   4.112   4.092 -1.3133 -0.6101 -2.5432
  162SAPE  C31118154   4.060   4.295   4.123  0.1688  0.3851  0.1651
  162SAPE  H11X18155   3.969   4.235   4.102 -1.2236  1.4428  2.7795
  162SAPE  H11Y18156   4.058   4.385   4.058  2.4247  0.2454 -0.1832
  162SAPE  C31218157   4.079   4.329   4.274 -0.0961 -0.4831  0.0851
  162SAPE  H12X18158   4.174   4.387   4.286  0.6122 -1.5918 -0.0064
  162SAPE  H12Y18159   4.099   4.236   4.331 -0.6417  0.2645  1.5486
  162SAPE  C31318160   3.963   4.414   4.342  0.2509 -0.4597  0.6963
  162SAPE  H13X18161   3.874   4.359   4.305  1.6229 -2.6130  0.3653
  162SAPE  H13Y18162   3.963   4.516   4.297 -1.8340 -0.5042  0.5377
  162SAPE  C31418163   3.946   4.442   4.494 -0.6038 -0.0252  0.3786
  162SAPE  H14X18164   3.877   4.362   4.530 -1.7080  0.2535 -1.0576
  162SAPE  H14Y18165   3.880   4.530   4.505  1.0532  1.4085 -0.7726
  162SAPE  C31518166   4.072   4.451   4.574 -0.0800 -0.8869  0.1518
  162SAPE  H15X18167   4.126   4.356   4.554  1.5401  0.2270 -0.9422
  162SAPE  H15Y18168   4.057   4.452   4.684 -2.9380 -0.4217 -0.1398
  162SAPE  C31618169   4.169   4.556   4.527 -0.1647 -0.8692 -0.0984
  162SAPE  H16X18170   4.173   4.561   4.417 -1.2208  1.5933 -0.0895
  162SAPE  H16Y18171   4.269   4.550   4.575 -0.6593 -1.4011  0.9040
  162SAPE  C31718172   4.117   4.692   4.571 -0.6186 -0.2470  0.2623
  162SAPE  H17X18173   4.084   4.687   4.677 -1.3044  0.9036  0.1174
  162SAPE  H17Y18174   4.018   4.706   4.522 -1.0445  2.3590  1.7060
  162SAPE  C31818175   4.200   4.813   4.525 -0.1547 -0.0092  0.8694
  162SAPE  H18X18176   4.304   4.806   4.563  0.7275  1.3627 -1.1007
  162SAPE  H18Y18177   4.158   4.907   4.567  1.9164  1.2970  0.1733
  162SAPE  H18Z18178   4.221   4.833   4.417  2.8186 -3.7350  0.5636
  163SAPE     N18179   4.259   3.610   2.465 -0.0822 -0.1380 -0.4222
  163SAPE   HN118180   4.244   3.603   2.362 -0.6010 -1.1152 -0.2931
  163SAPE   HN218181   4.338   3.673   2.489 -0.5357 -0.1053  1.1047
  163SAPE   HN318182   4.286   3.511   2.482  0.8388 -0.0555 -1.2844
  163SAPE   C1218183   4.136   3.634   2.552  0.3624  0.1305  0.8156
  163SAPE  H12A18184   4.109   3.742   2.538 -2.3655 -0.6393 -0.8140
  163SAPE  H12B18185   4.161   3.594   2.652 -0.1192 -0.5201  0.6800
  163SAPE   C1118186   4.023   3.534   2.499 -0.5850 -0.2197  0.2266
  163SAPE  H11A18187   4.003   3.548   2.390  0.8800 -1.2818 -0.2208
  163SAPE  H11B18188   3.928   3.557   2.550 -1.7110  2.2890 -2.6853
  163SAPE     P18189   3.974   3.283   2.467  0.0762  0.0197 -0.1350
  163SAPE   O1318190   3.831   3.319   2.470  0.3690 -0.1166 -0.2579
  163SAPE   O1418191   4.024   3.246   2.334  0.7302  0.3392  0.2918
  163SAPE   O1218192   4.059   3.398   2.529 -0.1366 -0.0243 -0.0499
  163SAPE   O1118193   3.998   3.156   2.559  0.3159 -0.4905  0.4085
  163SAPE    C118194   4.131   3.109   2.597 -0.1749  0.1824 -0.3362
  163SAPE    HA18195   4.164   3.021   2.538  0.3683  1.1133 -1.4702
  163SAPE    HB18196   4.212   3.182   2.574  1.5827 -1.3460  0.7512
  163SAPE    C218197   4.141   3.070   2.753  0.3755  0.1754  0.2152
  163SAPE    HS18198   4.072   2.984   2.767  1.3135 -0.5812  0.3017
  163SAPE   O2118199   4.090   3.186   2.827  0.0997  0.1513 -0.1609
  163SAPE   C2118200   4.141   3.310   2.804 -0.5420  0.0276  0.0569
  163SAPE   O2218201   4.240   3.333   2.743 -0.4844  0.4343 -0.1925
  163SAPE   C2218202   4.063   3.401   2.884 -0.1198 -0.0200 -0.4572
  163SAPE   H2R18203   3.985   3.445   2.818  0.4220  0.7064 -0.6280
  163SAPE   H2S18204   4.021   3.360   2.978 -0.8390  0.8680 -0.3716
  163SAPE    C318205   4.283   3.016   2.790  0.0536  0.2511  0.6447
  163SAPE    HX18206   4.362   3.089   2.762 -0.8647  1.0554  0.0962
  163SAPE    HY18207   4.293   2.930   2.720 -2.1029  2.2232 -2.3303
  163SAPE   O3118208   4.303   2.966   2.920 -0.3426  0.1972 -0.7230
  163SAPE   C3118209   4.245   2.857   2.962 -0.2549 -0.0255  0.4040
  163SAPE   O3218210   4.194   2.769   2.896  0.3603  0.4582 -0.4823
  163SAPE   C3218211   4.256   2.850   3.113 -0.5107  0.2189 -0.5195
  163SAPE   H2X18212   4.352   2.896   3.148 -0.5406  0.5423 -0.8492
  163SAPE   H2Y18213   4.245   2.746   3.148 -2.5080  0.0556 -1.4871
  163SAPE   C2318214   4.144   3.520   2.941  0.1177 -0.2121  0.2281
  163SAPE   H3R18215   4.076   3.585   3.001  1.9849 -0.2994  2.5829
  163SAPE   H3S18216   4.182   3.582   2.857  0.0766 -0.9451 -0.3409
  163SAPE   C2418217   4.256   3.478   3.037  0.2404 -0.6704 -0.1076
  163SAPE   H4R18218   4.329   3.410   2.988  0.1003  0.8342 -2.5705
  163SAPE   H4S18219   4.213   3.433   3.129 -2.7347 -0.5610 -1.3234
  163SAPE   C2518220   4.320   3.616   3.075 -0.0944 -0.4360  0.6532
  163SAPE   H5R18221   4.385   3.657   2.996  0.6148  1.1344  1.9820
  163SAPE   C2618222   4.315   3.688   3.190  0.4290  0.0855  0.9288
  163SAPE   H6R18223   4.353   3.791   3.178 -2.5009  1.0984 -0.6108
  163SAPE   C2718224   4.242   3.649   3.313 -0.1153  0.3991 -0.7257
  163SAPE   H7R18225   4.307   3.580   3.371 -0.2117  0.5407 -0.4470
  163SAPE   H7S18226   4.149   3.595   3.283 -0.5091  0.6227  0.0677
  163SAPE   C2818227   4.203   3.759   3.410  0.1796  0.8623 -0.0618
  163SAPE   H8R18228   4.130   3.832   3.373 -1.3483  1.0727  3.0547
  163SAPE   C2918229   4.244   3.765   3.538 -0.1440 -0.2956 -0.2538
  163SAPE   H9R18230   4.217   3.855   3.597  1.4806  0.4433 -0.5817
  163SAPE  C21018231   4.349   3.676   3.609 -0.5243 -0.0870 -0.7407
  163SAPE  H10R18232   4.429   3.736   3.658 -1.9001  2.1910 -1.1414
  163SAPE  H10S18233   4.401   3.608   3.538  0.8588  2.0663 -1.8995
  163SAPE  C21118234   4.275   3.604   3.720  0.4435  0.9148  0.5957
  163SAPE  H11R18235   4.211   3.528   3.673  2.9153 -1.9067  1.5026
  163SAPE  C21218236   4.246   3.639   3.843  0.9727  0.1368 -0.1419
  163SAPE  H12R18237   4.178   3.574   3.899 -1.2969  0.2075 -2.6160
  163SAPE  C21318238   4.306   3.751   3.919 -0.8421 -0.2647 -0.0288
  163SAPE  H13R18239   4.350   3.825   3.848  2.4367 -1.4988  0.5479
  163SAPE  H13S18240   4.393   3.711   3.975 -0.6237  0.7976  0.4116
  163SAPE  C21418241   4.192   3.812   4.008 -0.5654 -0.2491  0.6208
  163SAPE  H14R18242   4.115   3.872   3.956  0.4015 -0.0912 -0.6752
  163SAPE  C21518243   4.202   3.812   4.142  0.1280  0.1193  0.4027
  163SAPE  H15R18244   4.121   3.851   4.204 -1.0508 -0.3095 -0.8157
  163SAPE  C21618245   4.304   3.744   4.225  0.1857 -0.5540 -0.0229
  163SAPE  H16R18246   4.322   3.801   4.319 -0.3096 -1.6535  0.7631
  163SAPE  H16S18247   4.404   3.747   4.178 -1.2522  0.3398 -3.3170
  163SAPE  C21718248   4.279   3.600   4.260  0.0526  0.2863  0.3176
  163SAPE  H17R18249   4.296   3.536   4.171 -1.4274 -0.0216  0.2300
  163SAPE  H17S18250   4.173   3.581   4.288  0.2998  1.5502  2.2595
  163SAPE  C21818251   4.377   3.533   4.354  0.1444 -0.6420 -0.6278
  163SAPE  H18R18252   4.347   3.426   4.348  0.4584 -0.9245  1.8615
  163SAPE  H18S18253   4.350   3.557   4.459  3.5049  0.1267  0.1844
  163SAPE  C21918254   4.520   3.562   4.321  0.3227  0.1729 -0.6122
  163SAPE  H19R18255   4.536   3.671   4.336  0.9922  0.0209 -0.2000
  163SAPE  H19S18256   4.546   3.538   4.216 -0.0892 -0.6436 -0.5332
  163SAPE  C22018257   4.618   3.478   4.404 -0.0083 -0.3879  0.1995
  163SAPE  H20R18258   4.719   3.517   4.376 -0.4559  1.2579  0.7533
  163SAPE  H20S18259   4.596   3.374   4.372  0.4047 -0.7538  1.0689
  163SAPE  H20T18260   4.592   3.490   4.511 -0.8713  1.6622 -0.1880
  163SAPE   C3318261   4.145   2.927   3.192 -0.7403 -0.1800  0.2655
  163SAPE   H3X18262   4.174   2.897   3.295  0.3411  1.0173  0.3237
  163SAPE   H3Y18263   4.044   2.882   3.177 -0.7311 -0.0307 -0.2233
  163SAPE   C3418264   4.140   3.080   3.174 -0.5896  0.1474 -0.1661
  163SAPE   H4X18265   4.097   3.097   3.072 -0.0630 -0.8765 -0.5806
  163SAPE   H4Y18266   4.244   3.120   3.176 -0.2761 -0.5507 -1.2266
  163SAPE   C3518267   4.041   3.153   3.270  1.0979 -0.2194  0.6044
  163SAPE   H5X18268   3.938   3.111   3.266  1.0990 -0.3693  1.7822
  163SAPE   H5Y18269   4.038   3.261   3.241  0.6486 -0.3581  0.1180
  163SAPE   C3618270   4.101   3.153   3.411 -0.0497  0.5713  0.3063
  163SAPE   H6X18271   4.205   3.193   3.409 -0.6406  2.1798 -0.5514
  163SAPE   H6Y18272   4.115   3.050   3.450 -0.1720  0.0172 -1.0597
  163SAPE   C3718273   4.013   3.237   3.505  0.6202 -0.2199 -0.5953
  163SAPE   H7X18274   3.908   3.203   3.509  0.7219 -0.5616 -0.7708
  163SAPE   H7Y18275   4.001   3.340   3.465 -3.1133 -0.4735 -0.4475
  163SAPE   C3818276   4.079   3.242   3.644  0.7359  0.4015 -0.0829
  163SAPE   H8X18277   4.178   3.291   3.630  0.5021  0.1689 -3.2841
  163SAPE   H8Y18278   4.090   3.137   3.677 -3.0783 -0.4392 -0.9889
  163SAPE   C3918279   3.993   3.314   3.752  0.7676  0.1290  0.2786
  163SAPE   H9X18280   3.893   3.267   3.754  0.6697  0.2739 -0.8398
  163SAPE   H9Y18281   3.989   3.423   3.729 -0.3583 -0.4160 -2.3941
  163SAPE  C31018282   4.049   3.313   3.899 -0.1532 -0.1151  0.5752
  163SAPE  H10X18283   4.141   3.375   3.891 -1.7866  2.4416  0.0804
  163SAPE  H10Y18284   4.074   3.207   3.919  1.9988 -0.0518 -1.4217
  163SAPE  C31118285   3.955   3.371   4.004 -0.8146 -0.2971 -0.2382
  163SAPE  H11X18286   3.854   3.325   3.996 -1.3279  0.7304  0.2455
  163SAPE  H11Y18287   3.950   3.480   3.985  1.8218 -0.0563 -0.0055
  163SAPE  C31218288   4.001   3.349   4.153  0.3164  0.1617  0.7390
  163SAPE  H12X18289   4.095   3.407   4.166  0.0509  0.8223 -0.1166
  163SAPE  H12Y18290   4.027   3.243   4.173 -0.8827 -0.4611 -0.8199
  163SAPE  C31318291   3.901   3.395   4.258 -0.1046  0.8332 -0.4816
  163SAPE  H13X18292   3.811   3.340   4.221 -0.3882  0.0085  1.3459
  163SAPE  H13Y18293   3.879   3.502   4.238  1.5556  1.3149  0.0832
  163SAPE  C31418294   3.934   3.349   4.403  0.3179  0.1672  0.3862
  163SAPE  H14X18295   4.010   3.422   4.438 -0.9866  1.8347 -0.1203
  163SAPE  H14Y18296   3.987   3.252   4.394  2.9578  1.4367  1.3180
  163SAPE  C31518297   3.817   3.324   4.495 -0.1153  0.3629 -1.4065
  163SAPE  H15X18298   3.739   3.261   4.448  0.0341 -2.0459  1.2578
  163SAPE  H15Y18299   3.780   3.428   4.505  2.6229  1.2087  1.7467
  163SAPE  C31618300   3.848   3.266   4.637 -0.2140  0.2109  0.5615
  163SAPE  H16X18301   3.922   3.332   4.689  0.4299  0.1679 -0.2884
  163SAPE  H16Y18302   3.903   3.171   4.625  0.8024  0.9223 -0.6905
  163SAPE  C31718303   3.736   3.247   4.734 -0.5564  0.0951 -0.3899
  163SAPE  H17X18304   3.669   3.169   4.693  0.2089 -0.6078 -0.3194
  163SAPE  H17Y18305   3.685   3.346   4.736 -1.7730 -0.5113  1.3672
  163SAPE  C31818306   3.784   3.185   4.868  0.1720 -0.0849  0.3182
  163SAPE  H18X18307   3.703   3.162   4.941  0.8956 -2.0973  0.5552
  163SAPE  H18Y18308   3.872   3.241   4.907 -0.8316  3.1517 -1.6494
  163SAPE  H18Z18309   3.818   3.086   4.831  2.1061  1.4403 -2.3370
  164SAPE     N18310   0.730   0.412   2.307  0.1035  0.0156  0.0495
  164SAPE   HN118311   0.800   0.432   2.233  0.9109 -0.4444  0.6618
  164SAPE   HN218312   0.775   0.334   2.360  0.4339 -0.0573 -0.3405
  164SAPE   HN318313   0.640   0.385   2.264 -0.9227  2.5397  0.4496
  164SAPE   C1218314   0.689   0.539   2.382 -0.2681 -0.4468 -0.0919
  164SAPE  H12A18315   0.610   0.593   2.326 -0.5086 -1.5386 -0.8400
  164SAPE  H12B18316   0.783   0.597   2.394  0.2932 -1.2235 -0.6007
  164SAPE   C1118317   0.636   0.504   2.521 -0.1335 -0.5670 -0.0465
  164SAPE  H11A18318   0.641   0.589   2.593  1.5365  1.4280 -2.3527
  164SAPE  H11B18319   0.710   0.435   2.567  0.7694 -0.1086 -0.7825
  164SAPE     P18320   0.375   0.508   2.565 -0.1310 -0.1205 -0.3783
  164SAPE   O1318321   0.371   0.647   2.540  0.4500  0.1800  0.2030
  164SAPE   O1418322   0.271   0.419   2.524 -0.5053  0.0411  0.5673
  164SAPE   O1218323   0.508   0.444   2.518 -0.3153 -0.1748  0.1380
  164SAPE   O1118324   0.380   0.486   2.724  0.2678  0.9774  0.0552
  164SAPE    C118325   0.333   0.374   2.798 -0.7224 -0.2936  0.1280
  164SAPE    HA18326   0.255   0.404   2.872  0.0713  0.0398  0.8502
  164SAPE    HB18327   0.293   0.289   2.738  0.2813 -0.5355 -0.2055
  164SAPE    C218328   0.447   0.320   2.890  0.0395 -0.2499  0.0326
  164SAPE    HS18329   0.409   0.222   2.928  0.3941  0.5863  2.7290
  164SAPE   O2118330   0.458   0.411   3.002  0.0126  0.1783  0.7148
  164SAPE   C2118331   0.492   0.357   3.114  0.2278  0.2351  0.3289
  164SAPE   O2218332   0.507   0.234   3.134 -0.4667 -0.2968  0.3527
  164SAPE   C2218333   0.496   0.464   3.218 -0.5400  0.1546  0.0645
  164SAPE   H2R18334   0.562   0.548   3.187  1.9811 -0.3943  3.3828
  164SAPE   H2S18335   0.392   0.495   3.243 -0.4446 -0.8463  1.8399
  164SAPE    C318336   0.574   0.289   2.821  0.0277  0.5047 -0.2380
  164SAPE    HX18337   0.597   0.382   2.766 -1.2001 -0.1031 -1.8578
  164SAPE    HY18338   0.554   0.215   2.741  3.1501  0.5086 -1.1523
  164SAPE   O3118339   0.688   0.251   2.906 -0.0743 -0.7625 -0.0641
  164SAPE   C3118340   0.713   0.123   2.906 -1.1784  0.6920  0.1993
  164SAPE   O3218341   0.646   0.039   2.844  0.8918  0.5215  0.0042
  164SAPE   C3218342   0.843   0.104   2.986  0.1870  0.1498 -0.4523
  164SAPE   H2X18343   0.921   0.175   2.952  0.7689 -1.1216 -1.8838
  164SAPE   H2Y18344   0.885   0.006   2.956  1.6983  1.1455 -1.7495
  164SAPE   C2318345   0.558   0.414   3.354  0.4404 -0.4829  0.3680
  164SAPE   H3R18346   0.665   0.386   3.347  0.5621 -0.1270  0.7948
  164SAPE   H3S18347   0.498   0.330   3.397  1.3290 -2.0012 -1.2022
  164SAPE   C2418348   0.547   0.515   3.474 -0.0114  0.6786 -0.2159
  164SAPE   H4R18349   0.440   0.536   3.497  0.0015 -1.9479  3.0121
  164SAPE   H4S18350   0.597   0.612   3.450  0.3201  0.6021  0.1508
  164SAPE   C2518351   0.607   0.458   3.600  0.1435 -0.1365 -0.1782
  164SAPE   H5R18352   0.688   0.389   3.575 -0.2584 -0.8466  0.4440
  164SAPE   C2618353   0.561   0.474   3.726 -0.3530 -0.5834 -0.1080
  164SAPE   H6R18354   0.594   0.419   3.815  0.4462  0.7812  0.4724
  164SAPE   C2718355   0.452   0.576   3.763 -0.1244 -0.1334 -0.0257
  164SAPE   H7R18356   0.351   0.530   3.757 -0.9218  1.1794  2.2069
  164SAPE   H7S18357   0.448   0.653   3.682 -1.1943  0.2586  0.3836
  164SAPE   C2818358   0.469   0.627   3.904 -0.0112 -0.1016 -0.1659
  164SAPE   H8R18359   0.530   0.717   3.914  1.5791 -1.2569  1.2780
  164SAPE   C2918360   0.426   0.576   4.023  0.0443 -0.1027  0.3515
  164SAPE   H9R18361   0.464   0.626   4.113  0.8030 -0.8148  0.4406
  164SAPE  C21018362   0.323   0.465   4.051  0.1181  0.4842 -0.1307
  164SAPE  H10R18363   0.364   0.362   4.050  1.4467  0.9644  1.4059
  164SAPE  H10S18364   0.240   0.452   3.978 -0.1716  0.4771  0.1959
  164SAPE  C21118365   0.264   0.467   4.185 -0.0149 -0.4705  0.0690
  164SAPE  H11R18366   0.208   0.558   4.209 -0.0002 -0.6794  0.9472
  164SAPE  C21218367   0.290   0.387   4.291  0.1474  0.0268  0.2249
  164SAPE  H12R18368   0.239   0.413   4.384  1.0152 -0.4417  0.8427
  164SAPE  C21318369   0.387   0.271   4.298 -0.4417  0.0849  0.5250
  164SAPE  H13R18370   0.420   0.261   4.403 -2.6182 -1.7600  1.1208
  164SAPE  H13S18371   0.482   0.291   4.245  0.6071 -1.1514  1.8796
  164SAPE  C21418372   0.329   0.141   4.254  0.4932 -0.7884 -0.1890
  164SAPE  H14R18373   0.219   0.142   4.250  0.4781  1.9397 -0.7184
  164SAPE  C21518374   0.396   0.033   4.227  0.2335  0.1885  0.3758
  164SAPE  H15R18375   0.334  -0.056   4.207  0.7745 -0.0421 -0.2673
  164SAPE  C21618376   0.548   0.016   4.227 -0.1526  0.0333 -0.4849
  164SAPE  H16R18377   0.560  -0.094   4.231 -0.3951  0.0164 -0.2273
  164SAPE  H16S18378   0.588   0.061   4.320  0.3251 -1.2096 -0.0683
  164SAPE  C21718379   0.616   0.077   4.101  0.3204  0.5543 -0.2639
  164SAPE  H17R18380   0.723   0.049   4.111 -0.4350 -2.0993  1.4202
  164SAPE  H17S18381   0.608   0.187   4.112  1.5565  0.5016  1.6827
  164SAPE  C21818382   0.569   0.041   3.966 -0.2120  0.0769 -0.7787
  164SAPE  H18R18383   0.462   0.070   3.965 -0.8709 -1.5890  3.3394
  164SAPE  H18S18384   0.571  -0.068   3.943  0.3678  0.0619 -0.6751
  164SAPE  C21918385   0.641   0.126   3.858  0.0194 -0.1020  0.3584
  164SAPE  H19R18386   0.744   0.087   3.848 -0.5553 -1.1956 -1.8728
  164SAPE  H19S18387   0.637   0.231   3.896  1.1853  0.4197 -0.9103
  164SAPE  C22018388   0.584   0.114   3.722  0.3064  0.0028 -0.4629
  164SAPE  H20R18389   0.513   0.199   3.712 -0.6258 -0.6564  0.4660
  164SAPE  H20S18390   0.521   0.024   3.714  0.3053 -0.6692  4.2343
  164SAPE  H20T18391   0.662   0.119   3.643  0.9411  0.3700  0.1652
  164SAPE   C3318392   0.817   0.099   3.136  0.0283 -0.0522  0.4139
  164SAPE   H3X18393   0.743   0.020   3.160  0.6609 -0.2397  1.8794
  164SAPE   H3Y18394   0.770   0.195   3.165  1.7780  1.5563 -1.7658
  164SAPE   C3418395   0.944   0.066   3.212 -0.4254 -0.3714  0.1617
  164SAPE   H4X18396   1.021   0.139   3.178 -0.4307 -0.7033 -0.5923
  164SAPE   H4Y18397   0.987  -0.035   3.193  1.8771  0.7301 -0.8826
  164SAPE   C3518398   0.907   0.076   3.364 -0.2574  0.0007 -0.8238
  164SAPE   H5X18399   0.807   0.031   3.387  0.7834 -1.6826  0.7473
  164SAPE   H5Y18400   0.894   0.184   3.384  1.1329 -0.1821  1.4068
  164SAPE   C3618401   1.005   0.010   3.460 -0.2329  0.5882 -0.3609
  164SAPE   H6X18402   1.083   0.085   3.482 -1.0201  1.4238 -0.3941
  164SAPE   H6Y18403   1.048  -0.086   3.421  1.0814  0.8036  0.4946
  164SAPE   C3718404   0.942  -0.013   3.596  0.0757  0.7096 -0.4871
  164SAPE   H7X18405   0.851  -0.074   3.580 -0.8262  1.8337  0.2038
  164SAPE   H7Y18406   0.911   0.088   3.630  0.0878  1.3843 -2.3799
  164SAPE   C3818407   1.040  -0.083   3.700 -0.0435  0.4923  0.5844
  164SAPE   H8X18408   1.126  -0.014   3.709 -0.6685  1.2600  0.8633
  164SAPE   H8Y18409   1.079  -0.178   3.660 -0.2526 -0.8308  3.3339
  164SAPE   C3918410   0.979  -0.102   3.829 -0.0524  0.1199 -0.4223
  164SAPE   H9X18411   0.898  -0.178   3.821 -1.0747  1.0453  0.6102
  164SAPE   H9Y18412   0.938  -0.005   3.864  0.5801  0.3926 -0.4204
  164SAPE  C31018413   1.080  -0.160   3.944  0.2235  0.0217 -0.0480
  164SAPE  H10X18414   1.165  -0.091   3.963  0.1341  0.4358 -1.0911
  164SAPE  H10Y18415   1.128  -0.247   3.894  2.9565  0.6958  1.1834
  164SAPE  C31118416   0.997  -0.191   4.068 -0.4337  0.3739 -0.4019
  164SAPE  H11X18417   0.971  -0.299   4.061 -0.4227  0.0537  2.9796
  164SAPE  H11Y18418   0.896  -0.148   4.081 -0.6229 -0.6062  1.6948
  164SAPE  C31218419   1.077  -0.158   4.194 -0.0345  0.2302 -0.1573
  164SAPE  H12X18420   1.051  -0.055   4.225  0.5049  1.3137 -3.0069
  164SAPE  H12Y18421   1.186  -0.155   4.173  0.2419 -0.7702  1.0321
  164SAPE  C31318422   1.061  -0.259   4.307 -0.2881 -0.1719  0.0171
  164SAPE  H13X18423   1.105  -0.358   4.283 -0.4043  0.2913 -2.4570
  164SAPE  H13Y18424   0.950  -0.268   4.307 -0.5292  2.1155 -0.2058
  164SAPE  C31418425   1.110  -0.215   4.449 -0.1209  0.5645 -0.2091
  164SAPE  H14X18426   1.075  -0.293   4.520  1.0626  0.8980  0.7926
  164SAPE  H14Y18427   1.072  -0.117   4.484  1.0847  1.5698 -1.5809
  164SAPE  C31518428   1.266  -0.211   4.476  0.3224 -0.5329  0.2193
  164SAPE  H15X18429   1.302  -0.132   4.406 -0.4605 -0.4755 -0.1314
  164SAPE  H15Y18430   1.308  -0.309   4.443 -0.0924 -1.2650  1.8046
  164SAPE  C31618431   1.309  -0.168   4.611  0.7033 -0.2882  0.1106
  164SAPE  H16X18432   1.285  -0.246   4.686 -1.6222  1.9336  1.8220
  164SAPE  H16Y18433   1.260  -0.076   4.648 -0.1194 -1.9206  3.5337
  164SAPE  C31718434   1.457  -0.136   4.620  0.0240 -0.8822 -0.0019
  164SAPE  H17X18435   1.481  -0.048   4.556  0.5818 -0.7791  0.3419
  164SAPE  H17Y18436   1.494  -0.235   4.585  0.1056 -0.7126 -0.4118
  164SAPE  C31818437   1.496  -0.114   4.768 -0.5838 -0.3218 -0.3268
  164SAPE  H18X18438   1.488  -0.217   4.810 -0.2310 -0.0242  0.4896
  164SAPE  H18Y18439   1.431  -0.047   4.829  1.1574  1.1395  0.0160
  164SAPE  H18Z18440   1.597  -0.073   4.787 -0.5498  0.0422 -1.2522
  165SAPE     N18441   6.386   0.694   2.468  0.1991 -0.3361 -0.0398
  165SAPE   HN118442   6.312   0.669   2.536  1.1498 -1.9378  0.4666
  165SAPE   HN218443   6.351   0.655   2.378  1.4584  0.0145 -0.7178
  165SAPE   HN318444   6.477   0.652   2.496 -1.1211 -2.6416  1.0122
  165SAPE   C1218445   6.386   0.844   2.460 -0.0971 -0.4328 -0.3129
  165SAPE  H12A18446   6.484   0.875   2.420 -1.2346  2.4898 -1.1085
  165SAPE  H12B18447   6.381   0.880   2.565  0.5907  0.5857 -0.6160
  165SAPE   C1118448   6.265   0.897   2.387 -0.6702  0.0146  0.1005
  165SAPE  H11A18449   6.281   0.880   2.278 -1.0559  0.6914 -0.0664
  165SAPE  H11B18450   6.274   1.007   2.397  0.0080 -0.0569  0.3572
  165SAPE     P18451   6.011   0.848   2.334  0.3243 -0.0849  0.0361
  165SAPE   O1318452   5.973   0.993   2.316 -0.3787 -0.1298 -1.0539
  165SAPE   O1418453   6.028   0.772   2.213  0.2204  0.9587  0.0200
  165SAPE   O1218454   6.138   0.841   2.429 -0.8336 -0.6828 -0.2633
  165SAPE   O1118455   5.895   0.792   2.413 -0.1225 -0.2322  0.2482
  165SAPE    C118456   5.836   0.863   2.521 -0.4856 -0.5218  0.2699
  165SAPE    HA18457   5.817   0.969   2.495  0.5755  0.2530  2.4021
  165SAPE    HB18458   5.744   0.804   2.539  0.0147 -1.3891  0.0486
  165SAPE    C218459   5.931   0.856   2.648 -0.0234 -0.1003 -0.1198
  165SAPE    HS18460   5.863   0.863   2.736  0.7129 -0.0740  0.4583
  165SAPE   O2118461   6.034   0.955   2.664 -0.1418 -0.2989 -0.2459
  165SAPE   C2118462   5.999   1.080   2.647  0.7727 -0.2584 -0.8918
  165SAPE   O2218463   5.885   1.123   2.670 -0.2017  0.0577 -0.0150
  165SAPE   C2218464   6.119   1.167   2.615 -0.2338  0.3633  0.1861
  165SAPE   H2R18465   6.203   1.108   2.573  0.5650  1.5722  0.0612
  165SAPE   H2S18466   6.078   1.246   2.549 -0.5258  1.5186  1.6840
  165SAPE    C318467   5.981   0.710   2.676  0.3699  0.3141  0.4903
  165SAPE    HX18468   6.043   0.683   2.588  0.0410  0.0552  0.3395
  165SAPE    HY18469   5.897   0.639   2.672 -0.1320  0.8918 -3.1323
  165SAPE   O3118470   6.042   0.714   2.801  0.5945  0.0454  0.0899
  165SAPE   C3118471   6.172   0.709   2.809  0.4117  0.6131 -0.5815
  165SAPE   O3218472   6.242   0.682   2.711 -0.5601  0.1149  0.5090
  165SAPE   C3218473   6.224   0.730   2.951  0.0431  0.6626 -0.7230
  165SAPE   H2X18474   6.327   0.689   2.958 -0.1736  0.3515  1.2060
  165SAPE   H2Y18475   6.164   0.671   3.024 -1.4643  1.3944 -1.3254
  165SAPE   C2318476   6.167   1.229   2.750  0.4271  0.6055 -0.1914
  165SAPE   H3R18477   6.242   1.154   2.782 -0.4294  0.2914  1.1231
  165SAPE   H3S18478   6.096   1.242   2.834  1.1587  1.9039  0.2605
  165SAPE   C2418479   6.240   1.360   2.729  0.1038 -0.0970 -0.1180
  165SAPE   H4R18480   6.173   1.449   2.721 -0.1278 -0.1390  1.1950
  165SAPE   H4S18481   6.286   1.355   2.628  0.8605 -1.7714  0.2720
  165SAPE   C2518482   6.338   1.396   2.836  0.6750 -0.1181 -0.2849
  165SAPE   H5R18483   6.416   1.319   2.839  0.2622 -0.6633 -2.3185
  165SAPE   C2618484   6.344   1.491   2.925 -1.0696 -0.0820 -0.3998
  165SAPE   H6R18485   6.430   1.485   2.993 -2.1558 -1.4742  0.9112
  165SAPE   C2718486   6.256   1.613   2.933 -0.4750  0.5345 -0.0479
  165SAPE   H7R18487   6.200   1.597   3.028 -1.9914  0.8393 -0.8566
  165SAPE   H7S18488   6.184   1.613   2.848 -0.8968  1.1919  0.3011
  165SAPE   C2818489   6.321   1.750   2.936 -0.1558 -0.2735 -0.9450
  165SAPE   H8R18490   6.325   1.802   2.839 -0.7499 -1.7747 -1.8083
  165SAPE   C2918491   6.367   1.819   3.049 -0.2915 -0.2192  0.0749
  165SAPE   H9R18492   6.405   1.922   3.052  0.7323 -0.5996  0.8176
  165SAPE  C21018493   6.382   1.763   3.186 -0.6685  0.2220  1.2019
  165SAPE  H10R18494   6.336   1.663   3.196 -1.3771  0.0899 -2.1165
  165SAPE  H10S18495   6.326   1.826   3.258 -0.2429  1.1110  0.7714
  165SAPE  C21118496   6.528   1.762   3.228  1.0255 -0.1472 -0.8231
  165SAPE  H11R18497   6.595   1.845   3.200  0.3239  0.3855 -0.9515
  165SAPE  C21218498   6.574   1.684   3.327 -0.4286  0.3089  0.9624
  165SAPE  H12R18499   6.680   1.700   3.349  0.1182  0.2596 -1.3675
  165SAPE  C21318500   6.532   1.552   3.369  0.5543  0.1447  0.0611
  165SAPE  H13R18501   6.471   1.494   3.296  0.7019 -0.5530  0.4848
  165SAPE  H13S18502   6.459   1.566   3.452  0.4845 -0.5761  0.1276
  165SAPE  C21418503   6.649   1.467   3.411 -0.0885 -0.1912 -0.5530
  165SAPE  H14R18504   6.751   1.483   3.373  0.6474  1.5529  1.9475
  165SAPE  C21518505   6.621   1.361   3.488 -0.3326 -0.2952 -0.2116
  165SAPE  H15R18506   6.705   1.292   3.507 -0.0535 -0.6266 -2.4368
  165SAPE  C21618507   6.492   1.316   3.552  0.0700 -0.2283  0.6341
  165SAPE  H16R18508   6.483   1.206   3.539 -0.8863 -0.0755 -0.1697
  165SAPE  H16S18509   6.402   1.363   3.506  1.2477  2.4006  0.8338
  165SAPE  C21718510   6.496   1.341   3.700 -0.4822  1.1217  0.4265
  165SAPE  H17R18511   6.596   1.315   3.742  0.3028 -2.0352 -2.8584
  165SAPE  H17S18512   6.420   1.274   3.746  1.7185 -1.5599  0.4335
  165SAPE  C21818513   6.456   1.484   3.748 -0.0925  0.0685 -0.4697
  165SAPE  H18R18514   6.354   1.500   3.707 -0.2395 -0.8349 -0.4638
  165SAPE  H18S18515   6.525   1.560   3.705  1.2133 -1.0149 -0.3371
  165SAPE  C21918516   6.438   1.506   3.902  0.5090  0.6288  0.0676
  165SAPE  H19R18517   6.540   1.502   3.946  0.1462 -0.1928  0.8587
  165SAPE  H19S18518   6.380   1.417   3.934 -2.1643  1.4886 -1.9822
  165SAPE  C22018519   6.352   1.631   3.944 -0.5657  0.2521  0.2178
  165SAPE  H20R18520   6.242   1.613   3.936 -0.3549 -2.7842  2.3507
  165SAPE  H20S18521   6.379   1.726   3.894  0.0978 -0.2845 -0.4572
  165SAPE  H20T18522   6.376   1.642   4.052 -0.7353  0.5067  0.2292
  165SAPE   C3318523   6.228   0.881   2.979 -0.0878 -0.2306 -0.3321
  165SAPE   H3X18524   6.131   0.927   2.952  0.3664  0.0673 -1.5136
  165SAPE   H3Y18525   6.304   0.929   2.914  0.6502 -0.4053  0.3750
  165SAPE   C3418526   6.269   0.900   3.130  0.1558  0.2779  0.9058
  165SAPE   H4X18527   6.371   0.859   3.142  1.3582  1.8641 -2.5709
  165SAPE   H4Y18528   6.196   0.841   3.189 -0.0137 -1.2615 -0.7417
  165SAPE   C3518529   6.267   1.036   3.184  0.1677  0.8925  0.4415
  165SAPE   H5X18530   6.164   1.078   3.191  0.1439  0.8287  0.4733
  165SAPE   H5Y18531   6.334   1.103   3.126  0.2662  1.3060  1.0231
  165SAPE   C3618532   6.330   1.044   3.326 -1.4051 -0.2358 -0.0867
  165SAPE   H6X18533   6.348   1.150   3.354 -0.4405  0.0913 -1.8205
  165SAPE   H6Y18534   6.428   0.994   3.317 -1.3942 -0.1507 -0.4195
  165SAPE   C3718535   6.261   0.945   3.422  0.2014 -0.0644 -0.4744
  165SAPE   H7X18536   6.279   0.841   3.389  1.2636  0.2801 -1.0200
  165SAPE   H7Y18537   6.150   0.957   3.412  0.1591 -1.0665 -1.4263
  165SAPE   C3818538   6.314   0.971   3.566 -0.0849  0.4000 -0.1059
  165SAPE   H8X18539   6.279   1.070   3.604  0.8615  0.7961 -0.2239
  165SAPE   H8Y18540   6.425   0.969   3.570 -0.1394 -0.0302  1.8016
  165SAPE   C3918541   6.269   0.857   3.662 -0.3204 -0.0835 -0.1813
  165SAPE   H9X18542   6.301   0.760   3.619  1.6887  0.4644 -0.0295
  165SAPE   H9Y18543   6.158   0.862   3.661 -0.3250 -0.3025 -0.9158
  165SAPE  C31018544   6.341   0.872   3.800  0.1160 -0.3320 -0.1902
  165SAPE  H10X18545   6.448   0.888   3.772  0.0460 -0.3116 -0.4494
  165SAPE  H10Y18546   6.333   0.773   3.849 -1.2265 -0.7265 -1.1640
  165SAPE  C31118547   6.284   0.984   3.886 -0.2513 -0.1881  0.1180
  165SAPE  H11X18548   6.325   1.074   3.836  1.3882 -1.0647 -0.2103
  165SAPE  H11Y18549   6.333   0.977   3.985  3.8502 -4.2554 -1.8411
  165SAPE  C31218550   6.136   0.990   3.909  0.3160  0.4613  0.3893
  165SAPE  H12X18551   6.095   0.890   3.936  0.4462  1.0569  3.0367
  165SAPE  H12Y18552   6.088   1.016   3.812  0.3036 -1.3679 -0.1498
  165SAPE  C31318553   6.086   1.082   4.017  0.7315 -0.1159 -0.3838
  165SAPE  H13X18554   6.132   1.040   4.109  1.5219 -2.9485 -1.9290
  165SAPE  H13Y18555   5.978   1.063   4.033  0.7475 -0.9830 -1.2070
  165SAPE  C31418556   6.110   1.233   3.998 -0.1367  0.9894  1.1627
  165SAPE  H14X18557   6.011   1.283   3.989  0.1228  1.4869  1.1072
  165SAPE  H14Y18558   6.177   1.256   3.913 -0.8397  2.3375  0.9384
  165SAPE  C31518559   6.164   1.311   4.115 -0.4086  0.3485  0.2707
  165SAPE  H15X18560   6.088   1.290   4.194 -2.5035 -1.9593 -2.1610
  165SAPE  H15Y18561   6.164   1.419   4.090  0.7210  0.7068  1.6674
  165SAPE  C31618562   6.301   1.257   4.160  0.2929 -0.7174  0.3328
  165SAPE  H16X18563   6.368   1.259   4.071 -1.7795  0.1375 -1.2966
  165SAPE  H16Y18564   6.296   1.149   4.187  1.3108 -1.3554 -1.7624
  165SAPE  C31718565   6.372   1.339   4.279  0.3519  0.2746  0.3539
  165SAPE  H17X18566   6.389   1.444   4.247 -0.9359  0.7479  1.1744
  165SAPE  H17Y18567   6.475   1.302   4.299 -0.7110 -1.4874  3.1096
  165SAPE  C31818568   6.296   1.326   4.410  0.0494  0.2968 -0.3552
  165SAPE  H18X18569   6.355   1.374   4.490 -0.2943  0.8169 -0.4103
  165SAPE  H18Y18570   6.295   1.216   4.427  0.4221  0.0665 -1.6563
  165SAPE  H18Z18571   6.195   1.373   4.405 -0.5246 -0.6795  1.2969
  166SAPE     N18572   4.021   1.254   1.968  0.0415  0.6502  0.2119
  166SAPE   HN118573   4.049   1.173   2.028  1.5861 -0.5470 -1.9716
  166SAPE   HN218574   3.924   1.291   1.971 -0.2073  0.1342 -0.9197
  166SAPE   HN318575   4.012   1.213   1.873 -1.8522  0.4682  0.4267
  166SAPE   C1218576   4.126   1.354   1.984 -0.4861 -0.5092 -0.0041
  166SAPE  H12A18577   4.224   1.314   1.950  0.5006  1.4079  0.4510
  166SAPE  H12B18578   4.122   1.360   2.095  0.4849 -4.5330  0.4013
  166SAPE   C1118579   4.092   1.492   1.925 -0.1428  1.3268 -0.1017
  166SAPE  H11A18580   4.133   1.498   1.822 -1.4936 -0.8341 -0.8417
  166SAPE  H11B18581   4.148   1.574   1.976 -0.2739 -0.3347  2.9564
  166SAPE     P18582   3.885   1.588   2.036 -0.3885  0.1353 -0.3404
  166SAPE   O1318583   3.894   1.730   1.994 -0.3215  0.3623  0.2764
  166SAPE   O1418584   3.754   1.535   2.070 -0.0625 -0.1636  0.0483
  166SAPE   O1218585   3.947   1.505   1.918 -0.0834  0.0540  0.5564
  166SAPE   O1118586   3.987   1.566   2.156  0.0586  0.2217 -0.0315
  166SAPE    C118587   3.976   1.657   2.268 -0.0314  0.4949  0.2248
  166SAPE    HA18588   4.011   1.760   2.251 -1.1097  0.5514 -1.9526
  166SAPE    HB18589   3.867   1.676   2.279 -0.8237 -1.5800 -2.7772
  166SAPE    C218590   4.042   1.593   2.399 -0.7017 -0.4529  0.6250
  166SAPE    HS18591   4.005   1.489   2.402 -0.9297 -0.3582  3.3627
  166SAPE   O2118592   4.000   1.669   2.512  0.4686  0.2289 -0.8599
  166SAPE   C2118593   3.990   1.603   2.624  0.1529  0.0004 -0.8595
  166SAPE   O2218594   3.984   1.483   2.638 -0.6026  0.3250  0.3118
  166SAPE   C2218595   4.005   1.711   2.734  0.1956 -0.1991 -0.3528
  166SAPE   H2R18596   4.092   1.779   2.721  0.5604 -0.6220 -0.1595
  166SAPE   H2S18597   3.908   1.765   2.728 -0.0746 -0.8461 -2.7756
  166SAPE    C318598   4.193   1.595   2.386  0.3801 -0.3857 -0.4529
  166SAPE    HX18599   4.207   1.548   2.286 -1.3343 -1.2852 -0.3035
  166SAPE    HY18600   4.230   1.526   2.465  0.0892 -0.9233 -0.7794
  166SAPE   O3118601   4.253   1.724   2.375 -0.3298 -0.0092  0.2847
  166SAPE   C3118602   4.316   1.766   2.487 -0.3724  0.4633 -0.3163
  166SAPE   O3218603   4.334   1.692   2.586  0.2340 -0.0417 -0.1359
  166SAPE   C3218604   4.368   1.909   2.474 -0.1509  0.4077  1.1270
  166SAPE   H2X18605   4.287   1.984   2.471  0.5096  1.1272 -1.0476
  166SAPE   H2Y18606   4.416   1.918   2.374 -2.2039  1.6936  0.1966
  166SAPE   C2318607   4.018   1.653   2.881  0.4524  0.4694 -0.5552
  166SAPE   H3R18608   4.108   1.588   2.879 -1.7812 -2.8142 -0.9522
  166SAPE   H3S18609   3.931   1.588   2.903  0.7926 -0.1387 -0.9719
  166SAPE   C2418610   4.033   1.764   2.982 -0.9584  0.4103 -0.8232
  166SAPE   H4R18611   3.939   1.822   2.987  0.7167  3.4121 -1.7180
  166SAPE   H4S18612   4.110   1.837   2.948 -1.5138  1.0921 -0.6452
  166SAPE   C2518613   4.060   1.709   3.115 -0.3555  0.3252 -0.4294
  166SAPE   H5R18614   4.061   1.599   3.120 -0.5850  0.2885 -1.0160
  166SAPE   C2618615   4.079   1.782   3.224 -0.1087 -0.2014 -0.3755
  166SAPE   H6R18616   4.092   1.728   3.319 -2.1278 -0.0710  0.0059
  166SAPE   C2718617   4.090   1.931   3.225  0.0805 -0.2310 -0.0131
  166SAPE   H7R18618   4.013   1.970   3.295  1.5199  0.6106  1.1712
  166SAPE   H7S18619   4.074   1.979   3.126  0.2882 -0.5606 -0.2102
  166SAPE   C2818620   4.229   1.964   3.273  0.1279  0.4440  0.4394
  166SAPE   H8R18621   4.307   1.959   3.195  0.5073 -0.3271  0.8518
  166SAPE   C2918622   4.269   1.980   3.400 -0.8110 -0.0029 -0.0006
  166SAPE   H9R18623   4.377   1.981   3.422 -1.1014  0.3272  1.5136
  166SAPE  C21018624   4.190   1.973   3.527 -0.3440  0.2180  0.5338
  166SAPE  H10R18625   4.095   1.920   3.505  0.1474 -0.6712  0.5184
  166SAPE  H10S18626   4.165   2.079   3.548 -0.6031  0.2933 -0.1251
  166SAPE  C21118627   4.258   1.892   3.643 -0.4417  0.4426 -0.2028
  166SAPE  H11R18628   4.221   1.789   3.655 -0.5791  0.3115 -1.5565
  166SAPE  C21218629   4.366   1.931   3.721 -0.6504 -0.4754  0.1686
  166SAPE  H12R18630   4.416   1.862   3.791  0.1801  1.3068  1.3901
  166SAPE  C21318631   4.445   2.064   3.728  0.2254  0.9109 -0.0241
  166SAPE  H13R18632   4.461   2.115   3.630 -2.0246  0.5648 -0.6325
  166SAPE  H13S18633   4.547   2.047   3.770 -0.5477  0.0108  1.5562
  166SAPE  C21418634   4.364   2.171   3.800 -0.3115  0.1381  0.3164
  166SAPE  H14R18635   4.264   2.201   3.764 -1.1657 -0.6906  1.9001
  166SAPE  C21518636   4.390   2.208   3.925 -0.4870  0.2203  0.3765
  166SAPE  H15R18637   4.343   2.301   3.962  2.5664  1.5916  1.1384
  166SAPE  C21618638   4.499   2.156   4.017 -0.7886  0.2179  0.6567
  166SAPE  H16R18639   4.571   2.236   4.042 -1.5631  0.6507  1.5583
  166SAPE  H16S18640   4.557   2.073   3.971 -0.5719 -0.6964  2.4719
  166SAPE  C21718641   4.446   2.102   4.149  0.2251  0.1685  0.0366
  166SAPE  H17R18642   4.375   2.165   4.206  0.5529  0.2005  0.4165
  166SAPE  H17S18643   4.530   2.085   4.220 -0.2614 -0.4695  0.4753
  166SAPE  C21818644   4.385   1.952   4.146  0.1571 -0.2754 -0.2124
  166SAPE  H18R18645   4.296   1.955   4.080  1.7585 -1.0257 -2.5225
  166SAPE  H18S18646   4.365   1.922   4.251  1.0757  1.0150  0.3751
  166SAPE  C21918647   4.466   1.841   4.078  0.0125  0.4798  0.4262
  166SAPE  H19R18648   4.570   1.825   4.114  0.6171 -2.6006 -2.1954
  166SAPE  H19S18649   4.480   1.850   3.968  0.3864  2.4732  0.6039
  166SAPE  C22018650   4.398   1.708   4.105  0.0852  0.1435  0.1113
  166SAPE  H20R18651   4.289   1.701   4.081 -0.1048 -2.2186  1.3424
  166SAPE  H20S18652   4.412   1.678   4.211  0.7941 -0.4857 -0.1503
  166SAPE  H20T18653   4.447   1.619   4.060 -0.8272 -1.5192  2.2179
  166SAPE   C3318654   4.468   1.947   2.585 -0.3449 -0.4399  0.2190
  166SAPE   H3X18655   4.517   2.043   2.559 -1.4368  0.1759  0.3824
  166SAPE   H3Y18656   4.550   1.874   2.597 -1.0718 -1.6588 -1.7181
  166SAPE   C3418657   4.410   1.964   2.729  0.1964 -0.1658  0.4741
  166SAPE   H4X18658   4.342   1.880   2.757  0.5135 -0.5269  0.1677
  166SAPE   H4Y18659   4.342   2.052   2.721  1.1323  0.4093 -2.7101
  166SAPE   C3518660   4.504   2.012   2.842  0.5052 -0.2077 -0.1718
  166SAPE   H5X18661   4.588   2.072   2.802  0.9980 -0.2262  0.7886
  166SAPE   H5Y18662   4.542   1.925   2.901 -0.7049 -0.3641  0.4225
  166SAPE   C3618663   4.428   2.093   2.938 -0.2428 -0.3266 -0.1184
  166SAPE   H6X18664   4.328   2.048   2.950 -1.0022  0.8277 -1.7051
  166SAPE   H6Y18665   4.395   2.186   2.887 -0.8475 -1.3674 -1.6986
  166SAPE   C3718666   4.510   2.135   3.057  0.1053 -0.1751  0.0239
  166SAPE   H7X18667   4.606   2.174   3.018 -0.0366 -0.1188 -0.2736
  166SAPE   H7Y18668   4.542   2.051   3.122 -2.2083 -0.3940  0.9868
  166SAPE   C3818669   4.441   2.243   3.147 -0.2750  0.1144  0.2671
  166SAPE   H8X18670   4.343   2.208   3.185 -1.4457  0.1112 -2.5728
  166SAPE   H8Y18671   4.412   2.327   3.081 -2.7624 -1.5246 -0.8453
  166SAPE   C3918672   4.530   2.305   3.251 -0.1380  0.0626 -0.0017
  166SAPE   H9X18673   4.479   2.395   3.291 -0.8144 -0.6621  0.7942
  166SAPE   H9Y18674   4.623   2.337   3.199 -0.1200 -1.1634 -0.7805
  166SAPE  C31018675   4.546   2.216   3.378 -0.2623  0.0388 -0.0959
  166SAPE  H10X18676   4.599   2.121   3.352 -0.9970 -0.0182 -1.5409
  166SAPE  H10Y18677   4.447   2.202   3.427  0.0928  2.2337  1.3825
  166SAPE  C31118678   4.635   2.271   3.487 -0.1457 -0.1456  0.0330
  166SAPE  H11X18679   4.727   2.319   3.447 -1.3598  1.6050 -0.7814
  166SAPE  H11Y18680   4.675   2.192   3.554  1.6804  0.8505  0.1672
  166SAPE  C31218681   4.571   2.383   3.568  0.3046  0.0473  0.0705
  166SAPE  H12X18682   4.464   2.363   3.586 -0.0275  2.7344  1.5736
  166SAPE  H12Y18683   4.584   2.474   3.505  0.8815  2.4233  3.3643
  166SAPE  C31318684   4.640   2.417   3.702 -0.2646 -0.3683  0.2003
  166SAPE  H13X18685   4.731   2.480   3.692 -0.1218 -0.6573 -0.3029
  166SAPE  H13Y18686   4.684   2.327   3.750 -0.6032 -0.3888  0.4758
  166SAPE  C31418687   4.544   2.498   3.798 -0.8539 -0.3876 -0.8959
  166SAPE  H14X18688   4.449   2.452   3.834 -0.7322 -0.6537 -0.9124
  166SAPE  H14Y18689   4.505   2.591   3.752  0.7896  1.2803  0.8538
  166SAPE  C31518690   4.613   2.540   3.935  0.5060 -0.5764  0.1667
  166SAPE  H15X18691   4.667   2.635   3.916  0.5117 -0.4007  1.0539
  166SAPE  H15Y18692   4.675   2.455   3.972 -2.9225 -2.9342  0.9157
  166SAPE  C31618693   4.516   2.585   4.046 -0.2308  0.2714 -0.2693
  166SAPE  H16X18694   4.467   2.493   4.085  0.0439  0.2500  0.0315
  166SAPE  H16Y18695   4.433   2.647   4.007  0.5599  1.0940 -0.6877
  166SAPE  C31718696   4.587   2.673   4.152  0.8291  0.4516 -0.3423
  166SAPE  H17X18697   4.601   2.773   4.105  0.0206  0.9395  0.4262
  166SAPE  H17Y18698   4.683   2.631   4.189 -0.0227  1.2078  3.0428
  166SAPE  C31818699   4.495   2.690   4.270 -0.5175  0.5462  0.3452
  166SAPE  H18X18700   4.457   2.592   4.307  0.1777  0.6323  1.3263
  166SAPE  H18Y18701   4.409   2.750   4.233 -0.6644 -0.4592 -1.0220
  166SAPE  H18Z18702   4.549   2.737   4.355 -0.3039  0.7990  0.0719
  167SAPE     N18703   0.048   0.410   2.704 -0.0455  0.4582  0.0532
  167SAPE   HN118704   0.035   0.312   2.734  3.6194 -0.2288 -0.2208
  167SAPE   HN218705   0.149   0.422   2.681  0.0839 -2.8097 -1.6029
  167SAPE   HN318706   0.013   0.476   2.777 -0.7570  2.2249 -1.7799
  167SAPE   C1218707  -0.036   0.433   2.577  0.5885 -0.0629 -0.0560
  167SAPE  H12A18708  -0.139   0.413   2.613 -0.5136 -1.3432 -3.5331
  167SAPE  H12B18709  -0.014   0.345   2.514  1.7060  0.9664 -1.1616
  167SAPE   C1118710  -0.014   0.570   2.509 -0.4553 -0.6623 -0.0888
  167SAPE  H11A18711  -0.050   0.568   2.404  1.5866  0.8000 -0.8756
  167SAPE  H11B18712   0.096   0.584   2.501 -0.3624 -0.8108  0.8050
  167SAPE     P18713  -0.211   0.734   2.570 -0.2142  0.0221  0.1850
  167SAPE   O1318714  -0.198   0.848   2.476  0.2738  0.8705  0.3729
  167SAPE   O1418715  -0.306   0.628   2.535 -0.1524 -0.0423  0.4016
  167SAPE   O1218716  -0.073   0.672   2.597  0.3175  0.5030  0.3998
  167SAPE   O1118717  -0.254   0.797   2.706  0.3363 -0.1396 -0.3450
  167SAPE    C118718  -0.220   0.750   2.841 -0.3185 -0.5811  0.6111
  167SAPE    HA18719  -0.301   0.781   2.911 -0.7655 -1.3694  0.4560
  167SAPE    HB18720  -0.212   0.639   2.846  3.5250 -0.3590  3.4375
  167SAPE    C218721  -0.086   0.815   2.884 -0.8743  0.1801 -0.4003
  167SAPE    HS18722  -0.005   0.776   2.819  0.1395 -0.7078  1.3331
  167SAPE   O2118723  -0.052   0.779   3.015  0.5445 -0.3822  0.3205
  167SAPE   C2118724  -0.012   0.653   3.028  0.3583  0.2196  0.0807
  167SAPE   O2218725   0.009   0.577   2.936  0.1265  0.0519  0.1878
  167SAPE   C2218726  -0.009   0.612   3.182 -0.0088 -0.5009 -0.0736
  167SAPE   H2R18727   0.035   0.694   3.243 -0.4017 -0.6445  0.4065
  167SAPE   H2S18728  -0.115   0.603   3.215 -0.1001  1.1923  0.1756
  167SAPE    C318729  -0.085   0.971   2.873  0.5598  0.6562 -0.0375
  167SAPE    HX18730  -0.158   1.002   2.951 -0.6400 -1.6005 -0.1744
  167SAPE    HY18731  -0.125   1.011   2.778 -1.7342  1.7138  1.3017
  167SAPE   O3118732   0.044   1.028   2.909  0.1848  0.0986  0.4503
  167SAPE   C3118733   0.138   1.002   2.816  0.3217 -0.3863  0.9007
  167SAPE   O3218734   0.114   0.961   2.701  0.7818 -0.1761 -0.4232
  167SAPE   C3218735   0.277   1.023   2.873 -0.0129 -0.5544  0.4963
  167SAPE   H2X18736   0.348   1.000   2.791  1.2563  1.5175  0.9344
  167SAPE   H2Y18737   0.291   0.948   2.953 -0.9853  0.4048  1.5965
  167SAPE   C2318738   0.067   0.477   3.204  0.1641 -0.8018 -0.5948
  167SAPE   H3R18739   0.177   0.487   3.216  0.0968 -1.8449  1.1867
  167SAPE   H3S18740   0.052   0.411   3.116  1.0502 -0.8155 -0.7488
  167SAPE   C2418741   0.027   0.402   3.336 -0.2399 -0.0588  0.2759
  167SAPE   H4R18742   0.075   0.302   3.328 -1.0485 -0.5086  0.8844
  167SAPE   H4S18743  -0.080   0.371   3.344 -0.1211 -0.1931  1.4598
  167SAPE   C2518744   0.074   0.477   3.459 -0.2386 -0.1822  0.0533
  167SAPE   H5R18745   0.072   0.587   3.457 -2.2736 -0.1825  0.1804
  167SAPE   C2618746   0.103   0.424   3.582  1.2874 -0.2254 -0.0924
  167SAPE   H6R18747   0.123   0.497   3.662  1.6194  0.9617 -1.2169
  167SAPE   C2718748   0.077   0.281   3.625 -0.1100  0.0769 -0.2515
  167SAPE   H7R18749   0.060   0.217   3.535 -1.3148  0.6817 -0.4641
  167SAPE   H7S18750  -0.011   0.277   3.692  1.3329 -1.9951  1.6695
  167SAPE   C2818751   0.202   0.243   3.702  0.6103  0.0037 -0.2377
  167SAPE   H8R18752   0.290   0.275   3.644  1.0457  1.6674  1.2611
  167SAPE   C2918753   0.209   0.190   3.828 -0.9019  0.1563 -0.9971
  167SAPE   H9R18754   0.306   0.172   3.876 -0.1466  3.0190 -1.2388
  167SAPE  C21018755   0.093   0.147   3.915 -0.7112  1.0197  0.4687
  167SAPE  H10R18756   0.136   0.082   3.994  0.4753  0.8934 -0.2378
  167SAPE  H10S18757   0.015   0.089   3.862  0.5502  0.2990 -0.6874
  167SAPE  C21118758   0.036   0.271   3.973  0.2262  0.2619 -0.5095
  167SAPE  H11R18759   0.072   0.366   3.931  1.7549 -0.4831 -0.9369
  167SAPE  C21218760  -0.067   0.265   4.059  0.3076 -0.6784  0.6183
  167SAPE  H12R18761  -0.117   0.361   4.078 -1.5185 -1.9684  2.9139
  167SAPE  C21318762  -0.133   0.140   4.110  0.2501 -0.0959 -0.4373
  167SAPE  H13R18763  -0.074   0.049   4.087 -0.5808 -1.2528  1.6893
  167SAPE  H13S18764  -0.227   0.123   4.053  0.3978  1.2967 -1.1546
  167SAPE  C21418765  -0.168   0.156   4.256  0.6034 -0.3949 -0.0523
  167SAPE  H14R18766  -0.198   0.258   4.283  1.8607  0.0088 -0.0761
  167SAPE  C21518767  -0.140   0.071   4.350  0.4943  0.6633  0.0673
  167SAPE  H15R18768  -0.171   0.094   4.453  0.0122  0.2258  0.0243
  167SAPE  C21618769  -0.104  -0.073   4.329 -0.0408  0.7238 -0.9056
  167SAPE  H16R18770  -0.141  -0.124   4.238  1.4500 -3.8190  0.7256
  167SAPE  H16S18771  -0.163  -0.118   4.412  1.2546  0.5340 -0.0643
  167SAPE  C21718772   0.045  -0.115   4.347 -0.5437  0.1469 -0.0855
  167SAPE  H17R18773   0.086  -0.084   4.445 -2.8785  0.0155  0.9943
  167SAPE  H17S18774   0.103  -0.060   4.270 -0.1270  0.4328  0.4267
  167SAPE  C21818775   0.073  -0.265   4.340  0.7373 -0.8759 -0.1523
  167SAPE  H18R18776   0.076  -0.315   4.241 -1.7404 -0.0885 -0.6864
  167SAPE  H18S18777  -0.004  -0.311   4.405 -0.5227  0.5586 -0.5648
  167SAPE  C21918778   0.212  -0.297   4.406  0.8649 -0.4385 -0.9772
  167SAPE  H19R18779   0.198  -0.270   4.513  1.7298 -0.6104 -0.8122
  167SAPE  H19S18780   0.293  -0.225   4.383  0.5030  0.0864 -0.6420
  167SAPE  C22018781   0.272  -0.438   4.406 -0.2125  0.9305  0.5991
  167SAPE  H20R18782   0.290  -0.454   4.297 -1.1582  0.8037  0.4510
  167SAPE  H20S18783   0.198  -0.513   4.441  0.2430 -0.2198 -0.8182
  167SAPE  H20T18784   0.367  -0.445   4.463 -0.3519 -2.0538  0.6246
  167SAPE   C3318785   0.302   1.161   2.935 -0.6839 -0.7620  0.3550
  167SAPE   H3X18786   0.264   1.236   2.862  0.2212  1.2081  1.8146
  167SAPE   H3Y18787   0.411   1.178   2.943 -0.7328  0.3791 -1.1577
  167SAPE   C3418788   0.236   1.201   3.069  0.1922 -0.4000  0.5074
  167SAPE   H4X18789   0.224   1.111   3.132 -0.3934 -0.4672  0.3017
  167SAPE   H4Y18790   0.137   1.241   3.040  1.1551  1.8513  0.0450
  167SAPE   C3518791   0.305   1.306   3.155 -0.1199 -0.1762  0.2378
  167SAPE   H5X18792   0.309   1.404   3.104 -0.5422 -1.4977 -2.5053
  167SAPE   H5Y18793   0.408   1.266   3.166  0.1160  0.2234 -0.4382
  167SAPE   C3618794   0.240   1.349   3.289  0.0876  0.4157 -0.4441
  167SAPE   H6X18795   0.198   1.259   3.340  0.8563 -0.3578 -1.1338
  167SAPE   H6Y18796   0.153   1.412   3.262  0.8884  1.8921  0.3369
  167SAPE   C3718797   0.335   1.428   3.382  0.6227  0.1387 -1.0329
  167SAPE   H7X18798   0.370   1.528   3.348  0.7424  1.5326  2.7341
  167SAPE   H7Y18799   0.422   1.363   3.404  1.2614  1.3563  0.2818
  167SAPE   C3818800   0.250   1.457   3.503  0.0511  0.3618 -0.0356
  167SAPE   H8X18801   0.153   1.493   3.462  0.1568 -0.6877 -1.2696
  167SAPE   H8Y18802   0.300   1.537   3.561  0.1141  0.4588 -0.2218
  167SAPE   C3918803   0.198   1.348   3.594  0.0681  0.0179  0.1034
  167SAPE   H9X18804   0.285   1.300   3.643 -0.8829 -1.2780  0.5440
  167SAPE   H9Y18805   0.139   1.274   3.537 -0.5582  0.0474  0.7141
  167SAPE  C31018806   0.108   1.409   3.704 -0.0724  0.0786 -0.5550
  167SAPE  H10X18807   0.035   1.335   3.744  1.2304 -1.2005 -0.4692
  167SAPE  H10Y18808   0.041   1.487   3.660 -2.0038 -0.5698  1.0687
  167SAPE  C31118809   0.180   1.472   3.823 -1.1332 -0.1221 -0.5274
  167SAPE  H11X18810   0.139   1.561   3.875  2.1516 -0.1779  2.5943
  167SAPE  H11Y18811   0.276   1.500   3.773 -0.0750 -1.9032  0.4144
  167SAPE  C31218812   0.234   1.385   3.937  0.3392  1.0057  0.0234
  167SAPE  H12X18813   0.312   1.323   3.887  0.1369 -0.0242  0.9198
  167SAPE  H12Y18814   0.155   1.318   3.977  0.1738 -0.1310 -2.0987
  167SAPE  C31318815   0.280   1.468   4.060 -0.5035 -0.4264 -0.4492
  167SAPE  H13X18816   0.184   1.507   4.100 -0.3412  0.4230 -0.8801
  167SAPE  H13Y18817   0.347   1.553   4.038  1.1088 -1.5635 -0.1648
  167SAPE  C31418818   0.352   1.387   4.169 -0.0142 -0.7425 -0.4899
  167SAPE  H14X18819   0.457   1.374   4.134  0.9063  1.2686  1.2922
  167SAPE  H14Y18820   0.314   1.286   4.199 -1.0380  0.6760  3.7775
  167SAPE  C31518821   0.379   1.457   4.302  0.7739 -0.4244  0.7998
  167SAPE  H15X18822   0.427   1.383   4.369  2.9416  0.2276  0.0421
  167SAPE  H15Y18823   0.278   1.482   4.342 -0.3191 -2.5331 -0.4675
  167SAPE  C31618824   0.475   1.580   4.287 -0.0637  0.2980  0.2006
  167SAPE  H16X18825   0.421   1.651   4.221 -0.9466  0.4540  1.0604
  167SAPE  H16Y18826   0.570   1.535   4.251 -1.5269 -3.5421  0.6123
  167SAPE  C31718827   0.513   1.659   4.412 -0.6226 -0.0186 -0.3029
  167SAPE  H17X18828   0.424   1.679   4.475  0.7279  2.1836  1.0183
  167SAPE  H17Y18829   0.559   1.756   4.382 -2.6002  1.1107  0.1262
  167SAPE  C31818830   0.607   1.579   4.499 -0.0332  0.0155 -0.0584
  167SAPE  H18X18831   0.621   1.619   4.602  1.1351  2.9128 -1.2243
  167SAPE  H18Y18832   0.703   1.564   4.445 -0.8779  0.3823 -1.7027
  167SAPE  H18Z18833   0.562   1.479   4.516 -0.7900  0.6024  1.5823
  168SAPE     N18834   6.023   3.656   2.287  0.4359  0.8181 -0.4367
  168SAPE   HN118835   6.107   3.629   2.232 -1.4164 -0.7059 -2.7014
  168SAPE   HN218836   5.987   3.574   2.339 -2.3632  1.9476 -0.4120
  168SAPE   HN318837   5.947   3.678   2.218 -2.2333 -0.3581  1.9342
  168SAPE   C1218838   6.043   3.769   2.378  0.6422 -0.1542 -0.2553
  168SAPE  H12A18839   5.953   3.775   2.444 -0.2275 -0.5316 -1.3695
  168SAPE  H12B18840   6.064   3.860   2.319 -1.2004  0.0713 -0.6304
  168SAPE   C1118841   6.146   3.725   2.475 -0.3961 -0.0604 -0.3741
  168SAPE  H11A18842   6.122   3.623   2.513 -0.9848  0.8715  1.9495
  168SAPE  H11B18843   6.137   3.793   2.563  0.1142  0.5579 -0.7979
  168SAPE     P18844   6.383   3.632   2.472  0.0216  0.0041 -0.1197
  168SAPE   O1318845   6.357   3.492   2.413 -0.6602 -0.4565  0.2049
  168SAPE   O1418846   6.511   3.698   2.432  0.1991 -0.3599  0.4303
  168SAPE   O1218847   6.271   3.738   2.427 -0.5442 -0.0700 -0.2226
  168SAPE   O1118848   6.377   3.633   2.629 -0.1316 -0.3546 -0.0689
  168SAPE    C118849   6.488   3.686   2.702  0.4911 -0.5143  0.3900
  168SAPE    HA18850   6.585   3.638   2.677  0.6484  0.4828 -0.9849
  168SAPE    HB18851   6.517   3.787   2.666 -0.6198 -0.4922 -0.5097
  168SAPE    C218852   6.448   3.696   2.852 -0.1123 -0.6766 -0.0223
  168SAPE    HS18853   6.506   3.775   2.905 -1.2466 -0.8678  1.5699
  168SAPE   O2118854   6.479   3.577   2.919 -0.4018  0.8381 -0.2202
  168SAPE   C2118855   6.611   3.544   2.938 -0.2108 -0.3270  0.0826
  168SAPE   O2218856   6.699   3.610   2.884 -0.2373 -0.0956  0.4240
  168SAPE   C2218857   6.625   3.422   3.031 -0.0588  0.0870  0.2471
  168SAPE   H2R18858   6.578   3.337   2.977  1.0483 -1.1447  1.1714
  168SAPE   H2S18859   6.732   3.399   3.045 -0.4962 -3.2879 -1.1760
  168SAPE    C318860   6.307   3.745   2.870 -0.2095 -0.4477  0.0593
  168SAPE    HX18861   6.239   3.659   2.849 -1.2194 -0.0498  1.4561
  168SAPE    HY18862   6.295   3.827   2.796 -1.1069 -2.2815 -1.9314
  168SAPE   O3118863   6.276   3.793   3.003 -0.5512  0.2315 -0.2122
  168SAPE   C3118864   6.160   3.843   3.030  0.0791 -0.5616  0.2994
  168SAPE   O3218865   6.072   3.848   2.948 -0.1556 -0.4170  0.6781
  168SAPE   C3218866   6.154   3.897   3.172  0.5740  0.2625  0.2338
  168SAPE   H2X18867   6.105   3.996   3.156  0.0310 -0.3098 -1.9200
  168SAPE   H2Y18868   6.248   3.930   3.221  0.5202 -0.0693  0.5631
  168SAPE   C2318869   6.555   3.435   3.171 -0.1235 -0.3579  0.0383
  168SAPE   H3R18870   6.541   3.331   3.207  1.2870  0.0266  1.8270
  168SAPE   H3S18871   6.461   3.487   3.141  0.0381 -0.0328  0.0902
  168SAPE   C2418872   6.623   3.529   3.272 -0.2136 -0.1557 -0.0920
  168SAPE   H4R18873   6.615   3.636   3.246 -0.5443 -0.3059 -0.6234
  168SAPE   H4S18874   6.732   3.507   3.265 -0.7207 -3.4220  0.8095
  168SAPE   C2518875   6.580   3.505   3.413  0.3045  0.1380 -0.4228
  168SAPE   H5R18876   6.651   3.441   3.467 -1.3584 -2.3617 -1.0612
  168SAPE   C2618877   6.478   3.562   3.478  0.0897  0.5029 -0.0453
  168SAPE   H6R18878   6.462   3.543   3.585 -1.7395  0.2000 -0.3409
  168SAPE   C2718879   6.372   3.654   3.420  0.2168  0.0538 -0.0318
  168SAPE   H7R18880   6.281   3.590   3.425 -0.7102  1.3935  0.6084
  168SAPE   H7S18881   6.395   3.674   3.313 -0.1412  0.2665 -0.0678
  168SAPE   C2818882   6.356   3.781   3.498  0.2316  1.1982 -0.5709
  168SAPE   H8R18883   6.282   3.781   3.580  0.4864  0.9932 -0.3402
  168SAPE   C2918884   6.428   3.889   3.474  0.2570 -0.5374 -0.2558
  168SAPE   H9R18885   6.409   3.985   3.526  2.1494 -0.3656  0.1809
  168SAPE  C21018886   6.549   3.897   3.382  0.6823 -0.1598 -0.3841
  168SAPE  H10R18887   6.560   4.003   3.351  0.2528  0.8014  2.4579
  168SAPE  H10S18888   6.533   3.838   3.289  0.0042 -1.8929  0.7824
  168SAPE  C21118889   6.679   3.852   3.449 -0.0634  0.4763 -0.4905
  168SAPE  H11R18890   6.725   3.760   3.413  0.4054 -0.2938  1.9041
  168SAPE  C21218891   6.755   3.933   3.525  0.3869  0.2245  0.3654
  168SAPE  H12R18892   6.836   3.879   3.577  0.1345  0.9309  1.5265
  168SAPE  C21318893   6.734   4.072   3.576  0.6029 -0.5368 -0.6730
  168SAPE  H13R18894   6.628   4.102   3.559  0.4432  0.9047  2.1891
  168SAPE  H13S18895   6.796   4.137   3.510  1.4640  0.9247  1.4768
  168SAPE  C21418896   6.779   4.094   3.719 -0.5443  0.4476  0.3270
  168SAPE  H14R18897   6.887   4.108   3.738 -0.1500 -2.6852  0.9537
  168SAPE  C21518898   6.701   4.071   3.824  0.2124 -0.1317  0.5951
  168SAPE  H15R18899   6.736   4.100   3.925  0.3520  1.1969  0.1898
  168SAPE  C21618900   6.559   4.023   3.816  0.0931  0.4879  0.1945
  168SAPE  H16R18901   6.551   3.914   3.794 -2.0112  0.5234  0.5891
  168SAPE  H16S18902   6.501   4.061   3.729 -1.0646 -0.3741  0.5735
  168SAPE  C21718903   6.474   4.060   3.938  0.4158  0.2614 -0.4449
  168SAPE  H17R18904   6.492   4.168   3.960 -0.3476  0.1652  0.6931
  168SAPE  H17S18905   6.518   4.011   4.027  1.3973  0.7478 -0.6429
  168SAPE  C21818906   6.325   4.028   3.927  0.6289  0.0275 -0.5177
  168SAPE  H18R18907   6.284   4.100   3.853  0.1272  0.6337  0.3398
  168SAPE  H18S18908   6.283   4.051   4.027  1.2073 -1.6645  0.1534
  168SAPE  C21918909   6.284   3.886   3.873 -0.4333  0.5357  0.6875
  168SAPE  H19R18910   6.316   3.813   3.951  2.6523  1.0092 -0.0111
  168SAPE  H19S18911   6.346   3.867   3.783 -0.6717 -1.0998  0.8325
  168SAPE  C22018912   6.134   3.875   3.834 -0.0682 -0.1665 -0.2402
  168SAPE  H20R18913   6.121   3.931   3.739  0.3185 -0.3971 -0.4334
  168SAPE  H20S18914   6.074   3.927   3.912 -0.9110  0.2916 -1.1807
  168SAPE  H20T18915   6.106   3.768   3.826 -0.8290 -0.1452  1.6957
  168SAPE   C3318916   6.070   3.803   3.269 -0.3676 -0.4789 -0.8052
  168SAPE   H3X18917   6.143   3.721   3.291  0.0700 -0.3475 -1.6997
  168SAPE   H3Y18918   5.980   3.759   3.221 -1.3487 -0.9549  1.3408
  168SAPE   C3418919   6.025   3.861   3.404 -0.4252  0.4520  0.0836
  168SAPE   H4X18920   5.959   3.949   3.388  0.2955  0.9697 -0.1111
  168SAPE   H4Y18921   6.118   3.894   3.455  0.1952 -0.1673 -0.6159
  168SAPE   C3518922   5.949   3.755   3.493 -0.1081 -0.7534  0.0325
  168SAPE   H5X18923   5.864   3.719   3.431  0.5227 -0.2518 -1.1537
  168SAPE   H5Y18924   5.896   3.808   3.575 -0.3971 -3.0455  1.4016
  168SAPE   C3618925   6.018   3.631   3.552 -0.3616 -0.7859 -0.0287
  168SAPE   H6X18926   6.107   3.661   3.612 -0.5015 -0.0956 -0.1660
  168SAPE   H6Y18927   6.059   3.573   3.467 -2.1644 -1.0349 -0.7662
  168SAPE   C3718928   5.931   3.557   3.654  0.9055 -0.4444 -0.6490
  168SAPE   H7X18929   5.842   3.529   3.594 -0.4239  2.1100 -0.0361
  168SAPE   H7Y18930   5.901   3.628   3.735 -0.8101 -1.9928  0.1401
  168SAPE   C3818931   5.984   3.435   3.726  0.1719 -0.0158  0.6170
  168SAPE   H8X18932   6.085   3.438   3.771  0.6756 -0.1541 -0.4780
  168SAPE   H8Y18933   5.988   3.353   3.652  2.6707  1.1431 -0.6313
  168SAPE   C3918934   5.872   3.376   3.813  0.0373  0.1783 -0.1438
  168SAPE   H9X18935   5.786   3.358   3.745  0.2363 -0.1836 -0.3037
  168SAPE   H9Y18936   5.849   3.442   3.900  0.5483 -0.0235  0.1490
  168SAPE  C31018937   5.904   3.245   3.877  0.3265 -0.3398  0.2990
  168SAPE  H10X18938   5.907   3.159   3.806  1.1855 -0.8598  0.9451
  168SAPE  H10Y18939   5.814   3.227   3.939  0.7482  0.2824  1.1170
  168SAPE  C31118940   6.041   3.249   3.948 -0.0368 -0.5014 -0.3586
  168SAPE  H11X18941   6.038   3.337   4.016 -0.8126  0.3305 -1.4396
  168SAPE  H11Y18942   6.126   3.253   3.876 -0.3876  0.4669 -0.7342
  168SAPE  C31218943   6.064   3.111   4.024  0.3096 -0.1003 -0.1598
  168SAPE  H12X18944   6.044   3.022   3.961  0.9388 -0.2515 -0.1530
  168SAPE  H12Y18945   5.993   3.110   4.110 -0.4745 -2.3405 -0.7461
  168SAPE  C31318946   6.202   3.075   4.086 -0.0393 -0.0964  0.0735
  168SAPE  H13X18947   6.268   3.063   3.997 -0.1709  0.8483 -0.1648
  168SAPE  H13Y18948   6.194   2.975   4.132  0.2967  0.0009  0.3443
  168SAPE  C31418949   6.272   3.170   4.187  0.3193 -0.1080  0.3481
  168SAPE  H14X18950   6.212   3.140   4.275 -2.1261 -2.5639 -1.9562
  168SAPE  H14Y18951   6.247   3.272   4.152  0.3858  0.2065  1.2028
  168SAPE  C31518952   6.426   3.148   4.200 -0.2826 -0.5226 -0.4057
  168SAPE  H15X18953   6.469   3.158   4.098  0.8687  0.9151  0.1760
  168SAPE  H15Y18954   6.434   3.039   4.223 -0.2419 -0.0796  1.9357
  168SAPE  C31618955   6.511   3.222   4.300 -1.0362  0.0776  0.3499
  168SAPE  H16X18956   6.469   3.213   4.402  0.5038 -1.6763  0.8855
  168SAPE  H16Y18957   6.507   3.324   4.255 -0.4895 -0.8134 -1.8564
  168SAPE  C31718958   6.656   3.174   4.302  0.4840 -0.1674 -0.1771
  168SAPE  H17X18959   6.715   3.248   4.360 -1.1067  0.3889  0.7860
  168SAPE  H17Y18960   6.692   3.158   4.198  2.0415 -0.3757  0.3706
  168SAPE  C31818961   6.689   3.034   4.360  0.7051 -0.1027  0.8248
  168SAPE  H18X18962   6.660   3.033   4.467 -0.9668  0.4985  0.4070
  168SAPE  H18Y18963   6.795   3.005   4.340  0.5922  0.0860 -0.0839
  168SAPE  H18Z18964   6.628   2.961   4.302  0.2489 -0.6838  2.0025
  169SAPE     N18965   0.237   1.970   2.484 -0.0503  0.3937 -0.4566
  169SAPE   HN118966   0.139   1.969   2.449 -0.5437  0.4187  0.8427
  169SAPE   HN218967   0.259   2.071   2.489  2.0437 -0.0454  0.3556
  169SAPE   HN318968   0.306   1.939   2.413  1.4149 -1.5195  1.6395
  169SAPE   C1218969   0.258   1.884   2.605 -0.4872 -0.5302  0.1637
  169SAPE  H12A18970   0.338   1.934   2.663 -1.0708  0.4497  0.1487
  169SAPE  H12B18971   0.286   1.781   2.575  0.1940 -0.3115  0.0505
  169SAPE   C1118972   0.119   1.896   2.685 -0.1290  0.3850 -0.3214
  169SAPE  H11A18973   0.100   2.002   2.713 -1.0055  0.0802  0.2744
  169SAPE  H11B18974   0.125   1.846   2.783 -2.1383  0.6944  0.0112
  169SAPE     P18975  -0.035   1.703   2.612  0.0034 -0.7322  0.1202
  169SAPE   O1318976  -0.180   1.693   2.570 -0.3157 -0.5121  0.0053
  169SAPE   O1418977   0.062   1.632   2.525  0.0905 -0.0525  0.2977
  169SAPE   O1218978   0.008   1.854   2.601 -1.0452  0.2073 -0.1689
  169SAPE   O1118979  -0.021   1.660   2.762  0.6130  0.3706  0.1032
  169SAPE    C118980  -0.090   1.719   2.864  0.6283 -0.3574 -0.2061
  169SAPE    HA18981  -0.072   1.828   2.867 -0.8277 -0.0014 -2.5075
  169SAPE    HB18982  -0.199   1.713   2.843  0.4576  1.7209 -0.1339
  169SAPE    C218983  -0.078   1.645   2.998 -0.2799  0.4827  0.6585
  169SAPE    HS18984  -0.139   1.687   3.081 -2.8537 -0.6382 -0.5649
  169SAPE   O2118985   0.056   1.641   3.022  0.0193  0.6497  0.5067
  169SAPE   C2118986   0.108   1.747   3.083  0.2210 -0.0819  0.0852
  169SAPE   O2218987   0.038   1.837   3.122 -0.0552 -0.1065 -0.6238
  169SAPE   C2218988   0.260   1.740   3.095  0.6862 -0.4447  0.2128
  169SAPE   H2R18989   0.288   1.675   3.181  1.1482  1.6356  1.7172
  169SAPE   H2S18990   0.297   1.691   3.003 -1.1340 -1.9474  0.2190
  169SAPE    C318991  -0.136   1.496   2.992  0.1360 -0.1479 -0.1649
  169SAPE    HX18992  -0.085   1.441   2.911 -1.6394 -2.1640 -0.0061
  169SAPE    HY18993  -0.246   1.497   2.975  0.2572 -0.8271 -0.9874
  169SAPE   O3118994  -0.108   1.420   3.111 -0.0545 -0.5703  0.0247
  169SAPE   C3118995  -0.153   1.296   3.100 -0.2938  0.0905 -0.9955
  169SAPE   O3218996  -0.227   1.254   3.011 -0.0648 -0.6848  0.1521
  169SAPE   C3218997  -0.103   1.204   3.213  0.9824  0.5183  0.2045
  169SAPE   H2X18998  -0.062   1.268   3.294  3.1461  0.5523 -0.8561
  169SAPE   H2Y18999  -0.016   1.149   3.172  1.9540  1.8548  0.4118
  169SAPE   C2319000   0.329   1.876   3.116  0.7760 -0.4980  0.2415
  169SAPE   H3R19001   0.273   1.927   3.196  1.6163 -0.3475  0.7435
  169SAPE   H3S19002   0.318   1.944   3.028 -1.6440  0.4849  1.2318
  169SAPE   C2419003   0.483   1.863   3.144  0.5856  0.1984  0.7644
  169SAPE   H4R19004   0.505   1.800   3.233  1.2820 -2.1234 -0.9505
  169SAPE   H4S19005   0.535   1.961   3.145  0.2019  0.4520 -0.8309
  169SAPE   C2519006   0.541   1.822   3.006  0.2970  0.2488  0.6034
  169SAPE   H5R19007   0.500   1.872   2.917 -0.0745 -0.7921  0.1630
  169SAPE   C2619008   0.625   1.721   2.992 -0.4689  0.6096 -0.6532
  169SAPE   H6R19009   0.662   1.693   2.892 -0.6655  0.4104 -0.6698
  169SAPE   C2719010   0.692   1.638   3.104  0.0483  0.1554  0.3672
  169SAPE   H7R19011   0.657   1.661   3.207 -0.0798 -3.1483  1.1929
  169SAPE   H7S19012   0.803   1.646   3.102  0.0931 -0.6023 -1.0208
  169SAPE   C2819013   0.677   1.489   3.080  0.4194  0.1826  0.7644
  169SAPE   H8R19014   0.615   1.449   2.998 -2.0482  0.8138  2.2228
  169SAPE   C2919015   0.720   1.393   3.165 -0.0309 -0.4802 -0.4054
  169SAPE   H9R19016   0.710   1.285   3.147  0.3299 -0.6030  0.0924
  169SAPE  C21019017   0.802   1.420   3.287  0.1871  0.7625  0.7070
  169SAPE  H10R19018   0.806   1.528   3.311 -1.3506  1.2651 -1.0107
  169SAPE  H10S19019   0.900   1.385   3.247 -0.3646 -0.5098  0.3866
  169SAPE  C21119020   0.743   1.336   3.399  0.4826  0.2474 -0.0648
  169SAPE  H11R19021   0.740   1.229   3.377  1.2844  0.3259 -0.6194
  169SAPE  C21219022   0.690   1.384   3.511 -0.0953 -0.2364  0.3213
  169SAPE  H12R19023   0.646   1.316   3.585  1.1193 -0.3698  0.9411
  169SAPE  C21319024   0.693   1.533   3.542 -0.0992  0.4533  0.2923
  169SAPE  H13R19025   0.671   1.588   3.448 -1.7662  0.9128  0.9146
  169SAPE  H13S19026   0.795   1.560   3.574  1.7006 -1.1813 -3.4109
  169SAPE  C21419027   0.585   1.583   3.632  0.6540  0.0898  0.0988
  169SAPE  H14R19028   0.491   1.605   3.580 -0.1971 -0.4625  1.3465
  169SAPE  C21519029   0.585   1.572   3.762 -0.6681  0.2018 -0.0904
  169SAPE  H15R19030   0.503   1.616   3.820 -0.7167  1.9352 -1.4120
  169SAPE  C21619031   0.697   1.527   3.856  0.8479  0.2975  0.3920
  169SAPE  H16R19032   0.759   1.452   3.803 -0.0431  0.8165 -1.5047
  169SAPE  H16S19033   0.665   1.477   3.950  0.0534 -2.0413 -1.0312
  169SAPE  C21719034   0.784   1.650   3.897  0.0082 -0.8713  0.4640
  169SAPE  H17R19035   0.825   1.711   3.814 -1.4322  0.8819  0.9689
  169SAPE  H17S19036   0.864   1.605   3.959 -0.1829 -0.2220  1.1984
  169SAPE  C21819037   0.706   1.746   4.000 -0.3784 -0.5453 -0.2376
  169SAPE  H18R19038   0.654   1.679   4.071 -0.8877  0.9169  0.8112
  169SAPE  H18S19039   0.623   1.790   3.940 -0.7758  0.0412  0.7230
  169SAPE  C21919040   0.788   1.851   4.074  0.2206  0.2897  0.8731
  169SAPE  H19R19041   0.713   1.921   4.118 -0.9469  0.5308 -1.3417
  169SAPE  H19S19042   0.839   1.918   4.002  0.1221  1.1812  1.6214
  169SAPE  C22019043   0.894   1.800   4.168  0.0440 -0.0129  0.0160
  169SAPE  H20R19044   0.962   1.886   4.185 -0.3997  0.5995 -1.1831
  169SAPE  H20S19045   0.954   1.719   4.122  0.7838 -0.4269  1.6418
  169SAPE  H20T19046   0.859   1.773   4.270  0.8566 -0.3343  0.2170
  169SAPE   C3319047  -0.209   1.097   3.247  0.1736 -0.1538  0.4459
  169SAPE   H3X19048  -0.234   1.042   3.154  2.5839 -1.1795  0.3311
  169SAPE   H3Y19049  -0.298   1.136   3.301 -1.7949  0.4511 -2.9351
  169SAPE   C3419050  -0.135   0.989   3.332 -0.2049 -0.0617 -0.7838
  169SAPE   H4X19051  -0.130   1.028   3.436  0.0228  4.0680 -2.1622
  169SAPE   H4Y19052  -0.041   0.943   3.295 -0.3721 -0.7488 -0.3681
  169SAPE   C3519053  -0.229   0.865   3.345  0.4938  0.5132 -0.2489
  169SAPE   H5X19054  -0.238   0.817   3.245  0.5178 -0.7718  0.3458
  169SAPE   H5Y19055  -0.335   0.883   3.373  1.1414 -0.2539  3.0829
  169SAPE   C3619056  -0.180   0.772   3.455  0.2805  0.2233 -0.1647
  169SAPE   H6X19057  -0.187   0.836   3.546 -0.1407  2.3057 -1.6082
  169SAPE   H6Y19058  -0.077   0.738   3.433 -0.4183 -1.6153 -0.8307
  169SAPE   C3719059  -0.268   0.650   3.475 -0.2583  0.6538 -0.2279
  169SAPE   H7X19060  -0.273   0.582   3.388 -0.6111 -1.5683  1.4413
  169SAPE   H7Y19061  -0.369   0.696   3.486  0.0907  1.4107 -0.0805
  169SAPE   C3819062  -0.226   0.548   3.586  0.0477 -0.3485  0.0302
  169SAPE   H8X19063  -0.128   0.573   3.632  0.1860 -1.0597  0.1219
  169SAPE   H8Y19064  -0.201   0.455   3.532 -0.0237  0.5404 -1.6009
  169SAPE   C3919065  -0.326   0.530   3.698 -0.3804 -0.1794  0.4866
  169SAPE   H9X19066  -0.416   0.474   3.666  0.5333 -1.1745 -0.4459
  169SAPE   H9Y19067  -0.364   0.630   3.727  0.3488 -0.0954  1.1782
  169SAPE  C31019068  -0.261   0.466   3.819  0.3707  0.2353  0.7294
  169SAPE  H10X19069  -0.160   0.510   3.829 -0.5941  2.7186  0.2149
  169SAPE  H10Y19070  -0.250   0.358   3.795 -0.1837  0.1567  0.8128
  169SAPE  C31119071  -0.355   0.476   3.932 -0.5942 -0.2805 -0.3517
  169SAPE  H11X19072  -0.330   0.385   3.992 -0.4699  0.3484  0.5620
  169SAPE  H11Y19073  -0.460   0.455   3.904 -0.2742 -2.2876 -0.2597
  169SAPE  C31219074  -0.342   0.606   4.008  0.2125 -0.2309 -0.0881
  169SAPE  H12X19075  -0.352   0.687   3.932 -0.9290 -0.1692  0.1150
  169SAPE  H12Y19076  -0.247   0.589   4.063 -0.8866 -1.7244  1.4516
  169SAPE  C31319077  -0.440   0.624   4.128  0.1075  0.1582 -0.7211
  169SAPE  H13X19078  -0.418   0.542   4.199 -1.1874  1.6620  1.5581
  169SAPE  H13Y19079  -0.543   0.616   4.088 -0.5830 -1.2378  1.1887
  169SAPE  C31419080  -0.423   0.751   4.211  0.3794  0.7385  0.3850
  169SAPE  H14X19081  -0.470   0.838   4.159 -2.0002  0.3362  1.6960
  169SAPE  H14Y19082  -0.316   0.774   4.227  0.1307  0.7570  2.2090
  169SAPE  C31519083  -0.488   0.737   4.345 -0.0936  0.4006 -0.1026
  169SAPE  H15X19084  -0.417   0.721   4.429  0.2616  0.6099 -0.3600
  169SAPE  H15Y19085  -0.551   0.646   4.346 -2.2626  1.8176  0.4247
  169SAPE  C31619086  -0.572   0.859   4.388 -0.1190 -0.3236 -0.5379
  169SAPE  H16X19087  -0.662   0.872   4.324 -0.7762  2.0823  0.7233
  169SAPE  H16Y19088  -0.523   0.959   4.382 -1.4846  0.3852 -0.4535
  169SAPE  C31719089  -0.628   0.846   4.533 -0.0477 -0.2272 -0.0414
  169SAPE  H17X19090  -0.552   0.805   4.603  0.1590  1.4164  0.7422
  169SAPE  H17Y19091  -0.715   0.777   4.524  0.3707 -0.9174  1.0229
  169SAPE  C31819092  -0.665   0.986   4.597  0.2783  0.3660  0.5287
  169SAPE  H18X19093  -0.577   1.053   4.586 -0.1208  0.8065 -0.0749
  169SAPE  H18Y19094  -0.697   0.974   4.702 -0.5620  1.0378  0.3587
  169SAPE  H18Z19095  -0.746   1.026   4.533  2.1373  1.8507 -1.0357
  170SAPE     N19096   1.084   1.721   2.538 -0.3386  0.4754  0.2072
  170SAPE   HN119097   1.025   1.729   2.453 -0.3328  0.4694  0.2028
  170SAPE   HN219098   1.120   1.624   2.548  1.2050  1.0710  0.7351
  170SAPE   HN319099   1.025   1.754   2.617 -2.5999  2.4073 -2.1206
  170SAPE   C1219100   1.194   1.814   2.513 -0.4702 -0.1013 -0.0189
  170SAPE  H12A19101   1.261   1.760   2.443 -0.1230  0.1724  0.1023
  170SAPE  H12B19102   1.251   1.844   2.603  0.6409  0.5225 -0.8980
  170SAPE   C1119103   1.148   1.946   2.436  0.8398  0.5768  0.0878
  170SAPE  H11A19104   1.081   1.907   2.357  1.0905 -0.6503  0.4560
  170SAPE  H11B19105   1.244   1.981   2.393  0.7524 -1.6545 -2.1349
  170SAPE     P19106   1.044   2.184   2.464 -0.2753 -0.0223 -0.0247
  170SAPE   O1319107   1.155   2.242   2.387 -0.5805  0.3335 -0.1475
  170SAPE   O1419108   0.911   2.171   2.389  0.1488 -0.0092 -0.2617
  170SAPE   O1219109   1.081   2.042   2.520  0.7334  0.4296  0.0625
  170SAPE   O1119110   1.022   2.266   2.594 -0.2659 -0.0507 -0.3119
  170SAPE    C119111   1.127   2.293   2.683  0.2068 -0.1785 -0.0415
  170SAPE    HA19112   1.228   2.295   2.636 -0.0985 -2.0760 -0.8862
  170SAPE    HB19113   1.113   2.388   2.739  3.4918  0.5254 -0.2207
  170SAPE    C219114   1.140   2.185   2.796  0.0762 -0.1579  0.1590
  170SAPE    HS19115   1.099   2.094   2.747 -3.2131  1.2067  0.1149
  170SAPE   O2119116   1.062   2.229   2.903 -0.3911  0.2853  0.5039
  170SAPE   C2119117   0.983   2.132   2.960 -0.0268  0.2715  0.6690
  170SAPE   O2219118   0.975   2.020   2.917  0.4289  0.4763 -0.3373
  170SAPE   C2219119   0.907   2.196   3.074  0.4524  0.2424  0.9472
  170SAPE   H2R19120   0.988   2.220   3.146 -0.4552  1.3845  1.6358
  170SAPE   H2S19121   0.857   2.289   3.038 -1.0337 -0.9937 -0.3839
  170SAPE    C319122   1.284   2.163   2.837 -0.1338 -0.1914  0.1990
  170SAPE    HX19123   1.346   2.114   2.758  1.2677  0.1022  1.0742
  170SAPE    HY19124   1.276   2.077   2.907 -2.6281 -0.3205 -0.1763
  170SAPE   O3119125   1.345   2.291   2.876 -0.2892  0.4841  0.3575
  170SAPE   C3119126   1.344   2.304   3.005  0.1744 -0.3466 -0.2317
  170SAPE   O3219127   1.329   2.215   3.088  0.4490 -0.1138 -0.3677
  170SAPE   C3219128   1.333   2.456   3.037 -0.0779 -0.1853  0.1604
  170SAPE   H2X19129   1.227   2.489   3.026  0.8926  2.6335 -1.8618
  170SAPE   H2Y19130   1.389   2.506   2.955  0.4350 -0.0610  0.5869
  170SAPE   C2319131   0.812   2.092   3.143 -0.3701  0.4889 -0.1579
  170SAPE   H3R19132   0.756   2.036   3.065 -0.3108 -0.6842  0.6093
  170SAPE   H3S19133   0.734   2.146   3.200 -1.0211 -3.2018  2.8473
  170SAPE   C2419134   0.896   2.009   3.247  0.1941 -0.1232  0.0734
  170SAPE   H4R19135   0.956   2.079   3.308  0.2096  0.4200 -0.5483
  170SAPE   H4S19136   0.956   1.928   3.202  2.6358  0.8349  1.4326
  170SAPE   C2519137   0.804   1.932   3.340 -0.3166 -0.4797 -0.7653
  170SAPE   H5R19138   0.704   1.912   3.298  0.2441  0.4042 -2.6318
  170SAPE   C2619139   0.829   1.883   3.467 -0.3506  0.2559  0.0672
  170SAPE   H6R19140   0.762   1.804   3.506  0.5788 -0.2345  0.7198
  170SAPE   C2719141   0.963   1.898   3.545  0.4638 -0.0744 -0.1641
  170SAPE   H7R19142   1.052   1.872   3.486  0.4672 -0.8745  0.1870
  170SAPE   H7S19143   0.977   1.818   3.621  0.0805  1.2834  1.4101
  170SAPE   C2819144   1.001   2.025   3.618 -0.0789 -0.7560 -0.1694
  170SAPE   H8R19145   0.923   2.083   3.668  0.8338  2.2977 -2.0146
  170SAPE   C2919146   1.127   2.068   3.625  0.4848  0.1850  0.4746
  170SAPE   H9R19147   1.135   2.161   3.682 -0.9128  0.0325  0.9689
  170SAPE  C21019148   1.255   2.009   3.571  0.4108 -0.4328 -0.4597
  170SAPE  H10R19149   1.239   1.902   3.543  0.7983 -0.7449  0.4492
  170SAPE  H10S19150   1.331   2.009   3.652 -1.0700 -0.5706  0.9881
  170SAPE  C21119151   1.301   2.085   3.447  0.2839  0.5833 -0.0447
  170SAPE  H11R19152   1.265   2.047   3.350  0.9079  0.0137 -0.0631
  170SAPE  C21219153   1.380   2.183   3.442  0.1222  0.1415  0.3722
  170SAPE  H12R19154   1.404   2.225   3.343  2.3751  1.3024  1.3265
  170SAPE  C21319155   1.457   2.230   3.558 -1.1032 -0.1581  0.2378
  170SAPE  H13R19156   1.563   2.204   3.541 -1.4758 -2.1695  0.6441
  170SAPE  H13S19157   1.434   2.193   3.661 -0.4247  2.9636  1.6241
  170SAPE  C21419158   1.443   2.381   3.580  0.2371 -0.3771  0.8770
  170SAPE  H14R19159   1.423   2.437   3.487 -0.2250 -1.1574  0.4909
  170SAPE  C21519160   1.448   2.453   3.696  0.6223 -0.1763  0.0081
  170SAPE  H15R19161   1.434   2.562   3.698 -0.1741 -0.2828  0.9078
  170SAPE  C21619162   1.484   2.402   3.836  0.7357 -0.7040  0.0141
  170SAPE  H16R19163   1.595   2.395   3.837  0.7951  0.0020 -0.7029
  170SAPE  H16S19164   1.437   2.302   3.849  0.4876 -0.3986  1.7433
  170SAPE  C21719165   1.436   2.487   3.961  0.0312 -0.3863  0.4899
  170SAPE  H17R19166   1.330   2.462   3.983  0.6984 -2.7655  1.3248
  170SAPE  H17S19167   1.456   2.593   3.938  1.1078 -0.5117  0.8084
  170SAPE  C21819168   1.517   2.462   4.084 -0.2858  0.5483 -0.1207
  170SAPE  H18R19169   1.618   2.505   4.069  0.0244  0.2212  0.9710
  170SAPE  H18S19170   1.533   2.355   4.106  0.9310  0.4006 -1.5765
  170SAPE  C21919171   1.462   2.533   4.208  0.4775 -0.6225  0.6875
  170SAPE  H19R19172   1.378   2.475   4.252 -3.1181  1.8046 -2.2849
  170SAPE  H19S19173   1.423   2.634   4.182  1.6630 -0.3941 -0.3204
  170SAPE  C22019174   1.569   2.554   4.321  0.2166 -0.3648  0.0303
  170SAPE  H20R19175   1.545   2.634   4.394  0.5088  0.1477 -0.4305
  170SAPE  H20S19176   1.671   2.581   4.287  1.1770 -1.2754  2.0638
  170SAPE  H20T19177   1.578   2.457   4.374 -2.0315 -0.4759  0.3044
  170SAPE   C3319178   1.391   2.491   3.173 -1.1591  0.6257 -0.9971
  170SAPE   H3X19179   1.484   2.435   3.197 -1.8331  0.6388  2.0544
  170SAPE   H3Y19180   1.316   2.448   3.243  0.1786 -0.1073  0.0383
  170SAPE   C3419181   1.413   2.644   3.192 -0.1789  0.6280 -0.3782
  170SAPE   H4X19182   1.311   2.686   3.178 -1.1549 -0.2925  2.9829
  170SAPE   H4Y19183   1.482   2.691   3.119  1.8516  0.6158  1.4184
  170SAPE   C3519184   1.462   2.680   3.336  0.1379 -0.0383 -0.2231
  170SAPE   H5X19185   1.386   2.637   3.404  0.0022 -0.1428 -0.4403
  170SAPE   H5Y19186   1.441   2.788   3.345 -1.6732 -0.3666 -0.1949
  170SAPE   C3619187   1.608   2.651   3.370 -0.8562  0.0989  0.2461
  170SAPE   H6X19188   1.664   2.692   3.283 -0.6029  1.4373  1.0297
  170SAPE   H6Y19189   1.619   2.540   3.375 -2.7167 -0.1062  0.4752
  170SAPE   C3719190   1.659   2.719   3.500  0.2726 -0.0837 -0.1838
  170SAPE   H7X19191   1.588   2.688   3.579  0.3229 -0.5156 -0.3069
  170SAPE   H7Y19192   1.639   2.827   3.478 -0.5040 -0.3381 -0.7918
  170SAPE   C3819193   1.798   2.691   3.552  0.3385  0.1685  0.0941
  170SAPE   H8X19194   1.865   2.732   3.473  1.1026 -0.6104  0.3217
  170SAPE   H8Y19195   1.800   2.581   3.564 -2.4620 -0.0187 -0.3676
  170SAPE   C3919196   1.829   2.749   3.691  0.0644  0.2208  0.1007
  170SAPE   H9X19197   1.804   2.857   3.697  1.6464  0.5784  0.6422
  170SAPE   H9Y19198   1.939   2.763   3.703 -0.1062  0.9593  0.8017
  170SAPE  C31019199   1.810   2.662   3.812 -0.5296 -0.7400  0.5319
  170SAPE  H10X19200   1.727   2.590   3.793  0.2019 -1.3963 -0.2525
  170SAPE  H10Y19201   1.773   2.717   3.901 -0.6337 -1.9503  1.2670
  170SAPE  C31119202   1.929   2.578   3.850 -0.5123 -0.3185  0.0413
  170SAPE  H11X19203   2.015   2.648   3.862 -0.7628 -0.1431  0.8947
  170SAPE  H11Y19204   1.953   2.508   3.767  0.3260 -1.3477  1.1157
  170SAPE  C31219205   1.922   2.475   3.962 -0.4489  0.4810  0.9015
  170SAPE  H12X19206   2.006   2.404   3.949 -0.7093  0.4306 -0.7472
  170SAPE  H12Y19207   1.831   2.415   3.940  0.5414 -0.9441  0.5552
  170SAPE  C31319208   1.926   2.541   4.097 -0.2954  0.2547 -0.0684
  170SAPE  H13X19209   1.853   2.622   4.118  0.2317  0.3117  1.6678
  170SAPE  H13Y19210   2.020   2.591   4.128  0.5176 -0.4809 -1.2623
  170SAPE  C31419211   1.913   2.445   4.215 -0.0512  0.0111 -0.4163
  170SAPE  H14X19212   1.979   2.356   4.215 -2.1658 -1.6458 -0.0275
  170SAPE  H14Y19213   1.808   2.408   4.224  1.3232 -4.7668 -1.1854
  170SAPE  C31519214   1.948   2.528   4.338  0.6461  0.7502 -0.2128
  170SAPE  H15X19215   1.900   2.628   4.331 -3.0223 -0.8417 -0.0310
  170SAPE  H15Y19216   2.059   2.532   4.344  0.8163 -2.8623  1.8143
  170SAPE  C31619217   1.906   2.462   4.473  0.4062  0.0583 -0.6521
  170SAPE  H16X19218   1.797   2.445   4.474  0.4786 -0.7873  2.3260
  170SAPE  H16Y19219   1.920   2.544   4.547 -0.3908 -0.1642 -0.2463
  170SAPE  C31719220   1.979   2.328   4.501  0.0731  0.0070  0.2295
  170SAPE  H17X19221   1.975   2.262   4.412  1.2675  0.6370 -0.3143
  170SAPE  H17Y19222   1.917   2.276   4.578  3.0592 -0.5710  2.4047
  170SAPE  C31819223   2.113   2.343   4.566 -0.0284 -0.3427 -0.0513
  170SAPE  H18X19224   2.124   2.267   4.646  1.1218  0.5559  0.6832
  170SAPE  H18Y19225   2.122   2.438   4.623  0.0681 -1.2289  1.4881
  170SAPE  H18Z19226   2.191   2.336   4.488  0.2739  1.3734  0.0592
  171SAPE     N19227   2.960   1.235   2.430  0.4878  0.0338 -0.2527
  171SAPE   HN119228   2.957   1.137   2.466 -0.0318  0.2559  0.3364
  171SAPE   HN219229   2.885   1.249   2.360 -1.0491 -1.5173  0.9761
  171SAPE   HN319230   3.052   1.265   2.393  1.0867  0.5938  1.5848
  171SAPE   C1219231   2.946   1.312   2.566  0.0210 -0.8470  0.4611
  171SAPE  H12A19232   2.938   1.419   2.535  1.0465 -1.0688 -0.6337
  171SAPE  H12B19233   3.034   1.301   2.632  0.3478 -1.1267 -0.0148
  171SAPE   C1119234   2.816   1.255   2.639  0.0206 -0.2254  0.3394
  171SAPE  H11A19235   2.808   1.316   2.732  1.1603 -0.7456  0.7964
  171SAPE  H11B19236   2.829   1.146   2.656 -1.9644 -0.7466 -1.0564
  171SAPE     P19237   2.613   1.390   2.528  0.3916  0.4073 -0.0844
  171SAPE   O1319238   2.699   1.500   2.477  0.7183 -0.1368  0.2189
  171SAPE   O1419239   2.498   1.347   2.440 -0.0877 -0.5245 -0.6230
  171SAPE   O1219240   2.705   1.259   2.547  0.0308 -0.3448 -0.2067
  171SAPE   O1119241   2.567   1.422   2.675 -0.2240 -0.2496 -0.2595
  171SAPE    C119242   2.521   1.557   2.715  0.0427 -0.1373 -0.2329
  171SAPE    HA19243   2.463   1.608   2.635  1.0314  0.3068 -0.6939
  171SAPE    HB19244   2.454   1.557   2.803 -1.1492 -0.8618 -1.1020
  171SAPE    C219245   2.635   1.653   2.741 -0.9641  0.0707  0.0713
  171SAPE    HS19246   2.722   1.639   2.673 -1.0706 -1.4852  0.2184
  171SAPE   O2119247   2.674   1.631   2.879 -0.2148  0.0730  0.5367
  171SAPE   C2119248   2.810   1.641   2.907  0.0013  1.1187 -0.3097
  171SAPE   O2219249   2.899   1.665   2.826  0.1013 -0.3174  0.6737
  171SAPE   C2219250   2.830   1.610   3.062 -0.6001  0.1497 -0.1502
  171SAPE   H2R19251   2.820   1.500   3.076 -0.6873  0.0356 -1.0423
  171SAPE   H2S19252   2.930   1.645   3.095 -1.2009  1.0001  0.8136
  171SAPE    C319253   2.589   1.801   2.744  0.0489  0.7564  0.1471
  171SAPE    HX19254   2.501   1.808   2.812  1.0570 -0.3382  1.6247
  171SAPE    HY19255   2.555   1.838   2.645  1.8684 -0.2468 -0.9103
  171SAPE   O3119256   2.683   1.889   2.810  0.6209 -0.3674 -0.4125
  171SAPE   C3119257   2.774   1.954   2.739  0.2637 -0.0776 -0.3836
  171SAPE   O3219258   2.771   1.970   2.620  0.5697 -0.0724  0.4432
  171SAPE   C3219259   2.882   2.010   2.832 -0.7514 -0.2980  0.2752
  171SAPE   H2X19260   2.928   2.098   2.782 -1.1242 -0.9781 -1.3237
  171SAPE   H2Y19261   2.964   1.935   2.834 -0.5057 -0.0930 -1.3039
  171SAPE   C2319262   2.722   1.685   3.140  0.1275  0.4286  0.5046
  171SAPE   H3R19263   2.630   1.623   3.130  2.5234 -3.5479  0.7632
  171SAPE   H3S19264   2.691   1.782   3.096  0.4337  0.5224  0.4883
  171SAPE   C2419265   2.754   1.715   3.292 -0.0917  0.1243 -0.4909
  171SAPE   H4R19266   2.738   1.619   3.346  0.9996  0.8509  1.2138
  171SAPE   H4S19267   2.671   1.781   3.325 -1.9780 -3.4059  2.8126
  171SAPE   C2519268   2.884   1.774   3.336 -0.0102 -0.2506 -0.5097
  171SAPE   H5R19269   2.949   1.802   3.252 -0.6386  2.0263 -0.3054
  171SAPE   C2619270   2.925   1.785   3.466  0.0913 -0.1703  0.0753
  171SAPE   H6R19271   3.010   1.851   3.489  0.5327  0.0274 -1.9900
  171SAPE   C2719272   2.852   1.740   3.587 -0.1140  0.2547 -0.0930
  171SAPE   H7R19273   2.905   1.652   3.629  0.2059  0.4149 -0.1596
  171SAPE   H7S19274   2.754   1.692   3.568  0.1829 -0.4104  0.0126
  171SAPE   C2819275   2.854   1.844   3.695 -0.3838 -0.1311  0.3118
  171SAPE   H8R19276   2.871   1.944   3.653  0.9128  0.0839  1.2948
  171SAPE   C2919277   2.854   1.833   3.828  0.0515 -0.2966 -0.4438
  171SAPE   H9R19278   2.853   1.929   3.883  0.6503 -1.0658  0.9463
  171SAPE  C21019279   2.851   1.714   3.922  0.3117 -0.9907  0.5405
  171SAPE  H10R19280   2.935   1.725   3.993  1.2161  0.5505 -0.6843
  171SAPE  H10S19281   2.870   1.623   3.862 -0.0774  0.7261 -2.4164
  171SAPE  C21119282   2.716   1.712   3.982 -0.2529 -0.9516 -0.1503
  171SAPE  H11R19283   2.630   1.696   3.915  0.4711 -1.7184 -0.9288
  171SAPE  C21219284   2.688   1.705   4.118 -0.5499  0.6187  0.0343
  171SAPE  H12R19285   2.582   1.716   4.144 -0.2093  2.5593  0.7327
  171SAPE  C21319286   2.786   1.693   4.237  0.0594  0.2387  0.6805
  171SAPE  H13R19287   2.725   1.684   4.330 -0.3883  0.2587  0.3898
  171SAPE  H13S19288   2.847   1.785   4.250  1.4157 -0.3975 -0.7980
  171SAPE  C21419289   2.863   1.561   4.219  0.4205  0.1236  0.0175
  171SAPE  H14R19290   2.832   1.504   4.129 -0.2120 -0.3539  0.5263
  171SAPE  C21519291   2.954   1.521   4.309 -0.2035 -0.6408 -0.1419
  171SAPE  H15R19292   3.012   1.431   4.283 -0.5430 -0.9794  0.2630
  171SAPE  C21619293   3.001   1.604   4.425  0.1744 -0.2013 -0.0831
  171SAPE  H16R19294   2.979   1.554   4.521 -0.8899 -0.9275 -0.6867
  171SAPE  H16S19295   2.940   1.697   4.430  0.2603 -0.0843 -0.9505
  171SAPE  C21719296   3.144   1.652   4.425 -0.0389 -0.8612  0.0743
  171SAPE  H17R19297   3.218   1.571   4.408  0.2942 -0.6658  0.5466
  171SAPE  H17S19298   3.175   1.707   4.516  0.9134  2.0618 -1.8570
  171SAPE  C21819299   3.173   1.761   4.308  0.4984  0.5172 -0.4417
  171SAPE  H18R19300   3.125   1.857   4.337 -2.7743 -1.0371 -0.3076
  171SAPE  H18S19301   3.125   1.732   4.213 -0.5900  0.6630  0.0477
  171SAPE  C21919302   3.325   1.783   4.287  0.4265  0.0074  0.4212
  171SAPE  H19R19303   3.369   1.824   4.381  0.7645 -0.3761  0.4318
  171SAPE  H19S19304   3.332   1.856   4.204  0.5226  0.0193  0.4393
  171SAPE  C22019305   3.404   1.662   4.251  0.9779 -0.4205  0.0764
  171SAPE  H20R19306   3.504   1.700   4.221  0.7211  0.6096  0.4526
  171SAPE  H20S19307   3.339   1.608   4.179 -0.0812  1.2659 -0.2868
  171SAPE  H20T19308   3.419   1.601   4.342  0.0794 -0.2889  0.3292
  171SAPE   C3319309   2.842   2.053   2.979  0.0770 -0.4646  0.0214
  171SAPE   H3X19310   2.798   1.967   3.033 -0.7153  1.1251  2.0205
  171SAPE   H3Y19311   2.767   2.134   2.968 -0.6926 -1.3463 -1.7520
  171SAPE   C3419312   2.960   2.097   3.067 -0.4339  0.8889 -0.4021
  171SAPE   H4X19313   3.016   2.180   3.018 -1.0653  0.5897 -1.6934
  171SAPE   H4Y19314   3.029   2.010   3.074 -2.3232 -0.5945  0.9549
  171SAPE   C3519315   2.915   2.136   3.203  0.2175  0.0112  0.4592
  171SAPE   H5X19316   2.866   2.048   3.251 -1.2420 -0.4525 -1.7482
  171SAPE   H5Y19317   2.850   2.226   3.197 -1.6273 -1.2016  1.2382
  171SAPE   C3619318   3.033   2.163   3.297  0.2721  0.5052 -0.5978
  171SAPE   H6X19319   3.094   2.249   3.260  0.8710 -0.2163 -1.3286
  171SAPE   H6Y19320   3.109   2.083   3.286 -1.2210 -1.0967  0.3765
  171SAPE   C3719321   2.985   2.178   3.444  0.7689 -0.2921  0.3318
  171SAPE   H7X19322   2.959   2.077   3.482  1.0908 -0.2695  0.6174
  171SAPE   H7Y19323   2.899   2.247   3.439  0.1297 -1.1690 -1.8146
  171SAPE   C3819324   3.090   2.231   3.543  0.5457 -0.2162 -0.0244
  171SAPE   H8X19325   3.122   2.333   3.512 -0.8206 -0.0070 -0.8036
  171SAPE   H8Y19326   3.179   2.165   3.537  0.5135 -0.1723 -1.1598
  171SAPE   C3919327   3.041   2.229   3.689 -0.4559  0.5163 -0.6242
  171SAPE   H9X19328   3.000   2.129   3.711  1.8309 -0.8799 -2.2391
  171SAPE   H9Y19329   2.954   2.298   3.688 -0.5259  0.4328 -1.4381
  171SAPE  C31019330   3.150   2.272   3.784 -0.6725 -0.3524  0.0297
  171SAPE  H10X19331   3.204   2.361   3.745 -1.7786  0.4056  0.1786
  171SAPE  H10Y19332   3.224   2.191   3.798 -2.3953 -2.0225 -0.0179
  171SAPE  C31119333   3.097   2.306   3.930  0.3674 -0.0565 -0.5947
  171SAPE  H11X19334   3.005   2.368   3.927 -0.1622 -0.4998  2.6681
  171SAPE  H11Y19335   3.171   2.364   3.989  0.4010  1.5884 -2.1801
  171SAPE  C31219336   3.067   2.170   4.000 -0.5415  0.1496  0.2328
  171SAPE  H12X19337   3.155   2.103   3.990 -1.8652 -1.4702 -1.3878
  171SAPE  H12Y19338   2.985   2.114   3.949 -0.2482 -0.1206  0.0617
  171SAPE  C31319339   3.038   2.181   4.150 -0.0392 -0.2872  0.1309
  171SAPE  H13X19340   3.097   2.253   4.211  0.4398 -1.8981  1.6639
  171SAPE  H13Y19341   3.047   2.087   4.210  0.5299  0.2173  0.8545
  171SAPE  C31419342   2.894   2.239   4.173 -0.0897  0.0892 -0.0321
  171SAPE  H14X19343   2.823   2.173   4.118  0.9828  0.0831 -1.4530
  171SAPE  H14Y19344   2.887   2.344   4.138  0.5517  0.6394  1.4311
  171SAPE  C31519345   2.849   2.242   4.325 -0.1691  0.7648 -0.0101
  171SAPE  H15X19346   2.912   2.308   4.389 -2.2487  2.4908  0.4030
  171SAPE  H15Y19347   2.847   2.137   4.361  0.5445  0.3900 -1.0034
  171SAPE  C31619348   2.703   2.279   4.353 -0.1239 -0.2194  0.1239
  171SAPE  H16X19349   2.638   2.205   4.304  0.1504 -0.3489 -0.0466
  171SAPE  H16Y19350   2.670   2.375   4.308 -1.8740 -1.3419 -1.0844
  171SAPE  C31719351   2.658   2.299   4.498 -0.5168  0.2201  0.0631
  171SAPE  H17X19352   2.716   2.388   4.532  0.6998  0.0571 -1.4531
  171SAPE  H17Y19353   2.694   2.211   4.555  1.8155  0.3447 -1.1097
  171SAPE  C31819354   2.508   2.328   4.511 -0.1595 -0.0125 -0.1039
  171SAPE  H18X19355   2.462   2.232   4.478  2.8570 -1.5710 -0.1362
  171SAPE  H18Y19356   2.467   2.409   4.448 -1.3409 -1.7734 -1.7131
  171SAPE  H18Z19357   2.490   2.349   4.618  0.0321 -1.3056  0.2057
  172SAPE     N19358   1.373   5.127   2.384  0.2285 -0.2739  0.2655
  172SAPE   HN119359   1.474   5.111   2.364  0.8218  1.3934  1.6851
  172SAPE   HN219360   1.314   5.078   2.313 -0.0434  0.8310 -0.3002
  172SAPE   HN319361   1.354   5.226   2.357  1.4808 -0.4582 -1.4886
  172SAPE   C1219362   1.331   5.074   2.512  0.5146  0.5762 -0.2446
  172SAPE  H12A19363   1.223   5.096   2.526  0.0925 -1.0533 -0.7873
  172SAPE  H12B19364   1.389   5.121   2.595 -0.7104 -0.9899  1.5764
  172SAPE   C1119365   1.341   4.923   2.505  0.2043 -0.0548  0.1561
  172SAPE  H11A19366   1.294   4.888   2.598  1.9902 -0.7046  0.8661
  172SAPE  H11B19367   1.450   4.901   2.503  0.5047  1.2777 -1.9715
  172SAPE     P19368   1.297   4.715   2.358  0.0382 -0.0659 -0.4195
  172SAPE   O1319369   1.210   4.692   2.237 -0.5900  0.0174  0.6548
  172SAPE   O1419370   1.444   4.706   2.341  0.3772 -0.3330  0.1685
  172SAPE   O1219371   1.265   4.861   2.397  0.2017 -0.5003 -0.0138
  172SAPE   O1119372   1.252   4.637   2.493  0.8047 -0.2361  0.5503
  172SAPE    C119373   1.113   4.603   2.504 -1.0728 -1.0081  0.5266
  172SAPE    HA19374   1.076   4.562   2.408  1.1182 -2.3367  0.1867
  172SAPE    HB19375   1.094   4.506   2.556 -0.4198 -1.8051 -0.6734
  172SAPE    C219376   1.025   4.720   2.553 -0.6552  0.4373 -0.6973
  172SAPE    HS19377   1.069   4.813   2.512  3.1748 -1.0121 -0.2388
  172SAPE   O2119378   1.033   4.720   2.700  0.5670  0.1443  0.0643
  172SAPE   C2119379   1.009   4.846   2.747 -0.0688  0.7718  0.0909
  172SAPE   O2219380   0.988   4.940   2.674 -0.1088  0.1906  0.0599
  172SAPE   C2219381   1.036   4.865   2.892 -0.0327  0.5822 -0.5382
  172SAPE   H2R19382   0.963   4.798   2.942 -0.2896  0.1623 -1.4404
  172SAPE   H2S19383   1.136   4.821   2.913 -1.1062 -2.4289 -1.1642
  172SAPE    C319384   0.883   4.691   2.499 -0.2498  0.1397 -0.0551
  172SAPE    HX19385   0.880   4.676   2.389 -1.3684  0.1507 -0.0399
  172SAPE    HY19386   0.817   4.780   2.509 -2.9770 -1.8096  0.3531
  172SAPE   O3119387   0.826   4.571   2.556  0.4784 -0.6003  0.2501
  172SAPE   C3119388   0.761   4.592   2.671  0.4020 -0.2158  0.2569
  172SAPE   O3219389   0.750   4.698   2.732  0.5619 -0.6710 -0.8153
  172SAPE   C3219390   0.688   4.461   2.699  0.0186 -0.4927 -0.1615
  172SAPE   H2X19391   0.667   4.412   2.601 -0.7267  0.0833 -0.3028
  172SAPE   H2Y19392   0.587   4.474   2.744  1.1993 -0.2050  2.5690
  172SAPE   C2319393   1.023   5.017   2.931  0.1204  0.0090  0.5731
  172SAPE   H3R19394   0.932   5.067   2.893 -1.3525  0.1925  4.0223
  172SAPE   H3S19395   1.115   5.068   2.895  0.9624 -1.6023  0.3600
  172SAPE   C2419396   0.993   5.035   3.075  0.3210 -0.2865 -0.0365
  172SAPE   H4R19397   0.901   4.977   3.093  0.4211 -0.2487  0.5967
  172SAPE   H4S19398   0.977   5.142   3.101  0.3165  0.1665 -1.7609
  172SAPE   C2519399   1.111   4.979   3.141  0.2816 -0.2185 -0.1071
  172SAPE   H5R19400   1.196   5.046   3.122  0.1352 -0.7152 -2.8197
  172SAPE   C2619401   1.121   4.872   3.227 -0.3150  0.2283  0.2557
  172SAPE   H6R19402   1.225   4.850   3.256 -0.9372 -3.2031  0.3495
  172SAPE   C2719403   1.007   4.778   3.255 -0.0225  0.7598  0.1565
  172SAPE   H7R19404   0.998   4.708   3.169 -1.0617 -0.6140  1.3293
  172SAPE   H7S19405   0.915   4.841   3.257 -0.7865 -0.3449  0.6847
  172SAPE   C2819406   1.028   4.696   3.379 -0.2780 -0.1655  0.6776
  172SAPE   H8R19407   1.067   4.596   3.355  3.4837  1.6899 -1.8599
  172SAPE   C2919408   1.030   4.736   3.508  0.2217  0.3884  0.4477
  172SAPE   H9R19409   1.034   4.656   3.584  1.4958 -1.1269 -1.1349
  172SAPE  C21019410   1.000   4.867   3.571  0.7763 -0.1681 -0.5704
  172SAPE  H10R19411   0.955   4.939   3.499 -1.2672  0.3472  1.1271
  172SAPE  H10S19412   1.095   4.916   3.603  0.1342  0.9994 -0.4111
  172SAPE  C21119413   0.907   4.864   3.693 -0.1045 -1.2155  0.2967
  172SAPE  H11R19414   0.807   4.890   3.654  0.0812 -1.4135 -0.3351
  172SAPE  C21219415   0.935   4.821   3.818 -0.2717 -0.3971  0.2593
  172SAPE  H12R19416   0.859   4.838   3.896  0.7192 -1.3587  1.4734
  172SAPE  C21319417   1.071   4.773   3.877  0.6566 -0.0350 -0.6194
  172SAPE  H13R19418   1.137   4.724   3.803  1.3291 -0.6467  0.3645
  172SAPE  H13S19419   1.056   4.694   3.953  1.8838 -1.9876 -2.3229
  172SAPE  C21419420   1.150   4.877   3.954 -0.1004 -1.3080  0.2637
  172SAPE  H14R19421   1.233   4.917   3.894  0.1651 -1.1259  0.7454
  172SAPE  C21519422   1.130   4.926   4.074 -0.0571 -0.3242  0.1877
  172SAPE  H15R19423   1.194   5.002   4.121 -0.8621  0.9768 -0.7624
  172SAPE  C21619424   1.018   4.887   4.166  0.6166  0.0868  0.1864
  172SAPE  H16R19425   1.043   4.876   4.273  0.5183  0.5872  0.2629
  172SAPE  H16S19426   0.977   4.790   4.128 -0.5704  0.1109  1.3469
  172SAPE  C21719427   0.903   4.988   4.153 -0.0467  0.4421 -0.2893
  172SAPE  H17R19428   0.846   4.978   4.058  2.4559  1.4872 -1.9996
  172SAPE  H17S19429   0.932   5.096   4.152 -2.7468  1.2579 -1.4648
  172SAPE  C21819430   0.816   4.986   4.280  0.8027 -0.8563  0.1636
  172SAPE  H18R19431   0.876   5.036   4.359  0.8715  0.6580 -0.8003
  172SAPE  H18S19432   0.795   4.880   4.306 -1.5611 -0.8932 -1.5583
  172SAPE  C21919433   0.684   5.061   4.266  0.2674 -0.1603 -0.6107
  172SAPE  H19R19434   0.621   5.017   4.186  1.2135  0.6145 -1.8224
  172SAPE  H19S19435   0.706   5.165   4.233  1.2807  0.0805  0.7345
  172SAPE  C22019436   0.593   5.058   4.398 -0.1651 -0.2513 -0.2354
  172SAPE  H20R19437   0.597   4.967   4.461 -1.4780  0.2942  0.6972
  172SAPE  H20S19438   0.487   5.063   4.365 -0.0115  1.1033 -0.5735
  172SAPE  H20T19439   0.637   5.140   4.459  3.6392 -1.2185 -1.4298
  172SAPE   C3319440   0.771   4.367   2.790 -0.4321 -0.3365 -0.6119
  172SAPE   H3X19441   0.865   4.332   2.743 -0.0332  0.7470 -0.6482
  172SAPE   H3Y19442   0.704   4.283   2.817 -0.5196 -0.4239 -1.0756
  172SAPE   C3419443   0.819   4.437   2.921 -0.1252  0.1691  0.1302
  172SAPE   H4X19444   0.740   4.514   2.941  1.0841  1.3972  0.3457
  172SAPE   H4Y19445   0.914   4.490   2.899 -0.7584  0.5445 -1.8500
  172SAPE   C3519446   0.844   4.348   3.043 -0.4783  0.5184 -0.0919
  172SAPE   H5X19447   0.934   4.285   3.025 -0.2922  0.0800  2.0759
  172SAPE   H5Y19448   0.749   4.290   3.046  0.3007 -0.7743  1.8351
  172SAPE   C3619449   0.854   4.442   3.167  0.4152  0.3935 -0.2469
  172SAPE   H6X19450   0.766   4.510   3.175 -0.6393 -0.9585  0.1126
  172SAPE   H6Y19451   0.943   4.508   3.172 -1.1818  2.5185  3.1309
  172SAPE   C3719452   0.834   4.355   3.293 -0.1808  1.1551 -0.1834
  172SAPE   H7X19453   0.910   4.275   3.304 -1.1281  0.0495 -1.4270
  172SAPE   H7Y19454   0.740   4.299   3.274  1.2418 -1.2243 -0.5945
  172SAPE   C3819455   0.830   4.434   3.426  0.4059  0.0219  0.3246
  172SAPE   H8X19456   0.792   4.534   3.397 -0.9986 -0.7761 -0.7044
  172SAPE   H8Y19457   0.935   4.428   3.462  1.3419 -1.1506 -2.3143
  172SAPE   C3919458   0.728   4.372   3.522  0.0976  0.6354  0.0121
  172SAPE   H9X19459   0.758   4.269   3.548  1.9998  1.2673  0.4291
  172SAPE   H9Y19460   0.632   4.360   3.466  1.7112 -1.9221 -2.4720
  172SAPE  C31019461   0.716   4.446   3.659  0.6402  0.0550  0.1531
  172SAPE  H10X19462   0.661   4.540   3.637  2.0745  0.3255 -2.9152
  172SAPE  H10Y19463   0.816   4.477   3.696  1.1646 -1.2334 -0.0994
  172SAPE  C31119464   0.653   4.350   3.770 -0.2420 -0.0400 -0.2604
  172SAPE  H11X19465   0.703   4.250   3.767 -0.3370 -0.1158  0.4123
  172SAPE  H11Y19466   0.547   4.340   3.740 -0.0669 -1.1271 -0.5718
  172SAPE  C31219467   0.688   4.407   3.909 -0.2840  1.0700  0.7905
  172SAPE  H12X19468   0.650   4.512   3.907  0.9576  1.5577 -1.8026
  172SAPE  H12Y19469   0.799   4.409   3.903 -0.1461 -0.8371  1.8364
  172SAPE  C31319470   0.641   4.326   4.033 -0.2626 -0.3360 -0.1252
  172SAPE  H13X19471   0.684   4.365   4.127 -1.4473  0.0760  0.2740
  172SAPE  H13Y19472   0.660   4.217   4.026 -1.8018 -0.6246 -0.3407
  172SAPE  C31419473   0.492   4.351   4.059 -0.1751  0.7734  0.3223
  172SAPE  H14X19474   0.427   4.298   3.986  0.5179 -0.7850  0.7856
  172SAPE  H14Y19475   0.480   4.461   4.057  0.8507  0.8823 -0.5321
  172SAPE  C31519476   0.452   4.294   4.202  0.5904  0.3319  0.0041
  172SAPE  H15X19477   0.513   4.350   4.275  0.4873  1.9937 -1.1334
  172SAPE  H15Y19478   0.481   4.187   4.210 -1.9699 -0.3069  2.1583
  172SAPE  C31619479   0.299   4.305   4.234 -0.5487  0.0492 -0.4897
  172SAPE  H16X19480   0.247   4.241   4.159  0.8420 -1.2529 -0.3755
  172SAPE  H16Y19481   0.268   4.410   4.215  0.9848  0.5227 -0.5252
  172SAPE  C31719482   0.269   4.278   4.372  0.1746  0.6364 -0.6992
  172SAPE  H17X19483   0.161   4.287   4.394  0.3894 -0.3862  0.9713
  172SAPE  H17Y19484   0.326   4.347   4.438 -0.7905 -0.3220  1.2203
  172SAPE  C31819485   0.294   4.130   4.411 -0.6695 -0.4065  0.3845
  172SAPE  H18X19486   0.403   4.110   4.407 -0.6524 -0.1429 -2.1333
  172SAPE  H18Y19487   0.242   4.060   4.342 -0.4894  1.0932 -1.3470
  172SAPE  H18Z19488   0.266   4.123   4.518 -0.6980 -1.0742  0.3364
  173SLPC     N19489   6.184   4.769   6.987 -0.2980 -0.1702  0.1715
  173SLPC   C1319490   6.046   4.746   6.955  0.4103 -1.0407 -0.0128
  173SLPC  H13A19491   6.023   4.640   6.959  0.5784 -1.1342 -1.1894
  173SLPC  H13B19492   5.985   4.804   7.022  1.5334 -1.6273  1.5842
  173SLPC  H13C19493   6.026   4.785   6.856  1.1552  0.9386  0.5830
  173SLPC   C1419494   6.212   4.699   7.114  0.6599 -0.0943  0.1219
  173SLPC  H14A19495   6.175   4.765   7.191  1.4027  0.8955 -0.3478
  173SLPC  H14B19496   6.172   4.599   7.119  2.2701 -0.8440 -0.9245
  173SLPC  H14C19497   6.317   4.689   7.137  0.6811  0.9176  0.5176
  173SLPC   C1519498   6.208   4.916   6.999 -0.7180  0.8927 -0.3336
  173SLPC  H15A19499   6.313   4.941   7.009 -0.5615 -0.3953  2.0475
  173SLPC  H15B19500   6.160   4.965   6.916 -2.1504 -0.4339 -0.3313
  173SLPC  H15C19501   6.157   4.957   7.085 -1.3526  0.6236 -0.5778
  173SLPC   C1219502   6.274   4.713   6.872 -0.9084 -0.5705  0.0375
  173SLPC  H12A19503   6.374   4.753   6.884 -0.6442 -0.9640 -0.7426
  173SLPC  H12B19504   6.225   4.746   6.782 -0.2792  2.1371  0.6129
  173SLPC   C1119505   6.300   4.558   6.868 -0.8526 -0.8606  0.3052
  173SLPC  H11A19506   6.327   4.534   6.973  0.4042  1.5921  0.5992
  173SLPC  H11B19507   6.384   4.539   6.798 -2.1242 -0.8442 -1.2942
  173SLPC     P19508   6.120   4.510   6.679 -0.0928  0.1554  0.6130
  173SLPC   O1319509   5.972   4.530   6.687  0.0651 -0.5278  0.0114
  173SLPC   O1419510   6.194   4.615   6.614 -0.0043 -0.0506  0.2224
  173SLPC   O1219511   6.178   4.492   6.830  0.0926 -0.1725  0.3280
  173SLPC   O1119512   6.151   4.374   6.610  0.4430  0.2949  0.0381
  173SLPC    C119513   6.283   4.314   6.629  0.5599  0.1414  0.1370
  173SLPC    HA19514   6.308   4.307   6.737  0.0694 -1.3494  0.1714
  173SLPC    HB19515   6.294   4.211   6.589  4.5705  0.3219  0.3959
  173SLPC    C219516   6.397   4.380   6.544 -0.3985  0.0192 -0.1557
  173SLPC    HS19517   6.412   4.485   6.577 -1.6953  1.0638 -2.5884
  173SLPC   O2119518   6.352   4.377   6.408  0.2290 -0.3253 -0.0719
  173SLPC   C2119519   6.383   4.473   6.326  0.1796 -0.0621  0.0674
  173SLPC   O2219520   6.436   4.576   6.364  0.2889  0.0567  0.1942
  173SLPC   C2219521   6.328   4.445   6.184  0.2653 -0.2134 -0.0161
  173SLPC   H2R19522   6.396   4.370   6.138  1.1191  0.2897  0.3934
  173SLPC   H2S19523   6.226   4.401   6.181 -0.1663  0.7708 -2.1075
  173SLPC    C319524   6.531   4.298   6.552  0.0498 -0.2961  0.2650
  173SLPC    HX19525   6.575   4.297   6.654  1.2877  1.1491 -0.2128
  173SLPC    HY19526   6.607   4.344   6.485  0.8743 -2.6633 -0.5261
  173SLPC   O3119527   6.507   4.158   6.521 -0.2220 -0.0189 -0.3963
  173SLPC   C3119528   6.617   4.083   6.502  0.2119  0.3046  0.2313
  173SLPC   O3219529   6.723   4.133   6.487  0.4218  0.1811 -0.1386
  173SLPC   C3219530   6.584   3.932   6.476 -0.2003  0.1207  0.8669
  173SLPC   H2X19531   6.486   3.902   6.517  1.0489 -0.9936  3.2346
  173SLPC   H2Y19532   6.657   3.879   6.541  0.7493  1.4636  0.9436
  173SLPC   C2319533   6.327   4.572   6.104  0.8185 -0.5855  0.5098
  173SLPC   H3R19534   6.432   4.605   6.094  0.6376  0.2041  1.0712
  173SLPC   H3S19535   6.287   4.660   6.159 -1.1779 -1.4290  0.5005
  173SLPC   C2419536   6.253   4.572   5.967  0.1454  0.1213 -0.1076
  173SLPC   H4R19537   6.254   4.680   5.939 -0.0487  0.1680  0.0615
  173SLPC   H4S19538   6.144   4.550   5.968  0.4906 -1.7743  1.3447
  173SLPC   C2519539   6.330   4.495   5.857  0.2405 -0.0063 -0.0597
  173SLPC   H5R19540   6.326   4.386   5.879  0.2545  0.0268  0.1067
  173SLPC   H5S19541   6.434   4.534   5.854 -0.3921  1.7274 -2.4806
  173SLPC   C2619542   6.265   4.519   5.718  0.1228  0.5468  0.4087
  173SLPC   H6R19543   6.167   4.468   5.716  0.6708 -0.5201 -0.1862
  173SLPC   H6S19544   6.340   4.481   5.645  0.2411  2.4928 -0.5504
  173SLPC   C2719545   6.254   4.670   5.682 -0.0453 -0.1681  0.0737
  173SLPC   H7R19546   6.340   4.733   5.714  1.4563 -1.9901 -0.1713
  173SLPC   H7S19547   6.166   4.706   5.740 -0.1337 -1.2027  0.6067
  173SLPC   C2819548   6.207   4.683   5.533  0.7291 -0.2859  0.2810
  173SLPC   H8R19549   6.180   4.790   5.519  1.7416 -0.0377  0.1454
  173SLPC   H8S19550   6.112   4.627   5.518  0.6007  0.4991 -2.3775
  173SLPC   C2919551   6.301   4.633   5.423 -0.1175 -0.1278 -0.0266
  173SLPC   H9R19552   6.405   4.655   5.449  0.2179 -1.5928 -0.0531
  173SLPC  C21019553   6.278   4.545   5.322  0.4776  0.0176  0.3923
  173SLPC  H10R19554   6.360   4.528   5.251 -0.5488 -0.5297 -0.6811
  173SLPC  C21119555   6.144   4.484   5.277  0.2290  0.1042 -0.6910
  173SLPC  H11R19556   6.113   4.566   5.209 -0.7556 -0.8965 -1.4925
  173SLPC  H11S19557   6.076   4.471   5.363  1.2149  0.9513  0.2550
  173SLPC  C21219558   6.170   4.364   5.194 -0.7027  0.4922  0.1464
  173SLPC  H12R19559   6.197   4.276   5.255  0.8447  1.2642  0.6197
  173SLPC  C21319560   6.145   4.340   5.064 -0.0087  0.2463 -0.4751
  173SLPC  H13R19561   6.179   4.239   5.037  3.1202  0.8085  0.9618
  173SLPC  C21419562   6.103   4.434   4.950 -0.2245  0.4676  0.1280
  173SLPC  H14R19563   6.132   4.537   4.977 -2.2968  1.4310 -1.1026
  173SLPC  H14S19564   5.995   4.428   4.928 -0.0955  0.9131 -0.6721
  173SLPC  C21519565   6.177   4.398   4.817  0.3161 -0.9722 -0.5035
  173SLPC  H15R19566   6.154   4.474   4.739 -0.7705 -0.2428  0.4911
  173SLPC  H15S19567   6.155   4.301   4.768 -0.2721  0.1010 -2.4960
  173SLPC  C21619568   6.326   4.409   4.841 -0.1213 -0.4484 -0.0275
  173SLPC  H16R19569   6.350   4.309   4.882 -2.5638 -1.5146 -1.0209
  173SLPC  H16S19570   6.354   4.490   4.912  1.2833 -1.4401  0.5949
  173SLPC  C21719571   6.402   4.434   4.703 -0.3265 -0.6820  0.2439
  173SLPC  H17R19572   6.507   4.443   4.739 -0.6173 -0.0044  0.9691
  173SLPC  H17S19573   6.373   4.533   4.661 -0.5108 -1.0012 -0.3969
  173SLPC  C21819574   6.398   4.317   4.600 -0.6328 -0.0273 -0.3190
  173SLPC  H18R19575   6.465   4.345   4.516  0.7422 -1.4793  0.2458
  173SLPC  H18S19576   6.298   4.285   4.564 -1.0547  1.2099 -0.2743
  173SLPC  H18T19577   6.459   4.233   4.639  2.1281  2.2072  0.5470
  173SLPC   C3319578   6.592   3.892   6.323  0.2786 -0.1930 -0.1729
  173SLPC   H3X19579   6.514   3.949   6.268  0.3925  0.8855  0.7386
  173SLPC   H3Y19580   6.569   3.785   6.305  1.2626 -0.3101 -0.8386
  173SLPC   C3419581   6.731   3.921   6.259  0.6978  0.7177 -0.2908
  173SLPC   H4X19582   6.800   3.863   6.324 -1.9516 -1.0150  1.2020
  173SLPC   H4Y19583   6.752   4.029   6.267 -3.7379  1.8384 -1.1651
  173SLPC   C3519584   6.730   3.874   6.116  0.1593  0.8953 -0.0492
  173SLPC   H5X19585   6.640   3.906   6.059 -0.9941 -1.8562  0.0469
  173SLPC   H5Y19586   6.714   3.765   6.105 -2.6731  1.2206  0.1618
  173SLPC   C3619587   6.849   3.898   6.028 -0.2894 -0.2055 -0.6887
  173SLPC   H6X19588   6.945   3.879   6.081  0.0249 -0.4130 -1.3328
  173SLPC   H6Y19589   6.842   4.007   6.010 -0.4775  0.1292  1.1872
  173SLPC   C3719590   6.845   3.824   5.902 -0.1016  0.2971 -0.1251
  173SLPC   H7X19591   6.806   3.721   5.919  1.2451 -0.2295 -0.0832
  173SLPC   H7Y19592   6.946   3.823   5.855 -0.7889  1.3456 -1.7027
  173SLPC   C3819593   6.750   3.881   5.790  0.2469  0.6038  0.0807
  173SLPC   H8X19594   6.778   3.986   5.771  1.8670  0.3724  0.9275
  173SLPC   H8Y19595   6.649   3.882   5.837 -0.0474 -1.4460 -0.3836
  173SLPC   C3919596   6.748   3.786   5.674 -0.3631 -0.0973  0.2439
  173SLPC   H9X19597   6.716   3.688   5.715 -2.1205  1.1556  2.1108
  173SLPC   H9Y19598   6.850   3.772   5.635 -0.4049  0.4820 -0.0930
  173SLPC  C31019599   6.665   3.841   5.552 -0.7519  0.0339 -0.5666
  173SLPC  H10X19600   6.725   3.923   5.507 -0.3017  0.0892  0.1252
  173SLPC  H10Y19601   6.561   3.875   5.570 -0.7904 -1.2382  2.1569
  173SLPC  C31119602   6.642   3.747   5.439 -0.6732 -0.5104 -0.5240
  173SLPC  H11X19603   6.574   3.667   5.475 -0.7774 -0.5174 -0.7373
  173SLPC  H11Y19604   6.734   3.692   5.408  0.2279  0.5028  0.2629
  173SLPC  C31219605   6.588   3.819   5.310  0.3562 -0.5036  0.3011
  173SLPC  H12X19606   6.668   3.895   5.291 -1.0227  2.1011  3.7888
  173SLPC  H12Y19607   6.493   3.875   5.319  0.3465 -0.4919  0.1291
  173SLPC  C31319608   6.573   3.721   5.193 -0.4049 -0.2976  0.1458
  173SLPC  H13X19609   6.517   3.630   5.222  0.8020 -1.4954 -1.0932
  173SLPC  H13Y19610   6.674   3.682   5.167 -0.2497  0.1227  0.1124
  173SLPC  C31419611   6.510   3.780   5.064  0.1928 -0.2494  0.9735
  173SLPC  H14X19612   6.532   3.888   5.046  0.3303 -0.3366  0.6047
  173SLPC  H14Y19613   6.402   3.766   5.088  0.3192 -2.8438  0.3257
  173SLPC  C31519614   6.550   3.688   4.938  0.3704 -0.2567 -0.2547
  173SLPC  H15X19615   6.547   3.580   4.963  1.2453 -1.0325 -3.1281
  173SLPC  H15Y19616   6.649   3.717   4.897  0.2949  2.2414  1.1743
  173SLPC  C31619617   6.441   3.691   4.823  0.2618  0.0503  0.2068
  173SLPC  H16X19618   6.441   3.796   4.788 -0.5806 -0.3443 -1.0382
  173SLPC  H16Y19619   6.338   3.673   4.861 -0.3091  0.5363 -1.0562
  173SLPC  C31719620   6.465   3.602   4.704 -0.1804  0.1154 -0.0079
  173SLPC  H17X19621   6.488   3.501   4.743 -0.4294 -0.6220 -1.6978
  173SLPC  H17Y19622   6.557   3.633   4.651 -0.2219  0.6290  0.2079
  173SLPC  C31819623   6.341   3.594   4.615 -0.5511  0.2434  0.4440
  173SLPC  H18X19624   6.260   3.552   4.677  0.5117 -3.3510 -0.3996
  173SLPC  H18Y19625   6.364   3.530   4.527  1.6982 -0.3625  1.4023
  173SLPC  H18Z19626   6.312   3.696   4.579  2.2914  0.6256 -1.1596
  174SLPC     N19627   2.058   5.743   6.487 -0.1759 -0.0659  0.4475
  174SLPC   C1319628   2.109   5.819   6.601 -0.1761  0.2622  0.4049
  174SLPC  H13A19629   2.088   5.925   6.598  0.2779  0.4834  2.8481
  174SLPC  H13B19630   2.067   5.781   6.693 -0.1725  0.2631  0.4067
  174SLPC  H13C19631   2.216   5.811   6.611 -0.0661 -3.5872 -1.9265
  174SLPC   C1419632   2.109   5.793   6.359  0.6445  0.0562 -0.1996
  174SLPC  H14A19633   2.217   5.788   6.363  0.8037  2.3461 -0.2817
  174SLPC  H14B19634   2.071   5.738   6.274  1.6221 -0.0094 -0.6119
  174SLPC  H14C19635   2.082   5.898   6.355 -1.7485 -0.5093 -0.5569
  174SLPC   C1519636   1.912   5.765   6.494  0.3923 -0.4867  0.1159
  174SLPC  H15A19637   1.864   5.705   6.570 -0.1390 -1.2095 -0.7721
  174SLPC  H15B19638   1.882   5.867   6.514 -0.0808 -0.6177  0.0955
  174SLPC  H15C19639   1.859   5.745   6.402  0.3998 -0.7502  0.1690
  174SLPC   C1219640   2.092   5.595   6.495 -0.5164 -0.6359  0.6264
  174SLPC  H12A19641   2.197   5.580   6.475 -0.2056 -1.0967  2.4121
  174SLPC  H12B19642   2.050   5.557   6.403 -1.5247  1.5947  0.0758
  174SLPC   C1119643   2.054   5.514   6.623 -1.1272 -0.3131 -0.2069
  174SLPC  H11A19644   2.094   5.560   6.716 -0.9610  1.3468 -1.0611
  174SLPC  H11B19645   2.097   5.413   6.612 -0.2347  0.1711 -1.3759
  174SLPC     P19646   1.835   5.388   6.582  0.0773  0.3146  0.4293
  174SLPC   O1319647   1.857   5.276   6.675  0.9956 -0.1890 -0.1524
  174SLPC   O1419648   1.693   5.431   6.562 -0.0707  0.0904 -0.2326
  174SLPC   O1219649   1.917   5.509   6.646  0.9749  0.5045  0.5438
  174SLPC   O1119650   1.913   5.368   6.447  0.3094 -0.0055  0.1137
  174SLPC    C119651   1.870   5.310   6.329  0.2222  0.0762  0.6738
  174SLPC    HA19652   1.937   5.225   6.306 -1.5452 -0.8028 -1.6245
  174SLPC    HB19653   1.769   5.264   6.333 -0.0495  0.7002  1.2450
  174SLPC    C219654   1.881   5.412   6.211  0.4219  0.6039 -0.1622
  174SLPC    HS19655   1.855   5.361   6.116  1.0813  0.8614 -0.4865
  174SLPC   O2119656   2.010   5.467   6.208 -0.0670  0.1089  0.0790
  174SLPC   C2119657   2.099   5.408   6.128  0.0370  0.7039  0.2409
  174SLPC   O2219658   2.084   5.300   6.067  0.0603  0.8681 -0.3749
  174SLPC   C2219659   2.224   5.484   6.138  0.1817 -0.4586 -0.1339
  174SLPC   H2R19660   2.229   5.571   6.207  0.8764  1.8919 -2.9318
  174SLPC   H2S19661   2.307   5.421   6.176 -0.3522 -1.0088  0.1260
  174SLPC    C319662   1.776   5.534   6.235 -0.0989  0.4640 -0.2618
  174SLPC    HX19663   1.816   5.603   6.312 -1.6034  0.0612  0.9428
  174SLPC    HY19664   1.690   5.478   6.277 -0.5874  0.2442 -1.4979
  174SLPC   O3119665   1.746   5.593   6.104  0.2980 -0.0440  0.6808
  174SLPC   C3119666   1.752   5.719   6.095 -0.4224 -1.0293 -0.3322
  174SLPC   O3219667   1.799   5.793   6.183 -0.4775  0.0513 -0.0310
  174SLPC   C3219668   1.707   5.780   5.965  0.6343 -0.1107  0.4643
  174SLPC   H2X19669   1.620   5.849   5.974  1.6712  1.5618 -1.5925
  174SLPC   H2Y19670   1.677   5.694   5.901  2.0498  0.1138 -0.5308
  174SLPC   C2319671   2.254   5.532   5.991 -0.6484 -0.0275  0.3154
  174SLPC   H3R19672   2.243   5.446   5.921  2.1921 -1.3306  1.3291
  174SLPC   H3S19673   2.355   5.579   5.983  0.9505 -3.0751  1.2105
  174SLPC   C2419674   2.152   5.634   5.948  0.8207  0.3338 -1.1647
  174SLPC   H4R19675   2.109   5.679   6.040  1.5793  0.4715 -0.8683
  174SLPC   H4S19676   2.079   5.573   5.891 -0.1163  1.0765 -0.7795
  174SLPC   C2519677   2.209   5.760   5.867  0.4087  0.3312  0.3113
  174SLPC   H5R19678   2.293   5.806   5.923  0.9572  0.8084 -0.8710
  174SLPC   H5S19679   2.130   5.837   5.853  2.3953  2.3476 -0.3773
  174SLPC   C2619680   2.256   5.723   5.723 -0.6048 -0.4201  0.4296
  174SLPC   H6R19681   2.179   5.686   5.653 -0.0111  0.1887 -0.5794
  174SLPC   H6S19682   2.333   5.643   5.720 -2.3335 -2.1792  1.6452
  174SLPC   C2719683   2.303   5.842   5.644  0.1273 -0.4216  0.1173
  174SLPC   H7R19684   2.394   5.875   5.698  0.9848  0.5264 -1.8212
  174SLPC   H7S19685   2.221   5.917   5.644 -2.0123 -2.5452 -2.5078
  174SLPC   C2819686   2.340   5.805   5.501  1.0879  0.0049  0.1272
  174SLPC   H8R19687   2.423   5.732   5.494 -0.0574 -1.2319 -1.1534
  174SLPC   H8S19688   2.391   5.893   5.456  1.6061 -0.0112  0.6751
  174SLPC   C2919689   2.213   5.773   5.421  0.6156 -0.1359 -0.2725
  174SLPC   H9R19690   2.112   5.806   5.452 -0.6361 -1.0330 -3.0764
  174SLPC  C21019691   2.213   5.697   5.316 -0.2053 -0.8844  0.0332
  174SLPC  H10R19692   2.122   5.670   5.260 -0.4145 -1.2146  0.5338
  174SLPC  C21119693   2.330   5.625   5.256  0.0779  0.5843  0.1303
  174SLPC  H11R19694   2.408   5.609   5.334 -0.7437 -1.2604  0.6147
  174SLPC  H11S19695   2.382   5.683   5.177  1.1671 -0.2789  0.2018
  174SLPC  C21219696   2.293   5.491   5.196 -0.2347  0.3171  0.3873
  174SLPC  H12R19697   2.339   5.488   5.096  1.2321  0.0439  1.0479
  174SLPC  C21319698   2.228   5.381   5.252 -0.4103 -0.4228  0.5696
  174SLPC  H13R19699   2.220   5.292   5.188 -1.9779 -0.1717  0.3670
  174SLPC  C21419700   2.159   5.383   5.385  0.4207 -0.1333 -0.3198
  174SLPC  H14R19701   2.196   5.457   5.459 -0.9118  0.7059 -0.4639
  174SLPC  H14S19702   2.165   5.292   5.449  1.9269  0.7384  0.8430
  174SLPC  C21519703   2.007   5.408   5.377  0.0969  0.4775 -0.2953
  174SLPC  H15R19704   1.951   5.362   5.292 -0.8496  1.1733 -0.0698
  174SLPC  H15S19705   2.003   5.517   5.359  0.9376  0.7384  0.9715
  174SLPC  C21619706   1.936   5.375   5.509 -0.0748  0.3243  0.5952
  174SLPC  H16R19707   1.975   5.281   5.552  0.3994 -0.3914 -1.2777
  174SLPC  H16S19708   1.830   5.357   5.479  0.5370 -1.9491 -0.4586
  174SLPC  C21719709   1.952   5.478   5.618 -0.1784 -0.2266 -0.3548
  174SLPC  H17R19710   1.921   5.579   5.586  1.0512  1.2639  2.7277
  174SLPC  H17S19711   2.059   5.496   5.640 -0.6724  2.1975  0.3553
  174SLPC  C21819712   1.879   5.443   5.744 -0.1135  0.1127  0.3377
  174SLPC  H18R19713   1.903   5.340   5.779  1.1856 -0.6124 -2.3818
  174SLPC  H18S19714   1.770   5.434   5.726  0.0330  1.7656 -1.6569
  174SLPC  H18T19715   1.900   5.514   5.827 -0.1168  1.5657 -0.8735
  174SLPC   C3319716   1.817   5.870   5.905  0.2871 -0.1981  0.0180
  174SLPC   H3X19717   1.909   5.812   5.883  0.8666  0.3372  0.9646
  174SLPC   H3Y19718   1.853   5.954   5.968  0.5579  0.2745 -0.7444
  174SLPC   C3419719   1.779   5.932   5.767 -0.3851  0.1661 -0.1697
  174SLPC   H4X19720   1.858   6.007   5.742 -1.2358  1.2471  0.2796
  174SLPC   H4Y19721   1.685   5.989   5.780  0.4416  0.9503  3.6520
  174SLPC   C3519722   1.749   5.822   5.661 -0.2878 -0.2087  0.3994
  174SLPC   H5X19723   1.639   5.804   5.660 -0.4287  0.6240 -0.6163
  174SLPC   H5Y19724   1.800   5.727   5.684 -1.0347 -1.0023 -1.0812
  174SLPC   C3619725   1.784   5.874   5.524 -0.4402  0.7066 -0.1157
  174SLPC   H6X19726   1.889   5.911   5.529 -0.5630  1.3071 -1.4943
  174SLPC   H6Y19727   1.737   5.974   5.512  0.4944  1.8355  4.0175
  174SLPC   C3719728   1.755   5.777   5.410  0.3256  0.5964  0.8276
  174SLPC   H7X19729   1.646   5.758   5.401  0.4080  0.5427 -0.1938
  174SLPC   H7Y19730   1.796   5.678   5.437 -0.5098 -1.0370 -3.1887
  174SLPC   C3819731   1.811   5.837   5.276  0.3705  0.6939  0.3351
  174SLPC   H8X19732   1.922   5.846   5.279  0.3603  0.5267  1.5481
  174SLPC   H8Y19733   1.758   5.935   5.271  1.8692  1.5055 -2.8532
  174SLPC   C3919734   1.766   5.768   5.142  0.5860 -0.0917  0.1936
  174SLPC   H9X19735   1.787   5.834   5.055 -0.5475  1.4427  1.0393
  174SLPC   H9Y19736   1.656   5.754   5.135  0.6652 -0.0975 -1.8298
  174SLPC  C31019737   1.838   5.625   5.119 -0.1340  0.6569  0.2178
  174SLPC  H10X19738   1.807   5.554   5.199 -0.4239 -0.8507 -1.1896
  174SLPC  H10Y19739   1.948   5.636   5.110 -0.3249  2.1855 -0.6806
  174SLPC  C31119740   1.803   5.574   4.984  0.3910  0.8615  0.0035
  174SLPC  H11X19741   1.837   5.640   4.902 -2.2303  1.8762 -0.3622
  174SLPC  H11Y19742   1.694   5.573   4.966  0.1105  2.8392  1.2870
  174SLPC  C31219743   1.861   5.436   4.958 -0.7244  0.1357  0.2715
  174SLPC  H12X19744   1.815   5.398   4.864 -1.2894  0.2751  0.4859
  174SLPC  H12Y19745   1.823   5.363   5.032 -2.0854  1.2907  0.7589
  174SLPC  C31319746   2.013   5.422   4.940  0.4818  0.3071  0.1277
  174SLPC  H13X19747   2.066   5.445   5.035  0.9764  1.3991 -0.3951
  174SLPC  H13Y19748   2.048   5.505   4.874 -1.4070  1.1965  0.1590
  174SLPC  C31419749   2.061   5.281   4.885 -0.2398  0.0227 -0.0761
  174SLPC  H14X19750   1.997   5.236   4.806  3.4315 -0.4127 -3.0882
  174SLPC  H14Y19751   2.055   5.211   4.971 -0.4793 -2.4416 -1.9633
  174SLPC  C31519752   2.209   5.303   4.838  0.3220 -0.1140  0.2044
  174SLPC  H15X19753   2.276   5.317   4.925  0.7329 -1.4360  0.1302
  174SLPC  H15Y19754   2.212   5.395   4.776 -1.3802  0.2062  0.5606
  174SLPC  C31619755   2.271   5.180   4.768  0.6094  0.8649 -0.6723
  174SLPC  H16X19756   2.212   5.146   4.680 -0.4047 -2.4069  1.0988
  174SLPC  H16Y19757   2.288   5.093   4.835  1.1911  0.9979 -0.6411
  174SLPC  C31719758   2.420   5.222   4.727  0.1031  0.0511  0.0698
  174SLPC  H17X19759   2.470   5.123   4.713  0.0191 -0.1850  1.3749
  174SLPC  H17Y19760   2.480   5.269   4.807  2.0306  0.1156 -1.3216
  174SLPC  C31819761   2.433   5.318   4.613  0.5662 -0.3382 -0.7751
  174SLPC  H18X19762   2.541   5.345   4.611  0.4869 -0.0426 -1.6103
  174SLPC  H18Y19763   2.356   5.398   4.619 -0.9520 -1.8606  1.5122
  174SLPC  H18Z19764   2.413   5.257   4.523 -1.5585 -0.5167 -0.2184
  175SLPC     N19765   5.274   6.861   6.679 -0.5810  0.3606 -0.2723
  175SLPC   C1319766   5.400   6.846   6.772  0.4183 -0.2345  0.7563
  175SLPC  H13A19767   5.461   6.768   6.728 -0.9003 -0.6314 -0.4623
  175SLPC  H13B19768   5.451   6.940   6.790  0.7278 -0.1188 -0.5741
  175SLPC  H13C19769   5.376   6.804   6.868 -2.3596 -0.1362  0.1786
  175SLPC   C1419770   5.202   6.734   6.699 -0.2396  0.4539 -0.2466
  175SLPC  H14A19771   5.116   6.719   6.635 -2.2684 -0.2872  2.4966
  175SLPC  H14B19772   5.264   6.646   6.691 -1.6146 -0.7227  1.5089
  175SLPC  H14C19773   5.165   6.727   6.800 -4.8732 -0.1999 -1.7660
  175SLPC   C1519774   5.324   6.882   6.540 -0.2429  0.1068  0.6364
  175SLPC  H15A19775   5.260   6.847   6.461  0.1708  1.2957 -0.2553
  175SLPC  H15B19776   5.355   6.986   6.533  1.8269 -0.4166  1.2550
  175SLPC  H15C19777   5.414   6.825   6.527 -0.2259  0.4630 -0.9853
  175SLPC   C1219778   5.181   6.973   6.720 -0.6794 -0.2178 -0.2063
  175SLPC  H12A19779   5.162   6.957   6.825 -1.0901 -2.0272 -0.5378
  175SLPC  H12B19780   5.099   6.960   6.651  0.8146 -0.1234 -2.0678
  175SLPC   C1119781   5.233   7.116   6.694  1.1066 -0.1679  0.6948
  175SLPC  H11A19782   5.338   7.106   6.728  0.9890 -0.9746  0.8392
  175SLPC  H11B19783   5.180   7.187   6.761 -1.2820  0.5645 -1.8059
  175SLPC     P19784   5.123   7.263   6.497  0.0161 -0.2265 -0.0524
  175SLPC   O1319785   5.023   7.286   6.599 -0.8095  0.5296 -0.4123
  175SLPC   O1419786   5.193   7.384   6.448 -0.2618 -0.3598 -0.4316
  175SLPC   O1219787   5.224   7.152   6.554 -1.0432  1.1833 -0.4001
  175SLPC   O1119788   5.047   7.193   6.381 -0.1969 -0.3597  0.1395
  175SLPC    C119789   5.120   7.116   6.287  0.4128 -0.3506  0.4408
  175SLPC    HA19790   5.228   7.138   6.269  0.6839 -1.6302  0.4133
  175SLPC    HB19791   5.139   7.018   6.337  0.5908 -0.9482 -0.7616
  175SLPC    C219792   5.048   7.080   6.143  0.0406  0.1836 -0.8084
  175SLPC    HS19793   5.112   7.012   6.083  1.4112 -0.2409  1.0468
  175SLPC   O2119794   5.013   7.188   6.068  0.5628 -0.1824  0.6995
  175SLPC   C2119795   5.093   7.291   6.073  0.6003  0.2889 -0.0418
  175SLPC   O2219796   5.213   7.284   6.088 -0.2174  0.3258 -0.5691
  175SLPC   C2219797   5.012   7.414   6.053 -0.2520 -1.3153 -1.1257
  175SLPC   H2R19798   4.934   7.392   5.977 -1.3901  2.1423 -1.1467
  175SLPC   H2S19799   4.954   7.443   6.143 -0.1769 -0.6339 -1.2854
  175SLPC    C319800   4.920   7.000   6.168 -0.1349 -0.1150 -0.4435
  175SLPC    HX19801   4.850   7.052   6.236 -0.4246 -1.0065 -0.0412
  175SLPC    HY19802   4.952   6.902   6.209 -1.4734 -0.2840  0.2705
  175SLPC   O3119803   4.841   6.962   6.053 -0.6720 -0.2473 -0.2458
  175SLPC   C3119804   4.744   6.869   6.081 -0.8870  0.1657  0.2725
  175SLPC   O3219805   4.725   6.838   6.195  0.2194 -0.3361 -0.3048
  175SLPC   C3219806   4.689   6.819   5.954 -0.1376  0.2439  0.1690
  175SLPC   H2X19807   4.704   6.709   5.957 -0.2436  0.2432  0.8642
  175SLPC   H2Y19808   4.750   6.867   5.875 -1.2325  1.0888 -0.1981
  175SLPC   C2319809   5.095   7.531   5.996  0.4522 -0.8907 -0.2392
  175SLPC   H3R19810   5.171   7.549   6.075 -0.2678  1.0520  0.0651
  175SLPC   H3S19811   5.027   7.619   5.989  0.3346 -1.0690 -1.6553
  175SLPC   C2419812   5.159   7.502   5.858 -0.6997 -0.1396 -0.3842
  175SLPC   H4R19813   5.216   7.407   5.866  0.8794  0.8840  1.5442
  175SLPC   H4S19814   5.244   7.572   5.842  0.9566 -2.0918 -0.5040
  175SLPC   C2519815   5.055   7.504   5.751 -0.6397 -0.1178 -0.3314
  175SLPC   H5R19816   5.022   7.610   5.747  0.3958  0.2063 -0.5320
  175SLPC   H5S19817   4.971   7.436   5.775 -0.5422  0.2322  1.0863
  175SLPC   C2619818   5.107   7.477   5.613 -0.2013  0.3472 -0.2615
  175SLPC   H6R19819   5.149   7.375   5.603  0.8715  0.7188  0.3365
  175SLPC   H6S19820   5.197   7.537   5.589 -1.9509  3.9576  1.4356
  175SLPC   C2719821   4.989   7.491   5.513  0.5362  0.6723  0.7124
  175SLPC   H7R19822   4.946   7.594   5.508  3.0305  1.7738  0.2653
  175SLPC   H7S19823   4.921   7.411   5.551  0.0368 -0.0536 -1.5423
  175SLPC   C2819824   5.013   7.452   5.370 -0.2533 -0.3668 -0.3012
  175SLPC   H8R19825   5.053   7.350   5.389 -1.6930 -0.7868  0.6615
  175SLPC   H8S19826   5.083   7.525   5.324 -1.6318  0.5892 -0.9318
  175SLPC   C2919827   4.891   7.444   5.284 -0.3898  0.4751  0.1198
  175SLPC   H9R19828   4.798   7.444   5.342  0.6540 -2.2326  1.9774
  175SLPC  C21019829   4.896   7.450   5.152  0.7208  0.7663 -0.0849
  175SLPC  H10R19830   4.792   7.444   5.116 -0.1484 -0.2801  2.3615
  175SLPC  C21119831   5.021   7.449   5.071  0.2670  0.3305 -0.4419
  175SLPC  H11R19832   5.038   7.351   5.020  0.9397  0.9703 -1.4823
  175SLPC  H11S19833   5.111   7.458   5.135 -0.2619  2.3697  0.0561
  175SLPC  C21219834   5.028   7.562   4.970  0.0729  0.0036  0.3750
  175SLPC  H12R19835   5.033   7.666   5.007  2.0747  0.8699 -2.0449
  175SLPC  C21319836   5.026   7.545   4.835  0.0381 -0.3968 -0.4946
  175SLPC  H13R19837   5.052   7.634   4.776  0.6855 -0.8148 -0.8447
  175SLPC  C21419838   5.036   7.415   4.759  0.8461 -0.6670 -0.3844
  175SLPC  H14R19839   5.093   7.338   4.817 -0.2420 -1.6195 -0.5385
  175SLPC  H14S19840   5.096   7.431   4.667  0.3710  1.3407 -0.3810
  175SLPC  C21519841   4.890   7.366   4.716  0.0744  0.6466  0.0194
  175SLPC  H15R19842   4.883   7.405   4.612  2.5265 -0.8546 -0.7838
  175SLPC  H15S19843   4.815   7.397   4.792 -0.4232  1.7870 -0.9130
  175SLPC  C21619844   4.877   7.210   4.708  0.5785 -0.3578  0.4447
  175SLPC  H16R19845   4.876   7.155   4.805 -1.2541 -1.3119 -0.0841
  175SLPC  H16S19846   4.957   7.188   4.634 -0.5998  0.9191 -1.2918
  175SLPC  C21719847   4.745   7.160   4.643  0.8133  0.9834 -0.2915
  175SLPC  H17R19848   4.754   7.180   4.534 -2.0649 -1.1574 -1.0427
  175SLPC  H17S19849   4.659   7.222   4.677 -1.1250 -2.2955  1.4294
  175SLPC  C21819850   4.722   7.007   4.651 -0.0193  0.1068  0.2100
  175SLPC  H18R19851   4.645   6.976   4.576 -0.5893  0.3543  0.6837
  175SLPC  H18S19852   4.671   6.971   4.743 -1.7058 -1.9910 -1.4120
  175SLPC  H18T19853   4.821   6.961   4.635 -1.0814 -1.5449 -2.3771
  175SLPC   C3319854   4.543   6.860   5.926  0.3005  0.0160 -0.3240
  175SLPC   H3X19855   4.553   6.967   5.895  0.2464 -0.4514 -2.0430
  175SLPC   H3Y19856   4.483   6.854   6.019  1.5488  1.5656  0.6331
  175SLPC   C3419857   4.465   6.787   5.817 -0.0261 -0.0586  0.5457
  175SLPC   H4X19858   4.449   6.684   5.856 -0.3789 -0.2647 -0.1418
  175SLPC   H4Y19859   4.538   6.784   5.734  0.3037 -0.6569  0.8491
  175SLPC   C3519860   4.332   6.862   5.781 -0.4985 -0.5175  0.2202
  175SLPC   H5X19861   4.358   6.970   5.784 -0.8125 -0.4578  1.9190
  175SLPC   H5Y19862   4.254   6.841   5.857 -0.0495 -1.5781  0.4061
  175SLPC   C3619863   4.268   6.819   5.647  0.3760  0.0708  0.9519
  175SLPC   H6X19864   4.262   6.708   5.639 -0.9260 -0.1829  4.1712
  175SLPC   H6Y19865   4.327   6.857   5.561 -0.7746  0.6873  0.4112
  175SLPC   C3719866   4.118   6.861   5.627 -0.2821 -0.0784 -0.2299
  175SLPC   H7X19867   4.105   6.899   5.524  1.4370  0.7630 -0.1736
  175SLPC   H7Y19868   4.109   6.948   5.695 -0.9653 -1.0417  0.9500
  175SLPC   C3819869   4.014   6.756   5.670 -0.3530 -0.1802 -0.5824
  175SLPC   H8X19870   3.916   6.810   5.674 -0.3083  0.0265 -1.7001
  175SLPC   H8Y19871   4.040   6.727   5.773 -0.2331 -1.0781 -0.8631
  175SLPC   C3919872   4.022   6.632   5.585 -0.1547  0.2415  1.0013
  175SLPC   H9X19873   3.970   6.545   5.631  2.1682 -2.2264 -0.7740
  175SLPC   H9Y19874   4.122   6.585   5.578 -0.0715  0.4899  0.5146
  175SLPC  C31019875   3.956   6.652   5.446 -0.9383 -0.1070  0.0755
  175SLPC  H10X19876   3.998   6.745   5.402  2.0760 -1.0490  0.7607
  175SLPC  H10Y19877   3.846   6.655   5.461 -0.8746 -0.3343  0.6184
  175SLPC  C31119878   3.979   6.533   5.351  0.9270 -0.3339  0.0753
  175SLPC  H11X19879   3.904   6.453   5.374  1.5199 -0.6767  0.8434
  175SLPC  H11Y19880   4.084   6.496   5.356  2.2872  3.2035  0.0725
  175SLPC  C31219881   3.944   6.578   5.206  0.0683 -0.6918  0.6859
  175SLPC  H12X19882   4.013   6.661   5.181  1.2836 -0.7916  3.4412
  175SLPC  H12Y19883   3.838   6.610   5.194  0.4616  0.0964 -0.9979
  175SLPC  C31319884   3.959   6.478   5.090 -0.6835 -0.0464 -0.3190
  175SLPC  H13X19885   3.882   6.399   5.094  0.0166 -0.8267 -1.7753
  175SLPC  H13Y19886   4.056   6.423   5.096  0.2025  1.4303 -0.3833
  175SLPC  C31419887   3.952   6.545   4.950 -0.0286  0.1444 -0.4759
  175SLPC  H14X19888   3.990   6.468   4.879  1.7196  0.9231 -0.4320
  175SLPC  H14Y19889   4.019   6.629   4.923  0.3628 -0.7271 -2.4456
  175SLPC  C31519890   3.809   6.573   4.906 -0.1098  0.4969  0.6364
  175SLPC  H15X19891   3.825   6.616   4.805  3.3096  0.5760  1.0893
  175SLPC  H15Y19892   3.763   6.655   4.964  0.5152 -1.0607  3.5150
  175SLPC  C31619893   3.713   6.447   4.911  0.9188 -0.5089  0.3109
  175SLPC  H16X19894   3.679   6.441   5.016 -0.5354 -0.9283 -0.1594
  175SLPC  H16Y19895   3.762   6.349   4.889  0.6047 -0.5541 -0.2062
  175SLPC  C31719896   3.589   6.463   4.820  0.6809 -0.3568  0.6327
  175SLPC  H17X19897   3.522   6.546   4.848  1.9611 -0.3611  4.2389
  175SLPC  H17Y19898   3.524   6.374   4.833  0.1268 -0.1951 -0.8418
  175SLPC  C31819899   3.625   6.463   4.673  0.0142  0.3305  0.5912
  175SLPC  H18X19900   3.534   6.469   4.609 -0.0699 -0.6571  0.6031
  175SLPC  H18Y19901   3.681   6.375   4.635  2.4298  3.0431 -2.8394
  175SLPC  H18Z19902   3.695   6.548   4.658  2.8326 -1.7455  1.2048
  176SLPC     N19903   4.087   5.207   7.148 -0.7145 -0.7358  0.1236
  176SLPC   C1319904   4.096   5.328   7.232 -0.5897  0.3754 -0.2358
  176SLPC  H13A19905   4.182   5.389   7.207 -1.7420  2.2615  0.1693
  176SLPC  H13B19906   4.005   5.384   7.218 -2.1848 -2.0464 -0.0837
  176SLPC  H13C19907   4.100   5.306   7.337 -1.3419 -0.0224 -0.2857
  176SLPC   C1419908   3.952   5.138   7.177 -0.3573 -0.2031 -0.1030
  176SLPC  H14A19909   3.932   5.065   7.100  2.7597  0.3130 -1.5080
  176SLPC  H14B19910   3.938   5.089   7.273 -1.3911  0.3675  0.0560
  176SLPC  H14C19911   3.873   5.210   7.195 -2.1524 -1.7315 -1.4366
  176SLPC   C1519912   4.205   5.114   7.175 -0.1533 -0.4193  0.3305
  176SLPC  H15A19913   4.196   5.063   7.270 -2.2332  0.4961  0.6573
  176SLPC  H15B19914   4.192   5.033   7.104  0.8610 -1.0841  0.8740
  176SLPC  H15C19915   4.305   5.148   7.153 -0.7008  1.5659  0.7509
  176SLPC   C1219916   4.089   5.257   7.007 -0.9032 -0.0498 -0.0314
  176SLPC  H12A19917   4.172   5.326   6.999  0.8545 -1.9955  0.4080
  176SLPC  H12B19918   3.996   5.307   6.988 -1.7083 -1.3293  0.4257
  176SLPC   C1119919   4.122   5.164   6.880  0.1026 -0.6515 -0.3325
  176SLPC  H11A19920   4.110   5.217   6.783 -0.3538 -1.0934 -0.5189
  176SLPC  H11B19921   4.036   5.094   6.875 -1.5675  1.3558 -1.6929
  176SLPC     P19922   4.382   5.170   6.862 -0.4255 -0.1357  0.1115
  176SLPC   O1319923   4.368   5.315   6.908 -0.9798  0.1607 -0.1848
  176SLPC   O1419924   4.498   5.091   6.909  0.4636 -0.1729 -0.6582
  176SLPC   O1219925   4.244   5.092   6.895 -0.5408  0.0403 -0.6795
  176SLPC   O1119926   4.382   5.168   6.703  0.1364 -0.3835  0.2520
  176SLPC    C119927   4.372   5.046   6.629  0.3247 -0.0591 -0.1778
  176SLPC    HA19928   4.427   4.969   6.687  1.0539  2.3349  2.5749
  176SLPC    HB19929   4.267   5.018   6.606  0.5037 -1.7307  0.8802
  176SLPC    C219930   4.440   5.056   6.485  0.9739 -0.4609 -0.2493
  176SLPC    HS19931   4.436   4.953   6.442  2.2755 -0.2653 -0.8805
  176SLPC   O2119932   4.582   5.091   6.497  0.0384 -0.2604  0.2262
  176SLPC   C2119933   4.666   5.032   6.410  0.5059 -0.1318  0.2941
  176SLPC   O2219934   4.634   4.954   6.321  0.6904  0.0680  0.1842
  176SLPC   C2219935   4.810   5.077   6.425  0.0150  0.0308 -0.2327
  176SLPC   H2R19936   4.826   5.184   6.399 -0.3280 -0.1967 -1.4594
  176SLPC   H2S19937   4.832   5.060   6.532  1.4354  0.7594 -0.3878
  176SLPC    C319938   4.355   5.146   6.393  0.0554  0.1293  0.3246
  176SLPC    HX19939   4.366   5.248   6.434 -0.0738  0.2877 -0.0309
  176SLPC    HY19940   4.248   5.115   6.387  0.5352 -1.4103 -1.0672
  176SLPC   O3119941   4.408   5.159   6.261  0.5385 -0.3270  0.2761
  176SLPC   C3119942   4.372   5.062   6.175 -1.2048  0.2798  0.2727
  176SLPC   O3219943   4.299   4.973   6.204 -0.3579  0.6303 -0.0475
  176SLPC   C3219944   4.448   5.096   6.046  0.3840  0.0410  0.0159
  176SLPC   H2X19945   4.557   5.114   6.062  0.8439  0.0881 -2.8017
  176SLPC   H2Y19946   4.401   5.191   6.013  2.3769  0.6380 -1.2941
  176SLPC   C2319947   4.902   4.979   6.345 -0.3738 -0.5876 -0.4673
  176SLPC   H3R19948   4.873   4.872   6.354 -0.5206 -0.5037  0.1001
  176SLPC   H3S19949   5.002   4.984   6.392 -0.0298 -0.8027 -1.1696
  176SLPC   C2419950   4.916   5.029   6.202  0.0270  0.1332 -0.3725
  176SLPC   H4R19951   4.967   5.128   6.196 -0.8627  0.6358  0.1920
  176SLPC   H4S19952   4.810   5.037   6.170 -0.3563 -1.2280  0.4716
  176SLPC   C2519953   4.984   4.925   6.113  0.3501  0.3543 -0.0592
  176SLPC   H5R19954   4.914   4.840   6.099  0.6808 -0.2350  1.6516
  176SLPC   H5S19955   5.076   4.891   6.165  0.7499  1.1858 -0.1923
  176SLPC   C2619956   5.020   4.986   5.980 -0.6386 -0.2993  0.4682
  176SLPC   H6R19957   5.106   5.053   6.001 -0.5615 -0.3372  0.2820
  176SLPC   H6S19958   4.949   5.055   5.930  2.5036  2.7166 -0.2072
  176SLPC   C2719959   5.069   4.877   5.873  0.3336 -0.2964 -0.1614
  176SLPC   H7R19960   4.984   4.827   5.823  0.9581 -2.8254  1.1152
  176SLPC   H7S19961   5.138   4.801   5.915  1.2885 -0.3803 -1.7689
  176SLPC   C2819962   5.150   4.929   5.754 -0.1563 -0.2795 -0.4162
  176SLPC   H8R19963   5.213   5.013   5.792  0.4626 -0.7568 -0.3647
  176SLPC   H8S19964   5.085   4.969   5.674 -0.0993  3.9151  1.3482
  176SLPC   C2919965   5.247   4.830   5.694  0.4105  0.2378 -0.1936
  176SLPC   H9R19966   5.333   4.804   5.756  1.6325  2.1882 -0.9889
  176SLPC  C21019967   5.242   4.757   5.581  0.6412 -0.0528  0.1126
  176SLPC  H10R19968   5.327   4.692   5.556 -0.5188 -1.2037 -1.0183
  176SLPC  C21119969   5.132   4.761   5.474  0.5520 -0.5806  0.8380
  176SLPC  H11R19970   5.079   4.858   5.479  1.6506 -0.0248  2.9073
  176SLPC  H11S19971   5.054   4.691   5.509  1.2580 -1.0489  1.4942
  176SLPC  C21219972   5.161   4.728   5.325  0.0162  0.5860 -0.0380
  176SLPC  H12R19973   5.204   4.816   5.275 -1.4362  0.2068 -2.0796
  176SLPC  C21319974   5.170   4.600   5.275 -0.3182  0.1245 -0.3481
  176SLPC  H13R19975   5.197   4.584   5.169 -2.1028 -3.0339 -0.4567
  176SLPC  C21419976   5.146   4.468   5.352  0.7348  0.5456  0.3001
  176SLPC  H14R19977   5.074   4.403   5.298  1.1762  0.6559 -0.4442
  176SLPC  H14S19978   5.102   4.488   5.452 -2.2763 -0.7609 -0.6681
  176SLPC  C21519979   5.265   4.369   5.365  0.7604  0.2512  0.3117
  176SLPC  H15R19980   5.242   4.287   5.437  0.5429  0.5226  0.5567
  176SLPC  H15S19981   5.344   4.434   5.408  0.6255 -0.4130  1.6150
  176SLPC  C21619982   5.300   4.304   5.228  0.5644  0.0171 -0.5280
  176SLPC  H16R19983   5.389   4.238   5.236 -0.5232 -1.6012 -1.2405
  176SLPC  H16S19984   5.335   4.390   5.168  1.3732  1.1844  1.5099
  176SLPC  C21719985   5.190   4.235   5.149 -0.0692  0.0536 -0.2362
  176SLPC  H17R19986   5.113   4.311   5.128 -2.0566 -1.5444  0.8597
  176SLPC  H17S19987   5.132   4.165   5.213  0.0640 -0.3644 -0.5654
  176SLPC  C21819988   5.245   4.156   5.030 -0.2631 -0.1228  0.8545
  176SLPC  H18R19989   5.325   4.088   5.065  2.2195  1.6198 -1.0417
  176SLPC  H18S19990   5.286   4.222   4.950 -0.0120 -1.1706  0.0968
  176SLPC  H18T19991   5.162   4.104   4.978  1.4152 -1.1070 -0.9974
  176SLPC   C3319992   4.429   4.976   5.953 -0.5504 -0.0890 -0.3594
  176SLPC   H3X19993   4.323   4.963   5.923 -0.6984  1.9729 -0.8834
  176SLPC   H3Y19994   4.453   4.882   6.008 -0.9855 -0.7470 -1.2784
  176SLPC   C3419995   4.523   4.999   5.819 -0.2362  0.6228 -0.4312
  176SLPC   H4X19996   4.625   5.038   5.841  0.4895  0.0607 -2.5511
  176SLPC   H4Y19997   4.469   5.069   5.753  1.0136  2.3756  0.3330
  176SLPC   C3519998   4.533   4.868   5.740 -0.2419  0.5850 -0.2517
  176SLPC   H5X19999   4.440   4.838   5.687  0.3293 -1.0160 -0.3984
  176SLPC   H5Y20000   4.555   4.783   5.808 -0.7040  0.3815 -0.3511
  176SLPC   C3620001   4.644   4.861   5.639  0.5239 -0.5130 -0.3408
  176SLPC   H6X20002   4.642   4.759   5.595 -1.5463 -0.2969 -0.8258
  176SLPC   H6Y20003   4.743   4.872   5.689 -0.2277 -1.0656  1.3243
  176SLPC   C3720004   4.626   4.956   5.516 -0.3585  0.0982 -0.3801
  176SLPC   H7X20005   4.719   4.950   5.456  0.1021 -2.1288  0.4741
  176SLPC   H7Y20006   4.616   5.053   5.569 -4.2537 -1.6487  2.5954
  176SLPC   C3820007   4.507   4.916   5.423 -0.0245 -0.1202  0.7219
  176SLPC   H8X20008   4.421   4.909   5.493 -1.2786  0.5480 -0.6942
  176SLPC   H8Y20009   4.511   4.821   5.366 -1.9510 -0.0151  0.3508
  176SLPC   C3920010   4.492   5.028   5.318 -0.0706 -0.6803  0.4569
  176SLPC   H9X20011   4.532   5.116   5.373 -0.2426 -1.9116  2.6859
  176SLPC   H9Y20012   4.384   5.045   5.298  0.1940  0.2414 -0.2314
  176SLPC  C31020013   4.568   5.004   5.188  0.6211 -0.5497 -0.5417
  176SLPC  H10X20014   4.668   4.965   5.217  1.0356  0.8376 -0.0475
  176SLPC  H10Y20015   4.585   5.103   5.142 -1.0499 -1.5270 -3.5210
  176SLPC  C31120016   4.502   4.910   5.089  0.3174 -0.8334 -0.2367
  176SLPC  H11X20017   4.411   4.959   5.048  1.9918  1.0749 -1.9334
  176SLPC  H11Y20018   4.483   4.815   5.143 -0.3475 -0.5918 -0.0354
  176SLPC  C31220019   4.585   4.882   4.964  0.0278 -0.6454 -0.2448
  176SLPC  H12X20020   4.536   4.792   4.921 -0.5082 -0.4705 -0.0062
  176SLPC  H12Y20021   4.687   4.865   5.005  0.7602  0.5420 -1.4765
  176SLPC  C31320022   4.598   4.998   4.860  0.1584 -0.5406 -0.2224
  176SLPC  H13X20023   4.656   4.953   4.777 -3.8344 -1.5993 -2.7503
  176SLPC  H13Y20024   4.658   5.078   4.908  2.0976 -0.9171 -1.9182
  176SLPC  C31420025   4.473   5.063   4.802  0.3919 -0.2539 -0.4162
  176SLPC  H14X20026   4.391   5.075   4.876 -0.8551  0.8652 -1.9209
  176SLPC  H14Y20027   4.423   4.984   4.743 -2.7137  0.8058  0.5960
  176SLPC  C31520028   4.491   5.202   4.746 -0.3337 -0.2050 -0.5215
  176SLPC  H15X20029   4.571   5.182   4.672 -1.2641 -1.0424 -1.3349
  176SLPC  H15Y20030   4.515   5.272   4.829 -0.4135  0.3291 -0.9399
  176SLPC  C31620031   4.362   5.251   4.682  0.4102 -0.5852 -0.7279
  176SLPC  H16X20032   4.334   5.343   4.737 -0.6027 -1.7409  0.7619
  176SLPC  H16Y20033   4.293   5.165   4.691  2.8104 -2.5284  0.0506
  176SLPC  C31720034   4.391   5.291   4.535 -0.4657 -0.0528 -0.6643
  176SLPC  H17X20035   4.294   5.310   4.483  0.2626 -1.2777 -2.5600
  176SLPC  H17Y20036   4.432   5.208   4.473  0.8040 -0.5149  0.7421
  176SLPC  C31820037   4.490   5.418   4.530 -0.5312  0.0570  0.1281
  176SLPC  H18X20038   4.526   5.440   4.427 -0.3199  2.0568  0.5886
  176SLPC  H18Y20039   4.585   5.418   4.587 -0.5383  4.0580  0.3847
  176SLPC  H18Z20040   4.435   5.506   4.569  0.5196  0.5614  0.4996
  177SLPC     N20041   5.663   6.555   7.114  1.3576 -0.2276  0.3915
  177SLPC   C1320042   5.743   6.673   7.116 -0.2133 -0.3919 -0.4692
  177SLPC  H13A20043   5.841   6.662   7.160 -0.5579  2.8107  1.3939
  177SLPC  H13B20044   5.759   6.704   7.014 -0.7153 -3.7364 -1.6959
  177SLPC  H13C20045   5.688   6.741   7.180 -1.2335 -1.0318 -0.6364
  177SLPC   C1420046   5.522   6.590   7.063 -0.1594  0.1736  0.1317
  177SLPC  H14A20047   5.451   6.510   7.049 -1.5645  1.3934 -0.0764
  177SLPC  H14B20048   5.483   6.668   7.128  0.5522 -0.7940  1.7941
  177SLPC  H14C20049   5.528   6.634   6.965  1.7595 -0.1502  0.0809
  177SLPC   C1520050   5.650   6.502   7.261 -0.6043  0.3887 -0.1212
  177SLPC  H15A20051   5.734   6.442   7.292 -0.1251  1.0284 -0.1509
  177SLPC  H15B20052   5.653   6.588   7.326  2.1654 -1.0122  1.7859
  177SLPC  H15C20053   5.567   6.437   7.284  1.2435 -1.5174  1.5662
  177SLPC   C1220054   5.728   6.451   7.022  0.4167  0.3852 -0.6209
  177SLPC  H12A20055   5.659   6.373   6.992 -0.6912  1.4659 -0.9710
  177SLPC  H12B20056   5.810   6.404   7.074  0.9056 -0.2357 -1.9151
  177SLPC   C1120057   5.806   6.494   6.894  0.2260  0.5196 -0.3667
  177SLPC  H11A20058   5.849   6.403   6.847 -2.3658 -1.2407  0.4466
  177SLPC  H11B20059   5.886   6.561   6.931  0.4555  0.8013 -1.3385
  177SLPC     P20060   5.612   6.479   6.717 -0.5540  0.2741  0.1506
  177SLPC   O1320061   5.648   6.340   6.733  0.6667  0.8951 -0.0146
  177SLPC   O1420062   5.481   6.521   6.768 -0.0945  0.5468  0.0213
  177SLPC   O1220063   5.723   6.563   6.800  0.3402  0.0671 -0.4884
  177SLPC   O1120064   5.644   6.518   6.567  0.9291 -0.4005  0.4205
  177SLPC    C120065   5.753   6.464   6.495 -0.3083 -0.1820 -0.2422
  177SLPC    HA20066   5.848   6.513   6.527 -0.6689  0.9100 -0.8114
  177SLPC    HB20067   5.751   6.353   6.502 -2.4927 -0.1347  0.6992
  177SLPC    C220068   5.753   6.509   6.347 -0.0941 -0.0752  0.6579
  177SLPC    HS20069   5.669   6.468   6.287  1.0089  0.6494 -1.4781
  177SLPC   O2120070   5.888   6.499   6.295 -0.2686  0.3383 -0.3153
  177SLPC   C2120071   5.898   6.395   6.210 -0.2800  0.1355  0.6699
  177SLPC   O2220072   5.809   6.321   6.179 -0.0503  0.2751  0.8174
  177SLPC   C2220073   6.039   6.393   6.155  0.3185 -0.2256  0.0440
  177SLPC   H2R20074   6.110   6.446   6.222 -0.3962 -0.8506  1.3362
  177SLPC   H2S20075   6.067   6.285   6.158  2.1141  0.2108  1.7115
  177SLPC    C320076   5.734   6.665   6.346  0.4342 -0.1616 -0.4766
  177SLPC    HX20077   5.797   6.698   6.432  0.1644 -2.5837  0.7377
  177SLPC    HY20078   5.629   6.695   6.370 -0.3491 -0.8420 -2.8329
  177SLPC   O3120079   5.775   6.722   6.225 -0.4148  0.2804  0.6082
  177SLPC   C3120080   5.697   6.694   6.121  0.0619  0.6633  0.1776
  177SLPC   O3220081   5.585   6.640   6.131 -0.4787 -0.3181  0.4122
  177SLPC   C3220082   5.756   6.749   5.991  0.6921  0.4712  0.6124
  177SLPC   H2X20083   5.825   6.673   5.948 -2.3195 -2.5737  0.7360
  177SLPC   H2Y20084   5.809   6.845   6.009  1.3844  0.2144 -0.0054
  177SLPC   C2320085   6.043   6.428   6.002 -0.5085 -0.1724 -0.0970
  177SLPC   H3R20086   6.150   6.417   5.972 -0.3540 -0.7837  0.6412
  177SLPC   H3S20087   6.021   6.536   5.984  0.4613 -0.0952 -0.8933
  177SLPC   C2420088   5.958   6.340   5.914 -0.4157 -0.1995  0.7292
  177SLPC   H4R20089   5.851   6.368   5.912 -0.2513  0.4381 -1.1689
  177SLPC   H4S20090   5.960   6.232   5.940 -0.0766 -0.1930  0.7344
  177SLPC   C2520091   6.004   6.355   5.768  0.0472  0.2964  0.4654
  177SLPC   H5R20092   6.026   6.251   5.739  3.4151  0.8835  0.4978
  177SLPC   H5S20093   6.099   6.412   5.758  0.4243 -0.6349 -1.5631
  177SLPC   C2620094   5.907   6.412   5.673 -0.3142  0.4379 -0.2661
  177SLPC   H6R20095   5.864   6.507   5.713  2.8578  1.5228  0.8607
  177SLPC   H6S20096   5.825   6.341   5.653  1.7277 -2.1183 -0.0362
  177SLPC   C2720097   5.982   6.449   5.543 -0.0856  0.3153  0.5327
  177SLPC   H7R20098   6.018   6.356   5.495 -1.4788 -0.0040  0.0548
  177SLPC   H7S20099   6.079   6.501   5.555  1.1399 -1.5659 -0.8071
  177SLPC   C2820100   5.899   6.538   5.454 -0.1647  0.0407 -0.5497
  177SLPC   H8R20101   5.874   6.629   5.512 -2.2253 -0.4178 -0.6126
  177SLPC   H8S20102   5.801   6.488   5.439 -0.0510  0.0532 -1.4276
  177SLPC   C2920103   5.952   6.602   5.327 -0.1800 -0.3860  0.5952
  177SLPC   H9R20104   5.981   6.708   5.336 -0.8165 -0.2349  0.9038
  177SLPC  C21020105   5.966   6.544   5.202  0.7080  0.0213  0.3091
  177SLPC  H10R20106   5.984   6.603   5.111  0.3330  0.2223  0.3635
  177SLPC  C21120107   5.941   6.396   5.168  0.1458 -0.2001  0.0429
  177SLPC  H11R20108   5.853   6.390   5.100  0.5330 -1.9990 -0.3486
  177SLPC  H11S20109   5.914   6.337   5.259 -2.0031  1.2683  0.4473
  177SLPC  C21220110   6.065   6.330   5.103 -0.2065 -0.8369 -0.5898
  177SLPC  H12R20111   6.139   6.289   5.173 -0.0946  1.3940  0.7122
  177SLPC  C21320112   6.085   6.304   4.978  0.0985 -0.1009  0.0839
  177SLPC  H13R20113   6.178   6.252   4.949  1.1996  1.4428  0.7483
  177SLPC  C21420114   5.993   6.352   4.866  0.6052  0.2386  0.4000
  177SLPC  H14R20115   6.044   6.417   4.791 -1.1571 -0.4111 -1.4642
  177SLPC  H14S20116   5.908   6.412   4.905  1.3216  0.2294  2.0499
  177SLPC  C21520117   5.938   6.234   4.782  0.1284 -0.3280 -0.0980
  177SLPC  H15R20118   5.869   6.172   4.843  1.5717 -1.6616  0.2342
  177SLPC  H15S20119   6.014   6.168   4.736 -0.0516  0.1568 -1.1302
  177SLPC  C21620120   5.843   6.281   4.668  0.5768 -0.2172 -0.2006
  177SLPC  H16R20121   5.881   6.363   4.603  1.9502 -0.3275  0.4414
  177SLPC  H16S20122   5.756   6.323   4.723  1.7802  0.1878  1.4773
  177SLPC  C21720123   5.804   6.156   4.583 -0.8920  0.2834  0.1787
  177SLPC  H17R20124   5.758   6.071   4.638  0.5808 -1.3476 -1.0100
  177SLPC  H17S20125   5.896   6.102   4.553 -0.7360  0.1225  0.9308
  177SLPC  C21820126   5.707   6.174   4.465  0.6276  0.1434 -0.8558
  177SLPC  H18R20127   5.742   6.248   4.390  0.4691  1.1693  0.0563
  177SLPC  H18S20128   5.605   6.201   4.499 -0.8835 -2.7472 -2.6843
  177SLPC  H18T20129   5.695   6.077   4.412  1.4194  0.1282 -1.0207
  177SLPC   C3320130   5.647   6.782   5.887  0.7265 -0.2537 -0.5084
  177SLPC   H3X20131   5.668   6.886   5.853 -0.2110  0.1945  0.2434
  177SLPC   H3Y20132   5.547   6.784   5.935  1.8800 -1.3712  2.1259
  177SLPC   C3420133   5.656   6.697   5.763 -0.1267  0.3266  0.6864
  177SLPC   H4X20134   5.630   6.590   5.771  0.7910  0.0133 -0.2190
  177SLPC   H4Y20135   5.752   6.707   5.707 -1.4567  3.2371 -1.3371
  177SLPC   C3520136   5.547   6.744   5.660  0.2545 -0.8325 -0.5580
  177SLPC   H5X20137   5.575   6.848   5.632 -1.4074 -0.1585  0.1497
  177SLPC   H5Y20138   5.455   6.739   5.722  1.0955  0.0917  0.8259
  177SLPC   C3620139   5.541   6.657   5.533  0.0493  0.0216  0.3082
  177SLPC   H6X20140   5.523   6.553   5.570  2.4084 -0.1202  1.2233
  177SLPC   H6Y20141   5.645   6.651   5.495  1.0509  3.4911  2.0762
  177SLPC   C3720142   5.441   6.706   5.431  0.0273 -0.7732  0.0308
  177SLPC   H7X20143   5.464   6.814   5.422  0.0736 -0.9601 -2.9117
  177SLPC   H7Y20144   5.337   6.693   5.467 -0.3841  3.0723  0.6203
  177SLPC   C3820145   5.454   6.647   5.293  0.0153  0.2138  0.1059
  177SLPC   H8X20146   5.374   6.689   5.228  0.2734 -2.2212 -1.9557
  177SLPC   H8Y20147   5.435   6.538   5.299  0.4018  0.1994  1.1914
  177SLPC   C3920148   5.586   6.673   5.218  0.4424  0.2321  0.1170
  177SLPC   H9X20149   5.674   6.641   5.277  1.7401  1.9812 -0.7851
  177SLPC   H9Y20150   5.604   6.782   5.211 -2.4195  1.0888  3.4605
  177SLPC  C31020151   5.587   6.598   5.086  0.6371  0.3803  0.1489
  177SLPC  H10X20152   5.574   6.493   5.121  2.1074  0.5146  1.1791
  177SLPC  H10Y20153   5.685   6.609   5.035 -0.1297  0.3502 -1.3863
  177SLPC  C31120154   5.473   6.624   4.991  0.4329 -0.1088 -0.3515
  177SLPC  H11X20155   5.455   6.733   4.991  0.4532 -0.0668  1.6591
  177SLPC  H11Y20156   5.384   6.572   5.034  0.7676 -0.0601  0.4228
  177SLPC  C31220157   5.481   6.571   4.849 -0.2969 -0.5164  0.0151
  177SLPC  H12X20158   5.401   6.619   4.789  1.7590  0.6139 -1.9944
  177SLPC  H12Y20159   5.461   6.462   4.850 -1.0079 -0.3999 -0.3714
  177SLPC  C31320160   5.619   6.599   4.785  0.3866 -0.3011 -1.0691
  177SLPC  H13X20161   5.611   6.550   4.685  0.6302 -0.0707 -1.2035
  177SLPC  H13Y20162   5.707   6.560   4.840 -0.4187  1.5121  1.6733
  177SLPC  C31420163   5.628   6.746   4.756  0.1014 -1.4724  0.2099
  177SLPC  H14X20164   5.621   6.818   4.840  1.1385  1.3282 -1.9477
  177SLPC  H14Y20165   5.550   6.781   4.684  0.6095 -1.4414 -0.3379
  177SLPC  C31520166   5.761   6.784   4.688 -0.1316  0.0455 -0.5848
  177SLPC  H15X20167   5.786   6.716   4.604 -2.6340 -0.2632 -1.1616
  177SLPC  H15Y20168   5.846   6.777   4.759 -0.0142  2.3635 -0.4192
  177SLPC  C31620169   5.774   6.927   4.630  0.0426  0.0970 -0.1053
  177SLPC  H16X20170   5.791   7.002   4.710  2.1545 -0.3944 -0.0516
  177SLPC  H16Y20171   5.684   6.958   4.571  0.5516  0.4923 -0.6811
  177SLPC  C31720172   5.876   6.935   4.521 -0.8663 -0.3488  0.0037
  177SLPC  H17X20173   5.974   6.885   4.534 -1.1366 -0.1860  3.5755
  177SLPC  H17Y20174   5.910   7.040   4.521  2.8328 -1.3886  1.5340
  177SLPC  C31820175   5.813   6.892   4.388 -0.7383 -0.0288 -0.0827
  177SLPC  H18X20176   5.887   6.926   4.311  1.4912 -0.4355  1.7669
  177SLPC  H18Y20177   5.717   6.946   4.372 -2.2421 -2.5373 -0.0999
  177SLPC  H18Z20178   5.796   6.782   4.381  1.7553 -0.7420  2.7347
  178SLPC     N20179   2.721   5.383   7.178 -0.6066 -0.2410  1.0175
  178SLPC   C1320180   2.717   5.388   7.031 -0.3297 -0.0716 -0.4307
  178SLPC  H13A20181   2.805   5.331   7.002  0.5989  0.6757  0.8209
  178SLPC  H13B20182   2.625   5.346   6.994 -0.9349  2.6683 -2.3225
  178SLPC  H13C20183   2.725   5.485   6.984  0.0342 -2.1498 -5.2733
  178SLPC   C1420184   2.602   5.443   7.237 -0.8732  0.0883 -0.3318
  178SLPC  H14A20185   2.590   5.440   7.344  2.0579 -0.4408  0.0600
  178SLPC  H14B20186   2.592   5.547   7.207  0.2577 -0.2392 -1.9842
  178SLPC  H14C20187   2.514   5.396   7.195 -0.8035 -1.4048  1.1048
  178SLPC   C1520188   2.836   5.476   7.218  0.7144 -0.2289  0.2072
  178SLPC  H15A20189   2.920   5.457   7.153 -0.8944  1.1635 -2.4473
  178SLPC  H15B20190   2.806   5.579   7.201  0.1938 -0.1656  1.3602
  178SLPC  H15C20191   2.861   5.477   7.324  3.0222  0.6049 -0.2776
  178SLPC   C1220192   2.745   5.240   7.222 -0.4050 -0.1134 -0.0370
  178SLPC  H12A20193   2.652   5.185   7.221  0.0645 -1.1020  2.6398
  178SLPC  H12B20194   2.763   5.245   7.328  0.8311  1.5570 -0.2851
  178SLPC   C1120195   2.860   5.148   7.155 -0.8355 -0.4710 -0.3341
  178SLPC  H11A20196   2.868   5.046   7.197  1.2314 -1.2736 -2.5010
  178SLPC  H11B20197   2.951   5.202   7.189 -0.2380 -1.1533 -0.8337
  178SLPC     P20198   2.977   5.085   6.933  0.0456  0.1041  0.0240
  178SLPC   O1320199   3.092   5.154   6.996 -0.0089  0.4769  0.3241
  178SLPC   O1420200   2.980   4.937   6.929 -0.1193  0.0054 -0.1952
  178SLPC   O1220201   2.854   5.131   7.016  0.4935 -0.1117  0.6238
  178SLPC   O1120202   2.943   5.148   6.792 -0.7196  0.7763 -0.4060
  178SLPC    C120203   2.830   5.106   6.722  0.3280 -0.0031  0.6925
  178SLPC    HA20204   2.810   4.997   6.720 -1.1768  0.2641 -0.9156
  178SLPC    HB20205   2.746   5.155   6.775  0.1169  1.4438 -0.9046
  178SLPC    C220206   2.838   5.135   6.567 -0.3060 -0.1554 -0.1560
  178SLPC    HS20207   2.748   5.090   6.518  0.5738 -1.7357 -0.3702
  178SLPC   O2120208   2.965   5.093   6.513  0.1252  0.5099 -0.0281
  178SLPC   C2120209   2.953   4.971   6.462  0.0212 -0.3575  0.3112
  178SLPC   O2220210   2.855   4.897   6.474 -0.2466  0.0237  0.0839
  178SLPC   C2220211   3.079   4.941   6.382  0.3228 -0.3805 -0.2912
  178SLPC   H2R20212   3.159   5.001   6.430  1.7723 -3.7283  1.8547
  178SLPC   H2S20213   3.106   4.833   6.390 -1.1522 -0.7080  0.6371
  178SLPC    C320214   2.818   5.281   6.530  0.7114 -0.0727  0.5471
  178SLPC    HX20215   2.908   5.339   6.562  1.2528 -0.4902 -0.1892
  178SLPC    HY20216   2.731   5.313   6.592  1.1911 -0.4804  1.4648
  178SLPC   O3120217   2.786   5.311   6.391  0.8682  0.4270  0.0301
  178SLPC   C3120218   2.877   5.338   6.304  0.1404  0.2162  0.6537
  178SLPC   O3220219   2.996   5.366   6.326  0.2352 -0.5654 -0.0173
  178SLPC   C3220220   2.822   5.326   6.166  0.5420  0.3875  0.4709
  178SLPC   H2X20221   2.766   5.421   6.151  1.8132  1.1376  0.3366
  178SLPC   H2Y20222   2.756   5.237   6.161 -1.2160  1.6138  0.8210
  178SLPC   C2320223   3.060   4.966   6.228 -0.1577  0.3701  0.0289
  178SLPC   H3R20224   3.163   4.964   6.187  0.7850  1.7909  2.1264
  178SLPC   H3S20225   3.016   5.067   6.212  0.5190  0.5270 -0.8597
  178SLPC   C2420226   2.963   4.869   6.159 -0.3016 -1.3266  0.2842
  178SLPC   H4R20227   2.866   4.891   6.208 -0.3327 -0.6423 -0.0659
  178SLPC   H4S20228   2.997   4.764   6.173  0.5953 -0.7527  2.8288
  178SLPC   C2520229   2.935   4.905   6.013  0.6170  0.8913 -0.3414
  178SLPC   H5R20230   3.030   4.886   5.957 -0.7268 -0.8973 -2.1706
  178SLPC   H5S20231   2.907   5.012   6.009 -1.8064  0.3102 -0.6517
  178SLPC   C2620232   2.824   4.821   5.947 -0.0930  0.6307  0.0742
  178SLPC   H6R20233   2.729   4.852   5.994 -0.7733  1.7124 -1.8867
  178SLPC   H6S20234   2.844   4.714   5.966 -0.1783  0.8868  1.7344
  178SLPC   C2720235   2.821   4.832   5.795  0.0555  0.2935  0.0997
  178SLPC   H7R20236   2.920   4.792   5.763  0.5987  2.7179 -1.4996
  178SLPC   H7S20237   2.812   4.938   5.762 -1.4841  0.4979  1.0884
  178SLPC   C2820238   2.717   4.746   5.723 -0.1293  0.5044 -0.5431
  178SLPC   H8R20239   2.698   4.648   5.773 -0.3052 -0.0334 -1.6132
  178SLPC   H8S20240   2.743   4.728   5.616 -0.1348 -0.1816 -0.4376
  178SLPC   C2920241   2.586   4.823   5.737 -0.2091 -0.5395  0.1718
  178SLPC   H9R20242   2.552   4.822   5.841  2.3825 -0.0617  1.1144
  178SLPC  C21020243   2.517   4.895   5.643 -0.3792  0.4553 -0.3904
  178SLPC  H10R20244   2.430   4.954   5.674 -0.1467  0.1333  0.9739
  178SLPC  C21120245   2.566   4.894   5.504 -0.2555 -0.1551 -0.2253
  178SLPC  H11R20246   2.550   4.792   5.463 -2.5949 -1.1328  2.7693
  178SLPC  H11S20247   2.676   4.911   5.506 -0.0363 -1.3983  2.2883
  178SLPC  C21220248   2.512   5.006   5.418 -0.2399  0.0982  0.9326
  178SLPC  H12R20249   2.493   5.097   5.476 -1.2732 -0.3750  1.3671
  178SLPC  C21320250   2.506   5.019   5.284  0.1310 -0.4801 -0.2326
  178SLPC  H13R20251   2.443   5.101   5.246  0.5754 -0.1336 -0.2173
  178SLPC  C21420252   2.538   4.909   5.183 -0.4486 -0.0374  0.1279
  178SLPC  H14R20253   2.480   4.816   5.201  0.3002 -0.5534 -0.0951
  178SLPC  H14S20254   2.646   4.887   5.196 -0.2502 -0.8200 -2.3601
  178SLPC  C21520255   2.525   4.928   5.029  0.3995 -0.2816 -0.1079
  178SLPC  H15R20256   2.575   5.022   4.995  0.5339 -0.2624  0.1451
  178SLPC  H15S20257   2.417   4.942   5.003  0.4635  2.2241  0.7281
  178SLPC  C21620258   2.589   4.816   4.944 -0.7225 -0.8047  0.2548
  178SLPC  H16R20259   2.538   4.719   4.965  1.2910 -1.5234  2.2995
  178SLPC  H16S20260   2.692   4.803   4.984 -0.6257 -3.4145 -0.6541
  178SLPC  C21720261   2.570   4.850   4.794 -0.2149  0.1145  0.3327
  178SLPC  H17R20262   2.642   4.933   4.776  0.2248 -0.1059  1.0014
  178SLPC  H17S20263   2.464   4.877   4.776  0.4565  1.8900 -1.3010
  178SLPC  C21820264   2.604   4.727   4.707 -0.2688  0.3500  0.0862
  178SLPC  H18R20265   2.713   4.707   4.707 -0.1179  1.0906  0.7142
  178SLPC  H18S20266   2.588   4.755   4.601  1.6731  1.9945  0.1541
  178SLPC  H18T20267   2.556   4.632   4.739 -2.1831  1.0790 -0.4819
  178SLPC   C3320268   2.925   5.316   6.052  0.1838  0.0573  0.5079
  178SLPC   H3X20269   2.970   5.215   6.061  0.5004  0.4058  4.1297
  178SLPC   H3Y20270   3.005   5.391   6.066  0.6003 -0.3542  0.3840
  178SLPC   C3420271   2.858   5.336   5.914 -0.3068 -0.1296 -0.3715
  178SLPC   H4X20272   2.791   5.424   5.907  0.4597  0.4710 -0.3909
  178SLPC   H4Y20273   2.794   5.247   5.900 -1.3893  0.6341 -0.3790
  178SLPC   C3520274   2.953   5.356   5.794 -0.6712  0.8969 -0.4097
  178SLPC   H5X20275   2.886   5.338   5.708  0.3321  1.6222 -1.3645
  178SLPC   H5Y20276   3.036   5.281   5.796 -0.6645  0.8496  2.7722
  178SLPC   C3620277   2.998   5.502   5.791  0.2187  0.1141 -0.4363
  178SLPC   H6X20278   3.051   5.512   5.888  1.3628  1.7923 -1.1946
  178SLPC   H6Y20279   2.903   5.558   5.798 -0.3166 -0.7520 -0.6095
  178SLPC   C3720280   3.072   5.537   5.667 -0.8067 -0.9878 -0.6174
  178SLPC   H7X20281   3.102   5.643   5.673 -0.6285 -1.1349  2.3639
  178SLPC   H7Y20282   3.003   5.529   5.580 -2.9212  0.9733  0.7688
  178SLPC   C3820283   3.202   5.463   5.651 -0.4744  0.1578  0.6055
  178SLPC   H8X20284   3.171   5.357   5.644 -1.1056  0.1719  2.5325
  178SLPC   H8Y20285   3.262   5.482   5.742  0.1001 -0.6707  0.4120
  178SLPC   C3920286   3.271   5.497   5.520 -0.0497  0.6256 -0.6153
  178SLPC   H9X20287   3.366   5.439   5.512 -0.3485 -0.0768  0.6335
  178SLPC   H9Y20288   3.308   5.601   5.518  1.5126  0.0972 -0.8263
  178SLPC  C31020289   3.182   5.467   5.400  0.3091  0.0290 -0.4831
  178SLPC  H10X20290   3.095   5.533   5.381  0.4994  0.4732  0.1687
  178SLPC  H10Y20291   3.143   5.363   5.401  0.3985 -0.0562 -2.3209
  178SLPC  C31120292   3.258   5.489   5.272  0.0364  0.2660 -0.0590
  178SLPC  H11X20293   3.317   5.395   5.265 -1.4373 -1.0619  3.3324
  178SLPC  H11Y20294   3.335   5.570   5.272  0.3427 -0.0189 -0.2614
  178SLPC  C31220295   3.175   5.501   5.140  0.1409  0.5774 -0.3116
  178SLPC  H12X20296   3.110   5.591   5.149 -1.6354 -0.7671  0.9351
  178SLPC  H12Y20297   3.103   5.417   5.133 -1.8720  2.3662 -2.8644
  178SLPC  C31320298   3.247   5.504   5.012  0.4332  0.6900  1.0502
  178SLPC  H13X20299   3.327   5.428   4.999  0.5694  1.3023 -3.0120
  178SLPC  H13Y20300   3.292   5.606   5.007  0.9009  0.4271 -2.5445
  178SLPC  C31420301   3.147   5.475   4.892  0.3436 -0.6519  0.0730
  178SLPC  H14X20302   3.089   5.388   4.930 -0.4783 -0.2463 -0.2146
  178SLPC  H14Y20303   3.212   5.446   4.807  0.0703 -0.0293 -0.3541
  178SLPC  C31520304   3.050   5.590   4.850 -0.1480  0.8514 -0.1607
  178SLPC  H15X20305   2.994   5.639   4.932 -0.6581  1.8166 -1.0547
  178SLPC  H15Y20306   2.982   5.536   4.781  0.9298 -1.1447  0.2519
  178SLPC  C31620307   3.130   5.699   4.773  0.4306 -0.6108 -0.0694
  178SLPC  H16X20308   3.231   5.708   4.819  0.5432 -4.5784  0.8002
  178SLPC  H16Y20309   3.072   5.789   4.802 -0.5851 -0.9926 -0.8526
  178SLPC  C31720310   3.130   5.692   4.624 -0.1987 -0.2625  0.7379
  178SLPC  H17X20311   3.159   5.588   4.597 -0.7278 -0.8432  2.2953
  178SLPC  H17Y20312   3.195   5.767   4.575 -0.0536 -0.6755  0.2846
  178SLPC  C31820313   2.999   5.719   4.551  0.4741  0.1829  0.5342
  178SLPC  H18X20314   2.943   5.792   4.613 -0.9387 -0.7099  0.3530
  178SLPC  H18Y20315   2.935   5.629   4.541  0.1083  0.6159 -1.5444
  178SLPC  H18Z20316   3.011   5.767   4.452 -3.8497  1.2148  0.3261
  179SLPC     N20317   2.554   5.846   2.569 -0.2858  0.7468 -0.1697
  179SLPC   C1320318   2.471   5.732   2.521  0.0784  0.0412 -0.5282
  179SLPC  H13A20319   2.548   5.664   2.485  1.3510  1.4886 -0.6526
  179SLPC  H13B20320   2.400   5.693   2.592  0.4603  1.0179  0.4146
  179SLPC  H13C20321   2.409   5.766   2.440 -1.0149 -0.8841 -0.1115
  179SLPC   C1420322   2.473   5.926   2.665 -0.1591 -0.0265 -0.2064
  179SLPC  H14A20323   2.392   5.977   2.617  2.3973  1.4505 -3.3600
  179SLPC  H14B20324   2.434   5.863   2.744 -0.9990  0.2674 -0.3796
  179SLPC  H14C20325   2.531   6.002   2.717 -0.4243 -0.2060  0.3656
  179SLPC   C1520326   2.594   5.920   2.446  0.4303  0.2865  0.5961
  179SLPC  H15A20327   2.656   5.862   2.379 -1.5111 -0.5829 -0.5217
  179SLPC  H15B20328   2.509   5.968   2.401 -1.7099  1.0113  4.9061
  179SLPC  H15C20329   2.652   6.007   2.474  3.6576 -1.7376  0.7487
  179SLPC   C1220330   2.685   5.786   2.633 -0.2302  0.5409  0.0839
  179SLPC  H12A20331   2.739   5.735   2.554  0.2856 -0.9530  1.3600
  179SLPC  H12B20332   2.654   5.708   2.701 -1.3325 -1.6715 -2.7064
  179SLPC   C1120333   2.789   5.883   2.700  0.3648  0.1917 -0.3001
  179SLPC  H11A20334   2.868   5.810   2.725 -0.2858 -0.9498 -1.4113
  179SLPC  H11B20335   2.744   5.921   2.794 -2.4190  1.6009 -2.0613
  179SLPC     P20336   2.853   6.131   2.654  0.0537 -0.2555  0.0095
  179SLPC   O1320337   2.884   6.214   2.530  0.3641  0.5608  0.0546
  179SLPC   O1420338   2.738   6.176   2.744  0.2984  0.1975 -0.3867
  179SLPC   O1220339   2.824   5.982   2.602 -0.3915 -0.4907  0.6833
  179SLPC   O1120340   2.985   6.125   2.735  0.5425 -0.8463  0.0333
  179SLPC    C120341   3.107   6.067   2.691 -0.3187 -0.2529 -0.1802
  179SLPC    HA20342   3.098   5.996   2.605  2.7390  0.4452 -1.1788
  179SLPC    HB20343   3.169   6.151   2.654 -0.9205  0.2114 -0.1531
  179SLPC    C220344   3.168   5.996   2.814  0.3363 -0.1993 -0.3891
  179SLPC    HS20345   3.102   5.907   2.822  0.4928 -0.5467 -2.5483
  179SLPC   O2120346   3.150   6.067   2.938 -0.0270 -0.3871  0.9728
  179SLPC   C2120347   3.100   6.006   3.048 -0.0267  0.6815  0.0107
  179SLPC   O2220348   3.065   5.893   3.054  0.5614  0.9950 -0.7769
  179SLPC   C2220349   3.099   6.106   3.168 -0.3954  0.1927 -0.3624
  179SLPC   H2R20350   3.193   6.165   3.167 -0.5466  0.4365 -0.2007
  179SLPC   H2S20351   3.012   6.174   3.159  0.1938  1.1547  0.8836
  179SLPC    C320352   3.321   5.959   2.796 -0.0090  0.5970  0.0110
  179SLPC    HX20353   3.371   6.047   2.751  1.0511  2.2954  4.1198
  179SLPC    HY20354   3.331   5.873   2.727  0.6557  0.7200 -0.0580
  179SLPC   O3120355   3.380   5.931   2.926  0.2979 -0.3307  0.5502
  179SLPC   C3120356   3.454   6.027   2.982 -0.4528  0.2070 -0.1668
  179SLPC   O3220357   3.495   6.125   2.927  0.6965 -0.1273  0.2719
  179SLPC   C3220358   3.488   5.986   3.129  0.1234  0.0081  0.4091
  179SLPC   H2X20359   3.585   5.933   3.114 -1.7000 -3.4128 -0.3832
  179SLPC   H2Y20360   3.417   5.904   3.154 -2.1678  1.0010 -2.3168
  179SLPC   C2320361   3.082   6.036   3.304 -0.2733  0.2271 -0.2371
  179SLPC   H3R20362   3.153   5.951   3.316 -1.8435 -1.2297 -0.8466
  179SLPC   H3S20363   2.983   5.987   3.316 -0.6222  1.1630  0.8341
  179SLPC   C2420364   3.100   6.136   3.419  0.3344 -0.0881 -0.6394
  179SLPC   H4R20365   3.028   6.217   3.395  1.5604  1.1565 -0.1778
  179SLPC   H4S20366   3.207   6.163   3.407  0.5712  0.2124  1.7788
  179SLPC   C2520367   3.065   6.080   3.560  0.1033  0.1227  0.5778
  179SLPC   H5R20368   3.104   5.976   3.560 -2.8510 -1.1007  1.1506
  179SLPC   H5S20369   2.954   6.080   3.564  0.0770  0.7229 -0.1390
  179SLPC   C2620370   3.119   6.163   3.669  0.0088  0.2081  0.5187
  179SLPC   H6R20371   3.092   6.266   3.637  1.4121  0.8504  1.3196
  179SLPC   H6S20372   3.230   6.152   3.668 -0.0184 -0.0667  0.4286
  179SLPC   C2720373   3.070   6.130   3.809  0.4018 -0.1791  0.3901
  179SLPC   H7R20374   3.104   6.029   3.840 -0.8537 -0.7266  0.0145
  179SLPC   H7S20375   2.960   6.121   3.816  0.5802 -1.9782  1.8954
  179SLPC   C2820376   3.123   6.222   3.918 -0.2238 -0.1263  0.7130
  179SLPC   H8R20377   3.095   6.327   3.893  1.1642  0.1631  0.2580
  179SLPC   H8S20378   3.232   6.231   3.899 -0.8517  1.1177 -3.1509
  179SLPC   C2920379   3.076   6.172   4.054 -0.0981 -0.0964  0.0873
  179SLPC   H9R20380   2.967   6.161   4.046  0.0039 -0.3881 -1.0522
  179SLPC  C21020381   3.131   6.168   4.177  0.0566 -0.9924  0.4515
  179SLPC  H10R20382   3.068   6.119   4.253 -3.1268  0.2834 -1.1605
  179SLPC  C21120383   3.284   6.186   4.201 -0.7097 -0.2644 -0.0133
  179SLPC  H11R20384   3.310   6.226   4.301  0.6018 -0.1452 -0.3859
  179SLPC  H11S20385   3.325   6.267   4.138 -2.0121 -0.0473 -0.6147
  179SLPC  C21220386   3.368   6.061   4.164 -0.5810 -0.4434  0.3468
  179SLPC  H12R20387   3.421   6.056   4.068 -1.2774 -0.9660 -0.0223
  179SLPC  C21320388   3.392   5.970   4.258 -0.5407  0.3850  0.0144
  179SLPC  H13R20389   3.465   5.892   4.232  1.0315  1.9717 -0.5235
  179SLPC  C21420390   3.331   5.963   4.397  0.3854 -0.4868 -0.2379
  179SLPC  H14R20391   3.272   5.871   4.416  1.4868 -1.0250  0.7227
  179SLPC  H14S20392   3.241   6.028   4.401  1.2297  0.6776  0.9606
  179SLPC  C21520393   3.427   6.014   4.506  0.0065  0.2787 -0.0614
  179SLPC  H15R20394   3.471   6.114   4.484 -1.3552  0.7567 -0.7588
  179SLPC  H15S20395   3.513   5.945   4.506  0.4337  0.7922  0.7043
  179SLPC  C21620396   3.368   6.005   4.641 -0.3248  0.1779 -0.1661
  179SLPC  H16R20397   3.441   6.042   4.716 -1.2786  2.4438 -0.2859
  179SLPC  H16S20398   3.329   5.903   4.662 -1.8613  0.5783 -0.9011
  179SLPC  C21720399   3.238   6.084   4.664  0.4003 -0.2063 -0.0551
  179SLPC  H17R20400   3.163   6.031   4.600 -0.0753 -0.5486  0.7750
  179SLPC  H17S20401   3.245   6.188   4.625  0.7509 -0.9350 -2.0829
  179SLPC  C21820402   3.178   6.087   4.801  0.4425 -0.0564 -0.0732
  179SLPC  H18R20403   3.242   6.152   4.864  3.2032 -0.9713 -1.7627
  179SLPC  H18S20404   3.158   5.982   4.834 -0.2044 -0.9161 -2.9311
  179SLPC  H18T20405   3.077   6.133   4.799 -0.7635 -2.4958 -2.4803
  179SLPC   C3320406   3.506   6.098   3.237  0.0791 -0.7489  0.6898
  179SLPC   H3X20407   3.436   6.183   3.225  0.7888 -0.1208  0.8623
  179SLPC   H3Y20408   3.605   6.149   3.238 -0.6678  0.7709 -0.3097
  179SLPC   C3420409   3.475   6.044   3.380  0.6087  0.2829 -0.8100
  179SLPC   H4X20410   3.546   5.963   3.409 -0.0522  0.1622  0.5401
  179SLPC   H4Y20411   3.370   6.007   3.385 -0.6636  3.7198  0.4380
  179SLPC   C3520412   3.503   6.138   3.492 -0.2710 -0.5382  0.0904
  179SLPC   H5X20413   3.592   6.203   3.479 -2.4534  2.2664 -2.5774
  179SLPC   H5Y20414   3.420   6.209   3.511  1.6917  2.4630 -1.7020
  179SLPC   C3620415   3.530   6.065   3.623  1.2347 -0.3321  0.4664
  179SLPC   H6X20416   3.620   6.000   3.614  0.6331 -0.9181 -1.7588
  179SLPC   H6Y20417   3.447   5.997   3.649  1.5227 -0.5639  0.7845
  179SLPC   C3720418   3.562   6.163   3.733  0.6378  0.1850 -0.3502
  179SLPC   H7X20419   3.475   6.219   3.773  0.5316 -0.1545 -0.0938
  179SLPC   H7Y20420   3.637   6.231   3.689  1.9501 -1.6228 -1.0259
  179SLPC   C3820421   3.633   6.094   3.855  0.6053  0.2384  0.4868
  179SLPC   H8X20422   3.723   6.050   3.805  0.5640 -0.6151  1.1407
  179SLPC   H8Y20423   3.570   6.008   3.885  2.2835 -0.1292  3.2949
  179SLPC   C3920424   3.679   6.199   3.957  1.3486 -0.8069 -0.0979
  179SLPC   H9X20425   3.595   6.269   3.977  1.3371 -0.5388 -1.0380
  179SLPC   H9Y20426   3.766   6.253   3.915  1.1003  0.0049  0.3828
  179SLPC  C31020427   3.732   6.135   4.087  0.0503  0.0725 -0.1086
  179SLPC  H10X20428   3.805   6.060   4.050 -0.3203  0.8086 -2.4888
  179SLPC  H10Y20429   3.646   6.095   4.144  1.0055 -1.6374  0.2269
  179SLPC  C31120430   3.818   6.233   4.173  0.1664 -1.0877 -0.0263
  179SLPC  H11X20431   3.763   6.328   4.193  0.1285 -1.0185 -0.4457
  179SLPC  H11Y20432   3.912   6.248   4.116  0.0094  0.3739  0.0622
  179SLPC  C31220433   3.849   6.174   4.304  0.1485 -1.0014 -0.5864
  179SLPC  H12X20434   3.884   6.071   4.286 -0.8215 -1.4839  0.2265
  179SLPC  H12Y20435   3.754   6.153   4.358 -0.1938  0.4538 -0.5777
  179SLPC  C31320436   3.935   6.269   4.392  0.7239  0.5107  0.1299
  179SLPC  H13X20437   3.872   6.343   4.447  0.9806 -0.3937  1.7124
  179SLPC  H13Y20438   4.000   6.332   4.328 -1.2418  2.2470 -0.2628
  179SLPC  C31420439   3.999   6.192   4.500  0.5152 -0.6078 -0.0522
  179SLPC  H14X20440   4.088   6.140   4.458  1.4066 -0.1460  1.2035
  179SLPC  H14Y20441   3.918   6.126   4.536 -1.2899  0.2005 -2.3746
  179SLPC  C31520442   4.055   6.278   4.612  0.1467  0.6508 -0.0696
  179SLPC  H15X20443   3.981   6.348   4.656  0.0131 -0.5359  1.6824
  179SLPC  H15Y20444   4.135   6.337   4.562  0.2244  0.4951 -0.1290
  179SLPC  C31620445   4.121   6.202   4.730 -0.5432  0.7774  0.3509
  179SLPC  H16X20446   4.175   6.277   4.792 -0.0188  2.2440 -1.7736
  179SLPC  H16Y20447   4.198   6.133   4.692 -1.4480  0.0878 -0.2672
  179SLPC  C31720448   4.024   6.119   4.823 -0.6691  0.4224  0.5249
  179SLPC  H17X20449   3.996   6.023   4.774  1.3242 -0.1131  0.3822
  179SLPC  H17Y20450   3.925   6.171   4.821 -1.8721 -1.6946  1.2355
  179SLPC  C31820451   4.076   6.084   4.961  0.0632 -0.1444  0.0530
  179SLPC  H18X20452   4.173   6.037   4.936  0.4715  0.5572  0.2681
  179SLPC  H18Y20453   4.010   6.012   5.013 -0.3108  0.5611  0.5824
  179SLPC  H18Z20454   4.082   6.181   5.016  0.8944  0.1599 -0.5469
  180SLPC     N20455   0.362   3.322   2.671 -0.3504 -0.0512 -0.0385
  180SLPC   C1320456   0.302   3.422   2.764 -0.7607 -0.3348  0.1269
  180SLPC  H13A20457   0.198   3.434   2.738 -0.7519 -1.2238 -0.3745
  180SLPC  H13B20458   0.327   3.382   2.861  0.7333  0.7548  0.2276
  180SLPC  H13C20459   0.334   3.524   2.751 -0.5235 -0.4173  0.0631
  180SLPC   C1420460   0.285   3.193   2.686  0.3480  0.8344 -0.0447
  180SLPC  H14A20461   0.332   3.107   2.641  1.5940  1.5267 -0.1065
  180SLPC  H14B20462   0.284   3.178   2.793  1.5259  1.9006  0.1406
  180SLPC  H14C20463   0.185   3.194   2.647 -0.0284 -0.8297  0.7888
  180SLPC   C1520464   0.501   3.295   2.715  0.0194 -0.7104  0.0359
  180SLPC  H15A20465   0.564   3.232   2.654  3.8584  1.3073  1.5413
  180SLPC  H15B20466   0.554   3.388   2.729 -0.8534 -0.2954  0.6716
  180SLPC  H15C20467   0.490   3.218   2.791 -0.7632 -0.5878  0.0516
  180SLPC   C1220468   0.353   3.382   2.533 -0.1458  0.3069 -0.5124
  180SLPC  H12A20469   0.418   3.319   2.474  2.5631  0.3200  2.2053
  180SLPC  H12B20470   0.390   3.483   2.528  0.0301  0.5745  3.2743
  180SLPC   C1120471   0.216   3.372   2.461  0.5027 -0.3637 -0.0321
  180SLPC  H11A20472   0.133   3.397   2.531  0.1134  2.7690 -1.4359
  180SLPC  H11B20473   0.203   3.271   2.417 -0.4123  0.2557 -1.2232
  180SLPC     P20474   0.189   3.614   2.377  0.1466  0.1872  0.0018
  180SLPC   O1320475   0.302   3.690   2.327 -0.6544 -0.4981 -0.1531
  180SLPC   O1420476   0.052   3.636   2.318  0.0353 -0.2765 -0.5951
  180SLPC   O1220477   0.223   3.462   2.353 -0.2945  0.2375  0.1182
  180SLPC   O1120478   0.198   3.634   2.547 -1.0218  0.4210 -0.1758
  180SLPC    C120479   0.221   3.766   2.596 -0.4734 -0.0187 -0.0357
  180SLPC    HA20480   0.200   3.842   2.517 -1.3652  2.0259  2.0202
  180SLPC    HB20481   0.150   3.790   2.678 -0.0942  0.3545  0.1863
  180SLPC    C220482   0.364   3.793   2.648 -0.3691 -0.4073 -0.3552
  180SLPC    HS20483   0.434   3.723   2.599 -0.5561 -0.1947 -0.9368
  180SLPC   O2120484   0.367   3.776   2.791  1.1977  0.3256 -0.0656
  180SLPC   C2120485   0.480   3.733   2.846  0.7158 -0.3158 -1.1920
  180SLPC   O2220486   0.584   3.725   2.785 -0.3076 -0.3210 -0.2415
  180SLPC   C2220487   0.455   3.700   2.992 -0.1318 -0.5796 -0.4502
  180SLPC   H2R20488   0.423   3.793   3.045  0.9407  0.1560 -1.0528
  180SLPC   H2S20489   0.361   3.641   2.995 -0.7532  0.2038 -2.7391
  180SLPC    C320490   0.413   3.937   2.623 -0.3820 -1.2972 -0.1632
  180SLPC    HX20491   0.418   3.950   2.513  0.4736  0.9990  0.1054
  180SLPC    HY20492   0.522   3.952   2.636 -0.1759 -1.8730 -1.0968
  180SLPC   O3120493   0.334   4.044   2.683 -0.1412 -0.2222  0.8554
  180SLPC   C3120494   0.395   4.123   2.762  0.4206 -0.2421  0.3708
  180SLPC   O3220495   0.511   4.118   2.802 -0.0305 -0.0449  0.3082
  180SLPC   C3220496   0.297   4.238   2.804 -0.6347 -0.3410  0.0863
  180SLPC   H2X20497   0.202   4.185   2.827 -1.0121  0.7632  1.2101
  180SLPC   H2Y20498   0.276   4.308   2.721 -2.9312  0.6546  1.4074
  180SLPC   C2320499   0.562   3.622   3.054 -0.6212  0.8544  0.3894
  180SLPC   H3R20500   0.665   3.664   3.054  0.0109 -0.6513  0.1782
  180SLPC   H3S20501   0.563   3.520   3.010  0.8291  1.7656 -1.8482
  180SLPC   C2420502   0.536   3.620   3.206 -0.1094  0.6844 -0.4422
  180SLPC   H4R20503   0.430   3.588   3.216  0.1761  0.3145  1.8739
  180SLPC   H4S20504   0.549   3.724   3.243  0.3944  1.1301 -1.7931
  180SLPC   C2520505   0.628   3.522   3.286 -0.7206  0.2118 -0.3506
  180SLPC   H5R20506   0.729   3.569   3.284 -0.3689 -0.5042 -2.7570
  180SLPC   H5S20507   0.654   3.428   3.233  1.2336  0.3832  0.2325
  180SLPC   C2620508   0.575   3.490   3.432 -0.3447  0.4135  0.0752
  180SLPC   H6R20509   0.473   3.448   3.419 -0.2173  0.3783 -0.9341
  180SLPC   H6S20510   0.565   3.587   3.484  3.2083  0.5493  0.7642
  180SLPC   C2720511   0.680   3.408   3.518  0.4241 -0.1461  0.1337
  180SLPC   H7R20512   0.768   3.474   3.506 -1.1931  2.2181  0.5260
  180SLPC   H7S20513   0.690   3.308   3.471 -2.9397 -0.9244  0.7826
  180SLPC   C2820514   0.643   3.386   3.669 -1.2793  0.6420 -0.3886
  180SLPC   H8R20515   0.666   3.479   3.726  2.2197 -0.2257 -0.1734
  180SLPC   H8S20516   0.720   3.320   3.713 -3.2482 -1.1434  0.5876
  180SLPC   C2920517   0.503   3.340   3.706 -0.0792 -0.0650 -0.4783
  180SLPC   H9R20518   0.490   3.231   3.700 -1.5458 -0.1746  2.7235
  180SLPC  C21020519   0.395   3.409   3.753 -0.9632 -0.6023  0.4516
  180SLPC  H10R20520   0.302   3.357   3.780 -1.5341  0.7235  1.1184
  180SLPC  C21120521   0.391   3.558   3.787 -0.2090  0.5713  0.3217
  180SLPC  H11R20522   0.289   3.597   3.771 -0.5100  0.0555  0.9366
  180SLPC  H11S20523   0.457   3.617   3.719  0.5140 -0.7586 -0.1810
  180SLPC  C21220524   0.444   3.581   3.927  0.2637  0.3573  0.2813
  180SLPC  H12R20525   0.552   3.601   3.922  0.8711 -2.4223  0.6373
  180SLPC  C21320526   0.373   3.590   4.039  0.1061  0.5515 -0.8434
  180SLPC  H13R20527   0.426   3.591   4.135 -0.1743  2.0577 -0.6785
  180SLPC  C21420528   0.225   3.554   4.049  0.7126 -0.4260  0.1848
  180SLPC  H14R20529   0.171   3.585   3.957 -1.7700 -3.0206  0.6258
  180SLPC  H14S20530   0.187   3.618   4.131  0.3272  0.4788 -0.6870
  180SLPC  C21520531   0.202   3.405   4.082 -0.6937  0.1569 -0.4631
  180SLPC  H15R20532   0.254   3.372   4.175  0.6116  1.8375 -0.5396
  180SLPC  H15S20533   0.244   3.345   3.999  1.6397 -1.0372  1.4473
  180SLPC  C21620534   0.056   3.371   4.093 -0.0315  0.2922  0.4544
  180SLPC  H16R20535   0.006   3.428   4.012  1.5457 -0.0345 -0.7867
  180SLPC  H16S20536   0.024   3.403   4.195 -0.0896  0.5564  0.3546
  180SLPC  C21720537   0.027   3.222   4.065 -0.8486  0.3653 -0.0038
  180SLPC  H17R20538   0.085   3.171   3.986  0.8304 -2.1222  2.6145
  180SLPC  H17S20539  -0.083   3.207   4.051 -1.1083  2.0684  0.0585
  180SLPC  C21820540   0.057   3.147   4.189  0.1568 -0.4915  0.5839
  180SLPC  H18R20541  -0.007   3.187   4.271 -0.6047 -2.0471  0.7776
  180SLPC  H18S20542   0.164   3.157   4.217  0.3862  0.1489 -0.4659
  180SLPC  H18T20543   0.027   3.044   4.161 -1.5631  0.3878 -1.0400
  180SLPC   C3320544   0.361   4.322   2.924 -0.4409 -0.3230 -0.3899
  180SLPC   H3X20545   0.287   4.403   2.946 -0.1070 -0.4715  1.3731
  180SLPC   H3Y20546   0.454   4.372   2.889  0.2345 -0.9699  0.4422
  180SLPC   C3420547   0.366   4.243   3.064 -0.3808 -0.5043  0.3621
  180SLPC   H4X20548   0.422   4.147   3.074 -0.1438 -0.1739  2.9454
  180SLPC   H4Y20549   0.258   4.232   3.090 -0.2887 -0.6895  0.6774
  180SLPC   C3520550   0.410   4.339   3.177 -0.0157  0.4424 -0.0704
  180SLPC   H5X20551   0.358   4.437   3.164  0.3682  0.5392 -0.9561
  180SLPC   H5Y20552   0.518   4.360   3.192 -0.5495  1.9457  2.2876
  180SLPC   C3620553   0.362   4.284   3.315 -0.3920  0.3126  0.1734
  180SLPC   H6X20554   0.445   4.221   3.354 -0.5025  0.8137  1.2350
  180SLPC   H6Y20555   0.263   4.239   3.294 -0.3347  0.7009 -1.0141
  180SLPC   C3720556   0.339   4.398   3.412  0.3660 -0.1620 -0.8675
  180SLPC   H7X20557   0.275   4.479   3.372 -0.7997 -0.9111 -0.5443
  180SLPC   H7Y20558   0.434   4.444   3.446  0.5099 -2.1662  1.7546
  180SLPC   C3820559   0.265   4.339   3.534 -0.1589  0.3821 -0.3755
  180SLPC   H8X20560   0.333   4.268   3.586 -1.1682  0.2502  0.8198
  180SLPC   H8Y20561   0.173   4.282   3.512  1.3303 -2.1353 -0.4781
  180SLPC   C3920562   0.214   4.439   3.639  0.0175  0.0391  0.2148
  180SLPC   H9X20563   0.172   4.519   3.574 -0.9570 -1.7564 -1.4689
  180SLPC   H9Y20564   0.305   4.480   3.687 -0.5105  0.8324  0.5479
  180SLPC  C31020565   0.106   4.386   3.729 -0.0073  0.2138  0.3797
  180SLPC  H10X20566   0.116   4.276   3.733  3.3515  0.3329 -1.2196
  180SLPC  H10Y20567   0.006   4.399   3.682  0.5216 -1.4642 -1.3194
  180SLPC  C31120568   0.130   4.443   3.876  0.7537 -0.0956  0.0002
  180SLPC  H11X20569   0.127   4.554   3.873 -1.1009 -0.0948  0.7389
  180SLPC  H11Y20570   0.234   4.413   3.901  1.4616  0.3980 -2.1229
  180SLPC  C31220571   0.018   4.404   3.966 -0.2878 -0.4768  0.0616
  180SLPC  H12X20572   0.037   4.315   4.029 -0.2695  0.5853  1.6184
  180SLPC  H12Y20573  -0.073   4.394   3.903 -1.8009  1.5810  1.7772
  180SLPC  C31320574  -0.020   4.524   4.052 -0.1558 -0.5635 -0.2619
  180SLPC  H13X20575  -0.046   4.606   3.981  0.7549  2.6601  2.8126
  180SLPC  H13Y20576   0.074   4.567   4.093 -0.3559  2.0373 -2.2638
  180SLPC  C31420577  -0.131   4.489   4.148  0.3918  0.8622 -0.6639
  180SLPC  H14X20578  -0.192   4.422   4.085 -0.4317  2.2823 -1.4148
  180SLPC  H14Y20579  -0.180   4.587   4.165 -1.3171  0.1014 -1.0310
  180SLPC  C31520580  -0.079   4.417   4.271 -0.5443 -0.1552  0.2700
  180SLPC  H15X20581   0.004   4.469   4.322 -3.1288  2.0658  2.5315
  180SLPC  H15Y20582  -0.040   4.314   4.259 -0.0745  0.1904 -1.4233
  180SLPC  C31620583  -0.197   4.401   4.371 -0.1861  0.2296  0.0456
  180SLPC  H16X20584  -0.271   4.328   4.331  2.0447 -1.6353 -0.9052
  180SLPC  H16Y20585  -0.252   4.497   4.378 -0.7039 -0.1073  0.6559
  180SLPC  C31720586  -0.146   4.356   4.515  0.3150  0.3734  0.4659
  180SLPC  H17X20587  -0.226   4.379   4.588 -1.3845  0.4133 -1.3199
  180SLPC  H17Y20588  -0.064   4.430   4.525  0.9764  0.2622 -2.9470
  180SLPC  C31820589  -0.105   4.209   4.519 -0.1291 -0.0348  0.0992
  180SLPC  H18X20590  -0.069   4.181   4.620 -1.4384  0.0802  0.6196
  180SLPC  H18Y20591  -0.027   4.192   4.442  0.9985  3.5346  0.2537
  180SLPC  H18Z20592  -0.196   4.149   4.497 -1.8990  2.3157  0.5790
  181SLPC     N20593   0.971   2.627   2.280 -0.2528  0.5117  0.1708
  181SLPC   C1320594   0.873   2.568   2.183  0.2467  0.5142  0.6068
  181SLPC  H13A20595   0.883   2.462   2.164 -2.3897  0.2235  0.4148
  181SLPC  H13B20596   0.771   2.576   2.220 -1.0754 -2.1159 -2.0336
  181SLPC  H13C20597   0.880   2.619   2.088  0.5053  0.6185  0.6829
  181SLPC   C1420598   1.102   2.558   2.248 -0.1869  0.0954  0.7208
  181SLPC  H14A20599   1.193   2.590   2.297  3.2991 -0.4632 -4.4889
  181SLPC  H14B20600   1.102   2.455   2.280 -0.0325 -0.1359  0.0073
  181SLPC  H14C20601   1.128   2.559   2.143 -0.0075 -0.7376  0.7510
  181SLPC   C1520602   0.938   2.594   2.423 -0.3067  0.5862 -0.0267
  181SLPC  H15A20603   0.848   2.642   2.458  0.1244  1.7125 -0.4187
  181SLPC  H15B20604   0.931   2.487   2.436  2.1694  0.4311  0.6264
  181SLPC  H15C20605   1.013   2.629   2.493  0.7093  0.8044 -1.1913
  181SLPC   C1220606   0.976   2.776   2.262 -0.6123  0.0553 -0.3895
  181SLPC  H12A20607   1.008   2.804   2.162 -0.5486 -0.3632 -0.4862
  181SLPC  H12B20608   1.060   2.814   2.318  1.0731  0.1881 -2.8123
  181SLPC   C1120609   0.856   2.862   2.318  0.8082 -0.6036 -0.0842
  181SLPC  H11A20610   0.874   2.967   2.287  0.1714 -0.6376 -0.5784
  181SLPC  H11B20611   0.851   2.862   2.429 -1.0841  2.5587 -0.0404
  181SLPC     P20612   0.605   2.795   2.335  0.3229  0.5771  0.1156
  181SLPC   O1320613   0.490   2.815   2.250 -0.3733  0.5885  0.1690
  181SLPC   O1420614   0.624   2.664   2.397  0.0735 -0.0743  0.1187
  181SLPC   O1220615   0.730   2.833   2.257  0.3771  0.4247  0.0342
  181SLPC   O1120616   0.596   2.903   2.446 -0.3413 -0.0868 -0.4319
  181SLPC    C120617   0.533   2.880   2.575 -0.2593  0.0749  0.6403
  181SLPC    HA20618   0.433   2.929   2.575  0.2482  1.1437 -0.2825
  181SLPC    HB20619   0.514   2.771   2.587 -0.7820  0.3542  2.8621
  181SLPC    C220620   0.627   2.916   2.700  0.3479 -0.1366 -0.3674
  181SLPC    HS20621   0.648   3.023   2.679 -1.2939  0.1948 -0.3962
  181SLPC   O2120622   0.746   2.834   2.708  0.4178 -0.4619  0.4317
  181SLPC   C2120623   0.850   2.892   2.767  0.2312 -0.1878 -0.6504
  181SLPC   O2220624   0.839   3.004   2.822  0.4315 -0.5784 -0.3628
  181SLPC   C2220625   0.979   2.819   2.766 -0.1312  0.4713  0.3712
  181SLPC   H2R20626   1.017   2.835   2.663 -3.1390 -1.8190 -1.2474
  181SLPC   H2S20627   1.045   2.866   2.843  2.6230 -1.4505 -0.6377
  181SLPC    C320628   0.532   2.898   2.832 -0.2734  0.8842 -0.4895
  181SLPC    HX20629   0.489   2.797   2.818  0.0099  0.8470 -1.1610
  181SLPC    HY20630   0.439   2.955   2.814  0.4426  1.7547 -1.6281
  181SLPC   O3120631   0.604   2.911   2.952 -0.1708  0.6522 -0.1667
  181SLPC   C3120632   0.585   3.038   3.006 -0.2763  0.2121 -0.2574
  181SLPC   O3220633   0.506   3.120   2.965 -0.1318  0.4052 -0.2404
  181SLPC   C3220634   0.680   3.078   3.114 -0.8133  0.5801 -0.2882
  181SLPC   H2X20635   0.662   3.179   3.156  0.4015 -0.0362  1.9029
  181SLPC   H2Y20636   0.775   3.075   3.056 -0.8606 -1.5832 -0.3357
  181SLPC   C2320637   0.984   2.668   2.792 -0.3064 -0.8008 -0.5170
  181SLPC   H3R20638   1.093   2.647   2.790 -0.4508 -1.5418 -2.5324
  181SLPC   H3S20639   0.949   2.611   2.703  1.5392  0.9289 -2.4570
  181SLPC   C2420640   0.924   2.616   2.923 -0.2974  0.3400 -0.2338
  181SLPC   H4R20641   0.978   2.519   2.936 -0.1077  0.5001  0.1938
  181SLPC   H4S20642   0.814   2.604   2.918 -0.1184 -1.1311 -1.8332
  181SLPC   C2520643   0.977   2.703   3.042 -0.1470  0.6026  0.5024
  181SLPC   H5R20644   0.933   2.804   3.036  0.3604  0.9226  1.8973
  181SLPC   H5S20645   1.087   2.712   3.037  0.0631 -1.3245  0.7133
  181SLPC   C2620646   0.960   2.635   3.181 -0.2132  0.4076  0.2622
  181SLPC   H6R20647   1.004   2.534   3.192  0.4073  0.6042 -0.3278
  181SLPC   H6S20648   0.851   2.619   3.191 -0.2118 -1.1787 -1.7048
  181SLPC   C2720649   1.023   2.728   3.285  0.5459 -0.9734  0.3448
  181SLPC   H7R20650   0.958   2.810   3.321 -0.5146 -1.1078 -1.1635
  181SLPC   H7S20651   1.111   2.778   3.239  0.7023 -2.0155 -0.5493
  181SLPC   C2820652   1.064   2.644   3.404  0.4515  0.4053  0.3489
  181SLPC   H8R20653   1.119   2.559   3.356 -0.2695  0.9514 -1.5536
  181SLPC   H8S20654   0.969   2.601   3.443 -0.6399  2.6901  0.3564
  181SLPC   C2920655   1.141   2.727   3.507  0.7959  0.7203  0.7044
  181SLPC   H9R20656   1.192   2.816   3.466  2.1311 -0.5877 -0.5564
  181SLPC  C21020657   1.156   2.692   3.633  0.8287 -0.9525 -0.2148
  181SLPC  H10R20658   1.199   2.764   3.704 -0.8720 -0.2952  0.1814
  181SLPC  C21120659   1.099   2.571   3.701 -0.6414  0.2906 -0.0730
  181SLPC  H11R20660   1.165   2.486   3.675  0.2085  0.4793  1.3658
  181SLPC  H11S20661   1.012   2.534   3.643  0.3896  0.6724 -1.9724
  181SLPC  C21220662   1.064   2.581   3.845 -0.7642  0.4282 -0.2246
  181SLPC  H12R20663   1.025   2.675   3.886  0.7123  0.0640  2.2015
  181SLPC  C21320664   1.064   2.479   3.932 -0.0664 -0.3321  0.3472
  181SLPC  H13R20665   1.028   2.494   4.035  2.8039  1.4166  1.2010
  181SLPC  C21420666   1.096   2.339   3.899  0.2415  0.0148 -1.1825
  181SLPC  H14R20667   1.166   2.338   3.812  1.5731  0.0404 -0.1435
  181SLPC  H14S20668   1.009   2.279   3.865  0.0287 -0.1957 -0.2945
  181SLPC  C21520669   1.147   2.257   4.018  0.4503  0.6214  0.0078
  181SLPC  H15R20670   1.076   2.254   4.103 -1.1937  0.6616 -1.3223
  181SLPC  H15S20671   1.241   2.301   4.059  1.3017  0.2792 -1.4993
  181SLPC  C21620672   1.185   2.104   3.997 -0.6498 -0.4801  0.4819
  181SLPC  H16R20673   1.258   2.097   3.914 -0.0365 -0.3338  0.9992
  181SLPC  H16S20674   1.089   2.063   3.960 -0.2406 -0.2374 -0.9020
  181SLPC  C21720675   1.238   2.023   4.118  0.4456 -0.5258  0.1039
  181SLPC  H17R20676   1.155   2.034   4.192 -0.4844  3.4655 -1.2594
  181SLPC  H17S20677   1.336   2.066   4.146 -0.7489  2.0365  0.6415
  181SLPC  C21820678   1.257   1.874   4.088 -0.6277  0.1479 -0.1412
  181SLPC  H18R20679   1.350   1.845   4.034  0.6281 -0.7533  2.3730
  181SLPC  H18S20680   1.161   1.840   4.042 -2.3515  0.8327  2.7037
  181SLPC  H18T20681   1.270   1.822   4.185  2.0453  1.2147  0.1524
  181SLPC   C3320682   0.701   2.980   3.231 -0.2120  0.3923 -0.5689
  181SLPC   H3X20683   0.731   2.877   3.204  0.3506 -0.1946  2.0667
  181SLPC   H3Y20684   0.606   2.961   3.286  0.2305  0.2712  0.1561
  181SLPC   C3420685   0.788   3.052   3.330 -0.5557 -0.3102 -0.0463
  181SLPC   H4X20686   0.742   3.152   3.339  1.0304  0.4179  0.3978
  181SLPC   H4Y20687   0.886   3.071   3.281 -0.6300  0.8800  0.2517
  181SLPC   C3520688   0.786   2.991   3.470 -0.2530 -0.3956  0.5921
  181SLPC   H5X20689   0.803   2.881   3.473  0.4497 -0.3210 -0.4920
  181SLPC   H5Y20690   0.680   2.998   3.504 -0.1945  0.4582  0.6221
  181SLPC   C3620691   0.876   3.065   3.563  0.5432 -0.4846 -0.5464
  181SLPC   H6X20692   0.864   3.175   3.558  1.4883 -0.3598 -0.3470
  181SLPC   H6Y20693   0.977   3.042   3.521  0.6822 -0.9376  0.0182
  181SLPC   C3720694   0.863   3.005   3.704  0.0906  0.2192  0.1879
  181SLPC   H7X20695   0.865   2.894   3.705  1.0880  0.0988 -2.9396
  181SLPC   H7Y20696   0.768   3.036   3.751  2.0133  0.7404  4.0881
  181SLPC   C3820697   0.966   3.065   3.805 -0.0005 -0.3928  0.0322
  181SLPC   H8X20698   0.961   3.176   3.814 -1.0425 -0.1380 -2.7168
  181SLPC   H8Y20699   1.068   3.045   3.766  0.2466  0.2695  0.3091
  181SLPC   C3920700   0.954   3.012   3.947 -0.1196 -0.3213 -0.4349
  181SLPC   H9X20701   0.936   2.903   3.936 -4.1881  0.1810 -0.4451
  181SLPC   H9Y20702   0.857   3.050   3.984 -1.1198 -2.0481 -1.1557
  181SLPC  C31020703   1.065   3.041   4.039 -0.0326  0.2602 -0.4476
  181SLPC  H10X20704   1.065   3.149   4.062 -0.6625  0.4976 -1.4866
  181SLPC  H10Y20705   1.153   3.024   3.973 -0.3334  0.9601 -1.0427
  181SLPC  C31120706   1.070   2.948   4.166 -0.7166  0.3011 -0.8892
  181SLPC  H11X20707   1.078   2.843   4.131  4.4969  0.2765 -0.3907
  181SLPC  H11Y20708   0.980   2.970   4.227 -1.1157  2.0343 -2.0226
  181SLPC  C31220709   1.183   2.973   4.268 -0.6493 -0.0790  0.1814
  181SLPC  H12X20710   1.188   3.083   4.288 -1.7334  0.5744 -2.6665
  181SLPC  H12Y20711   1.268   2.948   4.202 -1.7324  1.2873 -1.8200
  181SLPC  C31320712   1.190   2.876   4.390  0.5764 -0.1553 -0.0756
  181SLPC  H13X20713   1.178   2.775   4.345  0.1961 -0.1086 -0.0762
  181SLPC  H13Y20714   1.106   2.893   4.461 -0.1629  0.7001 -1.1350
  181SLPC  C31420715   1.318   2.902   4.465 -0.4594  0.0041 -0.1325
  181SLPC  H14X20716   1.317   3.009   4.496 -0.3141 -0.6150  2.1972
  181SLPC  H14Y20717   1.404   2.885   4.397 -0.3684 -1.2725  0.2746
  181SLPC  C31520718   1.346   2.820   4.588  0.1012 -0.9844  0.1219
  181SLPC  H15X20719   1.345   2.715   4.554  0.3636 -1.0955  0.4514
  181SLPC  H15Y20720   1.262   2.831   4.661 -0.5811 -0.0472 -0.7736
  181SLPC  C31620721   1.470   2.876   4.657  0.6368 -0.4967  0.2084
  181SLPC  H16X20722   1.462   2.986   4.675 -0.7552 -0.7576  1.4897
  181SLPC  H16Y20723   1.551   2.872   4.582  0.8526  0.2360  0.3976
  181SLPC  C31720724   1.493   2.808   4.796  0.0589  1.1434 -0.0565
  181SLPC  H17X20725   1.397   2.814   4.851 -0.1776  1.8169 -0.5239
  181SLPC  H17Y20726   1.571   2.867   4.849 -0.0489  0.4441  0.8959
  181SLPC  C31820727   1.518   2.654   4.786  0.4915 -0.3243 -0.0832
  181SLPC  H18X20728   1.419   2.610   4.764  0.2365 -0.8441  1.8628
  181SLPC  H18Y20729   1.544   2.610   4.885 -1.2692  2.7577  1.9265
  181SLPC  H18Z20730   1.584   2.623   4.702 -2.3123 -1.6037 -1.9548
  182SLPC     N20731   4.713   0.648   2.368  0.3919 -0.0039 -0.0203
  182SLPC   C1320732   4.773   0.554   2.267 -0.0784 -0.2529 -0.1097
  182SLPC  H13A20733   4.710   0.474   2.231 -0.4676 -0.3829  0.8421
  182SLPC  H13B20734   4.814   0.599   2.177  0.0525 -1.2478 -0.5604
  182SLPC  H13C20735   4.858   0.498   2.303 -2.7587 -4.6079  0.1131
  182SLPC   C1420736   4.656   0.566   2.482 -0.6946 -0.1364  0.0967
  182SLPC  H14A20737   4.625   0.628   2.564  0.1006  1.5024 -0.8032
  182SLPC  H14B20738   4.565   0.521   2.445 -0.4764 -1.0434  0.6168
  182SLPC  H14C20739   4.731   0.499   2.523  0.5827  1.5107  0.5424
  182SLPC   C1520740   4.605   0.728   2.308 -0.2031 -0.6445 -0.1987
  182SLPC  H15A20741   4.538   0.756   2.388 -0.0768 -1.5134  0.2228
  182SLPC  H15B20742   4.649   0.814   2.259 -1.3313  0.4321  0.6114
  182SLPC  H15C20743   4.544   0.684   2.232  0.8397  3.7735 -4.0597
  182SLPC   C1220744   4.812   0.743   2.427 -0.5130  0.2541 -1.0650
  182SLPC  H12A20745   4.866   0.682   2.498 -1.3654 -0.9560 -1.4100
  182SLPC  H12B20746   4.761   0.817   2.486  0.8742  0.0812  0.4152
  182SLPC   C1120747   4.912   0.815   2.325 -0.0959  0.3837  0.0422
  182SLPC  H11A20748   4.964   0.736   2.266 -2.0962  0.4228 -1.9093
  182SLPC  H11B20749   4.981   0.861   2.399 -2.3400  1.1744  1.7487
  182SLPC     P20750   4.792   1.044   2.295  0.2121 -0.2266  0.4088
  182SLPC   O1320751   4.886   1.141   2.236  0.1821  0.2589 -0.6494
  182SLPC   O1420752   4.645   1.052   2.275 -0.0729  0.3315  0.2551
  182SLPC   O1220753   4.844   0.907   2.239  0.0229  0.2493 -0.4116
  182SLPC   O1120754   4.803   1.028   2.450  0.5973 -0.0644 -0.1538
  182SLPC    C120755   4.851   1.127   2.531 -0.2365  0.3890  0.1647
  182SLPC    HA20756   4.939   1.173   2.482 -0.7872  2.0884  0.7088
  182SLPC    HB20757   4.773   1.205   2.542 -0.6440 -0.1323  1.1287
  182SLPC    C220758   4.880   1.077   2.675 -1.1219 -0.3935 -0.0444
  182SLPC    HS20759   4.927   0.977   2.666  2.3754  0.8953  1.9042
  182SLPC   O2120760   4.764   1.088   2.765  0.0901  0.2391 -0.7271
  182SLPC   C2120761   4.682   0.987   2.744  0.3525 -0.4540 -0.1673
  182SLPC   O2220762   4.705   0.889   2.672  0.1025 -0.4483 -0.0828
  182SLPC   C2220763   4.553   1.015   2.825 -0.4858  0.5952  0.3395
  182SLPC   H2R20764   4.559   1.115   2.874 -1.4536  1.0735 -0.4789
  182SLPC   H2S20765   4.474   1.015   2.747  0.8917 -1.6472 -1.1659
  182SLPC    C320766   4.993   1.167   2.735  0.3840 -0.4485 -0.3067
  182SLPC    HX20767   4.958   1.272   2.722  2.5082  0.9369  3.4465
  182SLPC    HY20768   5.082   1.168   2.668  0.0665  1.6354 -0.7568
  182SLPC   O3120769   5.015   1.148   2.879 -0.2927 -0.0536  0.6596
  182SLPC   C3120770   5.094   1.047   2.908 -0.5583  0.4821  0.4860
  182SLPC   O3220771   5.133   0.965   2.826  0.2806  0.1476  0.4275
  182SLPC   C3220772   5.114   1.036   3.053 -0.9533 -0.3815  0.2340
  182SLPC   H2X20773   5.020   1.003   3.101 -0.0413 -2.2379  0.8521
  182SLPC   H2Y20774   5.134   1.139   3.089 -0.9782  0.2184 -1.3675
  182SLPC   C2320775   4.534   0.902   2.926 -0.2371  0.6787  0.3306
  182SLPC   H3R20776   4.540   0.809   2.865  0.8849  1.0060 -0.0745
  182SLPC   H3S20777   4.433   0.913   2.971 -0.9746 -0.3247 -0.9912
  182SLPC   C2420778   4.637   0.919   3.040  0.0115  0.2267 -0.1809
  182SLPC   H4R20779   4.627   1.021   3.082 -0.9771 -0.3355  1.0191
  182SLPC   H4S20780   4.744   0.902   3.016  0.2898  3.7719 -2.0511
  182SLPC   C2520781   4.598   0.829   3.156  0.0887  0.2798 -0.1986
  182SLPC   H5R20782   4.581   0.723   3.128 -2.7109  0.3855  0.7698
  182SLPC   H5S20783   4.505   0.870   3.202  0.9484  1.1375  0.8149
  182SLPC   C2620784   4.703   0.844   3.273 -0.1695 -0.1470  0.0943
  182SLPC   H6R20785   4.658   0.853   3.374 -1.4259  0.8851 -0.5140
  182SLPC   H6S20786   4.755   0.941   3.260  2.6687 -1.7438 -1.3277
  182SLPC   C2720787   4.809   0.732   3.260  0.3230  0.5053 -0.1278
  182SLPC   H7R20788   4.881   0.754   3.178 -0.5595 -0.4380 -1.1904
  182SLPC   H7S20789   4.779   0.626   3.245 -0.7821  0.3882  2.3820
  182SLPC   C2820790   4.908   0.724   3.382  0.4200 -0.3725  0.5745
  182SLPC   H8R20791   4.949   0.825   3.404 -0.2338  0.1057 -0.3237
  182SLPC   H8S20792   4.993   0.659   3.352 -1.0898 -3.6132  2.7721
  182SLPC   C2920793   4.861   0.669   3.517 -0.0556 -0.7696 -0.4691
  182SLPC   H9R20794   4.872   0.560   3.525 -1.0274 -0.7539  1.7985
  182SLPC  C21020795   4.806   0.729   3.627 -0.2634  0.9804  0.4546
  182SLPC  H10R20796   4.798   0.668   3.718  1.2992 -0.9514 -0.6066
  182SLPC  C21120797   4.776   0.871   3.651  0.4797  0.3207 -0.1150
  182SLPC  H11R20798   4.824   0.927   3.567  4.3837 -2.6876 -0.2083
  182SLPC  H11S20799   4.838   0.896   3.739 -2.0327  2.2110  1.2449
  182SLPC  C21220800   4.636   0.896   3.691 -0.3412  0.0949  0.1644
  182SLPC  H12R20801   4.577   0.938   3.608  3.0795  1.4447 -1.8259
  182SLPC  C21320802   4.581   0.894   3.806 -0.2328 -0.1525  0.5258
  182SLPC  H13R20803   4.476   0.926   3.812 -0.8044 -1.4246 -1.5740
  182SLPC  C21420804   4.648   0.843   3.932 -0.5704  0.5085 -0.0101
  182SLPC  H14R20805   4.753   0.807   3.929 -0.9065 -0.4500 -0.6887
  182SLPC  H14S20806   4.579   0.765   3.970 -2.1265  2.0816  0.5400
  182SLPC  C21520807   4.637   0.939   4.052 -0.2284 -0.4188 -0.0733
  182SLPC  H15R20808   4.541   0.913   4.100 -0.0380 -2.9602 -0.9174
  182SLPC  H15S20809   4.623   1.044   4.017 -2.3244 -0.5292  0.3308
  182SLPC  C21620810   4.755   0.927   4.158  0.3520  0.7398  0.5429
  182SLPC  H16R20811   4.854   0.954   4.115  1.7399 -4.7006 -0.4762
  182SLPC  H16S20812   4.766   0.816   4.163 -1.6791  0.4779  0.2072
  182SLPC  C21720813   4.740   0.982   4.300 -0.0719  0.1259  0.2262
  182SLPC  H17R20814   4.836   0.973   4.355  2.0790  0.8849 -3.0856
  182SLPC  H17S20815   4.665   0.922   4.356  1.1676 -0.5325  1.2379
  182SLPC  C21820816   4.683   1.124   4.307  0.1118  0.1438 -0.1107
  182SLPC  H18R20817   4.591   1.131   4.246  0.4795 -2.3232 -1.0596
  182SLPC  H18S20818   4.753   1.207   4.282 -1.3828  1.5410  0.1788
  182SLPC  H18T20819   4.657   1.151   4.412  1.1048  2.6069 -0.4291
  182SLPC   C3320820   5.214   0.931   3.102 -0.2373  0.5555 -0.0871
  182SLPC   H3X20821   5.305   0.961   3.046  0.1916 -0.1558  0.2024
  182SLPC   H3Y20822   5.175   0.831   3.072  2.6536 -1.3450  1.8872
  182SLPC   C3420823   5.246   0.940   3.250 -0.4926 -0.0231  0.2187
  182SLPC   H4X20824   5.148   0.924   3.301 -0.3807  1.5090  0.9781
  182SLPC   H4Y20825   5.273   1.047   3.268  0.3905 -0.1442 -0.3337
  182SLPC   C3520826   5.341   0.842   3.309 -0.3823  0.3663 -0.0385
  182SLPC   H5X20827   5.432   0.846   3.246  0.0471 -2.5122  0.2838
  182SLPC   H5Y20828   5.298   0.744   3.281 -1.2944  0.5337  0.7136
  182SLPC   C3620829   5.368   0.868   3.459  0.5868 -0.1520 -0.3053
  182SLPC   H6X20830   5.404   0.970   3.480  0.5213 -0.0687 -0.6052
  182SLPC   H6Y20831   5.441   0.789   3.488  0.2010 -0.0670  0.9807
  182SLPC   C3720832   5.244   0.835   3.542 -0.0665 -0.5630  0.3740
  182SLPC   H7X20833   5.181   0.747   3.518  0.7943 -1.3574  0.9833
  182SLPC   H7Y20834   5.170   0.917   3.531 -1.3819 -1.8352 -0.5935
  182SLPC   C3820835   5.283   0.832   3.690 -1.0486  0.6150 -0.5171
  182SLPC   H8X20836   5.351   0.917   3.711 -0.8579 -0.1585  2.3605
  182SLPC   H8Y20837   5.343   0.740   3.709  1.5211  2.0848 -1.0703
  182SLPC   C3920838   5.154   0.849   3.779 -0.4587  0.4904 -0.1148
  182SLPC   H9X20839   5.087   0.761   3.766  2.2921 -1.9579  1.1514
  182SLPC   H9Y20840   5.105   0.942   3.744  0.6402  1.5806  1.1639
  182SLPC  C31020841   5.176   0.877   3.933 -0.1675  0.3855  0.3640
  182SLPC  H10X20842   5.237   0.796   3.977  0.4690  0.2295 -0.7759
  182SLPC  H10Y20843   5.076   0.879   3.981 -0.1582  1.0622  0.3671
  182SLPC  C31120844   5.256   0.999   3.977  0.1334 -0.0658 -0.0715
  182SLPC  H11X20845   5.204   1.082   3.925 -1.9282  0.3113  2.3962
  182SLPC  H11Y20846   5.363   1.009   3.948  0.4965  0.9445  1.5156
  182SLPC  C31220847   5.256   1.012   4.129 -0.3717  0.2086 -0.1771
  182SLPC  H12X20848   5.314   0.927   4.170 -0.3562  0.3626  0.1213
  182SLPC  H12Y20849   5.149   1.006   4.157 -0.1715 -0.5214  0.4651
  182SLPC  C31320850   5.309   1.145   4.185  1.0581  0.5967 -0.7261
  182SLPC  H13X20851   5.263   1.220   4.117 -2.2872  1.0018  1.7110
  182SLPC  H13Y20852   5.419   1.157   4.188  1.1257  0.1271 -1.2594
  182SLPC  C31420853   5.248   1.178   4.329 -0.0572  0.1480 -0.3343
  182SLPC  H14X20854   5.283   1.089   4.386  0.2849  0.6520  0.2597
  182SLPC  H14Y20855   5.138   1.173   4.326 -0.1279 -0.1317  1.4401
  182SLPC  C31520856   5.305   1.303   4.407 -0.7430 -0.2768 -0.4389
  182SLPC  H15X20857   5.415   1.314   4.392 -1.2541  2.3567 -3.3843
  182SLPC  H15Y20858   5.276   1.299   4.514 -0.7431  1.0400 -0.3765
  182SLPC  C31620859   5.247   1.432   4.353 -0.8274  0.6798 -0.1077
  182SLPC  H16X20860   5.194   1.480   4.438 -0.2953  0.3922  0.3876
  182SLPC  H16Y20861   5.181   1.405   4.268  0.9633 -1.8751 -0.8322
  182SLPC  C31720862   5.347   1.528   4.290  0.2023  0.0483  0.2486
  182SLPC  H17X20863   5.291   1.595   4.221  0.3081  0.8402  0.9150
  182SLPC  H17Y20864   5.405   1.476   4.212 -1.8795 -1.7568 -0.1836
  182SLPC  C31820865   5.433   1.611   4.385  0.7158  0.1087  0.0978
  182SLPC  H18X20866   5.375   1.622   4.480 -0.1300  0.0421 -0.4060
  182SLPC  H18Y20867   5.476   1.703   4.340  1.4183 -0.7621 -1.0613
  182SLPC  H18Z20868   5.519   1.547   4.416 -0.3007 -1.6997 -0.7065
  183SLPC     N20869   6.094   5.715   2.156  0.4284  0.4168  0.3041
  183SLPC   C1320870   5.975   5.770   2.244 -0.2807  0.4357  0.1428
  183SLPC  H13A20871   6.024   5.849   2.299  1.5155  0.2389 -1.0679
  183SLPC  H13B20872   5.891   5.806   2.186 -2.4456  1.0698  3.4590
  183SLPC  H13C20873   5.947   5.697   2.318 -2.0633  0.9666  0.0253
  183SLPC   C1420874   6.042   5.606   2.065 -0.5652  0.1303  0.5263
  183SLPC  H14A20875   6.006   5.520   2.120  0.8574 -0.9510 -0.1682
  183SLPC  H14B20876   5.959   5.642   2.005 -0.6754 -1.6066 -0.4403
  183SLPC  H14C20877   6.115   5.573   1.992 -0.2146  1.1570  0.3912
  183SLPC   C1520878   6.191   5.655   2.255  0.0670  0.0102  0.8597
  183SLPC  H15A20879   6.271   5.608   2.199  0.7553  1.0856  0.9073
  183SLPC  H15B20880   6.238   5.739   2.305 -1.1635  1.1002  0.2263
  183SLPC  H15C20881   6.142   5.582   2.317 -2.4668  0.7582 -0.1357
  183SLPC   C1220882   6.162   5.827   2.080 -0.2089  0.5549  0.2418
  183SLPC  H12A20883   6.102   5.872   2.003  0.3105  2.8553  1.0964
  183SLPC  H12B20884   6.252   5.792   2.030 -0.3265  2.2762 -1.2670
  183SLPC   C1120885   6.217   5.955   2.147  0.2522 -0.1751 -0.1441
  183SLPC  H11A20886   6.130   6.010   2.187  0.3299  0.1681 -0.4459
  183SLPC  H11B20887   6.267   6.017   2.069  0.8151 -0.1379  0.2351
  183SLPC     P20888   6.468   5.927   2.208  0.1476  0.0078 -0.6040
  183SLPC   O1320889   6.492   5.853   2.084  0.5993 -0.0467  0.2356
  183SLPC   O1420890   6.514   6.069   2.207 -0.2479 -0.2677  0.2628
  183SLPC   O1220891   6.317   5.925   2.247 -0.0354 -0.4229 -0.0989
  183SLPC   O1120892   6.548   5.862   2.322  0.0826 -0.2967 -0.4619
  183SLPC    C120893   6.493   5.870   2.455 -0.4053  0.0393  0.2598
  183SLPC    HA20894   6.522   5.968   2.498  0.0894 -0.1229  0.2972
  183SLPC    HB20895   6.382   5.859   2.456 -0.4507  0.1975 -1.0660
  183SLPC    C220896   6.562   5.767   2.541  0.6706  0.3408 -1.1311
  183SLPC    HS20897   6.531   5.665   2.509 -1.4726  0.5978 -0.0812
  183SLPC   O2120898   6.509   5.801   2.672 -0.5738 -0.5273  0.1233
  183SLPC   C2120899   6.501   5.696   2.760  0.4451 -0.5083 -0.1735
  183SLPC   O2220900   6.532   5.578   2.744  0.1168 -0.0869  0.2009
  183SLPC   C2220901   6.441   5.749   2.899  0.5298 -0.1449  0.0230
  183SLPC   H2R20902   6.528   5.798   2.948  0.0787  1.2167 -0.5050
  183SLPC   H2S20903   6.367   5.828   2.873  0.3959 -0.4934 -0.6684
  183SLPC    C320904   6.718   5.786   2.530  0.6650  0.1336 -0.0495
  183SLPC    HX20905   6.729   5.896   2.527  1.6196  0.0270 -1.0729
  183SLPC    HY20906   6.754   5.750   2.431 -0.9331  1.1570 -1.0415
  183SLPC   O3120907   6.782   5.751   2.655  0.1714  0.6121  0.1913
  183SLPC   C3120908   6.860   5.646   2.656 -0.3037  0.3408 -0.6735
  183SLPC   O3220909   6.877   5.570   2.560 -0.8089  0.1412 -0.1220
  183SLPC   C3220910   6.927   5.617   2.787  0.8349 -0.2169  0.3724
  183SLPC   H2X20911   6.989   5.703   2.820  0.4759 -0.3811  1.5501
  183SLPC   H2Y20912   6.999   5.538   2.757  0.5784  0.3864 -2.0056
  183SLPC   C2320913   6.385   5.638   2.994  0.7002 -0.9057 -0.3235
  183SLPC   H3R20914   6.447   5.547   2.977 -3.1400 -3.6129 -1.4979
  183SLPC   H3S20915   6.285   5.611   2.952 -0.1650 -1.5846  2.0069
  183SLPC   C2420916   6.376   5.675   3.140  0.4280  0.3501 -0.0328
  183SLPC   H4R20917   6.469   5.722   3.179 -1.1147  2.5921  1.1871
  183SLPC   H4S20918   6.370   5.580   3.198  2.0297  0.5892  0.5808
  183SLPC   C2520919   6.255   5.761   3.178 -0.3470 -0.1502  0.1559
  183SLPC   H5R20920   6.167   5.698   3.153 -1.1982  0.8180  0.6524
  183SLPC   H5S20921   6.259   5.846   3.107  0.2565 -0.3628 -0.0770
  183SLPC   C2620922   6.243   5.816   3.321 -0.0197  0.1659 -0.1385
  183SLPC   H6R20923   6.321   5.894   3.330  0.1484  0.1053 -0.9597
  183SLPC   H6S20924   6.271   5.736   3.393 -2.6989 -0.6817  0.0613
  183SLPC   C2720925   6.102   5.861   3.335 -0.4109  0.2357  0.0012
  183SLPC   H7R20926   6.021   5.787   3.315 -1.0240  0.2543  2.1871
  183SLPC   H7S20927   6.092   5.939   3.257 -2.3803 -0.5947 -0.6431
  183SLPC   C2820928   6.072   5.930   3.470 -0.1961  0.3335  0.5635
  183SLPC   H8R20929   5.967   5.965   3.468 -0.0889  0.6888  0.9387
  183SLPC   H8S20930   6.133   6.023   3.478 -1.2218  0.9738  1.1656
  183SLPC   C2920931   6.091   5.839   3.591  0.1212 -0.3191 -0.3140
  183SLPC   H9R20932   6.192   5.796   3.600  1.7805  3.4736  0.9487
  183SLPC  C21020933   5.994   5.797   3.675 -1.2110 -0.3091  0.0410
  183SLPC  H10R20934   6.021   5.716   3.745 -3.1093 -2.2581 -1.3148
  183SLPC  C21120935   5.847   5.820   3.677  0.0576  0.0084  0.0623
  183SLPC  H11R20936   5.825   5.796   3.571  2.2352 -0.5005 -0.3235
  183SLPC  H11S20937   5.815   5.924   3.699  1.6267  0.3513  0.8625
  183SLPC  C21220938   5.770   5.727   3.764 -0.1404  1.0586  0.1061
  183SLPC  H12R20939   5.719   5.645   3.712 -1.2252 -0.0534  2.7279
  183SLPC  C21320940   5.768   5.724   3.902 -0.3617  0.3392 -0.3274
  183SLPC  H13R20941   5.712   5.643   3.952  1.9854  0.0580  2.0665
  183SLPC  C21420942   5.823   5.831   3.988 -0.0661  0.0417  0.5353
  183SLPC  H14R20943   5.753   5.916   4.001  0.1506  0.1104  1.2908
  183SLPC  H14S20944   5.911   5.882   3.943 -0.2318  0.9527  1.2206
  183SLPC  C21520945   5.853   5.777   4.137 -0.1328  0.4498  0.1406
  183SLPC  H15R20946   5.945   5.716   4.131  0.2143  1.1105 -2.5459
  183SLPC  H15S20947   5.765   5.730   4.186  0.5001 -0.2388  0.6364
  183SLPC  C21620948   5.877   5.894   4.239 -0.4817  0.6071 -0.3057
  183SLPC  H16R20949   5.883   5.851   4.341  0.9756  1.3245 -0.0602
  183SLPC  H16S20950   5.791   5.964   4.250 -1.5317 -0.7838  0.6567
  183SLPC  C21720951   6.003   5.983   4.216 -0.5261  0.1353  0.3308
  183SLPC  H17R20952   5.984   6.068   4.147  2.1655  1.2656  0.8529
  183SLPC  H17S20953   6.075   5.915   4.167  0.1603  1.0832  0.0093
  183SLPC  C21820954   6.071   6.039   4.345 -0.2495 -0.7324 -0.6436
  183SLPC  H18R20955   6.030   6.135   4.381  2.3572  0.0826  0.3676
  183SLPC  H18S20956   6.177   6.068   4.331 -0.5860  1.4094  0.8856
  183SLPC  H18T20957   6.071   5.971   4.433 -3.0378  1.8092  1.5266
  183SLPC   C3320958   6.850   5.565   2.907  0.7071  0.0668  0.3508
  183SLPC   H3X20959   6.928   5.501   2.955  3.0958  2.8028  0.4103
  183SLPC   H3Y20960   6.755   5.511   2.889  0.2404  0.5734  1.2095
  183SLPC   C3420961   6.821   5.660   3.021 -0.1566 -0.2769  0.4649
  183SLPC   H4X20962   6.744   5.733   2.988 -1.6638 -1.2339  1.6981
  183SLPC   H4Y20963   6.916   5.711   3.048  0.1377 -0.1564 -0.7374
  183SLPC   C3520964   6.753   5.596   3.146 -0.5157 -0.3383  0.1919
  183SLPC   H5X20965   6.810   5.507   3.180 -0.0060 -0.0419  0.1158
  183SLPC   H5Y20966   6.648   5.566   3.124 -1.0265  0.5667  1.2920
  183SLPC   C3620967   6.743   5.698   3.261 -0.3127  0.2649 -0.4751
  183SLPC   H6X20968   6.684   5.787   3.230 -0.1111  0.1631 -1.1674
  183SLPC   H6Y20969   6.839   5.719   3.315 -1.1364  1.0112  0.7584
  183SLPC   C3720970   6.663   5.626   3.366 -0.2720 -0.0292  0.0180
  183SLPC   H7X20971   6.725   5.545   3.410 -0.3598  0.1187  0.4128
  183SLPC   H7Y20972   6.575   5.571   3.325  0.0242  0.7997 -1.8426
  183SLPC   C3820973   6.617   5.743   3.454  0.2137  0.2093 -0.0475
  183SLPC   H8X20974   6.530   5.785   3.398 -2.2501 -3.3581  0.6836
  183SLPC   H8Y20975   6.701   5.813   3.472  0.5222  0.7751 -3.0399
  183SLPC   C3920976   6.568   5.696   3.586 -0.0765 -0.2510 -1.1553
  183SLPC   H9X20977   6.652   5.647   3.641 -0.8466 -1.1414 -0.7403
  183SLPC   H9Y20978   6.502   5.607   3.570 -0.8392  0.0988 -0.0785
  183SLPC  C31020979   6.488   5.799   3.670 -0.6180 -0.8499  0.1424
  183SLPC  H10X20980   6.402   5.825   3.606  1.0683  1.1182 -1.4888
  183SLPC  H10Y20981   6.544   5.893   3.691 -1.6674 -0.2375  0.2379
  183SLPC  C31120982   6.452   5.755   3.812 -1.2234  0.2482 -0.3660
  183SLPC  H11X20983   6.547   5.709   3.849 -0.9586 -0.2726 -1.6501
  183SLPC  H11Y20984   6.382   5.672   3.791 -1.8489  0.8607 -0.7397
  183SLPC  C31220985   6.378   5.852   3.898 -0.1220 -0.2291  0.9558
  183SLPC  H12X20986   6.287   5.896   3.850  0.6437 -0.5169 -0.8250
  183SLPC  H12Y20987   6.446   5.934   3.927  0.7270 -0.0838 -1.2649
  183SLPC  C31320988   6.349   5.783   4.033  0.7251  0.4548  0.6756
  183SLPC  H13X20989   6.277   5.700   4.015  1.2307  0.2298 -0.3346
  183SLPC  H13Y20990   6.297   5.858   4.096 -0.0281  0.5718 -0.0647
  183SLPC  C31420991   6.464   5.731   4.120  0.4271  0.0883  0.4053
  183SLPC  H14X20992   6.521   5.648   4.073  4.8191  3.0218 -0.0261
  183SLPC  H14Y20993   6.419   5.696   4.215 -3.8295  1.6843 -0.7871
  183SLPC  C31520994   6.566   5.837   4.156 -0.1864 -0.5486 -0.7749
  183SLPC  H15X20995   6.508   5.915   4.210  1.7803  1.1226 -0.9579
  183SLPC  H15Y20996   6.616   5.872   4.063  0.2575  0.3763 -0.1968
  183SLPC  C31620997   6.664   5.791   4.263  0.9620 -0.6043  0.5042
  183SLPC  H16X20998   6.733   5.711   4.227  0.3181 -1.0834  0.3147
  183SLPC  H16Y20999   6.596   5.731   4.328 -0.2961  0.4601  0.2168
  183SLPC  C31721000   6.738   5.900   4.338 -0.0092  0.0557  0.0470
  183SLPC  H17X21001   6.826   5.856   4.390  0.8766  0.3756 -1.1515
  183SLPC  H17Y21002   6.684   5.952   4.420  0.8854 -0.2327  0.8430
  183SLPC  C31821003   6.808   6.008   4.246 -0.4896  0.4057 -0.4906
  183SLPC  H18X21004   6.874   5.955   4.173  0.2269 -0.1977  0.5646
  183SLPC  H18Y21005   6.874   6.071   4.309  1.4309 -1.0908 -0.8962
  183SLPC  H18Z21006   6.729   6.071   4.202  0.3757  1.1362 -1.0401
  184SLPC     N21007   0.619   5.992   2.098  0.3496  0.1593  0.2378
  184SLPC   C1321008   0.526   6.020   2.207  0.9818 -0.1122 -0.0418
  184SLPC  H13A21009   0.500   5.937   2.272 -0.7240 -0.4822 -1.1083
  184SLPC  H13B21010   0.564   6.099   2.270 -0.9214 -0.7416  2.0393
  184SLPC  H13C21011   0.434   6.059   2.167  0.2242 -2.5436 -0.8734
  184SLPC   C1421012   0.654   6.121   2.029  0.2316  0.5752 -0.1053
  184SLPC  H14A21013   0.712   6.185   2.094  1.8393 -0.9914  0.0997
  184SLPC  H14B21014   0.719   6.089   1.949  0.2174 -0.9519  0.4632
  184SLPC  H14C21015   0.576   6.177   1.980 -0.3372 -3.0797 -3.9742
  184SLPC   C1521016   0.548   5.904   1.998  0.1921 -0.5629 -0.5205
  184SLPC  H15A21017   0.598   5.899   1.903 -1.2530  0.7434 -1.3902
  184SLPC  H15B21018   0.530   5.801   2.025 -1.4742 -0.2972 -0.4805
  184SLPC  H15C21019   0.452   5.953   1.984  0.6384  0.2708 -0.7304
  184SLPC   C1221020   0.754   5.927   2.145  0.6114 -0.7685 -0.1050
  184SLPC  H12A21021   0.811   5.905   2.056 -0.1549 -2.1767 -0.2817
  184SLPC  H12B21022   0.722   5.833   2.189 -0.1305 -0.1872  0.6464
  184SLPC   C1121023   0.840   6.007   2.243 -0.1970  0.4075 -0.1424
  184SLPC  H11A21024   0.921   5.939   2.277 -0.7396 -0.6610 -0.9267
  184SLPC  H11B21025   0.774   6.031   2.330 -0.4507 -1.7487  0.3108
  184SLPC     P21026   1.013   6.138   2.091  0.2362  0.4200  0.1424
  184SLPC   O1321027   1.013   6.016   2.005  0.5132 -0.0538  0.3440
  184SLPC   O1421028   1.014   6.270   2.023 -0.3070 -0.6083 -0.1470
  184SLPC   O1221029   0.885   6.134   2.183 -0.1729  0.7301  0.6097
  184SLPC   O1121030   1.126   6.125   2.200  0.1643 -0.7081  0.4482
  184SLPC    C121031   1.191   6.218   2.281  0.3519 -0.3036  0.4783
  184SLPC    HA21032   1.300   6.207   2.263  0.3061  0.6420 -0.4429
  184SLPC    HB21033   1.167   6.324   2.259  1.1725 -0.0075  0.9458
  184SLPC    C221034   1.172   6.178   2.428 -0.8210 -0.0727  0.0927
  184SLPC    HS21035   1.185   6.068   2.439 -0.8321 -0.2551 -1.4835
  184SLPC   O2121036   1.050   6.228   2.480  0.7008  0.0463  0.3882
  184SLPC   C2121037   0.989   6.153   2.572  0.3738  0.5403 -0.2821
  184SLPC   O2221038   1.024   6.035   2.596 -0.8658 -0.2470  0.1148
  184SLPC   C2221039   0.871   6.224   2.636  0.0122  0.4491 -0.6288
  184SLPC   H2R21040   0.922   6.313   2.679  1.4424 -0.4774 -0.3456
  184SLPC   H2S21041   0.800   6.253   2.555 -0.2338 -1.0758 -0.9800
  184SLPC    C321042   1.287   6.247   2.510  0.4255 -0.7182 -0.3220
  184SLPC    HX21043   1.287   6.351   2.470  0.3952 -0.4154  0.4559
  184SLPC    HY21044   1.377   6.191   2.479 -0.1171 -0.7355 -1.9857
  184SLPC   O3121045   1.261   6.239   2.651 -0.2945 -0.2926  0.3078
  184SLPC   C3121046   1.219   6.354   2.711 -0.0033 -0.2580 -0.4999
  184SLPC   O3221047   1.190   6.460   2.650 -0.4631  0.3407 -0.6012
  184SLPC   C3221048   1.188   6.326   2.860  0.5604 -0.3967 -0.3717
  184SLPC   H2X21049   1.284   6.289   2.899  1.0045  1.9510  0.9624
  184SLPC   H2Y21050   1.110   6.247   2.869  1.1837 -1.0006 -0.2602
  184SLPC   C2321051   0.802   6.140   2.747 -0.7125  0.3311  0.5515
  184SLPC   H3R21052   0.861   6.090   2.827 -0.0311  0.9530  0.4476
  184SLPC   H3S21053   0.735   6.068   2.696 -1.2694  1.1215  0.1475
  184SLPC   C2421054   0.726   6.247   2.828 -0.2866  0.8845  0.2996
  184SLPC   H4R21055   0.694   6.335   2.767 -0.2088 -0.7581 -2.2550
  184SLPC   H4S21056   0.781   6.274   2.921 -0.4924 -0.2251  0.7594
  184SLPC   C2521057   0.596   6.189   2.893 -0.1956 -0.2459 -1.3736
  184SLPC   H5R21058   0.618   6.089   2.937 -0.2568 -0.3564 -1.5909
  184SLPC   H5S21059   0.522   6.180   2.811  0.4423  1.3167 -2.1608
  184SLPC   C2621060   0.535   6.280   2.998 -0.7013 -0.0613 -0.3145
  184SLPC   H6R21061   0.506   6.382   2.967  0.4895  0.5823  0.6235
  184SLPC   H6S21062   0.622   6.293   3.065  0.5279 -1.1860 -1.6285
  184SLPC   C2721063   0.408   6.219   3.064  0.1929  0.4686  0.3237
  184SLPC   H7R21064   0.344   6.191   2.978 -2.4060  4.3708  0.7351
  184SLPC   H7S21065   0.349   6.293   3.121  1.9908  1.4648  0.9851
  184SLPC   C2821066   0.449   6.101   3.157  1.0578  0.0301 -0.0417
  184SLPC   H8R21067   0.493   6.015   3.101 -0.5534 -1.2273  0.5400
  184SLPC   H8S21068   0.355   6.059   3.198  0.5875  0.2082 -0.9240
  184SLPC   C2921069   0.545   6.152   3.263 -0.2214 -0.2192 -0.9950
  184SLPC   H9R21070   0.643   6.184   3.225  0.0650  1.8878  1.2731
  184SLPC  C21021071   0.519   6.173   3.393  0.5375 -0.3250 -0.8348
  184SLPC  H10R21072   0.597   6.209   3.462 -1.5697 -0.4333  1.7619
  184SLPC  C21121073   0.398   6.134   3.465 -0.0259  0.4498 -0.0686
  184SLPC  H11R21074   0.405   6.035   3.516 -1.7606  1.0055  1.3654
  184SLPC  H11S21075   0.322   6.103   3.390  1.1685 -0.0825 -1.0848
  184SLPC  C21221076   0.344   6.237   3.568 -0.5204  0.2023  0.5826
  184SLPC  H12R21077   0.382   6.227   3.671 -1.1104 -0.0537  0.7786
  184SLPC  C21321078   0.258   6.341   3.551  0.4439  0.3885 -0.0839
  184SLPC  H13R21079   0.239   6.415   3.631  0.3072 -1.4779  1.6756
  184SLPC  C21421080   0.199   6.365   3.411  0.1096 -0.3175 -0.8374
  184SLPC  H14R21081   0.094   6.394   3.430  0.2441 -0.5919  0.4268
  184SLPC  H14S21082   0.195   6.269   3.355  3.2589 -0.8791 -0.3130
  184SLPC  C21521083   0.273   6.484   3.335 -0.1682 -0.2801  0.3215
  184SLPC  H15R21084   0.227   6.514   3.238  0.8342  0.2842 -0.0007
  184SLPC  H15S21085   0.373   6.458   3.295 -0.9752 -0.6785 -1.5275
  184SLPC  C21621086   0.294   6.608   3.427 -0.1109  0.3054  0.2211
  184SLPC  H16R21087   0.371   6.583   3.505 -1.7988  0.6765  2.0881
  184SLPC  H16S21088   0.208   6.605   3.497 -0.0148 -1.2511  0.3116
  184SLPC  C21721089   0.319   6.746   3.352 -0.5564  0.2197  0.8690
  184SLPC  H17R21090   0.233   6.747   3.282 -0.6419 -0.8455  0.9404
  184SLPC  H17S21091   0.412   6.727   3.295 -0.5348 -0.4526  1.1231
  184SLPC  C21821092   0.320   6.858   3.449  0.5901 -0.6201  0.9810
  184SLPC  H18R21093   0.221   6.864   3.499  0.1457 -0.1514  0.0668
  184SLPC  H18S21094   0.344   6.958   3.406 -0.3183 -0.5101  0.7110
  184SLPC  H18T21095   0.401   6.835   3.521  2.5606  0.0264 -0.9202
  184SLPC   C3321096   1.133   6.449   2.937 -0.0320 -0.2318  0.5847
  184SLPC   H3X21097   1.030   6.471   2.901 -0.4686 -1.3295  1.1302
  184SLPC   H3Y21098   1.202   6.535   2.925 -0.9948  0.6072  0.9080
  184SLPC   C3421099   1.135   6.427   3.091  0.2223 -0.6689  0.4552
  184SLPC   H4X21100   1.072   6.340   3.117 -0.2795 -0.4350  0.0432
  184SLPC   H4Y21101   1.088   6.517   3.136  1.2350 -0.3141  0.8276
  184SLPC   C3521102   1.266   6.413   3.155  0.0955  0.2062  0.5109
  184SLPC   H5X21103   1.332   6.477   3.093 -1.2124 -0.4901 -1.7162
  184SLPC   H5Y21104   1.307   6.310   3.149 -0.6837 -0.0523 -0.9931
  184SLPC   C3621105   1.257   6.463   3.298 -0.1552 -0.1284  0.4097
  184SLPC   H6X21106   1.194   6.555   3.301 -2.0971 -1.3990  2.7746
  184SLPC   H6Y21107   1.360   6.492   3.329  0.0551  1.3918 -1.5705
  184SLPC   C3721108   1.200   6.361   3.396 -0.3471 -0.4611 -0.2980
  184SLPC   H7X21109   1.261   6.269   3.398  0.1329 -0.1495  1.6295
  184SLPC   H7Y21110   1.097   6.344   3.359 -1.8981  4.2286  1.0413
  184SLPC   C3821111   1.199   6.426   3.542  0.4056  0.1897  0.0947
  184SLPC   H8X21112   1.133   6.514   3.559  0.9699  0.5459  0.4981
  184SLPC   H8Y21113   1.307   6.449   3.557  0.8210 -2.0288  0.8252
  184SLPC   C3921114   1.151   6.326   3.648 -0.4896 -0.6131 -0.4941
  184SLPC   H9X21115   1.183   6.226   3.612 -2.5310 -0.5193 -2.8834
  184SLPC   H9Y21116   1.040   6.326   3.659 -0.3093  0.8855  2.0190
  184SLPC  C31021117   1.185   6.354   3.799 -0.1978  0.3736  0.2075
  184SLPC  H10X21118   1.139   6.453   3.819 -1.4457 -0.1438 -0.0444
  184SLPC  H10Y21119   1.295   6.346   3.811 -0.2889 -0.0428  0.8163
  184SLPC  C31121120   1.138   6.245   3.897  0.1196 -0.3910  0.1343
  184SLPC  H11X21121   1.187   6.149   3.870 -0.5070 -0.9670  0.9775
  184SLPC  H11Y21122   1.030   6.233   3.873  0.1124  1.2811 -0.7971
  184SLPC  C31221123   1.178   6.268   4.048 -0.4714  0.5074 -0.1995
  184SLPC  H12X21124   1.123   6.351   4.096 -2.0859 -1.6105  1.8221
  184SLPC  H12Y21125   1.285   6.294   4.059 -0.6422  0.5123  1.7142
  184SLPC  C31321126   1.148   6.145   4.133 -0.3612 -0.6299 -0.1621
  184SLPC  H13X21127   1.216   6.061   4.107 -1.6747 -1.9534  0.5075
  184SLPC  H13Y21128   1.045   6.107   4.116 -0.7287  0.3364 -0.1190
  184SLPC  C31421129   1.179   6.161   4.284  0.0720  0.0758 -0.5324
  184SLPC  H14X21130   1.112   6.241   4.321 -1.4300 -0.5684 -1.7369
  184SLPC  H14Y21131   1.287   6.185   4.295 -0.2852  1.4215  0.2881
  184SLPC  C31521132   1.145   6.024   4.350  0.0492 -0.1859 -0.5843
  184SLPC  H15X21133   1.183   6.030   4.454  3.1363  0.0332 -1.5901
  184SLPC  H15Y21134   1.201   5.944   4.296 -0.6791  0.3894 -2.2815
  184SLPC  C31621135   0.997   5.994   4.350 -0.3938  0.7181  0.4598
  184SLPC  H16X21136   0.946   5.970   4.254 -0.4023 -2.7786  1.2029
  184SLPC  H16Y21137   0.948   6.087   4.386 -2.8179  0.8166 -2.6796
  184SLPC  C31721138   0.952   5.881   4.447 -0.3954  0.1607 -0.4560
  184SLPC  H17X21139   0.843   5.879   4.425 -0.2295 -0.9579 -1.3005
  184SLPC  H17Y21140   0.967   5.938   4.541 -2.6087  0.1529 -0.0443
  184SLPC  C31821141   1.006   5.736   4.443 -0.7107  0.2485 -0.1492
  184SLPC  H18X21142   1.000   5.689   4.343 -2.4873  0.3608 -0.1316
  184SLPC  H18Y21143   0.947   5.670   4.510  0.0860 -0.0023  0.3214
  184SLPC  H18Z21144   1.113   5.749   4.471 -1.3178  3.0609  1.2885
  185POPC     N21145   6.184   0.848   6.725  0.7857 -0.2621 -0.1256
  185POPC   C1221146   6.297   0.877   6.625 -0.8834  0.4578  0.7109
  185POPC  H12A21147   6.321   0.788   6.569 -1.4449 -0.5489  2.0356
  185POPC  H12B21148   6.386   0.888   6.685 -0.8253 -0.8659  0.8787
  185POPC   C1321149   6.200   0.714   6.782  1.2317  0.1180  0.5596
  185POPC  H13A21150   6.212   0.640   6.704 -0.3886  1.7710 -1.3453
  185POPC  H13B21151   6.290   0.718   6.842  1.0979  1.3325  0.7048
  185POPC  H13C21152   6.113   0.693   6.842  0.7210 -0.5690 -0.3932
  185POPC   C1421153   6.168   0.951   6.830  0.3113 -0.4616  0.0927
  185POPC  H14A21154   6.180   1.053   6.798 -0.2206  0.0031  1.3139
  185POPC  H14B21155   6.070   0.945   6.876  0.4106 -0.6158  0.2859
  185POPC  H14C21156   6.246   0.943   6.904 -0.1748  0.7047  0.7514
  185POPC   C1521157   6.056   0.851   6.650  0.2472  0.1501 -0.3048
  185POPC  H15A21158   5.973   0.829   6.716 -0.9364  0.0740 -1.7632
  185POPC  H15B21159   6.048   0.786   6.564 -1.0987 -1.0446  0.6665
  185POPC  H15C21160   6.031   0.951   6.618  1.0958 -0.1177 -1.8805
  185POPC   C1121161   6.305   1.000   6.532 -0.1316 -0.2580  0.2629
  185POPC  H11A21162   6.225   1.001   6.456 -0.5464  0.3574  0.6990
  185POPC  H11B21163   6.403   0.989   6.480  0.3717  0.2708  1.0669
  185POPC     P21164   6.381   1.243   6.611 -0.2604  0.0865 -0.1693
  185POPC   O1321165   6.519   1.195   6.623 -0.0810 -0.5914 -0.1653
  185POPC   O1421166   6.333   1.319   6.730 -0.0867 -0.5132  0.4386
  185POPC   O1221167   6.289   1.118   6.605  0.7930  0.1803 -0.3401
  185POPC   O1121168   6.353   1.316   6.480 -0.0384 -0.6927  0.1198
  185POPC    C121169   6.217   1.368   6.464  0.7021  0.7969 -0.3284
  185POPC    HA21170   6.209   1.469   6.508  1.6916  0.0033  1.8332
  185POPC    HB21171   6.137   1.310   6.515  1.1728  0.4543  0.0306
  185POPC    C221172   6.190   1.393   6.311  0.3888 -0.3506  0.3187
  185POPC    HS21173   6.098   1.455   6.301  1.7237  2.3298  3.0970
  185POPC   O2121174   6.180   1.274   6.234 -0.1267  0.2401  0.3412
  185POPC   C2121175   6.067   1.203   6.250  0.0482 -0.4235  0.2896
  185POPC   O2221176   5.970   1.228   6.320 -0.4326 -0.2638  0.5153
  185POPC   C2221177   6.065   1.079   6.160 -0.0349  0.2864 -0.2113
  185POPC   H2R21178   6.033   0.987   6.214  1.9166 -0.8337 -0.8401
  185POPC   H2S21179   6.159   1.049   6.109 -0.3504 -1.5210  0.2119
  185POPC    C321180   6.305   1.479   6.255 -0.2314  0.5728 -0.4312
  185POPC    HX21181   6.402   1.428   6.269  0.3358  1.6228 -0.4160
  185POPC    HY21182   6.315   1.576   6.309  1.3277  0.9721 -1.3746
  185POPC   O3121183   6.291   1.504   6.113 -0.0925  0.4083 -0.0936
  185POPC   C3121184   6.212   1.611   6.079  0.2450 -0.1820  0.7857
  185POPC   O3221185   6.141   1.672   6.162 -0.1571  0.2246  0.3618
  185POPC   C3221186   6.220   1.641   5.921  0.2676  0.2392  0.4870
  185POPC   H2X21187   6.208   1.544   5.868  2.2630  0.8426 -1.1946
  185POPC   H2Y21188   6.329   1.652   5.900 -0.2354  0.9719 -2.1344
  185POPC   C2321189   5.970   1.096   6.039 -0.0714 -0.5148  0.4322
  185POPC   H3R21190   5.876   1.146   6.070 -1.6041 -3.3698  0.7282
  185POPC   H3S21191   5.943   0.998   5.994 -0.3033 -0.0715 -0.4063
  185POPC   C2421192   6.033   1.182   5.921 -0.3194  1.0594 -0.2055
  185POPC   H4R21193   6.133   1.139   5.897 -1.2909 -0.3598 -1.9444
  185POPC   H4S21194   6.044   1.288   5.953 -0.5992  0.9834  0.1518
  185POPC   C2521195   5.951   1.195   5.788  0.7537  0.7539  0.2463
  185POPC   H5R21196   5.859   1.252   5.814  0.3391 -0.5865  1.9177
  185POPC   H5S21197   5.914   1.100   5.745  1.1682  1.2987 -1.3786
  185POPC   C2621198   6.036   1.266   5.680 -0.8315 -0.1529  0.9745
  185POPC   H6R21199   6.125   1.208   5.650 -0.0807  0.3392  2.1716
  185POPC   H6S21200   6.063   1.367   5.719 -1.9588  0.6371 -0.1773
  185POPC   C2721201   5.956   1.305   5.555 -0.3387 -0.1322 -0.0491
  185POPC   H7R21202   5.909   1.404   5.572 -0.4498  0.2454 -2.3168
  185POPC   H7S21203   5.875   1.230   5.547  0.0718 -0.7220  1.0556
  185POPC   C2821204   6.028   1.301   5.416  0.0999 -1.0874  0.9851
  185POPC   H8R21205   6.070   1.198   5.412  1.3540 -0.5894  0.8042
  185POPC   H8S21206   6.111   1.374   5.419 -0.0320 -0.9577  3.2206
  185POPC   C2921207   5.925   1.324   5.301 -0.2020  0.7303  0.4767
  185POPC   H9121208   5.829   1.356   5.346  0.5954  1.1717  1.9341
  185POPC  C21021209   5.951   1.339   5.166  0.0295  0.1180 -0.0982
  185POPC  H10121210   5.866   1.377   5.107 -0.0986 -0.8509 -0.5578
  185POPC  C21121211   6.089   1.338   5.106  0.0733  0.6040 -0.2619
  185POPC  H11R21212   6.152   1.416   5.154 -0.4769  0.3266  0.9619
  185POPC  H11S21213   6.081   1.360   4.998 -0.4882 -1.8654 -0.7824
  185POPC  C21221214   6.156   1.201   5.130  0.3442  0.0407  0.4775
  185POPC  H12R21215   6.086   1.116   5.114  0.5042  0.1917 -1.2353
  185POPC  H12S21216   6.200   1.185   5.231  1.8440  2.1831  0.2226
  185POPC  C21321217   6.271   1.178   5.035 -0.6669  0.6383 -0.0860
  185POPC  H13R21218   6.362   1.232   5.068  1.2445 -0.8948 -2.4497
  185POPC  H13S21219   6.238   1.233   4.944 -1.1164  1.4962  0.5837
  185POPC  C21421220   6.308   1.027   5.009 -0.0635 -0.2504 -0.2781
  185POPC  H14R21221   6.241   0.970   4.940  1.1459 -1.4965 -0.4739
  185POPC  H14S21222   6.322   0.975   5.106 -2.3879 -0.2913  0.0888
  185POPC  C21521223   6.447   1.021   4.942 -0.1869  0.4236 -0.0821
  185POPC  H15R21224   6.525   1.090   4.982  1.2894 -2.1219  1.7061
  185POPC  H15S21225   6.438   1.039   4.832 -1.4357  1.4035  0.1505
  185POPC  C21621226   6.517   0.888   4.970 -0.3344 -0.1642 -0.2687
  185POPC  H16R21227   6.450   0.810   4.927  0.5418  0.7827 -3.7000
  185POPC  H16S21228   6.520   0.865   5.078  0.8013 -2.2040 -0.6737
  185POPC  C21721229   6.662   0.870   4.905 -0.2139 -0.5240  0.4787
  185POPC  H17R21230   6.686   0.761   4.908 -1.0728 -0.7534 -0.4134
  185POPC  H17S21231   6.735   0.924   4.969  0.2674  3.1254 -2.7918
  185POPC  C21821232   6.674   0.926   4.758  0.8699  0.2573  0.4053
  185POPC  H18R21233   6.772   0.916   4.706 -0.4677  0.9604 -2.4239
  185POPC  H18S21234   6.633   1.029   4.754 -1.4836 -0.6330  0.1606
  185POPC  H18T21235   6.623   0.849   4.696  2.6455 -2.3178  1.9342
  185POPC   C3321236   6.128   1.742   5.862  1.1025 -0.4068  0.1921
  185POPC   H3X21237   6.165   1.843   5.885 -0.5957 -0.0047  1.3440
  185POPC   H3Y21238   6.028   1.734   5.911 -0.2455 -0.5759 -2.4076
  185POPC   C3421239   6.106   1.740   5.707  0.0196 -0.5099 -0.5228
  185POPC   H4X21240   6.032   1.822   5.693  1.7533  1.2470  0.1292
  185POPC   H4Y21241   6.047   1.650   5.678 -2.4484  0.0231  2.3044
  185POPC   C3521242   6.231   1.782   5.632  0.0830  0.2272  0.2870
  185POPC   H5X21243   6.312   1.708   5.648 -0.9795 -0.4031  3.4176
  185POPC   H5Y21244   6.274   1.878   5.668  2.0762 -1.1229  1.7932
  185POPC   C3621245   6.201   1.802   5.487 -0.2947 -0.1995  0.5682
  185POPC   H6X21246   6.127   1.885   5.489  0.0513  0.1570 -0.4345
  185POPC   H6Y21247   6.153   1.711   5.445 -0.0116  0.4293 -1.2167
  185POPC   C3721248   6.331   1.833   5.401  0.5050  0.4551  0.2461
  185POPC   H7X21249   6.394   1.742   5.394 -0.5362 -0.7431  4.0673
  185POPC   H7Y21250   6.396   1.913   5.442  0.6556  0.7616 -0.5699
  185POPC   C3821251   6.282   1.870   5.256  0.4479  0.0767 -0.3598
  185POPC   H8X21252   6.373   1.887   5.194  1.8487 -1.4298  1.1544
  185POPC   H8Y21253   6.219   1.958   5.278 -2.6350 -1.7265 -1.2990
  185POPC   C3921254   6.192   1.761   5.189  0.5793 -0.7456  0.5503
  185POPC   H9X21255   6.087   1.759   5.225  0.1973 -3.0447 -0.5065
  185POPC   H9Y21256   6.246   1.665   5.202  0.3123 -1.1182 -0.8665
  185POPC  C31021257   6.178   1.769   5.036  0.3314 -0.2601 -0.5254
  185POPC  H10X21258   6.265   1.720   4.988  1.3810 -0.9758  1.9280
  185POPC  H10Y21259   6.183   1.876   5.005 -0.1324 -0.2925 -0.7111
  185POPC  C31121260   6.051   1.701   4.996 -0.3533 -0.7093 -0.2700
  185POPC  H11X21261   5.958   1.743   5.040 -1.5286 -0.2756 -2.9373
  185POPC  H11Y21262   6.062   1.591   5.012 -2.1058 -0.6417  1.8881
  185POPC  C31221263   6.013   1.726   4.847  0.2535  0.6669 -0.5726
  185POPC  H12X21264   5.939   1.810   4.842 -1.7017 -0.8058  1.4837
  185POPC  H12Y21265   5.947   1.641   4.821 -1.4103  2.0193 -0.9798
  185POPC  C31321266   6.110   1.746   4.735 -0.9352 -0.0904 -0.2436
  185POPC  H13X21267   6.196   1.678   4.752  0.6373  1.9032  0.2155
  185POPC  H13Y21268   6.161   1.845   4.742 -0.1041 -0.4722 -0.7633
  185POPC  C31421269   6.052   1.718   4.593  0.1839 -0.0958  0.7136
  185POPC  H14X21270   5.994   1.624   4.594 -0.3436 -0.0301 -3.5353
  185POPC  H14Y21271   6.135   1.708   4.519 -1.2783 -1.6906 -0.7818
  185POPC  C31521272   5.959   1.833   4.546 -0.1342 -0.2456 -0.7309
  185POPC  H15X21273   6.007   1.925   4.506 -0.5654  0.3878  0.1684
  185POPC  H15Y21274   5.901   1.868   4.634 -0.3058 -0.4342 -0.7675
  185POPC  C31621275   5.857   1.791   4.436 -0.0399  0.1382 -0.5459
  185POPC  H16X21276   5.911   1.741   4.353 -0.5302 -1.5554  0.1023
  185POPC  H16Y21277   5.797   1.873   4.391  2.3103  1.3679 -1.6145
  185POPC  H16Z21278   5.782   1.720   4.477 -1.0184  1.5024  0.1153
  186POPC     N21279   1.329   2.148   6.924  0.0195 -0.1768 -0.0147
  186POPC   C1221280   1.395   2.143   6.791  0.4166  0.4298  0.1943
  186POPC  H12A21281   1.328   2.110   6.714  2.0102  0.6482 -1.3340
  186POPC  H12B21282   1.474   2.069   6.796 -0.1640 -0.2735 -0.8894
  186POPC   C1321283   1.296   2.009   6.979 -1.1067  0.1255  0.0439
  186POPC  H13A21284   1.249   2.011   7.076  1.7164 -0.8820  1.5402
  186POPC  H13B21285   1.243   1.956   6.901  1.7765  0.9760 -2.7015
  186POPC  H13C21286   1.386   1.950   6.987 -0.7109  0.5287 -1.1494
  186POPC   C1421287   1.406   2.230   7.029  0.5507  0.3584 -0.0306
  186POPC  H14A21288   1.464   2.305   6.978 -1.4695  1.8502 -0.2485
  186POPC  H14B21289   1.336   2.271   7.100  0.0466 -0.6462  0.0617
  186POPC  H14C21290   1.484   2.169   7.073 -0.1880  0.8402  2.0163
  186POPC   C1521291   1.195   2.217   6.912  0.0634 -0.2843  0.5785
  186POPC  H15A21292   1.140   2.168   6.834 -0.9690  1.7563 -0.0602
  186POPC  H15B21293   1.191   2.321   6.882  0.4537 -0.2503  0.6369
  186POPC  H15C21294   1.136   2.205   7.001  0.1020 -0.6997  0.5465
  186POPC   C1121295   1.459   2.271   6.733  0.4420 -0.7396 -0.3959
  186POPC  H11A21296   1.385   2.352   6.751  3.1966  1.9276 -0.1883
  186POPC  H11B21297   1.487   2.261   6.626  1.3103 -1.6566 -0.0997
  186POPC     P21298   1.711   2.237   6.808 -0.0719  0.1706 -0.1749
  186POPC   O1321299   1.710   2.142   6.921  0.4861  0.4300 -0.5100
  186POPC   O1421300   1.815   2.348   6.806 -0.2531  0.1033 -0.0898
  186POPC   O1221301   1.576   2.312   6.806  0.5692  0.2720 -0.2013
  186POPC   O1121302   1.701   2.162   6.671  0.0700 -0.2565  0.6771
  186POPC    C121303   1.746   2.229   6.552  0.9319 -0.3612 -0.0312
  186POPC    HA21304   1.856   2.240   6.557  1.4724 -4.1450 -0.5634
  186POPC    HB21305   1.688   2.323   6.540  2.3664  0.7426  1.3031
  186POPC    C221306   1.705   2.138   6.429 -0.7295 -0.1261 -0.5679
  186POPC    HS21307   1.594   2.144   6.418 -0.9025  0.2356  1.1598
  186POPC   O2121308   1.756   2.000   6.443 -0.2690 -0.1058 -0.2402
  186POPC   C2121309   1.692   1.910   6.371 -0.2249 -0.0368  0.8037
  186POPC   O2221310   1.591   1.924   6.301 -0.1183  0.3293 -0.0337
  186POPC   C2221311   1.759   1.778   6.387 -0.5501  0.0390  0.2570
  186POPC   H2R21312   1.706   1.725   6.469 -0.2007 -2.2476 -0.9322
  186POPC   H2S21313   1.860   1.792   6.432  1.0592 -2.6077 -2.1670
  186POPC    C321314   1.752   2.212   6.299  0.4513 -0.1811  0.1811
  186POPC    HX21315   1.863   2.216   6.302  0.5860 -0.2740 -2.3292
  186POPC    HY21316   1.712   2.316   6.296 -1.1497 -0.8028 -1.4806
  186POPC   O3121317   1.719   2.150   6.173 -0.7048  0.0927 -0.1677
  186POPC   C3121318   1.596   2.170   6.128 -0.0841 -0.8669  0.8429
  186POPC   O3221319   1.503   2.219   6.189 -0.4254 -0.0391  0.0927
  186POPC   C3221320   1.579   2.123   5.981  0.6056  0.8331 -0.0544
  186POPC   H2X21321   1.477   2.078   5.975 -0.6398  3.4758 -0.3659
  186POPC   H2Y21322   1.652   2.040   5.970  0.5118  0.6232  0.8044
  186POPC   C2321323   1.783   1.693   6.265 -0.2910 -0.0462  0.1442
  186POPC   H3R21324   1.681   1.672   6.225 -1.2189  1.6669  1.4596
  186POPC   H3S21325   1.829   1.597   6.298  0.5752  0.3049 -0.0071
  186POPC   C2421326   1.873   1.756   6.164  0.7202 -0.4300 -0.2934
  186POPC   H4R21327   1.976   1.769   6.201  0.2202 -0.2694  1.1109
  186POPC   H4S21328   1.830   1.858   6.154  3.1574  0.8847  1.6735
  186POPC   C2521329   1.869   1.673   6.037  0.0824 -0.1050  0.5455
  186POPC   H5R21330   1.767   1.649   6.000 -0.0071  1.3324 -0.1784
  186POPC   H5S21331   1.895   1.571   6.073 -0.0146 -0.2878  0.0952
  186POPC   C2621332   1.933   1.722   5.907 -0.0365  0.2710 -0.4033
  186POPC   H6R21333   1.930   1.634   5.839 -0.5658 -0.7950  0.9647
  186POPC   H6S21334   2.039   1.737   5.938 -0.0980 -0.6813  0.2950
  186POPC   C2721335   1.879   1.853   5.842 -0.1448 -0.3707  0.4781
  186POPC   H7R21336   1.856   1.929   5.920 -2.4264 -0.2066 -0.2788
  186POPC   H7S21337   1.779   1.830   5.798  0.1137 -0.3186 -0.1513
  186POPC   C2821338   1.974   1.900   5.732 -0.5790  0.1850  0.1046
  186POPC   H8R21339   2.074   1.914   5.777 -0.4007  0.3327 -0.3393
  186POPC   H8S21340   1.951   2.007   5.713 -0.6433  0.1039 -0.2694
  186POPC   C2921341   1.985   1.804   5.620 -0.8423 -0.7325  0.0703
  186POPC   H9121342   2.017   1.703   5.647  0.8697 -0.3044 -0.2255
  186POPC  C21021343   1.932   1.832   5.500  0.1306  0.1896  1.0798
  186POPC  H10121344   1.945   1.757   5.421  0.0171 -1.4507  2.5503
  186POPC  C21121345   1.891   1.958   5.433 -0.0472 -0.3182 -0.3013
  186POPC  H11R21346   1.861   2.034   5.508 -2.3871 -0.0782 -1.4078
  186POPC  H11S21347   1.808   1.936   5.362 -0.2623 -0.1613 -0.0982
  186POPC  C21221348   2.005   2.019   5.345 -0.5277 -0.2758 -0.1930
  186POPC  H12R21349   2.055   1.945   5.279 -0.1986  1.1234 -1.5812
  186POPC  H12S21350   2.083   2.053   5.417 -1.3537 -0.7485  0.9406
  186POPC  C21321351   1.962   2.139   5.259  0.5574  0.4461  0.3962
  186POPC  H13R21352   2.043   2.210   5.232 -0.7176  1.4069 -1.0853
  186POPC  H13S21353   1.883   2.186   5.322 -2.8336 -4.2778  0.1266
  186POPC  C21421354   1.892   2.104   5.126 -0.0518 -0.1442 -0.0654
  186POPC  H14R21355   1.843   2.194   5.084 -2.0916 -1.5725 -0.9171
  186POPC  H14S21356   1.823   2.018   5.143  3.0094 -2.4975  1.5945
  186POPC  C21521357   1.996   2.055   5.023  0.9205  0.1400  0.0489
  186POPC  H15R21358   2.020   1.948   5.041  1.3125  0.2716  0.3244
  186POPC  H15S21359   2.093   2.109   5.030  2.1355 -2.1382  2.2375
  186POPC  C21621360   1.951   2.080   4.874 -0.6635 -0.2740 -0.3182
  186POPC  H16R21361   2.036   2.049   4.810  0.5272 -1.5936  1.7939
  186POPC  H16S21362   1.923   2.187   4.861 -1.6806 -0.2976  1.4036
  186POPC  C21721363   1.820   2.001   4.847  0.4264 -0.2154 -0.5603
  186POPC  H17R21364   1.754   2.003   4.936 -0.8175 -1.2781 -1.4149
  186POPC  H17S21365   1.856   1.900   4.816  0.1037 -0.0918 -1.3514
  186POPC  C21821366   1.743   2.067   4.734 -0.0832 -0.2303  0.6960
  186POPC  H18R21367   1.643   2.018   4.732  0.0900 -0.5958 -1.1028
  186POPC  H18S21368   1.789   2.041   4.636 -0.8287 -0.4381  0.3907
  186POPC  H18T21369   1.732   2.177   4.745  0.2580  0.0577 -1.4254
  186POPC   C3321370   1.596   2.221   5.862  0.9425 -0.9095  0.3899
  186POPC   H3X21371   1.703   2.251   5.857  0.9899 -1.0862  0.3159
  186POPC   H3Y21372   1.546   2.316   5.888 -2.9590 -2.0917 -2.0324
  186POPC   C3421373   1.544   2.174   5.735  1.0511 -0.8717 -0.4625
  186POPC   H4X21374   1.439   2.138   5.742  0.7127  0.3629  1.7472
  186POPC   H4Y21375   1.603   2.087   5.699  0.5825 -0.6182 -1.8944
  186POPC   C3521376   1.545   2.278   5.620 -0.0700  0.0987 -0.1995
  186POPC   H5X21377   1.640   2.331   5.601 -0.3653 -0.1528 -2.6353
  186POPC   H5Y21378   1.475   2.359   5.649  1.8096  1.8197 -0.2389
  186POPC   C3621379   1.513   2.218   5.481  0.2202  0.2708 -0.3967
  186POPC   H6X21380   1.423   2.154   5.485 -1.5177  2.6470  1.1557
  186POPC   H6Y21381   1.593   2.145   5.459  2.1914  2.5458 -1.2340
  186POPC   C3721382   1.510   2.322   5.367 -0.3902 -0.4430  0.0498
  186POPC   H7X21383   1.610   2.370   5.372  0.4126 -2.1282  1.6106
  186POPC   H7Y21384   1.430   2.398   5.377 -1.9051 -2.2184  2.7642
  186POPC   C3821385   1.492   2.257   5.232  0.0697 -0.6025 -0.3911
  186POPC   H8X21386   1.390   2.214   5.221 -0.3333 -0.0800  1.0258
  186POPC   H8Y21387   1.561   2.171   5.246  0.9949  0.6377  4.6925
  186POPC   C3921388   1.532   2.348   5.114  0.0276  0.4105 -0.2298
  186POPC   H9X21389   1.637   2.369   5.144 -0.2769  1.5619  0.0623
  186POPC   H9Y21390   1.476   2.441   5.091  1.0140  0.5641 -2.2413
  186POPC  C31021391   1.535   2.279   4.975  0.7459 -0.5233  0.2557
  186POPC  H10X21392   1.564   2.172   4.986  1.2161 -0.4532 -0.2680
  186POPC  H10Y21393   1.606   2.333   4.910  0.0024  0.9030  0.5887
  186POPC  C31121394   1.400   2.281   4.890 -0.5690 -0.1477 -1.2289
  186POPC  H11X21395   1.343   2.375   4.903 -1.2100 -0.3066 -2.6629
  186POPC  H11Y21396   1.343   2.196   4.934 -0.2135 -0.8554 -2.0906
  186POPC  C31221397   1.405   2.244   4.746 -0.4996 -0.0264 -0.4535
  186POPC  H12X21398   1.454   2.146   4.731  0.6295  0.2086  1.3638
  186POPC  H12Y21399   1.467   2.324   4.700  1.9263 -1.2625  0.5177
  186POPC  C31321400   1.261   2.234   4.684  0.2019  0.4723  0.2009
  186POPC  H13X21401   1.195   2.179   4.755  1.4253 -0.5180  0.6061
  186POPC  H13Y21402   1.269   2.169   4.594  0.2789  0.0200  0.5306
  186POPC  C31421403   1.216   2.370   4.642 -0.5217  0.2285 -0.0670
  186POPC  H14X21404   1.297   2.420   4.584  0.2908  0.1879  0.9908
  186POPC  H14Y21405   1.189   2.434   4.729 -0.3893  0.0463  0.1085
  186POPC  C31521406   1.093   2.358   4.551 -0.9287  0.1275 -0.2466
  186POPC  H15X21407   0.993   2.333   4.594 -1.2009  0.4131 -0.6987
  186POPC  H15Y21408   1.110   2.276   4.479 -1.2169 -0.8671  0.7927
  186POPC  C31621409   1.064   2.494   4.482 -0.7038 -0.2377 -0.4402
  186POPC  H16X21410   1.161   2.521   4.435 -1.1506  1.3102 -0.5328
  186POPC  H16Y21411   1.039   2.569   4.560  0.7506  0.0145 -0.1954
  186POPC  H16Z21412   0.993   2.481   4.398  0.9562  1.1459 -2.1493
  187POPC     N21413   4.983   1.558   2.107 -0.0934  0.2914 -0.1016
  187POPC   C1221414   4.954   1.693   2.157  0.1744 -0.4759 -0.1608
  187POPC  H12A21415   4.847   1.708   2.151  0.0276 -1.3781  0.0294
  187POPC  H12B21416   4.995   1.763   2.086 -1.2598  0.6677  0.0903
  187POPC   C1321417   4.934   1.550   1.968 -0.2655 -0.7874  0.5091
  187POPC  H13A21418   5.008   1.603   1.910 -0.2911 -0.6994  0.5578
  187POPC  H13B21419   4.923   1.451   1.925  2.3956 -0.0192 -2.3009
  187POPC  H13C21420   4.844   1.608   1.958  0.7135  1.0297  1.6500
  187POPC   C1421421   5.121   1.513   2.107 -0.7541 -0.8827  0.1444
  187POPC  H14A21422   5.128   1.421   2.051  0.1861 -2.5027  2.7315
  187POPC  H14B21423   5.191   1.585   2.067 -0.3010 -2.4075 -2.0048
  187POPC  H14C21424   5.149   1.477   2.205  2.0694 -3.9335 -1.5679
  187POPC   C1521425   4.895   1.463   2.178 -0.9669 -0.0598  0.1892
  187POPC  H15A21426   4.793   1.487   2.154 -0.1438  0.6362 -2.9977
  187POPC  H15B21427   4.919   1.482   2.282 -2.4783 -0.0426  0.5536
  187POPC  H15C21428   4.923   1.361   2.161 -1.4705  0.3330 -3.7663
  187POPC   C1121429   5.012   1.729   2.299  0.1257  0.0171 -0.6417
  187POPC  H11A21430   4.969   1.655   2.369 -3.1226  1.5887 -0.7895
  187POPC  H11B21431   4.975   1.829   2.331 -1.3622 -0.7855  0.2478
  187POPC     P21432   5.236   1.853   2.261  0.3786  0.1102 -0.1272
  187POPC   O1321433   5.148   1.927   2.164  0.2383  0.2009  0.3497
  187POPC   O1421434   5.371   1.807   2.219  0.6819  0.0862 -0.3426
  187POPC   O1221435   5.156   1.726   2.310 -0.2825  0.4550  0.0819
  187POPC   O1121436   5.242   1.930   2.389  0.1506 -0.6924 -0.2888
  187POPC    C121437   5.314   1.874   2.509  0.3033  0.0055  0.0387
  187POPC    HA21438   5.355   1.962   2.563 -2.2539  0.6804  1.0250
  187POPC    HB21439   5.404   1.819   2.475  0.7654  1.0671 -0.4815
  187POPC    C221440   5.214   1.795   2.599 -0.1104  0.5194  1.0014
  187POPC    HS21441   5.164   1.718   2.537 -0.4776  2.3501 -1.1276
  187POPC   O2121442   5.124   1.889   2.663 -0.3158 -0.2748 -0.1250
  187POPC   C2121443   5.009   1.842   2.681  0.7353 -0.2993 -0.6696
  187POPC   O2221444   4.970   1.733   2.649 -0.1914  0.3994 -0.3095
  187POPC   C2221445   4.933   1.948   2.763  0.1698 -0.3315 -0.3531
  187POPC   H2R21446   4.859   1.987   2.691 -0.1507  4.0361  1.9969
  187POPC   H2S21447   4.997   2.030   2.802 -2.1801  1.6143 -0.3777
  187POPC    C321448   5.282   1.713   2.712  0.4713  0.2023  0.5269
  187POPC    HX21449   5.357   1.784   2.755  1.2489 -0.5637  0.4707
  187POPC    HY21450   5.337   1.639   2.649  0.5128  0.2059  0.5588
  187POPC   O3121451   5.198   1.662   2.816 -0.3302  0.4082  0.3165
  187POPC   C3121452   5.149   1.538   2.818 -0.3368  0.0749  0.2550
  187POPC   O3221453   5.177   1.447   2.746 -0.2434 -0.1344  1.2512
  187POPC   C3221454   5.050   1.527   2.931 -0.0636  0.3129 -0.1165
  187POPC   H2X21455   4.973   1.449   2.912 -2.1910  2.2015  0.3854
  187POPC   H2Y21456   4.983   1.616   2.936 -2.0127 -1.0973  0.1237
  187POPC   C2321457   4.858   1.897   2.884 -0.0994 -0.3600  0.3701
  187POPC   H3R21458   4.806   1.800   2.868 -1.1746  0.4038 -0.9591
  187POPC   H3S21459   4.775   1.969   2.895  0.6369  0.7005 -0.7579
  187POPC   C2421460   4.949   1.886   3.009  0.0948  0.0874  0.7906
  187POPC   H4R21461   4.991   1.982   3.044  2.1374 -0.1880 -0.7492
  187POPC   H4S21462   5.036   1.819   2.989 -0.5130 -1.0394  1.7702
  187POPC   C2521463   4.875   1.841   3.139  0.3421  0.7838  0.4169
  187POPC   H5R21464   4.825   1.741   3.133  1.0024  0.4046  1.0718
  187POPC   H5S21465   4.787   1.906   3.159 -0.1352  0.3711 -0.2842
  187POPC   C2621466   4.969   1.857   3.262 -0.4292 -0.0486  0.4360
  187POPC   H6R21467   5.035   1.947   3.260 -0.9152  0.3239  0.8651
  187POPC   H6S21468   5.038   1.771   3.248 -1.4030 -1.2898  2.7437
  187POPC   C2721469   4.897   1.861   3.394  0.0623 -0.1947  0.0349
  187POPC   H7R21470   4.843   1.764   3.400  0.2930 -0.5535 -2.4101
  187POPC   H7S21471   4.820   1.940   3.391 -0.3930 -0.6391 -2.8196
  187POPC   C2821472   4.983   1.874   3.519  0.3698  0.2626 -0.5354
  187POPC   H8R21473   5.039   1.968   3.504 -0.6968  0.6891 -2.1083
  187POPC   H8S21474   5.056   1.790   3.518 -1.3382 -1.3154 -0.4153
  187POPC   C2921475   4.893   1.855   3.636 -0.1177  0.4824 -0.3682
  187POPC   H9121476   4.870   1.748   3.653  1.4798 -0.0938 -1.6409
  187POPC  C21021477   4.854   1.945   3.725 -0.2735  0.3745 -0.1079
  187POPC  H10121478   4.793   1.923   3.813 -0.8914  0.6947 -0.4502
  187POPC  C21121479   4.883   2.091   3.721 -0.2733  0.4057  0.6701
  187POPC  H11R21480   4.798   2.137   3.776  1.1540  2.4724  1.2542
  187POPC  H11S21481   4.884   2.114   3.612 -1.4920 -0.9886  0.3223
  187POPC  C21221482   5.017   2.136   3.786  0.7536 -0.5568 -0.1111
  187POPC  H12R21483   5.045   2.240   3.758  0.5706  0.0742  1.8908
  187POPC  H12S21484   5.089   2.060   3.750 -1.2065 -2.3201 -0.4719
  187POPC  C21321485   5.021   2.128   3.943 -0.3361  0.4099 -0.4578
  187POPC  H13R21486   5.122   2.156   3.979 -1.5138  2.9279  1.1253
  187POPC  H13S21487   5.023   2.020   3.971  2.6684  0.9781  1.8862
  187POPC  C21421488   4.895   2.188   4.015  0.7021 -0.9178  0.3027
  187POPC  H14R21489   4.820   2.107   4.009  1.0977 -1.2482 -0.3884
  187POPC  H14S21490   4.851   2.268   3.952  0.5836 -2.1631 -1.2645
  187POPC  C21521491   4.924   2.249   4.155  0.4697 -0.0939 -0.0317
  187POPC  H15R21492   5.005   2.323   4.163  0.4422 -0.1269  0.6505
  187POPC  H15S21493   4.958   2.169   4.225  1.6235 -0.1743 -0.6610
  187POPC  C21621494   4.804   2.317   4.221  0.3612 -0.4140 -0.0751
  187POPC  H16R21495   4.711   2.257   4.209 -0.2768 -0.4144  3.7706
  187POPC  H16S21496   4.778   2.415   4.177 -0.6510 -0.7206 -0.1803
  187POPC  C21721497   4.824   2.355   4.373  0.1993  0.8217  0.0959
  187POPC  H17R21498   4.856   2.262   4.425 -1.7003  0.3339  0.4528
  187POPC  H17S21499   4.723   2.379   4.411  0.9398  3.7931  0.4555
  187POPC  C21821500   4.915   2.471   4.394  0.2246  0.2574  0.3109
  187POPC  H18R21501   4.888   2.565   4.340  1.1910 -0.4596 -1.4907
  187POPC  H18S21502   5.022   2.446   4.379 -0.3530 -2.6181  0.4653
  187POPC  H18T21503   4.907   2.504   4.500  0.4453 -0.3154  0.5099
  187POPC   C3321504   5.108   1.486   3.069 -0.9143 -0.0844 -0.1413
  187POPC   H3X21505   5.179   1.558   3.115 -2.0735  1.8134 -1.1746
  187POPC   H3Y21506   5.173   1.395   3.062 -0.4683  0.2797 -0.9349
  187POPC   C3421507   4.987   1.462   3.164 -0.1128  0.0503  0.0357
  187POPC   H4X21508   4.915   1.403   3.103  1.5129 -2.1154  0.0760
  187POPC   H4Y21509   4.933   1.557   3.178 -1.8316 -0.8329 -0.3522
  187POPC   C3521510   5.020   1.392   3.298 -0.2410  0.0608  0.1435
  187POPC   H5X21511   5.091   1.456   3.354  1.2538 -1.2584 -0.1662
  187POPC   H5Y21512   5.079   1.299   3.281  0.6285  0.6318 -0.0397
  187POPC   C3621513   4.902   1.366   3.385 -0.0445  0.3150  0.7110
  187POPC   H6X21514   4.825   1.306   3.332  1.0922 -1.7528  1.3012
  187POPC   H6Y21515   4.853   1.466   3.396 -0.3312  0.0802  1.6944
  187POPC   C3721516   4.945   1.335   3.531 -0.1493  0.3596 -0.4339
  187POPC   H7X21517   4.992   1.234   3.529 -1.3255 -0.2549  1.3123
  187POPC   H7Y21518   4.845   1.316   3.576  0.8255 -0.6988  1.3621
  187POPC   C3821519   5.039   1.437   3.594  0.3864  0.5063  0.1095
  187POPC   H8X21520   5.016   1.533   3.543 -0.0525  0.6118  0.5061
  187POPC   H8Y21521   5.145   1.420   3.565 -0.2642 -1.1973 -1.5040
  187POPC   C3921522   5.022   1.434   3.744 -0.4341  0.6784  0.2716
  187POPC   H9X21523   5.025   1.326   3.769  1.0776  0.3473 -1.1243
  187POPC   H9Y21524   4.920   1.465   3.772 -0.4856 -1.6439  3.0597
  187POPC  C31021525   5.121   1.526   3.810  0.2009 -0.0068  0.4031
  187POPC  H10X21526   5.104   1.626   3.766 -1.9333 -1.0999 -1.5077
  187POPC  H10Y21527   5.222   1.490   3.782 -0.0742 -0.6627  0.2160
  187POPC  C31121528   5.103   1.526   3.963  0.0374  0.2621 -0.0037
  187POPC  H11X21529   5.203   1.557   4.001  1.0337 -0.5294 -1.8609
  187POPC  H11Y21530   5.095   1.425   4.009 -0.0463  0.7600  1.1099
  187POPC  C31221531   4.977   1.601   4.009  0.5429 -0.0790 -0.1264
  187POPC  H12X21532   4.890   1.574   3.945  0.8645  1.6022 -1.3424
  187POPC  H12Y21533   4.992   1.710   3.990 -0.3075  0.4400  1.9431
  187POPC  C31321534   4.933   1.566   4.158  0.7998  0.4695 -0.1835
  187POPC  H13X21535   5.014   1.590   4.230 -2.4918  1.6330  3.4924
  187POPC  H13Y21536   4.905   1.459   4.171  0.6395  0.5405  0.0498
  187POPC  C31421537   4.816   1.649   4.198 -0.0726  0.0058 -0.1105
  187POPC  H14X21538   4.725   1.624   4.139 -0.0368 -2.8662  0.9042
  187POPC  H14Y21539   4.847   1.753   4.175  1.1986 -0.3598 -0.1022
  187POPC  C31521540   4.765   1.627   4.339 -0.7162  0.1542  0.2385
  187POPC  H15X21541   4.786   1.520   4.361 -1.3726  0.1669  0.9717
  187POPC  H15Y21542   4.655   1.635   4.356 -0.9835 -0.1554 -1.1792
  187POPC  C31621543   4.828   1.723   4.441 -0.8569 -0.7574 -0.0494
  187POPC  H16X21544   4.773   1.708   4.536 -1.8994 -0.2076 -0.5490
  187POPC  H16Y21545   4.817   1.833   4.432  2.4209 -0.2550  1.0041
  187POPC  H16Z21546   4.934   1.699   4.462 -0.4833  2.2507  2.0430
  188POPC     N21547   5.779   0.698   1.740  0.3043 -0.0731 -0.3006
  188POPC   C1221548   5.785   0.693   1.888 -0.6227  1.0596 -0.5601
  188POPC  H12A21549   5.876   0.742   1.919  0.9280 -0.9819 -1.6058
  188POPC  H12B21550   5.801   0.590   1.917  2.3218  1.2425 -1.1878
  188POPC   C1321551   5.685   0.606   1.690  0.7832 -0.6717  0.4656
  188POPC  H13A21552   5.659   0.613   1.586  0.6324  1.8695  0.6174
  188POPC  H13B21553   5.722   0.506   1.707 -1.3486 -1.3264  1.6956
  188POPC  H13C21554   5.589   0.625   1.736  0.9873  0.2341  0.5440
  188POPC   C1421555   5.741   0.835   1.691  0.6374 -0.0581 -0.3664
  188POPC  H14A21556   5.800   0.905   1.749  3.1783 -2.1521 -0.2271
  188POPC  H14B21557   5.754   0.836   1.584  2.2441  0.7420 -0.1916
  188POPC  H14C21558   5.639   0.849   1.723  1.0514 -1.9581  2.2074
  188POPC   C1521559   5.917   0.671   1.683  0.4287  0.4378 -0.0172
  188POPC  H15A21560   5.965   0.582   1.722 -2.0594 -0.3143  1.5609
  188POPC  H15B21561   5.986   0.751   1.707 -0.0746  0.9892 -0.3797
  188POPC  H15C21562   5.913   0.672   1.575 -0.3353 -0.9829 -0.0178
  188POPC   C1121563   5.667   0.738   1.971 -0.4867 -0.2935 -0.3925
  188POPC  H11A21564   5.654   0.843   1.939  0.5773  1.0588  3.1536
  188POPC  H11B21565   5.685   0.741   2.081  0.4650  2.0042 -0.5595
  188POPC     P21566   5.408   0.733   1.955 -0.1206 -0.0210  0.0659
  188POPC   O1321567   5.295   0.637   1.970 -0.3838 -0.3697  0.2561
  188POPC   O1421568   5.398   0.830   1.846 -0.1916 -0.3759  0.2559
  188POPC   O1221569   5.551   0.656   1.950  0.3538 -0.3144 -0.1070
  188POPC   O1121570   5.418   0.804   2.094 -0.9818 -0.5090  0.1457
  188POPC    C121571   5.310   0.823   2.184 -0.0029 -0.3758 -0.3164
  188POPC    HA21572   5.232   0.750   2.154 -0.3540  0.7418 -2.2650
  188POPC    HB21573   5.280   0.930   2.185 -0.8404 -0.5863  1.4724
  188POPC    C221574   5.346   0.809   2.334 -0.2034  0.2645  0.3923
  188POPC    HS21575   5.250   0.787   2.384 -0.0864 -1.3655 -0.0715
  188POPC   O2121576   5.409   0.939   2.375  0.0623  0.0076  0.1868
  188POPC   C2121577   5.394   0.965   2.507 -1.1014 -0.5147 -0.4984
  188POPC   O2221578   5.336   0.896   2.587 -1.0969  0.3905 -0.2264
  188POPC   C2221579   5.478   1.091   2.542 -0.2632 -0.6653  0.6328
  188POPC   H2R21580   5.489   1.151   2.449 -2.4941 -1.2421 -0.0784
  188POPC   H2S21581   5.582   1.066   2.570  0.9863  1.4299 -1.7097
  188POPC    C321582   5.443   0.690   2.356 -0.1300  0.6961  0.3924
  188POPC    HX21583   5.543   0.720   2.318 -0.2287 -0.3208 -0.7505
  188POPC    HY21584   5.413   0.601   2.296  0.4849 -0.8303  2.2451
  188POPC   O3121585   5.450   0.643   2.493  0.2115 -0.1804 -0.3479
  188POPC   C3121586   5.366   0.557   2.530 -0.9516  0.0872 -0.0422
  188POPC   O3221587   5.266   0.525   2.463 -0.5549 -0.5991 -0.8476
  188POPC   C3221588   5.418   0.490   2.658  0.1075  0.8306  0.0838
  188POPC   H2X21589   5.526   0.510   2.674  0.3417 -0.2773  0.0143
  188POPC   H2Y21590   5.408   0.383   2.631  0.4997  0.5724  0.9299
  188POPC   C2321591   5.422   1.184   2.657  0.4396  0.2127 -0.3267
  188POPC   H3R21592   5.313   1.172   2.675  0.7885 -2.1671  0.6488
  188POPC   H3S21593   5.450   1.289   2.635 -1.9145  1.1281  0.7265
  188POPC   C2421594   5.482   1.155   2.794  0.6767 -0.0642 -0.3121
  188POPC   H4R21595   5.590   1.185   2.792  1.3313 -2.2847 -0.6563
  188POPC   H4S21596   5.476   1.050   2.829 -1.7550  0.6173  1.5639
  188POPC   C2521597   5.419   1.241   2.909  0.6947  0.9825 -0.0367
  188POPC   H5R21598   5.317   1.201   2.927  0.7457  0.7613 -0.2241
  188POPC   H5S21599   5.400   1.346   2.880 -3.1577  0.6840  0.8477
  188POPC   C2621600   5.503   1.233   3.037 -0.0695 -0.0101  0.5541
  188POPC   H6R21601   5.603   1.275   3.010 -0.4320  1.1965  1.0030
  188POPC   H6S21602   5.515   1.131   3.079 -1.0534  0.8286  3.0618
  188POPC   C2721603   5.430   1.308   3.151 -0.1663  0.5924  0.1382
  188POPC   H7R21604   5.342   1.248   3.183 -0.4072  1.3362  0.9036
  188POPC   H7S21605   5.399   1.402   3.101  1.0195  0.9897  0.1205
  188POPC   C2821606   5.524   1.342   3.267  0.6097  0.1603 -0.0544
  188POPC   H8R21607   5.617   1.385   3.225  2.1766 -2.7891  0.1788
  188POPC   H8S21608   5.554   1.253   3.326 -0.5998  0.7005  1.4881
  188POPC   C2921609   5.449   1.431   3.363  0.2704  0.4639 -0.2192
  188POPC   H9121610   5.405   1.526   3.326 -0.3514  1.6402  3.2108
  188POPC  C21021611   5.399   1.393   3.483  0.2034 -0.2218 -0.0732
  188POPC  H10121612   5.363   1.484   3.534  1.7999 -1.0630  2.7799
  188POPC  C21121613   5.399   1.260   3.557 -0.4545 -0.8114  0.7837
  188POPC  H11R21614   5.495   1.208   3.536  0.2026  1.1266 -1.5171
  188POPC  H11S21615   5.322   1.189   3.520 -1.6142 -0.3926  2.2970
  188POPC  C21221616   5.389   1.255   3.704  0.6058  0.0698  0.0756
  188POPC  H12R21617   5.389   1.150   3.740  1.5444  0.4205  1.1592
  188POPC  H12S21618   5.286   1.284   3.734  0.2053 -0.5080 -0.7018
  188POPC  C21321619   5.503   1.333   3.776 -0.1413 -0.3931 -0.2532
  188POPC  H13R21620   5.524   1.436   3.739 -0.0606  0.3391  1.6961
  188POPC  H13S21621   5.593   1.275   3.745 -0.4362 -2.0011  1.6531
  188POPC  C21421622   5.489   1.331   3.929 -0.6449  0.6454 -0.2512
  188POPC  H14R21623   5.462   1.229   3.964  2.2598  0.4515  1.8510
  188POPC  H14S21624   5.425   1.418   3.954 -0.1168  1.3337 -1.2173
  188POPC  C21521625   5.620   1.345   4.019 -0.4314  0.1469 -0.3543
  188POPC  H15R21626   5.698   1.282   3.972 -0.8302 -0.7908  0.2257
  188POPC  H15S21627   5.602   1.310   4.123  0.4279 -0.7364 -0.4897
  188POPC  C21621628   5.666   1.494   4.030 -0.0563 -0.6336  0.1256
  188POPC  H16R21629   5.579   1.550   4.071 -0.8012 -1.4801 -0.2533
  188POPC  H16S21630   5.676   1.532   3.927 -3.2978 -0.7070 -0.3257
  188POPC  C21721631   5.783   1.524   4.127 -0.2433  0.0919 -0.3528
  188POPC  H17R21632   5.862   1.446   4.120 -1.2386 -1.0624  0.6558
  188POPC  H17S21633   5.742   1.522   4.230  1.0668 -0.1409  0.1831
  188POPC  C21821634   5.851   1.659   4.089  0.3361 -0.1241  0.5728
  188POPC  H18R21635   5.891   1.641   3.987 -0.5028  0.6145  0.1026
  188POPC  H18S21636   5.944   1.674   4.148  2.4461 -1.1201 -2.2778
  188POPC  H18T21637   5.788   1.749   4.103  0.8599  0.2844  0.3360
  188POPC   C3321638   5.346   0.529   2.785  0.5933  0.0601 -0.1127
  188POPC   H3X21639   5.349   0.451   2.864 -0.9585  0.2298  0.1378
  188POPC   H3Y21640   5.239   0.555   2.768  0.7491  0.8431  0.0588
  188POPC   C3421641   5.412   0.660   2.832 -0.7282  0.8032 -0.9493
  188POPC   H4X21642   5.340   0.718   2.894 -0.7721  1.1580 -1.3309
  188POPC   H4Y21643   5.429   0.713   2.736 -2.8952  0.1745 -1.7407
  188POPC   C3521644   5.543   0.637   2.914 -0.7157  0.3184  0.2926
  188POPC   H5X21645   5.610   0.555   2.879 -0.6126  0.0823  1.0207
  188POPC   H5Y21646   5.506   0.611   3.016 -0.6004  0.6314  0.4139
  188POPC   C3621647   5.617   0.763   2.941  0.7693 -0.3344  0.3865
  188POPC   H6X21648   5.539   0.837   2.968  0.6533 -0.6396  0.9121
  188POPC   H6Y21649   5.671   0.798   2.850 -3.2690  2.6800 -1.1601
  188POPC   C3721650   5.706   0.745   3.059 -0.4344  0.5651 -0.6557
  188POPC   H7X21651   5.771   0.655   3.054 -1.0611  0.1206 -0.7995
  188POPC   H7Y21652   5.655   0.720   3.154 -3.2846 -1.7776 -2.6087
  188POPC   C3821653   5.793   0.870   3.085 -0.9235 -0.3358  0.7978
  188POPC   H8X21654   5.731   0.954   3.123 -0.0439 -0.3374  2.3443
  188POPC   H8Y21655   5.852   0.895   2.995  0.1635 -1.2846  1.2281
  188POPC   C3921656   5.908   0.848   3.192  0.4958  0.6349 -0.2858
  188POPC   H9X21657   5.989   0.924   3.190  3.6851 -2.5034 -0.7484
  188POPC   H9Y21658   5.961   0.756   3.160 -0.9202 -0.6519  0.9202
  188POPC  C31021659   5.851   0.842   3.336  0.0057 -0.8383  0.1225
  188POPC  H10X21660   5.928   0.797   3.402 -1.1345 -3.2734 -0.1015
  188POPC  H10Y21661   5.767   0.771   3.345 -0.5749 -0.3256 -1.0084
  188POPC  C31121662   5.813   0.984   3.394  0.1146  0.0748 -0.1336
  188POPC  H11X21663   5.761   1.052   3.323  0.4458  2.4445  1.7728
  188POPC  H11Y21664   5.913   1.029   3.413  1.0166 -2.1822  0.7575
  188POPC  C31221665   5.728   0.971   3.523  0.1171 -0.8312  0.0773
  188POPC  H12X21666   5.627   0.953   3.481  0.3359 -0.3409 -0.6905
  188POPC  H12Y21667   5.710   1.075   3.556 -0.4599  0.0146 -2.6253
  188POPC  C31321668   5.787   0.888   3.635 -0.5416 -0.1901 -0.1985
  188POPC  H13X21669   5.893   0.910   3.657 -0.8843  0.1828  1.1354
  188POPC  H13Y21670   5.782   0.777   3.626  1.1619 -0.3031 -0.0891
  188POPC  C31421671   5.723   0.931   3.769 -0.3908 -0.4838  0.5047
  188POPC  H14X21672   5.614   0.914   3.752 -0.2232 -0.0543 -1.1498
  188POPC  H14Y21673   5.738   1.039   3.791 -2.4119 -0.6189  3.0670
  188POPC  C31521674   5.771   0.858   3.890 -0.1651 -0.0479  0.2686
  188POPC  H15X21675   5.835   0.923   3.953 -1.8531 -0.1966  2.2299
  188POPC  H15Y21676   5.821   0.766   3.852 -0.5590 -0.3863  0.5536
  188POPC  C31621677   5.661   0.814   3.982  0.7425 -0.0786  0.1582
  188POPC  H16X21678   5.577   0.770   3.923 -0.1311  1.7387 -0.0332
  188POPC  H16Y21679   5.620   0.906   4.030  2.1500  2.1440 -2.5360
  188POPC  H16Z21680   5.691   0.734   4.052  1.7853 -2.6823 -2.9856
  189SAPI   C1221681   2.746   1.761   6.868 -0.5637  0.1519  0.1067
  189SAPI    H221682   2.756   1.737   6.760  2.6149 -1.4872  0.6677
  189SAPI    O221683   2.615   1.731   6.913 -0.6953 -0.2472  0.0632
  189SAPI   HO221684   2.573   1.815   6.895  1.4598  1.7913  3.4504
  189SAPI   C1321685   2.848   1.676   6.946  0.4901  0.1998  0.2467
  189SAPI    H321686   2.950   1.710   6.918  0.8422 -0.5502  0.5688
  189SAPI    O321687   2.854   1.535   6.911  0.4414  0.2177  0.4690
  189SAPI   HO321688   2.930   1.494   6.953  0.2768 -1.3987 -0.7516
  189SAPI   C1421689   2.841   1.693   7.096  0.3634 -0.2313 -0.9084
  189SAPI    H421690   2.748   1.639   7.123  0.6555  0.2472  1.2287
  189SAPI    O421691   2.951   1.629   7.156  0.1171  0.3025  0.4625
  189SAPI   HO421692   2.917   1.604   7.243 -0.2550 -2.5120 -0.3841
  189SAPI   C1521693   2.833   1.844   7.142 -0.1210 -0.4171  0.5480
  189SAPI    H521694   2.935   1.864   7.181 -0.6072  1.5185  0.9098
  189SAPI    O521695   2.755   1.858   7.263  0.4884 -0.2256  0.1143
  189SAPI   HO521696   2.661   1.856   7.241  0.5468 -1.4673 -0.0937
  189SAPI   C1621697   2.794   1.955   7.033 -0.2811  0.0062  0.1135
  189SAPI    H621698   2.699   2.008   7.056  1.1616  2.6398  0.4629
  189SAPI    O621699   2.883   2.064   7.025 -0.1648  0.2843  0.1393
  189SAPI   HO621700   2.838   2.135   7.072  0.6372  0.2170  1.0320
  189SAPI   C1121701   2.776   1.908   6.891  0.0742  0.1169  0.5456
  189SAPI    H121702   2.873   1.922   6.838 -0.0699  1.3678  0.6014
  189SAPI     P21703   2.699   2.080   6.697  0.2667 -0.0109 -0.0471
  189SAPI   O1321704   2.844   2.122   6.689 -0.5772  0.5464 -0.6195
  189SAPI   O1421705   2.599   2.184   6.712  0.2036 -0.0133  0.1600
  189SAPI   O1221706   2.671   1.983   6.826  0.0848 -0.6307  0.1668
  189SAPI   O1121707   2.663   1.996   6.575 -0.4932 -0.2242  0.0306
  189SAPI    C121708   2.529   1.958   6.539 -0.1418 -0.5397 -0.2172
  189SAPI    HA21709   2.539   1.865   6.478 -0.5237 -1.3391  0.8909
  189SAPI    HB21710   2.456   1.938   6.620 -0.8187 -0.2042 -0.7403
  189SAPI    C221711   2.474   2.068   6.452  0.5325  0.7828  0.2723
  189SAPI    HS21712   2.472   2.165   6.506 -1.0062 -0.6116  2.9271
  189SAPI   O2121713   2.339   2.031   6.410  0.1417  0.1179  0.3074
  189SAPI   C2121714   2.267   2.126   6.366  0.2661  0.3343  0.0993
  189SAPI   O2221715   2.301   2.242   6.354  0.1983  0.4725  0.5461
  189SAPI   C2221716   2.137   2.068   6.313 -0.4827  0.2363  0.2256
  189SAPI   H2R21717   2.134   1.957   6.314 -1.7290  0.2346 -1.4034
  189SAPI   H2S21718   2.060   2.092   6.389  0.5868 -1.8189  2.1218
  189SAPI    C321719   2.565   2.074   6.330 -1.0200  1.0259  0.4959
  189SAPI    HX21720   2.569   1.971   6.287  0.7189  0.3597  2.1223
  189SAPI    HY21721   2.671   2.076   6.363 -1.2234 -1.2881  1.4672
  189SAPI   O3121722   2.532   2.160   6.212  0.0464  0.0444 -0.0037
  189SAPI   C3121723   2.563   2.285   6.236 -0.0359 -0.2399  0.4364
  189SAPI   O3221724   2.632   2.330   6.328 -0.9707  0.3773  0.2767
  189SAPI   C3221725   2.518   2.364   6.112 -0.4743 -0.5807 -0.0472
  189SAPI   H2X21726   2.411   2.340   6.095 -0.1559 -3.4056  1.3531
  189SAPI   H2Y21727   2.564   2.327   6.018 -0.4734  0.0007 -0.2814
  189SAPI   C2321728   2.110   2.132   6.174 -0.3415  0.3094 -0.1499
  189SAPI   H3R21729   2.106   2.243   6.181 -1.8124  0.2739 -0.0779
  189SAPI   H3S21730   2.005   2.106   6.148 -0.4823 -0.5658  1.1976
  189SAPI   C2421731   2.211   2.077   6.065  0.5522 -0.3968 -0.1669
  189SAPI   H4R21732   2.205   1.966   6.075  0.8933 -0.3904  0.1288
  189SAPI   H4S21733   2.314   2.106   6.095  0.1472 -2.2472  3.5361
  189SAPI   C2521734   2.161   2.114   5.926 -0.4738  0.0653  0.3188
  189SAPI   H5R21735   2.051   2.121   5.927 -0.5582 -1.2460  0.7779
  189SAPI   C2621736   2.234   2.163   5.829 -0.0873 -0.7546  0.1207
  189SAPI   H6R21737   2.181   2.200   5.739  0.7504 -0.0990 -0.1163
  189SAPI   C2721738   2.385   2.184   5.834  0.0962  0.2096  0.3116
  189SAPI   H7R21739   2.437   2.092   5.870  1.2980  0.7952  0.1113
  189SAPI   H7S21740   2.400   2.254   5.919 -0.0396 -0.8157  1.2116
  189SAPI   C2821741   2.440   2.224   5.699 -0.4908 -0.0564  0.0028
  189SAPI   H8R21742   2.462   2.331   5.685 -1.3498  0.2606  1.0148
  189SAPI   C2921743   2.446   2.146   5.587 -0.1469 -0.1715 -0.0381
  189SAPI   H9R21744   2.490   2.194   5.498  1.6124 -1.0289  0.3317
  189SAPI  C21021745   2.398   2.003   5.561  0.0512  0.4241  0.1139
  189SAPI  H10R21746   2.303   2.009   5.506  0.4240 -1.0137 -0.7312
  189SAPI  H10S21747   2.360   1.966   5.658  0.9491  0.7527  0.6117
  189SAPI  C21121748   2.496   1.905   5.497  0.0014  0.5650  0.3080
  189SAPI  H11R21749   2.575   1.870   5.566  2.2895  1.1331 -1.8650
  189SAPI  C21221750   2.501   1.871   5.369 -0.1747  0.0283 -0.8286
  189SAPI  H12R21751   2.588   1.820   5.325 -0.9890 -1.4957 -0.7379
  189SAPI  C21321752   2.402   1.901   5.266  0.2186 -0.5304  0.1893
  189SAPI  H13R21753   2.297   1.879   5.296  0.1608 -1.1851 -0.4673
  189SAPI  H13S21754   2.416   1.831   5.181 -0.9540 -0.9573  0.3269
  189SAPI  C21421755   2.415   2.045   5.230  0.0982 -0.3089  0.2442
  189SAPI  H14R21756   2.384   2.113   5.310 -0.3719 -2.2458  1.7877
  189SAPI  C21521757   2.455   2.100   5.114  0.1306 -0.1455 -0.3692
  189SAPI  H15R21758   2.472   2.209   5.111 -0.7288 -0.0041 -0.5583
  189SAPI  C21621759   2.518   2.021   5.001 -0.2766 -0.0117  0.6086
  189SAPI  H16R21760   2.536   1.914   5.023  0.8801  0.2020  0.7544
  189SAPI  H16S21761   2.621   2.063   4.991  0.5883 -1.1960  3.5522
  189SAPI  C21721762   2.451   2.043   4.866 -0.0081 -1.0539 -0.3817
  189SAPI  H17R21763   2.453   2.149   4.833  2.4282 -1.0000 -0.2516
  189SAPI  H17S21764   2.343   2.018   4.877 -0.8026  1.1531 -2.3655
  189SAPI  C21821765   2.512   1.953   4.750  0.8317 -0.2689 -0.3652
  189SAPI  H18R21766   2.451   1.973   4.659  0.9304  0.5490 -0.2660
  189SAPI  H18S21767   2.523   1.848   4.783  0.1537 -0.3671 -0.4391
  189SAPI  C21921768   2.651   1.995   4.709  0.3002  0.2896 -0.3050
  189SAPI  H19R21769   2.715   1.981   4.798 -2.6760 -1.9504  1.6895
  189SAPI  H19S21770   2.655   2.106   4.702  0.6590  0.2252 -1.3136
  189SAPI  C22021771   2.708   1.924   4.586 -0.5273  1.1129  0.5883
  189SAPI  H20R21772   2.683   1.817   4.571  0.0125  0.8781  1.3114
  189SAPI  H20S21773   2.818   1.939   4.595 -0.0846 -0.0832 -2.0072
  189SAPI  H20T21774   2.680   1.981   4.495  0.3279  1.0801  0.2926
  189SAPI   C3321775   2.522   2.522   6.120  0.1402  0.2698  0.2191
  189SAPI   H3X21776   2.626   2.560   6.132  0.6244 -0.0315 -2.3196
  189SAPI   H3Y21777   2.466   2.562   6.207  0.4180  1.8891 -0.3197
  189SAPI   C3421778   2.452   2.586   5.997  0.5269 -0.4500 -0.2923
  189SAPI   H4X21779   2.439   2.695   6.013  4.3082 -0.0074  0.7401
  189SAPI   H4Y21780   2.352   2.538   5.987  0.9965 -1.8584  1.2161
  189SAPI   C3521781   2.534   2.567   5.871  0.5613  0.1537 -0.7375
  189SAPI   H5X21782   2.539   2.458   5.852 -0.6590 -0.4056  1.7979
  189SAPI   H5Y21783   2.631   2.622   5.875 -1.2587  3.6556 -0.7527
  189SAPI   C3621784   2.460   2.627   5.750 -1.0323 -0.0922 -0.4632
  189SAPI   H6X21785   2.453   2.738   5.754  0.9747  0.1037 -1.1002
  189SAPI   H6Y21786   2.360   2.581   5.738 -0.0108 -2.7436  0.5132
  189SAPI   C3721787   2.534   2.605   5.616  0.0926 -0.0103  0.1477
  189SAPI   H7X21788   2.545   2.497   5.592 -0.5036  0.0237 -0.2785
  189SAPI   H7Y21789   2.629   2.663   5.616 -0.3578  0.7460  0.9119
  189SAPI   C3821790   2.451   2.658   5.497  0.2610  0.8742  0.3774
  189SAPI   H8X21791   2.419   2.764   5.508 -1.4461  0.5086 -0.6219
  189SAPI   H8Y21792   2.352   2.608   5.507  0.4956  0.7479  2.2396
  189SAPI   C3921793   2.506   2.620   5.358 -0.4088  0.3845  0.0990
  189SAPI   H9X21794   2.467   2.522   5.325 -1.3739  0.9782 -0.5983
  189SAPI   H9Y21795   2.617   2.618   5.352 -0.4525 -1.0875 -0.5030
  189SAPI  C31021796   2.447   2.713   5.254 -0.3686  0.3442  0.8310
  189SAPI  H10X21797   2.480   2.816   5.279  0.3316  0.2456  0.3364
  189SAPI  H10Y21798   2.336   2.721   5.261 -0.5320  0.2105 -1.1315
  189SAPI  C31121799   2.478   2.669   5.104  0.4360 -0.2471 -0.2588
  189SAPI  H11X21800   2.583   2.632   5.102  0.1955 -0.9307 -1.0313
  189SAPI  H11Y21801   2.467   2.758   5.039 -0.8808 -0.1726  0.0338
  189SAPI  C31221802   2.389   2.550   5.057 -0.4449  0.5657  0.0466
  189SAPI  H12X21803   2.286   2.593   5.056  0.1078  1.9550 -1.2807
  189SAPI  H12Y21804   2.401   2.473   5.136  3.1646 -0.8698 -1.6647
  189SAPI  C31321805   2.432   2.497   4.925 -0.2669  0.4097  0.2234
  189SAPI  H13X21806   2.360   2.420   4.889 -2.0262  0.5912  2.9987
  189SAPI  H13Y21807   2.530   2.444   4.926 -0.2419  0.3443 -1.9044
  189SAPI  C31421808   2.455   2.594   4.811  0.0941 -0.5973  0.3852
  189SAPI  H14X21809   2.479   2.540   4.717 -0.7635  2.0819 -1.4777
  189SAPI  H14Y21810   2.542   2.660   4.830 -0.0201 -0.0488 -0.8825
  189SAPI  C31521811   2.333   2.679   4.766 -0.0874  0.8204 -0.1682
  189SAPI  H15X21812   2.313   2.742   4.856  1.1683  1.4149 -0.2769
  189SAPI  H15Y21813   2.247   2.614   4.740  1.8283 -1.1720 -1.8619
  189SAPI  C31621814   2.357   2.781   4.645  0.6717  0.5358 -0.5271
  189SAPI  H16X21815   2.411   2.723   4.568 -0.3083  0.5806 -1.2582
  189SAPI  H16Y21816   2.419   2.862   4.688 -0.0445  1.2478 -0.7985
  189SAPI  C31721817   2.226   2.841   4.591  0.4640 -0.3043  0.0348
  189SAPI  H17X21818   2.164   2.878   4.675 -0.1612 -0.2709 -0.4288
  189SAPI  H17Y21819   2.168   2.760   4.543  0.1334 -0.7464  1.1687
  189SAPI  C31821820   2.245   2.965   4.503 -0.3627  0.2106  0.0121
  189SAPI  H18X21821   2.169   2.977   4.423  0.0895  0.3301 -0.4045
  189SAPI  H18Y21822   2.347   2.956   4.457 -0.2456 -2.9402  0.6713
  189SAPI  H18Z21823   2.248   3.059   4.561 -0.4007 -0.3726  0.9676
  190SAPI   C1221824   1.646   6.308   6.717  0.0730 -0.0774 -0.2235
  190SAPI    H221825   1.662   6.403   6.772 -0.5155 -0.7671  1.1635
  190SAPI    O221826   1.647   6.352   6.583  0.4023 -0.4619  0.7309
  190SAPI   HO221827   1.561   6.391   6.570 -0.0645 -1.4203  0.8533
  190SAPI   C1321828   1.759   6.215   6.756 -0.1674  0.9128 -0.1660
  190SAPI    H321829   1.739   6.183   6.860  0.5296 -0.9439 -0.5758
  190SAPI    O321830   1.881   6.276   6.753 -0.5969  0.0029 -0.1027
  190SAPI   HO321831   1.901   6.302   6.663 -0.0802 -0.3766 -0.1023
  190SAPI   C1421832   1.756   6.097   6.655 -0.3540 -0.0567  0.1796
  190SAPI    H421833   1.774   6.140   6.554 -2.0324 -0.4746 -0.3376
  190SAPI    O421834   1.858   6.001   6.677 -0.5433  0.1655 -0.4133
  190SAPI   HO421835   1.862   5.983   6.771 -0.6879  2.5605  0.1226
  190SAPI   C1521836   1.620   6.024   6.656 -0.5130  0.2986 -0.4045
  190SAPI    H521837   1.616   5.969   6.752 -1.3341  1.4911  0.2675
  190SAPI    O521838   1.606   5.916   6.558 -0.3055 -0.2195 -0.1820
  190SAPI   HO521839   1.512   5.897   6.562  0.0900 -2.2105  2.4287
  190SAPI   C1621840   1.494   6.117   6.676  0.5820 -0.1790 -0.3651
  190SAPI    H621841   1.472   6.155   6.574 -0.9483 -0.0483 -0.0104
  190SAPI    O621842   1.385   6.038   6.722 -0.6283 -0.5550 -0.0832
  190SAPI   HO621843   1.304   6.091   6.719  0.6807  1.5405 -0.4249
  190SAPI   C1121844   1.514   6.248   6.757  0.9630  0.0081 -0.2469
  190SAPI    H121845   1.520   6.221   6.864  1.8617  1.1122  0.0001
  190SAPI     P21846   1.354   6.436   6.871 -0.0453 -0.1200  0.0933
  190SAPI   O1321847   1.472   6.499   6.936 -0.4611  0.4840 -0.0209
  190SAPI   O1421848   1.275   6.349   6.965  0.0153 -0.2998  0.0792
  190SAPI   O1221849   1.405   6.347   6.740 -0.1947 -0.2250  0.4193
  190SAPI   O1121850   1.261   6.550   6.815 -0.0213 -0.4866  0.7773
  190SAPI    C121851   1.296   6.624   6.700 -0.0780 -0.3847 -0.1821
  190SAPI    HA21852   1.298   6.732   6.727 -0.1276 -0.7605  1.4874
  190SAPI    HB21853   1.396   6.594   6.662 -0.1950 -1.4823  0.3393
  190SAPI    C221854   1.192   6.611   6.582 -0.1090 -0.1123  0.2491
  190SAPI    HS21855   1.090   6.611   6.626 -0.5382 -2.2562 -0.5918
  190SAPI   O2121856   1.209   6.477   6.516  0.6156 -0.0865 -0.5957
  190SAPI   C2121857   1.099   6.417   6.477 -0.5127 -0.1293  0.1838
  190SAPI   O2221858   0.989   6.475   6.461 -0.5160  0.1080  0.2036
  190SAPI   C2221859   1.132   6.272   6.449 -0.1637 -0.1548 -0.1060
  190SAPI   H2R21860   1.241   6.256   6.442  0.0930  1.8050 -2.0032
  190SAPI   H2S21861   1.092   6.213   6.534  0.4290 -1.0926 -0.4612
  190SAPI    C321862   1.212   6.722   6.474 -0.3342 -0.1628 -0.6322
  190SAPI    HX21863   1.318   6.716   6.442 -1.0197  1.1280 -3.4727
  190SAPI    HY21864   1.199   6.820   6.524  0.6310  1.3693 -3.2044
  190SAPI   O3121865   1.137   6.693   6.357  0.1663 -0.3344 -0.0363
  190SAPI   C3121866   1.015   6.740   6.364 -0.3769  0.7873 -0.2321
  190SAPI   O3221867   0.966   6.786   6.466  0.8141  0.0438 -0.6910
  190SAPI   C3221868   0.946   6.735   6.228  0.2345  0.3336  0.2254
  190SAPI   H2X21869   0.841   6.767   6.243 -0.0977 -1.4564  2.0502
  190SAPI   H2Y21870   0.957   6.636   6.179 -1.3285  0.2083  0.0725
  190SAPI   C2321871   1.068   6.218   6.319  0.0847 -0.4409  0.1357
  190SAPI   H3R21872   0.966   6.260   6.303  1.2054  2.4539 -0.1327
  190SAPI   H3S21873   1.072   6.107   6.318  2.8458 -0.4019 -0.2759
  190SAPI   C2421874   1.132   6.265   6.187 -0.4167 -0.3256  0.0464
  190SAPI   H4R21875   1.242   6.249   6.194 -0.5040 -0.2259  3.6495
  190SAPI   H4S21876   1.131   6.376   6.179 -0.1118 -0.4212 -1.4631
  190SAPI   C2521877   1.063   6.204   6.064 -0.5672  0.1814 -0.1710
  190SAPI   H5R21878   0.955   6.226   6.054 -0.8494  0.2703  2.5067
  190SAPI   C2621879   1.122   6.120   5.978  1.1776 -0.7066  0.3349
  190SAPI   H6R21880   1.062   6.093   5.889  2.8925  0.2349 -1.1899
  190SAPI   C2721881   1.267   6.081   5.972 -0.5249  0.2242  0.0717
  190SAPI   H7R21882   1.308   6.074   6.075 -0.9601  1.2135  0.3234
  190SAPI   H7S21883   1.336   6.149   5.917 -0.4542  0.7549  0.7981
  190SAPI   C2821884   1.289   5.946   5.904 -0.1023 -0.0818 -0.5348
  190SAPI   H8R21885   1.250   5.860   5.960  0.2418 -1.9890 -3.0561
  190SAPI   C2921886   1.344   5.919   5.777  0.1843 -0.3116 -0.9174
  190SAPI   H9R21887   1.347   5.813   5.749 -0.1697 -1.0880  1.7293
  190SAPI  C21021888   1.392   6.022   5.668  0.3468 -0.4570 -0.4468
  190SAPI  H10R21889   1.457   5.960   5.602  1.1121 -0.2087  0.0734
  190SAPI  H10S21890   1.463   6.095   5.712  0.2743 -0.0765 -0.9406
  190SAPI  C21121891   1.284   6.100   5.599 -0.3198 -0.9610  0.2330
  190SAPI  H11R21892   1.194   6.120   5.659 -1.9745  0.2114 -2.4507
  190SAPI  C21221893   1.290   6.139   5.469  0.1216 -0.2982  0.2431
  190SAPI  H12R21894   1.202   6.193   5.431  0.3917 -0.8227 -1.1772
  190SAPI  C21321895   1.405   6.113   5.372 -0.1028 -0.1955  0.4094
  190SAPI  H13R21896   1.502   6.096   5.423  0.6135 -0.2475 -0.9166
  190SAPI  H13S21897   1.431   6.204   5.313  0.3846 -0.2672  0.5078
  190SAPI  C21421898   1.370   5.993   5.290 -0.5437  0.0997  0.3536
  190SAPI  H14R21899   1.357   5.901   5.349  1.8231  0.4513  1.5805
  190SAPI  C21521900   1.374   5.970   5.155  0.7214 -0.1938  0.3100
  190SAPI  H15R21901   1.335   5.874   5.117  0.4627  0.0488 -0.0388
  190SAPI  C21621902   1.407   6.066   5.044  0.3404  0.3254  0.3284
  190SAPI  H16R21903   1.464   6.157   5.075 -0.4515  0.9125  0.1088
  190SAPI  H16S21904   1.311   6.109   5.007  0.7094  1.7139  0.8855
  190SAPI  C21721905   1.486   6.006   4.927  0.2958  0.8266  0.0521
  190SAPI  H17R21906   1.581   5.961   4.964  0.1572 -0.6594 -1.2626
  190SAPI  H17S21907   1.511   6.083   4.851  0.9140  0.2311 -0.3702
  190SAPI  C21821908   1.412   5.886   4.861  1.0985  0.5077 -0.2444
  190SAPI  H18R21909   1.306   5.914   4.843  0.5053 -2.4190 -1.8604
  190SAPI  H18S21910   1.421   5.790   4.916 -0.8555  0.0894 -0.5812
  190SAPI  C21921911   1.466   5.856   4.713  0.0723  0.0537 -0.5705
  190SAPI  H19R21912   1.470   5.951   4.655 -2.8847  0.8360  0.3152
  190SAPI  H19S21913   1.390   5.792   4.664  1.6263 -2.2169 -0.1743
  190SAPI  C22021914   1.599   5.784   4.714 -0.4217 -0.1117 -0.4731
  190SAPI  H20R21915   1.589   5.676   4.733  1.0270 -0.1121  0.4501
  190SAPI  H20S21916   1.658   5.817   4.802 -0.2014 -0.1789 -0.5956
  190SAPI  H20T21917   1.650   5.803   4.617  0.7504 -0.8419 -0.0199
  190SAPI   C3321918   1.003   6.831   6.128  0.5052  0.2860 -0.1471
  190SAPI   H3X21919   0.992   6.937   6.158  1.3060  0.5861 -0.8496
  190SAPI   H3Y21920   0.926   6.833   6.048  0.7863 -0.1243 -0.4361
  190SAPI   C3421921   1.138   6.780   6.061 -0.6139 -0.5974 -0.5116
  190SAPI   H4X21922   1.132   6.679   6.014  0.6271 -0.0653 -1.8818
  190SAPI   H4Y21923   1.214   6.778   6.142 -0.7058  2.2364 -0.2474
  190SAPI   C3521924   1.188   6.878   5.955 -0.3990 -0.4826 -0.3328
  190SAPI   H5X21925   1.295   6.861   5.931 -0.5906  0.6942 -2.2162
  190SAPI   H5Y21926   1.180   6.977   6.005  0.9084 -1.3435  1.7307
  190SAPI   C3621927   1.097   6.883   5.832 -0.5924 -0.2665 -0.8975
  190SAPI   H6X21928   1.009   6.943   5.863 -1.4562 -0.9463 -1.9570
  190SAPI   H6Y21929   1.073   6.779   5.803  3.3818 -1.5445 -0.2536
  190SAPI   C3721930   1.159   6.958   5.720  0.0920  0.0010  0.0975
  190SAPI   H7X21931   1.251   6.906   5.686 -0.4382 -0.3493 -0.8171
  190SAPI   H7Y21932   1.178   7.054   5.773 -0.0861 -0.8869  1.8638
  190SAPI   C3821933   1.067   6.982   5.598  0.5465  0.5478  0.0473
  190SAPI   H8X21934   0.972   7.036   5.617 -0.2461 -0.5979 -0.5924
  190SAPI   H8Y21935   1.043   6.877   5.573 -0.5220  0.8025 -0.0394
  190SAPI   C3921936   1.136   7.053   5.483 -0.4619 -0.2185 -0.7096
  190SAPI   H9X21937   1.242   7.023   5.470 -0.3605 -0.1234 -0.1140
  190SAPI   H9Y21938   1.138   7.161   5.509 -1.1562 -0.8233  2.2516
  190SAPI  C31021939   1.066   7.049   5.344  0.1918 -0.2186  0.1235
  190SAPI  H10X21940   0.956   7.061   5.334  0.4336  0.6301 -1.8983
  190SAPI  H10Y21941   1.086   6.944   5.313 -1.7361 -0.8978  1.0456
  190SAPI  C31121942   1.145   7.137   5.248 -0.1118  0.1606 -0.0018
  190SAPI  H11X21943   1.255   7.128   5.260 -0.2491  0.5629  1.8626
  190SAPI  H11Y21944   1.119   7.239   5.286  0.6401 -0.3484  1.9803
  190SAPI  C31221945   1.108   7.120   5.103  0.0973  0.3733 -0.0881
  190SAPI  H12X21946   1.001   7.144   5.087  0.3657  1.0488 -0.9858
  190SAPI  H12Y21947   1.115   7.013   5.074 -1.3762  0.0582  0.6717
  190SAPI  C31321948   1.182   7.216   5.008 -0.2808  0.0801  0.0036
  190SAPI  H13X21949   1.290   7.206   5.031 -0.0279  0.5238 -0.9405
  190SAPI  H13Y21950   1.148   7.317   5.038 -0.3607  0.2331 -0.6022
  190SAPI  C31421951   1.149   7.182   4.863 -0.6121  0.4827  0.2280
  190SAPI  H14X21952   1.043   7.199   4.835 -0.6316  2.1359  1.2048
  190SAPI  H14Y21953   1.183   7.077   4.850  0.9878  1.1156 -1.0610
  190SAPI  C31521954   1.233   7.275   4.771  0.5121  0.2546  0.0859
  190SAPI  H15X21955   1.337   7.266   4.809  0.2705 -2.1925  0.3485
  190SAPI  H15Y21956   1.216   7.382   4.798  1.3025  0.3067  0.4099
  190SAPI  C31621957   1.219   7.241   4.619  0.1263  0.1032 -0.5174
  190SAPI  H16X21958   1.113   7.270   4.599 -0.3672 -1.6540 -0.6460
  190SAPI  H16Y21959   1.224   7.131   4.603  1.1644  0.0084  0.4059
  190SAPI  C31721960   1.319   7.322   4.540 -0.4135  0.1314 -0.2214
  190SAPI  H17X21961   1.360   7.259   4.458 -1.4878 -0.2574 -0.4734
  190SAPI  H17Y21962   1.402   7.358   4.605  0.9952 -1.9751 -0.7430
  190SAPI  C31821963   1.249   7.440   4.473 -0.0620  0.3169  0.3990
  190SAPI  H18X21964   1.198   7.506   4.547 -1.7062 -1.1857  0.6778
  190SAPI  H18Y21965   1.191   7.416   4.381  2.5122  0.2832 -1.3203
  190SAPI  H18Z21966   1.338   7.497   4.440  0.5104 -0.5032  0.4926
  191SAPI   C1221967   5.241   4.916   2.613 -0.0075  0.8779  0.6385
  191SAPI    H221968   5.165   4.950   2.686 -0.3530 -1.4653  1.4623
  191SAPI    O221969   5.216   4.996   2.492  0.6161  0.2841  0.1620
  191SAPI   HO221970   5.137   5.051   2.500  1.3821  1.5020 -0.3114
  191SAPI   C1321971   5.378   4.942   2.654 -0.5023  0.4055  0.1849
  191SAPI    H321972   5.395   4.891   2.751  0.7779 -2.0328 -1.2266
  191SAPI    O321973   5.404   5.077   2.686 -0.3960  0.1599 -0.6378
  191SAPI   HO321974   5.389   5.137   2.612 -0.4901  2.3812  1.0848
  191SAPI   C1421975   5.477   4.886   2.554 -0.5670 -0.0269  0.3986
  191SAPI    H421976   5.480   4.960   2.472  2.3898  0.4063  0.7707
  191SAPI    O421977   5.606   4.871   2.605 -0.1616  0.1509  0.1939
  191SAPI   HO421978   5.641   4.957   2.630 -0.6684  0.0851  1.1663
  191SAPI   C1521979   5.433   4.752   2.481 -0.3851  0.1873 -0.3608
  191SAPI    H521980   5.476   4.679   2.554  2.4072  0.3916 -1.6533
  191SAPI    O521981   5.497   4.733   2.360 -0.0582 -0.0498  0.2489
  191SAPI   HO521982   5.435   4.760   2.292 -0.6605 -3.3598 -0.6905
  191SAPI   C1621983   5.278   4.717   2.470  0.0027  0.1119 -1.2220
  191SAPI    H621984   5.242   4.776   2.383 -1.4585  0.6919 -0.2596
  191SAPI    O621985   5.256   4.573   2.445  0.3682  0.0926  0.3990
  191SAPI   HO621986   5.183   4.540   2.497  1.1836  0.6624  1.9968
  191SAPI   C1121987   5.204   4.767   2.589 -0.4632  0.2309  0.0736
  191SAPI    H121988   5.245   4.716   2.679  1.1237  0.0768 -0.6922
  191SAPI     P21989   4.983   4.608   2.616  0.0132 -0.8283 -0.1936
  191SAPI   O1321990   5.050   4.485   2.572  0.3202  0.3438 -0.2046
  191SAPI   O1421991   4.840   4.630   2.582 -0.1375  0.2081 -0.1526
  191SAPI   O1221992   5.074   4.738   2.559  0.4577 -0.3917  0.4449
  191SAPI   O1121993   5.004   4.636   2.774 -0.4792  0.4893 -0.5006
  191SAPI    C121994   4.959   4.758   2.830  0.6332 -0.4298 -0.6458
  191SAPI    HA21995   5.047   4.825   2.827  0.2308  0.2749  1.4464
  191SAPI    HB21996   4.875   4.802   2.772 -0.6371 -0.1427  1.2952
  191SAPI    C221997   4.914   4.756   2.982 -0.0129 -0.5072 -0.4891
  191SAPI    HS21998   4.869   4.854   3.008  1.0023 -0.1531 -0.0256
  191SAPI   O2121999   5.017   4.709   3.075 -0.1050  0.4437  0.1823
  191SAPI   C2122000   5.096   4.815   3.096 -0.5222  1.0022 -0.0339
  191SAPI   O2222001   5.083   4.926   3.054 -0.5121 -0.1604  0.2667
  191SAPI   C2222002   5.192   4.773   3.208 -0.2335 -0.6668 -0.1704
  191SAPI   H2R22003   5.233   4.670   3.201  2.2895 -0.3868  5.2917
  191SAPI   H2S22004   5.284   4.835   3.200 -0.8827  0.1410 -2.0783
  191SAPI    C322005   4.802   4.648   2.987 -0.0496 -0.4102  0.3851
  191SAPI    HX22006   4.847   4.554   2.951 -0.3382 -0.0308 -1.0398
  191SAPI    HY22007   4.708   4.680   2.935 -1.6546 -0.5906  3.0042
  191SAPI   O3122008   4.758   4.623   3.117  0.2421  0.7239  0.0350
  191SAPI   C3122009   4.678   4.709   3.173 -0.0918  0.3883  0.0587
  191SAPI   O3222010   4.640   4.820   3.121  0.2202  0.5621 -0.3090
  191SAPI   C3222011   4.631   4.648   3.305 -0.9108 -0.2368 -0.1061
  191SAPI   H2X22012   4.684   4.552   3.320 -0.0195  0.5256  2.0010
  191SAPI   H2Y22013   4.522   4.637   3.319 -0.6803 -0.6399  1.5734
  191SAPI   C2322014   5.132   4.796   3.353 -0.4338 -0.1190 -0.0784
  191SAPI   H3R22015   5.208   4.767   3.429  0.3338  0.4653 -0.6095
  191SAPI   H3S22016   5.047   4.725   3.363  0.2480 -1.0611 -0.7827
  191SAPI   C2422017   5.083   4.944   3.372 -0.5766  0.2795 -0.0135
  191SAPI   H4R22018   4.997   4.972   3.308 -1.0491  1.2516  1.0103
  191SAPI   H4S22019   5.170   5.011   3.352 -0.7486  1.3213  2.4490
  191SAPI   C2522020   5.023   4.962   3.505  0.0967 -0.0890  0.2295
  191SAPI   H5R22021   4.927   4.910   3.522 -0.5520  1.6572  2.2453
  191SAPI   C2622022   5.070   5.035   3.606  0.3040 -0.7855  0.1265
  191SAPI   H6R22023   5.011   5.047   3.698  0.2373 -0.1749  0.0122
  191SAPI   C2722024   5.206   5.097   3.622  0.2610 -0.2794 -0.0872
  191SAPI   H7R22025   5.191   5.159   3.713 -1.5349  1.0141 -1.1831
  191SAPI   H7S22026   5.215   5.168   3.537  1.0717 -0.4027 -0.1076
  191SAPI   C2822027   5.325   5.004   3.627 -0.6492  0.2110 -0.3650
  191SAPI   H8R22028   5.286   4.901   3.629  0.0143 -0.0574  1.9314
  191SAPI   C2922029   5.458   5.042   3.622  0.3771  0.5776 -0.3812
  191SAPI   H9R22030   5.543   4.978   3.593 -1.0345  0.0339 -3.8099
  191SAPI  C21022031   5.496   5.186   3.634 -0.7493 -0.9870 -0.8587
  191SAPI  H10R22032   5.419   5.253   3.589 -0.0363  1.1678  0.9182
  191SAPI  H10S22033   5.589   5.191   3.573  0.8202 -1.4354  1.3790
  191SAPI  C21122034   5.522   5.243   3.774 -0.2543 -0.1039 -0.4787
  191SAPI  H11R22035   5.595   5.187   3.835 -1.0682 -1.6190 -0.8369
  191SAPI  C21222036   5.448   5.331   3.839  0.3159 -0.1996 -0.1954
  191SAPI  H12R22037   5.467   5.349   3.945  1.3178 -2.0250 -0.0264
  191SAPI  C21322038   5.336   5.418   3.787 -0.1729 -0.0402  0.2107
  191SAPI  H13R22039   5.238   5.372   3.813 -0.2060  0.0951  0.3288
  191SAPI  H13S22040   5.340   5.443   3.679  0.3201  0.2948  0.3034
  191SAPI  C21422041   5.342   5.555   3.846 -0.2931 -0.7330  0.0442
  191SAPI  H14R22042   5.376   5.557   3.950  0.5554  0.3493 -0.2431
  191SAPI  C21522043   5.274   5.665   3.794 -0.0881  0.4940  0.2876
  191SAPI  H15R22044   5.281   5.761   3.847 -2.1527  0.7619  0.1602
  191SAPI  C21622045   5.216   5.680   3.654  0.5614 -0.0888 -0.4540
  191SAPI  H16R22046   5.214   5.583   3.598 -0.7826 -0.3332 -0.0169
  191SAPI  H16S22047   5.274   5.751   3.591 -2.1586  2.7708 -0.0019
  191SAPI  C21722048   5.072   5.738   3.661  0.0713 -0.1613 -0.4305
  191SAPI  H17R22049   5.046   5.753   3.554  1.7456  0.3352 -0.7983
  191SAPI  H17S22050   5.082   5.832   3.719  0.8837  0.0960 -0.9735
  191SAPI  C21822051   4.968   5.642   3.727 -0.4872  0.1211 -0.2844
  191SAPI  H18R22052   5.006   5.607   3.825  1.5251  1.0560 -0.6708
  191SAPI  H18S22053   4.954   5.547   3.671  0.0687  1.1149 -2.2167
  191SAPI  C21922054   4.835   5.709   3.762 -0.2495 -0.2786  0.1787
  191SAPI  H19R22055   4.759   5.631   3.786  1.5396 -1.5746  1.9367
  191SAPI  H19S22056   4.799   5.756   3.668 -0.6872  0.5573  0.7512
  191SAPI  C22022057   4.836   5.818   3.870  0.5186  0.1698 -0.0595
  191SAPI  H20R22058   4.892   5.784   3.960  3.0781  1.7395 -0.9417
  191SAPI  H20S22059   4.735   5.850   3.905  0.5091 -2.1449  2.3138
  191SAPI  H20T22060   4.893   5.909   3.841  1.4230 -0.6905 -1.0485
  191SAPI   C3322061   4.679   4.737   3.418  0.4241  0.2727  0.0959
  191SAPI   H3X22062   4.629   4.836   3.414  1.2781  0.6835 -0.6004
  191SAPI   H3Y22063   4.789   4.749   3.410  0.4030  1.4992  1.2536
  191SAPI   C3422064   4.647   4.677   3.553  0.1352 -0.0408  0.6385
  191SAPI   H4X22065   4.677   4.570   3.558 -0.5210 -0.1834  1.8720
  191SAPI   H4Y22066   4.537   4.679   3.568 -0.0066 -1.4254 -0.1199
  191SAPI   C3522067   4.726   4.750   3.664 -0.1438  0.7487 -0.2952
  191SAPI   H5X22068   4.699   4.857   3.656 -0.3531  0.8631  1.5664
  191SAPI   H5Y22069   4.833   4.729   3.641 -0.4722 -1.5773  0.0344
  191SAPI   C3622070   4.690   4.685   3.801 -0.1368 -0.0738 -0.3732
  191SAPI   H6X22071   4.735   4.585   3.818  0.3719  0.1323 -0.4752
  191SAPI   H6Y22072   4.580   4.676   3.808 -0.1978  0.4292 -0.5987
  191SAPI   C3722073   4.749   4.766   3.917  0.6834  0.1631  0.4633
  191SAPI   H7X22074   4.704   4.725   4.010 -0.7531 -0.0069 -0.2754
  191SAPI   H7Y22075   4.719   4.872   3.904 -0.8385 -0.0150  2.1889
  191SAPI   C3822076   4.901   4.769   3.932  0.9749 -0.2434 -0.1986
  191SAPI   H8X22077   4.957   4.785   3.838  2.0087 -1.6569  0.1398
  191SAPI   H8Y22078   4.948   4.673   3.962 -1.0177 -0.7768  1.4520
  191SAPI   C3922079   4.952   4.878   4.030 -0.2635 -0.5222 -0.1381
  191SAPI   H9X22080   4.902   4.863   4.128 -0.9818 -1.3006 -0.6164
  191SAPI   H9Y22081   4.910   4.975   3.995  0.5261  0.8963  2.5439
  191SAPI  C31022082   5.111   4.886   4.046  0.5461 -1.0983 -0.0145
  191SAPI  H10X22083   5.154   4.896   3.944 -0.2586  0.3583 -0.2402
  191SAPI  H10Y22084   5.155   4.797   4.094  1.4111 -0.2944  0.7119
  191SAPI  C31122085   5.160   5.017   4.119  0.6107  0.5015 -0.8164
  191SAPI  H11X22086   5.133   5.005   4.226 -1.3046  0.5342 -1.2523
  191SAPI  H11Y22087   5.109   5.110   4.084  0.8973  0.4231 -1.4491
  191SAPI  C31222088   5.309   5.027   4.093 -0.1032  0.7460 -0.1223
  191SAPI  H12X22089   5.324   5.044   3.984 -0.4193  2.5458  0.0783
  191SAPI  H12Y22090   5.352   4.930   4.125 -2.8176 -0.0140  1.5297
  191SAPI  C31322091   5.381   5.141   4.170  0.0991  0.7701  0.8686
  191SAPI  H13X22092   5.361   5.137   4.279  3.1256  0.6511  1.4956
  191SAPI  H13Y22093   5.352   5.242   4.133  0.9359  1.4247  1.9396
  191SAPI  C31422094   5.536   5.137   4.141  0.0070 -0.2095 -0.3286
  191SAPI  H14X22095   5.553   5.108   4.036  3.1577  3.1071 -0.9378
  191SAPI  H14Y22096   5.580   5.066   4.214  1.0055 -0.4873 -1.1840
  191SAPI  C31522097   5.596   5.273   4.169  0.5324  0.0643 -0.2871
  191SAPI  H15X22098   5.593   5.303   4.276  1.2851 -0.5860 -0.0835
  191SAPI  H15Y22099   5.541   5.355   4.116 -2.1902 -1.5621 -0.1537
  191SAPI  C31622100   5.746   5.281   4.132  0.1290 -0.6253  0.2943
  191SAPI  H16X22101   5.755   5.253   4.025  0.2748 -1.6392  0.5637
  191SAPI  H16Y22102   5.803   5.211   4.198 -0.8614 -1.3134  0.4375
  191SAPI  C31722103   5.813   5.419   4.150 -0.0148 -0.8992 -0.1106
  191SAPI  H17X22104   5.746   5.499   4.110  0.7641  0.5908  1.4659
  191SAPI  H17Y22105   5.917   5.410   4.114  0.3763  0.2909  0.6713
  191SAPI  C31822106   5.823   5.449   4.296 -0.0020  0.1549  0.6186
  191SAPI  H18X22107   5.868   5.548   4.317 -0.1701  0.2130  0.7127
  191SAPI  H18Y22108   5.869   5.365   4.353  0.2178 -0.6771 -0.7522
  191SAPI  H18Z22109   5.717   5.451   4.330 -0.4814  0.6050 -0.8591
  192SAPI   C1222110   1.918   3.895   1.953  0.2154 -0.2346 -0.0082
  192SAPI    H222111   1.835   3.843   1.900 -0.9424  2.3655 -0.9108
  192SAPI    O222112   2.030   3.868   1.869 -0.3634 -0.0333  0.3497
  192SAPI   HO222113   1.992   3.852   1.783 -0.4889  1.9657 -0.0005
  192SAPI   C1322114   1.892   4.042   1.945  0.0234 -0.5947 -0.4338
  192SAPI    H322115   1.800   4.070   2.000  0.1438  0.8960 -0.9476
  192SAPI    O322116   1.858   4.078   1.809  0.3881 -0.0301 -0.0500
  192SAPI   HO322117   1.911   4.025   1.748 -1.9038 -1.3852 -0.9749
  192SAPI   C1422118   2.007   4.124   2.002 -0.8800  0.4983  0.4079
  192SAPI    H422119   2.086   4.118   1.924  1.0237 -0.2318  2.2794
  192SAPI    O422120   1.985   4.265   2.015 -0.3944 -0.1458 -0.1472
  192SAPI   HO422121   1.929   4.304   1.947  0.9811  2.0613 -0.1307
  192SAPI   C1522122   2.074   4.064   2.130 -0.4857 -0.4953  0.5682
  192SAPI    H522123   2.020   4.117   2.212 -0.3662 -2.3941  1.9433
  192SAPI    O522124   2.214   4.096   2.136  0.4346  0.0882 -0.5790
  192SAPI   HO522125   2.216   4.176   2.189 -0.6386 -0.4620  0.3296
  192SAPI   C1622126   2.051   3.915   2.167 -0.0769  0.6069  0.6128
  192SAPI    H622127   2.135   3.852   2.130 -0.2877  0.5700  0.1980
  192SAPI    O622128   2.057   3.894   2.306 -0.1320  0.5693 -0.9549
  192SAPI   HO622129   2.106   3.814   2.324  0.2121  1.0171  0.1537
  192SAPI   C1122130   1.930   3.849   2.095 -0.2019 -0.0384 -0.4394
  192SAPI    H122131   1.847   3.893   2.154  1.5787  1.5051  1.0201
  192SAPI     P22132   1.791   3.613   2.133 -0.2770  0.1871 -0.1310
  192SAPI   O1322133   1.806   3.469   2.089  0.3041 -0.1031  0.3582
  192SAPI   O1422134   1.678   3.693   2.081 -0.0839  0.7814 -1.2087
  192SAPI   O1222135   1.928   3.704   2.100 -0.5663  0.8504 -0.2533
  192SAPI   O1122136   1.785   3.619   2.287  0.1602 -0.0389 -0.1771
  192SAPI    C122137   1.733   3.727   2.368  0.0070  0.5906 -0.4404
  192SAPI    HA22138   1.817   3.788   2.408  0.2758 -0.4557  0.6620
  192SAPI    HB22139   1.668   3.794   2.307  0.2632  0.4801 -0.8304
  192SAPI    C222140   1.658   3.679   2.495 -0.5005 -0.6962  0.3826
  192SAPI    HS22141   1.619   3.767   2.549  1.0103  0.0091  0.3799
  192SAPI   O2122142   1.750   3.597   2.580  0.3392 -0.0232 -0.6497
  192SAPI   C2122143   1.839   3.674   2.646  0.0844 -0.8168 -0.7520
  192SAPI   O2222144   1.851   3.795   2.632  0.5458 -0.1816 -0.1901
  192SAPI   C2222145   1.941   3.593   2.723  0.3108 -0.6106  0.3293
  192SAPI   H2R22146   1.888   3.570   2.818 -0.2842 -0.1488  0.1190
  192SAPI   H2S22147   1.959   3.493   2.678  1.3061  0.4579 -1.8045
  192SAPI    C322148   1.536   3.588   2.472  0.0563 -0.1357 -0.2609
  192SAPI    HX22149   1.573   3.504   2.410 -1.4280  0.6955 -2.4116
  192SAPI    HY22150   1.473   3.648   2.401 -0.3363 -2.1393 -1.6833
  192SAPI   O3122151   1.464   3.540   2.596  0.0599 -0.3291 -0.9125
  192SAPI   C3122152   1.339   3.522   2.570 -0.2811  0.4140 -0.3447
  192SAPI   O3222153   1.279   3.541   2.466  0.1333  0.2654 -0.1048
  192SAPI   C3222154   1.271   3.487   2.701 -0.1529  0.9224 -0.9280
  192SAPI   H2X22155   1.248   3.586   2.746 -2.1217 -0.0303  0.3127
  192SAPI   H2Y22156   1.343   3.427   2.762 -0.5722 -0.1926 -1.4864
  192SAPI   C2322157   2.081   3.658   2.743 -0.2885 -0.6158 -0.7196
  192SAPI   H3R22158   2.076   3.754   2.799  0.4039  1.1368 -3.4588
  192SAPI   H3S22159   2.120   3.683   2.643  0.8053 -1.8959 -0.6325
  192SAPI   C2422160   2.171   3.563   2.826 -0.0981 -0.1787 -0.0719
  192SAPI   H4R22161   2.275   3.595   2.806  0.0164 -0.4079  0.1580
  192SAPI   H4S22162   2.173   3.460   2.783 -2.6226 -1.1960  1.9857
  192SAPI   C2522163   2.152   3.567   2.975  0.0758 -1.1234 -0.2104
  192SAPI   H5R22164   2.120   3.663   3.020 -1.0485 -0.6624 -1.8841
  192SAPI   C2622165   2.164   3.461   3.054  0.5700  0.6120 -0.1256
  192SAPI   H6R22166   2.137   3.471   3.160 -2.9240  0.4805 -0.9079
  192SAPI   C2722167   2.211   3.324   3.006  0.2401  0.5939 -0.1353
  192SAPI   H7R22168   2.186   3.302   2.900  0.8821 -0.9887  0.0104
  192SAPI   H7S22169   2.163   3.241   3.062  3.3883 -2.2420 -1.3114
  192SAPI   C2822170   2.361   3.306   3.030 -0.6445  0.2371  0.1779
  192SAPI   H8R22171   2.424   3.394   3.010 -1.0100  0.4055 -0.2381
  192SAPI   C2922172   2.432   3.192   3.038  0.3607 -0.2265 -0.0491
  192SAPI   H9R22173   2.538   3.204   3.063  0.4174 -0.4772 -0.1637
  192SAPI  C21022174   2.366   3.061   3.060 -0.3128 -0.4810  0.9805
  192SAPI  H10R22175   2.286   3.046   2.984 -0.9162  1.0694  1.2635
  192SAPI  H10S22176   2.301   3.077   3.149 -0.2611  1.2429  0.7510
  192SAPI  C21122177   2.443   2.937   3.082 -0.1821 -0.1675  0.1201
  192SAPI  H11R22178   2.542   2.939   3.034 -0.3600  1.7445 -0.2596
  192SAPI  C21222179   2.405   2.824   3.142  0.2831  0.2748 -0.1751
  192SAPI  H12R22180   2.482   2.746   3.152 -0.4867 -0.7694 -1.7906
  192SAPI  C21322181   2.266   2.790   3.197  0.6392  0.0747 -0.2985
  192SAPI  H13R22182   2.200   2.876   3.174  2.2027  1.6364  0.8053
  192SAPI  H13S22183   2.269   2.792   3.308  1.3753 -3.2585 -0.1559
  192SAPI  C21422184   2.197   2.663   3.150  0.2484  0.4609  0.2196
  192SAPI  H14R22185   2.156   2.667   3.048 -0.0153  2.9965  0.3726
  192SAPI  C21522186   2.174   2.553   3.228  0.5041 -0.5239  0.3795
  192SAPI  H15R22187   2.101   2.481   3.188  0.2133  0.2311 -0.4834
  192SAPI  C21622188   2.206   2.529   3.375 -0.3483 -0.7723 -0.5272
  192SAPI  H16R22189   2.135   2.454   3.416 -0.3686 -1.3145 -1.5057
  192SAPI  H16S22190   2.197   2.626   3.427  2.3468 -1.1604  0.8066
  192SAPI  C21722191   2.346   2.467   3.403  0.4923 -0.3675 -0.0167
  192SAPI  H17R22192   2.419   2.549   3.384 -0.7273  0.7906  0.1650
  192SAPI  H17S22193   2.370   2.383   3.335  4.1469  1.6836 -1.5449
  192SAPI  C21822194   2.360   2.416   3.548  0.3079  0.0800  0.1079
  192SAPI  H18R22195   2.463   2.380   3.569 -0.2279 -1.5653  0.0940
  192SAPI  H18S22196   2.294   2.327   3.557 -1.1206  1.2427  2.0449
  192SAPI  C21922197   2.318   2.517   3.657  0.3377 -0.5089  0.3751
  192SAPI  H19R22198   2.223   2.564   3.623  0.8073  1.2945  1.4196
  192SAPI  H19S22199   2.401   2.590   3.651  0.3984 -0.5575  0.6033
  192SAPI  C22022200   2.284   2.463   3.793  0.8393  0.2610 -0.4311
  192SAPI  H20R22201   2.244   2.360   3.785 -0.1678  0.4707  1.3288
  192SAPI  H20S22202   2.199   2.524   3.831 -0.9740 -1.2495 -1.8862
  192SAPI  H20T22203   2.365   2.468   3.868 -1.9641 -1.3156  2.9908
  192SAPI   C3322204   1.132   3.407   2.675 -0.2414  0.1731  0.4863
  192SAPI   H3X22205   1.159   3.310   2.629  1.4730  0.9393 -0.1992
  192SAPI   H3Y22206   1.072   3.457   2.596  1.7933  0.0767 -1.1878
  192SAPI   C3422207   1.041   3.388   2.803  0.0297 -0.2900  0.6688
  192SAPI   H4X22208   0.987   3.291   2.792  1.7773 -1.0379 -2.4070
  192SAPI   H4Y22209   0.964   3.468   2.797  1.2432  0.8943  0.4731
  192SAPI   C3522210   1.121   3.389   2.936 -0.2770  0.2122  0.2354
  192SAPI   H5X22211   1.187   3.478   2.946  0.2432 -0.3210  1.9294
  192SAPI   H5Y22212   1.176   3.293   2.933 -2.1510 -0.8879 -1.2035
  192SAPI   C3622213   1.038   3.369   3.063 -0.1309 -0.0274 -0.6375
  192SAPI   H6X22214   0.993   3.267   3.063  1.7846 -0.9458  0.4981
  192SAPI   H6Y22215   0.961   3.448   3.059 -0.1919 -0.0378  0.1776
  192SAPI   C3722216   1.122   3.386   3.192 -0.2677 -0.4949 -0.3917
  192SAPI   H7X22217   1.168   3.487   3.193 -1.9348  0.3368 -1.4697
  192SAPI   H7Y22218   1.204   3.312   3.194 -0.0733 -0.4373 -2.7153
  192SAPI   C3822219   1.038   3.376   3.322 -0.1845  0.1596 -0.0934
  192SAPI   H8X22220   1.009   3.271   3.341  4.3876 -1.3528 -0.4214
  192SAPI   H8Y22221   0.953   3.448   3.314 -2.6923 -2.2316  2.6446
  192SAPI   C3922222   1.131   3.431   3.439  0.5939 -0.0377  0.7423
  192SAPI   H9X22223   1.156   3.538   3.420 -0.7323 -0.0621 -1.3592
  192SAPI   H9Y22224   1.222   3.367   3.436  1.3296  0.9007  2.0066
  192SAPI  C31022225   1.076   3.415   3.581  0.8870 -0.3043 -0.0434
  192SAPI  H10X22226   1.044   3.311   3.601 -0.4224 -0.3166 -1.9063
  192SAPI  H10Y22227   1.004   3.498   3.600  0.6394 -0.6914  0.7149
  192SAPI  C31122228   1.179   3.437   3.690  0.1363  0.5699  0.0434
  192SAPI  H11X22229   1.229   3.533   3.665 -1.2405  1.0462 -1.0683
  192SAPI  H11Y22230   1.254   3.357   3.677  0.1893  0.2264  2.1568
  192SAPI  C31222231   1.127   3.429   3.834  0.6482  0.9624 -0.2803
  192SAPI  H12X22232   1.112   3.320   3.851  1.4573  0.6267 -1.5991
  192SAPI  H12Y22233   1.035   3.489   3.847 -1.0732 -1.3975 -0.9308
  192SAPI  C31322234   1.233   3.466   3.932 -0.6163  0.4934 -0.1904
  192SAPI  H13X22235   1.258   3.572   3.911 -1.2912  0.3124 -2.0828
  192SAPI  H13Y22236   1.329   3.421   3.900 -2.0030 -2.2131 -0.7716
  192SAPI  C31422237   1.204   3.443   4.079  0.6921 -0.5996 -0.8855
  192SAPI  H14X22238   1.289   3.466   4.146  0.0436 -2.4815  0.6859
  192SAPI  H14Y22239   1.177   3.337   4.098  3.6634 -1.7749 -2.6415
  192SAPI  C31522240   1.097   3.532   4.135 -0.3189 -0.0918  0.5308
  192SAPI  H15X22241   1.002   3.509   4.081  0.9948 -0.9971 -1.4765
  192SAPI  H15Y22242   1.126   3.639   4.129 -0.3222  0.0023  1.8029
  192SAPI  C31622243   1.073   3.493   4.282 -0.8201  0.1048  0.4078
  192SAPI  H16X22244   0.991   3.559   4.321 -0.3627  0.8758  0.0916
  192SAPI  H16Y22245   1.158   3.522   4.348 -0.4361 -1.2365  0.5320
  192SAPI  C31722246   1.029   3.348   4.307 -0.3980  0.0965  0.2951
  192SAPI  H17X22247   1.119   3.283   4.307 -0.2856  0.2497  0.5140
  192SAPI  H17Y22248   0.947   3.322   4.236  0.5895 -3.7659  0.3561
  192SAPI  C31822249   0.978   3.322   4.447 -0.1219 -0.0593  0.5863
  192SAPI  H18X22250   0.897   3.395   4.469 -0.2036 -0.5832  2.0674
  192SAPI  H18Y22251   1.057   3.341   4.522  0.6136 -2.3186  0.4498
  192SAPI  H18Z22252   0.948   3.218   4.472 -0.1815 -0.1670  0.0827
  193SOD    SOD22253   5.839   3.297   2.043 -0.1172  0.0388  0.1998
  194SOD    SOD22254   6.505   3.949   2.429  0.2313  0.8233 -0.1466
  195SOD    SOD22255   1.982   1.835   6.809 -0.2999  0.4620  0.2119
  196SOD    SOD22256   4.477   5.782   6.808  0.1204  0.3144  0.1177
  197SOD    SOD22257   1.132   1.363   0.016  0.6010 -0.0039  0.2843
  198SOD    SOD22258   5.646   2.051   7.931  0.1303  0.1323 -0.3457
  199SOD    SOD22259   4.349   0.320   6.523 -0.0753 -0.5841 -0.2808
  200SOD    SOD22260   1.035   5.934   1.804 -0.0865 -0.2794 -0.7582
  201SOD    SOD22261   1.293   6.848   7.689 -0.3961  0.3129 -0.1742
  202SOD    SOD22262   3.831   3.583   7.130 -0.2382 -0.1427  0.1389
  203SOD    SOD22263   1.932   3.733   8.140 -0.4177 -0.5745 -0.0674
  204SOD    SOD22264   4.479   6.685   1.832 -0.1713  0.2089  0.1416
  205SOD    SOD22265   6.635   1.666   1.209  0.0238  0.2616  0.1877
  206SOD    SOD22266   2.012   5.669   7.730  0.0341  0.0373  0.1337
  207SOD    SOD22267   6.377   1.997   0.261  0.0437  0.5358  0.0013
  208SOD    SOD22268   6.811   0.107   2.126  0.4043  0.5817 -0.0802
  209SOD    SOD22269   4.319   5.595   1.469  0.1457 -0.1164  0.0415
  210SOD    SOD22270   2.216   0.738   7.267 -0.2403  0.2220 -0.3832
  211SOD    SOD22271   5.270   5.797   1.846 -0.2733  0.0730  0.3752
  212SOD    SOD22272   0.983   4.952   1.701 -0.5096 -0.4321 -0.0232
  213SOD    SOD22273   5.633   5.508   8.228 -0.0389 -0.4280 -0.2846
  214SOD    SOD22274   4.810   2.882   7.911  0.6968  0.3876 -0.1036
  215SOD    SOD22275   5.802   1.971   6.296  0.1289  0.1945  0.2051
  216SOD    SOD22276   3.388   6.011   0.357 -0.0199  0.2673  0.1302
  217SOD    SOD22277   2.894   3.637   8.513  0.1278 -0.5558  0.2709
  218SOD    SOD22278   5.805   6.367   0.661  0.0631 -0.2529 -0.2985
  219SOD    SOD22279   1.679   3.918   7.242 -0.0293 -0.1370 -0.5160
  220SOD    SOD22280   1.909   3.295   2.199 -0.3392  0.1206  0.3425
  221SOD    SOD22281   3.230   2.687   7.014  0.1341  0.0079 -0.0122
  222SOD    SOD22282   3.615   0.557   1.447 -0.2118 -0.2938 -0.2945
  223SOD    SOD22283   4.911   3.789   1.628 -0.0076 -0.1023  0.2667
  224SOD    SOD22284   2.118   4.675   7.240  0.2490  0.0228  0.6127
  225SOD    SOD22285   6.687   3.278   8.089  0.0341 -0.9112  0.4574
  226SOD    SOD22286   3.684   1.330   7.159 -0.3805 -0.0529  0.3053
  227SOD    SOD22287   1.742   1.433   1.570 -0.1902 -0.0881 -0.1901
  228SOD    SOD22288   6.753   0.324   7.146 -0.2824  0.1667 -0.9494
  229SOD    SOD22289   0.958   4.524   7.387 -0.3870 -0.1155  0.2824
  230SOD    SOD22290   3.126   2.087   7.027 -0.1463  0.1066  0.2279
  231SOD    SOD22291   5.114   1.108   1.782  0.2566 -0.3331 -0.6938
  232SOD    SOD22292   2.741   0.983   1.403  0.0342  0.3992  0.5202
  233SOD    SOD22293   5.293   2.041   1.168  0.3210 -0.2740 -0.3482
  234CLA    CLA22294   5.933   0.135   7.318 -0.0325 -0.1225  0.0604
  235CLA    CLA22295   2.496   5.736   7.687 -0.7329 -0.0972 -0.4331
  236CLA    CLA22296   1.430   0.640   7.615  0.1997 -0.3539  0.1337
  237CLA    CLA22297   4.571   0.547   8.006  0.4008 -0.5041  0.0977
  238CLA    CLA22298   0.348   6.021   1.640  0.1365 -0.0110  0.2821
  239CLA    CLA22299   5.835   5.583   7.440 -0.1186  0.1955  0.2383
  240CLA    CLA22300   0.789   5.729   8.420 -0.4707 -0.1160 -0.2694
  241CLA    CLA22301   1.474   4.629   1.909 -0.3955 -0.2182 -0.1316
  242CLA    CLA22302   5.129   3.589   8.199 -0.2322 -0.1723 -0.0387
  243CLA    CLA22303   0.216   1.488   7.719  0.2076 -0.1170 -0.0092
  244CLA    CLA22304   5.757   2.026   8.335  0.1380  0.3989 -0.0826
  245CLA    CLA22305   4.615   4.701   0.520  0.0764  0.0992  0.0345
  246CLA    CLA22306   6.567   4.180   7.638  0.2028  0.3995 -0.1577
  247CLA    CLA22307   3.203   2.118   7.561 -0.4532 -0.2291 -0.2357
  248CLA    CLA22308   5.709   2.677   7.893 -0.0918 -0.3450  0.0982
  249CLA    CLA22309   6.337   1.477   7.380  0.1338 -0.0325 -0.2403
  250CLA    CLA22310   4.030   1.041   1.739 -0.1679  0.0072 -0.0111
  251TIP3   OH222311   1.592   4.666   2.727 -0.3766 -0.4538 -0.0511
  251TIP3    H122312   1.503   4.695   2.706  0.0125  0.1276 -0.9539
  251TIP3    H222313   1.583   4.622   2.811 -0.9544  2.7028  1.7031
  252TIP3   OH222314   0.882   1.103   7.053  0.0741 -0.3284 -0.1340
  252TIP3    H122315   0.818   1.060   6.996 -0.4607 -0.1730  0.3474
  252TIP3    H222316   0.833   1.173   7.096  0.8163  0.4582 -0.5370
  253TIP3   OH222317   4.479   6.012   1.618 -0.0094 -0.3357  0.0943
  253TIP3    H122318   4.426   6.048   1.689  0.3049 -2.0829  1.2813
  253TIP3    H222319   4.503   6.088   1.565 -1.2249  0.8676  1.1906
  254TIP3   OH222320   5.789   5.373   2.824 -0.7429 -0.0432  0.2840
  254TIP3    H122321   5.768   5.466   2.827 -0.0999  0.1734 -1.0667
  254TIP3    H222322   5.881   5.370   2.799 -0.4711 -1.0367  1.3453
  255TIP3   OH222323   4.921   4.699   1.067  0.3564 -0.4337  0.0994
  255TIP3    H122324   4.905   4.649   0.987  0.8985  0.8790 -0.8820
  255TIP3    H222325   5.005   4.667   1.100  0.6438 -0.2679 -0.4580
  256TIP3   OH222326   0.627   4.124   2.221  0.8358 -0.5613 -0.0066
  256TIP3    H122327   0.691   4.099   2.287  1.0775 -2.1161 -0.7563
  256TIP3    H222328   0.605   4.215   2.240  3.1520 -0.0302  0.3669
  257TIP3   OH222329   0.262   0.018   6.392 -0.1358  0.4448  0.0191
  257TIP3    H122330   0.272   0.113   6.400  0.9013  0.2127  2.2418
  257TIP3    H222331   0.349  -0.013   6.368 -0.0569 -0.0577  0.9175
  258TIP3   OH222332   5.258   5.476   0.024  0.2814 -0.3162  0.1604
  258TIP3    H122333   5.296   5.557  -0.012  0.5601 -0.2240  0.6559
  258TIP3    H222334   5.241   5.422  -0.053  0.9649 -0.1602 -0.1047
  259TIP3   OH222335   2.068   6.417   7.687 -0.3819  0.4489  0.3879
  259TIP3    H122336   2.159   6.400   7.660 -0.5358 -1.5154  0.9534
  259TIP3    H222337   2.018   6.412   7.606  0.0568  2.2361 -0.0383
  260TIP3   OH222338   3.204   4.820   7.068  0.2389  0.1630 -0.7493
  260TIP3    H122339   3.109   4.818   7.081  0.2703  1.8612 -0.0531
  260TIP3    H222340   3.225   4.734   7.032 -1.4012 -0.6710  0.2024
  261TIP3   OH222341   3.077   2.682   1.193 -0.0058  0.3681  0.2435
  261TIP3    H122342   3.073   2.589   1.172 -1.2371  0.3481  0.5219
  261TIP3    H222343   3.020   2.693   1.269 -0.8518  1.5333 -0.5137
  262TIP3   OH222344   5.134   3.783   2.295 -1.0107  0.2238 -0.1630
  262TIP3    H122345   5.105   3.755   2.382  1.5157  1.7468  1.3088
  262TIP3    H222346   5.220   3.742   2.285 -0.9864  0.6144 -1.6849
  263TIP3   OH222347   4.409   2.003   2.056 -0.3361 -0.3169 -0.2512
  263TIP3    H122348   4.345   1.939   2.085 -0.9479  0.0446 -0.7669
  263TIP3    H222349   4.429   2.055   2.133 -0.8704 -0.2642 -0.1475
  264TIP3   OH222350   0.870   5.167   7.246  0.6150 -0.2179 -0.2186
  264TIP3    H122351   0.913   5.176   7.331  0.0263 -0.3023  0.0944
  264TIP3    H222352   0.941   5.172   7.182  0.8190  2.5188  0.1158
  265TIP3   OH222353   0.678   6.348   6.849 -0.0575  0.1946 -0.4485
  265TIP3    H122354   0.593   6.369   6.810  0.1528  0.1979 -0.9078
  265TIP3    H222355   0.742   6.377   6.784  0.3261  1.0487  0.2929
  266TIP3   OH222356   6.108   6.085   6.810  0.1482 -0.1116  0.0139
  266TIP3    H122357   6.017   6.087   6.782  0.3495  1.1630 -0.6077
  266TIP3    H222358   6.144   6.170   6.783  1.2677 -0.2059  1.1057
  267TIP3   OH222359   4.637   3.378   7.137  0.2571 -0.3153 -0.2308
  267TIP3    H122360   4.721   3.415   7.107  0.3316 -0.3305 -0.0417
  267TIP3    H222361   4.572   3.417   7.079  0.1238  1.4284  1.0156
  268TIP3   OH222362   5.529   2.939   2.093  0.3698  0.4694  0.0141
  268TIP3    H122363   5.437   2.915   2.105  0.5494  0.4913  1.6343
  268TIP3    H222364   5.538   2.955   1.999 -1.6689  2.0990  0.0444
  269TIP3   OH222365   1.511   1.150   7.166  0.1893  0.1288  0.0817
  269TIP3    H122366   1.494   1.127   7.074 -1.0568  0.2515  0.2638
  269TIP3    H222367   1.434   1.117   7.213  0.2014  1.2137  0.8964
  270TIP3   OH222368   4.855   2.870   1.727  0.3237  0.0539  0.2492
  270TIP3    H122369   4.918   2.826   1.783  0.3579  1.6857  1.5978
  270TIP3    H222370   4.881   2.962   1.729 -2.2104  0.8510  1.1106
  271TIP3   OH222371   5.630   1.796   1.422  0.3638  0.6222  0.1050
  271TIP3    H122372   5.593   1.873   1.466  0.7180  0.2802  1.0207
  271TIP3    H222373   5.632   1.729   1.490  0.2098 -0.1543 -0.6438
  272TIP3   OH222374   6.851   1.270   7.885 -0.0208  0.2970  0.1415
  272TIP3    H122375   6.911   1.198   7.865 -1.2077 -0.9639  0.9639
  272TIP3    H222376   6.764   1.230   7.886 -0.6084  1.4887  1.7704
  273TIP3   OH222377   0.829   4.894   7.881 -0.0109  0.2794  0.4819
  273TIP3    H122378   0.888   4.928   7.949 -0.6184  0.7970  0.7566
  273TIP3    H222379   0.802   4.972   7.832 -2.0637  0.3486  1.6242
  274TIP3   OH222380   0.711   0.272   7.745  0.4005  0.4343 -0.1570
  274TIP3    H122381   0.687   0.355   7.785 -0.0967 -0.3482  1.2571
  274TIP3    H222382   0.633   0.217   7.756  1.1260 -0.5877  0.0210
  275TIP3   OH222383   5.280   1.546   1.203  0.1742 -0.4624  0.0143
  275TIP3    H122384   5.337   1.493   1.259  1.9227  0.5719 -0.7007
  275TIP3    H222385   5.230   1.600   1.265  2.1604  0.7479  0.6735
  276TIP3   OH222386   1.597   6.591   8.209 -0.2059 -0.2973  0.0137
  276TIP3    H122387   1.525   6.603   8.271 -0.7903 -2.6466 -0.1127
  276TIP3    H222388   1.676   6.597   8.263 -0.4808  1.6196  0.2683
  277TIP3   OH222389   0.801   6.258   7.704  0.4566  0.2476  0.3116
  277TIP3    H122390   0.755   6.287   7.783  0.4661  0.6819  0.1592
  277TIP3    H222391   0.863   6.329   7.685  0.6677  0.0059  0.0883
  278TIP3   OH222392   3.481   2.660   7.075  0.6488  0.3271  0.2586
  278TIP3    H122393   3.542   2.679   7.003  0.2999 -1.2289 -0.4946
  278TIP3    H222394   3.529   2.685   7.154  1.7389  0.4315 -0.4082
  279TIP3   OH222395   2.985   1.935   7.673 -0.6855  0.1836 -0.3301
  279TIP3    H122396   2.917   1.957   7.609 -0.7436  1.5267  0.1741
  279TIP3    H222397   3.062   1.984   7.644 -0.9021  1.3577  0.9864
  280TIP3   OH222398   6.366   2.457   0.353  0.7356  0.0935  0.4442
  280TIP3    H122399   6.407   2.425   0.434 -0.6993 -0.6008  0.9367
  280TIP3    H222400   6.386   2.550   0.351  1.9925 -0.1455  0.8508
  281TIP3   OH222401   5.745   6.075   6.277 -0.2996 -0.2172  0.4891
  281TIP3    H122402   5.803   6.016   6.229 -0.1422 -0.2823  0.7580
  281TIP3    H222403   5.767   6.162   6.245 -1.2553 -0.3744 -0.6827
  282TIP3   OH222404   0.371   6.836   7.763  0.0740  0.4194 -0.2701
  282TIP3    H122405   0.428   6.780   7.816  0.4759  1.0865  0.0183
  282TIP3    H222406   0.284   6.798   7.772  0.3182 -0.0717  0.0336
  283TIP3   OH222407   1.269   3.548   2.145 -0.5862 -0.0347 -0.5664
  283TIP3    H122408   1.332   3.580   2.081  2.1813 -2.4556  0.7055
  283TIP3    H222409   1.284   3.602   2.222  0.1067 -0.7085 -0.2144
  284TIP3   OH222410   1.735   1.605   8.432 -0.6667  1.0345 -0.2119
  284TIP3    H122411   1.699   1.539   8.373  1.0900  0.6342 -0.9132
  284TIP3    H222412   1.709   1.688   8.392 -1.4085  0.7685 -0.2965
  285TIP3   OH222413   3.982   5.471   0.403  0.6031  0.1405 -0.4630
  285TIP3    H122414   3.978   5.411   0.328  2.2045  1.3357 -1.5459
  285TIP3    H222415   3.891   5.496   0.418  0.1901 -0.6231 -1.5764
  286TIP3   OH222416   2.571   5.303   0.445  0.1648 -0.0486 -0.1932
  286TIP3    H122417   2.514   5.352   0.385  1.2293  0.7052 -0.6302
  286TIP3    H222418   2.542   5.212   0.437 -2.2658  0.5365  1.1005
  287TIP3   OH222419   2.544   3.572   8.373  0.6312  0.2422  0.0579
  287TIP3    H122420   2.545   3.477   8.362 -1.3577  0.1428  0.3045
  287TIP3    H222421   2.635   3.599   8.360  1.3197 -1.7348  0.4477
  288TIP3   OH222422   0.944   6.025   8.121 -1.0324 -0.2143 -0.5794
  288TIP3    H122423   1.034   5.996   8.107 -1.6197 -2.1817 -0.6290
  288TIP3    H222424   0.934   6.102   8.065  0.4356 -0.3249 -1.0227
  289TIP3   OH222425   4.474   0.926   7.187  0.8883  0.4705 -0.6445
  289TIP3    H122426   4.498   0.849   7.134 -1.3616 -0.0534 -0.9714
  289TIP3    H222427   4.394   0.959   7.146  0.4956  1.5676  0.9525
  290TIP3   OH222428   3.376   1.710   0.976 -0.6811  0.2973 -0.1244
  290TIP3    H122429   3.454   1.750   0.938 -1.5554  0.7544 -1.5196
  290TIP3    H222430   3.393   1.709   1.070  1.1667 -0.0035 -0.4277
  291TIP3   OH222431   5.227   3.646   1.967  0.6296  0.6015  0.3914
  291TIP3    H122432   5.294   3.627   1.901  1.2050  1.2097  0.7848
  291TIP3    H222433   5.259   3.725   2.010  0.3972  0.0650  1.5746
  292TIP3   OH222434   4.432   2.736   8.031  0.3477  0.2705  0.0565
  292TIP3    H122435   4.383   2.748   8.112  0.0784 -0.9098  0.0716
  292TIP3    H222436   4.405   2.651   7.998  2.6435 -0.6228  0.2709
  293TIP3   OH222437   3.342   3.687   7.735 -0.0094  0.2867 -0.1100
  293TIP3    H122438   3.359   3.781   7.726 -1.4854  0.7772  1.5837
  293TIP3    H222439   3.370   3.667   7.824  0.8334 -1.0390 -0.6465
  294TIP3   OH222440   5.481   6.228   1.342  0.7239 -0.1968 -0.8534
  294TIP3    H122441   5.396   6.235   1.387  0.3875  0.6153 -1.5780
  294TIP3    H222442   5.522   6.150   1.380  0.0101 -0.1326  0.1019
  295TIP3   OH222443   3.918   0.829   7.416 -0.2090  0.1260 -0.1814
  295TIP3    H122444   3.841   0.880   7.440 -2.5432 -3.9754  2.1783
  295TIP3    H222445   3.901   0.803   7.325 -0.9328  0.3371 -0.1169
  296TIP3   OH222446   2.425   0.803   2.807  0.0279 -0.1384  0.2641
  296TIP3    H122447   2.499   0.743   2.820 -0.3424 -0.5354  0.5764
  296TIP3    H222448   2.353   0.747   2.778 -0.3164  0.1574  0.5305
  297TIP3   OH222449   2.671   1.463   0.069  0.6030 -0.0612 -0.3528
  297TIP3    H122450   2.657   1.555   0.049  1.5112  0.0481 -0.5117
  297TIP3    H222451   2.754   1.441   0.028  0.9239 -0.6800  0.5869
  298TIP3   OH222452   4.188   2.217   7.689 -0.4642  0.1740 -0.4028
  298TIP3    H122453   4.223   2.249   7.606  0.0834  0.2380 -0.1561
  298TIP3    H222454   4.266   2.192   7.739 -0.8965 -2.5598 -0.9659
  299TIP3   OH222455   5.734   5.756   1.766  0.2169 -0.2729 -0.0889
  299TIP3    H122456   5.765   5.838   1.729 -1.4282  0.6028  0.3821
  299TIP3    H222457   5.758   5.690   1.701  1.3406  0.6061 -0.5936
  300TIP3   OH222458   3.884   1.766   1.555 -0.1735  0.4397  0.1157
  300TIP3    H122459   3.975   1.748   1.576  0.2453  1.6464 -0.5246
  300TIP3    H222460   3.859   1.697   1.493  0.1684 -0.1445  0.6250
  301TIP3   OH222461   4.163   5.927   2.442 -0.7900 -0.0807 -0.3786
  301TIP3    H122462   4.101   5.960   2.506 -1.2283 -1.7061  0.0875
  301TIP3    H222463   4.150   5.832   2.442  1.6810 -0.4971 -0.2640
  302TIP3   OH222464   5.486   2.693   0.018  0.1732 -0.8288  0.4512
  302TIP3    H122465   5.455   2.655  -0.064 -0.9559  0.2995  0.3198
  302TIP3    H222466   5.496   2.618   0.077 -0.5673 -1.4767 -0.2214
  303TIP3   OH222467   5.407   3.823   2.132  0.4248 -0.2718 -0.0995
  303TIP3    H122468   5.460   3.839   2.054  2.6967  1.9258  1.7000
  303TIP3    H222469   5.390   3.911   2.167 -0.1595 -1.1844  2.0513
  304TIP3   OH222470   4.714   3.750   7.538 -0.6476  0.0767 -0.5121
  304TIP3    H122471   4.650   3.712   7.477 -0.4690  0.5766 -1.0233
  304TIP3    H222472   4.747   3.827   7.492 -2.0684  1.7173  1.0951
  305TIP3   OH222473   2.666   6.779   2.638 -0.0486  0.0088 -0.2924
  305TIP3    H122474   2.627   6.850   2.689  0.4285 -0.0657  0.1886
  305TIP3    H222475   2.725   6.735   2.700  0.0431 -0.4879 -0.7295
  306TIP3   OH222476   4.590   4.756   8.401 -0.3806  0.5246 -0.1163
  306TIP3    H122477   4.663   4.806   8.363  0.6005 -0.0313  0.9557
  306TIP3    H222478   4.520   4.762   8.337  1.2711 -0.5961 -2.1437
  307TIP3   OH222479   5.068   6.180   7.380  0.5236 -0.3720  0.2698
  307TIP3    H122480   5.094   6.229   7.302  0.0987  0.1381  0.4424
  307TIP3    H222481   5.151   6.147   7.416  0.7554 -0.3034 -0.1924
  308TIP3   OH222482   6.761   3.628   0.330 -0.3674  0.0655  0.1912
  308TIP3    H122483   6.685   3.617   0.387 -0.0785 -0.4628  0.4817
  308TIP3    H222484   6.795   3.540   0.317  0.4134  0.3277  0.3641
  309TIP3   OH222485   2.227   5.294   7.168 -0.1553 -0.4803  0.3440
  309TIP3    H122486   2.182   5.220   7.210  1.6175 -1.9634 -0.2747
  309TIP3    H222487   2.284   5.255   7.103  2.8488  1.1549  1.7569
  310TIP3   OH222488   1.643   5.800   1.700  0.2786  0.1659  0.1758
  310TIP3    H122489   1.713   5.842   1.650 -0.7519  0.6885 -0.8982
  310TIP3    H222490   1.564   5.849   1.675 -0.4100 -0.0996  1.6993
  311TIP3   OH222491   0.874   3.905   0.795 -0.3192 -0.2606 -0.3249
  311TIP3    H122492   0.867   3.810   0.805  1.3941 -0.4986 -1.0680
  311TIP3    H222493   0.932   3.918   0.720  0.9661  1.3549  0.8709
  312TIP3   OH222494   6.571   6.473   1.206 -0.2584  0.2096  0.3006
  312TIP3    H122495   6.628   6.399   1.186  0.6222  0.5362  1.5295
  312TIP3    H222496   6.484   6.444   1.179  0.3870 -0.4789 -1.1588
  313TIP3   OH222497   4.531   6.022   7.690 -0.1230  0.2207 -1.1624
  313TIP3    H122498   4.495   6.057   7.609 -1.0032 -2.2980 -1.9182
  313TIP3    H222499   4.469   5.955   7.718  0.7512  0.2189  1.0023
  314TIP3   OH222500   0.628   2.531   0.270  0.0295  0.1946 -0.2937
  314TIP3    H122501   0.619   2.462   0.205  0.3648 -1.9247  1.7569
  314TIP3    H222502   0.671   2.603   0.224  1.1878 -1.5765 -2.1192
  315TIP3   OH222503   6.863   5.332   1.506  0.1273  0.4822  0.2644
  315TIP3    H122504   6.867   5.428   1.496  0.9341  0.2719 -2.0834
  315TIP3    H222505   6.897   5.316   1.594  0.4511  2.3272  0.5271
  316TIP3   OH222506   4.836   4.910   1.297  0.3081  0.3775 -0.4021
  316TIP3    H122507   4.859   4.944   1.211  0.7447  0.1590 -0.3734
  316TIP3    H222508   4.914   4.924   1.351 -0.8898  3.2124  0.8055
  317TIP3   OH222509   1.838   4.733   1.434 -0.1818  0.2489 -0.0289
  317TIP3    H122510   1.851   4.713   1.342  0.2682  1.8594 -0.3459
  317TIP3    H222511   1.745   4.755   1.441 -0.5830 -1.4175  0.2420
  318TIP3   OH222512   0.882   2.809   7.686 -0.0431  0.5028 -0.0275
  318TIP3    H122513   0.858   2.901   7.678 -0.4624  0.2511 -2.1007
  318TIP3    H222514   0.898   2.797   7.780 -2.7157  1.9883  0.7099
  319TIP3   OH222515   6.198   2.974   2.062  0.2259  0.1808 -0.0514
  319TIP3    H122516   6.282   3.019   2.075  0.5119  0.7193 -2.9833
  319TIP3    H222517   6.147   3.035   2.008 -1.1602 -1.1566 -0.3136
  320TIP3   OH222518   3.775   5.416   3.017  0.1157 -0.2727  0.8880
  320TIP3    H122519   3.782   5.500   3.063  0.2702  0.1242  0.1592
  320TIP3    H222520   3.804   5.435   2.928  3.0712 -1.7251  1.4174
  321TIP3   OH222521   2.915   1.183   7.017 -0.0847  0.1339 -0.0481
  321TIP3    H122522   2.985   1.248   7.025 -0.7922  0.9355 -0.3005
  321TIP3    H222523   2.912   1.164   6.923  1.8120 -2.1804  0.2650
  322TIP3   OH222524   3.300   4.257   0.029 -0.2165  0.0798  0.3882
  322TIP3    H122525   3.304   4.346   0.066  0.4159 -0.3594  1.4172
  322TIP3    H222526   3.392   4.231   0.021 -0.3986 -0.4345 -0.0603
  323TIP3   OH222527   4.105   6.876   8.431 -0.0908  0.3908 -0.3194
  323TIP3    H122528   4.029   6.858   8.487 -0.0525  0.1999 -0.3310
  323TIP3    H222529   4.130   6.966   8.454 -0.5222  0.5737 -0.5545
  324TIP3   OH222530   5.578   2.184   8.132 -0.8061  0.3365  0.7223
  324TIP3    H122531   5.622   2.269   8.119  0.7049 -0.2034  1.9508
  324TIP3    H222532   5.633   2.139   8.196 -1.4454 -1.6817 -0.0832
  325TIP3   OH222533   4.742   1.307   1.766 -0.3122 -0.0209  0.3689
  325TIP3    H122534   4.820   1.265   1.730  0.1532  1.1321 -0.0340
  325TIP3    H222535   4.715   1.250   1.837 -0.8480 -2.0174 -1.3218
  326TIP3   OH222536   4.934   2.498   1.953  0.0552 -0.2018  0.1999
  326TIP3    H122537   4.941   2.581   2.001 -1.1328  0.7172 -1.1190
  326TIP3    H222538   5.025   2.468   1.945  0.5538  1.1561  0.4099
  327TIP3   OH222539   3.652   3.124   2.121 -0.2148 -0.2681 -0.6280
  327TIP3    H122540   3.591   3.184   2.162  1.4690 -0.7878  2.9785
  327TIP3    H222541   3.736   3.170   2.123  1.1413 -2.5793  2.3190
  328TIP3   OH222542   0.110   2.774   0.257  0.0660 -0.2505  0.3412
  328TIP3    H122543   0.141   2.793   0.346  0.5002 -1.1392  0.4000
  328TIP3    H222544   0.187   2.784   0.202  0.0770 -0.8379  0.2410
  329TIP3   OH222545   4.914   2.743   1.099  0.6446  0.4285 -0.2664
  329TIP3    H122546   4.876   2.812   1.154 -0.0001  0.4651 -0.7478
  329TIP3    H222547   4.841   2.683   1.082  0.8205  0.4435 -1.1189
  330TIP3   OH222548   3.183   2.020   2.740 -0.7277  0.1675 -0.2273
  330TIP3    H122549   3.236   2.085   2.785  1.7813 -0.7978 -1.6263
  330TIP3    H222550   3.238   1.942   2.736 -1.8326 -0.5913 -2.6335
  331TIP3   OH222551   4.239   6.130   1.424 -0.0611  0.0535  0.1361
  331TIP3    H122552   4.317   6.096   1.380 -0.7676  0.0439 -1.1587
  331TIP3    H222553   4.254   6.224   1.430 -0.4871  0.2459 -1.3203
  332TIP3   OH222554   1.276   6.714   1.870  0.4044  0.4497  0.5488
  332TIP3    H122555   1.197   6.660   1.862  0.5204  0.3767 -0.1975
  332TIP3    H222556   1.323   6.699   1.788 -0.0239  2.3994 -0.1002
  333TIP3   OH222557   2.692   1.320   6.840  0.1671 -0.4623 -0.3863
  333TIP3    H122558   2.705   1.410   6.809 -0.7924 -0.6998 -1.5449
  333TIP3    H222559   2.770   1.273   6.811  1.4169  0.2854  1.5542
  334TIP3   OH222560   4.320   0.873   6.782  0.2995 -0.4036 -0.2956
  334TIP3    H122561   4.407   0.842   6.807  0.7374  0.5472 -0.5653
  334TIP3    H222562   4.260   0.814   6.825  1.0686 -2.9738 -2.4866
  335TIP3   OH222563   4.962   3.839   2.092  0.3159 -0.1010  0.4983
  335TIP3    H122564   5.024   3.865   2.160  0.3699 -1.0834  0.8416
  335TIP3    H222565   4.900   3.781   2.137  0.7094 -1.2621 -0.4104
  336TIP3   OH222566   5.594   4.303   7.295  0.1064  0.1032 -0.4928
  336TIP3    H122567   5.685   4.302   7.326  0.1892 -1.1024 -0.7456
  336TIP3    H222568   5.549   4.241   7.351 -0.0941 -0.8962 -1.7270
  337TIP3   OH222569   1.592   0.053   1.162  0.7181  0.0123  0.4167
  337TIP3    H122570   1.664  -0.008   1.150 -0.0388 -0.5682 -1.5162
  337TIP3    H222571   1.520   0.016   1.113  0.1969  2.3880 -0.7873
  338TIP3   OH222572   0.406   0.623   1.177  0.2496 -0.1686  0.2035
  338TIP3    H122573   0.501   0.628   1.180  0.2913 -1.2801  1.1200
  338TIP3    H222574   0.378   0.648   1.265 -0.4046  1.5555 -0.4438
  339TIP3   OH222575   2.602   3.153   7.623  0.3378 -0.5500 -0.0895
  339TIP3    H122576   2.624   3.070   7.581 -1.1826 -0.4909 -1.0508
  339TIP3    H222577   2.657   3.218   7.578  1.4853 -0.9960  0.6266
  340TIP3   OH222578   6.554   2.431   6.820  0.3545  0.5679  0.1545
  340TIP3    H122579   6.480   2.484   6.790  0.6416  0.4857 -0.7328
  340TIP3    H222580   6.627   2.494   6.827  0.8382  0.2219 -1.4353
  341TIP3   OH222581   6.742   6.282   6.280 -0.2660 -0.0480  0.1499
  341TIP3    H122582   6.754   6.188   6.291 -0.5068 -0.5871 -3.1693
  341TIP3    H222583   6.647   6.294   6.279 -0.2440  0.4856  1.9367
  342TIP3   OH222584   5.790   3.492   3.264  0.1807  0.1221  0.5354
  342TIP3    H122585   5.878   3.483   3.228 -0.7236 -1.6546 -1.4834
  342TIP3    H222586   5.738   3.529   3.192 -0.7147  1.2963  1.7389
  343TIP3   OH222587   4.243   3.633   6.965  0.2454 -0.2851 -0.3952
  343TIP3    H122588   4.320   3.628   7.021 -0.8063 -0.7452  1.0685
  343TIP3    H222589   4.271   3.595   6.882  1.3658 -1.1701  0.3638
  344TIP3   OH222590   4.821   5.250   7.428 -0.1416  0.6224  0.0905
  344TIP3    H122591   4.867   5.295   7.499  0.0681  0.8662 -0.1998
  344TIP3    H222592   4.732   5.239   7.461  0.0215  0.4908  0.5012
  345TIP3   OH222593   3.254   5.128   0.843 -0.3117  0.1655 -0.6208
  345TIP3    H122594   3.186   5.080   0.795 -1.4803  1.6188 -0.4966
  345TIP3    H222595   3.296   5.182   0.776  0.9475 -0.9468 -0.7489
  346TIP3   OH222596   3.518   0.812   1.854 -0.3232 -0.6174  0.2462
  346TIP3    H122597   3.602   0.838   1.892 -0.3930 -1.4950  1.0617
  346TIP3    H222598   3.490   0.887   1.802 -0.3548  0.8131  2.2054
  347TIP3   OH222599   1.220   1.671   1.340 -0.1027 -0.7732 -0.3474
  347TIP3    H122600   1.246   1.761   1.321  1.3009 -1.3230 -1.1310
  347TIP3    H222601   1.241   1.659   1.433 -1.2805  0.0007  0.0539
  348TIP3   OH222602   2.858   5.360   1.298  0.9248  0.2463  0.3494
  348TIP3    H122603   2.821   5.393   1.380  1.5898  1.0188  0.3636
  348TIP3    H222604   2.947   5.397   1.296  1.1598 -0.3339 -0.3854
  349TIP3   OH222605   5.556   3.463   0.671 -0.3739  0.3796  0.5579
  349TIP3    H122606   5.506   3.423   0.601  1.1555  0.0583 -0.4041
  349TIP3    H222607   5.500   3.533   0.705 -1.2232  0.4099 -0.8628
  350TIP3   OH222608   3.124   4.991   8.011  0.3864 -0.1306  0.0656
  350TIP3    H122609   3.075   4.920   8.052  0.8329 -1.6061 -1.7804
  350TIP3    H222610   3.060   5.034   7.954  0.8685 -1.3729 -1.5152
  351TIP3   OH222611   6.677   3.661   0.986 -0.7664 -0.2449  0.1164
  351TIP3    H122612   6.703   3.622   1.069 -0.8650  1.1752  0.8615
  351TIP3    H222613   6.725   3.744   0.983 -2.0063  0.4784 -0.4581
  352TIP3   OH222614   3.559   2.974   0.658  0.0875  0.1508  0.1671
  352TIP3    H122615   3.540   3.018   0.741 -0.0126  2.7697 -1.1542
  352TIP3    H222616   3.496   3.010   0.596  1.0172 -0.7469 -1.3740
  353TIP3   OH222617   1.693   4.219   0.545  0.1099  0.6306 -0.6478
  353TIP3    H122618   1.606   4.181   0.558 -0.9316  2.2634 -2.3335
  353TIP3    H222619   1.706   4.217   0.450  1.2328  1.8229 -0.5488
  354TIP3   OH222620   4.954   1.713   1.368 -0.0845 -0.2721  0.3142
  354TIP3    H122621   5.037   1.761   1.376  0.7811 -1.5274 -0.6570
  354TIP3    H222622   4.887   1.778   1.388  1.0820  1.0749  0.0523
  355TIP3   OH222623   3.337   4.367   0.689  0.2309  0.0880 -0.2954
  355TIP3    H122624   3.375   4.390   0.774 -0.0060  1.6870 -0.5893
  355TIP3    H222625   3.403   4.312   0.647  1.1398  0.7564  0.2102
  356TIP3   OH222626   4.941   0.941   7.002 -0.3122  0.0385 -0.4384
  356TIP3    H122627   4.986   0.925   6.919 -0.2229 -0.3761 -0.3127
  356TIP3    H222628   4.865   0.883   7.000 -0.0865 -0.2726 -0.0561
  357TIP3   OH222629   0.919   0.557   2.143 -0.2486 -0.5063  1.0567
  357TIP3    H122630   1.008   0.539   2.173 -1.1929 -0.4580  4.3449
  357TIP3    H222631   0.919   0.650   2.123  0.4464 -0.5243  0.9303
  358TIP3   OH222632   6.888   5.107   6.935 -0.9152  0.0544 -0.5477
  358TIP3    H122633   6.855   5.079   6.849 -2.6134  0.3975 -0.0309
  358TIP3    H222634   6.861   5.198   6.943  0.3767  0.4285 -0.1692
  359TIP3   OH222635   4.933   6.493   7.113 -0.2001 -0.4039  0.2172
  359TIP3    H122636   4.856   6.458   7.067  0.0678 -0.6592 -0.0434
  359TIP3    H222637   4.998   6.424   7.106 -0.0031 -0.2580  0.5914
  360TIP3   OH222638   4.147   1.180   8.431 -0.0479  0.0952  0.5074
  360TIP3    H122639   4.092   1.205   8.505  0.3629  0.8728  0.5561
  360TIP3    H222640   4.235   1.207   8.457  0.1750 -0.0846 -0.0550
  361TIP3   OH222641   1.358   1.213   8.151 -0.1295  0.1073  0.1916
  361TIP3    H122642   1.306   1.135   8.129 -1.3044  0.1692  2.4365
  361TIP3    H222643   1.399   1.191   8.234  2.4573  0.5991 -0.8761
  362TIP3   OH222644   0.254   3.379   1.534 -0.3082 -0.0449  0.4107
  362TIP3    H122645   0.280   3.445   1.470 -0.2289  1.6724  2.1203
  362TIP3    H222646   0.336   3.340   1.563 -0.0588  1.2199  1.5140
  363TIP3   OH222647   2.294   2.310   7.061  0.0853 -0.5449 -0.1349
  363TIP3    H122648   2.327   2.276   6.978 -0.5283 -0.6523 -0.3353
  363TIP3    H222649   2.204   2.336   7.043 -0.4638 -1.6812  0.7730
  364TIP3   OH222650   3.248   1.864   0.238 -0.1286  0.1457  0.0608
  364TIP3    H122651   3.224   1.915   0.161 -0.3176 -1.8271 -1.2476
  364TIP3    H222652   3.343   1.855   0.232  0.0807  1.3668  1.0077
  365TIP3   OH222653   6.462   0.015   1.787 -0.3611  0.0809  0.1036
  365TIP3    H122654   6.547  -0.020   1.813 -0.1295 -0.6960 -1.5344
  365TIP3    H222655   6.402  -0.058   1.797 -0.3988 -0.0203 -0.7577
  366TIP3   OH222656   3.756   3.416   2.876  0.1688  0.5586  0.2889
  366TIP3    H122657   3.707   3.433   2.795 -0.4507 -0.0729  0.5237
  366TIP3    H222658   3.789   3.327   2.866  2.4688  1.4359 -0.4618
  367TIP3   OH222659   5.763   3.586   6.980  0.3635  0.3857 -0.1944
  367TIP3    H122660   5.781   3.622   6.893  1.4546 -1.1520 -0.6618
  367TIP3    H222661   5.848   3.556   7.011 -0.2735 -0.5611  0.7049
  368TIP3   OH222662   1.501   3.689   8.279  0.3686  0.0327  0.3956
  368TIP3    H122663   1.443   3.763   8.262 -0.2036 -0.5131 -0.0719
  368TIP3    H222664   1.443   3.612   8.278  1.0363 -0.4756  0.3338
  369TIP3   OH222665   3.601   2.719   7.316 -0.6032  0.2198  0.0929
  369TIP3    H122666   3.598   2.815   7.321  2.5340  0.3680  1.2751
  369TIP3    H222667   3.671   2.694   7.376 -0.6320 -2.7742 -0.9676
  370TIP3   OH222668   2.559   6.298   1.170  0.4534  1.0438 -0.1108
  370TIP3    H122669   2.511   6.330   1.094  1.1786  0.8595 -0.6633
  370TIP3    H222670   2.513   6.335   1.245 -0.6578  0.7049 -0.6095
  371TIP3   OH222671   4.427   6.527   0.080  0.0090  0.8098 -0.7482
  371TIP3    H122672   4.455   6.455   0.024 -1.3115 -0.8191  0.5472
  371TIP3    H222673   4.389   6.591   0.020  1.0526  0.3741 -1.9218
  372TIP3   OH222674   0.677   0.142   6.803  0.4912  0.4284  0.3642
  372TIP3    H122675   0.771   0.146   6.789  0.5227  2.6532  0.8210
  372TIP3    H222676   0.663   0.186   6.887 -1.0601  1.5238 -0.4148
  373TIP3   OH222677   2.133   3.103   7.897  0.5145 -0.1297  0.4689
  373TIP3    H122678   2.090   3.169   7.951  2.8808  1.7169  0.2525
  373TIP3    H222679   2.203   3.068   7.953  1.0119 -0.4576 -0.3354
  374TIP3   OH222680   2.449   4.400   0.092  0.1776  0.1387  0.4421
  374TIP3    H122681   2.371   4.399   0.147 -0.0586  1.8656  0.1932
  374TIP3    H222682   2.461   4.492   0.069  0.3884 -0.4779 -2.2014
  375TIP3   OH222683   6.607   6.292   7.563  0.1556 -0.1018 -0.0181
  375TIP3    H122684   6.665   6.357   7.523  0.3641 -0.6049 -0.5443
  375TIP3    H222685   6.664   6.216   7.578 -0.2535 -0.4163 -0.0646
  376TIP3   OH222686   6.761   0.419   8.021 -0.4491  0.2849 -0.4148
  376TIP3    H122687   6.779   0.327   8.005 -2.2725  0.0595 -1.5000
  376TIP3    H222688   6.700   0.444   7.951  1.3510  2.7922 -1.2609
  377TIP3   OH222689   6.813   5.687   6.120 -0.7634  0.1127 -0.0417
  377TIP3    H122690   6.754   5.680   6.045 -0.3708  1.8172 -0.5727
  377TIP3    H222691   6.756   5.714   6.193 -0.9062  0.0771 -0.1396
  378TIP3   OH222692   1.783   1.770   7.219  0.1862  0.4782 -0.1119
  378TIP3    H122693   1.726   1.801   7.149  0.2049  1.5839  0.3414
  378TIP3    H222694   1.770   1.675   7.221 -2.1810  0.7506  0.4437
  379TIP3   OH222695   1.978   6.417   1.018 -0.0874 -0.5510 -0.0458
  379TIP3    H122696   2.070   6.415   1.044 -0.1776 -0.7911  0.2539
  379TIP3    H222697   1.980   6.409   0.922  0.2412  0.3811 -0.1256
  380TIP3   OH222698   5.223   3.185   7.332  0.0386 -0.3299  0.2159
  380TIP3    H122699   5.223   3.092   7.352  0.8187 -0.8177 -1.8324
  380TIP3    H222700   5.302   3.218   7.375 -0.8131 -0.3401  1.8770
  381TIP3   OH222701   4.796   0.483   6.534 -0.3222 -0.2186  0.5827
  381TIP3    H122702   4.846   0.544   6.480 -0.7513  0.1086  0.5512
  381TIP3    H222703   4.863   0.433   6.582  0.0475  1.5598  2.0469
  382TIP3   OH222704   2.609   5.951   1.090 -0.4011  0.1578 -0.0162
  382TIP3    H122705   2.663   5.876   1.116 -2.0054 -0.7845  0.7834
  382TIP3    H222706   2.662   6.028   1.111  0.6471 -0.7230  0.6748
  383TIP3   OH222707   6.720   3.679   0.012  0.2157  0.2438  0.1314
  383TIP3    H122708   6.718   3.676  -0.084 -0.8237 -0.5460  0.1464
  383TIP3    H222709   6.716   3.587   0.038 -1.3558  0.4974  0.9179
  384TIP3   OH222710   1.730   4.136   1.485  0.0303 -0.0229  0.2617
  384TIP3    H122711   1.743   4.225   1.517  0.5768  0.3227 -0.8356
  384TIP3    H222712   1.684   4.091   1.555 -0.0036  1.0482  0.9504
  385TIP3   OH222713   0.326   2.272   1.900  0.4778 -0.5991  0.0555
  385TIP3    H122714   0.363   2.203   1.844  0.4087 -0.0233 -0.7109
  385TIP3    H222715   0.325   2.233   1.987  1.3150 -1.2359 -0.2009
  386TIP3   OH222716   3.140   1.038   2.645  0.1687  0.3291 -0.0349
  386TIP3    H122717   3.229   1.006   2.661 -1.0095 -2.2919  1.9909
  386TIP3    H222718   3.114   1.080   2.727 -1.8356 -2.7032  1.0409
  387TIP3   OH222719   1.096   6.740   6.915  0.0844  0.3050 -0.2862
  387TIP3    H122720   1.111   6.735   7.009 -0.2354 -0.5886 -0.2727
  387TIP3    H222721   1.157   6.677   6.878  0.1518  0.5960 -0.6777
  388TIP3   OH222722   2.367   4.052   0.515 -0.0445 -0.3801  0.4037
  388TIP3    H122723   2.275   4.076   0.526  0.5046  1.3175  1.8384
  388TIP3    H222724   2.366   3.976   0.457 -2.2177  0.6887 -1.0707
  389TIP3   OH222725   4.300   4.605   7.912 -0.4725 -0.5260 -0.7322
  389TIP3    H122726   4.255   4.544   7.853  2.0967 -3.1312 -0.2211
  389TIP3    H222727   4.234   4.628   7.977 -2.3674 -0.3490 -2.6049
  390TIP3   OH222728   5.965   3.253   2.233  0.8364  0.0101  0.0221
  390TIP3    H122729   5.957   3.163   2.266  1.1778 -0.8193 -2.0309
  390TIP3    H222730   5.951   3.307   2.311  3.2647 -1.8166  1.9369
  391TIP3   OH222731   1.544   1.910   0.592 -0.2786 -0.3261 -0.1607
  391TIP3    H122732   1.473   1.966   0.623 -0.2125 -0.3841  0.0949
  391TIP3    H222733   1.621   1.966   0.592  0.1158 -0.8005  1.5570
  392TIP3   OH222734   0.536   2.004   8.126 -0.3711  0.2917 -0.4802
  392TIP3    H122735   0.519   1.975   8.037 -0.0532 -0.9176 -0.1733
  392TIP3    H222736   0.585   1.932   8.165  2.7242  2.2864 -0.3940
  393TIP3   OH222737   0.802   3.804   7.454  0.1764  0.1001  0.0182
  393TIP3    H122738   0.847   3.781   7.372 -0.6982  1.5827 -0.9254
  393TIP3    H222739   0.780   3.720   7.493  1.6250 -0.6488 -0.6798
  394TIP3   OH222740   4.918   6.017   0.405  0.4247 -0.3821 -0.3623
  394TIP3    H122741   4.875   6.002   0.490 -0.5154 -0.4843 -0.8469
  394TIP3    H222742   5.009   6.038   0.428  0.4557 -1.4494  0.6286
  395TIP3   OH222743   0.464   3.660   7.364  0.2093  0.3190 -0.1537
  395TIP3    H122744   0.489   3.751   7.379  1.3179 -0.0250  0.2835
  395TIP3    H222745   0.400   3.663   7.293 -1.3844  1.6101  1.2464
  396TIP3   OH222746   0.016   4.382   7.592 -0.1581  0.3827  0.3945
  396TIP3    H122747  -0.032   4.406   7.513  0.1403 -0.9457 -0.2351
  396TIP3    H222748  -0.030   4.425   7.664 -2.9696 -1.6486 -0.0349
  397TIP3   OH222749   2.195   4.681   1.517 -0.1874  0.3310 -0.0802
  397TIP3    H122750   2.284   4.671   1.552  0.4290 -0.2957 -1.6808
  397TIP3    H222751   2.194   4.770   1.482  0.5567 -0.2935 -1.8414
  398TIP3   OH222752   5.916   3.802   6.578 -0.5646 -0.0622  0.2694
  398TIP3    H122753   5.950   3.892   6.576 -0.5946 -0.0509  0.2644
  398TIP3    H222754   5.986   3.752   6.619 -0.3135 -0.1372 -0.2423
  399TIP3   OH222755   3.859   6.872   6.503  0.2452  0.1210 -0.1912
  399TIP3    H122756   3.788   6.928   6.534 -1.3159 -2.1407  0.6161
  399TIP3    H222757   3.937   6.906   6.546 -0.2592  2.7139 -1.1300
  400TIP3   OH222758   2.652   4.975   7.436  0.5542 -0.1425  0.4702
  400TIP3    H122759   2.581   4.951   7.377  1.1604 -1.3553  0.2000
  400TIP3    H222760   2.627   5.061   7.470  0.0903  0.4987 -1.3779
  401TIP3   OH222761   4.190   4.440   7.442 -0.0115 -0.2522 -0.2553
  401TIP3    H122762   4.185   4.347   7.419  1.8639  0.1945 -2.8187
  401TIP3    H222763   4.276   4.468   7.413 -0.4281  2.2768  0.6731
  402TIP3   OH222764   5.287   5.585   1.386  0.1940 -0.4683 -0.7299
  402TIP3    H122765   5.271   5.658   1.327 -0.6019 -0.5704 -0.6456
  402TIP3    H222766   5.251   5.509   1.340  1.6825 -0.9480 -1.1565
  403TIP3   OH222767   3.626   3.962   7.706 -0.7219  0.2156  0.2236
  403TIP3    H122768   3.577   3.984   7.785 -2.8909  1.7519 -1.4359
  403TIP3    H222769   3.598   4.027   7.641  3.5589  1.2722 -0.9217
  404TIP3   OH222770   5.609   1.569   0.436 -0.3894 -0.0615 -0.2727
  404TIP3    H122771   5.572   1.482   0.424 -2.8315  0.7633  0.6743
  404TIP3    H222772   5.566   1.623   0.370  1.4758  0.4003 -1.1904
  405TIP3   OH222773   2.214   1.869   8.284  0.0260 -0.0278  0.0409
  405TIP3    H122774   2.142   1.860   8.346  1.1747 -0.9818  1.2954
  405TIP3    H222775   2.265   1.788   8.294  0.0093 -0.4533 -2.5098
  406TIP3   OH222776   5.988   3.128   6.947 -0.1242 -0.1891  0.0936
  406TIP3    H122777   5.927   3.148   6.876  0.9032 -1.3430 -1.1674
  406TIP3    H222778   5.944   3.159   7.026 -1.9128 -0.1127 -0.8828
  407TIP3   OH222779   6.800   6.825   2.073 -1.0070  0.0492  0.3097
  407TIP3    H122780   6.733   6.756   2.070 -1.6593  0.4595  2.8768
  407TIP3    H222781   6.882   6.779   2.056 -1.4871 -1.3056  1.4509
  408TIP3   OH222782   6.677   6.918   0.423 -0.4525  0.1436 -0.5506
  408TIP3    H122783   6.665   7.011   0.404 -0.1679 -0.1605 -2.4127
  408TIP3    H222784   6.766   6.912   0.456 -0.4030  0.5122 -0.6070
  409TIP3   OH222785   4.317   0.248   7.745  0.5302 -0.5814 -0.1663
  409TIP3    H122786   4.337   0.292   7.827  0.3539 -1.1513  0.1955
  409TIP3    H222787   4.376   0.286   7.681  0.2493  0.2999  0.0934
  410TIP3   OH222788   2.077   3.586   0.409 -0.6236 -0.2288 -0.7146
  410TIP3    H122789   2.016   3.557   0.477 -1.3069  1.9038 -0.3366
  410TIP3    H222790   2.020   3.619   0.339  0.0697  0.7020 -0.8594
  411TIP3   OH222791   6.189   4.774   1.930 -0.0594 -0.3110  0.1329
  411TIP3    H122792   6.280   4.760   1.955 -0.1629  0.1064  0.7838
  411TIP3    H222793   6.161   4.847   1.985 -0.6595 -0.1585 -0.3715
  412TIP3   OH222794   0.903   2.317   0.025  0.0301  0.0302 -0.3283
  412TIP3    H122795   0.860   2.365  -0.046  0.3695  0.5340 -0.1963
  412TIP3    H222796   0.943   2.242  -0.018  1.9310  1.3612 -1.0259
  413TIP3   OH222797   0.321   3.127   7.660 -0.0546 -0.0160 -0.0434
  413TIP3    H122798   0.358   3.040   7.650 -0.5707 -0.1398 -1.1064
  413TIP3    H222799   0.322   3.163   7.571  0.0047  1.0006  0.3575
  414TIP3   OH222800   5.278   1.595   8.384  0.4676 -0.5944  0.1797
  414TIP3    H122801   5.277   1.628   8.294 -0.4964  0.8496  0.6867
  414TIP3    H222802   5.337   1.653   8.431 -1.9235  1.1105  1.2786
  415TIP3   OH222803   0.709   5.619   1.954 -0.1726  0.6369 -0.4623
  415TIP3    H122804   0.676   5.645   2.040  1.8842 -0.1873  0.6674
  415TIP3    H222805   0.689   5.526   1.948  1.8936  0.0896  0.3042
  416TIP3   OH222806   1.433   4.047   7.996  0.0382 -0.3695  0.7165
  416TIP3    H122807   1.387   4.001   8.065  0.4251 -0.0418  1.2010
  416TIP3    H222808   1.523   4.056   8.028  0.8579 -2.3036 -0.8249
  417TIP3   OH222809   4.395   3.820   2.129  0.1393  0.4162  0.0905
  417TIP3    H122810   4.341   3.758   2.080  1.1368  0.4870 -1.1348
  417TIP3    H222811   4.388   3.791   2.220 -1.1668 -0.1595 -0.1709
  418TIP3   OH222812   5.864   5.877   6.652 -0.3604 -0.2672 -0.0340
  418TIP3    H122813   5.942   5.841   6.609 -1.2515 -0.0814 -1.8859
  418TIP3    H222814   5.814   5.801   6.679  0.0433 -0.3899  0.3725
  419TIP3   OH222815   6.548   6.497   8.393  0.5938  0.0265 -0.3450
  419TIP3    H122816   6.605   6.459   8.326 -0.5471  0.4388 -1.5927
  419TIP3    H222817   6.609   6.534   8.457  1.7389 -2.2872  0.0275
  420TIP3   OH222818   6.784   0.165   7.590  0.6194 -0.0634 -0.1134
  420TIP3    H122819   6.763   0.087   7.537 -0.0098  0.9730 -1.4541
  420TIP3    H222820   6.876   0.154   7.613  0.1770 -1.9231  1.0058
  421TIP3   OH222821   5.407   5.461   2.184 -0.1384  0.0202  0.5075
  421TIP3    H122822   5.409   5.554   2.204 -0.1498 -0.0860  1.0354
  421TIP3    H222823   5.314   5.437   2.192 -0.0363 -0.1883  1.1392
  422TIP3   OH222824   0.030   5.433   6.261 -0.2386 -0.0994  0.0540
  422TIP3    H122825   0.026   5.521   6.224 -2.1548 -0.5926 -1.0817
  422TIP3    H222826   0.058   5.446   6.352 -0.4418  1.6761 -0.1049
  423TIP3   OH222827   3.879   4.484   2.107 -0.4525 -0.1277 -0.3720
  423TIP3    H122828   3.890   4.390   2.092 -0.5765 -0.4034  1.0796
  423TIP3    H222829   3.799   4.490   2.159 -0.7296  0.8368 -0.9025
  424TIP3   OH222830   1.186   0.033   2.582 -0.3563  0.0818  0.0130
  424TIP3    H122831   1.153  -0.047   2.623 -0.1074  0.4806  1.0353
  424TIP3    H222832   1.231   0.003   2.503  0.3623 -0.8787  0.7606
  425TIP3   OH222833   2.616   4.764   8.294 -0.4599 -0.3833  0.3757
  425TIP3    H122834   2.589   4.728   8.378 -0.4036 -1.1051  0.0932
  425TIP3    H222835   2.644   4.688   8.243  3.5850  0.3555  1.1280
  426TIP3   OH222836   0.128   4.080   2.090  0.0890  0.0663  0.3316
  426TIP3    H122837   0.138   4.106   2.182  1.5414 -1.4800  0.6619
  426TIP3    H222838   0.196   4.014   2.077  2.3412  2.6706 -2.8330
  427TIP3   OH222839   0.748   5.208   7.951  0.4380 -0.0199  0.0105
  427TIP3    H122840   0.682   5.180   8.014  0.4810  0.6074  0.3447
  427TIP3    H222841   0.786   5.287   7.989  0.0677  0.7015 -1.0703
  428TIP3   OH222842   5.995   5.702   0.168 -0.3733  0.5226 -0.1574
  428TIP3    H122843   6.012   5.796   0.158 -0.6936  0.6977  0.8326
  428TIP3    H222844   6.049   5.661   0.100  3.6216  1.0679  2.3499
  429TIP3   OH222845   1.056   3.747   1.782 -0.4246 -0.1812 -0.3125
  429TIP3    H122846   1.009   3.824   1.815  1.5903  0.7326  0.6034
  429TIP3    H222847   1.145   3.779   1.766  0.6824 -2.4799  0.8194
  430TIP3   OH222848   3.638   1.857   8.187  0.2563 -0.4574  0.1919
  430TIP3    H122849   3.673   1.915   8.253  0.4656 -0.0457 -0.2757
  430TIP3    H222850   3.672   1.891   8.104 -0.1032 -0.8872 -0.1387
  431TIP3   OH222851   2.860   4.005   0.322 -0.0374  0.3523 -0.4384
  431TIP3    H122852   2.934   4.032   0.267 -1.2437  0.6240 -1.9885
  431TIP3    H222853   2.876   4.048   0.406  0.7343  1.7502 -1.2632
  432TIP3   OH222854   3.797   5.996   7.846 -0.1518  0.0627  0.2102
  432TIP3    H122855   3.753   5.962   7.768  0.4973 -1.1970  0.3721
  432TIP3    H222856   3.813   6.088   7.826  1.7238 -0.6376 -1.9832
  433TIP3   OH222857   0.009   5.387   0.996 -0.1952 -0.3594  0.4265
  433TIP3    H122858   0.079   5.351   0.941  0.3814  1.2964  0.0170
  433TIP3    H222859   0.035   5.363   1.085 -0.1900 -1.5080  0.1351
  434TIP3   OH222860   3.811   1.553   7.966  0.4533  0.0023  0.2335
  434TIP3    H122861   3.785   1.599   7.886  2.0519 -1.6962 -1.3812
  434TIP3    H222862   3.771   1.466   7.958  2.5930 -1.0475 -0.0295
  435TIP3   OH222863   0.438   4.063   1.316 -0.0309 -0.1151  0.3915
  435TIP3    H122864   0.347   4.094   1.311 -0.5149 -1.5095  0.1647
  435TIP3    H222865   0.460   4.068   1.409  0.0474  1.2438  0.3183
  436TIP3   OH222866   4.151   0.430   1.348  0.5549  0.4299  0.6605
  436TIP3    H122867   4.205   0.444   1.270  0.2526 -1.5363  0.0353
  436TIP3    H222868   4.182   0.346   1.384 -2.3820 -1.1094 -0.0596
  437TIP3   OH222869   3.341   4.094   1.331 -0.1343 -0.4255 -0.3857
  437TIP3    H122870   3.294   4.058   1.255  0.5165 -1.3053 -0.3778
  437TIP3    H222871   3.273   4.105   1.398 -0.4609 -0.9685 -0.6257
  438TIP3   OH222872   3.750   1.425   7.378 -0.3511  0.1788 -0.9102
  438TIP3    H122873   3.832   1.392   7.341 -0.6814 -0.3680 -1.1640
  438TIP3    H222874   3.729   1.364   7.449 -0.2767  0.6083 -0.5159
  439TIP3   OH222875   2.079   5.987   6.101  0.1927 -0.3266 -0.1515
  439TIP3    H122876   1.990   5.994   6.135  0.4817 -0.4805  0.6600
  439TIP3    H222877   2.120   6.070   6.124 -0.0201  0.1583 -1.4099
  440TIP3   OH222878   1.783   0.587   0.132 -0.1860 -0.4232 -0.2709
  440TIP3    H122879   1.853   0.651   0.142 -0.4256 -0.1182 -0.5299
  440TIP3    H222880   1.825   0.511   0.092 -0.1005 -0.0516 -0.9087
  441TIP3   OH222881   5.807   2.766   7.622  0.4305  0.0992  0.2299
  441TIP3    H122882   5.757   2.846   7.608 -0.0286 -0.2132  0.0690
  441TIP3    H222883   5.773   2.731   7.705  0.2726 -0.1939  0.0420
  442TIP3   OH222884   0.437   2.906   1.427  0.2343 -0.3093 -0.3093
  442TIP3    H122885   0.366   2.923   1.489 -0.2648 -1.5610 -0.5100
  442TIP3    H222886   0.395   2.908   1.341  0.5683 -0.4240 -0.4787
  443TIP3   OH222887   4.189   3.158   7.789 -0.1467 -0.0027 -0.7378
  443TIP3    H122888   4.172   3.072   7.828  2.1677  1.1304  3.2642
  443TIP3    H222889   4.276   3.149   7.749 -0.5375  0.1061 -1.6264
  444TIP3   OH222890   2.469   5.852   1.409 -0.1443 -0.1443  0.3226
  444TIP3    H122891   2.518   5.824   1.486 -0.5867  1.1696  1.1075
  444TIP3    H222892   2.494   5.789   1.341  1.6673 -0.2609  1.0267
  445TIP3   OH222893   4.895   4.705   1.988  0.1094 -0.2303 -0.1200
  445TIP3    H122894   4.979   4.725   2.030 -0.7697 -0.9878  2.1686
  445TIP3    H222895   4.915   4.638   1.923  1.4773  0.6663 -0.6528
  446TIP3   OH222896   6.296   6.333   7.747 -0.1353  0.4817  0.0532
  446TIP3    H122897   6.220   6.352   7.802 -1.0841  1.2012 -1.4516
  446TIP3    H222898   6.300   6.237   7.745 -0.4209  0.4408  0.8916
  447TIP3   OH222899   0.300   3.797   0.784  0.0538 -0.7380 -0.1288
  447TIP3    H122900   0.331   3.886   0.798 -0.9511 -0.5808  1.2628
  447TIP3    H222901   0.371   3.754   0.736  0.4363  0.8602 -1.0586
  448TIP3   OH222902   4.811   0.893   7.942 -0.0065 -0.2238  0.0810
  448TIP3    H122903   4.891   0.924   7.898 -0.2234 -0.7082 -0.6579
  448TIP3    H222904   4.758   0.856   7.872 -0.0140 -1.7418  0.8653
  449TIP3   OH222905   6.182   5.989   8.369 -0.1661  0.0701 -0.3358
  449TIP3    H122906   6.164   5.938   8.290  0.7222 -0.7637 -0.0276
  449TIP3    H222907   6.218   6.072   8.337  0.3858 -0.3462 -0.8150
  450TIP3   OH222908   3.805   2.762   0.366 -0.2125  0.1492  0.2308
  450TIP3    H122909   3.900   2.752   0.366  0.2995  3.4561 -2.0226
  450TIP3    H222910   3.790   2.844   0.413 -1.9549 -0.2088  0.3470
  451TIP3   OH222911   3.288   4.517   0.136 -0.2228 -0.0235 -0.0063
  451TIP3    H122912   3.341   4.495   0.213  0.5122  0.9805 -0.2019
  451TIP3    H222913   3.198   4.510   0.167  0.0633  1.3226  1.2466
  452TIP3   OH222914   4.575   0.338   6.456 -0.6378 -0.0754  0.2207
  452TIP3    H122915   4.644   0.272   6.449  1.4750  1.9478  0.9854
  452TIP3    H222916   4.621   0.420   6.475 -3.2463  1.4156  0.5724
  453TIP3   OH222917   1.548   1.342   8.393  0.7465  0.3285 -0.2957
  453TIP3    H122918   1.609   1.344   8.319  0.4506 -1.8939 -0.6639
  453TIP3    H222919   1.605   1.345   8.471  1.1227  1.3920 -0.5898
  454TIP3   OH222920   3.338   3.658   0.066  0.0251  0.0858  0.6537
  454TIP3    H122921   3.317   3.681   0.157 -1.6320  2.3894 -0.2180
  454TIP3    H222922   3.356   3.742   0.024 -0.7979 -0.7578 -1.5032
  455TIP3   OH222923   1.897   1.071   8.380 -0.1051 -0.1249 -0.1464
  455TIP3    H122924   1.965   1.051   8.444  0.2987  3.2201  0.6391
  455TIP3    H222925   1.842   0.993   8.378 -0.1193 -0.4414  4.2567
  456TIP3   OH222926   6.429   1.191   8.073  0.2924 -0.1476  0.4699
  456TIP3    H122927   6.355   1.162   8.019  0.1234  0.5675  0.3141
  456TIP3    H222928   6.397   1.269   8.118  1.0580  0.3587  0.1488
  457TIP3   OH222929   1.748   0.768   2.695 -0.2111 -0.0395 -0.5880
  457TIP3    H122930   1.700   0.850   2.701 -0.8565 -0.3795 -0.9007
  457TIP3    H222931   1.691   0.711   2.643 -0.1642 -0.9600  0.3314
  458TIP3   OH222932   1.090   5.851   8.330  0.2759 -0.2561  0.1709
  458TIP3    H122933   1.047   5.903   8.262  0.8124 -1.1460 -0.8905
  458TIP3    H222934   1.021   5.829   8.392 -0.3548  0.0705 -0.4105
  459TIP3   OH222935   0.817   2.824   8.464  0.2887 -0.1198  0.3846
  459TIP3    H122936   0.782   2.800   8.550 -2.0601  0.9556 -0.1966
  459TIP3    H222937   0.867   2.904   8.479 -3.1409  2.2377  0.3488
  460TIP3   OH222938   1.368   3.694   0.494 -0.3601 -0.3704  0.2950
  460TIP3    H122939   1.445   3.674   0.441 -1.0823 -1.2586 -0.4540
  460TIP3    H222940   1.318   3.757   0.441  0.6101  1.4967  1.4906
  461TIP3   OH222941   2.621   5.626   6.779  0.1932 -0.2566  0.7230
  461TIP3    H122942   2.641   5.719   6.766 -0.4004  0.2747  3.1247
  461TIP3    H222943   2.705   5.582   6.771  0.3619  0.3346 -1.2870
  462TIP3   OH222944   4.136   3.582   1.701  0.6495 -0.0180  0.0411
  462TIP3    H122945   4.164   3.548   1.617  0.1617  0.2103 -0.2172
  462TIP3    H222946   4.102   3.670   1.682  0.7140  0.1115  0.5014
  463TIP3   OH222947   4.951   1.095   7.716  0.5075 -0.6960 -0.6090
  463TIP3    H122948   5.019   1.097   7.648  0.3114 -1.8606 -0.8583
  463TIP3    H222949   4.870   1.076   7.668  0.3587 -1.4666 -0.0614
  464TIP3   OH222950   2.570   4.843   6.565 -0.2089  0.2244 -1.0435
  464TIP3    H122951   2.519   4.924   6.563 -1.4596 -0.4713  0.3800
  464TIP3    H222952   2.571   4.817   6.657 -1.2713 -2.2294 -1.6239
  465TIP3   OH222953   0.959   2.089   0.165  0.2070  0.1570 -0.4921
  465TIP3    H122954   0.908   2.169   0.154 -1.5489 -0.6339  1.2149
  465TIP3    H222955   0.921   2.027   0.103  0.6066  0.2217 -0.8037
  466TIP3   OH222956   2.186   4.262   0.657  0.5810 -0.4456  0.1519
  466TIP3    H122957   2.219   4.195   0.717 -0.1900  0.2508  1.4098
  466TIP3    H222958   2.091   4.259   0.667  0.2901 -1.4353 -2.3270
  467TIP3   OH222959   2.760   4.888   0.829 -0.0195 -0.4892 -0.7827
  467TIP3    H122960   2.685   4.861   0.881  1.2313 -0.9459  0.8736
  467TIP3    H222961   2.725   4.952   0.768 -1.4255  0.7307  1.1910
  468TIP3   OH222962   1.427   1.281   1.034 -0.0315  0.1013  0.5444
  468TIP3    H122963   1.362   1.259   0.967 -1.0024 -1.6626  1.9869
  468TIP3    H222964   1.496   1.216   1.023  0.1016  0.1867  0.8626
  469TIP3   OH222965   6.480   3.674   1.718  0.4648 -0.1892  0.4502
  469TIP3    H122966   6.420   3.702   1.788 -0.4091  0.3914 -0.4998
  469TIP3    H222967   6.524   3.755   1.692  0.8236 -0.4137  0.3573
  470TIP3   OH222968   4.930   5.666   6.828 -0.1218 -0.7282 -0.5402
  470TIP3    H122969   4.949   5.573   6.840  0.0816 -1.2289 -3.7537
  470TIP3    H222970   5.006   5.700   6.781  0.9511  1.7603  2.6047
  471TIP3   OH222971   5.703   2.417   0.653 -0.5294 -0.1429 -0.2688
  471TIP3    H122972   5.775   2.468   0.617  0.5249 -0.6683  1.0147
  471TIP3    H222973   5.627   2.475   0.649  0.8261  1.9569  2.0753
  472TIP3   OH222974   5.481   2.162   1.255 -0.2813  0.1313  0.0268
  472TIP3    H122975   5.575   2.180   1.261  0.2923 -2.1140 -1.0272
  472TIP3    H222976   5.445   2.191   1.339  1.6301 -0.4642  1.0969
  473TIP3   OH222977   1.842   4.467   1.871  0.0691 -0.1286 -0.1747
  473TIP3    H122978   1.884   4.502   1.793 -1.8297 -1.5068 -1.9273
  473TIP3    H222979   1.822   4.544   1.925  0.1974  0.9957 -1.6816
  474TIP3   OH222980   1.232   2.317   1.715 -0.1686  0.5374 -0.0906
  474TIP3    H122981   1.207   2.375   1.643  0.6514  1.8621  0.6444
  474TIP3    H222982   1.271   2.241   1.672 -0.5828  0.8538 -1.0595
  475TIP3   OH222983   6.492   6.612   0.255  0.2326  0.2694 -0.7990
  475TIP3    H122984   6.578   6.649   0.277  0.3455  0.1647 -1.0534
  475TIP3    H222985   6.496   6.522   0.288  0.0653  0.3901 -0.4402
  476TIP3   OH222986   5.422   0.321   2.083  0.2081  0.1208  0.0833
  476TIP3    H122987   5.437   0.347   2.174 -1.3861  1.8396 -0.0993
  476TIP3    H222988   5.330   0.297   2.079  0.2868 -0.0533 -1.0543
  477TIP3   OH222989   4.002   0.543   0.703  0.0015 -0.1407 -0.2429
  477TIP3    H122990   4.038   0.595   0.631  2.9536 -0.4930  0.8652
  477TIP3    H222991   3.988   0.606   0.774  0.6213 -0.3557  0.0750
  478TIP3   OH222992   1.726   1.728   0.805  0.0573  0.2436 -0.3329
  478TIP3    H122993   1.806   1.748   0.756  1.0674  1.5613  1.7363
  478TIP3    H222994   1.684   1.813   0.818  0.6309  0.1897  2.3689
  479TIP3   OH222995   2.184   5.308   6.854 -0.0116  0.4654 -0.3011
  479TIP3    H122996   2.167   5.391   6.900  0.3321  0.4689 -0.1762
  479TIP3    H222997   2.273   5.318   6.820 -0.6328  0.8923 -1.9029
  480TIP3   OH222998   4.562   0.346   0.664 -0.5504  0.1556 -0.0444
  480TIP3    H122999   4.598   0.434   0.655 -2.6057  1.1494  0.7589
  480TIP3    H223000   4.639   0.289   0.669  1.0435  2.2665  3.3093
  481TIP3   OH223001   2.602   6.011   8.151  0.0637 -0.4148  0.4450
  481TIP3    H123002   2.619   5.951   8.079 -0.9106  0.9737 -1.0167
  481TIP3    H223003   2.508   6.003   8.167  0.0521  0.2050  0.7103
  482TIP3   OH223004   1.640   1.456   6.468 -0.4557 -0.1120 -0.0024
  482TIP3    H123005   1.568   1.503   6.426 -0.4270 -0.1555 -0.1014
  482TIP3    H223006   1.610   1.365   6.472 -0.4460 -0.1132  0.0441
  483TIP3   OH223007   6.709   4.366   0.343 -0.6266  0.3852 -0.0773
  483TIP3    H123008   6.705   4.458   0.370 -1.1652  0.4266 -0.2917
  483TIP3    H223009   6.800   4.341   0.357 -1.1767 -0.1535  3.6714
  484TIP3   OH223010   6.216   3.623   8.146  0.1889  0.4200 -0.1959
  484TIP3    H123011   6.186   3.557   8.084 -0.0630 -0.3867  0.7559
  484TIP3    H223012   6.234   3.574   8.226  2.0894  1.1705 -0.1066
  485TIP3   OH223013   0.500   5.498   6.507  0.2657 -0.4327  0.0330
  485TIP3    H123014   0.533   5.547   6.432 -0.1279  0.2545  0.3005
  485TIP3    H223015   0.578   5.474   6.557  0.5095 -0.6941 -0.4664
  486TIP3   OH223016   2.786   3.676   8.047 -0.3090  0.2996 -0.2172
  486TIP3    H123017   2.715   3.741   8.048 -0.7404 -0.1271  1.7218
  486TIP3    H223018   2.807   3.663   8.140  0.0191 -2.0413 -0.5561
  487TIP3   OH223019   0.352   5.741   0.508 -0.5039  0.1643 -0.2159
  487TIP3    H123020   0.355   5.837   0.506 -2.5255  0.3203  1.0275
  487TIP3    H223021   0.381   5.719   0.596  0.4888 -0.4262 -0.6801
  488TIP3   OH223022   4.730   4.231   8.315  0.5770  0.0364 -0.1611
  488TIP3    H123023   4.715   4.246   8.409  1.2565 -0.0723 -0.0329
  488TIP3    H223024   4.761   4.141   8.310 -2.5713 -1.1512 -0.8406
  489TIP3   OH223025   6.943   2.725   7.856  0.2813  0.1963 -0.4628
  489TIP3    H123026   6.989   2.711   7.774  1.4257 -1.0811  0.3512
  489TIP3    H223027   6.981   2.661   7.917 -1.2718  0.3601  0.7712
  490TIP3   OH223028   3.749   2.563   8.035 -1.0137 -0.2410 -0.3596
  490TIP3    H123029   3.713   2.619   7.967 -1.6211  0.0461  0.1844
  490TIP3    H223030   3.780   2.624   8.102  0.2102 -0.4978 -0.6783
  491TIP3   OH223031   1.962   3.413   0.929  0.1081  0.5362 -0.1572
  491TIP3    H123032   1.935   3.504   0.939 -1.0300  0.3605 -1.4349
  491TIP3    H223033   1.955   3.376   1.017 -0.8906  1.2939  0.0926
  492TIP3   OH223034   0.275   2.625   7.283  0.3188  0.1406 -0.2894
  492TIP3    H123035   0.209   2.560   7.259 -0.7678  0.8308  0.7337
  492TIP3    H223036   0.306   2.597   7.369  1.3492 -0.1449 -0.7367
  493TIP3   OH223037   4.767   4.715   0.095  0.0624  0.6317  0.3128
  493TIP3    H123038   4.712   4.763   0.157  0.5381  1.4332  0.1294
  493TIP3    H223039   4.714   4.708   0.016 -0.7017 -0.7430  0.9196
  494TIP3   OH223040   1.125   6.382   0.506 -0.3397 -0.2076  0.1339
  494TIP3    H123041   1.088   6.337   0.430 -0.3588  1.4690 -0.8976
  494TIP3    H223042   1.164   6.312   0.559 -2.4919 -1.7194 -0.1316
  495TIP3   OH223043   6.906   6.485   1.661  0.2910 -0.1656  0.3134
  495TIP3    H123044   6.977   6.525   1.711  0.7029  1.5526 -1.5098
  495TIP3    H223045   6.950   6.421   1.604  0.6330  1.5706 -1.5095
  496TIP3   OH223046   6.547   0.293   7.271 -0.1687 -0.1471 -0.1657
  496TIP3    H123047   6.484   0.222   7.281 -0.7572  0.6200  2.5136
  496TIP3    H223048   6.502   0.369   7.308  0.1891  1.8639 -3.4552
  497TIP3   OH223049   4.252   1.272   0.876  0.2403  0.5638 -0.3191
  497TIP3    H123050   4.296   1.188   0.886 -0.8224  0.0306  0.0424
  497TIP3    H223051   4.176   1.253   0.820 -1.3249  0.7528  1.6336
  498TIP3   OH223052   3.069   0.481   1.569 -0.1614 -0.1589  0.1855
  498TIP3    H123053   3.109   0.436   1.644  1.0273 -0.8550 -0.8256
  498TIP3    H223054   3.072   0.573   1.592 -0.1561 -0.3931  1.1584
  499TIP3   OH223055   4.651   1.105   7.312 -0.4805 -0.5724 -0.0259
  499TIP3    H123056   4.587   1.045   7.273  0.8262 -1.0027 -1.6169
  499TIP3    H223057   4.707   1.130   7.239  1.2021 -0.2528  1.3346
  500TIP3   OH223058   0.639   5.474   8.020  0.0500  0.2596  0.2505
  500TIP3    H123059   0.592   5.530   8.082  0.7073  1.4377 -0.2748
  500TIP3    H223060   0.581   5.400   8.005 -1.6475  1.6320 -0.3491
  501TIP3   OH223061   0.591   2.137   2.763 -0.3545 -0.4522 -0.3437
  501TIP3    H123062   0.649   2.210   2.784 -0.0792 -0.7377 -0.1118
  501TIP3    H223063   0.526   2.175   2.703 -1.6572  0.6333  1.6073
  502TIP3   OH223064   5.420   4.889   0.678  0.9081  0.5781 -0.0693
  502TIP3    H123065   5.417   4.980   0.709  0.2911 -0.2008  2.3886
  502TIP3    H223066   5.507   4.858   0.705  0.2708 -0.1901  1.1922
  503TIP3   OH223067   3.962   6.389   0.003 -0.3771  0.6619  0.4621
  503TIP3    H123068   3.917   6.426   0.079  2.2694  2.0565  1.4815
  503TIP3    H223069   3.993   6.465  -0.046 -0.6396 -0.2328 -1.1762
  504TIP3   OH223070   4.842   3.896   1.826  0.9818  0.1790 -0.0670
  504TIP3    H123071   4.905   3.906   1.898  1.1451 -0.2458 -0.1488
  504TIP3    H223072   4.759   3.877   1.869  1.0096  0.2620  0.0235
  505TIP3   OH223073   6.026   1.510   7.361 -0.4974  0.0372  0.3422
  505TIP3    H123074   6.113   1.489   7.395 -0.0833  0.2417 -0.5654
  505TIP3    H223075   5.989   1.569   7.426  0.3531  0.5700  0.3688
  506TIP3   OH223076   0.702   3.387   2.122  0.5721 -0.4643  0.0506
  506TIP3    H123077   0.768   3.376   2.190  2.3734  2.0726 -1.1228
  506TIP3    H223078   0.645   3.456   2.154 -0.4795 -1.4151  0.2821
  507TIP3   OH223079   5.058   2.017   7.194  0.1967 -0.0164  0.2118
  507TIP3    H123080   4.985   1.957   7.210 -1.2400  1.8625  1.0785
  507TIP3    H223081   5.035   2.062   7.113  0.3429  0.6315  0.5217
  508TIP3   OH223082   0.973   0.087   0.985  0.2134  0.5239  0.0802
  508TIP3    H123083   1.056   0.100   0.939 -0.0372  1.3654 -0.1440
  508TIP3    H223084   0.913   0.058   0.917  0.2387  0.2150  0.1860
  509TIP3   OH223085   2.230   6.810   8.465 -0.0424 -0.4875  0.6529
  509TIP3    H123086   2.279   6.732   8.441 -0.7675 -1.0268  0.9011
  509TIP3    H223087   2.268   6.879   8.410  1.1979 -0.8143  1.0690
  510TIP3   OH223088   1.370   2.324   7.320  0.9321  0.2209  0.0833
  510TIP3    H123089   1.315   2.343   7.396 -0.1499 -0.3811 -0.5255
  510TIP3    H223090   1.416   2.407   7.303  0.8934  0.4743  1.1397
  511TIP3   OH223091   2.003   6.752   7.364 -0.0746 -0.5607 -0.1303
  511TIP3    H123092   1.938   6.811   7.327  1.0185  1.3174  0.7694
  511TIP3    H223093   1.989   6.757   7.458  2.0170  0.8177  0.1857
  512TIP3   OH223094   6.754   3.840   2.721 -0.0234  0.2055 -0.1374
  512TIP3    H123095   6.744   3.931   2.691 -1.4279  0.4206  0.9014
  512TIP3    H223096   6.758   3.846   2.816  0.4757 -0.7807 -0.0878
  513TIP3   OH223097   3.243   0.321   1.776 -0.1672  0.1799 -0.1849
  513TIP3    H123098   3.211   0.247   1.828 -0.9886  0.2212 -0.6169
  513TIP3    H223099   3.268   0.387   1.841  0.2827 -0.3582  0.1962
  514TIP3   OH223100   2.996   0.220   2.175  0.0127  0.2826  0.6604
  514TIP3    H123101   2.998   0.213   2.271 -2.5605  2.2546  0.9693
  514TIP3    H223102   2.952   0.140   2.146  1.4152 -0.6514  1.0157
  515TIP3   OH223103   3.738   2.003   2.431 -0.3692  0.1988 -0.2710
  515TIP3    H123104   3.697   1.944   2.369  0.3116  0.0302 -0.5742
  515TIP3    H223105   3.751   2.084   2.382  1.8019 -0.4869 -0.9676
  516TIP3   OH223106   2.909   2.265   7.415 -0.3393  0.0465  0.2401
  516TIP3    H123107   3.000   2.276   7.387 -0.9453  1.0227 -1.4931
  516TIP3    H223108   2.857   2.280   7.336 -1.9153 -3.6872  0.3722
  517TIP3   OH223109   3.801   2.078   7.001 -0.1544  0.1496  0.5449
  517TIP3    H123110   3.819   2.157   7.052  1.2653  0.2213 -0.0360
  517TIP3    H223111   3.862   2.013   7.034 -1.1345 -0.6473  0.8346
  518TIP3   OH223112   3.425   3.419   7.735  0.1885 -0.4594 -0.5313
  518TIP3    H123113   3.371   3.432   7.658  0.3097  1.5717 -0.3102
  518TIP3    H223114   3.387   3.475   7.802  1.1586 -0.7955  0.3391
  519TIP3   OH223115   4.012   6.937   1.727  0.0204  0.3196 -0.2842
  519TIP3    H123116   4.056   7.016   1.696 -0.3391  0.6396  0.0096
  519TIP3    H223117   3.989   6.889   1.647  0.5385  0.3431 -0.4528
  520TIP3   OH223118   5.016   5.806   1.798  0.9858 -0.8475  0.2972
  520TIP3    H123119   4.945   5.854   1.841  1.7062  2.4998 -1.9197
  520TIP3    H223120   4.974   5.729   1.760 -1.1241  0.2101  0.3879
  521TIP3   OH223121   1.713   0.414   8.008  0.4581 -0.2314 -0.0541
  521TIP3    H123122   1.625   0.453   8.000  1.2422  1.3028 -1.7652
  521TIP3    H223123   1.705   0.329   7.966  0.2132  0.6874 -1.9757
  522TIP3   OH223124   0.250   2.671   7.734 -0.6885  0.1389 -0.2893
  522TIP3    H123125   0.294   2.589   7.714 -0.0694  0.4113 -0.0819
  522TIP3    H223126   0.293   2.735   7.677 -0.4042  0.5231  0.3547
  523TIP3   OH223127   5.692   1.479   2.032  0.3078  0.0930 -0.3605
  523TIP3    H123128   5.686   1.539   1.959  3.3788 -0.0541 -0.8875
  523TIP3    H223129   5.675   1.393   1.994 -1.7700  0.3151 -0.0662
  524TIP3   OH223130   6.173   3.953   1.948 -0.2011  0.4820  0.4850
  524TIP3    H123131   6.201   3.874   1.994  1.2146  0.8360  0.2915
  524TIP3    H223132   6.254   3.992   1.915 -1.0692  0.7218 -1.5535
  525TIP3   OH223133   2.806   3.762   0.945  0.1703  0.0495 -0.0538
  525TIP3    H123134   2.837   3.725   0.862  0.0419  1.2058 -0.6449
  525TIP3    H223135   2.716   3.731   0.952 -0.1708  0.7817 -0.9018
  526TIP3   OH223136   5.796   3.329   1.463  0.6259  0.5160 -0.3128
  526TIP3    H123137   5.775   3.248   1.416  2.1869 -0.6716  0.9335
  526TIP3    H223138   5.858   3.375   1.406  1.7599 -0.4492  0.1166
  527TIP3   OH223139   4.055   2.563   1.682  0.3317  0.0428  0.7719
  527TIP3    H123140   4.127   2.620   1.654  0.0147  0.6687  1.2101
  527TIP3    H223141   4.097   2.496   1.735  0.8090 -0.5820 -0.3641
  528TIP3   OH223142   0.797   2.296   1.122 -0.1594 -0.0335 -0.2867
  528TIP3    H123143   0.730   2.234   1.092  1.5506 -2.0242 -0.2283
  528TIP3    H223144   0.767   2.325   1.208 -1.0389 -0.7206 -0.3490
  529TIP3   OH223145   3.919   2.134   7.718  0.8485  0.2603  0.5567
  529TIP3    H123146   3.864   2.201   7.677 -0.0500  0.4583  2.0486
  529TIP3    H223147   4.006   2.175   7.725  0.3771  1.1710  1.2020
  530TIP3   OH223148   3.270   2.422   1.531 -0.1065  0.4830 -0.4643
  530TIP3    H123149   3.352   2.412   1.482  0.8382  1.0124  0.9455
  530TIP3    H223150   3.215   2.351   1.499  1.3379 -0.6275 -0.6191
  531TIP3   OH223151   6.918   1.481   7.009 -0.1572  0.0994 -0.3536
  531TIP3    H123152   6.929   1.560   7.063 -1.6155  0.0879 -0.0077
  531TIP3    H223153   6.999   1.477   6.957  1.4385 -0.0419  1.9909
  532TIP3   OH223154   3.840   4.774   0.319  0.0735  0.3609 -0.2513
  532TIP3    H123155   3.794   4.693   0.300  0.1595  0.5077 -1.0997
  532TIP3    H223156   3.931   4.756   0.295 -0.1283  1.1011 -1.6295
  533TIP3   OH223157   5.763   1.182   7.523  0.7531 -0.2733  0.1622
  533TIP3    H123158   5.751   1.268   7.481 -2.2111  0.5529  2.3752
  533TIP3    H223159   5.732   1.119   7.458  0.9061  0.5084 -0.6909
  534TIP3   OH223160   5.319   3.630   6.591 -0.2482  0.5194  0.0111
  534TIP3    H123161   5.325   3.722   6.567  4.2750  0.6380  0.6953
  534TIP3    H223162   5.353   3.626   6.680 -0.4651 -1.8023  0.0571
  535TIP3   OH223163   2.339   2.935   2.663  0.8168  0.3388 -0.3953
  535TIP3    H123164   2.434   2.925   2.654  0.8175 -0.2173  0.1454
  535TIP3    H223165   2.309   2.850   2.695  0.3952  1.1152  1.3872
  536TIP3   OH223166   4.191   2.836   1.067 -0.2666  0.7016  0.2706
  536TIP3    H123167   4.269   2.786   1.088 -0.3863  1.1509  1.9898
  536TIP3    H223168   4.147   2.786   0.999 -0.1176 -1.2640  1.5434
  537TIP3   OH223169   6.370   5.230   0.912 -0.1018 -0.6802  0.2478
  537TIP3    H123170   6.411   5.303   0.866  0.9373  0.5213  2.8515
  537TIP3    H223171   6.435   5.159   0.908  0.1069 -0.4813  0.1329
  538TIP3   OH223172   2.282   4.998   1.087 -0.5215  0.5111  0.0975
  538TIP3    H123173   2.248   5.075   1.041  0.2244 -0.0088 -1.4008
  538TIP3    H223174   2.368   5.025   1.119 -1.1789  0.9799  1.5389
  539TIP3   OH223175   0.899   3.222   2.484  0.3497 -0.0877 -0.0887
  539TIP3    H123176   0.965   3.291   2.484 -0.5268  0.7981 -0.8475
  539TIP3    H223177   0.944   3.145   2.517  1.8818  0.3605 -1.0104
  540TIP3   OH223178   2.784   5.263   2.804  0.0378 -0.0634  0.1238
  540TIP3    H123179   2.729   5.271   2.726 -1.0753 -0.8264  0.7967
  540TIP3    H223180   2.769   5.345   2.852 -1.6867 -0.8473  1.0029
  541TIP3   OH223181   2.364   5.292   1.367  0.1038  0.1231 -0.6991
  541TIP3    H123182   2.387   5.287   1.275  0.1422  1.2258 -0.7605
  541TIP3    H223183   2.384   5.205   1.402  0.4679 -0.1749 -1.6341
  542TIP3   OH223184   2.100   5.868   7.657 -0.1370  0.3147  0.2114
  542TIP3    H123185   2.185   5.847   7.620  0.1777  0.4056  0.8617
  542TIP3    H223186   2.057   5.922   7.591  0.4185  0.4958 -0.0078
  543TIP3   OH223187   1.516   2.773   2.522 -0.1052  0.3845 -0.2380
  543TIP3    H123188   1.594   2.793   2.470 -0.0885 -0.6964 -0.6448
  543TIP3    H223189   1.488   2.858   2.556  1.3291  0.7721  0.0402
  544TIP3   OH223190   2.755   4.809   6.935 -0.8391  0.0832 -0.0802
  544TIP3    H123191   2.756   4.729   6.986 -0.7347 -1.4045 -2.2794
  544TIP3    H223192   2.846   4.838   6.933  0.1836 -2.6591 -3.3788
  545TIP3   OH223193   6.776   3.772   1.943 -0.0102 -0.1441 -0.3566
  545TIP3    H123194   6.866   3.741   1.938  0.5124  1.0498  1.0309
  545TIP3    H223195   6.723   3.694   1.927  1.2582 -1.3429  1.0171
  546TIP3   OH223196   5.694   4.004   0.258  0.2123 -0.0885 -0.0465
  546TIP3    H123197   5.675   4.019   0.350  0.7211  1.3442 -0.1503
  546TIP3    H223198   5.677   4.089   0.216 -1.2955 -1.0361 -1.4974
  547TIP3   OH223199   2.859   5.135   1.126 -0.4623  0.2736 -0.1398
  547TIP3    H123200   2.869   5.212   1.183  0.0266 -0.0392  0.2121
  547TIP3    H223201   2.856   5.171   1.037 -1.1151  0.7579  0.0709
  548TIP3   OH223202   3.051   4.428   0.282  0.5529  0.3986 -0.1125
  548TIP3    H123203   3.034   4.506   0.334 -0.3036 -0.7512  1.4199
  548TIP3    H223204   3.059   4.358   0.346 -0.0441 -1.0086 -1.5043
  549TIP3   OH223205   0.903   0.400   6.985 -0.1663  0.0342  0.1257
  549TIP3    H123206   0.809   0.400   7.004 -0.3771 -0.2393 -0.8809
  549TIP3    H223207   0.924   0.308   6.968 -0.6547  0.5164 -3.9634
  550TIP3   OH223208   3.780   4.288   0.361 -0.0273 -0.3050  0.2533
  550TIP3    H123209   3.783   4.306   0.267  0.1987 -0.4529  0.2312
  550TIP3    H223210   3.836   4.211   0.373 -1.3297 -1.2798  0.2851
  551TIP3   OH223211   1.492   2.695   1.078 -0.3624  0.0889  0.5803
  551TIP3    H123212   1.547   2.741   1.141 -0.6618 -1.1642  1.8051
  551TIP3    H223213   1.426   2.759   1.053 -0.8812  0.3153  2.3799
  552TIP3   OH223214   5.120   4.381   7.742 -0.5581 -0.0116 -0.2288
  552TIP3    H123215   5.045   4.325   7.760  0.8153 -1.6007  0.9432
  552TIP3    H223216   5.163   4.392   7.827  2.2505 -1.8160 -1.2487
  553TIP3   OH223217   6.641   2.595   7.321 -0.4427  0.2642 -0.2575
  553TIP3    H123218   6.647   2.502   7.301  0.4236  0.8007 -2.8496
  553TIP3    H223219   6.725   2.631   7.293 -1.1972  1.9998 -0.4153
  554TIP3   OH223220   5.314   1.947   7.321  0.2108 -1.2552 -0.2177
  554TIP3    H123221   5.233   1.966   7.274 -1.4389 -2.8257  1.7723
  554TIP3    H223222   5.330   2.024   7.375  0.0145 -0.9517 -0.5940
  555TIP3   OH223223   6.483   6.343   0.318  0.3043  0.2337  0.0996
  555TIP3    H123224   6.511   6.310   0.232 -1.3912  0.7724 -0.7092
  555TIP3    H223225   6.411   6.286   0.343 -0.2623  1.0704  0.4068
  556TIP3   OH223226   2.436   2.521   7.174  0.6074 -0.1396 -0.4778
  556TIP3    H123227   2.408   2.593   7.117 -4.0278 -0.0682  1.4822
  556TIP3    H223228   2.393   2.444   7.137  2.3987 -1.2381 -0.3486
  557TIP3   OH223229   0.803   5.935   6.300  0.3610 -0.4845  0.4437
  557TIP3    H123230   0.725   5.885   6.325  1.2745 -2.2286 -0.0294
  557TIP3    H223231   0.774   6.026   6.300 -1.9838 -1.1498 -0.8418
  558TIP3   OH223232   3.898   5.082   0.740 -0.5034 -0.1928 -0.4435
  558TIP3    H123233   3.888   5.063   0.647 -0.4590  1.3577 -0.7884
  558TIP3    H223234   3.949   5.008   0.774  1.0697  0.0905 -2.0357
  559TIP3   OH223235   6.712   1.119   8.373  0.7138 -0.0734 -0.2323
  559TIP3    H123236   6.765   1.058   8.323 -1.0549 -0.7517 -1.3639
  559TIP3    H223237   6.624   1.112   8.335 -0.4064  0.3807  2.0900
  560TIP3   OH223238   3.753   3.774   7.877 -0.0226 -0.3611 -0.0855
  560TIP3    H123239   3.658   3.777   7.885  0.1614  0.2506  3.2480
  560TIP3    H223240   3.774   3.843   7.814 -1.7570 -0.5373 -0.9125
  561TIP3   OH223241   6.127   1.900   0.854  0.4192 -0.1489 -0.0615
  561TIP3    H123242   6.071   1.947   0.916  0.6525 -0.9377  0.7684
  561TIP3    H223243   6.188   1.967   0.823  0.0503  0.3516  0.2582
  562TIP3   OH223244   3.061   3.934   1.837  0.1389  0.3013 -0.0881
  562TIP3    H123245   3.142   3.981   1.817 -0.6451  3.2043  2.6474
  562TIP3    H223246   3.087   3.865   1.898  0.7099  0.3781 -0.2436
  563TIP3   OH223247   6.539   0.287   2.391  0.3076 -0.3281 -0.1981
  563TIP3    H123248   6.556   0.372   2.350 -0.3294 -0.7774 -1.4384
  563TIP3    H223249   6.586   0.291   2.475  0.9491  0.9353 -0.5940
  564TIP3   OH223250   6.229   5.025   0.746 -0.7143 -0.5128  1.0160
  564TIP3    H123251   6.260   5.107   0.785 -1.0706 -0.2962  0.8535
  564TIP3    H223252   6.291   5.008   0.675 -0.7161 -0.3118  0.9637
  565TIP3   OH223253   0.169   0.758   8.221  0.2801 -0.3217 -0.5609
  565TIP3    H123254   0.229   0.819   8.178 -0.1057 -0.2460 -0.9956
  565TIP3    H223255   0.126   0.712   8.150 -2.2371  1.5523 -0.4114
  566TIP3   OH223256   2.448   2.643   1.666  0.0126 -0.2682  0.1121
  566TIP3    H123257   2.419   2.664   1.577  0.5908 -1.9859 -0.5173
  566TIP3    H223258   2.370   2.607   1.708  0.1856 -1.1734 -0.3112
  567TIP3   OH223259   0.359   2.145   8.274 -0.4253 -0.2557  0.3776
  567TIP3    H123260   0.391   2.097   8.199  1.0897  0.6959  0.3781
  567TIP3    H223261   0.267   2.164   8.253  0.1888  0.7513 -1.6546
  568TIP3   OH223262   2.901   3.190   8.262 -0.7110  0.1418 -0.2043
  568TIP3    H123263   2.927   3.131   8.333 -1.2968  0.4179  0.2497
  568TIP3    H223264   2.846   3.137   8.205 -0.9873  0.1676  0.0385
  569TIP3   OH223265   6.323   6.673   8.522 -0.3617  0.5634 -0.2043
  569TIP3    H123266   6.397   6.725   8.489 -1.1169  1.7576 -0.1066
  569TIP3    H223267   6.347   6.651   8.611 -0.1036  0.9261 -0.1819
  570TIP3   OH223268   2.831   1.646   0.715  0.4058 -0.1166 -0.3362
  570TIP3    H123269   2.889   1.695   0.657 -0.0005 -0.2572 -0.8632
  570TIP3    H223270   2.863   1.667   0.803  0.7180  0.4788 -0.5840
  571TIP3   OH223271   4.932   0.658   1.425 -0.5485  0.4237  0.1789
  571TIP3    H123272   4.837   0.649   1.422 -0.5751 -0.2585  2.0112
  571TIP3    H223273   4.964   0.568   1.432  0.0393  0.7641  2.6853
  572TIP3   OH223274   4.216   3.129   0.967  0.3472  0.7076 -0.4155
  572TIP3    H123275   4.155   3.055   0.956 -0.5371  1.1835  1.0433
  572TIP3    H223276   4.284   3.095   1.025 -0.3083  1.1605  0.6343
  573TIP3   OH223277   5.838   5.472   6.769 -0.1498  0.2611 -0.5854
  573TIP3    H123278   5.810   5.552   6.725  0.0339  0.1674 -0.8762
  573TIP3    H223279   5.924   5.493   6.806  0.2502 -0.0322 -1.3211
  574TIP3   OH223280   1.973   1.421   1.639 -0.4805  0.2623 -0.0168
  574TIP3    H123281   2.025   1.459   1.569 -2.5514  2.1624 -0.6512
  574TIP3    H223282   2.010   1.457   1.720  1.4631 -1.3811 -0.0990
  575TIP3   OH223283   6.353   2.407   7.855  0.1041  0.2736  0.3113
  575TIP3    H123284   6.444   2.421   7.831  0.3725 -1.0010  0.5462
  575TIP3    H223285   6.303   2.441   7.780  0.7258  1.5229  0.4372
  576TIP3   OH223286   4.924   6.815   1.284 -0.2701 -0.1208  0.3764
  576TIP3    H123287   4.963   6.898   1.309  1.6426 -1.1580  1.0671
  576TIP3    H223288   4.911   6.768   1.367 -0.0553 -1.0191 -0.0769
  577TIP3   OH223289   2.030   5.097   2.665  0.1611 -0.3574  0.5783
  577TIP3    H123290   2.014   5.171   2.724 -0.5306 -0.4416  0.5019
  577TIP3    H223291   1.944   5.075   2.630  0.7680  0.8333 -1.8674
  578TIP3   OH223292   5.733   2.913   2.515 -0.1281 -0.3805  0.2901
  578TIP3    H123293   5.793   2.868   2.456  0.0930 -1.5631  1.3795
  578TIP3    H223294   5.785   2.983   2.553  0.5107 -1.2191  1.0104
  579TIP3   OH223295   5.002   2.888   8.489 -0.3959  0.2384  0.4728
  579TIP3    H123296   4.965   2.962   8.440 -0.6835  0.2429  0.6912
  579TIP3    H223297   4.956   2.890   8.573 -0.9689 -0.6433  0.2001
  580TIP3   OH223298   4.507   6.324   8.424 -0.1920  0.3070  0.6376
  580TIP3    H123299   4.499   6.240   8.378  0.2457  1.1745 -1.0866
  580TIP3    H223300   4.601   6.343   8.422 -0.3359  1.0284  0.6614
  581TIP3   OH223301   5.634   1.301   0.006  0.7617 -0.0594 -0.1429
  581TIP3    H123302   5.549   1.259   0.009  0.6271 -0.2094 -3.1960
  581TIP3    H223303   5.683   1.262   0.079 -0.7670 -2.2492 -0.2160
  582TIP3   OH223304   0.850   3.986   7.661  0.0657  0.4556 -0.0265
  582TIP3    H123305   0.880   4.065   7.616 -0.8851  0.4615 -0.6839
  582TIP3    H223306   0.816   3.930   7.591 -0.2258 -0.0953  0.5463
  583TIP3   OH223307   1.988   1.655   6.664 -0.3764 -0.1369 -0.3397
  583TIP3    H123308   1.956   1.567   6.649 -2.4419  0.5617 -0.3578
  583TIP3    H223309   2.066   1.662   6.609  0.2806 -2.1696  0.2678
  584TIP3   OH223310   3.964   0.189   0.059  0.3911 -0.1756 -0.6587
  584TIP3    H123311   3.882   0.219   0.019 -0.9449 -1.7593  0.7208
  584TIP3    H223312   3.991   0.261   0.114 -0.5693  0.0651 -0.4769
  585TIP3   OH223313   5.948   6.884   2.706 -0.1467 -0.8895  0.2009
  585TIP3    H123314   5.943   6.960   2.764  1.3117  0.1976 -1.0346
  585TIP3    H223315   5.865   6.885   2.658 -0.6359 -0.8002  1.0305
  586TIP3   OH223316   4.996   5.256   0.743 -0.4910 -0.0613  0.2448
  586TIP3    H123317   4.914   5.210   0.725 -1.5523  1.9324 -0.3443
  586TIP3    H223318   5.014   5.306   0.663  0.9348  0.0987  0.6254
  587TIP3   OH223319   3.218   4.561   7.416  0.3027  0.1468 -0.5148
  587TIP3    H123320   3.271   4.485   7.394  1.2247  0.3516  0.8597
  587TIP3    H223321   3.261   4.634   7.371  0.5130  0.1284 -0.3474
  588TIP3   OH223322   0.126   1.447   0.629 -0.1459 -0.5127  0.6326
  588TIP3    H123323   0.102   1.477   0.541 -0.5101 -0.0217  0.8974
  588TIP3    H223324   0.207   1.494   0.649  1.0975 -2.1468 -0.2487
  589TIP3   OH223325   1.019   2.869   1.113 -0.6453  0.8924  0.0479
  589TIP3    H123326   0.936   2.825   1.130 -0.3118 -0.2048 -1.0724
  589TIP3    H223327   1.016   2.892   1.021  0.7396 -0.1763 -0.2995
  590TIP3   OH223328   4.502   5.232   2.831 -0.4192  0.2255  0.3325
  590TIP3    H123329   4.432   5.171   2.812  0.2144 -0.0663 -1.1653
  590TIP3    H223330   4.580   5.177   2.839  0.1270  0.7986 -0.8507
  591TIP3   OH223331   4.241   0.665   0.905  0.6503  0.1366 -0.0043
  591TIP3    H123332   4.235   0.599   0.835 -0.9963 -0.3930  0.5821
  591TIP3    H223333   4.190   0.627   0.977  1.2407  1.2467  1.0139
  592TIP3   OH223334   1.093   1.149   7.244  0.4439 -0.2851 -0.4558
  592TIP3    H123335   1.159   1.080   7.234  0.5143 -0.4818  1.0250
  592TIP3    H223336   1.021   1.121   7.188 -0.4385 -2.7884  1.6991
  593TIP3   OH223337   4.268   0.759   0.269  0.4132 -0.0470  0.2589
  593TIP3    H123338   4.233   0.692   0.210 -2.0834 -0.1432  1.7615
  593TIP3    H223339   4.214   0.836   0.253  1.1941  0.6395  0.8289
  594TIP3   OH223340   6.249   6.731   7.872  0.2923  0.4901 -0.2636
  594TIP3    H123341   6.297   6.766   7.947  2.0318  1.8734 -1.9029
  594TIP3    H223342   6.318   6.700   7.812 -1.0218 -0.4882 -1.3216
  595TIP3   OH223343   1.636   1.188   2.016  0.2794  0.0975 -0.0307
  595TIP3    H123344   1.694   1.232   2.078 -2.0111  0.6112  1.8992
  595TIP3    H223345   1.551   1.186   2.060 -0.5109 -3.4326 -1.3944
  596TIP3   OH223346   6.032   1.825   8.235  0.2833 -0.4140  0.1314
  596TIP3    H123347   5.966   1.889   8.264  1.1288  0.0725  1.0539
  596TIP3    H223348   6.037   1.836   8.140  0.8700  1.3673  0.3344
  597TIP3   OH223349   3.935   2.750   1.495 -0.1007  0.8497  0.3670
  597TIP3    H123350   3.867   2.773   1.558 -0.8597 -1.8381  0.6590
  597TIP3    H223351   3.997   2.697   1.545  0.2859  0.2720 -0.6927
  598TIP3   OH223352   0.112   0.081   7.703  0.3931  0.3189 -0.4014
  598TIP3    H123353   0.150   0.113   7.784 -0.9328  3.7385 -0.9494
  598TIP3    H223354   0.180   0.096   7.637  0.7723 -0.6758 -0.2540
  599TIP3   OH223355   4.773   5.833   8.430  0.4811  0.0735 -0.0577
  599TIP3    H123356   4.815   5.750   8.450 -0.9792 -0.7573 -0.3242
  599TIP3    H223357   4.732   5.819   8.344  1.2880  1.4920 -0.7100
  600TIP3   OH223358   5.239   5.817   1.175  0.4284 -0.2048  0.2226
  600TIP3    H123359   5.220   5.901   1.132  1.3594 -0.8037 -1.4604
  600TIP3    H223360   5.187   5.753   1.126  1.6161 -0.9235 -0.1589
  601TIP3   OH223361   0.872   3.596   0.665 -0.3243  0.3012  0.8635
  601TIP3    H123362   0.855   3.656   0.592  0.1350  0.5851  0.9843
  601TIP3    H223363   0.958   3.559   0.645 -0.3749  0.0778  1.0602
  602TIP3   OH223364   1.771   0.663   2.119  0.1676 -0.2284 -0.3462
  602TIP3    H123365   1.732   0.604   2.183 -1.9258 -0.3443 -1.6321
  602TIP3    H223366   1.756   0.751   2.154 -0.4534 -0.3126 -0.3978
  603TIP3   OH223367   6.207   6.068   7.719  0.2601 -0.4113  0.5095
  603TIP3    H123368   6.116   6.082   7.693  0.5504 -0.4749 -0.6292
  603TIP3    H223369   6.204   6.051   7.813 -0.6689  1.9142  0.9851
  604TIP3   OH223370   3.311   0.897   8.383 -0.2951 -0.5720  0.1414
  604TIP3    H123371   3.216   0.900   8.394 -0.4458 -0.1236 -1.1588
  604TIP3    H223372   3.324   0.852   8.300  0.4855  2.0281 -1.2288
  605TIP3   OH223373   6.050   2.022   1.091 -0.3412  0.3198 -0.1774
  605TIP3    H123374   6.011   2.037   1.178 -1.5079 -0.7074 -0.4946
  605TIP3    H223375   6.127   2.080   1.089 -0.1375  0.1731  1.6302
  606TIP3   OH223376   2.108   1.729   0.977 -0.0563  0.5381 -0.1198
  606TIP3    H123377   2.102   1.660   0.911 -0.3000  1.5693 -1.2160
  606TIP3    H223378   2.188   1.709   1.025 -0.6042 -1.0149  0.2012
  607TIP3   OH223379   0.079   3.894   7.534 -0.1041 -0.2104 -0.6558
  607TIP3    H123380   0.002   3.911   7.589  2.1631  0.9487  2.4505
  607TIP3    H223381   0.101   3.803   7.552  2.6921  1.0293  3.5985
  608TIP3   OH223382   3.468   3.211   0.380 -0.3709 -0.5457 -0.0004
  608TIP3    H123383   3.555   3.172   0.365  0.8437  2.0035 -0.1644
  608TIP3    H223384   3.478   3.301   0.351 -3.1963 -0.2366 -0.2015
  609TIP3   OH223385   4.921   6.483   0.617  0.2100  0.2520 -0.1439
  609TIP3    H123386   4.934   6.566   0.661 -0.9467  0.8860 -0.9384
  609TIP3    H223387   4.889   6.506   0.530 -0.2390 -1.0217 -0.3475
  610TIP3   OH223388   6.053   4.323   6.979  0.2708 -0.4750  0.5685
  610TIP3    H123389   5.982   4.290   6.923  0.7789 -0.3470 -0.1560
  610TIP3    H223390   6.116   4.361   6.918  0.6525  0.0095  1.2606
  611TIP3   OH223391   5.313   6.871   0.625  0.4156 -0.4747  0.1902
  611TIP3    H123392   5.299   6.922   0.704  1.1913 -1.4732  1.0008
  611TIP3    H223393   5.268   6.920   0.556 -0.3515  0.3597  1.2595
  612TIP3   OH223394   2.890   3.560   7.787 -0.0981  0.2873 -0.4311
  612TIP3    H123395   2.858   3.601   7.867 -0.6453 -0.4128 -0.2833
  612TIP3    H223396   2.918   3.633   7.731 -1.6346  0.9019 -0.4331
  613TIP3   OH223397   2.237   0.718   0.698 -0.2830 -0.6267 -0.3087
  613TIP3    H123398   2.245   0.795   0.642  3.0652 -0.6611 -0.1070
  613TIP3    H223399   2.272   0.646   0.645 -1.1159 -1.5514  0.3505
  614TIP3   OH223400   6.492   2.543   8.324  0.6862  0.3808  0.0491
  614TIP3    H123401   6.569   2.596   8.306  1.1578 -0.3939 -0.3014
  614TIP3    H223402   6.449   2.533   8.239  1.5129 -1.1537 -0.2244
  615TIP3   OH223403   0.119   6.738   7.810  0.3010  0.0601 -0.0939
  615TIP3    H123404   0.045   6.798   7.806 -1.7204 -2.0947  1.9056
  615TIP3    H223405   0.117   6.691   7.726 -2.5719 -1.9855  0.9708
  616TIP3   OH223406   4.033   1.855   7.676 -0.3258 -0.1556  0.2719
  616TIP3    H123407   4.002   1.945   7.689 -1.4383 -0.4674 -0.0369
  616TIP3    H223408   4.018   1.838   7.583 -0.8645 -0.9042  0.4799
  617TIP3   OH223409   5.756   6.625   1.515 -0.4682  0.4449  0.3005
  617TIP3    H123410   5.748   6.592   1.426  0.3161 -0.4616  0.5561
  617TIP3    H223411   5.727   6.552   1.570 -0.1741  0.7150  0.8165
  618TIP3   OH223412   4.394   0.474   1.694  0.5087  0.7800  0.4886
  618TIP3    H123413   4.445   0.397   1.720  0.5202  0.4541 -0.4345
  618TIP3    H223414   4.320   0.476   1.754  1.9557  1.6880  2.3552
  619TIP3   OH223415   5.610   5.277   1.651  0.6148 -0.6906 -0.1589
  619TIP3    H123416   5.664   5.199   1.664  0.8132 -0.6684 -0.8073
  619TIP3    H223417   5.523   5.250   1.679  0.7716 -1.0128  0.0280
  620TIP3   OH223418   5.344   1.345   0.884  0.6449 -0.2852 -0.6665
  620TIP3    H123419   5.332   1.321   0.793  0.3875 -2.2508 -0.1730
  620TIP3    H223420   5.272   1.404   0.904  0.5486 -0.0596 -1.6531
  621TIP3   OH223421   2.558   0.249   0.798  0.3690  0.8280 -0.0251
  621TIP3    H123422   2.476   0.246   0.846  0.1365 -0.6507 -0.4791
  621TIP3    H223423   2.545   0.191   0.723  0.9663  2.5336 -1.5287
  622TIP3   OH223424   5.950   2.520   0.894  0.5992  0.1260  0.0746
  622TIP3    H123425   5.872   2.465   0.905 -0.1631  0.4628 -2.8651
  622TIP3    H223426   6.024   2.461   0.909 -0.2144 -1.2236 -1.0122
  623TIP3   OH223427   1.633   2.702   7.902  0.4753 -0.6496 -0.1006
  623TIP3    H123428   1.600   2.751   7.827 -1.0921 -1.9455 -0.3114
  623TIP3    H223429   1.711   2.657   7.868  0.1553 -0.7091 -0.7889
  624TIP3   OH223430   4.537   2.617   1.972 -0.2617  0.4690 -0.2313
  624TIP3    H123431   4.610   2.678   1.958 -2.6203  3.2282 -1.6854
  624TIP3    H223432   4.491   2.653   2.048 -1.9887  0.9006 -1.4270
  625TIP3   OH223433   0.487   2.996   1.752 -0.4207  0.2210 -0.3227
  625TIP3    H123434   0.398   2.982   1.721 -0.8436 -0.2182  0.9963
  625TIP3    H223435   0.479   2.995   1.848  1.1428 -0.8994 -0.1594
  626TIP3   OH223436   0.694   5.592   1.279 -0.1375 -0.3645  0.1654
  626TIP3    H123437   0.693   5.659   1.211  2.0089  0.0802  0.5092
  626TIP3    H223438   0.624   5.618   1.340 -0.8839  0.2148 -0.9025
  627TIP3   OH223439   1.221   1.713   0.755  0.5357  0.2345 -0.3518
  627TIP3    H123440   1.220   1.796   0.706 -0.3831  2.1532  2.6467
  627TIP3    H223441   1.140   1.670   0.728 -0.9089  2.1196  0.6895
  628TIP3   OH223442   2.826   2.206   2.138 -0.4039 -0.5649  0.3215
  628TIP3    H123443   2.796   2.216   2.048 -1.4085 -1.5313  0.5215
  628TIP3    H223444   2.750   2.230   2.191  0.5172  1.0984  0.9670
  629TIP3   OH223445   0.919   4.785   8.236 -0.2354  0.3492 -0.2440
  629TIP3    H123446   0.900   4.692   8.251 -0.6971  0.6998  1.7570
  629TIP3    H223447   0.844   4.817   8.185  0.1208 -0.4413 -1.2849
  630TIP3   OH223448   0.332   4.147   0.496 -0.0021  0.0961  0.3003
  630TIP3    H123449   0.305   4.055   0.493  0.9236 -0.1920  0.6294
  630TIP3    H223450   0.386   4.159   0.418  0.6997  0.0916  0.7755
  631TIP3   OH223451   2.649   1.120   1.843 -0.4073 -0.1129  0.0934
  631TIP3    H123452   2.675   1.186   1.907 -1.5003  1.1921 -0.7557
  631TIP3    H223453   2.556   1.105   1.861 -1.0580  1.1499 -1.8644
  632TIP3   OH223454   0.258   2.168   1.048  0.5811 -0.5990 -0.1746
  632TIP3    H123455   0.287   2.079   1.026  0.4547 -0.7964  0.4426
  632TIP3    H223456   0.276   2.177   1.142 -0.5114 -0.3978  0.0262
  633TIP3   OH223457   4.089   4.040   2.676 -0.2298  0.0712  0.1643
  633TIP3    H123458   4.177   4.041   2.714  0.0178 -2.6334 -0.1026
  633TIP3    H223459   4.040   4.106   2.725  1.6540  0.8751  1.0466
  634TIP3   OH223460   2.275   4.126   0.890 -0.0190  0.0736 -0.5559
  634TIP3    H123461   2.308   4.115   0.979 -1.0033  2.7125  0.2373
  634TIP3    H223462   2.210   4.057   0.879  2.0662 -2.0675 -0.3526
  635TIP3   OH223463   3.812   3.514   7.819 -0.2954 -0.7551 -0.1313
  635TIP3    H123464   3.795   3.603   7.850  1.8516 -0.3886  0.1738
  635TIP3    H223465   3.845   3.525   7.730  0.4477 -1.1954  0.0797
  636TIP3   OH223466   2.439   0.949   7.627  0.0628  0.0427 -0.2820
  636TIP3    H123467   2.439   0.879   7.691  3.3404  1.7265  1.8302
  636TIP3    H223468   2.496   0.918   7.556 -0.8431 -0.4995 -0.7905
  637TIP3   OH223469   3.178   5.527   7.433  0.2315 -0.0480 -0.2347
  637TIP3    H123470   3.085   5.537   7.455  0.2310  0.8159 -0.5899
  637TIP3    H223471   3.181   5.537   7.337  0.4963 -1.6671 -0.4252
  638TIP3   OH223472   4.015   4.381   8.075 -0.3827 -0.2148 -0.2720
  638TIP3    H123473   3.968   4.386   7.992  0.3203 -0.1962 -0.6713
  638TIP3    H223474   4.019   4.472   8.105  0.1786 -0.1057 -0.6756
  639TIP3   OH223475   5.280   6.038   1.899 -0.3029  0.1102 -0.3408
  639TIP3    H123476   5.223   6.085   1.838 -0.2333  1.5998  0.6729
  639TIP3    H223477   5.297   6.102   1.969  0.8715 -1.0219  0.4462
  640TIP3   OH223478   2.064   0.479   0.304 -0.6691  0.2234  0.5402
  640TIP3    H123479   1.993   0.497   0.366 -0.1600 -1.0788  1.5531
  640TIP3    H223480   2.021   0.437   0.230 -1.1981  1.1937  0.2795
  641TIP3   OH223481   1.461   2.693   0.693  0.1934  0.3485  0.3809
  641TIP3    H123482   1.504   2.700   0.779  0.2148 -0.3727  0.4338
  641TIP3    H223483   1.371   2.670   0.713  0.1144  0.5188  0.2191
  642TIP3   OH223484   5.060   3.782   0.616 -0.3258 -0.0826  0.0463
  642TIP3    H123485   4.985   3.830   0.651  0.5787  1.9031 -0.6180
  642TIP3    H223486   5.044   3.691   0.642 -2.3727  0.4590  0.8943
  643TIP3   OH223487   4.931   3.121   1.687 -0.4018  0.2848  0.0087
  643TIP3    H123488   5.004   3.138   1.628  0.2417 -0.9086  0.4349
  643TIP3    H223489   4.943   3.184   1.759  1.4546 -1.2314  1.1343
  644TIP3   OH223490   1.819   2.997   1.440 -0.5161 -0.0046 -0.2273
  644TIP3    H123491   1.777   3.083   1.449 -0.3485 -0.0441  1.2391
  644TIP3    H223492   1.837   2.970   1.530  1.5690 -0.5356 -0.7417
  645TIP3   OH223493   5.331   4.908   2.199 -0.1147 -0.1269  0.2439
  645TIP3    H123494   5.376   4.953   2.128  1.2208  0.3703  1.3537
  645TIP3    H223495   5.292   4.978   2.251 -1.8048 -0.5287 -0.4165
  646TIP3   OH223496   0.302   5.426   0.264 -0.1451  0.2422 -0.1418
  646TIP3    H123497   0.258   5.511   0.260  1.0605  0.8389 -1.3217
  646TIP3    H223498   0.348   5.418   0.180  1.1373 -0.8267  0.6189
  647TIP3   OH223499   4.192   1.238   8.146  0.0362 -0.5375  0.6858
  647TIP3    H123500   4.255   1.190   8.092 -0.5853 -0.9020  0.2739
  647TIP3    H223501   4.191   1.191   8.229  1.5226  0.4392  1.2977
  648TIP3   OH223502   2.557   4.167   6.875 -0.2794  0.0577  0.0260
  648TIP3    H123503   2.608   4.109   6.818 -2.2296 -0.3406 -1.4012
  648TIP3    H223504   2.612   4.245   6.883  1.1311 -0.8496 -0.3708
  649TIP3   OH223505   0.559   5.201   2.349  0.6646 -0.3018  0.0055
  649TIP3    H123506   0.505   5.146   2.293  0.2711  0.6706 -0.6114
  649TIP3    H223507   0.541   5.171   2.438 -1.2671  0.2797 -0.1463
  650TIP3   OH223508   3.859   1.156   1.497  0.2636  0.2766 -0.7925
  650TIP3    H123509   3.904   1.104   1.564  0.8741 -0.7406 -1.9538
  650TIP3    H223510   3.799   1.212   1.546  0.7121 -0.4254  0.6031
  651TIP3   OH223511   5.637   4.433   1.974 -0.1963  0.1093 -0.2438
  651TIP3    H123512   5.601   4.521   1.983  0.6323  0.6004 -1.4780
  651TIP3    H223513   5.575   4.386   1.919 -0.3213  0.1169 -0.1086
  652TIP3   OH223514   4.261   5.916   6.865 -0.0768 -0.2822 -0.1126
  652TIP3    H123515   4.289   5.899   6.956 -0.9628 -0.2140  0.1754
  652TIP3    H223516   4.296   6.003   6.846 -0.2877 -0.0986  0.3248
  653TIP3   OH223517   1.460   1.907   2.097 -0.4481 -0.2508 -0.5248
  653TIP3    H123518   1.396   1.897   2.027  0.2567 -0.4033 -1.1548
  653TIP3    H223519   1.465   1.821   2.138  0.0655 -0.4974 -1.0996
  654TIP3   OH223520   6.532   6.753   1.135 -1.1183  0.1723 -0.0393
  654TIP3    H123521   6.443   6.744   1.103 -1.4819 -0.2300  1.0330
  654TIP3    H223522   6.552   6.668   1.175  0.3348 -0.2949 -1.6705
  655TIP3   OH223523   3.391   1.962   1.583  0.8268 -0.1710 -0.0777
  655TIP3    H123524   3.298   1.979   1.601  0.5172 -0.1480 -1.5554
  655TIP3    H223525   3.414   1.892   1.644 -0.1913 -0.2275  0.2685
  656TIP3   OH223526   6.286   1.351   8.260  0.1667  0.2329 -0.5669
  656TIP3    H123527   6.295   1.442   8.288  1.2024 -0.1945  0.5350
  656TIP3    H223528   6.194   1.344   8.234 -0.2802  1.2431  0.6169
  657TIP3   OH223529   6.427   3.240   7.417  1.1446  0.4603 -0.1688
  657TIP3    H123530   6.487   3.171   7.389  0.3449 -0.5205  0.4700
  657TIP3    H223531   6.368   3.197   7.479 -0.3376  1.3445 -0.9140
  658TIP3   OH223532   2.320   5.304   8.034  0.1476  0.2872 -0.3323
  658TIP3    H123533   2.379   5.378   8.049 -0.4852  0.6637  0.4196
  658TIP3    H223534   2.361   5.231   8.081  0.0225  0.5488  0.1966
  659TIP3   OH223535   4.856   5.232   0.249 -0.4021 -0.3850  0.7889
  659TIP3    H123536   4.914   5.291   0.201 -1.1611  0.4719  0.8907
  659TIP3    H223537   4.883   5.144   0.221  0.6854  0.0012  0.5594
  660TIP3   OH223538   2.670   3.529   7.390  0.3152 -0.0269  0.3450
  660TIP3    H123539   2.715   3.450   7.421  1.2706  0.6815  0.8218
  660TIP3    H223540   2.582   3.499   7.368  0.0540 -0.8736  2.3178
  661TIP3   OH223541   0.788   2.339   2.763  0.6103  0.0939 -0.1393
  661TIP3    H123542   0.870   2.325   2.717  0.4598  2.4047 -1.2520
  661TIP3    H223543   0.755   2.422   2.728 -1.8378 -0.4047  0.8023
  662TIP3   OH223544   3.056   6.110   2.348  0.4511  0.0346  0.1583
  662TIP3    H123545   3.013   6.144   2.427 -0.1233  0.9615 -0.5431
  662TIP3    H223546   3.001   6.037   2.321 -1.0170  1.5070 -1.0062
  663TIP3   OH223547   6.745   3.843   0.548 -0.2122 -0.3406  0.0409
  663TIP3    H123548   6.792   3.913   0.594 -0.2230 -1.3030  1.5741
  663TIP3    H223549   6.811   3.774   0.536 -0.6496 -0.7930  0.1973
  664TIP3   OH223550   1.760   3.699   7.743 -0.7394  0.1089  0.2654
  664TIP3    H123551   1.730   3.634   7.806  1.7365 -2.1369 -0.6993
  664TIP3    H223552   1.779   3.648   7.664  2.2728  1.7923 -0.2213
  665TIP3   OH223553   6.600   2.118   0.270 -0.3655  0.1377 -0.0314
  665TIP3    H123554   6.660   2.125   0.196 -1.5034  0.2716 -0.9547
  665TIP3    H223555   6.642   2.168   0.340  1.7462 -1.6948  0.1284
  666TIP3   OH223556   4.922   2.665   7.431  0.2813 -0.5585 -0.1970
  666TIP3    H123557   5.008   2.626   7.445 -0.0501 -1.6582 -1.0664
  666TIP3    H223558   4.867   2.631   7.502  0.3057 -0.6828 -0.2381
  667TIP3   OH223559   0.710   1.833   8.232  0.1553 -0.1827  0.4532
  667TIP3    H123560   0.781   1.881   8.189  1.1892 -1.8166  0.2685
  667TIP3    H223561   0.709   1.866   8.321  1.7907 -0.7679  0.7201
  668TIP3   OH223562   3.769   4.666   7.229  0.6172 -0.4330  0.0997
  668TIP3    H123563   3.783   4.573   7.216 -0.1193 -0.6614  0.8048
  668TIP3    H223564   3.854   4.707   7.213  1.7594 -1.5450  2.7351
  669TIP3   OH223565   6.402   5.026   6.773 -0.2181  0.4950 -0.7912
  669TIP3    H123566   6.457   4.973   6.832 -2.9414 -0.4581  1.1022
  669TIP3    H223567   6.429   5.116   6.790  1.4660  0.0175 -0.7481
  670TIP3   OH223568   5.686   6.862   2.585 -0.2329 -0.2801 -0.2337
  670TIP3    H123569   5.642   6.886   2.503  0.3780 -1.2410 -0.8650
  670TIP3    H223570   5.649   6.777   2.608  0.7211 -0.7474 -0.3670
  671TIP3   OH223571   4.188   0.204   1.639  0.0123  0.5040  0.4442
  671TIP3    H123572   4.245   0.191   1.714  1.9900  0.9737 -0.8853
  671TIP3    H223573   4.143   0.287   1.657  0.9817  0.9595  0.8072
  672TIP3   OH223574   4.161   1.009   7.547 -0.1236  0.6947  0.2166
  672TIP3    H123575   4.104   1.041   7.616 -1.7490 -2.8200  0.7124
  672TIP3    H223576   4.217   0.945   7.590 -0.9127 -1.3086 -1.5593
  673TIP3   OH223577   3.722   5.566   0.169 -0.3753  0.0170 -0.3561
  673TIP3    H123578   3.794   5.505   0.184 -0.5308 -0.2968 -0.8635
  673TIP3    H223579   3.647   5.510   0.147 -0.7810  0.3376  0.1801
  674TIP3   OH223580   2.771   5.505   7.710 -0.1520 -0.5258  0.3937
  674TIP3    H123581   2.703   5.571   7.699 -0.8111 -1.4778 -1.8757
  674TIP3    H223582   2.726   5.431   7.750 -0.4931 -1.1137 -1.0030
  675TIP3   OH223583   0.748   5.117   1.095 -0.3028 -0.3474 -0.3128
  675TIP3    H123584   0.749   5.039   1.150 -0.7305  1.9009  3.1964
  675TIP3    H223585   0.841   5.137   1.081 -0.1557 -0.4721  0.4265
  676TIP3   OH223586   0.547   1.024   2.074  0.5114 -0.0747  0.7037
  676TIP3    H123587   0.522   1.102   2.024  2.6301 -0.4069 -0.9960
  676TIP3    H223588   0.475   0.963   2.061  0.2005  0.5089 -0.4579
  677TIP3   OH223589   3.798   1.776   7.190  0.1382 -0.1089 -0.6140
  677TIP3    H123590   3.807   1.692   7.145 -1.4046 -0.6055 -0.0433
  677TIP3    H223591   3.868   1.830   7.152  0.9270 -1.5086 -1.2618
  678TIP3   OH223592   1.364   4.406   0.886 -0.0815 -0.2967  0.0103
  678TIP3    H123593   1.338   4.335   0.944  3.0522 -2.9876 -1.5188
  678TIP3    H223594   1.409   4.469   0.943  0.3207 -1.3957  0.9517
  679TIP3   OH223595   0.804   3.310   0.828 -0.2530 -0.2719 -0.1778
  679TIP3    H123596   0.717   3.271   0.834 -0.5446  0.5742  2.2119
  679TIP3    H223597   0.803   3.359   0.745 -2.4166  0.5021  0.2419
  680TIP3   OH223598   4.622   5.811   1.764  0.1768 -0.3095 -0.0247
  680TIP3    H123599   4.684   5.846   1.828 -0.2250  1.0621 -0.3593
  680TIP3    H223600   4.586   5.888   1.720  0.8406 -1.2196 -2.3093
  681TIP3   OH223601   6.253   1.452   2.382 -0.1401  0.5803 -0.0831
  681TIP3    H123602   6.307   1.516   2.336  0.7863  1.3037  1.8943
  681TIP3    H223603   6.173   1.499   2.403 -0.1075  0.6037 -0.0086
  682TIP3   OH223604   0.467   3.272   7.833  0.1511 -0.2558 -0.0404
  682TIP3    H123605   0.452   3.235   7.920 -0.8948  1.6588  0.6620
  682TIP3    H223606   0.408   3.224   7.776  1.0649 -1.7467  0.1968
  683TIP3   OH223607   6.692   4.104   1.548 -0.2693  0.6253 -0.0231
  683TIP3    H123608   6.675   4.053   1.628 -0.5749  1.7401  0.6403
  683TIP3    H223609   6.788   4.113   1.546 -0.1960 -0.1213 -0.2485
  684TIP3   OH223610   3.251   6.570   1.916  0.0212 -0.1752 -0.7277
  684TIP3    H123611   3.330   6.611   1.950  0.5346 -1.9618  0.3981
  684TIP3    H223612   3.182   6.598   1.977 -0.7161  2.9169 -2.7644
  685TIP3   OH223613   5.984   0.916   7.397  0.4660 -0.6903 -0.2209
  685TIP3    H123614   6.029   0.865   7.329 -0.3859 -0.6388 -0.8341
  685TIP3    H223615   5.975   1.003   7.359  1.6133 -0.1511  0.6916
  686TIP3   OH223616   3.811   2.980   0.116 -0.0822 -0.5185 -0.2295
  686TIP3    H123617   3.821   3.037   0.040  0.0968 -0.8240 -0.4402
  686TIP3    H223618   3.886   2.999   0.171 -0.7483  0.4412  0.3718
  687TIP3   OH223619   0.134   1.781   7.730  0.1149 -0.1881 -0.3393
  687TIP3    H123620   0.161   1.692   7.755  0.3967  0.0547  0.2456
  687TIP3    H223621   0.039   1.776   7.725 -0.0668 -0.0404  1.7655
  688TIP3   OH223622   2.297   5.873   0.814  0.3576 -0.1066  0.6270
  688TIP3    H123623   2.239   5.898   0.886  1.5279  0.4316  1.4118
  688TIP3    H223624   2.249   5.805   0.767 -0.8173  0.1822  1.3688
  689TIP3   OH223625   4.857   1.649   7.942 -0.2933  0.2143  0.0538
  689TIP3    H123626   4.901   1.611   7.865  1.2187  0.9966  0.4853
  689TIP3    H223627   4.823   1.733   7.911  1.2336  1.0177  0.4545
  690TIP3   OH223628   3.144   4.765   1.557  0.3117  0.5197  0.0222
  690TIP3    H123629   3.236   4.789   1.547  0.3823  0.7743  1.1454
  690TIP3    H223630   3.116   4.808   1.638 -0.7088  0.1701 -0.1218
  691TIP3   OH223631   6.494   4.020   8.172 -0.6487 -0.4768 -0.1665
  691TIP3    H123632   6.411   3.976   8.191 -1.0533 -0.1083 -1.0159
  691TIP3    H223633   6.535   4.031   8.258 -1.3824 -0.8551  0.2459
  692TIP3   OH223634   0.911   0.272   8.086  0.3235  0.1454 -0.3165
  692TIP3    H123635   0.969   0.198   8.108 -0.2459  0.0039  0.8125
  692TIP3    H223636   0.874   0.298   8.170 -2.9647 -1.1960 -1.1870
  693TIP3   OH223637   2.412   3.880   8.518 -0.3038 -0.3745 -0.2633
  693TIP3    H123638   2.378   3.934   8.589  0.0417 -0.2017 -0.2274
  693TIP3    H223639   2.340   3.821   8.496 -1.7761  1.9585 -2.2230
  694TIP3   OH223640   4.584   0.500   1.080 -0.0348  0.0826 -0.5093
  694TIP3    H123641   4.609   0.472   1.168  0.3348 -0.7864 -0.8877
  694TIP3    H223642   4.658   0.476   1.024  1.1400  3.4005 -0.6213
  695TIP3   OH223643   1.237   3.785   7.474  0.3868 -0.1833  0.3573
  695TIP3    H123644   1.188   3.852   7.425  2.1076  1.5678  0.9422
  695TIP3    H223645   1.200   3.702   7.443 -0.8021  0.9622 -1.5023
  696TIP3   OH223646   6.173   3.932   7.899  0.2024 -0.4796 -0.1757
  696TIP3    H123647   6.170   3.962   7.989  0.8509 -3.1680  0.8408
  696TIP3    H223648   6.266   3.938   7.874 -0.0083  0.4863 -0.7755
  697TIP3   OH223649   3.129   2.541   0.327  0.2327 -0.2297  0.0025
  697TIP3    H123650   3.074   2.585   0.262 -0.6518 -2.6637 -0.9801
  697TIP3    H223651   3.077   2.546   0.408  0.6931  1.5314  0.2322
  698TIP3   OH223652   3.833   6.754   7.980 -0.1968 -0.6718 -0.5919
  698TIP3    H123653   3.791   6.757   7.894 -2.3916  0.4175  0.4351
  698TIP3    H223654   3.897   6.825   7.978 -1.9080  0.9605 -0.5950
  699TIP3   OH223655   0.848   1.607   0.024 -0.2966  0.0890  0.3503
  699TIP3    H123656   0.796   1.582  -0.053 -3.1076 -2.4195  2.7862
  699TIP3    H223657   0.867   1.524   0.067  2.1982  1.3198  1.8041
  700TIP3   OH223658   6.092   4.101   2.772 -0.2940 -0.3548  0.3211
  700TIP3    H123659   6.064   4.189   2.747  0.8220 -0.6954 -2.4815
  700TIP3    H223660   6.137   4.113   2.856 -0.5908  1.6608  0.2370
  701TIP3   OH223661   0.104   3.644   0.594 -0.2141  0.1898  0.3613
  701TIP3    H123662   0.148   3.726   0.617 -0.3995  0.1575  0.8396
  701TIP3    H223663   0.036   3.633   0.661 -1.8994  0.9536 -1.1276
  702TIP3   OH223664   0.232   6.844   1.544  0.4630 -0.3276 -0.4462
  702TIP3    H123665   0.268   6.756   1.543 -0.2904 -0.6575  0.5266
  702TIP3    H223666   0.284   6.891   1.478  2.1047 -0.9880  0.3181
  703TIP3   OH223667   2.937   2.306   8.146  0.5254 -0.5027  0.1822
  703TIP3    H123668   2.843   2.319   8.163  0.2593 -0.9851 -0.8014
  703TIP3    H223669   2.939   2.237   8.080  1.4117  1.4460 -1.9954
  704TIP3   OH223670   3.912   6.524   0.454  0.1391  0.5856 -0.0875
  704TIP3    H123671   3.971   6.576   0.400  0.0643 -0.9986 -1.8151
  704TIP3    H223672   3.854   6.481   0.391 -1.1041 -0.0004  1.3953
  705TIP3   OH223673   3.973   6.072   2.637 -0.3077 -0.9347  0.4305
  705TIP3    H123674   3.885   6.068   2.674 -0.1100  0.8977  1.2096
  705TIP3    H223675   4.012   6.151   2.675  1.3242 -1.1541 -0.6609
  706TIP3   OH223676   4.191   2.963   1.499 -0.3629  0.2878  0.0132
  706TIP3    H123677   4.228   2.877   1.518  1.9152  1.4288  1.1768
  706TIP3    H223678   4.150   2.990   1.581  0.6728  1.0889  0.2886
  707TIP3   OH223679   1.833   2.038   2.387 -0.6458 -0.0535 -0.2577
  707TIP3    H123680   1.766   1.970   2.382 -0.6628  0.0620 -3.1632
  707TIP3    H223681   1.915   1.992   2.371 -0.2814  0.1852  0.8453
  708TIP3   OH223682   0.503   6.829   2.041 -0.6766 -0.1447 -0.0117
  708TIP3    H123683   0.514   6.924   2.040 -0.8423 -0.1146  0.4916
  708TIP3    H223684   0.424   6.815   2.094 -0.8535 -0.5454 -0.3742
  709TIP3   OH223685   2.284   4.592   7.099  0.1655 -0.1476  0.1501
  709TIP3    H123686   2.267   4.560   7.011 -1.0845  1.1741 -0.1391
  709TIP3    H223687   2.374   4.624   7.096  0.1357 -0.1229 -0.6494
  710TIP3   OH223688   6.737   5.605   0.502 -0.6020 -0.0614 -1.0472
  710TIP3    H123689   6.646   5.577   0.494 -0.5399 -0.6144 -0.0320
  710TIP3    H223690   6.775   5.546   0.567 -0.6057  2.6253  1.6208
  711TIP3   OH223691   3.367   3.401   1.655  0.3193  0.4080  0.2384
  711TIP3    H123692   3.438   3.454   1.617 -0.9984  2.2651  0.2180
  711TIP3    H223693   3.348   3.335   1.589  1.4840  0.3871 -0.0936
  712TIP3   OH223694   0.107   2.545   8.048 -1.1504  0.2454  0.1367
  712TIP3    H123695   0.147   2.592   8.121 -0.8727 -0.9314  0.7653
  712TIP3    H223696   0.026   2.510   8.084 -1.1699 -0.0702 -0.2106
  713TIP3   OH223697   3.513   2.027   7.259 -0.4871 -0.5602 -0.0249
  713TIP3    H123698   3.464   2.003   7.338  1.8882 -0.6589  1.5037
  713TIP3    H223699   3.524   1.944   7.212  2.1870 -1.5030  2.0318
  714TIP3   OH223700   4.891   1.392   0.370 -0.3540  0.1224  0.6476
  714TIP3    H123701   4.811   1.383   0.317 -0.1907 -2.6126  0.7404
  714TIP3    H223702   4.941   1.461   0.325 -0.8400 -1.1159 -2.0234
  715TIP3   OH223703   6.188   0.643   7.452  0.5406 -0.3060  0.0900
  715TIP3    H123704   6.167   0.660   7.360  1.4088 -0.7164 -0.1936
  715TIP3    H223705   6.139   0.563   7.473  0.5527 -0.3637 -0.0996
  716TIP3   OH223706   3.425   4.412   1.811 -0.1022 -0.0718 -0.1783
  716TIP3    H123707   3.412   4.328   1.765 -2.0515  0.8847 -1.4993
  716TIP3    H223708   3.355   4.415   1.876 -1.1118  1.2338 -1.2779
  717TIP3   OH223709   4.984   5.863   0.965 -0.5574 -0.0572  0.2726
  717TIP3    H123710   4.889   5.855   0.956 -0.5429 -1.3449  0.9763
  717TIP3    H223711   5.015   5.773   0.969  0.5097  0.3330  1.7780
  718TIP3   OH223712   2.279   6.145   1.969  0.3870  0.4422  0.3130
  718TIP3    H123713   2.191   6.165   2.000  0.4819 -0.6277  1.3252
  718TIP3    H223714   2.266   6.105   1.883 -0.0778  0.6550  0.2849
  719TIP3   OH223715   5.182   3.483   6.894  0.1040  0.5260 -0.7354
  719TIP3    H123716   5.110   3.460   6.953 -0.6201  2.3259 -0.8304
  719TIP3    H223717   5.139   3.505   6.811  1.0639 -1.4050 -1.8250
  720TIP3   OH223718   5.162   5.271   8.387  0.1486  0.2689 -0.0902
  720TIP3    H123719   5.159   5.192   8.442  1.1824  0.8447  0.8415
  720TIP3    H223720   5.225   5.250   8.318  0.9884  0.5170  0.5830
  721TIP3   OH223721   6.381   1.098   0.957 -0.4690  0.2257 -0.0038
  721TIP3    H123722   6.468   1.137   0.964 -0.3292  0.1124 -0.9857
  721TIP3    H223723   6.354   1.084   1.048 -1.0277  3.6377  0.4967
  722TIP3   OH223724   4.691   1.239   0.688 -0.2520  0.1541  0.0178
  722TIP3    H123725   4.695   1.158   0.637 -1.6761  0.0852 -0.0196
  722TIP3    H223726   4.721   1.213   0.775  1.8869  0.2043 -0.6483
  723TIP3   OH223727   3.413   2.261   1.084  0.1305  0.0086 -0.1848
  723TIP3    H123728   3.495   2.279   1.038  0.0824 -0.2699 -0.3825
  723TIP3    H223729   3.428   2.179   1.129  0.0865  0.1491  0.0860
  724TIP3   OH223730   3.606   5.197   0.457  0.4194 -0.1050 -0.4854
  724TIP3    H123731   3.663   5.120   0.451 -0.0447 -0.3721 -1.6020
  724TIP3    H223732   3.667   5.271   0.461  0.8909 -0.5216  1.1694
  725TIP3   OH223733   6.443   1.972   7.538  0.6385 -0.2816  0.3535
  725TIP3    H123734   6.460   1.996   7.447 -0.4835 -1.0486 -0.0719
  725TIP3    H223735   6.382   1.899   7.533 -0.1551  0.2488  1.7385
  726TIP3   OH223736   0.605   6.903   7.493  0.1036 -0.7276  0.0283
  726TIP3    H123737   0.683   6.958   7.495  0.8239 -1.7289  0.8171
  726TIP3    H223738   0.634   6.820   7.532 -0.7661 -1.9034 -1.7274
  727TIP3   OH223739   2.073   1.508   1.214  0.3899  0.4609  0.3647
  727TIP3    H123740   1.996   1.473   1.169 -1.0278  1.3327  1.9764
  727TIP3    H223741   2.138   1.518   1.145 -0.6483 -1.0625 -0.9251
  728TIP3   OH223742   3.525   6.328   7.715  0.6985  0.2916  0.0379
  728TIP3    H123743   3.605   6.303   7.668  0.5234 -0.4593  0.1335
  728TIP3    H223744   3.557   6.378   7.790  1.2020 -1.2844  0.9182
  729TIP3   OH223745   1.531   5.029   8.135  0.0387  0.2071  0.5490
  729TIP3    H123746   1.449   5.057   8.093  0.0419  1.6976  1.4640
  729TIP3    H223747   1.599   5.074   8.085  0.5874 -2.7861 -1.6928
  730TIP3   OH223748   0.490   0.964   0.937 -0.6072 -0.0039 -0.3546
  730TIP3    H123749   0.585   0.975   0.929 -0.4723 -1.9385 -2.2822
  730TIP3    H223750   0.455   0.991   0.852 -1.4473 -1.8963 -0.6734
  731TIP3   OH223751   0.607   5.666   0.369 -0.7934 -0.0792 -0.4002
  731TIP3    H123752   0.537   5.637   0.427  1.0667 -1.9163  1.0811
  731TIP3    H223753   0.655   5.731   0.419 -0.0433 -0.5917 -0.4367
  732TIP3   OH223754   4.256   0.297   6.724  0.5573  0.6194  0.4781
  732TIP3    H123755   4.236   0.225   6.783 -0.3582  0.3770 -0.1114
  732TIP3    H223756   4.211   0.373   6.761 -2.0909 -0.0465 -1.1529
  733TIP3   OH223757   4.866   5.203   1.646 -0.0045  0.0121 -0.3605
  733TIP3    H123758   4.930   5.254   1.696 -1.9342  1.1285  1.1128
  733TIP3    H223759   4.832   5.139   1.709 -1.1007  0.1523 -0.7962
  734TIP3   OH223760   3.719   1.717   7.487  0.1156 -0.2282 -0.1743
  734TIP3    H123761   3.754   1.669   7.413  0.5390  0.6764 -0.5777
  734TIP3    H223762   3.773   1.796   7.493 -1.4898  0.9500 -0.4799
  735TIP3   OH223763   3.817   0.611   7.113  0.0155 -0.0420  0.3134
  735TIP3    H123764   3.736   0.584   7.155  0.4886 -0.9949  0.6403
  735TIP3    H223765   3.789   0.657   7.033 -0.8301 -1.4739 -0.2516
  736TIP3   OH223766   6.916   6.351   0.665 -0.1968  0.2104  0.5860
  736TIP3    H123767   6.822   6.369   0.664  0.2007  2.8107 -0.7760
  736TIP3    H223768   6.952   6.413   0.729  0.4572 -2.0294  2.4992
  737TIP3   OH223769   1.760   0.213   2.158  0.6934  0.1871 -0.4456
  737TIP3    H123770   1.714   0.263   2.090  1.5500  0.1540 -1.0654
  737TIP3    H223771   1.699   0.143   2.182  0.3473  0.2508 -1.1261
  738TIP3   OH223772   5.651   5.387   8.037  0.0691 -0.4332 -0.2308
  738TIP3    H123773   5.624   5.374   7.946 -1.3417 -1.0223  0.2416
  738TIP3    H223774   5.646   5.299   8.075  1.2075 -0.2892  0.2850
  739TIP3   OH223775   4.792   6.302   7.444 -0.7578  0.6368  0.1564
  739TIP3    H123776   4.846   6.258   7.509 -0.1054  1.7599  0.4202
  739TIP3    H223777   4.831   6.277   7.360 -0.5459  0.5135  0.2908
  740TIP3   OH223778   2.271   2.763   7.863 -0.1023 -0.4227 -0.1419
  740TIP3    H123779   2.334   2.825   7.826  0.2430 -0.8530 -0.2807
  740TIP3    H223780   2.251   2.799   7.949 -1.5662  1.0535 -1.0442
  741TIP3   OH223781   2.488   3.463   0.666  0.0615  0.7472 -0.3442
  741TIP3    H123782   2.443   3.474   0.582 -1.6968 -0.0690  0.4400
  741TIP3    H223783   2.456   3.536   0.720 -2.1801 -1.0726  0.9412
  742TIP3   OH223784   4.787   3.000   1.162  0.4467 -0.1328 -0.1241
  742TIP3    H123785   4.814   3.023   1.251 -0.3770 -1.4760  0.4917
  742TIP3    H223786   4.764   3.084   1.122  1.2512  0.5377  0.7645
  743TIP3   OH223787   6.254   1.865   1.397 -0.0923  0.3181 -0.1857
  743TIP3    H123788   6.190   1.921   1.441 -0.1907 -0.0032  0.0874
  743TIP3    H223789   6.334   1.917   1.395 -0.5547  1.0080 -1.1905
  744TIP3   OH223790   3.418   6.617   8.095 -0.4612  0.1195  0.0865
  744TIP3    H123791   3.389   6.696   8.051  0.8584 -0.1773 -1.3922
  744TIP3    H223792   3.480   6.647   8.162 -0.3490  0.3803 -0.1337
  745TIP3   OH223793   4.519   1.483   7.324  0.2590  0.0042  0.0608
  745TIP3    H123794   4.515   1.459   7.416 -0.9761 -0.0072  0.0250
  745TIP3    H223795   4.428   1.499   7.299  0.5206 -0.3801 -1.2619
  746TIP3   OH223796   3.168   0.779   0.501  0.2220 -0.1766 -0.3271
  746TIP3    H123797   3.146   0.691   0.534  0.8081  0.0680  0.7485
  746TIP3    H223798   3.104   0.837   0.542  1.1687  0.1776  0.6917
  747TIP3   OH223799   3.016   1.623   1.969 -0.6652  0.1927 -0.5337
  747TIP3    H123800   2.932   1.643   2.009 -0.4585  0.3404 -0.1641
  747TIP3    H223801   3.075   1.612   2.044 -0.0470  1.4328 -0.8105
  748TIP3   OH223802   4.126   3.895   0.941  0.2615 -0.1010 -0.0477
  748TIP3    H123803   4.171   3.811   0.942 -0.0805 -0.2882  0.2552
  748TIP3    H223804   4.196   3.960   0.943  0.5219 -0.3882  1.2599
  749TIP3   OH223805   6.072   3.933   0.883  0.0687 -0.0635 -0.0503
  749TIP3    H123806   6.163   3.906   0.872  0.3532  0.8878 -0.0849
  749TIP3    H223807   6.030   3.857   0.923  0.9393 -0.4118  0.2329
  750TIP3   OH223808   3.428   0.417   1.015  0.2732  0.0065  1.0634
  750TIP3    H123809   3.346   0.444   0.974  0.6545  0.3362  0.5050
  750TIP3    H223810   3.488   0.490   0.999  2.1735 -2.0723 -2.9045
  751TIP3   OH223811   6.194   6.042   0.594 -0.4792 -0.0466 -0.2501
  751TIP3    H123812   6.146   5.971   0.551  0.2048  0.5933 -2.1724
  751TIP3    H223813   6.252   5.998   0.655 -0.0575 -1.1613 -1.4258
  752TIP3   OH223814   1.995   3.700   1.195 -0.2160 -0.0402 -0.5416
  752TIP3    H123815   1.925   3.668   1.253 -0.3782  1.6149  0.2397
  752TIP3    H223816   1.961   3.783   1.161  0.7412  0.0150 -1.3833
  753TIP3   OH223817   2.083   0.373   2.399 -0.2732  0.3946 -0.3434
  753TIP3    H123818   2.003   0.339   2.438  0.5446 -1.1089  0.0719
  753TIP3    H223819   2.053   0.427   2.326 -1.6468 -0.5686 -0.5213
  754TIP3   OH223820   4.104   2.468   1.387  0.5259  0.1873  0.3244
  754TIP3    H123821   4.039   2.533   1.360  0.7018  0.4202  0.4541
  754TIP3    H223822   4.109   2.478   1.482  0.7137  0.1371  0.3199
  755TIP3   OH223823   0.122   4.476   1.289  0.4268  0.5432  0.2465
  755TIP3    H123824   0.188   4.466   1.358  0.2132  1.0877  0.5278
  755TIP3    H223825   0.075   4.556   1.311 -1.1367 -0.4595  0.7196
  756TIP3   OH223826   4.075   2.365   2.132 -0.4938 -0.6400 -0.4102
  756TIP3    H123827   3.996   2.418   2.136 -0.6962 -1.0323  1.4273
  756TIP3    H223828   4.044   2.274   2.129 -0.1586 -0.8614  1.5275
  757TIP3   OH223829   2.806   1.687   7.694 -0.0453 -0.8144 -0.2919
  757TIP3    H123830   2.832   1.768   7.649  0.5051 -2.0593 -2.3511
  757TIP3    H223831   2.730   1.712   7.746  0.0159  0.9979 -1.0001
  758TIP3   OH223832   5.354   0.835   7.630 -0.0381  0.6751  0.5688
  758TIP3    H123833   5.279   0.778   7.646  0.4689 -0.1279  0.1377
  758TIP3    H223834   5.385   0.811   7.542  0.3136  1.4677  0.4637
  759TIP3   OH223835   5.338   2.172   7.695 -0.2942 -0.0639 -0.3340
  759TIP3    H123836   5.272   2.123   7.744 -2.5945  1.3073 -1.8799
  759TIP3    H223837   5.413   2.178   7.755 -0.7129 -3.4793  0.6925
  760TIP3   OH223838   3.607   0.617   6.773 -0.5377  0.6230 -0.3464
  760TIP3    H123839   3.561   0.701   6.778  0.1270  0.9547  0.4874
  760TIP3    H223840   3.695   0.636   6.805 -0.0176 -0.1470 -1.2493
  761TIP3   OH223841   2.569   1.665   0.769 -0.3770  0.5692 -0.2500
  761TIP3    H123842   2.509   1.590   0.774 -0.4559  0.5823 -0.8273
  761TIP3    H223843   2.655   1.625   0.755 -0.3707  0.5735 -0.2229
  762TIP3   OH223844   2.905   5.221   7.609 -0.0795 -1.2646 -0.0637
  762TIP3    H123845   2.960   5.299   7.594 -3.3666  1.0450 -1.3787
  762TIP3    H223846   2.939   5.156   7.547  0.7874  0.2790 -1.3062
  763TIP3   OH223847   3.820   4.930   8.103 -0.1971  0.3866 -0.4648
  763TIP3    H123848   3.812   5.020   8.073  0.2507  1.0834  1.3458
  763TIP3    H223849   3.861   4.937   8.190 -0.8184 -1.4928  0.0399
  764TIP3   OH223850   2.209   0.312   6.870  0.1346 -0.6911 -0.2985
  764TIP3    H123851   2.131   0.358   6.901 -0.0671  0.0634 -1.8586
  764TIP3    H223852   2.277   0.379   6.866  0.0250 -0.6502 -1.9216
  765TIP3   OH223853   3.788   4.937   8.493  0.1949  0.0212  0.5872
  765TIP3    H123854   3.786   4.854   8.445  1.0815 -0.8087  1.9209
  765TIP3    H223855   3.837   4.996   8.436 -1.6212  0.0903 -1.0080
  766TIP3   OH223856   2.750   1.280   1.074 -0.1748  0.3450 -0.2001
  766TIP3    H123857   2.744   1.277   0.978 -1.4976 -0.4375 -0.1133
  766TIP3    H223858   2.700   1.357   1.099 -0.2387  0.2755 -0.1132
  767TIP3   OH223859   2.914   1.182   6.743  0.6225  0.0244  0.6319
  767TIP3    H123860   2.917   1.103   6.690 -1.2302 -0.4951  1.2294
  767TIP3    H223861   2.988   1.234   6.712  1.4085 -1.5799 -0.3165
  768TIP3   OH223862   3.542   3.758   8.246  0.6491  0.1197 -0.1639
  768TIP3    H123863   3.611   3.757   8.312  2.5240 -0.3874 -2.0275
  768TIP3    H223864   3.492   3.678   8.262  2.0769 -0.8348 -0.3202
  769TIP3   OH223865   0.311   6.907   0.898 -0.2263 -0.2768  0.2601
  769TIP3    H123866   0.306   6.864   0.984 -0.2347 -0.8629 -0.0267
  769TIP3    H223867   0.220   6.921   0.873 -0.2723 -1.2785 -0.2148
  770TIP3   OH223868   1.327   3.381   0.262 -0.2097  0.5570 -0.4757
  770TIP3    H123869   1.354   3.333   0.184  1.4492  0.9765 -0.1970
  770TIP3    H223870   1.290   3.462   0.228  0.6951  0.8304 -0.8546
  771TIP3   OH223871   4.445   0.742   1.798  0.3170  0.1627 -0.0303
  771TIP3    H123872   4.357   0.779   1.800  0.6706  1.0273 -0.1594
  771TIP3    H223873   4.432   0.651   1.771 -0.6558 -0.1088  1.2774
  772TIP3   OH223874   1.396   4.385   0.351 -0.1741  0.1431 -0.0871
  772TIP3    H123875   1.369   4.358   0.438  0.9210  0.4428  0.3643
  772TIP3    H223876   1.355   4.471   0.339  1.3556  1.0732  1.0142
  773TIP3   OH223877   3.012   0.035   1.725 -0.5363 -0.2251 -0.2484
  773TIP3    H123878   2.960   0.116   1.725 -0.0262  0.1232  0.7474
  773TIP3    H223879   2.951  -0.033   1.699 -1.3138  0.2901  0.1810
  774TIP3   OH223880   0.521   2.032   1.384 -0.3829 -0.3677 -0.0610
  774TIP3    H123881   0.614   2.050   1.372 -0.5527  0.0304 -0.8539
  774TIP3    H223882   0.476   2.110   1.350 -1.0667 -1.4177 -1.7317
  775TIP3   OH223883   2.771   5.478   1.526 -0.5283  0.2750 -0.1192
  775TIP3    H123884   2.813   5.548   1.576 -0.1177 -0.8751  1.2302
  775TIP3    H223885   2.680   5.479   1.556  0.0845 -1.5371  2.1168
  776TIP3   OH223886   0.738   3.566   7.637 -0.1778  0.2030 -0.7492
  776TIP3    H123887   0.657   3.596   7.677 -0.2769  0.9809 -1.5223
  776TIP3    H223888   0.710   3.512   7.564  0.0050 -1.1744  0.1525
  777TIP3   OH223889   3.190   6.605   0.933 -0.3401 -0.1128 -0.1231
  777TIP3    H123890   3.250   6.578   1.002 -3.6806 -0.3996  2.9688
  777TIP3    H223891   3.159   6.691   0.960  0.6913  1.3611 -3.1794
  778TIP3   OH223892   5.717   1.083   1.269 -0.8097 -0.0425 -0.2577
  778TIP3    H123893   5.733   1.004   1.216 -0.2669  0.3588 -0.7043
  778TIP3    H223894   5.798   1.095   1.318 -1.9757 -1.5287  2.2021
  779TIP3   OH223895   1.105   5.676   8.062  0.1348 -0.4876 -0.5865
  779TIP3    H123896   1.086   5.601   8.006  0.1609 -0.6113 -0.4331
  779TIP3    H223897   1.085   5.645   8.151  0.1963 -0.3311 -0.5166
  780TIP3   OH223898   5.192   2.118   0.021  0.3029 -0.0424 -0.1374
  780TIP3    H123899   5.261   2.176  -0.013  2.9220 -1.2164  2.6825
  780TIP3    H223900   5.176   2.150   0.110 -1.6093 -0.8928 -0.1299
  781TIP3   OH223901   2.641   6.396   0.435 -0.0608  0.3897 -0.1031
  781TIP3    H123902   2.600   6.311   0.421 -0.4292  0.4465  0.5824
  781TIP3    H223903   2.699   6.408   0.360 -1.1623  0.2239 -1.0021
  782TIP3   OH223904   3.771   2.227   2.051  0.1717  0.5488 -0.3955
  782TIP3    H123905   3.858   2.189   2.061 -0.0331  0.3605  0.7498
  782TIP3    H223906   3.787   2.321   2.045  0.2755  0.9010  3.3882
  783TIP3   OH223907   6.381   0.654   1.023  0.0122  0.5616 -0.2690
  783TIP3    H123908   6.464   0.606   1.034 -0.2938 -0.5346 -2.2798
  783TIP3    H223909   6.351   0.669   1.113  1.0697 -1.3895  0.4855
  784TIP3   OH223910   3.286   5.884   0.711  0.7462  1.0138  0.7266
  784TIP3    H123911   3.346   5.866   0.784  2.0514  0.2578 -0.4776
  784TIP3    H223912   3.328   5.955   0.663  0.1139  1.2158  0.4671
  785TIP3   OH223913   3.620   5.578   7.502 -0.7962  0.0501  0.0018
  785TIP3    H123914   3.582   5.494   7.475 -0.2060  0.1382 -1.1922
  785TIP3    H223915   3.633   5.626   7.420 -0.5161  1.0523  0.6091
  786TIP3   OH223916   6.021   6.112   7.403 -0.1219  0.3453 -0.1766
  786TIP3    H123917   5.991   6.123   7.493 -0.7827  1.4859 -0.5132
  786TIP3    H223918   6.038   6.019   7.394 -0.3604  0.1717  1.0260
  787TIP3   OH223919   3.844   2.319   1.235 -0.1550  0.3349  0.4604
  787TIP3    H123920   3.841   2.227   1.261 -0.0333  0.3797  0.6334
  787TIP3    H223921   3.789   2.364   1.299 -0.3526  0.3609  0.2762
  788TIP3   OH223922   6.742   6.026   8.342  0.3851  0.1730  0.6614
  788TIP3    H123923   6.824   6.072   8.324  0.6770 -0.4779  0.2983
  788TIP3    H223924   6.759   5.975   8.421  0.5069 -0.3670  0.2953
  789TIP3   OH223925   4.252   0.142   6.959  0.0504 -0.2751  0.4740
  789TIP3    H123926   4.259   0.068   7.019  0.4490  0.2489  1.0925
  789TIP3    H223927   4.245   0.219   7.016 -1.4925  0.0913 -0.1427
  790TIP3   OH223928   5.177   6.708   1.832  0.6171 -0.0016 -0.4758
  790TIP3    H123929   5.154   6.615   1.830 -0.1807  0.2000 -0.8484
  790TIP3    H223930   5.228   6.719   1.912 -0.9623 -0.3702  0.6169
  791TIP3   OH223931   1.611   0.813   0.189  0.7901  0.1426 -0.0252
  791TIP3    H123932   1.671   0.739   0.174  1.3064  0.0908  1.8965
  791TIP3    H223933   1.619   0.830   0.283 -0.3709  1.7641 -0.1847
  792TIP3   OH223934   1.012   2.430   0.257 -0.1942  0.0984 -0.3051
  792TIP3    H123935   0.951   2.378   0.205  0.1956  0.6382 -1.3524
  792TIP3    H223936   0.988   2.413   0.348 -2.1278  0.5616 -0.6831
  793TIP3   OH223937   5.839   2.931   0.936  0.0357  0.3722  0.2492
  793TIP3    H123938   5.883   2.977   0.865  0.6245 -0.0268  0.3448
  793TIP3    H223939   5.910   2.896   0.989 -0.3759 -0.8960  0.0121
  794TIP3   OH223940   3.071   3.109   2.400  0.3818 -0.0760  1.1016
  794TIP3    H123941   3.087   3.055   2.322 -1.8788 -0.9237  1.1374
  794TIP3    H223942   3.157   3.138   2.427  1.8435 -3.9191  1.2432
  795TIP3   OH223943   0.122   2.815   7.407 -0.4620 -0.4859 -0.1079
  795TIP3    H123944   0.181   2.754   7.362 -0.7610 -1.5499  0.9100
  795TIP3    H223945   0.177   2.892   7.425  0.0322 -0.5972 -1.0351
  796TIP3   OH223946   0.173   6.613   7.547 -1.1556 -0.2543  0.4559
  796TIP3    H123947   0.266   6.623   7.568 -1.3866 -0.8446  1.8685
  796TIP3    H223948   0.167   6.527   7.506 -1.2431 -0.8198  1.6017
  797TIP3   OH223949   4.602   6.341   1.767 -0.1344  0.6053  0.9728
  797TIP3    H123950   4.672   6.276   1.772 -0.6908 -0.3278 -1.8243
  797TIP3    H223951   4.569   6.347   1.857  1.1660 -1.5633  1.6683
  798TIP3   OH223952   6.037   6.183   8.179 -0.4396 -0.2203 -0.1032
  798TIP3    H123953   5.986   6.211   8.255  2.3293  1.4415  1.3211
  798TIP3    H223954   6.083   6.104   8.208 -0.0798 -0.1067 -0.3497
  799TIP3   OH223955   3.473   4.875   0.405  0.2742  1.5249 -0.5122
  799TIP3    H123956   3.504   4.964   0.419  1.2004  0.9981  0.9364
  799TIP3    H223957   3.394   4.868   0.459  0.7922  1.1687  0.2222
  800TIP3   OH223958   6.921   3.336   0.700  0.2509  0.8455  0.5715
  800TIP3    H123959   6.990   3.319   0.636 -1.6922  0.9690 -1.6669
  800TIP3    H223960   6.898   3.428   0.686 -1.0644  0.5225  0.5471
  801TIP3   OH223961   5.899   1.508   7.000  0.0931 -0.1007  0.4105
  801TIP3    H123962   5.832   1.457   6.955  1.0883  0.2922 -1.6116
  801TIP3    H223963   5.968   1.445   7.019  0.9154  0.2483 -1.2512
  802TIP3   OH223964   1.655   1.066   1.054  0.0258  0.2272  0.1514
  802TIP3    H123965   1.707   1.093   0.978  0.6655 -0.3285  0.3757
  802TIP3    H223966   1.714   1.010   1.104 -1.0809 -1.1811 -0.0566
  803TIP3   OH223967   2.469   2.578   7.612 -0.0971  0.2622  0.3326
  803TIP3    H123968   2.529   2.602   7.683 -1.7389 -1.5054  2.4449
  803TIP3    H223969   2.500   2.629   7.537  1.0418  3.1642  2.5583
  804TIP3   OH223970   5.511   5.866   7.654 -0.6901 -0.4684  0.3765
  804TIP3    H123971   5.565   5.834   7.726  0.7955 -0.2344 -0.5873
  804TIP3    H223972   5.509   5.793   7.592  0.2652  0.2281 -0.5136
  805TIP3   OH223973   2.531   6.740   1.477  0.0937 -0.3363  0.0557
  805TIP3    H123974   2.490   6.773   1.556 -2.1239 -2.0785 -0.2720
  805TIP3    H223975   2.502   6.799   1.408  1.7274  0.9600  0.3980
  806TIP3   OH223976   1.387   6.905   7.121 -0.4594  0.0864  0.1541
  806TIP3    H123977   1.432   6.861   7.049  1.8130  0.0548  1.4911
  806TIP3    H223978   1.321   6.842   7.151 -1.5822  0.1701 -1.9247
  807TIP3   OH223979   4.410   4.286   0.995 -0.3956  0.1049 -0.2970
  807TIP3    H123980   4.398   4.346   1.068 -1.0965  0.8155 -0.9782
  807TIP3    H223981   4.466   4.333   0.934 -0.8930  0.0533 -0.8050
  808TIP3   OH223982   1.930   4.698   0.254  0.8758 -0.5076  0.0081
  808TIP3    H123983   1.871   4.631   0.219 -1.2308  1.2698 -0.0024
  808TIP3    H223984   2.014   4.681   0.211  0.1461 -2.5089 -0.7251
  809TIP3   OH223985   4.060   4.586   2.480  0.0812  0.0153 -0.1602
  809TIP3    H123986   3.967   4.570   2.467  0.1452 -0.0096 -0.6109
  809TIP3    H223987   4.082   4.540   2.562 -0.0614 -0.9265 -0.6396
  810TIP3   OH223988   4.284   1.252   7.531  0.4960  0.4375  0.0378
  810TIP3    H123989   4.231   1.172   7.530  0.2735  0.5860 -0.9007
  810TIP3    H223990   4.306   1.268   7.439  0.7431  1.3165  0.2353
  811TIP3   OH223991   1.291   6.090   8.327 -0.6100  0.8067 -0.0673
  811TIP3    H123992   1.328   6.073   8.240 -0.9774 -0.3784 -0.0092
  811TIP3    H223993   1.221   6.025   8.336 -0.4489  0.7954  1.1981
  812TIP3   OH223994   4.940   2.962   6.698  0.0256  0.1390  0.0139
  812TIP3    H123995   5.005   3.008   6.751  1.7649 -0.1993 -1.6872
  812TIP3    H223996   4.932   3.014   6.619  0.1854 -1.1550 -0.8921
  813TIP3   OH223997   4.654   1.405   8.344 -0.5770 -0.2183  0.0014
  813TIP3    H123998   4.588   1.426   8.278 -0.9095 -1.1076  0.0342
  813TIP3    H223999   4.680   1.490   8.379 -1.7719  0.1585  0.0466
  814TIP3   OH224000   2.502   5.601   1.240  0.8548  0.2710 -0.3259
  814TIP3    H124001   2.585   5.555   1.249 -0.2102 -1.4485  1.4087
  814TIP3    H224002   2.495   5.620   1.147  2.4385 -1.0131 -0.7512
  815TIP3   OH224003   5.917   5.236   0.714  0.2911 -0.0765  0.0199
  815TIP3    H124004   6.012   5.242   0.720  0.1705  1.5853  0.6604
  815TIP3    H224005   5.900   5.232   0.620  0.9750 -0.1140 -0.1101
  816TIP3   OH224006   2.776   4.870   0.397  0.1569  0.2915  0.4180
  816TIP3    H124007   2.748   4.804   0.460 -2.5477 -0.1626 -1.0815
  816TIP3    H224008   2.862   4.841   0.367 -0.2024 -1.5853  1.0975
  817TIP3   OH224009   0.022   5.996   1.526 -0.4319 -0.1882 -0.6066
  817TIP3    H124010   0.103   5.947   1.517 -1.2546 -1.3972 -1.6120
  817TIP3    H224011   0.046   6.071   1.581  1.2220 -0.8135 -0.4219
  818TIP3   OH224012   1.796   3.208   1.914  0.2606  0.2338  0.1597
  818TIP3    H124013   1.762   3.179   1.829  2.6878 -0.2094 -0.7400
  818TIP3    H224014   1.850   3.285   1.893 -0.4313  1.1536  1.5712
  819TIP3   OH224015   6.216   4.310   0.952  0.5922  0.5464  0.1440
  819TIP3    H124016   6.270   4.245   0.997 -1.5898 -0.4107  1.5540
  819TIP3    H224017   6.144   4.259   0.915  0.1542  1.8723 -0.8815
  820TIP3   OH224018   6.608   0.266   1.948 -0.2052  0.6186  0.1976
  820TIP3    H124019   6.532   0.313   1.916 -0.1281 -0.1630 -1.2174
  820TIP3    H224020   6.572   0.200   2.007 -0.7567 -0.3150 -1.1266
  821TIP3   OH224021   5.035   3.495   2.086 -0.0359 -0.4661 -0.1650
  821TIP3    H124022   4.952   3.541   2.076  0.0446 -0.3109 -0.1172
  821TIP3    H224023   5.099   3.550   2.041  0.0753 -0.4897 -0.0359
  822TIP3   OH224024   4.746   1.873   8.376  0.0649 -0.2347  0.0575
  822TIP3    H124025   4.651   1.887   8.373 -0.1561 -1.5006  0.7835
  822TIP3    H224026   4.781   1.941   8.318 -1.3209 -0.1274 -0.7101
  823TIP3   OH224027   4.790   5.678   2.752 -0.2283 -0.4485 -0.2859
  823TIP3    H124028   4.721   5.618   2.780  0.9111 -1.1639  1.1710
  823TIP3    H224029   4.839   5.696   2.832  0.4970  1.0737 -1.0367
  824TIP3   OH224030   6.073   4.372   2.768 -0.5645 -0.5042 -0.1522
  824TIP3    H124031   6.047   4.452   2.814  0.6772  0.1307 -0.5144
  824TIP3    H224032   6.162   4.390   2.736 -0.0409 -2.2247  0.2150
  825TIP3   OH224033   5.932   3.917   2.667  0.2341  0.2120 -0.2089
  825TIP3    H124034   5.948   3.858   2.741 -1.8910  2.3854  2.1944
  825TIP3    H224035   5.976   3.998   2.691 -1.9641  1.5337 -0.3937
  826TIP3   OH224036   4.167   5.473   8.216  0.6884 -0.6646 -0.4381
  826TIP3    H124037   4.145   5.561   8.249 -0.4833 -0.9292 -0.4735
  826TIP3    H224038   4.257   5.458   8.246  0.3845 -0.0508  0.8543
  827TIP3   OH224039   3.298   1.839   1.918  0.0948 -0.5587  0.5061
  827TIP3    H124040   3.377   1.829   1.865  1.4270  0.4147  2.1969
  827TIP3    H224041   3.227   1.808   1.862  1.5869 -0.8580 -1.3079
  828TIP3   OH224042   2.176   6.127   6.702 -0.0455 -0.3911 -0.0518
  828TIP3    H124043   2.269   6.120   6.723 -0.4237  1.0403  2.4963
  828TIP3    H224044   2.133   6.139   6.787 -2.3181  1.2235 -1.3219
  829TIP3   OH224045   5.962   3.290   8.445  0.1103  0.1778 -0.0349
  829TIP3    H124046   6.030   3.234   8.482  0.8910 -0.0349 -1.6835
  829TIP3    H224047   5.923   3.334   8.521  0.6130 -1.3187  1.1412
  830TIP3   OH224048   2.344   4.138   7.835  0.1739 -0.1794 -0.0598
  830TIP3    H124049   2.303   4.190   7.766  1.0997 -1.6572 -1.8008
  830TIP3    H224050   2.270   4.100   7.883 -0.4847  0.9892 -0.1092
  831TIP3   OH224051   6.867   0.253   0.253  0.5336 -0.0968  0.5692
  831TIP3    H124052   6.917   0.187   0.204  2.4429  1.5844  0.0692
  831TIP3    H224053   6.874   0.332   0.199  0.3455  1.1219  2.2541
  832TIP3   OH224054   4.730   2.148   1.703  0.1961  0.5808 -0.0899
  832TIP3    H124055   4.669   2.146   1.777  0.6078 -0.3213  0.2475
  832TIP3    H224056   4.801   2.205   1.732 -0.0258  0.8706 -0.1096
  833TIP3   OH224057   5.275   5.889   0.331 -0.4672 -0.0660 -0.2821
  833TIP3    H124058   5.233   5.905   0.247 -0.3884 -1.0186 -0.5182
  833TIP3    H224059   5.247   5.800   0.355  1.2693 -0.6716 -0.3773
  834TIP3   OH224060   4.757   3.112   7.892 -0.1678  0.4718 -0.0506
  834TIP3    H124061   4.812   3.186   7.918 -0.7533  0.9196 -0.0668
  834TIP3    H224062   4.674   3.152   7.865 -0.8184 -0.2471  0.8278
  835TIP3   OH224063   4.060   1.211   2.595 -0.7122  0.2806  0.6693
  835TIP3    H124064   4.133   1.250   2.548 -0.8460 -2.1025 -1.7964
  835TIP3    H224065   4.002   1.284   2.615  0.1232  1.6546 -1.5700
  836TIP3   OH224066   2.251   0.602   0.126  0.8135 -0.4927  0.1666
  836TIP3    H124067   2.282   0.693   0.130  1.2128 -0.6263  0.1265
  836TIP3    H224068   2.179   0.599   0.189 -0.5177  0.3501 -1.2140
  837TIP3   OH224069   1.120   5.881   0.828 -0.9922  0.0736 -0.1358
  837TIP3    H124070   1.159   5.956   0.784 -0.5744  0.0307  0.1498
  837TIP3    H224071   1.055   5.848   0.767 -1.4573  0.9019 -0.1026
  838TIP3   OH224072   6.476   3.224   8.160  0.6750  0.1953  0.4131
  838TIP3    H124073   6.459   3.146   8.213  3.1720 -1.9417 -1.6066
  838TIP3    H224074   6.400   3.229   8.102 -0.1565  0.1103  1.4576
  839TIP3   OH224075   6.712   4.500   8.113  0.5374  0.5315  0.1606
  839TIP3    H124076   6.701   4.531   8.203  0.7437  0.2006  0.3002
  839TIP3    H224077   6.628   4.461   8.090  0.2331  1.2992 -0.0595
  840TIP3   OH224078   5.003   6.422   0.073  0.0053  0.1694  0.2996
  840TIP3    H124079   4.995   6.345   0.017  0.0369 -0.1211  0.6901
  840TIP3    H224080   5.016   6.386   0.161 -0.9181  0.6133  0.6226
  841TIP3   OH224081   1.885   1.840   1.615  0.3931  0.1427  0.1047
  841TIP3    H124082   1.847   1.927   1.614  1.3611  0.5793 -0.3151
  841TIP3    H224083   1.979   1.855   1.623  0.5886 -0.8535 -0.1731
  842TIP3   OH224084   1.047   5.824   6.168  0.7983 -0.4167 -0.3947
  842TIP3    H124085   1.007   5.739   6.186  0.5809 -0.1102  0.6217
  842TIP3    H224086   0.975   5.886   6.171  1.1902  0.0030  0.3992
  843TIP3   OH224087   1.588   0.322   1.957 -0.5333  0.2342  0.7971
  843TIP3    H124088   1.506   0.291   1.917 -1.0966  1.2387  1.1330
  843TIP3    H224089   1.588   0.416   1.942  1.1451  0.1053 -0.1915
  844TIP3   OH224090   3.273   5.680   8.075  0.2918  0.1826 -0.0850
  844TIP3    H124091   3.351   5.714   8.030 -0.0799  0.3110 -0.6464
  844TIP3    H224092   3.301   5.597   8.114  0.7990  0.3951  0.0070
  845TIP3   OH224093   1.043   3.217   0.250 -0.3849 -0.4076 -0.2834
  845TIP3    H124094   1.104   3.150   0.220 -0.1333  0.7010 -2.4225
  845TIP3    H224095   1.017   3.263   0.171 -2.0614  0.7892  0.8922
  846TIP3   OH224096   4.038   0.228   7.378 -0.1710  0.0237 -0.2337
  846TIP3    H124097   4.024   0.319   7.351 -1.3093 -0.3945 -1.1357
  846TIP3    H224098   4.122   0.205   7.339  0.3643  0.8138  0.4013
  847TIP3   OH224099   6.639   4.898   0.434  0.7092 -0.1841 -0.3170
  847TIP3    H124100   6.696   4.908   0.358  0.5847 -3.0479 -0.9350
  847TIP3    H224101   6.692   4.923   0.508  1.4449  0.9553 -1.2025
  848TIP3   OH224102   3.872   6.878   7.391  0.5648 -0.0001  0.3624
  848TIP3    H124103   3.892   6.788   7.365  2.3286 -0.2759  2.3422
  848TIP3    H224104   3.810   6.909   7.325 -1.7415 -3.2990  0.7296
  849TIP3   OH224105   0.563   0.023   6.579 -0.4937 -0.0495 -0.1044
  849TIP3    H124106   0.605   0.068   6.653  0.9619  0.5483 -1.2361
  849TIP3    H224107   0.477   0.064   6.572  0.0527  1.1953  0.1404
  850TIP3   OH224108   1.852   1.976   1.274 -0.2698  0.2883  0.3542
  850TIP3    H124109   1.858   1.914   1.201 -3.0633 -0.7087  0.8367
  850TIP3    H224110   1.943   1.991   1.300  0.8359  0.6238 -3.2027
  851TIP3   OH224111   4.512   4.318   8.154  0.2430 -0.1795  0.7312
  851TIP3    H124112   4.548   4.316   8.065  1.5709  1.0525  1.2083
  851TIP3    H224113   4.569   4.259   8.203  0.5540  0.4424  1.1217
  852TIP3   OH224114   2.088   6.900   1.668 -0.0951  0.1883  0.1125
  852TIP3    H124115   2.086   6.991   1.699  0.4848  0.6585 -1.1657
  852TIP3    H224116   1.996   6.879   1.652 -0.3344  0.1973  1.3205
  853TIP3   OH224117   3.557   0.167   2.158  0.6061  0.1957  0.2291
  853TIP3    H124118   3.605   0.237   2.202  1.8245  0.1828 -0.9999
  853TIP3    H224119   3.468   0.173   2.191  0.8125  1.9967  0.5176
  854TIP3   OH224120   6.253   4.798   8.357  0.1020  0.3880 -0.2502
  854TIP3    H124121   6.163   4.833   8.355  0.5435  1.7333  1.2922
  854TIP3    H224122   6.292   4.829   8.276 -0.4471  0.8879 -0.3319
  855TIP3   OH224123   6.211   5.047   7.502  0.1746  0.4385  0.5609
  855TIP3    H124124   6.147   5.002   7.447 -2.3808  2.2593  1.8257
  855TIP3    H224125   6.256   4.977   7.550 -0.2089 -0.9450 -1.0247
  856TIP3   OH224126   0.638   0.410   0.054  0.6202  0.1262  0.2513
  856TIP3    H124127   0.580   0.364  -0.007  0.1340 -0.0216  0.8113
  856TIP3    H224128   0.580   0.440   0.124  1.3536 -0.8624  1.3160
  857TIP3   OH224129   5.276   6.642   0.484  0.0862 -0.4819 -0.2684
  857TIP3    H124130   5.247   6.705   0.550  0.0020  1.4448 -2.0237
  857TIP3    H224131   5.201   6.632   0.426  1.0962  0.3141 -1.7881
  858TIP3   OH224132   6.882   2.728   1.520  0.0327 -0.2353  0.0382
  858TIP3    H124133   6.923   2.784   1.455 -0.4682 -0.2430 -0.2900
  858TIP3    H224134   6.950   2.712   1.585  0.0609  1.1203  0.3710
  859TIP3   OH224135   4.646   5.652   6.740 -0.1951  0.5772 -0.1006
  859TIP3    H124136   4.643   5.603   6.658  1.7726 -0.8512  0.6104
  859TIP3    H224137   4.738   5.650   6.766 -0.8659  0.3648  2.5307
  860TIP3   OH224138   5.421   3.721   7.758  0.5505  0.5205 -0.5304
  860TIP3    H124139   5.453   3.708   7.669 -0.3655 -1.3736 -0.6465
  860TIP3    H224140   5.351   3.786   7.750  0.7966  0.7210 -1.1090
  861TIP3   OH224141   1.923   5.233   2.871  0.6148 -0.4232  0.4853
  861TIP3    H124142   1.860   5.167   2.899  0.8071 -0.4538  0.8557
  861TIP3    H224143   1.873   5.314   2.865  0.0972 -0.8231 -1.1772
  862TIP3   OH224144   5.818   0.432   6.431  0.3095 -0.1317  0.1512
  862TIP3    H124145   5.811   0.337   6.443  0.1945 -0.2985 -1.1584
  862TIP3    H224146   5.730   0.460   6.405  0.4094  0.2994  0.2615
  863TIP3   OH224147   0.336   4.082   0.808  0.0070 -0.0309  1.0278
  863TIP3    H124148   0.369   4.103   0.721 -1.4593 -0.2490  0.3823
  863TIP3    H224149   0.392   4.130   0.868 -0.0363  1.5350 -0.1353
  864TIP3   OH224150   3.012   3.838   0.049  0.2883  0.1084  0.2804
  864TIP3    H124151   3.027   3.809   0.139  0.2832 -1.1934 -0.1212
  864TIP3    H224152   3.088   3.893   0.029 -0.0364  0.9581  1.2840
  865TIP3   OH224153   2.678   5.730   0.287 -0.5783  1.3552  0.1461
  865TIP3    H124154   2.755   5.710   0.233 -1.2463  3.1160 -1.5903
  865TIP3    H224155   2.680   5.665   0.357  1.5517  0.3128 -0.7946
  866TIP3   OH224156   3.613   4.421   8.160  0.2198 -0.0873  0.2226
  866TIP3    H124157   3.555   4.346   8.169 -1.7743  0.8654 -2.9871
  866TIP3    H224158   3.638   4.421   8.068  0.8836  2.6694  0.3096
  867TIP3   OH224159   4.402   0.794   2.597 -0.2014  0.0842  0.1820
  867TIP3    H124160   4.310   0.768   2.596 -0.1343 -0.3560  1.7279
  867TIP3    H224161   4.443   0.731   2.657  0.9203  0.8313  0.2189
  868TIP3   OH224162   0.734   4.123   7.267 -0.5759  0.0015 -0.1913
  868TIP3    H124163   0.743   4.143   7.174 -1.0707  1.0299 -0.0368
  868TIP3    H224164   0.712   4.030   7.270  1.5072 -0.5973 -0.9892
  869TIP3   OH224165   5.600   4.766   7.194  0.2537 -0.1732 -0.4122
  869TIP3    H124166   5.663   4.749   7.264 -1.5094 -2.0469  0.8354
  869TIP3    H224167   5.571   4.679   7.167 -0.5584  0.5895 -2.1531
  870TIP3   OH224168   3.289   2.417   0.523 -0.4840 -0.0565  0.1106
  870TIP3    H124169   3.243   2.447   0.445  0.3104  0.4335 -0.1810
  870TIP3    H224170   3.254   2.471   0.594 -1.0383 -0.3441  0.0592
  871TIP3   OH224171   1.234   2.610   0.426  0.0983  0.4592 -0.4065
  871TIP3    H124172   1.207   2.535   0.373  0.6672 -0.4022  0.5028
  871TIP3    H224173   1.329   2.612   0.419  0.1787  0.3869  0.4958
  872TIP3   OH224174   1.648   0.654   1.637  0.5103 -0.1453  0.6546
  872TIP3    H124175   1.688   0.629   1.720 -1.1450 -0.0227  1.5278
  872TIP3    H224176   1.554   0.656   1.655 -0.2834 -3.3066 -2.0082
  873TIP3   OH224177   6.696   3.114   7.940  0.7951  0.2884 -0.4126
  873TIP3    H124178   6.750   3.035   7.946  1.8067  0.8953 -1.2519
  873TIP3    H224179   6.649   3.105   7.857 -1.3591 -0.7885  0.8352
  874TIP3   OH224180   0.822   6.026   1.789 -0.2602  0.2646  0.1248
  874TIP3    H124181   0.789   6.061   1.707  0.7477 -0.8741 -0.8032
  874TIP3    H224182   0.774   5.944   1.801  1.4151 -0.9001 -0.7260
  875TIP3   OH224183   2.805   3.109   1.563 -0.1646  0.5237 -0.1091
  875TIP3    H124184   2.807   3.025   1.517  0.2326 -0.2038  1.1702
  875TIP3    H224185   2.769   3.087   1.650  0.2659  1.6124  0.3604
  876TIP3   OH224186   5.612   6.118   2.101  0.0780 -0.6262  0.3749
  876TIP3    H124187   5.660   6.188   2.057  1.8609 -0.5893  2.2423
  876TIP3    H224188   5.594   6.151   2.189 -1.8138 -1.3735  0.3285
  877TIP3   OH224189   1.499   3.362   8.523 -0.5929  0.5698 -0.4716
  877TIP3    H124190   1.533   3.273   8.535 -0.0232  0.8841  0.3531
  877TIP3    H224191   1.575   3.414   8.499 -0.4482  1.2646  1.2990
  878TIP3   OH224192   6.194   5.616   7.059  0.5636  0.5684 -0.1585
  878TIP3    H124193   6.170   5.573   6.977  1.1698 -1.4367  0.6531
  878TIP3    H224194   6.182   5.709   7.041 -0.0323  0.1491 -2.2779
  879TIP3   OH224195   2.344   6.768   6.995 -0.9604 -0.1927 -0.3557
  879TIP3    H124196   2.333   6.839   6.932  2.6820 -0.7569 -1.9027
  879TIP3    H224197   2.420   6.719   6.963  0.4443 -1.2471  3.8730
  880TIP3   OH224198   6.026   0.767   0.937  0.6915  0.2480  0.4891
  880TIP3    H124199   5.954   0.729   0.885 -0.3862 -0.3301  2.2881
  880TIP3    H224200   6.077   0.817   0.874 -0.3253 -0.7024 -1.1885
  881TIP3   OH224201   5.894   1.770   1.334 -0.5516  0.2839  0.1537
  881TIP3    H124202   5.844   1.851   1.346  0.1126  0.6374  0.5933
  881TIP3    H224203   5.887   1.725   1.418  0.9244  0.9444  0.6553
  882TIP3   OH224204   4.050   4.653   0.173 -0.0821 -0.4522  0.5017
  882TIP3    H124205   4.102   4.596   0.229  1.6987  0.7013  0.0921
  882TIP3    H224206   4.031   4.599   0.096  2.3038 -0.3221 -0.2668
  883TIP3   OH224207   1.085   4.449   0.494  0.3482 -0.4972  0.0699
  883TIP3    H124208   1.037   4.519   0.537  0.2647 -1.2074  1.1775
  883TIP3    H224209   1.117   4.488   0.413  0.5513  0.9029  0.7917
  884TIP3   OH224210   1.076   4.837   0.334 -0.6331  0.0196  0.1152
  884TIP3    H124211   1.063   4.807   0.244  0.2963 -1.4140  0.4308
  884TIP3    H224212   1.017   4.783   0.387  0.5367 -0.7877  0.6175
  885TIP3   OH224213   4.363   4.734   7.287 -0.5891 -0.0465 -0.4544
  885TIP3    H124214   4.439   4.745   7.343 -1.0286  1.0106 -0.0412
  885TIP3    H224215   4.387   4.775   7.204 -1.0099  1.0777 -0.0338
  886TIP3   OH224216   1.389   2.088   8.064 -0.0660  0.0704  0.1136
  886TIP3    H124217   1.404   2.141   7.986 -1.8176 -1.8264 -1.6203
  886TIP3    H224218   1.295   2.096   8.080 -0.0316 -1.0090  0.9617
  887TIP3   OH224219   3.590   4.576   2.027 -0.1431 -0.5919 -0.0140
  887TIP3    H124220   3.632   4.515   2.088  0.6562 -1.4752 -1.3916
  887TIP3    H224221   3.544   4.520   1.964 -0.6271  0.2783 -0.4590
  888TIP3   OH224222   3.001   1.560   7.441 -0.1731 -0.1935 -0.2411
  888TIP3    H124223   3.015   1.499   7.514 -0.8945  1.4577  1.3482
  888TIP3    H224224   2.909   1.548   7.417 -0.4877  0.6299  0.4779
  889TIP3   OH224225   5.406   4.502   2.221  0.3860 -0.1611 -0.3726
  889TIP3    H124226   5.458   4.425   2.247  2.0105  0.8986 -0.3205
  889TIP3    H224227   5.388   4.547   2.304 -2.0612 -1.3335 -0.2024
  890TIP3   OH224228   6.106   2.242   0.858  0.0931 -0.3031 -0.2258
  890TIP3    H124229   6.015   2.219   0.874  0.1395 -1.3585 -1.2980
  890TIP3    H224230   6.123   2.212   0.768  1.6264 -0.5673  0.1218
  891TIP3   OH224231   6.724   0.548   7.116  0.1247 -0.7110  0.2081
  891TIP3    H124232   6.710   0.584   7.028 -0.1876  0.2559  0.6393
  891TIP3    H224233   6.676   0.606   7.174 -0.9125 -2.1893  0.8931
  892TIP3   OH224234   2.349   1.712   1.359 -0.1437  0.0836 -0.0438
  892TIP3    H124235   2.346   1.807   1.352  0.2552  0.1647  0.7708
  892TIP3    H224236   2.426   1.694   1.414 -0.0271 -0.7211 -0.4468
  893TIP3   OH224237   1.129   5.031   1.069  0.4480  0.1710  0.0449
  893TIP3    H124238   1.189   5.072   1.007 -0.4270  0.4525 -0.6516
  893TIP3    H224239   1.104   5.101   1.129 -1.4863  0.8874 -1.4848
  894TIP3   OH224240   0.612   6.106   0.937  0.4093  0.3911  0.3463
  894TIP3    H124241   0.554   6.093   1.011 -0.4318 -0.7338 -0.4789
  894TIP3    H224242   0.641   6.197   0.945  2.8292 -0.5108  3.7718
  895TIP3   OH224243   6.902   3.320   8.051 -0.1403 -0.7336  0.2124
  895TIP3    H124244   6.984   3.315   8.003  0.1291 -1.4617  0.7383
  895TIP3    H224245   6.926   3.351   8.138 -0.3944 -1.1343  0.4301
  896TIP3   OH224246   1.046   5.583   1.263  0.7735 -0.4869 -0.0494
  896TIP3    H124247   1.042   5.532   1.344  0.1594 -0.7928 -0.2635
  896TIP3    H224248   1.104   5.533   1.206 -0.5133 -1.4327 -0.5761
  897TIP3   OH224249   1.272   4.874   0.557  0.4622 -0.2460  0.2647
  897TIP3    H124250   1.318   4.956   0.540  1.0440 -0.5968  0.0761
  897TIP3    H224251   1.184   4.888   0.524  0.8689 -0.0655 -0.7994
  898TIP3   OH224252   2.093   3.733   7.718  0.3650 -0.2786 -0.4430
  898TIP3    H124253   2.095   3.678   7.797 -0.4776 -0.2940 -0.4220
  898TIP3    H224254   2.137   3.680   7.651  0.8217 -0.3881 -0.0668
  899TIP3   OH224255   2.399   2.300   0.490  0.1682 -0.0937  0.2326
  899TIP3    H124256   2.384   2.245   0.566  2.0082  0.1927  0.8656
  899TIP3    H224257   2.495   2.306   0.483  0.0398  0.7545 -1.4692
  900TIP3   OH224258   0.558   5.378   0.418 -0.3475 -0.0797  0.2603
  900TIP3    H124259   0.520   5.324   0.348 -0.0536 -0.6332  0.5196
  900TIP3    H224260   0.616   5.439   0.372  0.1299 -0.6838  0.0473
  901TIP3   OH224261   6.821   4.562   8.466  0.3099 -0.3576 -0.1195
  901TIP3    H124262   6.745   4.620   8.474  1.4827  1.1183  1.0776
  901TIP3    H224263   6.806   4.494   8.532  0.1869  0.1679  0.4122
  902TIP3   OH224264   0.474   4.952   0.668  0.0152  0.6481 -0.0526
  902TIP3    H124265   0.496   4.862   0.693  0.7682  0.9167  0.2676
  902TIP3    H224266   0.501   4.959   0.576 -1.5921  0.0495 -0.6157
  903TIP3   OH224267   2.108   2.238   6.678 -0.6418  0.0606 -0.3004
  903TIP3    H124268   2.182   2.239   6.739 -0.7484 -0.9355 -0.1222
  903TIP3    H224269   2.034   2.267   6.730 -0.7903 -1.0714  0.1588
  904TIP3   OH224270   3.952   1.235   7.501 -0.1983  0.4769  0.4450
  904TIP3    H124271   3.931   1.313   7.554  0.1461 -0.0913  1.4434
  904TIP3    H224272   3.870   1.186   7.499  0.4940 -1.0119  3.1035
  905TIP3   OH224273   6.528   6.022   8.199 -0.1262 -0.4586  0.4043
  905TIP3    H124274   6.541   5.993   8.108 -1.8750 -0.1758  0.0338
  905TIP3    H224275   6.617   6.035   8.232  0.5600 -0.3072 -1.3507
  906TIP3   OH224276   6.169   6.400   2.165  0.5179  0.3161 -0.2839
  906TIP3    H124277   6.135   6.312   2.180  1.4236  0.2616  1.6704
  906TIP3    H224278   6.250   6.386   2.115 -0.5004  0.2349 -1.9902
  907TIP3   OH224279   1.453   0.293   7.731  0.3125 -0.5685 -0.3222
  907TIP3    H124280   1.427   0.363   7.671 -1.9714 -1.8800 -0.9764
  907TIP3    H224281   1.417   0.213   7.692  1.0783 -1.8407  1.4440
  908TIP3   OH224282   5.458   1.229   7.516  0.1660 -0.4744  0.2696
  908TIP3    H124283   5.513   1.152   7.507 -2.0750 -2.3787  1.5157
  908TIP3    H224284   5.369   1.196   7.504 -0.8990  1.9344  0.8778
  909TIP3   OH224285   6.903   1.660   1.596 -0.1448  0.0719  0.0457
  909TIP3    H124286   6.891   1.569   1.622 -1.0845  0.3955  0.8141
  909TIP3    H224287   6.962   1.696   1.662  1.1713 -0.2551 -0.9156
  910TIP3   OH224288   3.006   0.418   7.928 -0.8131  0.5314  0.2543
  910TIP3    H124289   3.065   0.351   7.892 -0.4318  0.6922  0.5830
  910TIP3    H224290   3.064   0.482   7.969 -1.2308  0.5120  0.8844
  911TIP3   OH224291   0.135   6.133   0.567 -0.1944  0.0644  0.8701
  911TIP3    H124292   0.078   6.138   0.490 -0.7894 -2.0535  1.0942
  911TIP3    H224293   0.107   6.205   0.623  1.0326  2.4031 -1.3175
  912TIP3   OH224294   2.361   3.491   0.428 -0.9988  0.2585 -0.3526
  912TIP3    H124295   2.267   3.513   0.428 -1.0521  0.2842  1.9762
  912TIP3    H224296   2.400   3.552   0.366 -2.2975  1.4114 -0.0906
  913TIP3   OH224297   3.773   1.846   1.786 -0.2017  0.3730  0.5111
  913TIP3    H124298   3.832   1.812   1.853  0.9474  1.2878  0.0014
  913TIP3    H224299   3.814   1.822   1.703  1.0667  3.4745  0.1054
  914TIP3   OH224300   5.166   1.341   2.501  0.5695 -0.3267  0.0199
  914TIP3    H124301   5.189   1.372   2.588  1.1273 -1.3323  0.2494
  914TIP3    H224302   5.223   1.389   2.442 -0.1642  0.7374  0.1397
  915TIP3   OH224303   3.884   5.037   0.188 -0.2692 -0.3981 -0.0283
  915TIP3    H124304   3.842   5.019   0.104  1.4193 -1.2773 -0.7246
  915TIP3    H224305   3.843   4.976   0.249 -2.6934  1.3380  0.2604
  916TIP3   OH224306   4.697   4.568   2.351  0.4142  0.7247 -0.2133
  916TIP3    H124307   4.734   4.571   2.439  0.9754  0.3670 -0.4345
  916TIP3    H224308   4.665   4.478   2.342 -2.1179  1.4585  0.6197
  917TIP3   OH224309   5.907   4.966   1.258 -0.0496 -1.0643 -0.5218
  917TIP3    H124310   5.873   4.998   1.341 -1.4141 -0.1119 -1.4090
  917TIP3    H224311   5.952   5.042   1.220 -0.4727 -1.1270 -1.1678
  918TIP3   OH224312   3.150   2.353   7.341  0.0692 -0.5468 -0.4857
  918TIP3    H124313   3.227   2.406   7.319  1.0654 -0.7135  2.1950
  918TIP3    H224314   3.185   2.279   7.390 -1.8123 -0.4682  1.0994
  919TIP3   OH224315   5.302   5.906   7.819 -0.0053 -0.6996 -0.1809
  919TIP3    H124316   5.375   5.880   7.762  0.9133  1.2047  0.0211
  919TIP3    H224317   5.278   5.994   7.788 -0.5388 -0.2681  1.3559
  920TIP3   OH224318   5.378   4.456   1.764  0.6095  0.0767 -0.3784
  920TIP3    H124319   5.348   4.536   1.808  0.1607  0.4993 -1.4243
  920TIP3    H224320   5.360   4.386   1.827 -1.7187  0.4265 -0.5440
  921TIP3   OH224321   4.880   2.639   7.914  0.0032 -0.6049 -1.0135
  921TIP3    H124322   4.966   2.644   7.873  1.0216  4.4863  0.9715
  921TIP3    H224323   4.888   2.570   7.980  2.9681  0.2599 -0.3278
  922TIP3   OH224324   0.886   0.665   1.024  0.1260 -0.2481  0.3031
  922TIP3    H124325   0.951   0.595   1.037 -0.0769 -0.3088  1.0400
  922TIP3    H224326   0.836   0.636   0.947  0.3390 -0.6835  0.3186
  923TIP3   OH224327   5.280   0.133   0.815 -0.4160 -0.1527  0.2437
  923TIP3    H124328   5.193   0.117   0.852 -0.0515 -0.4626  0.9751
  923TIP3    H224329   5.330   0.172   0.886  0.2108 -0.4926 -0.0038
  924TIP3   OH224330   4.714   5.129   0.653  0.1967 -0.0767  0.2410
  924TIP3    H124331   4.759   5.049   0.679  2.1763  1.4596  1.9085
  924TIP3    H224332   4.624   5.116   0.683  0.6396 -1.3922  1.0911
  925TIP3   OH224333   1.868   2.398   7.593 -0.8835  0.1633 -0.2622
  925TIP3    H124334   1.864   2.431   7.503 -0.9017  0.4365 -0.1639
  925TIP3    H224335   1.883   2.304   7.584  0.9447  0.4600 -0.5259
  926TIP3   OH224336   1.470   3.630   0.911 -0.7764 -0.0155 -0.5620
  926TIP3    H124337   1.535   3.631   0.841  0.9946 -0.4493  0.9719
  926TIP3    H224338   1.400   3.574   0.878 -1.3536  1.9588 -3.0247
  927TIP3   OH224339   6.287   1.753   7.547 -0.0888 -0.2671  0.1595
  927TIP3    H124340   6.297   1.686   7.480 -1.0194  0.8679 -1.1765
  927TIP3    H224341   6.222   1.717   7.608  0.3747 -1.0895  0.1853
  928TIP3   OH224342   3.801   5.523   1.662  0.0711  0.1769 -0.3293
  928TIP3    H124343   3.821   5.574   1.740 -0.9147 -0.7385  0.5545
  928TIP3    H224344   3.847   5.440   1.675  1.2567  0.6186 -1.5185
  929TIP3   OH224345   0.486   2.565   7.528  0.1909 -0.1989 -0.9666
  929TIP3    H124346   0.505   2.520   7.611 -1.0177  0.8460 -0.0817
  929TIP3    H224347   0.567   2.611   7.507  1.2617 -2.2457 -1.5839
  930TIP3   OH224348   0.562   0.581   7.601  0.0573 -0.3029 -0.5681
  930TIP3    H124349   0.506   0.503   7.606  1.4283 -1.2361  1.3713
  930TIP3    H224350   0.650   0.549   7.623  0.5757  1.8677  0.7767
  931TIP3   OH224351   5.838   2.663   2.362 -0.4740  0.2419 -0.5661
  931TIP3    H124352   5.742   2.662   2.358 -0.6041 -0.9372  1.7158
  931TIP3    H224353   5.865   2.664   2.270 -2.6625 -1.4172 -1.3095
  932TIP3   OH224354   0.298   1.978   1.638 -0.4635 -0.1574  0.6030
  932TIP3    H124355   0.230   1.946   1.578 -0.0315  0.6407 -0.3376
  932TIP3    H224356   0.311   1.906   1.700 -1.5174 -0.6767  0.2475
  933TIP3   OH224357   3.337   3.504   7.981 -0.4830 -0.2719  0.0234
  933TIP3    H124358   3.399   3.513   8.053 -1.1611 -0.7044  0.6765
  933TIP3    H224359   3.303   3.415   7.990  0.8247 -1.0467 -1.9856
  934TIP3   OH224360   6.837   1.704   0.547 -0.5712 -0.7221 -0.1006
  934TIP3    H124361   6.921   1.697   0.501  0.2756  1.0684  1.0516
  934TIP3    H224362   6.771   1.708   0.478  0.3089 -1.8951 -1.0299
  935TIP3   OH224363   1.773   1.552   6.996 -0.5803  0.0321  0.4011
  935TIP3    H124364   1.742   1.468   7.031  0.1731 -0.8999 -1.0541
  935TIP3    H224365   1.711   1.573   6.927 -1.6148  1.4671  1.7071
  936TIP3   OH224366   0.785   4.754   2.085 -0.4947  0.3984  0.4044
  936TIP3    H124367   0.771   4.684   2.021  2.0031  1.2457 -1.2471
  936TIP3    H224368   0.701   4.799   2.091 -1.1031 -0.3993 -1.5016
  937TIP3   OH224369   0.379   4.209   7.328  0.3191 -0.6567 -0.0566
  937TIP3    H124370   0.315   4.216   7.400  0.7231  2.5718  0.1427
  937TIP3    H224371   0.361   4.285   7.273  2.2869 -1.1606 -1.4886
  938TIP3   OH224372   6.700   1.048   7.079 -0.1912  0.0917 -0.0765
  938TIP3    H124373   6.678   1.139   7.100  0.8716  0.0585  1.2744
  938TIP3    H224374   6.786   1.034   7.118 -1.5051 -2.3225  2.3214
  939TIP3   OH224375   6.085   5.907   8.134  0.0071  0.7031 -0.2243
  939TIP3    H124376   6.002   5.912   8.086 -0.7182 -1.6646  0.6178
  939TIP3    H224377   6.114   5.817   8.121  1.9477  1.2022  0.3577
  940TIP3   OH224378   2.540   6.788   8.217 -0.3767 -1.0286 -0.3467
  940TIP3    H124379   2.553   6.748   8.131  0.0569 -1.3790 -0.1207
  940TIP3    H224380   2.610   6.753   8.271  0.4265  0.5537 -0.3055
  941TIP3   OH224381   3.789   6.516   8.172  0.2340  0.1836 -0.4346
  941TIP3    H124382   3.840   6.533   8.251  0.0341 -0.9192 -0.0537
  941TIP3    H224383   3.795   6.597   8.121  1.0419  0.6130  0.3324
  942TIP3   OH224384   6.470   5.842   1.524  0.2275 -0.0106  0.0806
  942TIP3    H124385   6.455   5.860   1.432  1.1845 -0.1041 -0.1052
  942TIP3    H224386   6.565   5.838   1.533  0.2372  1.9769  1.4640
  943TIP3   OH224387   5.518   1.002   6.660  0.3206  0.2229 -0.2014
  943TIP3    H124388   5.426   0.975   6.657  0.6711 -1.0119 -0.2042
  943TIP3    H224389   5.533   1.047   6.577  0.8745 -3.5751 -2.3984
  944TIP3   OH224390   5.355   6.751   1.621  0.4008 -0.1563  0.2815
  944TIP3    H124391   5.294   6.722   1.689  0.6997 -0.9817  0.2084
  944TIP3    H224392   5.304   6.747   1.540  0.8885 -2.1511  0.0117
  945TIP3   OH224393   4.400   2.452   7.973 -0.4280  0.5277  0.4182
  945TIP3    H124394   4.414   2.466   8.066 -1.5240  1.4252  0.4797
  945TIP3    H224395   4.416   2.359   7.959  0.5000  0.5399  1.3497
  946TIP3   OH224396   2.521   5.419   8.415 -0.1163  0.1426 -0.0972
  946TIP3    H124397   2.470   5.395   8.337 -2.0344  1.4180  0.7031
  946TIP3    H224398   2.533   5.336   8.462  1.9323 -0.8444 -2.1280
  947TIP3   OH224399   2.157   0.334   1.031 -0.3182  0.0369 -0.2660
  947TIP3    H124400   2.064   0.356   1.042 -0.2043  0.9122 -0.9626
  947TIP3    H224401   2.167   0.251   1.077 -1.1844  0.5207  0.8562
  948TIP3   OH224402   2.472   6.907   0.340 -0.5373 -0.4978  0.3730
  948TIP3    H124403   2.468   6.811   0.335  0.3501 -0.4871 -0.9273
  948TIP3    H224404   2.560   6.929   0.308 -1.0718  0.7966 -0.2707
  949TIP3   OH224405   2.034   1.450   0.937  0.4749  0.3704 -0.0211
  949TIP3    H124406   2.044   1.384   0.868  0.3237  1.2136 -0.8853
  949TIP3    H224407   1.944   1.441   0.966 -0.4579  1.9624 -2.0982
  950TIP3   OH224408   3.830   1.982   7.492  0.2631  0.7023  0.2117
  950TIP3    H124409   3.736   1.995   7.481  0.3712  1.3035 -0.0621
  950TIP3    H224410   3.852   2.027   7.574  0.3143  0.5991  0.2543
  951TIP3   OH224411   3.601   6.465   7.942  0.3702  0.1362  0.1897
  951TIP3    H124412   3.551   6.512   8.008  0.2540 -0.0718  0.2467
  951TIP3    H224413   3.693   6.479   7.967  0.3030 -0.8026  0.9796
  952TIP3   OH224414   5.773   6.704   7.815 -0.0282  0.8572  0.0912
  952TIP3    H124415   5.761   6.793   7.784  3.2361  0.8333 -1.6551
  952TIP3    H224416   5.856   6.706   7.863  0.8081 -1.4231 -1.0944
  953TIP3   OH224417   2.188   5.687   1.696 -0.3245 -0.0277 -0.0282
  953TIP3    H124418   2.097   5.686   1.728  0.3031  1.4237  2.0140
  953TIP3    H224419   2.197   5.771   1.651 -0.2459 -0.6055 -1.1156
  954TIP3   OH224420   3.997   0.734   6.216  0.0760  0.2375 -0.6885
  954TIP3    H124421   3.933   0.806   6.218 -0.7683 -0.4998  0.4216
  954TIP3    H224422   4.076   0.772   6.253 -0.4496  0.5426  0.1627
  955TIP3   OH224423   5.448   5.038   1.947  0.2090 -0.0421  0.2598
  955TIP3    H124424   5.466   4.978   1.875  0.2572  1.4677 -1.0414
  955TIP3    H224425   5.533   5.078   1.967  0.1708 -0.3521  1.0918
  956TIP3   OH224426   6.820   3.965   7.721  0.8815  0.3773  0.1104
  956TIP3    H124427   6.800   3.952   7.813 -1.1118  0.5305 -0.2577
  956TIP3    H224428   6.758   4.032   7.692  2.6121  1.5725 -0.9583
  957TIP3   OH224429   6.511   0.439   0.701 -0.0910  0.0930  0.5222
  957TIP3    H124430   6.499   0.345   0.716 -0.6786  0.2139  0.8260
  957TIP3    H224431   6.512   0.448   0.606 -3.3444  0.1567  0.3968
  958TIP3   OH224432   2.079   3.913   6.966 -0.1112 -0.0726  0.5449
  958TIP3    H124433   2.080   3.825   7.005  0.1026 -1.0112 -1.4595
  958TIP3    H224434   2.165   3.949   6.987  0.7029 -1.2809 -0.5592
  959TIP3   OH224435   5.070   1.505   0.019 -0.1155  0.6673  0.3836
  959TIP3    H124436   5.015   1.451  -0.038  1.1188 -0.3380  0.1089
  959TIP3    H224437   5.138   1.539  -0.038  0.4725  0.5853  1.0267
  960TIP3   OH224438   6.745   5.073   7.473  0.6346  0.3263  0.6438
  960TIP3    H124439   6.802   5.067   7.396  0.9807 -0.4774  0.9510
  960TIP3    H224440   6.799   5.120   7.537  0.3741  0.9274  0.4313
  961TIP3   OH224441   2.171   2.307   7.404  0.0861 -0.1154  0.3742
  961TIP3    H124442   2.261   2.277   7.403 -0.1636 -0.9192 -1.0169
  961TIP3    H224443   2.124   2.240   7.454  0.0043 -0.5569 -0.2827
  962TIP3   OH224444   5.570   2.486   7.682  0.4285 -0.1530  0.1117
  962TIP3    H124445   5.640   2.535   7.726  0.3991 -1.5421  1.8298
  962TIP3    H224446   5.616   2.423   7.627  0.4647  1.5102 -1.8923
  963TIP3   OH224447   6.356   3.464   0.698  0.4901  0.1066 -0.1830
  963TIP3    H124448   6.299   3.475   0.622  1.3297  0.9885 -0.7121
  963TIP3    H224449   6.362   3.369   0.711  0.2635 -0.0460 -1.1575
  964TIP3   OH224450   6.462   0.992   2.015  0.2099 -0.4143 -0.1423
  964TIP3    H124451   6.375   1.033   2.016  0.5870  0.4176 -1.0236
  964TIP3    H224452   6.511   1.039   2.083  0.3307 -0.0903 -0.4533
  965TIP3   OH224453   4.150   6.855   7.099  0.0562 -0.6355 -0.0684
  965TIP3    H124454   4.183   6.785   7.042 -0.1131  0.9051 -2.1650
  965TIP3    H224455   4.055   6.854   7.086  0.0129 -0.2917  0.2029
  966TIP3   OH224456   5.605   6.784   7.475  0.1982  0.6350  0.0943
  966TIP3    H124457   5.552   6.812   7.399 -1.3231 -0.1802  0.8006
  966TIP3    H224458   5.549   6.721   7.521  2.1834 -1.0058  0.3925
  967TIP3   OH224459   2.149   6.555   0.761 -0.0630  0.7766 -0.2086
  967TIP3    H124460   2.054   6.543   0.752 -0.0314  0.1388  0.2428
  967TIP3    H224461   2.184   6.466   0.763  1.1464  0.8059 -5.7593
  968TIP3   OH224462   4.456   5.772   0.060  0.7885 -0.7510 -0.2803
  968TIP3    H124463   4.526   5.714   0.087  1.9408 -0.5171 -2.5137
  968TIP3    H224464   4.498   5.857   0.047  0.2224 -0.6725 -1.9352
  969TIP3   OH224465   5.953   4.612   8.038  0.0192 -0.3933  0.9103
  969TIP3    H124466   5.904   4.537   8.073 -0.4867  0.4810  2.1431
  969TIP3    H224467   5.889   4.659   7.984  0.2398 -0.6680  0.4116
  970TIP3   OH224468   4.107   3.060   1.263  0.3788 -0.1051 -0.3357
  970TIP3    H124469   4.152   3.000   1.204  0.9354 -0.6988  0.6862
  970TIP3    H224470   4.138   3.038   1.350 -1.0057  0.2543  0.2853
  971TIP3   OH224471   3.530   5.776   8.314 -0.0919 -0.3008  0.6408
  971TIP3    H124472   3.609   5.742   8.271  0.0449  1.6767 -0.7930
  971TIP3    H224473   3.557   5.790   8.405 -0.0720 -3.5497  1.2886
  972TIP3   OH224474   1.380   5.990   7.318  0.3450  0.1056  0.0771
  972TIP3    H124475   1.406   5.912   7.270 -1.6054 -0.0594 -0.8074
  972TIP3    H224476   1.381   6.060   7.253  0.2927  0.4450  0.4332
  973TIP3   OH224477   0.569   3.126   0.311  0.4499  0.4500 -0.0033
  973TIP3    H124478   0.569   3.156   0.220 -0.4834  0.6777  0.0626
  973TIP3    H224479   0.590   3.204   0.362 -1.0656  0.8008  0.1065
  974TIP3   OH224480   4.268   1.069   0.258 -0.4649  0.1952  0.0078
  974TIP3    H124481   4.252   1.014   0.182 -0.8499  0.3458 -0.0230
  974TIP3    H224482   4.188   1.061   0.311  0.3169 -0.9581  1.0558
  975TIP3   OH224483   5.873   0.390   0.553 -0.3935 -0.1565  0.6298
  975TIP3    H124484   5.907   0.475   0.526 -0.3518 -0.1479  0.7079
  975TIP3    H224485   5.781   0.406   0.574 -0.6083 -0.3038 -0.1634
  976TIP3   OH224486   3.095   2.602   7.446 -0.0848  0.7151 -0.2286
  976TIP3    H124487   3.089   2.592   7.541  2.8321 -0.3692 -0.0604
  976TIP3    H224488   3.103   2.513   7.414  1.4579  1.1919 -1.2358
  977TIP3   OH224489   2.967   3.356   2.756  0.1246 -0.2741 -0.1927
  977TIP3    H124490   2.914   3.318   2.685  1.0103 -0.9908 -0.4780
  977TIP3    H224491   2.931   3.444   2.767 -1.3644 -0.8505 -0.1414
  978TIP3   OH224492   4.018   2.501   7.309  0.3815  0.9561  0.2458
  978TIP3    H124493   4.029   2.586   7.350  0.6413  0.8751  0.3456
  978TIP3    H224494   4.104   2.480   7.273  0.5806  0.3010  1.0595
  979TIP3   OH224495   1.398   5.064   7.178  0.5428 -0.2245 -0.7162
  979TIP3    H124496   1.447   5.142   7.206  0.0307 -0.8303  2.1500
  979TIP3    H224497   1.451   4.991   7.208 -0.9067 -0.9195  0.2240
  980TIP3   OH224498   2.709   2.082   0.776  0.4023 -0.6934  0.3608
  980TIP3    H124499   2.679   2.136   0.849 -0.6893  0.5448 -0.9319
  980TIP3    H224500   2.796   2.051   0.802  1.0210  1.5836  1.2365
  981TIP3   OH224501   6.495   5.825   7.931 -0.4093 -1.0819  0.0895
  981TIP3    H124502   6.570   5.884   7.919 -0.3745 -1.2182 -0.3997
  981TIP3    H224503   6.533   5.737   7.928 -0.4674 -1.1301  0.7651
  982TIP3   OH224504   1.398   0.450   1.485 -0.0226  0.7288 -0.2938
  982TIP3    H124505   1.457   0.487   1.419  0.4979  1.8034  0.7307
  982TIP3    H224506   1.456   0.425   1.557 -0.7155  1.0368  0.3891
  983TIP3   OH224507   1.101   3.231   7.697  0.0092 -0.0775  0.4538
  983TIP3    H124508   1.107   3.141   7.729  0.3485  0.4381  1.9116
  983TIP3    H224509   1.035   3.272   7.753 -0.1658  0.5741 -0.2230
  984TIP3   OH224510   5.221   2.736   0.623  0.0273  0.0662 -0.2378
  984TIP3    H124511   5.137   2.709   0.586 -1.8015  1.3564  2.5786
  984TIP3    H224512   5.254   2.802   0.562 -0.3348 -1.3269 -2.0242
  985TIP3   OH224513   4.574   0.662   7.401 -0.0246 -0.0191 -0.1205
  985TIP3    H124514   4.639   0.730   7.383  0.5734 -0.8233 -1.1154
  985TIP3    H224515   4.516   0.701   7.467 -0.7499  2.1218 -1.8999
  986TIP3   OH224516   1.744   4.584   6.516 -0.0267 -0.1896  0.0710
  986TIP3    H124517   1.659   4.576   6.472 -0.7149  0.8639  1.1490
  986TIP3    H224518   1.772   4.673   6.497 -0.0645  0.0859  1.2840
  987TIP3   OH224519   4.455   5.844   0.471  0.2812 -0.1247 -0.2533
  987TIP3    H124520   4.455   5.863   0.377  0.0107  3.8453  0.3836
  987TIP3    H224521   4.548   5.844   0.495  0.2784  1.1285 -0.1943
  988TIP3   OH224522   0.385   6.418   7.825  0.2192  0.5862  0.0782
  988TIP3    H124523   0.416   6.381   7.743 -0.6520  1.2727 -0.5824
  988TIP3    H224524   0.289   6.422   7.815  0.0768  0.3956  1.2395
  989TIP3   OH224525   4.249   5.944   0.901  0.4121  0.3869  0.6831
  989TIP3    H124526   4.236   5.951   0.807  0.0068 -1.2569  0.5773
  989TIP3    H224527   4.342   5.927   0.911  0.2688 -0.5783  0.4749
  990TIP3   OH224528   0.677   1.526   8.321  0.1177  0.1707  0.0669
  990TIP3    H124529   0.678   1.585   8.245 -0.7239  2.8066  1.9476
  990TIP3    H224530   0.647   1.442   8.286 -2.4490  1.8569 -2.1769
  991TIP3   OH224531   0.304   2.088   0.175 -0.2850 -0.3498 -0.3016
  991TIP3    H124532   0.241   2.028   0.135  1.0575 -1.2938 -1.0995
  991TIP3    H224533   0.378   2.088   0.115  0.9647 -0.1837  1.1730
  992TIP3   OH224534   6.079   1.975   0.453 -0.1833 -0.9279 -0.0931
  992TIP3    H124535   6.110   1.957   0.364 -3.8676 -1.9841 -1.3256
  992TIP3    H224536   6.053   1.890   0.487 -3.4088 -0.0586 -0.0223
  993TIP3   OH224537   5.591   6.021   1.469  0.4727 -0.1206 -0.6143
  993TIP3    H124538   5.591   6.037   1.563 -0.3615  0.5477 -0.7186
  993TIP3    H224539   5.578   5.927   1.461 -1.1375  0.0311 -0.0740
  994TIP3   OH224540   3.768   3.694   2.362 -0.5428  0.1317  0.3273
  994TIP3    H124541   3.804   3.752   2.429  0.9014 -0.9389  0.5096
  994TIP3    H224542   3.675   3.686   2.386 -0.3383  0.7789  1.4457
  995TIP3   OH224543   4.835   2.178   6.667  0.0246 -0.3674 -0.2109
  995TIP3    H124544   4.858   2.249   6.726 -1.0358 -0.2024  0.0153
  995TIP3    H224545   4.882   2.102   6.703 -0.8850 -0.3546  1.0687
  996TIP3   OH224546   6.193   3.286   6.839  0.1101  0.9321  0.2680
  996TIP3    H124547   6.144   3.218   6.885  0.0513  1.3666  0.8668
  996TIP3    H224548   6.127   3.340   6.796  0.2216 -0.2198 -1.4347
  997TIP3   OH224549   0.769   2.825   8.189  0.7283 -0.1174  0.1194
  997TIP3    H124550   0.805   2.800   8.274  1.5104  2.4241  0.6107
  997TIP3    H224551   0.832   2.889   8.154 -1.6515  2.0543 -0.4554
  998TIP3   OH224552   6.097   3.560   0.644  0.5388  0.9598  0.1942
  998TIP3    H124553   6.167   3.532   0.702  2.3364  0.1743 -2.1988
  998TIP3    H224554   6.031   3.598   0.703  3.0486  2.0239  2.5526
  999TIP3   OH224555   1.535   1.671   0.122  0.3144  0.6957 -0.7856
  999TIP3    H124556   1.536   1.693   0.029 -2.2849  1.8990 -0.6049
  999TIP3    H224557   1.514   1.754   0.166 -1.8946 -0.5031  0.5725
 1000TIP3   OH224558   5.010   0.669   7.308  0.7549  0.4224 -0.1868
 1000TIP3    H124559   5.018   0.670   7.212  1.5878 -2.1997 -0.2268
 1000TIP3    H224560   4.942   0.603   7.325  0.9465  0.5261  1.0247
 1001TIP3   OH224561   4.327   0.563   0.662 -0.1701  0.0607 -0.0632
 1001TIP3    H124562   4.271   0.609   0.600 -0.4113  0.1596  0.2281
 1001TIP3    H224563   4.409   0.549   0.614 -0.4281 -0.0522 -0.4774
 1002TIP3   OH224564   2.231   1.774   2.085  0.3782  0.0723  0.3344
 1002TIP3    H124565   2.272   1.768   1.999 -0.2753  0.7222 -0.0363
 1002TIP3    H224566   2.192   1.862   2.087  0.2340 -0.0065  1.2186
 1003TIP3   OH224567   5.269   6.088   1.492  0.2168  0.0287  0.9723
 1003TIP3    H124568   5.179   6.095   1.461  0.9135  1.0471 -1.0021
 1003TIP3    H224569   5.286   5.994   1.496 -0.7252 -0.1607  0.6741
 1004TIP3   OH224570   1.032   5.707   0.112  0.1121 -0.1238 -0.4843
 1004TIP3    H124571   1.005   5.798   0.115 -0.9343 -0.4528  0.5861
 1004TIP3    H224572   0.965   5.664   0.059  0.2019 -0.4108 -0.3678
 1005TIP3   OH224573   6.941   2.037   0.226  0.5099  0.0208 -0.2435
 1005TIP3    H124574   6.910   1.947   0.218 -0.4204  0.1644  1.2705
 1005TIP3    H224575   6.890   2.086   0.161 -0.1338 -0.2868  0.0269
 1006TIP3   OH224576   6.082   5.814   6.496 -0.1626 -0.1062 -0.5140
 1006TIP3    H124577   6.021   5.762   6.444  0.3147 -0.5245 -0.6663
 1006TIP3    H224578   6.088   5.898   6.451 -2.6080  0.9136  0.9077
 1007TIP3   OH224579   1.375   0.271   1.825  0.9059 -0.1313  0.0668
 1007TIP3    H124580   1.388   0.232   1.739 -0.1528 -2.4009  0.8469
 1007TIP3    H224581   1.281   0.263   1.841  1.1242 -0.0356  1.5566
 1008TIP3   OH224582   0.642   1.787   1.884 -0.2442 -0.2073  0.1537
 1008TIP3    H124583   0.667   1.784   1.976  0.8955 -0.2905 -0.1338
 1008TIP3    H224584   0.547   1.788   1.884 -0.2521  0.6955  1.3611
 1009TIP3   OH224585   6.592   2.581   2.209 -0.1959 -0.3851  0.2392
 1009TIP3    H124586   6.677   2.543   2.186  0.4764  1.5154 -0.6240
 1009TIP3    H224587   6.529   2.513   2.186  1.0409 -1.6362  0.3949
 1010TIP3   OH224588   4.987   5.616   7.114 -0.1151 -0.3216  0.2779
 1010TIP3    H124589   4.936   5.661   7.047 -0.1306 -0.8219 -0.0564
 1010TIP3    H224590   5.078   5.634   7.091 -0.1271 -0.0533  0.4351
 1011TIP3   OH224591   1.411   0.229   7.167 -0.2721 -0.1992 -0.2517
 1011TIP3    H124592   1.422   0.137   7.143 -0.6250 -0.0383 -1.0593
 1011TIP3    H224593   1.360   0.267   7.095  0.5885  0.8209 -0.3568
 1012TIP3   OH224594   0.018   3.000   7.923 -0.2275 -0.0225 -0.0476
 1012TIP3    H124595   0.038   2.909   7.900  2.6516  0.7966 -1.1990
 1012TIP3    H224596   0.079   3.021   7.994 -1.1717  0.8898  0.5240
 1013TIP3   OH224597   6.149   5.995   2.458 -0.3351  0.2987 -0.4390
 1013TIP3    H124598   6.224   5.988   2.400  0.8442 -0.4198  1.1142
 1013TIP3    H224599   6.161   6.079   2.503 -2.0412  1.6020 -2.1940
 1014TIP3   OH224600   5.400   6.200   2.697 -0.2355 -0.1486  0.2342
 1014TIP3    H124601   5.430   6.154   2.775  0.7155 -0.6642 -0.4086
 1014TIP3    H224602   5.308   6.174   2.688 -0.2121 -0.4873  0.8990
 1015TIP3   OH224603   6.105   2.838   8.187 -0.6230 -0.2639 -0.1988
 1015TIP3    H124604   6.127   2.891   8.111  1.2111  0.1038  0.5438
 1015TIP3    H224605   6.102   2.748   8.154  1.1039 -0.2174 -0.5492
 1016TIP3   OH224606   2.235   5.577   7.740 -0.1661  0.4459  0.3896
 1016TIP3    H124607   2.310   5.637   7.733 -1.1078  1.6887  0.6419
 1016TIP3    H224608   2.267   5.506   7.796  1.6647 -0.4662 -1.6695
 1017TIP3   OH224609   1.330   1.263   0.034 -0.0820  0.2848 -0.6202
 1017TIP3    H124610   1.364   1.241   0.121 -0.7154 -0.0624 -0.4525
 1017TIP3    H224611   1.407   1.289  -0.016  0.5224 -1.0071 -0.4166
 1018TIP3   OH224612   0.276   4.016   1.700  0.2901 -0.0708 -0.5412
 1018TIP3    H124613   0.287   3.934   1.651  2.3796  0.0529 -0.3603
 1018TIP3    H224614   0.327   4.080   1.651  0.3742  0.6398  0.4507
 1019TIP3   OH224615   2.363   1.026   2.663  0.0753 -0.2534 -0.5382
 1019TIP3    H124616   2.404   1.086   2.726  0.5730 -0.9190 -0.2088
 1019TIP3    H224617   2.374   0.939   2.703  0.0969 -0.6492 -1.3894
 1020TIP3   OH224618   1.564   5.980   0.609 -0.0600 -0.1166  0.5616
 1020TIP3    H124619   1.583   5.969   0.516 -1.0984 -0.9775  0.4249
 1020TIP3    H224620   1.634   5.933   0.654  0.0244 -0.3506  0.1868
 1021TIP3   OH224621   3.484   1.855   8.446 -0.3167 -0.4086 -0.0303
 1021TIP3    H124622   3.506   1.858   8.539  0.0330  0.4598 -0.1361
 1021TIP3    H224623   3.398   1.811   8.444 -0.3317 -0.4292  0.6996
 1022TIP3   OH224624   1.518   1.012   8.488 -0.7081  0.8855 -0.2106
 1022TIP3    H124625   1.543   0.998   8.579 -1.2707  1.0390 -0.0291
 1022TIP3    H224626   1.542   1.103   8.471 -1.5908  1.1811  0.1129
 1023TIP3   OH224627   3.235   0.551   7.732 -0.6548 -0.3417  0.3918
 1023TIP3    H124628   3.258   0.518   7.644  0.1286 -0.7522  0.7333
 1023TIP3    H224629   3.143   0.577   7.725 -0.6963 -0.6761 -0.4628
 1024TIP3   OH224630   0.616   6.885   8.091 -0.1223 -0.4957 -0.6480
 1024TIP3    H124631   0.648   6.799   8.062 -0.7909 -1.4655  1.2833
 1024TIP3    H224632   0.533   6.866   8.135 -1.1528  1.3937 -1.6225
 1025TIP3   OH224633   0.200   6.036   6.728  0.2659  0.3218 -0.2007
 1025TIP3    H124634   0.173   6.128   6.727  2.1612  0.9376  0.9103
 1025TIP3    H224635   0.228   6.019   6.638 -0.1414  0.8060 -0.4251
 1026TIP3   OH224636   5.457   2.857   1.363 -0.2708 -0.1053  0.3993
 1026TIP3    H124637   5.548   2.832   1.346 -0.2845 -0.4520  0.8138
 1026TIP3    H224638   5.411   2.834   1.282  0.3520  1.9874 -0.6355
 1027TIP3   OH224639   6.801   2.753   1.812 -0.0114  0.3576  0.2755
 1027TIP3    H124640   6.877   2.714   1.768 -0.0316  2.1123 -1.4832
 1027TIP3    H224641   6.752   2.796   1.741 -1.5663  0.9635  1.6578
 1028TIP3   OH224642   4.398   1.984   0.233  0.2925 -0.0373 -0.1411
 1028TIP3    H124643   4.425   2.051   0.170 -3.5536  1.1911 -0.7736
 1028TIP3    H224644   4.418   2.022   0.319  1.6665  0.1888 -0.5517
 1029TIP3   OH224645   3.993   5.970   0.453  0.4798 -0.1452 -0.1149
 1029TIP3    H124646   4.022   5.973   0.362  0.0400 -0.4108 -0.2667
 1029TIP3    H224647   3.920   5.909   0.453  0.0334  0.3801  0.2948
 1030TIP3   OH224648   0.544   1.121   1.432  0.4800  0.0787  0.4389
 1030TIP3    H124649   0.565   1.050   1.493  0.4647  0.6955  1.1820
 1030TIP3    H224650   0.448   1.124   1.430  0.4561 -0.7280 -0.5721
 1031TIP3   OH224651   6.550   3.766   6.895 -0.1117 -0.1560  0.6676
 1031TIP3    H124652   6.557   3.717   6.977  1.0587 -1.4384 -0.1609
 1031TIP3    H224653   6.535   3.700   6.828 -0.7740  0.8502 -0.2098
 1032TIP3   OH224654   3.608   3.406   2.319  0.1119 -0.1114  0.0516
 1032TIP3    H124655   3.642   3.464   2.251  0.3000 -1.1468 -0.7807
 1032TIP3    H224656   3.686   3.365   2.357 -0.0937 -2.1268 -1.5233
 1033TIP3   OH224657   3.780   3.276   0.011 -0.1616 -0.1839 -0.0542
 1033TIP3    H124658   3.753   3.342  -0.053  0.2063 -1.1379 -1.2342
 1033TIP3    H224659   3.746   3.308   0.094 -0.2009  1.3566 -0.6346
 1034TIP3   OH224660   0.457   6.745   0.506 -0.5310 -0.0850  0.0590
 1034TIP3    H124661   0.401   6.822   0.517  0.2822  0.5507 -0.1450
 1034TIP3    H224662   0.437   6.690   0.582 -1.0701  0.3620  0.2465
 1035TIP3   OH224663   2.571   6.664   7.953  0.2590 -0.2225  0.2253
 1035TIP3    H124664   2.661   6.663   7.922  0.3612 -0.1677  0.5177
 1035TIP3    H224665   2.553   6.574   7.979 -0.2396 -0.5458 -1.1577
 1036TIP3   OH224666   5.287   4.196   8.441 -0.4139 -0.1294 -0.6635
 1036TIP3    H124667   5.318   4.151   8.519 -0.6358  0.7886 -0.0285
 1036TIP3    H224668   5.336   4.156   8.369 -0.3152 -1.0898 -0.0820
 1037TIP3   OH224669   5.194   0.098   0.171  0.0500  0.0725  0.6256
 1037TIP3    H124670   5.194   0.191   0.150  3.4541  0.1595  0.5675
 1037TIP3    H224671   5.131   0.060   0.109 -0.9928  2.2008  0.2767
 1038TIP3   OH224672   4.805   3.538   0.460 -0.3885  0.7305  0.4879
 1038TIP3    H124673   4.758   3.474   0.406 -1.2932  0.6124  1.3936
 1038TIP3    H224674   4.879   3.489   0.495 -1.4992 -0.0711  1.7947
 1039TIP3   OH224675   1.138   4.282   7.923 -0.4518  0.3835  0.3343
 1039TIP3    H124676   1.196   4.233   7.864 -1.2341 -0.0736 -0.0764
 1039TIP3    H224677   1.065   4.309   7.867 -0.5507  1.1029  0.8049
 1040TIP3   OH224678   1.603   1.460   7.763 -0.1698  0.7530 -0.3794
 1040TIP3    H124679   1.685   1.410   7.763 -0.8616 -0.4236 -0.9602
 1040TIP3    H224680   1.537   1.398   7.730 -1.5779  1.2289  1.3776
 1041TIP3   OH224681   5.203   3.171   8.392  0.1404  0.1541 -0.0180
 1041TIP3    H124682   5.276   3.224   8.359  0.9546 -1.3240 -0.6921
 1041TIP3    H224683   5.236   3.082   8.390 -0.9106 -0.3194  1.8665
 1042TIP3   OH224684   6.330   3.810   0.302 -0.0209 -0.0517  0.0005
 1042TIP3    H124685   6.412   3.825   0.255  0.5689  1.0093  1.3057
 1042TIP3    H224686   6.355   3.807   0.394 -1.7438  3.8583  0.8257
 1043TIP3   OH224687   4.238   1.542   7.265 -0.4566 -0.2702 -0.1428
 1043TIP3    H124688   4.173   1.522   7.333 -1.2674  1.8344 -0.2261
 1043TIP3    H224689   4.188   1.585   7.196  0.6734 -0.6922 -1.2584
 1044TIP3   OH224690   2.826   4.001   7.986 -0.2012 -0.1664 -0.1897
 1044TIP3    H124691   2.795   4.092   7.989 -1.4294 -0.5715  0.4963
 1044TIP3    H224692   2.750   3.952   7.955 -0.3868 -1.2439  1.7764
 1045TIP3   OH224693   2.542   4.664   0.052 -0.5827 -0.1577 -0.7123
 1045TIP3    H124694   2.624   4.645   0.097 -0.8896 -0.8357 -0.4193
 1045TIP3    H224695   2.515   4.749   0.086 -1.1079 -0.9177  0.8697
 1046TIP3   OH224696   5.659   5.039   7.178 -0.4700 -0.0218  0.0894
 1046TIP3    H124697   5.648   4.944   7.179 -0.7096  0.0058  0.2125
 1046TIP3    H224698   5.579   5.073   7.218  0.0762  0.1848  1.0434
 1047TIP3   OH224699   2.588   6.077   7.618  0.3375  0.2707 -0.3912
 1047TIP3    H124700   2.552   5.990   7.635  1.0440 -0.6005 -2.8090
 1047TIP3    H224701   2.676   6.074   7.655  0.0631  0.2592  0.2646
 1048TIP3   OH224702   2.605   4.871   7.719 -0.5007 -0.7493 -0.8739
 1048TIP3    H124703   2.694   4.835   7.718  0.6720  1.8815 -0.9035
 1048TIP3    H224704   2.599   4.920   7.636 -1.1949  0.7229  0.0028
 1049TIP3   OH224705   0.129   1.122   0.010  0.5446  0.2073 -0.0296
 1049TIP3    H124706   0.173   1.103   0.092  0.9444  1.3918  0.0447
 1049TIP3    H224707   0.124   1.038  -0.035  2.0895 -0.1179  0.3537
 1050TIP3   OH224708   4.432   0.322   1.400 -0.1064  0.5975 -0.1082
 1050TIP3    H124709   4.424   0.299   1.308 -1.0970 -0.1821  0.1475
 1050TIP3    H224710   4.459   0.414   1.400 -2.4284  1.3756 -1.2066
 1051TIP3   OH224711   4.544   5.074   7.458 -0.6800 -0.1906  0.2703
 1051TIP3    H124712   4.530   5.097   7.366 -0.1965  0.3074  0.3153
 1051TIP3    H224713   4.573   4.983   7.456  3.1127  0.8767 -0.4103
 1052TIP3   OH224714   3.980   4.950   7.751 -0.3732  0.0035 -0.1823
 1052TIP3    H124715   3.987   4.864   7.710 -2.3347 -0.1047 -0.4277
 1052TIP3    H224716   4.051   4.954   7.814 -1.6037 -2.7841  1.5420
 1053TIP3   OH224717   2.826   5.452   8.141 -0.2033  0.0424  0.0001
 1053TIP3    H124718   2.765   5.378   8.135  1.1625 -1.1061 -0.2603
 1053TIP3    H224719   2.908   5.418   8.105  0.3443  1.8433 -0.5613
 1054TIP3   OH224720   3.405   3.207   2.173 -0.0466 -0.0910 -0.1192
 1054TIP3    H124721   3.401   3.259   2.253 -0.7144  0.3763 -0.4505
 1054TIP3    H224722   3.402   3.116   2.203  2.2244 -0.0096  0.5462
 1055TIP3   OH224723   5.075   4.770   0.246 -0.3559  0.0385  0.0476
 1055TIP3    H124724   5.034   4.753   0.331 -1.1440 -0.0066 -0.3265
 1055TIP3    H224725   5.001   4.772   0.184  0.2625 -0.5925 -0.7409
 1056TIP3   OH224726   2.573   3.688   7.070  0.1304  0.1260 -0.2991
 1056TIP3    H124727   2.576   3.595   7.050  0.9110 -0.1369  0.8942
 1056TIP3    H224728   2.577   3.731   6.985 -1.8806 -0.9204 -0.9763
 1057TIP3   OH224729   2.293   0.327   0.335  0.3748  0.4414  0.0134
 1057TIP3    H124730   2.221   0.384   0.309 -0.8579 -1.2952 -0.5909
 1057TIP3    H224731   2.250   0.246   0.363  2.0371 -0.0990  1.1209
 1058TIP3   OH224732   4.878   5.580   8.485  0.6600  0.1609 -1.0472
 1058TIP3    H124733   4.832   5.505   8.446  1.1382 -0.4232 -0.5046
 1058TIP3    H224734   4.948   5.541   8.537 -0.3300  0.8593  0.9428
 1059TIP3   OH224735   0.479   4.449   2.045 -0.0347 -0.1339 -0.1176
 1059TIP3    H124736   0.433   4.519   1.999 -0.3082  0.0177  0.3836
 1059TIP3    H224737   0.448   4.368   2.004  0.0399  0.0198 -0.4803
 1060TIP3   OH224738   3.681   1.908   2.073  0.3471 -0.0254 -0.4815
 1060TIP3    H124739   3.772   1.912   2.042 -0.0277  1.8369 -1.5009
 1060TIP3    H224740   3.633   1.964   2.012 -1.2685  0.0561  0.8026
 1061TIP3   OH224741   5.752   0.493   1.076  0.5748 -0.1288 -0.5608
 1061TIP3    H124742   5.740   0.400   1.095 -0.2156 -0.2044 -1.3602
 1061TIP3    H224743   5.841   0.512   1.106 -0.1835 -0.4749  2.1771
 1062TIP3   OH224744   2.684   6.069   7.121  0.1207  0.2643  0.4385
 1062TIP3    H124745   2.747   6.042   7.054 -1.1095  0.3939 -0.8048
 1062TIP3    H224746   2.630   6.135   7.078 -0.9924  0.0118  1.4117
 1063TIP3   OH224747   6.313   6.399   0.006 -0.4017  0.8240  0.4043
 1063TIP3    H124748   6.317   6.345  -0.073  1.7202 -1.1252  1.7140
 1063TIP3    H224749   6.374   6.470  -0.011  1.6988 -0.7447  0.9734
 1064TIP3   OH224750   6.543   2.518   1.831  0.4805 -0.6331  0.1212
 1064TIP3    H124751   6.577   2.504   1.920  2.1244 -2.3663 -0.7051
 1064TIP3    H224752   6.486   2.594   1.839  1.2685 -0.1973  2.4834
 1065TIP3   OH224753   0.179   1.663   1.996  0.2777 -0.2921 -1.0331
 1065TIP3    H124754   0.189   1.627   2.084 -1.7847 -1.3088 -1.1628
 1065TIP3    H224755   0.179   1.586   1.939  0.5823  0.2829 -1.8192
 1066TIP3   OH224756   1.222   0.115   7.621 -0.1286 -0.3365 -0.2945
 1066TIP3    H124757   1.238   0.114   7.526  0.8898 -3.2854 -0.1935
 1066TIP3    H224758   1.127   0.119   7.628 -0.2132  0.2524 -1.4210
 1067TIP3   OH224759   1.997   2.128   7.519  0.4025 -0.2824 -0.0153
 1067TIP3    H124760   1.992   2.080   7.602 -1.2355  0.1471  0.1766
 1067TIP3    H224761   1.998   2.061   7.451 -3.6449 -0.7423  0.1586
 1068TIP3   OH224762   0.627   5.633   2.230 -0.6582  0.1586  0.6106
 1068TIP3    H124763   0.668   5.566   2.285 -2.9761 -0.5238  1.6115
 1068TIP3    H224764   0.534   5.628   2.251 -0.8400  4.8584  2.0380
 1069TIP3   OH224765   4.198   4.480   0.944 -0.1913  0.1736 -0.0816
 1069TIP3    H124766   4.277   4.484   0.997  0.0669 -0.0533 -0.4509
 1069TIP3    H224767   4.224   4.516   0.860 -0.5164  0.2223 -0.1629
 1070TIP3   OH224768   3.541   5.050   0.094 -0.2484  0.3018  0.5890
 1070TIP3    H124769   3.622   5.024   0.049 -0.0952 -1.3734  1.7664
 1070TIP3    H224770   3.491   4.969   0.102 -1.3348  1.0269  1.3172
 1071TIP3   OH224771   3.224   4.341   6.670  0.2021 -0.3588  0.1062
 1071TIP3    H124772   3.215   4.301   6.756 -0.1925 -2.6682 -0.9276
 1071TIP3    H224773   3.163   4.292   6.614  1.0727  0.4823 -1.6747
 1072TIP3   OH224774   5.663   4.493   0.408 -0.5866  0.2492  0.2368
 1072TIP3    H124775   5.681   4.468   0.498 -0.6380  0.6184  0.3531
 1072TIP3    H224776   5.600   4.565   0.415 -1.1147 -0.1794 -0.1190
 1073TIP3   OH224777   1.665   4.888   0.618  0.2361  0.0879 -0.1989
 1073TIP3    H124778   1.672   4.932   0.702 -0.3071  0.0539 -0.1311
 1073TIP3    H224779   1.599   4.938   0.570 -0.4185 -0.6769 -0.1062
 1074TIP3   OH224780   1.522   3.177   1.206 -0.3232 -0.1850  0.1886
 1074TIP3    H124781   1.430   3.163   1.228 -0.2612  0.9163  1.3077
 1074TIP3    H224782   1.531   3.272   1.198  0.3339 -0.3612 -1.8191
 1075TIP3   OH224783   3.534   2.006   7.576  0.2819 -0.6470 -0.0941
 1075TIP3    H124784   3.496   2.093   7.589  1.9893  0.1226  0.1379
 1075TIP3    H224785   3.461   1.945   7.587 -1.1077  0.7872 -0.9686
 1076TIP3   OH224786   2.067   2.199   8.234  0.3126  0.6196  0.0310
 1076TIP3    H124787   2.077   2.118   8.185 -1.6928  0.7185 -0.6499
 1076TIP3    H224788   2.150   2.210   8.280  1.4803 -0.6049 -1.6500
 1077TIP3   OH224789   6.096   1.775   2.565 -0.0167 -0.4313 -0.0280
 1077TIP3    H124790   6.099   1.749   2.657 -2.3164  2.2378  0.9626
 1077TIP3    H224791   6.029   1.719   2.526  0.1446 -0.7944  0.2149
 1078TIP3   OH224792   6.363   2.457   7.023 -0.5026 -0.2698 -0.2261
 1078TIP3    H124793   6.429   2.454   6.953  0.0807 -0.9974  0.3471
 1078TIP3    H224794   6.371   2.373   7.068 -0.2137  0.5462  1.3045
 1079TIP3   OH224795   2.612   4.434   7.353  0.4088  0.2205 -0.6799
 1079TIP3    H124796   2.548   4.364   7.359  0.4907  0.2253  0.2465
 1079TIP3    H224797   2.674   4.404   7.287  1.5473 -1.4731  1.0846
 1080TIP3   OH224798   1.827   1.246   2.221 -0.2847  0.1431 -0.3307
 1080TIP3    H124799   1.890   1.205   2.281  0.3065  1.4991  0.0177
 1080TIP3    H224800   1.750   1.263   2.275 -0.2500  0.1741 -0.2910
 1081TIP3   OH224801   1.350   6.128   0.095  0.4631  0.1120 -0.4749
 1081TIP3    H124802   1.371   6.216   0.126 -0.2087  0.0710  0.1512
 1081TIP3    H224803   1.353   6.134  -0.000 -0.0055  0.9364 -0.4530
 1082TIP3   OH224804   2.483   4.914   0.146  0.4607  0.1230 -0.0125
 1082TIP3    H124805   2.524   4.995   0.114 -2.6368  1.6584 -0.4193
 1082TIP3    H224806   2.498   4.917   0.241 -1.8286  2.6797  0.3917
 1083TIP3   OH224807   2.900   6.191   0.260  0.3763 -0.1980 -0.6196
 1083TIP3    H124808   2.924   6.275   0.222  0.3597 -0.6180 -1.5725
 1083TIP3    H224809   2.912   6.203   0.354  0.6301  0.7832 -0.7697
 1084TIP3   OH224810   0.004   4.828   2.275 -0.0686 -0.2896  0.0524
 1084TIP3    H124811  -0.023   4.885   2.202 -2.5498 -1.9329 -0.4267
 1084TIP3    H224812  -0.009   4.883   2.353  0.5564  0.7832 -0.5654
 1085TIP3   OH224813   0.920   6.339   8.087  0.2707 -0.5067  0.3210
 1085TIP3    H124814   0.907   6.400   8.160  1.0292 -1.1121  0.9839
 1085TIP3    H224815   0.844   6.352   8.031  0.3297  0.9273  0.5298
 1086TIP3   OH224816   0.546   3.586   0.047 -0.0989 -0.3063 -0.1867
 1086TIP3    H124817   0.536   3.672   0.007 -0.9028 -0.5591 -0.5625
 1086TIP3    H224818   0.624   3.549   0.007  0.0170  0.0840 -0.3247
 1087TIP3   OH224819   2.658   4.945   1.749 -0.4297 -0.1757 -0.8740
 1087TIP3    H124820   2.578   4.931   1.801 -0.8952 -0.1099 -1.5584
 1087TIP3    H224821   2.714   4.998   1.805 -1.3894  0.8753 -0.8680
 1088TIP3   OH224822   5.614   6.097   1.769 -0.1858  0.0497  0.8854
 1088TIP3    H124823   5.689   6.062   1.819 -1.3533 -1.4354  1.6983
 1088TIP3    H224824   5.607   6.188   1.798  0.7410 -0.0446  1.4840
 1089TIP3   OH224825   0.088   1.070   8.065  0.3718 -0.0138 -0.4222
 1089TIP3    H124826   0.081   1.088   7.971  1.6816 -0.7798 -0.6796
 1089TIP3    H224827   0.130   1.148   8.101 -0.9654  0.6796 -0.3038
 1090TIP3   OH224828   0.416   5.144   0.344  0.0322 -0.1754  0.0259
 1090TIP3    H124829   0.381   5.117   0.259  1.1248  0.2216 -0.5741
 1090TIP3    H224830   0.371   5.226   0.364  0.2777  0.0954 -0.5146
 1091TIP3   OH224831   5.042   0.934   0.741 -0.5627  0.2049  0.5202
 1091TIP3    H124832   5.001   1.000   0.686 -0.8442  0.9462  1.5913
 1091TIP3    H224833   5.134   0.936   0.716 -0.6997  0.4899  0.0367
 1092TIP3   OH224834   0.641   2.111   1.002 -0.1457 -0.3505  0.6861
 1092TIP3    H124835   0.604   2.162   0.930 -0.0030 -0.7263  0.3418
 1092TIP3    H224836   0.599   2.026   0.995  1.3787 -1.0765 -0.2401
 1093TIP3   OH224837   4.126   4.838   7.352 -0.1111 -0.1925  0.1243
 1093TIP3    H124838   4.202   4.780   7.353  0.5017  0.6102  0.5429
 1093TIP3    H224839   4.084   4.820   7.267  1.6674  0.7895 -1.0326
 1094TIP3   OH224840   6.571   5.747   7.457  0.3020 -0.0766 -0.7440
 1094TIP3    H124841   6.520   5.765   7.535  1.3067 -0.4906  0.0270
 1094TIP3    H224842   6.575   5.652   7.452  0.9546 -0.0537 -0.8048
 1095TIP3   OH224843   4.566   4.567   0.854 -0.5950  0.4950  0.5272
 1095TIP3    H124844   4.607   4.653   0.844 -1.1718  0.6890 -0.2551
 1095TIP3    H224845   4.589   4.540   0.943  0.4399  1.0068  0.4334
 1096TIP3   OH224846   2.574   4.609   1.637 -0.2778 -0.0258  0.1259
 1096TIP3    H124847   2.575   4.533   1.694 -1.0980  0.2032  0.4553
 1096TIP3    H224848   2.658   4.652   1.654  0.2196 -0.8817 -0.1170
 1097TIP3   OH224849   6.817   1.883   7.645  0.5943  0.0837 -0.4660
 1097TIP3    H124850   6.817   1.842   7.558 -2.8270  2.4772 -1.8092
 1097TIP3    H224851   6.739   1.847   7.688 -0.3597  2.2233 -0.2704
 1098TIP3   OH224852   5.445   1.469   7.011  0.2325 -0.0225  0.0703
 1098TIP3    H124853   5.464   1.407   6.941  1.0666  0.5139 -0.1833
 1098TIP3    H224854   5.507   1.446   7.080  1.5528  1.4323 -0.5775
 1099TIP3   OH224855   5.764   5.019   1.671 -0.2165 -0.5905  0.7958
 1099TIP3    H124856   5.793   5.000   1.760  0.3206 -1.2356  0.4929
 1099TIP3    H224857   5.829   4.975   1.615 -0.4659 -0.0763  0.0890
 1100TIP3   OH224858   3.921   0.837   7.858 -0.0217 -0.1352  0.3391
 1100TIP3    H124859   3.838   0.790   7.857  0.1392 -0.4175  0.1970
 1100TIP3    H224860   3.982   0.779   7.812  0.4777 -0.3400  1.2415
 1101TIP3   OH224861   0.435   5.290   1.748 -0.0015 -0.1629  1.3475
 1101TIP3    H124862   0.418   5.237   1.670  1.3232  0.0719  0.8586
 1101TIP3    H224863   0.371   5.361   1.744  0.8917  0.6084 -0.2978
 1102TIP3   OH224864   0.504   6.925   6.263 -0.1218  0.4403 -0.0416
 1102TIP3    H124865   0.591   6.920   6.303 -0.3909 -1.8060  0.4193
 1102TIP3    H224866   0.503   6.852   6.201 -2.1215 -0.4984  1.0013
 1103TIP3   OH224867   5.503   3.957   7.908 -0.2657  0.2604  0.4738
 1103TIP3    H124868   5.442   3.934   7.978  0.7571 -2.3058  0.6278
 1103TIP3    H224869   5.498   3.884   7.846  0.1668  1.6252 -1.2540
 1104TIP3   OH224870   0.662   6.597   2.201 -0.0575  0.4908  0.2223
 1104TIP3    H124871   0.745   6.550   2.202 -1.2508 -1.7299  1.7217
 1104TIP3    H224872   0.680   6.678   2.249  1.5745  0.7951 -0.8134
 1105TIP3   OH224873   5.357   2.656   2.389  0.0144 -0.0213 -0.3856
 1105TIP3    H124874   5.332   2.573   2.428  0.1150 -0.0922 -0.4726
 1105TIP3    H224875   5.443   2.675   2.426 -0.5881  0.7179  0.6983
 1106TIP3   OH224876   0.643   5.595   6.879  0.2373 -0.3191  0.4503
 1106TIP3    H124877   0.724   5.611   6.927 -0.2277  0.5258  0.9781
 1106TIP3    H224878   0.669   5.540   6.805  1.5273  1.0387 -0.1465
 1107TIP3   OH224879   5.606   4.849   0.001 -0.0659  0.2411 -0.4475
 1107TIP3    H124880   5.683   4.836   0.057 -0.1290 -0.5165 -0.5362
 1107TIP3    H224881   5.532   4.827   0.057 -0.2336  0.9957 -0.3550
 1108TIP3   OH224882   0.602   1.124   8.451  0.2834 -0.1190 -0.0749
 1108TIP3    H124883   0.654   1.119   8.531  0.0644  2.0304  0.2699
 1108TIP3    H224884   0.592   1.033   8.423  1.7548 -0.7993  1.4232
 1109TIP3   OH224885   2.844   4.351   7.729  0.8129  0.2917  0.6515
 1109TIP3    H124886   2.890   4.420   7.777 -0.0800  1.1085  0.3784
 1109TIP3    H224887   2.774   4.398   7.682  0.2649 -0.7890  0.3645
 1110TIP3   OH224888   3.679   1.647   2.801  0.0458  0.0333  0.3277
 1110TIP3    H124889   3.649   1.737   2.787 -1.1354 -0.4080 -0.1442
 1110TIP3    H224890   3.728   1.626   2.722 -0.5482 -0.0710 -0.0190
 1111TIP3   OH224891   0.887   3.562   7.267  0.1424 -0.3631  0.1714
 1111TIP3    H124892   0.978   3.550   7.296  0.3841 -0.3421 -0.5460
 1111TIP3    H224893   0.895   3.586   7.174 -0.5723  0.1871  0.2448
 1112TIP3   OH224894   0.531   4.955   1.032 -0.2168  0.1435 -0.2974
 1112TIP3    H124895   0.474   4.975   0.958  0.0730 -0.2541 -0.6391
 1112TIP3    H224896   0.603   5.017   1.025 -1.8296  2.4081  1.6262
 1113TIP3   OH224897   6.013   1.388   8.163  0.4636 -0.5443  0.3657
 1113TIP3    H124898   5.981   1.444   8.093  0.1622 -1.2006 -0.0260
 1113TIP3    H224899   5.937   1.335   8.188  0.1861  0.5830  2.0998
 1114TIP3   OH224900   2.077   6.405   1.768  0.5929 -0.1073  0.5086
 1114TIP3    H124901   2.005   6.448   1.723  2.4017  1.6636 -0.8481
 1114TIP3    H224902   2.044   6.390   1.857 -1.9232 -0.7339 -0.4469
 1115TIP3   OH224903   3.530   2.320   7.077 -0.4825 -0.4495  0.7493
 1115TIP3    H124904   3.592   2.353   7.012  0.9968 -0.7987  1.9285
 1115TIP3    H224905   3.473   2.395   7.095 -1.3665 -0.5162 -1.3695
 1116TIP3   OH224906   6.139   0.696   8.301  0.0329  1.4039  0.0499
 1116TIP3    H124907   6.087   0.746   8.364 -1.7460  0.0913 -0.3074
 1116TIP3    H224908   6.074   0.655   8.244  1.2665 -2.3859  1.1249
 1117TIP3   OH224909   6.912   1.452   0.245  0.8341  0.2726 -0.1751
 1117TIP3    H124910   6.965   1.518   0.289 -0.3983  1.3087 -0.1634
 1117TIP3    H224911   6.861   1.501   0.180 -0.1925 -0.6461 -0.1051
 1118TIP3   OH224912   3.320   2.938   1.837  0.5468 -0.1521 -0.2443
 1118TIP3    H124913   3.339   3.032   1.833 -2.5187  0.6939  1.4650
 1118TIP3    H224914   3.403   2.898   1.864  2.1684  1.8962 -1.8362
 1119TIP3   OH224915   3.463   1.545   6.635  0.3933  0.0460 -0.1709
 1119TIP3    H124916   3.384   1.502   6.603 -0.1089  0.8144 -0.0068
 1119TIP3    H224917   3.530   1.525   6.570 -0.0652 -0.2150 -0.5624
 1120TIP3   OH224918   5.113   1.086   0.236 -0.1694  0.1295  0.2188
 1120TIP3    H124919   5.121   0.992   0.252 -0.0037 -0.1317 -1.3273
 1120TIP3    H224920   5.054   1.093   0.161 -1.2872  1.3414  1.1518
 1121TIP3   OH224921   5.967   1.142   7.222 -0.5984  0.1870  0.3734
 1121TIP3    H124922   6.048   1.151   7.272 -1.4293 -0.9153  2.0060
 1121TIP3    H224923   5.913   1.216   7.249  0.1609  1.4709 -1.4294
 1122TIP3   OH224924   5.235   4.154   7.667 -0.6059  0.3710 -0.6418
 1122TIP3    H124925   5.209   4.240   7.701 -0.9560  0.6702 -1.6338
 1122TIP3    H224926   5.329   4.161   7.652 -0.3176  0.0222  0.8393
 1123TIP3   OH224927   1.155   4.189   1.456  0.1163 -0.3989 -0.1572
 1123TIP3    H124928   1.178   4.257   1.521 -1.1613  1.9483 -1.9896
 1123TIP3    H224929   1.089   4.136   1.499 -0.2973  0.7584  0.6909
 1124TIP3   OH224930   3.383   1.515   2.052 -0.3191  0.4925 -0.2218
 1124TIP3    H124931   3.324   1.460   2.105 -0.0574 -0.2292 -0.6657
 1124TIP3    H224932   3.408   1.586   2.111  0.4130 -0.5998  0.8387
 1125TIP3   OH224933   3.411   1.840   7.934  0.4046 -0.7353  1.0383
 1125TIP3    H124934   3.465   1.858   8.010  2.1384 -0.9372 -0.0965
 1125TIP3    H224935   3.393   1.927   7.897 -0.2710 -0.6521  1.5375
 1126TIP3   OH224936   1.310   2.798   7.873  0.4604  0.3183 -0.6868
 1126TIP3    H124937   1.398   2.798   7.834  1.0415  1.4745  0.5688
 1126TIP3    H224938   1.293   2.706   7.893  1.7643  0.1800 -0.1299
 1127TIP3   OH224939   1.797   3.659   1.006 -0.7560  0.3490 -0.0541
 1127TIP3    H124940   1.824   3.712   1.081  1.5636  0.5280 -0.9180
 1127TIP3    H224941   1.769   3.722   0.940 -0.3848  0.3636 -0.2022
 1128TIP3   OH224942   5.613   4.225   0.785  0.1171 -0.2325  0.0415
 1128TIP3    H124943   5.618   4.298   0.723 -0.2085  0.1068  0.4126
 1128TIP3    H224944   5.676   4.247   0.853  1.4322 -1.2309 -0.8047
 1129TIP3   OH224945   0.147   0.430   2.121  0.5291  0.0363 -0.0170
 1129TIP3    H124946   0.151   0.420   2.026 -0.0365 -2.5179  0.1539
 1129TIP3    H224947   0.202   0.506   2.140  0.3824  0.7874 -2.3993
 1130TIP3   OH224948   6.036   1.730   0.567 -0.2183 -0.1777 -0.0099
 1130TIP3    H124949   6.067   1.659   0.511  2.1040 -0.0550  1.0034
 1130TIP3    H224950   6.033   1.692   0.655 -1.8261  0.2038  0.1361
 1131TIP3   OH224951   4.691   6.507   0.245 -0.4348  0.3470 -0.1356
 1131TIP3    H124952   4.718   6.580   0.300 -0.8156  1.1358 -0.9716
 1131TIP3    H224953   4.649   6.548   0.169 -1.2415 -0.7553 -0.3104
 1132TIP3   OH224954   4.403   5.968   1.277 -0.3074 -0.0498  0.4800
 1132TIP3    H124955   4.491   5.934   1.293  0.1481  0.6628 -0.3945
 1132TIP3    H224956   4.414   6.030   1.205 -1.9002 -1.5845 -1.1604
 1133TIP3   OH224957   4.631   3.508   1.790 -0.2102  0.5284 -0.0040
 1133TIP3    H124958   4.550   3.463   1.767  0.3755 -0.5180 -0.1003
 1133TIP3    H224959   4.646   3.568   1.716 -0.5718  0.2899 -0.2766
 1134TIP3   OH224960   5.487   2.853   0.283  0.0606  0.1139 -0.0874
 1134TIP3    H124961   5.513   2.761   0.277  0.7301  0.3436 -0.9338
 1134TIP3    H224962   5.474   2.881   0.192 -0.7542  0.6903  0.1910
 1135TIP3   OH224963   5.677   2.126   0.588  0.7229  0.3342 -0.1453
 1135TIP3    H124964   5.771   2.131   0.605  0.8062 -0.0681 -0.4697
 1135TIP3    H224965   5.651   2.217   0.571  0.9260  0.5327  0.5686
 1136TIP3   OH224966   4.346   4.121   2.749 -0.6065 -0.7045 -0.4028
 1136TIP3    H124967   4.429   4.135   2.704 -1.1833  1.4703 -0.9352
 1136TIP3    H224968   4.347   4.182   2.822 -2.1113  0.1494 -1.0317
 1137TIP3   OH224969   4.749   1.839   1.515  0.0789  0.3494 -0.1827
 1137TIP3    H124970   4.781   1.899   1.582  1.0226 -1.2866  0.8714
 1137TIP3    H224971   4.666   1.806   1.549 -0.7666  1.4740 -1.0538
 1138TIP3   OH224972   4.175   1.490   1.074 -0.1747 -0.0842  0.2850
 1138TIP3    H124973   4.221   1.465   0.994  0.8499  1.6553  0.2679
 1138TIP3    H224974   4.095   1.438   1.073 -0.2822  0.0153 -1.9622
 1139TIP3   OH224975   0.323   3.019   0.263  0.1296  0.0583 -0.4528
 1139TIP3    H124976   0.274   3.063   0.333  0.3185  0.5134 -0.6010
 1139TIP3    H224977   0.415   3.038   0.282  0.2418 -0.6427 -0.2780
 1140TIP3   OH224978   0.738   4.152   8.214 -0.3436  0.5525  0.5298
 1140TIP3    H124979   0.779   4.152   8.128  0.6152 -0.4982  0.9735
 1140TIP3    H224980   0.682   4.074   8.214 -1.0103  1.0197  0.5630
 1141TIP3   OH224981   3.827   4.027   1.197  0.7663 -0.0939 -0.3176
 1141TIP3    H124982   3.829   4.120   1.219  0.5214 -0.2676  0.4700
 1141TIP3    H224983   3.862   4.022   1.108  0.1941  0.8209 -0.6004
 1142TIP3   OH224984   4.681   4.218   7.148  0.2646 -0.6792 -0.1805
 1142TIP3    H124985   4.698   4.241   7.057  1.7738 -2.0448 -0.2936
 1142TIP3    H224986   4.645   4.298   7.187 -1.9434 -0.5254 -2.3194
 1143TIP3   OH224987   5.754   3.084   1.285  0.1007  0.2681 -0.4239
 1143TIP3    H124988   5.753   2.989   1.291  2.3582  0.1339 -1.4814
 1143TIP3    H224989   5.695   3.104   1.211 -2.0614 -0.0911  1.1004
 1144TIP3   OH224990   2.756   6.245   6.587 -0.2891  0.2137  0.3571
 1144TIP3    H124991   2.851   6.240   6.573 -0.3729  0.2282 -0.2144
 1144TIP3    H224992   2.746   6.236   6.682  0.1785 -1.4250  0.2909
 1145TIP3   OH224993   2.040   2.017   2.047  0.0701 -0.1709 -0.3653
 1145TIP3    H124994   1.963   2.064   2.014  1.0835  1.7046 -0.1556
 1145TIP3    H224995   2.024   2.007   2.141  0.6919  1.5159 -0.0519
 1146TIP3   OH224996   4.889   5.356   6.865 -1.1729 -0.7095 -0.2372
 1146TIP3    H124997   4.842   5.315   6.792 -0.3623  0.3858 -1.4370
 1146TIP3    H224998   4.979   5.323   6.856 -1.0757 -0.6060  0.3169
 1147TIP3   OH224999   0.348   0.479   0.213 -0.4972  0.9205 -0.7249
 1147TIP3    H125000   0.332   0.389   0.183  1.0641  0.2358  0.3591
 1147TIP3    H225001   0.306   0.534   0.147 -0.1831 -0.5833 -2.2454
 1148TIP3   OH225002   1.950   5.870   6.930  0.2296 -0.6166 -0.1011
 1148TIP3    H125003   1.910   5.790   6.894 -1.1586  0.0198 -0.0321
 1148TIP3    H225004   2.036   5.842   6.960 -0.0768 -2.0084 -0.4342
 1149TIP3   OH225005   5.940   2.655   1.459 -0.1559 -0.2079 -0.2971
 1149TIP3    H125006   6.016   2.684   1.509 -0.6647 -0.1810  0.4769
 1149TIP3    H225007   5.971   2.651   1.368  0.8603 -0.5365  0.0513
 1150TIP3   OH225008   5.039   6.577   1.084 -0.4587 -0.5803  0.5763
 1150TIP3    H125009   5.006   6.659   1.120 -1.3059 -0.3678 -0.6231
 1150TIP3    H225010   5.127   6.600   1.052  0.7098 -0.9969  3.2038
 1151TIP3   OH225011   0.371   0.860   6.527 -0.7905 -0.2366  0.2242
 1151TIP3    H125012   0.333   0.934   6.573 -2.6985 -0.3645 -1.0537
 1151TIP3    H225013   0.311   0.842   6.455  2.4669  0.5587 -2.9801
 1152TIP3   OH225014   0.368   1.991   7.159 -0.3394 -0.1200 -0.7442
 1152TIP3    H125015   0.389   1.922   7.096  3.8801  1.1455 -1.0395
 1152TIP3    H225016   0.329   2.061   7.107 -0.5512 -0.5883 -1.2228
 1153TIP3   OH225017   2.866   0.904   7.874  0.0760 -0.0049  0.5200
 1153TIP3    H125018   2.937   0.912   7.810  0.0810  0.9959  0.6332
 1153TIP3    H225019   2.910   0.916   7.958 -0.4029  2.2471  0.5289
 1154TIP3   OH225020   4.568   2.667   7.444 -0.1397  0.4306  0.4608
 1154TIP3    H125021   4.501   2.670   7.512  0.2988  0.7814  0.8941
 1154TIP3    H225022   4.651   2.671   7.493  0.1917  0.0476 -0.0631
 1155TIP3   OH225023   2.389   4.308   2.010 -0.4600  0.2775  0.3236
 1155TIP3    H125024   2.324   4.277   2.075  0.0781  1.3551  1.4181
 1155TIP3    H225025   2.469   4.319   2.061  0.5969 -1.0124 -1.0181
 1156TIP3   OH225026   5.157   4.683   7.742  0.3247  0.3287 -0.3338
 1156TIP3    H125027   5.208   4.695   7.823  0.6866 -1.4977 -0.2531
 1156TIP3    H225028   5.154   4.588   7.729 -3.1868  0.3043 -0.2924
 1157TIP3   OH225029   2.458   6.393   0.915 -0.1682 -0.0989 -0.2804
 1157TIP3    H125030   2.476   6.487   0.923  0.1666 -0.1087 -0.8654
 1157TIP3    H225031   2.504   6.366   0.836  0.0676 -0.8432  0.1007
 1158TIP3   OH225032   0.164   5.687   0.016  0.2673 -0.1925  0.3226
 1158TIP3    H125033   0.156   5.707   0.109 -1.1049  1.4028 -0.0748
 1158TIP3    H225034   0.088   5.730  -0.024  0.8408 -0.8084 -1.5354
 1159TIP3   OH225035   4.302   3.458   7.379 -0.6179  0.1889  0.3254
 1159TIP3    H125036   4.218   3.495   7.406 -0.9131  1.5116 -2.0570
 1159TIP3    H225037   4.279   3.395   7.311  0.2589 -0.0353  0.2316
 1160TIP3   OH225038   5.668   5.944   2.466  0.0026 -0.1397  0.7685
 1160TIP3    H125039   5.639   5.858   2.438  0.4034 -0.5104  1.4558
 1160TIP3    H225040   5.665   5.940   2.562 -1.6767  1.1952  0.8208
 1161TIP3   OH225041   3.055   2.600   1.546  0.1663 -0.1699  0.0424
 1161TIP3    H125042   3.128   2.545   1.516  0.1228  0.3116 -0.9810
 1161TIP3    H225043   3.092   2.651   1.619  1.0921  0.6263 -0.9495
 1162TIP3   OH225044   1.204   2.953   1.661 -0.2761 -0.5520  0.4718
 1162TIP3    H125045   1.124   2.917   1.623  0.0314 -0.1107 -0.6493
 1162TIP3    H225046   1.263   2.878   1.668  0.1325 -0.4286 -1.2318
 1163TIP3   OH225047   1.426   4.851   8.330  0.0584 -0.1837 -0.0221
 1163TIP3    H125048   1.446   4.933   8.286  3.5254 -1.3321 -0.8965
 1163TIP3    H225049   1.369   4.804   8.270 -0.6667  0.9089 -0.2174
 1164TIP3   OH225050   4.042   0.931   8.258  0.3563  0.1857 -0.0982
 1164TIP3    H125051   3.995   1.003   8.301 -0.9884 -0.1824 -0.8962
 1164TIP3    H225052   4.131   0.936   8.293  0.3824  2.4194 -0.3539
 1165TIP3   OH225053   5.541   5.082   8.389 -0.4874  0.4292 -0.8293
 1165TIP3    H125054   5.583   5.036   8.462  1.0129 -0.3375 -2.1216
 1165TIP3    H225055   5.453   5.044   8.385 -1.3857  1.9076  1.7909
 1166TIP3   OH225056   1.795   0.598   1.863  0.1532  0.1420  0.1313
 1166TIP3    H125057   1.888   0.580   1.871  0.0279 -0.7149 -0.1894
 1166TIP3    H225058   1.770   0.632   1.949  0.3436 -1.6950  0.9713
 1167TIP3   OH225059   6.225   0.314   8.481 -0.3596  0.6114 -0.0545
 1167TIP3    H125060   6.167   0.264   8.538 -1.2020  0.9066 -0.6260
 1167TIP3    H225061   6.166   0.351   8.415  0.6818 -0.4436 -1.6379
 1168TIP3   OH225062   4.634   3.433   8.051  0.1527 -0.0111 -0.3067
 1168TIP3    H125063   4.617   3.489   7.975  3.5892 -0.8824 -1.9188
 1168TIP3    H225064   4.670   3.493   8.117 -2.1835  0.6275  0.4839
 1169TIP3   OH225065   6.066   1.151   1.952 -0.2545 -0.2862 -0.9222
 1169TIP3    H125066   6.071   1.058   1.972 -0.1473 -0.4825 -1.8102
 1169TIP3    H225067   6.094   1.195   2.032  1.3215 -1.0451 -1.0241
 1170TIP3   OH225068   3.738   1.914   7.935 -0.1054 -0.5673 -0.0181
 1170TIP3    H125069   3.788   1.970   7.875 -0.7211 -0.3043 -0.2848
 1170TIP3    H225070   3.696   1.850   7.878 -2.2367  0.8237 -0.1116
 1171TIP3   OH225071   3.214   0.456   0.844 -0.2262 -0.0239 -0.0719
 1171TIP3    H125072   3.184   0.468   0.754 -0.2539  1.4494  0.1150
 1171TIP3    H225073   3.160   0.384   0.878  0.2452 -1.0398 -1.4151
 1172TIP3   OH225074   1.361   5.165   0.142 -0.1565 -0.7051 -0.3214
 1172TIP3    H125075   1.440   5.126   0.106 -0.0816  0.8458 -1.9481
 1172TIP3    H225076   1.366   5.257   0.116 -2.4787 -0.5660 -0.4365
 1173TIP3   OH225077   4.089   5.633   7.669 -0.0458  0.8961  0.4326
 1173TIP3    H125078   4.078   5.602   7.758  0.1844 -0.4596  0.0020
 1173TIP3    H225079   4.038   5.573   7.615 -0.0521  1.5987 -0.3707
 1174TIP3   OH225080   5.931   2.539   0.297 -0.5479  0.2094  0.6402
 1174TIP3    H125081   5.991   2.527   0.223  0.8941 -0.2998  1.8437
 1174TIP3    H225082   5.912   2.450   0.326 -1.5201  0.3914  0.5878
 1175TIP3   OH225083   5.484   2.996   2.366  0.2920 -0.2999  0.0271
 1175TIP3    H125084   5.541   2.929   2.403  0.7732  0.7590  1.2882
 1175TIP3    H225085   5.507   2.999   2.273  1.4635 -0.7122  0.2913
 1176TIP3   OH225086   3.516   0.159   8.487  0.4287 -0.3489 -0.0921
 1176TIP3    H125087   3.462   0.139   8.411 -0.7349  0.3624  0.5121
 1176TIP3    H225088   3.520   0.076   8.536  0.6846 -0.6498 -0.6154
 1177TIP3   OH225089   4.539   5.143   7.195 -0.1891  0.0795  0.1841
 1177TIP3    H125090   4.534   5.119   7.102 -1.0164 -0.6752  0.4059
 1177TIP3    H225091   4.570   5.234   7.195 -2.0780  0.7878 -0.9339
 1178TIP3   OH225092   5.030   6.419   2.197 -0.0913 -0.7503  0.4862
 1178TIP3    H125093   5.008   6.506   2.165  1.3421 -0.4408  0.2605
 1178TIP3    H225094   5.034   6.428   2.292  3.0753  0.2825  0.3757
 1179TIP3   OH225095   5.760   0.755   1.356 -0.2730 -0.0133  0.0081
 1179TIP3    H125096   5.848   0.791   1.369 -0.0963 -0.4947  0.1606
 1179TIP3    H225097   5.745   0.764   1.262  0.3279 -0.8051 -0.1706
 1180TIP3   OH225098   4.690   1.857   2.010 -0.2529 -0.6420 -0.1181
 1180TIP3    H125099   4.620   1.811   1.962 -0.1524 -0.8238 -0.0909
 1180TIP3    H225100   4.680   1.828   2.101  0.6110 -1.6108 -0.3155
 1181TIP3   OH225101   5.443   5.431   1.906  0.2528 -0.2065 -0.4055
 1181TIP3    H125102   5.437   5.438   2.001 -1.6481  0.7550 -0.5577
 1181TIP3    H225103   5.508   5.497   1.881  0.9446 -0.6342  0.2238
 1182TIP3   OH225104   1.944   4.213   1.058  0.3420  0.2965 -0.0920
 1182TIP3    H125105   1.956   4.283   0.994 -1.7326 -0.5241 -1.4888
 1182TIP3    H225106   1.897   4.255   1.130 -0.8587  0.4219 -0.9036
 1183TIP3   OH225107   1.216   0.497   0.540 -0.2806  0.8144 -0.2801
 1183TIP3    H125108   1.180   0.420   0.584  1.5185 -1.1725 -1.9942
 1183TIP3    H225109   1.162   0.508   0.462  0.4626  0.1633 -0.9125
 1184TIP3   OH225110   4.267   6.628   6.965  0.0127  0.1806 -0.0044
 1184TIP3    H125111   4.252   6.536   6.944 -0.5958 -0.0029  1.1043
 1184TIP3    H225112   4.354   6.629   7.005  0.4540  0.2609 -0.9529
 1185TIP3   OH225113   5.412   3.600   0.067  0.3860  0.4398 -0.7095
 1185TIP3    H125114   5.500   3.585   0.033 -0.1906 -0.6675 -1.7864
 1185TIP3    H225115   5.354   3.567  -0.001 -0.8751  0.9706  0.0663
 1186TIP3   OH225116   3.920   3.963   2.479  0.5953 -0.1525  0.5889
 1186TIP3    H125117   3.968   3.965   2.562 -0.4572 -1.5040  1.2705
 1186TIP3    H225118   3.828   3.961   2.505  0.2567 -1.2205 -0.5800
 1187TIP3   OH225119   4.083   1.544   7.491 -0.0468  0.0256  0.1708
 1187TIP3    H125120   4.128   1.529   7.574 -1.9528  0.7173  1.4273
 1187TIP3    H225121   3.997   1.504   7.503 -0.9641  1.5723 -0.8131
 1188TIP3   OH225122   5.318   6.886   8.077  0.3044 -0.6533 -0.8556
 1188TIP3    H125123   5.375   6.821   8.036 -0.7192 -0.3235 -2.8963
 1188TIP3    H225124   5.354   6.971   8.052  0.9255 -0.3980  0.7869
 1189TIP3   OH225125   6.631   1.102   7.914 -0.0530 -0.0066 -0.2666
 1189TIP3    H125126   6.563   1.142   7.969  0.3722 -0.8155  0.8788
 1189TIP3    H225127   6.638   1.012   7.946  0.7258 -0.2838 -1.1799
 1190TIP3   OH225128   2.980   4.705   7.236  0.1204  0.1922  0.0191
 1190TIP3    H125129   2.918   4.659   7.179 -0.1379  1.4859 -0.7934
 1190TIP3    H225130   3.063   4.659   7.223  0.3569  1.1631 -2.3819
 1191TIP3   OH225131   5.055   2.358   7.672 -0.1598  0.0152  0.2248
 1191TIP3    H125132   5.036   2.343   7.765  2.2153 -2.6864  0.4296
 1191TIP3    H225133   5.021   2.280   7.628  0.0408  0.5856 -0.9800
 1192TIP3   OH225134   3.654   2.855   1.165 -0.0537  0.0636 -0.5686
 1192TIP3    H125135   3.704   2.917   1.219 -0.6112 -0.9185  1.1809
 1192TIP3    H225136   3.576   2.837   1.217 -0.4450 -1.2227 -1.5586
 1193TIP3   OH225137   6.535   4.310   7.352  0.5057 -0.2522  0.2470
 1193TIP3    H125138   6.540   4.271   7.440 -1.8407 -2.0999 -0.3262
 1193TIP3    H225139   6.562   4.239   7.294 -0.0898  0.2212 -0.6239
 1194TIP3   OH225140   2.869   2.376   2.544  0.2587 -0.1424  0.0210
 1194TIP3    H125141   2.881   2.461   2.500  0.4888 -1.2617 -2.2509
 1194TIP3    H225142   2.948   2.365   2.597  0.4539  0.8299 -0.0421
 1195TIP3   OH225143   2.243   4.560   7.409 -0.1688  0.1126 -0.3309
 1195TIP3    H125144   2.329   4.575   7.448  0.3857  0.1845 -1.5527
 1195TIP3    H225145   2.256   4.490   7.346 -0.7573  0.8360 -1.2955
 1196TIP3   OH225146   3.484   2.658   0.304 -0.1859  0.7284  0.5541
 1196TIP3    H125147   3.440   2.573   0.298  0.0029  0.6437  0.3232
 1196TIP3    H225148   3.523   2.659   0.391 -2.0511  1.5097  1.4287
 1197TIP3   OH225149   0.269   5.695   6.658  0.2401 -0.2890  0.1019
 1197TIP3    H125150   0.225   5.640   6.593  0.1159 -0.3874  0.2704
 1197TIP3    H225151   0.271   5.782   6.617  0.5989 -0.4531 -0.2397
 1198TIP3   OH225152   0.458   1.786   8.466  0.1221  0.1645  0.1163
 1198TIP3    H125153   0.505   1.723   8.412  1.2327  0.6401  0.4965
 1198TIP3    H225154   0.524   1.850   8.491 -0.6917  0.7458  0.8446
 1199TIP3   OH225155   2.593   4.677   7.226  0.3500  0.3612  0.3386
 1199TIP3    H125156   2.654   4.646   7.158  1.1055  0.3914  0.9784
 1199TIP3    H225157   2.595   4.608   7.292  1.0948  1.1936  1.2073
 1200TIP3   OH225158   5.131   2.581   8.064 -0.3929 -0.6316  0.5048
 1200TIP3    H125159   5.116   2.601   8.156 -2.6246  0.1802  0.0151
 1200TIP3    H225160   5.223   2.604   8.049 -0.2739  0.1801  2.2721
 1201TIP3   OH225161   6.336   5.275   1.543  0.2878 -0.0815 -0.2265
 1201TIP3    H125162   6.322   5.320   1.627 -1.5409  0.0324 -0.5367
 1201TIP3    H225163   6.336   5.346   1.478  1.4056 -0.1953 -0.3693
 1202TIP3   OH225164   2.116   0.187   1.822  0.1468 -0.8188  0.3096
 1202TIP3    H125165   2.202   0.229   1.826 -0.1699  0.1632 -1.7392
 1202TIP3    H225166   2.109   0.137   1.904  2.2197 -0.0986  0.9783
 1203TIP3   OH225167   3.720   1.038   0.116  0.1420  0.2793 -0.2387
 1203TIP3    H125168   3.662   1.052   0.042  0.9044 -0.7384 -1.0816
 1203TIP3    H225169   3.672   1.071   0.191 -1.8367 -1.1646 -0.7819
 1204TIP3   OH225170   2.853   5.247   1.840  0.3368  0.2959  0.6324
 1204TIP3    H125171   2.930   5.290   1.803  1.0892 -1.4556  0.0432
 1204TIP3    H225172   2.836   5.293   1.922  0.6294  2.1523 -0.3033
 1205TIP3   OH225173   6.391   6.332   6.896  0.1850 -0.0731 -0.0656
 1205TIP3    H125174   6.391   6.385   6.976  1.0581  0.9822 -0.7500
 1205TIP3    H225175   6.310   6.354   6.852  1.0113  1.5132 -0.8541
 1206TIP3   OH225176   3.766   1.151   7.017 -0.5353  0.5680  0.4605
 1206TIP3    H125177   3.718   1.106   6.947  0.5101 -1.0099  0.7143
 1206TIP3    H225178   3.856   1.157   6.985 -0.8962  4.1733 -0.3367
 1207TIP3   OH225179   2.209   4.196   1.362  0.4591 -0.0871  0.3163
 1207TIP3    H125180   2.143   4.130   1.381  0.2245 -1.0988 -3.3985
 1207TIP3    H225181   2.161   4.279   1.365 -0.5141 -0.6116 -0.2298
 1208TIP3   OH225182   2.293   2.206   7.809  0.4785  0.1130 -0.7767
 1208TIP3    H125183   2.380   2.171   7.791  0.0296 -0.2806 -2.3519
 1208TIP3    H225184   2.244   2.193   7.728 -0.9564  0.6420 -0.0451
 1209TIP3   OH225185   1.341   3.800   1.747 -0.5247 -0.2634  0.0290
 1209TIP3    H125186   1.372   3.807   1.656 -0.9734 -1.7695 -0.2724
 1209TIP3    H225187   1.347   3.889   1.781  1.9034 -0.0470 -0.7254
 1210TIP3   OH225188   1.080   1.205   7.814 -0.3169  0.7364 -0.0031
 1210TIP3    H125189   1.018   1.273   7.787  1.5851  2.4357 -0.3739
 1210TIP3    H225190   1.125   1.244   7.889 -0.6744 -1.0581  1.1881
 1211TIP3   OH225191   4.052   3.918   1.779  0.0727 -0.4400  0.0552
 1211TIP3    H125192   4.046   3.897   1.686  0.6392 -0.0539 -0.0681
 1211TIP3    H225193   4.133   3.967   1.788  0.0166 -0.4640  0.7538
 1212TIP3   OH225194   1.509   1.704   1.031  0.0689  0.0203  0.1134
 1212TIP3    H125195   1.525   1.794   1.002 -1.0047 -0.0778 -0.8489
 1212TIP3    H225196   1.529   1.705   1.125  0.9261  1.0357 -0.0612
 1213TIP3   OH225197   0.869   1.420   1.506  0.2828 -0.3906 -0.2116
 1213TIP3    H125198   0.853   1.327   1.496  2.5017 -0.8550  0.1300
 1213TIP3    H225199   0.788   1.462   1.476 -0.2284 -2.3449 -1.7370
 1214TIP3   OH225200   0.821   0.571   0.353  0.6033  0.5990 -0.4313
 1214TIP3    H125201   0.841   0.637   0.419  1.0587 -0.2203  0.2760
 1214TIP3    H225202   0.731   0.589   0.326  0.2483  0.6518  0.7744
 1215TIP3   OH225203   1.186   1.974   8.397  0.1682 -0.2403 -0.1304
 1215TIP3    H125204   1.171   2.048   8.338 -1.5870 -1.4403 -1.2975
 1215TIP3    H225205   1.145   1.900   8.353 -0.6222 -1.3516  2.2916
 1216TIP3   OH225206   3.341   6.417   1.447 -0.3317 -0.1645 -0.2188
 1216TIP3    H125207   3.285   6.361   1.501 -0.6132  1.6787  1.5364
 1216TIP3    H225208   3.285   6.490   1.421  1.0533  1.5854  1.3435
 1217TIP3   OH225209   1.208   2.320   6.543  0.0899  0.4967  0.0965
 1217TIP3    H125210   1.190   2.409   6.573  0.7246  0.3480  0.9396
 1217TIP3    H225211   1.292   2.325   6.499 -1.0199  0.7977 -2.1189
 1218TIP3   OH225212   2.528   2.197   1.234 -0.1083 -0.1715 -0.3688
 1218TIP3    H125213   2.561   2.197   1.324  1.6052 -0.4817 -0.9601
 1218TIP3    H225214   2.581   2.262   1.189  0.4992 -1.4824 -1.6223
 1219TIP3   OH225215   5.563   5.741   6.805 -0.0693  0.1176 -0.8973
 1219TIP3    H125216   5.608   5.710   6.726 -1.2333 -0.8975 -1.1941
 1219TIP3    H225217   5.474   5.707   6.796 -0.3625  0.4401  0.6084
 1220TIP3   OH225218   0.324   0.050   0.591  0.1800  0.2673 -0.6642
 1220TIP3    H125219   0.370   0.102   0.657  1.3651  0.4326 -1.5921
 1220TIP3    H225220   0.296   0.115   0.525 -2.5620  0.3791  0.4581
 1221TIP3   OH225221   5.831   3.387   0.155 -0.7501 -0.4260  0.2576
 1221TIP3    H125222   5.802   3.296   0.160  0.5158 -0.8448  0.2477
 1221TIP3    H225223   5.754   3.438   0.180 -1.5853 -1.4737 -0.0922
 1222TIP3   OH225224   4.744   2.580   0.367  0.1467 -0.2071  0.3406
 1222TIP3    H125225   4.704   2.638   0.432  0.9521  1.1256 -0.3097
 1222TIP3    H225226   4.838   2.592   0.378  0.3601 -1.7055  0.4379
 1223TIP3   OH225227   3.239   2.482   7.917  0.5137  0.6399 -0.0454
 1223TIP3    H125228   3.184   2.518   7.848  0.9069  0.5877 -0.3873
 1223TIP3    H225229   3.232   2.387   7.908  0.3423  0.6318  0.1641
 1224TIP3   OH225230   5.841   6.160   7.049 -0.4091 -0.2999  0.0790
 1224TIP3    H125231   5.844   6.075   7.004  0.5364 -0.1345 -0.1934
 1224TIP3    H225232   5.748   6.184   7.049 -0.4114 -0.0939 -2.2063
 1225TIP3   OH225233   6.479   3.610   1.263 -0.0880  0.6514 -0.6553
 1225TIP3    H125234   6.550   3.565   1.310 -0.4739  0.4654 -0.2425
 1225TIP3    H225235   6.445   3.544   1.203 -1.0970  0.1487  0.4193
 1226TIP3   OH225236   0.335   5.706   7.800  0.2092 -0.3579 -0.4027
 1226TIP3    H125237   0.406   5.666   7.748 -0.5483  0.0562 -1.8100
 1226TIP3    H225238   0.290   5.631   7.839  0.7240 -0.6891 -0.4264
 1227TIP3   OH225239   0.590   0.660   1.827  0.3618 -0.7895 -0.2674
 1227TIP3    H125240   0.591   0.570   1.858 -0.1847 -0.2090  1.5367
 1227TIP3    H225241   0.497   0.684   1.826  0.5915  0.2975  1.0622
 1228TIP3   OH225242   1.342   6.373   1.484  0.4645 -0.2129  0.4409
 1228TIP3    H125243   1.269   6.427   1.457  0.6793 -0.2250 -0.1766
 1228TIP3    H225244   1.400   6.370   1.408  2.0899  1.4089  1.5180
 1229TIP3   OH225245   1.307   4.794   0.054 -0.0351  0.1511 -0.5363
 1229TIP3    H125246   1.380   4.736   0.073 -0.0163  0.2376 -0.3452
 1229TIP3    H225247   1.330   4.834  -0.030  0.4794  0.7184 -0.1378
 1230TIP3   OH225248   0.319   2.426   7.850  0.1476 -0.1230  0.1916
 1230TIP3    H125249   0.343   2.362   7.916 -2.2532 -0.6589  0.6645
 1230TIP3    H225250   0.255   2.482   7.894 -0.0881  0.6802 -1.1292
 1231TIP3   OH225251   4.013   0.661   2.380 -0.4164 -0.0531 -0.0678
 1231TIP3    H125252   3.950   0.607   2.427  1.1325 -1.2736  0.7058
 1231TIP3    H225253   4.057   0.712   2.448  1.2404 -1.1791 -0.2390
 1232TIP3   OH225254   4.472   1.958   8.413  0.6122  0.7629  0.0732
 1232TIP3    H125255   4.500   2.048   8.397  0.6256  0.4277 -2.0803
 1232TIP3    H225256   4.383   1.966   8.446  0.2697  1.5533 -0.9982
 1233TIP3   OH225257   1.710   6.684   7.550 -0.0385 -0.3840  0.1856
 1233TIP3    H125258   1.751   6.762   7.586  1.6268 -1.0067 -0.2778
 1233TIP3    H225259   1.694   6.628   7.627  1.1319 -0.6377  0.2603
 1234TIP3   OH225260   1.613   6.788   0.352  0.4587  0.0745  0.3025
 1234TIP3    H125261   1.557   6.768   0.277 -0.2823 -0.1614  0.8990
 1234TIP3    H225262   1.561   6.850   0.404  1.0957  0.4850  0.4588
 1235TIP3   OH225263   0.830   2.569   1.411  0.3157  0.1307  0.5320
 1235TIP3    H125264   0.839   2.487   1.459 -0.3206 -0.8622 -0.9662
 1235TIP3    H225265   0.747   2.605   1.441 -0.1417 -0.5466  0.1150
 1236TIP3   OH225266   4.538   1.613   1.894 -0.1739  0.0190 -0.2021
 1236TIP3    H125267   4.544   1.621   1.989  1.3208 -0.2033 -0.2668
 1236TIP3    H225268   4.539   1.519   1.877  2.7520  0.0355 -0.5714
 1237TIP3   OH225269   1.712   3.998   7.458 -0.2867 -0.2351  0.3157
 1237TIP3    H125270   1.734   3.963   7.544 -0.4269  1.6999  1.1858
 1237TIP3    H225271   1.774   4.070   7.445 -1.7199  0.9597 -0.1767
 1238TIP3   OH225272   6.325   6.327   1.127  0.7138  0.3787  0.4049
 1238TIP3    H125273   6.328   6.333   1.031 -0.6984  0.5089  0.3508
 1238TIP3    H225274   6.363   6.241   1.147  0.4480  0.0854 -0.3171
 1239TIP3   OH225275   1.784   4.901   1.976  0.2256  0.5233 -0.2212
 1239TIP3    H125276   1.764   4.858   1.893  0.9534  2.4860 -1.4906
 1239TIP3    H225277   1.712   4.963   1.989 -0.3305 -0.3567  1.0940
 1240TIP3   OH225278   3.439   6.593   7.529  0.0242  0.2735 -0.2827
 1240TIP3    H125279   3.394   6.663   7.575 -0.0414 -0.0468  0.1497
 1240TIP3    H225280   3.485   6.544   7.598 -1.3401 -1.1476 -0.3132
 1241TIP3   OH225281   1.877   0.648   7.875  0.4934 -0.5072  0.1700
 1241TIP3    H125282   1.837   0.565   7.898  0.0519 -0.3129  0.1087
 1241TIP3    H225283   1.804   0.708   7.861  0.8003 -0.1527  0.0393
 1242TIP3   OH225284   2.928   5.953   0.140 -0.1360 -0.2006 -0.7312
 1242TIP3    H125285   2.920   6.040   0.178  1.4984  0.4898 -1.8504
 1242TIP3    H225286   2.849   5.944   0.086 -0.7500  0.2098  0.0726
 1243TIP3   OH225287   5.431   3.122   1.452 -0.0904  0.0844 -0.5040
 1243TIP3    H125288   5.340   3.141   1.431 -0.5464 -0.5745  0.8052
 1243TIP3    H225289   5.446   3.033   1.421  0.2047  0.2838 -0.9576
 1244TIP3   OH225290   6.842   4.718   0.906 -0.2064 -0.0591 -0.2951
 1244TIP3    H125291   6.839   4.797   0.960 -0.3963 -1.0055  1.1444
 1244TIP3    H225292   6.771   4.663   0.939  0.7385 -1.3825 -0.3512
 1245TIP3   OH225293   1.706   0.520   2.350 -0.1486 -0.2341  0.2043
 1245TIP3    H125294   1.768   0.546   2.418 -0.1051  0.2986 -0.0360
 1245TIP3    H225295   1.654   0.450   2.391  0.5150 -0.5934  0.4504
 1246TIP3   OH225296   1.980   6.019   0.656 -0.1331  0.0831 -0.0229
 1246TIP3    H125297   1.993   6.019   0.751  0.2236 -0.2310 -0.0747
 1246TIP3    H225298   1.939   6.104   0.639 -0.6250 -0.0418  0.4694
 1247TIP3   OH225299   3.333   5.072   6.990  0.0058  0.3756  0.3546
 1247TIP3    H125300   3.247   5.110   6.968  0.6427  1.4273 -0.4573
 1247TIP3    H225301   3.317   4.978   6.993 -1.2050  0.5553  0.3481
 1248TIP3   OH225302   2.279   0.691   7.994  0.3867  0.3728 -0.0291
 1248TIP3    H125303   2.306   0.758   8.057  0.9507  0.4995 -0.3953
 1248TIP3    H225304   2.267   0.612   8.047 -0.7502  0.8645  0.4758
 1249TIP3   OH225305   6.338   0.191   6.954  0.1182 -0.1744  0.1466
 1249TIP3    H125306   6.262   0.242   6.981 -0.1456  0.4912 -1.7250
 1249TIP3    H225307   6.344   0.121   7.019 -1.9501 -0.1163  0.4714
 1250TIP3   OH225308   1.495   2.522   7.178 -0.5862 -0.1472 -0.2514
 1250TIP3    H125309   1.475   2.511   7.085 -1.9526  0.3909 -0.0572
 1250TIP3    H225310   1.588   2.543   7.182 -1.2950  4.2573 -1.9143
 1251TIP3   OH225311   2.228   5.632   0.436  0.4070 -0.3251  0.6615
 1251TIP3    H125312   2.303   5.651   0.379  0.5980 -1.6196  0.4492
 1251TIP3    H225313   2.158   5.609   0.376  0.3026 -0.6695  0.9158
 1252TIP3   OH225314   2.305   6.723   7.571  0.1490 -0.2752 -0.1989
 1252TIP3    H125315   2.367   6.743   7.500  0.5255 -0.1912  0.1469
 1252TIP3    H225316   2.349   6.754   7.650 -0.9405  1.0808 -0.0901
 1253TIP3   OH225317   0.934   2.054   6.965  0.1846  0.4148  0.4944
 1253TIP3    H125318   0.884   2.132   6.940  0.2926  0.2883 -0.1393
 1253TIP3    H225319   0.979   2.080   7.045 -0.8873  0.5312  1.0877
 1254TIP3   OH225320   6.247   4.971   8.143 -0.2508  0.2464 -0.3118
 1254TIP3    H125321   6.224   4.949   8.053  0.0276  0.8923 -0.5463
 1254TIP3    H225322   6.293   5.055   8.137  0.5466 -0.1284  0.3418
 1255TIP3   OH225323   6.924   4.497   0.534  0.1570  0.0537  0.4853
 1255TIP3    H125324   6.903   4.523   0.623 -4.1685  1.5025 -0.7262
 1255TIP3    H225325   6.934   4.401   0.539 -0.0600  0.0919  2.4642
 1256TIP3   OH225326   6.637   0.564   8.254 -0.7685 -0.0588  0.7438
 1256TIP3    H125327   6.635   0.469   8.249 -1.7772 -0.0407  0.4721
 1256TIP3    H225328   6.672   0.592   8.169 -2.7768 -0.1579 -0.1889
 1257TIP3   OH225329   3.470   0.543   7.484  0.1016 -0.5741 -0.2042
 1257TIP3    H125330   3.506   0.463   7.521 -0.2297 -0.7598 -0.2810
 1257TIP3    H225331   3.393   0.514   7.435 -1.2968  0.0403  1.5319
 1258TIP3   OH225332   6.231   0.216   1.458  0.1419 -0.0750 -0.2728
 1258TIP3    H125333   6.253   0.249   1.371  0.3407 -2.6850 -1.2984
 1258TIP3    H225334   6.135   0.215   1.461  0.1219  1.5410  0.1962
 1259TIP3   OH225335   5.545   6.602   0.466  0.3002 -0.1131 -0.0106
 1259TIP3    H125336   5.541   6.624   0.374 -1.4487  0.0896  0.0921
 1259TIP3    H225337   5.454   6.594   0.494  0.7807  0.1356  1.7752
 1260TIP3   OH225338   0.552   0.732   6.700 -0.5418  0.1744 -0.4943
 1260TIP3    H125339   0.631   0.756   6.748 -1.3550 -0.0205  1.0207
 1260TIP3    H225340   0.542   0.800   6.634 -0.1179  1.2401  0.4984
 1261TIP3   OH225341   0.772   3.298   1.284  0.1663  0.2462  0.8878
 1261TIP3    H125342   0.717   3.273   1.358  0.7731 -1.1462  0.9041
 1261TIP3    H225343   0.854   3.250   1.298  0.2409 -0.1527 -0.7476
 1262TIP3   OH225344   5.691   1.974   7.445 -0.8239 -0.6756  0.1566
 1262TIP3    H125345   5.642   1.913   7.390  0.6806 -0.0892 -1.9758
 1262TIP3    H225346   5.782   1.945   7.438  0.0373  2.0281 -1.3837
 1263TIP3   OH225347   1.566   2.525   7.511  0.5659  0.2491  0.3706
 1263TIP3    H125348   1.650   2.566   7.533  0.6779 -0.1703  0.7312
 1263TIP3    H225349   1.589   2.458   7.446  0.5410 -0.0216  0.6416
 1264TIP3   OH225350   4.099   1.945   0.549  0.3215  0.3695 -0.1752
 1264TIP3    H125351   4.023   1.929   0.605 -1.0071  0.6650 -1.8200
 1264TIP3    H225352   4.162   1.877   0.574 -0.6325 -0.1161  0.9743
 1265TIP3   OH225353   4.145   3.838   7.285 -0.6368 -0.4609  0.4080
 1265TIP3    H125354   4.124   3.924   7.248  0.5393  0.3798  1.5804
 1265TIP3    H225355   4.111   3.775   7.221 -0.0360  0.8908 -1.3376
 1266TIP3   OH225356   0.940   6.577   8.229 -0.0882 -0.4768  0.0443
 1266TIP3    H125357   0.993   6.622   8.163  0.9281 -2.6319 -0.7229
 1266TIP3    H225358   0.955   6.627   8.310  0.2181  1.0561 -0.9131
 1267TIP3   OH225359   1.868   5.340   7.540 -0.1891 -0.2284 -0.5115
 1267TIP3    H125360   1.914   5.424   7.545 -0.6545  0.0122 -0.1604
 1267TIP3    H225361   1.937   5.274   7.549 -0.0957  0.1201  2.2508
 1268TIP3   OH225362   6.017   5.041   1.013 -0.3254  0.2912 -0.4507
 1268TIP3    H125363   6.075   4.973   1.046 -3.7286 -2.4288  0.5524
 1268TIP3    H225364   6.052   5.123   1.049  2.5057 -1.2000  0.4482
 1269TIP3   OH225365   2.753   0.130   8.038 -1.1839 -0.2745  0.0007
 1269TIP3    H125366   2.664   0.165   8.043 -0.9198  0.2462  1.3938
 1269TIP3    H225367   2.762   0.077   8.118 -0.1506 -0.0749  0.0253
 1270TIP3   OH225368   1.346   5.775   0.654 -0.4834  0.3727 -0.1083
 1270TIP3    H125369   1.425   5.818   0.685  0.3636 -0.7066 -0.6807
 1270TIP3    H225370   1.299   5.751   0.734  0.2898  0.0973  0.2741
 1271TIP3   OH225371   3.824   4.249   0.075 -0.3118 -0.1540 -0.1919
 1271TIP3    H125372   3.877   4.177   0.040 -1.6455 -0.9759 -0.5842
 1271TIP3    H225373   3.793   4.295  -0.003  0.7780  1.0519  0.0636
 1272TIP3   OH225374   3.318   0.115   1.031 -0.5046 -0.2829  0.5875
 1272TIP3    H125375   3.336   0.194   0.980 -0.4323 -2.1619 -2.5681
 1272TIP3    H225376   3.404   0.079   1.052 -0.5496  0.0962  1.5074
 1273TIP3   OH225377   6.933   5.724   1.920 -0.6295  0.4977  1.0187
 1273TIP3    H125378   6.871   5.796   1.906 -0.9376  0.3010  1.3716
 1273TIP3    H225379   6.907   5.686   2.003  0.9425  1.4088  1.9801
 1274TIP3   OH225380   2.324   5.970   0.167 -0.1908  0.0565 -0.0827
 1274TIP3    H125381   2.364   5.975   0.080  1.4509  2.0442  0.6763
 1274TIP3    H225382   2.261   6.042   0.168  0.6185  0.7744  0.7084
 1275TIP3   OH225383   1.983   0.942   7.626 -0.1003 -0.1056  0.0183
 1275TIP3    H125384   2.026   0.987   7.553 -0.4244 -1.3273 -0.9528
 1275TIP3    H225385   1.913   0.892   7.586 -0.0443 -1.1083  1.1178
 1276TIP3   OH225386   0.132   1.938   8.075  0.1895 -0.0039 -0.3217
 1276TIP3    H125387   0.083   1.870   8.030  0.1466  0.8400 -1.5792
 1276TIP3    H225388   0.209   1.953   8.020  1.4987 -0.7329  1.1955
 1277TIP3   OH225389   0.356   1.226   0.491 -0.2192  0.6912  0.5367
 1277TIP3    H125390   0.359   1.254   0.400 -1.8590 -0.1549  0.1719
 1277TIP3    H225391   0.283   1.164   0.495  0.0293  0.4370  2.3552
 1278TIP3   OH225392   0.570   4.368   7.439 -0.1774  0.2582 -0.1333
 1278TIP3    H125393   0.549   4.309   7.367  0.2693  0.5575 -0.5211
 1278TIP3    H225394   0.497   4.430   7.442 -0.2949  0.1224 -0.1956
 1279TIP3   OH225395   1.637   1.979   1.441 -0.6010  0.3610 -0.2778
 1279TIP3    H125396   1.712   1.977   1.381 -0.3997  0.4907 -0.0305
 1279TIP3    H225397   1.676   1.986   1.528 -0.6868 -3.6319  0.2758
 1280TIP3   OH225398   2.958   5.545   8.414  0.3527 -0.6172  0.1644
 1280TIP3    H125399   2.917   5.492   8.346  0.2604  0.9418 -1.0619
 1280TIP3    H225400   3.051   5.524   8.410  0.4870  0.1123 -1.1138
 1281TIP3   OH225401   6.895   2.653   7.568 -0.1164 -0.0994  0.2499
 1281TIP3    H125402   6.942   2.717   7.513  0.6148 -0.5754  0.3092
 1281TIP3    H225403   6.959   2.584   7.583 -0.9598 -0.9298  0.0563
 1282TIP3   OH225404   0.908   6.475   6.743 -0.0823  0.0556  0.0844
 1282TIP3    H125405   0.903   6.553   6.799 -3.3408  0.3751 -0.4185
 1282TIP3    H225406   0.861   6.499   6.663  0.9384 -1.6806 -1.1154
 1283TIP3   OH225407   4.870   5.992   7.475 -0.1971  0.0757 -0.7692
 1283TIP3    H125408   4.949   6.043   7.459 -1.9182  2.7860 -1.1844
 1283TIP3    H225409   4.838   6.023   7.560 -1.6471  0.2204 -1.3419
 1284TIP3   OH225410   6.678   0.788   1.129  0.2628 -0.2348  0.5801
 1284TIP3    H125411   6.684   0.774   1.035  0.2700  0.8847  0.4049
 1284TIP3    H225412   6.764   0.764   1.163  0.7878  0.9201  0.0847
 1285TIP3   OH225413   6.129   2.054   7.648 -0.2684 -0.0097  0.3058
 1285TIP3    H125414   6.076   2.049   7.727  0.0794 -0.9103  0.4970
 1285TIP3    H225415   6.211   2.009   7.671  0.3960  0.9280 -0.1311
 1286TIP3   OH225416   1.105   0.178   0.389 -0.3412  0.2810 -0.0726
 1286TIP3    H125417   1.054   0.121   0.446 -1.9615  0.6527 -1.0746
 1286TIP3    H225418   1.188   0.132   0.377 -0.2012 -0.0972  2.0228
 1287TIP3   OH225419   5.063   5.372   1.748 -0.0762  0.3262  0.1510
 1287TIP3    H125420   5.055   5.367   1.843 -0.8283 -1.4542  0.0415
 1287TIP3    H225421   5.148   5.413   1.733  0.4735 -0.2141  1.6111
 1288TIP3   OH225422   5.900   5.167   7.944  0.2542  0.1675  0.5688
 1288TIP3    H125423   5.870   5.093   7.997  0.0118  0.6744  1.1472
 1288TIP3    H225424   5.819   5.209   7.914  0.3522 -1.0117 -1.5094
 1289TIP3   OH225425   2.609   2.956   2.653 -0.1059 -0.1410  0.4423
 1289TIP3    H125426   2.638   2.908   2.576 -0.5632  0.3466 -0.0442
 1289TIP3    H225427   2.679   2.944   2.717  0.5152 -0.1260 -0.2256
 1290TIP3   OH225428   5.820   1.678   1.079  0.1573 -0.5583 -0.3067
 1290TIP3    H125429   5.844   1.716   1.164 -0.0526  0.6413 -0.7715
 1290TIP3    H225430   5.725   1.670   1.082 -0.0515  1.2359 -1.1129
 1291TIP3   OH225431   4.359   4.811   2.115  0.1366  0.5361 -0.2594
 1291TIP3    H125432   4.349   4.757   2.193  0.1489  3.1951  1.6962
 1291TIP3    H225433   4.440   4.780   2.074 -1.1285 -2.5427 -0.7206
 1292TIP3   OH225434   3.190   0.088   1.939 -0.2656 -0.6055 -0.1240
 1292TIP3    H125435   3.118   0.140   1.975 -0.9114 -1.2994 -0.3726
 1292TIP3    H225436   3.153   0.047   1.861  0.8006  0.0285 -0.9836
 1293TIP3   OH225437   2.999   4.712   0.352  0.1638 -0.0523 -0.2731
 1293TIP3    H125438   3.040   4.781   0.299  2.6686  0.3783  2.0390
 1293TIP3    H225439   3.066   4.685   0.414 -1.3951 -3.2347  0.2414
 1294TIP3   OH225440   3.787   0.897   2.704 -0.9011  0.2410  0.1143
 1294TIP3    H125441   3.745   0.982   2.707 -1.1645  0.3113 -2.5630
 1294TIP3    H225442   3.716   0.835   2.684 -0.2523 -0.0642 -1.4178
 1295TIP3   OH225443   4.702   3.484   7.725  0.3185  0.4073 -0.4670
 1295TIP3    H125444   4.623   3.461   7.675  1.6611 -3.7576 -1.0650
 1295TIP3    H225445   4.734   3.563   7.682 -0.4430 -1.0459 -4.1472
 1296TIP3   OH225446   6.590   0.454   7.825 -0.0058  0.5701 -0.5820
 1296TIP3    H125447   6.515   0.504   7.791 -1.4504 -1.5325 -0.6875
 1296TIP3    H225448   6.633   0.420   7.747 -0.5369 -0.3862 -0.4751
 1297TIP3   OH225449   3.235   3.791   6.707 -0.3578 -0.7050 -0.4747
 1297TIP3    H125450   3.175   3.833   6.645 -0.8583  0.5446  0.8182
 1297TIP3    H225451   3.275   3.863   6.755  3.7565 -1.2949 -2.5761
 1298TIP3   OH225452   3.853   2.667   1.920  0.0388  0.0955  0.2988
 1298TIP3    H125453   3.849   2.736   1.854 -0.9450  2.3799  2.5718
 1298TIP3    H225454   3.865   2.586   1.870 -0.5307  1.6853 -2.6130
 1299TIP3   OH225455   3.397   5.356   7.476  0.1676  0.1694  0.1167
 1299TIP3    H125456   3.403   5.284   7.413  1.8742  0.3282  0.0585
 1299TIP3    H225457   3.340   5.420   7.433  2.1608  0.7711 -1.8357
 1300TIP3   OH225458   6.091   1.727   7.964  0.1844 -0.1480 -0.3740
 1300TIP3    H125459   6.148   1.692   8.033  0.4435  0.7684 -0.1150
 1300TIP3    H225460   6.005   1.689   7.982  0.3385 -0.2287  0.2139
 1301TIP3   OH225461   1.905   2.766   8.424 -0.1974  0.0586 -0.0091
 1301TIP3    H125462   1.931   2.729   8.509  0.9692 -0.4919 -0.5822
 1301TIP3    H225463   1.831   2.712   8.396 -0.2290 -0.1141  0.4016
 1302TIP3   OH225464   5.209   5.071   1.184  0.3105  0.0634  0.4921
 1302TIP3    H125465   5.217   5.019   1.265 -0.4126 -1.4294 -0.3563
 1302TIP3    H225466   5.298   5.078   1.152  0.4636 -0.4169  0.7838
 1303TIP3   OH225467   0.213   4.655   0.934  0.1109  0.1376 -0.0270
 1303TIP3    H125468   0.242   4.564   0.938  1.1155  0.4672  0.4899
 1303TIP3    H225469   0.133   4.652   0.882  0.8354 -0.8512 -1.1351
 1304TIP3   OH225470   2.910   1.773   1.626 -0.2318 -0.1538 -0.2166
 1304TIP3    H125471   3.000   1.752   1.650  0.4487  2.1074 -0.5230
 1304TIP3    H225472   2.890   1.714   1.553  0.5233 -1.5257  0.6372
 1305TIP3   OH225473   1.996   5.839   2.080  0.3094  0.1694  0.4072
 1305TIP3    H125474   2.077   5.804   2.118 -0.3032 -0.0859  1.5305
 1305TIP3    H225475   2.015   5.932   2.067  0.1273  0.6082  2.7205
 1306TIP3   OH225476   3.279   5.948   8.315 -0.0630  0.0058 -0.4339
 1306TIP3    H125477   3.334   5.870   8.313 -0.3582 -0.4242  2.6889
 1306TIP3    H225478   3.199   5.920   8.359 -0.1781  2.0112  0.7692
 1307TIP3   OH225479   4.084   4.462   2.726  0.3657 -0.1353 -0.3348
 1307TIP3    H125480   4.041   4.383   2.757  1.6720 -0.7632 -0.0381
 1307TIP3    H225481   4.095   4.516   2.804  1.5014 -0.6753 -0.0911
 1308TIP3   OH225482   2.977   0.836   0.928  0.3043 -0.1015 -0.5300
 1308TIP3    H125483   3.046   0.780   0.892  0.1322 -0.4598 -0.3078
 1308TIP3    H225484   3.024   0.900   0.981  0.3809 -1.3547  0.9919
 1309TIP3   OH225485   0.776   0.958   7.518 -0.0635 -0.5438 -0.6173
 1309TIP3    H125486   0.824   1.041   7.513 -0.2184 -0.2630  1.6160
 1309TIP3    H225487   0.839   0.892   7.489  0.0233  0.3194 -2.5308
 1310TIP3   OH225488   2.533   2.427   8.455 -0.4577  0.6014 -0.0678
 1310TIP3    H125489   2.529   2.455   8.364 -0.5586 -0.5116 -0.4234
 1310TIP3    H225490   2.592   2.490   8.497 -0.4646  1.1641 -0.8811
 1311TIP3   OH225491   0.692   3.594   8.111  0.1489  0.1458  0.5534
 1311TIP3    H125492   0.622   3.596   8.046 -0.2893  1.4356  1.0358
 1311TIP3    H225493   0.717   3.685   8.124  1.4278 -0.2248  0.9367
 1312TIP3   OH225494   5.438   2.931   8.353  0.3747  0.2319  0.0160
 1312TIP3    H125495   5.512   2.887   8.393  0.5865  1.0734  0.5816
 1312TIP3    H225496   5.477   3.002   8.302  0.0202  0.0428 -0.5326
 1313TIP3   OH225497   6.372   2.265   8.107  0.0599 -0.6144  0.3645
 1313TIP3    H125498   6.468   2.265   8.117  0.0636  0.9096  0.4898
 1313TIP3    H225499   6.357   2.314   8.026 -0.6440 -0.4337  0.6027
 1314TIP3   OH225500   1.783   2.100   2.077 -0.0687 -0.4756  0.5457
 1314TIP3    H125501   1.763   2.054   2.159  0.9681  0.2878  1.2635
 1314TIP3    H225502   1.700   2.100   2.028 -0.0877 -3.0983  0.4856
 1315TIP3   OH225503   6.328   1.962   1.923 -1.1237  0.1679 -0.2330
 1315TIP3    H125504   6.240   1.998   1.927 -0.8609  0.7471  0.6093
 1315TIP3    H225505   6.379   2.027   1.874 -0.9866  0.2164 -0.0266
 1316TIP3   OH225506   1.407   5.053   1.927 -0.3476  0.3448 -0.2241
 1316TIP3    H125507   1.344   4.981   1.934 -0.7673  0.6997 -0.3501
 1316TIP3    H225508   1.486   5.019   1.971 -1.3116  0.6856  1.8882
 1317TIP3   OH225509   4.779   1.537   1.485 -0.1499 -0.1689  0.2728
 1317TIP3    H125510   4.807   1.601   1.420  0.5754 -1.2100 -0.4734
 1317TIP3    H225511   4.841   1.465   1.476 -1.1658 -1.1474  0.8270
 1318TIP3   OH225512   1.202   4.485   8.072 -0.3271 -0.2409  0.3654
 1318TIP3    H125513   1.195   4.424   7.998  1.3058  1.9088 -1.7314
 1318TIP3    H225514   1.293   4.478   8.100 -0.4899  0.2387  1.0322
 1319TIP3   OH225515   2.187   1.254   7.189  0.1459  0.1994 -0.2401
 1319TIP3    H125516   2.225   1.327   7.139  1.9530 -1.3347 -1.2160
 1319TIP3    H225517   2.180   1.182   7.126  1.4172 -1.4640  1.4140
 1320TIP3   OH225518   5.546   3.125   1.086  0.3456  0.0743  0.1568
 1320TIP3    H125519   5.596   3.177   1.023  1.6186 -0.9904  0.2326
 1320TIP3    H225520   5.463   3.171   1.095  0.3080  0.5061 -1.9431
 1321TIP3   OH225521   0.154   1.819   1.452  0.2699  0.2887 -0.3880
 1321TIP3    H125522   0.070   1.783   1.481  0.8846 -0.3812  0.6029
 1321TIP3    H225523   0.218   1.751   1.471  1.0601  0.8054 -1.1081
 1322TIP3   OH225524   6.331   3.917   6.970  0.1942 -0.2321 -0.0768
 1322TIP3    H125525   6.280   3.952   6.897  1.5933  0.7050 -0.6508
 1322TIP3    H225526   6.410   3.881   6.929  0.7340 -0.2187  0.9085
 1323TIP3   OH225527   0.586   6.547   7.182 -0.2164 -0.3920  0.0236
 1323TIP3    H125528   0.581   6.482   7.252 -0.9380 -0.6837 -0.2886
 1323TIP3    H225529   0.665   6.525   7.134 -0.6970 -1.3362 -0.3539
 1324TIP3   OH225530   1.124   5.714   2.088  0.0224 -0.4915 -0.0731
 1324TIP3    H125531   1.184   5.642   2.108 -0.8400 -0.9461  1.0338
 1324TIP3    H225532   1.173   5.793   2.113 -0.0290 -0.8936  1.4369
 1325TIP3   OH225533   5.387   4.993   7.718 -0.0836  0.0276 -0.0021
 1325TIP3    H125534   5.408   4.982   7.810 -0.6940 -1.3256 -0.0094
 1325TIP3    H225535   5.294   4.974   7.712  0.1646 -0.9637 -1.0516
 1326TIP3   OH225536   2.964   6.274   8.254  0.1154 -0.4028 -0.5895
 1326TIP3    H125537   3.055   6.247   8.268 -0.1846 -0.8078  0.7520
 1326TIP3    H225538   2.913   6.193   8.263 -0.5322  0.1056  0.5970
 1327TIP3   OH225539   6.033   5.661   1.205  0.2750  0.5901  0.2874
 1327TIP3    H125540   5.958   5.634   1.258 -0.3691  3.2507  0.8599
 1327TIP3    H225541   6.005   5.647   1.114 -0.0177 -0.5064  0.5273
 1328TIP3   OH225542   4.495   4.964   0.690  0.9508 -0.4014  0.3720
 1328TIP3    H125543   4.493   4.921   0.776  0.3604 -0.7878  0.1752
 1328TIP3    H225544   4.514   4.893   0.629  0.0398 -0.3798  0.0483
 1329TIP3   OH225545   2.145   2.854   8.143  0.0896 -0.3150  0.3952
 1329TIP3    H125546   2.155   2.869   8.237 -0.7765  1.9884  0.1865
 1329TIP3    H225547   2.051   2.841   8.130 -0.1124  1.6498 -0.3794
 1330TIP3   OH225548   0.631   2.251   8.276 -1.1456  0.1293  0.1766
 1330TIP3    H125549   0.581   2.172   8.253 -1.5257  0.2063  0.7241
 1330TIP3    H225550   0.583   2.289   8.349  0.5214 -0.5936  1.7366
 1331TIP3   OH225551   0.896   5.639   7.379 -0.6209 -0.0847  0.4497
 1331TIP3    H125552   0.852   5.570   7.329 -0.2746  0.0278 -0.0173
 1331TIP3    H225553   0.870   5.720   7.336 -0.6947  0.0447  0.7400
 1332TIP3   OH225554   1.265   5.313   8.085 -0.3164 -0.2328  0.5055
 1332TIP3    H125555   1.225   5.263   8.015 -1.2913  0.7478  0.3382
 1332TIP3    H225556   1.220   5.283   8.165 -2.3085  1.6768  0.1935
 1333TIP3   OH225557   4.845   1.844   7.231  0.2817  0.1082  0.3567
 1333TIP3    H125558   4.803   1.819   7.149  0.3212 -0.6891  0.5687
 1333TIP3    H225559   4.797   1.795   7.299 -0.2142  1.2913  0.8974
 1334TIP3   OH225560   3.031   4.543   7.836 -0.3693  0.2965 -0.9093
 1334TIP3    H125561   3.077   4.584   7.909 -2.2710 -0.0975  0.5874
 1334TIP3    H225562   3.099   4.495   7.788  0.5438 -2.0291  2.3744
 1335TIP3   OH225563   2.087   3.104   7.159 -0.1344  0.0788  0.3284
 1335TIP3    H125564   1.996   3.089   7.134  0.1204 -1.4087  0.2256
 1335TIP3    H225565   2.118   3.170   7.097 -0.6047 -0.7979 -0.8858
 1336TIP3   OH225566   2.719   0.763   1.494 -0.1477  0.5970 -0.5878
 1336TIP3    H125567   2.651   0.719   1.545  1.0092  0.3182  0.8056
 1336TIP3    H225568   2.773   0.692   1.460 -0.3378  0.8302 -1.3963
 1337TIP3   OH225569   2.079   5.260   1.708 -0.1276  0.5187 -0.3067
 1337TIP3    H125570   2.093   5.355   1.701 -0.4135  0.5974  0.1455
 1337TIP3    H225571   1.986   5.251   1.730  0.1660  0.1981  0.8821
 1338TIP3   OH225572   1.975   3.285   0.228 -0.4952  0.2586  0.2997
 1338TIP3    H125573   1.915   3.224   0.184 -0.9986 -0.8128  2.3226
 1338TIP3    H225574   1.916   3.344   0.276  0.0187  1.8223 -0.9086
 1339TIP3   OH225575   5.948   2.238   7.466  0.6017  0.5936  0.0582
 1339TIP3    H125576   6.008   2.284   7.407 -1.0679  1.0282 -1.3937
 1339TIP3    H225577   6.002   2.170   7.506  1.9767  0.7000 -1.4786
 1340TIP3   OH225578   3.490   0.075   7.800 -0.1256  0.0312 -0.0171
 1340TIP3    H125579   3.446   0.159   7.785 -1.7182 -1.0535 -1.9253
 1340TIP3    H225580   3.583   0.098   7.806 -0.4449  1.8872 -1.0857
 1341TIP3   OH225581   6.204   3.296   1.461  0.4003 -0.1230 -0.0510
 1341TIP3    H125582   6.217   3.208   1.497  0.8998 -0.2270 -0.4783
 1341TIP3    H225583   6.276   3.308   1.400 -0.5255 -0.0195 -1.1600
 1342TIP3   OH225584   1.196   2.492   0.995  0.3517 -0.1125  0.8909
 1342TIP3    H125585   1.140   2.538   1.057  1.6848  1.9467  0.6559
 1342TIP3    H225586   1.242   2.426   1.047  0.0779  0.3288  1.7010
 1343TIP3   OH225587   1.211   5.549   0.854  0.1435  0.3811  0.3230
 1343TIP3    H125588   1.234   5.509   0.771  0.7402 -0.7263  1.0039
 1343TIP3    H225589   1.123   5.586   0.840 -0.7880 -1.8604 -0.1099
 1344TIP3   OH225590   1.572   0.456   8.259  0.3383  0.6336  0.6210
 1344TIP3    H125591   1.560   0.391   8.328  0.1585 -0.2321 -0.2121
 1344TIP3    H225592   1.647   0.424   8.208 -1.5008 -0.5369 -1.5496
 1345TIP3   OH225593   1.997   5.211   1.339 -0.2140 -0.3736  0.1981
 1345TIP3    H125594   2.015   5.136   1.282  1.4295  0.0110  0.1591
 1345TIP3    H225595   2.078   5.226   1.386 -1.3296 -0.2516  2.2015
 1346TIP3   OH225596   2.188   1.889   0.707  0.5578 -1.0167  0.1320
 1346TIP3    H125597   2.167   1.800   0.679  1.1195 -2.3812  3.4589
 1346TIP3    H225598   2.279   1.884   0.736  0.0356  0.0179  2.2187
 1347TIP3   OH225599   1.473   0.610   1.980 -0.5792  0.4691  0.2888
 1347TIP3    H125600   1.378   0.615   1.976 -0.8407 -1.1030  2.7224
 1347TIP3    H225601   1.503   0.691   1.937 -2.9246  0.5496 -1.3804
 1348TIP3   OH225602   2.594   3.887   8.007 -0.0864  0.3472 -0.4226
 1348TIP3    H125603   2.540   3.925   7.938 -0.9631 -1.1876 -0.6228
 1348TIP3    H225604   2.537   3.887   8.084 -0.3108 -1.0206 -0.5648
 1349TIP3   OH225605   3.040   1.458   0.450  0.2044 -0.2006  0.4773
 1349TIP3    H125606   3.032   1.400   0.375  0.1620  0.5049 -0.0656
 1349TIP3    H225607   3.023   1.546   0.416 -1.1742 -0.0028  1.5555
 1350TIP3   OH225608   4.658   4.817   0.910 -0.1829  0.0441 -0.2576
 1350TIP3    H125609   4.595   4.887   0.926 -1.7174 -1.4143  0.3815
 1350TIP3    H225610   4.695   4.796   0.996 -0.2923 -0.4144 -0.3153
 1351TIP3   OH225611   5.108   4.619   6.835  0.2723  0.0636  0.3438
 1351TIP3    H125612   5.029   4.566   6.822  1.2071 -1.1953 -0.4313
 1351TIP3    H225613   5.157   4.609   6.753  0.4582  2.2153  0.1333
 1352TIP3   OH225614   3.792   4.677   8.402  0.0707 -0.3044  0.5836
 1352TIP3    H125615   3.758   4.589   8.417 -0.8953 -0.2184 -0.9045
 1352TIP3    H225616   3.876   4.662   8.358  1.2486 -0.4833  2.7529
 1353TIP3   OH225617   0.949   2.758   7.425  0.0895  0.0853  0.4402
 1353TIP3    H125618   0.959   2.666   7.400  2.0983  0.4250 -0.2131
 1353TIP3    H225619   0.932   2.755   7.520 -2.5329 -1.0109  0.0105
 1354TIP3   OH225620   0.561   2.496   8.508  0.4473  0.8757 -0.4755
 1354TIP3    H125621   0.481   2.467   8.463 -0.3113  1.1712  0.6521
 1354TIP3    H225622   0.618   2.527   8.437 -0.2585  0.2661 -1.3341
 1355TIP3   OH225623   6.214   0.162   0.253 -0.2629 -0.3251  0.1910
 1355TIP3    H125624   6.179   0.249   0.271 -1.3278 -0.5107 -0.8775
 1355TIP3    H225625   6.141   0.114   0.216  0.4786 -1.4971  0.1995
 1356TIP3   OH225626   6.211   1.112   7.916  0.5807  0.5727 -0.1644
 1356TIP3    H125627   6.117   1.092   7.924  0.8049 -1.3015 -1.6294
 1356TIP3    H225628   6.212   1.204   7.890 -0.8455  0.6902  0.0718
 1357TIP3   OH225629   2.308   3.378   1.813 -0.3419 -0.1910  0.7152
 1357TIP3    H125630   2.366   3.448   1.845 -0.1086 -0.6447  1.3062
 1357TIP3    H225631   2.279   3.409   1.727  0.4209  0.2578  0.6041
 1358TIP3   OH225632   0.299   2.250   1.334 -0.1642 -0.3936 -0.2284
 1358TIP3    H125633   0.287   2.262   1.429 -0.0936 -0.4154 -0.2164
 1358TIP3    H225634   0.361   2.318   1.310 -0.2415 -0.3389 -0.2733
 1359TIP3   OH225635   6.682   1.601   0.991  0.4776 -0.2736 -0.1025
 1359TIP3    H125636   6.598   1.595   0.946  0.2517  0.5406  0.2087
 1359TIP3    H225637   6.747   1.596   0.921  0.2369 -2.2636 -0.2442
 1360TIP3   OH225638   3.703   2.011   0.684 -0.0038  0.0199  0.4503
 1360TIP3    H125639   3.753   2.091   0.669  2.3292 -1.0092  2.2211
 1360TIP3    H225640   3.613   2.036   0.661  0.7150  2.9323  0.2940
 1361TIP3   OH225641   6.380   0.491   6.988  0.6086  0.5576  0.5785
 1361TIP3    H125642   6.449   0.433   7.022 -0.4089 -1.6024 -0.7966
 1361TIP3    H225643   6.305   0.474   7.044 -0.0235 -0.3529 -0.5023
 1362TIP3   OH225644   1.715   1.570   1.739  0.5129  0.0445  0.5424
 1362TIP3    H125645   1.711   1.558   1.834 -0.6100  0.2821  0.5460
 1362TIP3    H225646   1.749   1.659   1.727  4.9646 -1.4391  0.5886
 1363TIP3   OH225647   1.289   1.696   7.584  0.0298  0.0184 -0.0014
 1363TIP3    H125648   1.379   1.692   7.550  0.2394  0.5399  0.4695
 1363TIP3    H225649   1.235   1.716   7.508  0.4208  0.5919 -0.1370
 1364TIP3   OH225650   1.324   2.991   7.626 -0.2997  1.1471 -0.3401
 1364TIP3    H125651   1.292   3.069   7.671 -0.6495  0.4015  0.7588
 1364TIP3    H225652   1.271   2.986   7.546  1.0147  3.0369 -1.3940
 1365TIP3   OH225653   4.785   5.151   1.921 -0.0295  0.8991 -0.6321
 1365TIP3    H125654   4.718   5.206   1.880  1.6376  1.6051 -2.5754
 1365TIP3    H225655   4.836   5.213   1.973 -1.0655  0.2932  1.1826
 1366TIP3   OH225656   6.365   5.742   1.766 -0.1547  0.0685 -0.2715
 1366TIP3    H125657   6.399   5.805   1.703  1.9431  1.3885  1.9808
 1366TIP3    H225658   6.408   5.660   1.744 -0.6142  0.1285 -1.4441
 1367TIP3   OH225659   6.777   0.799   7.922  0.5427 -0.5145  0.5348
 1367TIP3    H125660   6.794   0.846   7.840 -1.8243 -0.3639  0.0617
 1367TIP3    H225661   6.682   0.805   7.934  0.6237 -2.0112  2.4175
 1368TIP3   OH225662   2.562   0.060   2.840  0.2803  0.1132 -0.4703
 1368TIP3    H125663   2.541   0.126   2.774  0.4888  0.0280 -0.6225
 1368TIP3    H225664   2.655   0.042   2.827  0.3043  0.0364 -0.2072
 1369TIP3   OH225665   4.175   6.060   2.158 -0.0224 -0.2169  0.1833
 1369TIP3    H125666   4.160   6.008   2.236 -1.0335 -1.5723 -0.8588
 1369TIP3    H225667   4.269   6.080   2.160 -0.1930  0.5109  2.1498
 1370TIP3   OH225668   2.924   6.519   0.498  0.0216 -0.3626 -0.5420
 1370TIP3    H125669   2.966   6.543   0.581 -2.4626  0.5847  0.5388
 1370TIP3    H225670   2.950   6.428   0.484  1.3678 -0.2111  0.6874
 1371TIP3   OH225671   5.871   3.999   7.330  0.4459  0.1223  0.3550
 1371TIP3    H125672   5.817   3.977   7.254  1.5392  1.3744 -0.8513
 1371TIP3    H225673   5.919   3.919   7.349  0.4567 -0.0978 -0.5507
 1372TIP3   OH225674   5.155   5.255   7.037 -0.0460 -0.5678 -0.0474
 1372TIP3    H125675   5.224   5.322   7.038 -1.1657  0.8235 -2.9867
 1372TIP3    H225676   5.115   5.260   7.123  2.6357 -0.5215  1.2870
 1373TIP3   OH225677   3.150   3.496   7.670  0.1969 -0.3904 -0.0389
 1373TIP3    H125678   3.079   3.525   7.727  0.4295 -1.3288  0.7632
 1373TIP3    H225679   3.224   3.553   7.691 -0.2502  0.4477 -0.7220
 1374TIP3   OH225680   6.020   0.423   7.400  0.3448 -0.2815 -0.3371
 1374TIP3    H125681   5.989   0.494   7.343 -1.8910 -0.2380  0.8178
 1374TIP3    H225682   5.985   0.343   7.360 -0.1428 -0.3770  0.2819
 1375TIP3   OH225683   6.214   4.309   2.417  0.1246  1.1282  0.3961
 1375TIP3    H125684   6.213   4.399   2.385 -0.8806  0.7162 -0.8330
 1375TIP3    H225685   6.123   4.291   2.441 -0.1408 -0.1589 -1.3213
 1376TIP3   OH225686   3.831   6.573   0.168  0.3423 -0.0150 -0.6981
 1376TIP3    H125687   3.859   6.664   0.156  1.7166 -0.5195 -1.3967
 1376TIP3    H225688   3.737   6.575   0.149  0.5530  1.0726 -1.6988
 1377TIP3   OH225689   2.735   3.167   7.916  0.0242 -0.0879  0.4032
 1377TIP3    H125690   2.700   3.232   7.856 -2.0465 -1.0123  0.5073
 1377TIP3    H225691   2.707   3.083   7.879 -0.5736 -0.7155  2.1660
 1378TIP3   OH225692   5.595   2.125   0.044  0.2549 -0.5338 -0.4001
 1378TIP3    H125693   5.667   2.128  -0.019  1.5421  0.0011  1.0473
 1378TIP3    H225694   5.607   2.041   0.089  1.5752  0.6554  1.5980
 1379TIP3   OH225695   5.204   2.419   6.372 -0.5868  0.1866 -0.4715
 1379TIP3    H125696   5.172   2.330   6.358 -1.4393  0.5531 -0.9300
 1379TIP3    H225697   5.151   2.453   6.444  0.3647  0.0228  0.3245
 1380TIP3   OH225698   6.332   2.942   1.377 -0.7068 -0.0802  1.0091
 1380TIP3    H125699   6.353   2.960   1.469 -2.4246  1.1658  1.2102
 1380TIP3    H225700   6.374   2.858   1.359 -0.6354 -0.5367  3.0371
 1381TIP3   OH225701   3.991   3.340   1.570 -0.2668 -0.0647 -0.0738
 1381TIP3    H125702   4.074   3.372   1.535 -0.4662  1.6275  0.9432
 1381TIP3    H225703   3.929   3.351   1.498 -0.0551  0.6544 -0.1517
 1382TIP3   OH225704   3.124   1.034   1.064  0.2123  0.6611  0.0069
 1382TIP3    H125705   3.203   1.060   1.018  1.5223 -0.9108  1.2599
 1382TIP3    H225706   3.121   1.089   1.142  0.5311  0.1600  0.3771
 1383TIP3   OH225707   6.654   3.478   7.954  0.2182  0.2535  0.2940
 1383TIP3    H125708   6.724   3.504   7.895  0.5262  0.1075  0.5932
 1383TIP3    H225709   6.628   3.559   7.997 -0.2049  0.4115 -0.2482
 1384TIP3   OH225710   3.150   1.694   1.743 -0.6167  0.2518  0.4228
 1384TIP3    H125711   3.166   1.600   1.728 -0.0218  0.6057 -1.3496
 1384TIP3    H225712   3.087   1.695   1.816 -0.5212 -1.5150  0.5903
 1385TIP3   OH225713   5.865   6.176   8.435 -0.4807  0.3315 -0.1107
 1385TIP3    H125714   5.875   6.134   8.520 -1.0563  0.1538 -0.1281
 1385TIP3    H225715   5.844   6.267   8.456 -1.9280  0.0064 -0.0289
 1386TIP3   OH225716   1.863   5.607   1.508  0.0659 -0.3460 -0.3132
 1386TIP3    H125717   1.864   5.702   1.504  1.0699 -0.3758 -1.3519
 1386TIP3    H225718   1.843   5.586   1.600  1.2187  0.8673  0.2318
 1387TIP3   OH225719   6.484   3.995   2.009 -0.2797  0.4169 -0.3858
 1387TIP3    H125720   6.427   4.064   1.975 -1.0451 -0.2694 -0.5243
 1387TIP3    H225721   6.457   3.984   2.100 -0.6608 -0.1809 -0.5606
 1388TIP3   OH225722   4.132   4.554   7.689  0.6707 -0.3420 -0.1152
 1388TIP3    H125723   4.075   4.627   7.667  0.9162 -0.3348 -0.7562
 1388TIP3    H225724   4.174   4.530   7.606 -0.6113 -2.2544 -0.2739
 1389TIP3   OH225725   3.688   2.482   0.457 -0.5921 -0.1404 -0.2503
 1389TIP3    H125726   3.760   2.507   0.399  1.7180 -1.0657  2.0454
 1389TIP3    H225727   3.705   2.527   0.539 -0.9634 -2.5558  1.2735
 1390TIP3   OH225728   6.259   2.192   1.093 -0.1068  0.4606 -0.1341
 1390TIP3    H125729   6.315   2.233   1.160 -0.6026  0.8435  0.0492
 1390TIP3    H225730   6.255   2.257   1.023  1.2173 -0.3273 -0.9998
 1391TIP3   OH225731   2.704   6.038   1.973  0.4593 -0.2729  0.2268
 1391TIP3    H125732   2.786   6.086   1.979  0.2013  0.3287 -0.9048
 1391TIP3    H225733   2.659   6.075   1.897 -1.2346  0.0075  1.3069
 1392TIP3   OH225734   4.241   2.710   1.916  0.0624 -0.0389 -0.1968
 1392TIP3    H125735   4.287   2.644   1.967  0.7888  1.1114  0.6971
 1392TIP3    H225736   4.181   2.751   1.978 -0.9251 -0.3457 -0.9229
 1393TIP3   OH225737   4.542   0.633   7.708 -0.2510  0.4769 -0.0093
 1393TIP3    H125738   4.557   0.547   7.670 -0.2094  0.8018 -0.7496
 1393TIP3    H225739   4.524   0.616   7.801 -1.0717 -0.4001 -0.3088
 1394TIP3   OH225740   3.156   6.588   8.049  0.6189 -0.3767 -0.1539
 1394TIP3    H125741   3.251   6.578   8.059  0.5765 -1.4336 -0.6565
 1394TIP3    H225742   3.122   6.587   8.139  1.0507 -0.3468  0.0121
 1395TIP3   OH225743   3.084   4.717   6.715  0.6253  0.0959 -0.0233
 1395TIP3    H125744   3.009   4.675   6.758  1.6969 -0.3854  1.4641
 1395TIP3    H225745   3.081   4.808   6.745  0.6012  0.0911 -0.0112
 1396TIP3   OH225746   2.591   6.685   0.132 -0.1010 -0.2228 -0.1078
 1396TIP3    H125747   2.619   6.597   0.111  0.5394 -1.0939  3.6352
 1396TIP3    H225748   2.545   6.677   0.216 -3.1704  2.5574 -1.2694
 1397TIP3   OH225749   4.078   1.236   0.662  0.6958  0.1708  0.3345
 1397TIP3    H125750   4.160   1.215   0.618  0.8216 -0.3768  0.8243
 1397TIP3    H225751   4.011   1.190   0.612  0.2986  2.6592 -1.6774
 1398TIP3   OH225752   2.366   0.831   8.294  0.6181 -0.1155  0.4458
 1398TIP3    H125753   2.369   0.831   8.389  2.7180  0.1925  0.4348
 1398TIP3    H225754   2.274   0.821   8.272  0.1397 -0.5356  2.4994
 1399TIP3   OH225755   2.573   5.536   2.783  0.1547 -0.5622 -0.5401
 1399TIP3    H125756   2.651   5.500   2.826  0.9965  0.0735 -1.4852
 1399TIP3    H225757   2.557   5.478   2.709 -0.3750 -0.7839 -0.2552
 1400TIP3   OH225758   3.412   6.744   1.106  0.6438 -0.0100 -0.0772
 1400TIP3    H125759   3.351   6.782   1.169 -1.3759 -1.1594 -1.2252
 1400TIP3    H225760   3.471   6.815   1.083  0.2456  0.9393  1.6563
 1401TIP3   OH225761   3.564   1.338   8.310  0.4168 -0.1314 -0.1201
 1401TIP3    H125762   3.656   1.324   8.288  0.3549  0.0528 -0.5055
 1401TIP3    H225763   3.543   1.424   8.273  0.2883  0.1519  0.6018
 1402TIP3   OH225764   6.111   2.521   7.979 -0.4191  0.0707 -0.3824
 1402TIP3    H125765   6.037   2.509   7.920  0.8371  0.1671 -2.0300
 1402TIP3    H225766   6.180   2.465   7.944  1.0900  1.7891 -0.3350
 1403TIP3   OH225767   6.048   6.700   8.284 -0.2660  0.8126  0.1839
 1403TIP3    H125768   6.033   6.793   8.299 -2.4323  0.5813 -0.2491
 1403TIP3    H225769   6.120   6.677   8.344 -0.5074  2.4987  1.1779
 1404TIP3   OH225770   5.559   1.379   7.734  0.4599 -0.1258 -0.6001
 1404TIP3    H125771   5.514   1.342   7.659 -1.2261  0.7145 -0.0494
 1404TIP3    H225772   5.607   1.305   7.772 -0.4358 -1.0633 -1.2269
 1405TIP3   OH225773   1.605   1.860   1.870  0.1137  0.1090 -0.0487
 1405TIP3    H125774   1.577   1.894   1.955 -0.7737  0.7383 -0.5698
 1405TIP3    H225775   1.636   1.936   1.822 -1.1587  0.0969 -0.9481
 1406TIP3   OH225776   1.149   6.175   0.929  0.2646  0.0775  0.5032
 1406TIP3    H125777   1.093   6.242   0.890  1.5283  1.3169  0.7436
 1406TIP3    H225778   1.226   6.171   0.872  0.3720 -0.9287  0.6890
 1407TIP3   OH225779   1.351   0.088   0.300  0.2466  0.2016 -0.0135
 1407TIP3    H125780   1.335   0.012   0.244  2.3234  0.7517 -1.4714
 1407TIP3    H225781   1.433   0.068   0.344 -0.6851  0.3651  1.9065
 1408TIP3   OH225782   5.352   0.794   1.607  0.4050 -0.2377  0.1159
 1408TIP3    H125783   5.361   0.802   1.702 -0.2947  1.0585  0.0883
 1408TIP3    H225784   5.412   0.859   1.571 -1.1870  1.0781 -0.2534
 1409TIP3   OH225785   4.101   6.656   8.105 -0.7456  0.5637 -0.5157
 1409TIP3    H125786   4.195   6.656   8.084 -0.4354  1.3868  0.7574
 1409TIP3    H225787   4.058   6.670   8.020  0.2993  0.8164 -1.0308
 1410TIP3   OH225788   6.862   1.757   7.979  0.0748  0.8195 -0.0169
 1410TIP3    H125789   6.829   1.718   8.059 -0.2578  1.9776  0.4214
 1410TIP3    H225790   6.849   1.689   7.912  0.5639 -0.2414  0.9298
 1411TIP3   OH225791   5.749   3.867   7.126 -0.6396 -0.0059  0.4476
 1411TIP3    H125792   5.775   3.775   7.115  0.7165  0.5796 -1.8011
 1411TIP3    H225793   5.656   3.868   7.108 -0.4968 -0.8321 -0.3854
 1412TIP3   OH225794   4.541   5.657   2.228 -0.3367 -0.1713 -0.3180
 1412TIP3    H125795   4.556   5.721   2.159 -0.5758  1.1246  0.7822
 1412TIP3    H225796   4.468   5.693   2.279 -0.5650 -1.3845  0.2695
 1413TIP3   OH225797   2.863   2.110   0.184  0.2135  0.5794 -0.1110
 1413TIP3    H125798   2.912   2.077   0.109  0.0744  0.0808  0.0126
 1413TIP3    H225799   2.849   2.203   0.165 -0.6804  0.2461 -1.1699
 1414TIP3   OH225800   3.985   0.056   0.828 -0.8405 -0.5576  0.2529
 1414TIP3    H125801   3.907   0.072   0.882 -0.4642  0.5587  0.4990
 1414TIP3    H225802   4.058   0.091   0.880 -0.2354 -1.1028 -0.2090
 1415TIP3   OH225803   1.471   5.604   1.521 -0.2699  0.3777  0.5404
 1415TIP3    H125804   1.514   5.650   1.448 -0.3555 -0.3851 -0.0039
 1415TIP3    H225805   1.543   5.569   1.573 -0.2110  0.7075  0.6814
 1416TIP3   OH225806   0.477   6.015   6.290  0.1223 -0.3978  0.0633
 1416TIP3    H125807   0.540   6.087   6.283 -0.4407  0.0337 -0.7511
 1416TIP3    H225808   0.392   6.058   6.297 -0.2602 -0.9656 -0.8703
 1417TIP3   OH225809   1.213   4.198   6.608 -0.0074 -0.0738  0.6733
 1417TIP3    H125810   1.120   4.216   6.620  0.1344  1.0133  0.2762
 1417TIP3    H225811   1.217   4.145   6.529 -0.2329  0.6626  0.1545
 1418TIP3   OH225812   5.431   4.221   7.900 -0.1097 -0.0830  0.0883
 1418TIP3    H125813   5.453   4.278   7.826  0.1112  0.5925  0.6583
 1418TIP3    H225814   5.483   4.142   7.885  0.2992  0.2372 -0.2294
 1419TIP3   OH225815   2.681   6.740   1.899 -0.4307 -0.3334 -0.2269
 1419TIP3    H125816   2.682   6.698   1.984 -1.4119 -0.5314 -0.2993
 1419TIP3    H225817   2.716   6.674   1.839 -3.1856 -1.6355 -0.5609
 1420TIP3   OH225818   3.567   1.031   8.400  0.0147 -0.2632  0.0636
 1420TIP3    H125819   3.495   0.971   8.379 -1.6738  1.2054  1.3704
 1420TIP3    H225820   3.556   1.104   8.339  1.5355 -0.8052 -0.9339
 1421TIP3   OH225821   1.797   4.225   7.144  0.5671  0.6363 -0.4260
 1421TIP3    H125822   1.875   4.277   7.123  1.3454 -0.1913  0.2688
 1421TIP3    H225823   1.831   4.136   7.156 -0.2402  0.5146  1.3321
 1422TIP3   OH225824   1.529   5.395   0.466  0.1852  0.5087  0.3134
 1422TIP3    H125825   1.509   5.344   0.388  0.2979 -0.0861  0.6657
 1422TIP3    H225826   1.622   5.378   0.483  0.1639  0.6382  0.5725
 1423TIP3   OH225827   5.453   1.299   6.678  0.4646  0.2011  0.0927
 1423TIP3    H125828   5.464   1.389   6.646 -1.5394  1.4470  2.5419
 1423TIP3    H225829   5.411   1.253   6.606  2.3435  0.9321 -1.5517
 1424TIP3   OH225830   0.045   1.643   8.402  0.1347  0.6945  0.4599
 1424TIP3    H125831   0.036   1.552   8.431  3.0107  0.3337  0.5396
 1424TIP3    H225832   0.115   1.640   8.336 -1.5816  2.5026 -1.5863
 1425TIP3   OH225833   3.989   6.075   7.410  0.4851  0.8179  0.1777
 1425TIP3    H125834   4.015   6.015   7.480 -0.3521 -0.7664 -0.8156
 1425TIP3    H225835   3.894   6.064   7.402  0.2334  2.5894  0.2183
 1426TIP3   OH225836   1.062   0.128   6.939  0.6795  0.2756  0.1423
 1426TIP3    H125837   1.042   0.041   6.973 -1.5418  0.5182 -0.4164
 1426TIP3    H225838   1.042   0.122   6.845 -2.6636  2.1653  0.5897
 1427TIP3   OH225839   1.329   0.814   1.428 -0.1231  0.0097 -0.3562
 1427TIP3    H125840   1.387   0.880   1.467  0.2020 -0.3554 -0.2215
 1427TIP3    H225841   1.308   0.755   1.500 -0.0695 -0.2807 -0.5804
 1428TIP3   OH225842   2.332   2.402   0.779 -0.3897 -0.4556 -0.2348
 1428TIP3    H125843   2.288   2.408   0.864 -0.0209 -0.1578 -0.0635
 1428TIP3    H225844   2.284   2.464   0.723 -1.1469 -1.2436 -0.4778
 1429TIP3   OH225845   0.537   2.431   1.975 -0.3301 -0.1248  0.6719
 1429TIP3    H125846   0.468   2.497   1.984 -1.3606 -0.9119 -0.8511
 1429TIP3    H225847   0.494   2.359   1.930  1.8990  0.0680 -2.0417
 1430TIP3   OH225848   4.782   5.357   1.357 -0.0608 -0.7776 -0.0300
 1430TIP3    H125849   4.817   5.311   1.433  0.3683 -1.5298 -0.6689
 1430TIP3    H225850   4.832   5.439   1.354 -0.7422 -0.3025  1.0376
 1431TIP3   OH225851   1.158   1.549   0.507 -0.8394  0.2141 -0.3961
 1431TIP3    H125852   1.184   1.605   0.434  0.4530 -0.1441 -0.2403
 1431TIP3    H225853   1.230   1.486   0.516 -1.4603 -0.3969  0.5208
 1432TIP3   OH225854   5.292   0.643   0.578  0.5732  0.4023  0.4980
 1432TIP3    H125855   5.321   0.694   0.653  0.7540  1.1308 -0.0616
 1432TIP3    H225856   5.228   0.698   0.534 -1.8820 -1.2146  1.7798
 1433TIP3   OH225857   1.164   0.856   2.213  0.0219 -0.1011 -0.3458
 1433TIP3    H125858   1.145   0.858   2.119  1.0739 -0.4108 -0.5796
 1433TIP3    H225859   1.245   0.908   2.221 -0.8059  1.0970  0.5814
 1434TIP3   OH225860   2.174   2.625   7.023  0.0860 -0.1726  0.6582
 1434TIP3    H125861   2.156   2.719   7.020  0.8120 -0.0188  0.8192
 1434TIP3    H225862   2.168   2.597   6.931  2.8801  0.6623  0.1131
 1435TIP3   OH225863   4.855   5.342   0.518 -0.3583  0.1416  0.1643
 1435TIP3    H125864   4.782   5.298   0.562  0.6747 -1.1594  0.6439
 1435TIP3    H225865   4.844   5.319   0.425 -0.0972 -0.7866  0.3482
 1436TIP3   OH225866   2.802   3.037   0.386  0.3901 -0.6247  0.2419
 1436TIP3    H125867   2.888   2.995   0.376  0.2662 -0.3530 -3.1530
 1436TIP3    H225868   2.742   2.978   0.340 -0.7095  0.6401  0.0037
 1437TIP3   OH225869   5.755   1.791   0.378 -0.2461 -0.7295 -0.2422
 1437TIP3    H125870   5.713   1.721   0.427 -0.6742 -0.0079  0.4380
 1437TIP3    H225871   5.832   1.815   0.430 -1.0793  0.5093  0.4760
 1438TIP3   OH225872   0.670   3.539   1.437  0.0397 -0.3875  0.2373
 1438TIP3    H125873   0.743   3.571   1.383 -1.2707  1.2485 -0.6513
 1438TIP3    H225874   0.686   3.578   1.523 -0.7774  1.6506 -0.4658
 1439TIP3   OH225875   1.806   6.047   6.241  0.1613 -0.2013 -0.5607
 1439TIP3    H125876   1.788   5.953   6.228  2.1316 -0.4878 -1.6619
 1439TIP3    H225877   1.871   6.049   6.311  0.4175  0.3047 -0.8085
 1440TIP3   OH225878   4.049   5.754   6.461 -0.0514  0.1404  0.1006
 1440TIP3    H125879   4.109   5.811   6.413  1.6848  0.0312  2.0139
 1440TIP3    H225880   4.049   5.789   6.550 -1.4719 -0.9415  0.5668
 1441TIP3   OH225881   6.424   1.732   1.141 -0.2963  0.0582 -0.0900
 1441TIP3    H125882   6.420   1.826   1.125 -1.0401  0.4726  2.1583
 1441TIP3    H225883   6.351   1.715   1.201  1.1598 -1.5345  1.3385
 1442TIP3   OH225884   5.062   5.607   1.024 -0.1355  0.2646 -0.6428
 1442TIP3    H125885   5.128   5.547   0.988 -1.3270 -1.5667  0.1115
 1442TIP3    H225886   4.984   5.554   1.036 -1.1144  1.8609  0.5491
 1443TIP3   OH225887   2.188   2.536   7.595 -0.2049 -0.3257  0.1566
 1443TIP3    H125888   2.166   2.481   7.520 -0.4079 -0.6575  0.4538
 1443TIP3    H225889   2.284   2.533   7.600 -0.2542 -1.9352  1.0891
 1444TIP3   OH225890   3.697   5.289   7.650  0.6937  0.2375 -0.2666
 1444TIP3    H125891   3.631   5.304   7.583 -0.8648 -1.1922  0.8794
 1444TIP3    H225892   3.725   5.199   7.637 -1.7323 -1.1318  2.6157
 1445TIP3   OH225893   4.735   2.247   2.321 -0.1929 -0.3121 -0.2465
 1445TIP3    H125894   4.734   2.289   2.235  0.9292 -1.5511 -0.9036
 1445TIP3    H225895   4.754   2.318   2.382 -1.0895  0.6050 -0.9994
 1446TIP3   OH225896   1.065   5.310   0.507  0.0029  0.1374  0.3888
 1446TIP3    H125897   1.080   5.227   0.463 -1.0442  0.5771 -0.8395
 1446TIP3    H225898   1.062   5.287   0.600 -0.5284 -1.2407  0.0556
 1447TIP3   OH225899   1.931   6.235   7.156 -0.0924 -0.1121  0.1188
 1447TIP3    H125900   1.903   6.229   7.064  1.2700 -0.4318 -0.2909
 1447TIP3    H225901   1.879   6.169   7.201 -1.7619  0.9474 -0.1358
 1448TIP3   OH225902   4.050   5.473   0.673  0.5714  0.0120  0.1766
 1448TIP3    H125903   4.026   5.496   0.583  0.4818 -0.4290  0.0818
 1448TIP3    H225904   4.101   5.547   0.705  1.2274 -0.1357 -0.4914
 1449TIP3   OH225905   2.833   6.570   7.617  0.0531 -0.2299 -0.1034
 1449TIP3    H125906   2.904   6.506   7.609  0.3210 -0.0106  0.4974
 1449TIP3    H225907   2.758   6.519   7.648  0.6659 -0.0214  1.8637
 1450TIP3   OH225908   1.151   3.888   7.761 -0.3521 -0.1670  0.0675
 1450TIP3    H125909   1.157   3.866   7.668  0.6252 -0.4145  0.1705
 1450TIP3    H225910   1.215   3.958   7.773 -0.7155  0.0966  0.4874
 1451TIP3   OH225911   0.270   5.122   0.675  0.2638  0.3289 -0.3556
 1451TIP3    H125912   0.198   5.069   0.708  0.0492  0.1455 -1.1024
 1451TIP3    H225913   0.344   5.061   0.670  0.6448  0.6495  0.9562
 1452TIP3   OH225914   2.909   4.346   0.040 -0.5362 -0.3569 -0.0174
 1452TIP3    H125915   2.843   4.375   0.102 -1.4069  0.6442 -1.3390
 1452TIP3    H225916   2.992   4.356   0.086 -1.0375  1.7323  0.5225
 1453TIP3   OH225917   5.059   6.367   1.256  0.0091 -0.0928 -0.1353
 1453TIP3    H125918   5.153   6.357   1.269 -0.0021  1.4386  1.6144
 1453TIP3    H225919   5.051   6.420   1.176  0.6450 -0.1026 -0.2041
 1454TIP3   OH225920   0.820   6.475   7.052  0.4117  0.5769  0.1907
 1454TIP3    H125921   0.892   6.420   7.085 -0.7832 -0.9896  0.3026
 1454TIP3    H225922   0.771   6.417   6.994 -0.9098  1.5385  0.3165
 1455TIP3   OH225923   3.752   3.707   1.497 -0.2052  0.4247  0.6747
 1455TIP3    H125924   3.731   3.765   1.424 -1.1603  2.2267  2.2619
 1455TIP3    H225925   3.847   3.697   1.494 -0.2750 -0.1082 -1.1628
 1456TIP3   OH225926   2.507   1.626   6.619  0.0253  0.2926 -0.1755
 1456TIP3    H125927   2.594   1.654   6.646  0.8047 -2.0004 -0.1134
 1456TIP3    H225928   2.515   1.532   6.606 -2.0941  0.2493 -1.6041
 1457TIP3   OH225929   6.383   1.998   6.953 -0.3593  0.1940  0.3041
 1457TIP3    H125930   6.456   1.941   6.978  0.4551  1.6747  1.4722
 1457TIP3    H225931   6.311   1.938   6.936  0.8673 -1.2676  0.0087
 1458TIP3   OH225932   1.851   5.807   0.575 -0.1075 -0.6442  0.1968
 1458TIP3    H125933   1.844   5.762   0.659 -2.4536  0.1576  0.4930
 1458TIP3    H225934   1.893   5.891   0.596 -2.4075  0.3750  0.9647
 1459TIP3   OH225935   4.959   1.020   7.444 -0.5591 -0.0878  0.1367
 1459TIP3    H125936   4.996   0.975   7.368  2.0132  0.8421  0.7476
 1459TIP3    H225937   4.909   0.952   7.490  2.9624 -2.3919  0.8870
 1460TIP3   OH225938   6.168   0.692   0.349 -0.2331 -0.2261  0.1275
 1460TIP3    H125939   6.118   0.759   0.304  0.6104 -0.4879 -1.2506
 1460TIP3    H225940   6.257   0.698   0.313  0.6525 -0.0804  2.1695
 1461TIP3   OH225941   3.075   2.897   0.972 -0.7048 -0.2185  0.2205
 1461TIP3    H125942   2.998   2.927   1.021 -0.1750  0.2960  0.7460
 1461TIP3    H225943   3.120   2.838   1.033  0.8790  1.7502  1.0353
 1462TIP3   OH225944   5.477   2.968   7.149  0.4618 -0.8668 -0.0152
 1462TIP3    H125945   5.552   2.940   7.097 -0.0321  0.2212 -1.3968
 1462TIP3    H225946   5.401   2.954   7.092 -0.1978 -0.3639  0.7083
 1463TIP3   OH225947   1.372   3.446   8.272 -0.0495  0.0730 -0.3618
 1463TIP3    H125948   1.420   3.392   8.334 -1.2079 -0.9934 -0.3697
 1463TIP3    H225949   1.306   3.388   8.235  2.3891 -0.2482 -4.8550
 1464TIP3   OH225950   4.679   3.728   1.633 -0.2550  0.3441  0.1854
 1464TIP3    H125951   4.617   3.730   1.561 -0.9417 -1.1957  0.6831
 1464TIP3    H225952   4.647   3.794   1.694  0.2754  1.5843 -0.8389
 1465TIP3   OH225953   0.588   6.010   1.425 -0.2123  0.0517 -0.7165
 1465TIP3    H125954   0.543   6.042   1.347 -2.3172 -0.9973 -0.0232
 1465TIP3    H225955   0.522   6.018   1.495  1.4138  0.4172  0.8397
 1466TIP3   OH225956   5.104   1.699   7.125 -0.0105  0.0684  0.5852
 1466TIP3    H125957   5.181   1.732   7.079  0.1675  1.1370  1.6127
 1466TIP3    H225958   5.072   1.774   7.175 -0.1322 -1.0714  2.2875
 1467TIP3   OH225959   6.467   1.814   8.063  0.6215 -0.4423  0.6823
 1467TIP3    H125960   6.560   1.802   8.043  0.7280  1.5213 -0.2453
 1467TIP3    H225961   6.426   1.827   7.978 -0.1861  0.6450  1.2221
 1468TIP3   OH225962   1.631   1.310   0.137  0.0217 -0.0485 -0.2094
 1468TIP3    H125963   1.683   1.259   0.200 -2.7013 -0.5548  1.8134
 1468TIP3    H225964   1.630   1.398   0.174 -1.0831 -0.2056  0.1636
 1469TIP3   OH225965   5.612   0.025   0.209  0.6105  0.5121  0.1562
 1469TIP3    H125966   5.629   0.047   0.118  0.2249 -1.2621 -0.3859
 1469TIP3    H225967   5.583   0.107   0.249  1.0862  1.3850 -1.2258
 1470TIP3   OH225968   3.479   6.262   8.130 -0.2085  0.8395 -0.0744
 1470TIP3    H125969   3.534   6.183   8.132 -1.7323 -0.2999 -0.8507
 1470TIP3    H225970   3.522   6.320   8.068  1.9073  1.4410  1.7825
 1471TIP3   OH225971   2.862   1.236   2.165  0.0300  0.1431  0.4985
 1471TIP3    H125972   2.942   1.224   2.115 -0.6359  0.5473 -0.6890
 1471TIP3    H225973   2.848   1.331   2.166 -1.4857 -0.0164 -1.0379
 1472TIP3   OH225974   2.197   4.881   7.983 -0.9897 -0.1872 -0.0744
 1472TIP3    H125975   2.248   4.801   7.971 -2.1069 -1.0822  0.9306
 1472TIP3    H225976   2.111   4.860   7.947 -1.2769  0.5888  0.1392
 1473TIP3   OH225977   6.078   6.119   1.177  0.2189 -0.0078 -0.4047
 1473TIP3    H125978   6.076   6.172   1.256 -1.7985 -1.2382  0.4443
 1473TIP3    H225979   6.133   6.044   1.200 -2.1704 -1.5463  0.7589
 1474TIP3   OH225980   3.564   4.077   8.212  0.5082  0.5107 -0.0658
 1474TIP3    H125981   3.550   4.025   8.133  0.2888 -1.6992  1.3578
 1474TIP3    H225982   3.480   4.120   8.228 -0.2792 -1.0967  0.3445
 1475TIP3   OH225983   0.150   5.916   7.207  0.2441 -0.4073  0.1161
 1475TIP3    H125984   0.146   5.824   7.231 -0.8357 -0.5203 -0.4397
 1475TIP3    H225985   0.060   5.939   7.186  0.5475  0.7036 -0.0322
 1476TIP3   OH225986   2.172   0.251   7.298 -0.3868  0.1010  0.0384
 1476TIP3    H125987   2.171   0.274   7.391  1.7756 -1.2264  0.4611
 1476TIP3    H225988   2.176   0.335   7.253 -0.0337  0.7309  1.1969
 1477TIP3   OH225989   4.746   6.869   0.872 -0.2839 -0.0821 -0.3665
 1477TIP3    H125990   4.750   6.838   0.963 -1.7011 -1.3381 -0.7156
 1477TIP3    H225991   4.728   6.791   0.820 -2.4795  1.0505 -1.4159
 1478TIP3   OH225992   1.303   6.069   0.651 -0.5239 -0.3719 -0.0583
 1478TIP3    H125993   1.262   6.085   0.565  0.1163  2.4638  0.0746
 1478TIP3    H225994   1.396   6.064   0.631 -0.4115 -0.1167  0.4034
 1479TIP3   OH225995   0.019   2.517   2.372  0.7747 -0.5538 -0.0091
 1479TIP3    H125996   0.034   2.561   2.456 -1.5025 -1.2191  0.8189
 1479TIP3    H225997  -0.017   2.586   2.316 -1.6289 -0.9563  0.9114
 1480TIP3   OH225998   2.779   6.147   1.120 -0.3777 -0.0479 -0.1437
 1480TIP3    H125999   2.712   6.212   1.140  0.5011  0.7855  0.1248
 1480TIP3    H226000   2.849   6.164   1.182 -0.3659 -1.6384  0.3209
 1481TIP3   OH226001   3.962   2.138   1.853 -0.4358 -0.6521 -0.3321
 1481TIP3    H126002   3.960   2.113   1.761  1.9401  1.4033 -1.0744
 1481TIP3    H226003   4.012   2.067   1.895 -1.9402 -1.8427 -0.4809
 1482TIP3   OH226004   0.993   6.283   1.752  0.2340  0.0911  0.3322
 1482TIP3    H126005   1.015   6.285   1.845 -1.9780  0.9743  0.9115
 1482TIP3    H226006   0.947   6.200   1.740  0.5362 -0.0317  0.0247
 1483TIP3   OH226007   5.011   6.639   1.587 -0.1366  0.6243  0.3024
 1483TIP3    H126008   5.082   6.651   1.524 -1.1545  0.0867 -1.0090
 1483TIP3    H226009   5.006   6.723   1.634  2.9789 -0.1289  2.2576
 1484TIP3   OH226010   3.887   0.693   0.936  0.2138 -0.0803  0.0314
 1484TIP3    H126011   3.906   0.780   0.901  1.3799 -0.3978 -0.1627
 1484TIP3    H226012   3.956   0.677   1.001 -1.0142 -0.1357  1.3999
 1485TIP3   OH226013   4.939   3.204   1.298  1.0338  0.3802 -0.2822
 1485TIP3    H126014   5.028   3.189   1.330  0.3969  0.1380  1.4479
 1485TIP3    H226015   4.939   3.295   1.269  1.3942  0.9252  1.3256
 1486TIP3   OH226016   0.687   4.935   7.422  0.4262 -0.2087  0.2992
 1486TIP3    H126017   0.704   5.020   7.381  0.1634 -0.4188 -0.2529
 1486TIP3    H226018   0.774   4.904   7.448  0.9243 -1.0338 -2.0284
 1487TIP3   OH226019   0.846   5.017   0.005 -0.1359 -0.2507 -0.5282
 1487TIP3    H126020   0.919   5.079   0.013 -0.4672 -0.1107  2.1500
 1487TIP3    H226021   0.888   4.931   0.010 -0.1526 -0.2007  2.9187
 1488TIP3   OH226022   1.228   0.976   8.148  0.3187  0.3865 -0.6541
 1488TIP3    H126023   1.304   0.939   8.104  1.0295  0.3303  0.5994
 1488TIP3    H226024   1.187   0.903   8.194 -0.7443  0.3335 -1.6349
 1489TIP3   OH226025   1.335   6.385   7.602  0.7310 -0.2724 -0.4301
 1489TIP3    H126026   1.411   6.334   7.630  1.1295  0.6259  0.1536
 1489TIP3    H226027   1.360   6.476   7.617 -1.4242 -0.0217  2.2959
 1490TIP3   OH226028   1.948   1.494   0.421  0.6264  0.4589 -0.1585
 1490TIP3    H126029   1.883   1.470   0.488  0.0372  1.8567 -0.1871
 1490TIP3    H226030   1.907   1.470   0.338 -0.5992  2.7292 -0.2952
 1491TIP3   OH226031   3.543   6.339   1.278  0.2060  0.4654 -0.1475
 1491TIP3    H126032   3.489   6.377   1.349  0.1664 -0.0909  0.1260
 1491TIP3    H226033   3.628   6.324   1.319  0.0957 -0.1301 -0.1363
 1492TIP3   OH226034   3.229   4.834   2.484 -0.1261  0.1732 -0.3987
 1492TIP3    H126035   3.269   4.785   2.557 -1.0066  0.2297  0.1293
 1492TIP3    H226036   3.179   4.903   2.526 -1.5806 -0.4686 -0.9919
 1493TIP3   OH226037   6.176   1.787   6.905 -0.5692 -0.4157  0.2786
 1493TIP3    H126038   6.145   1.775   6.995 -1.5382 -1.0324 -0.1262
 1493TIP3    H226039   6.112   1.845   6.865  1.1988  1.9286  0.6604
 1494TIP3   OH226040   1.262   1.093   7.604 -0.4170 -0.7527  0.9632
 1494TIP3    H126041   1.249   1.129   7.692 -0.5870 -0.8399  0.9747
 1494TIP3    H226042   1.173   1.072   7.574 -0.3295 -1.0285  0.8992
 1495TIP3   OH226043   3.849   1.061   8.399  0.7604 -0.3209 -0.3306
 1495TIP3    H126044   3.763   1.044   8.361  1.2252 -2.2670 -0.6264
 1495TIP3    H226045   3.836   1.047   8.493  0.6428 -0.1053 -0.3139
 1496TIP3   OH226046   3.531   1.727   7.168 -0.5138  0.9062  0.0586
 1496TIP3    H126047   3.625   1.740   7.181 -0.4871  1.0525 -0.2848
 1496TIP3    H226048   3.510   1.778   7.090 -0.6519 -0.0386 -0.5517
 1497TIP3   OH226049   6.376   6.627   7.360 -0.5185  0.6089  0.2596
 1497TIP3    H126050   6.354   6.558   7.297 -0.8934  0.9653 -0.0047
 1497TIP3    H226051   6.292   6.660   7.390 -0.3456  1.2163  0.0900
 1498TIP3   OH226052   1.940   2.219   0.358  0.7036  0.1245  0.4741
 1498TIP3    H126053   1.892   2.290   0.399  0.0976  0.0493 -0.0824
 1498TIP3    H226054   2.031   2.248   0.357  0.5805  0.5267  0.9990
 1499TIP3   OH226055   1.297   3.080   8.321  0.3703  0.4125 -0.2257
 1499TIP3    H126056   1.277   3.094   8.228 -0.7003  0.3732 -0.0201
 1499TIP3    H226057   1.297   2.985   8.331 -1.1705  0.4231  0.1239
 1500TIP3   OH226058   1.762   6.901   8.447 -0.4582 -0.2158 -0.0809
 1500TIP3    H126059   1.774   6.908   8.542 -1.1514 -0.6704  0.0473
 1500TIP3    H226060   1.845   6.932   8.410  0.6076 -1.9651  0.7169
 1501TIP3   OH226061   5.185   2.248   1.089 -0.0524 -0.0421  0.4831
 1501TIP3    H126062   5.202   2.329   1.137  0.3817  0.3129 -0.2597
 1501TIP3    H226063   5.105   2.266   1.039  0.9013  0.5030 -0.9074
 1502TIP3   OH226064   4.951   2.596   0.130 -0.5181  0.0197  0.1686
 1502TIP3    H126065   4.946   2.502   0.143 -0.3376 -0.0036  0.0788
 1502TIP3    H226066   5.027   2.624   0.183 -0.8442  0.1812  0.5573
 1503TIP3   OH226067   2.193   0.570   1.696  0.0030 -0.0710 -0.0239
 1503TIP3    H126068   2.166   0.523   1.618 -0.1283 -2.2452  1.2611
 1503TIP3    H226069   2.242   0.506   1.747  0.4048  1.3909  1.5201
 1504TIP3   OH226070   4.107   4.015   1.491  0.0986 -0.2724 -0.0680
 1504TIP3    H126071   4.197   3.988   1.512  0.6324  0.6404 -1.0972
 1504TIP3    H226072   4.089   4.086   1.552  0.2000 -0.2201 -0.0989
 1505TIP3   OH226073   5.964   3.513   7.525 -0.1757  0.2467  0.3210
 1505TIP3    H126074   5.936   3.449   7.590  2.8503  1.2905  2.9033
 1505TIP3    H226075   6.058   3.523   7.540 -0.3286  4.8747 -0.2090
 1506TIP3   OH226076   5.256   4.387   1.507  0.4524 -0.2561 -0.3413
 1506TIP3    H126077   5.220   4.469   1.474 -1.6321 -1.3105 -0.8120
 1506TIP3    H226078   5.290   4.410   1.594 -2.0878  0.6865  0.4896
 1507TIP3   OH226079   5.051   1.520   7.353 -0.2500 -0.4134 -0.1167
 1507TIP3    H126080   5.054   1.596   7.295 -0.4752  0.6834  1.2522
 1507TIP3    H226081   5.140   1.485   7.351  0.2776  0.8330  0.4164
 1508TIP3   OH226082   4.522   4.105   0.239  0.1441  1.0313 -0.2982
 1508TIP3    H126083   4.485   4.045   0.304  1.5463 -0.2441 -0.5931
 1508TIP3    H226084   4.617   4.100   0.254  0.3017  3.4070 -0.1871
 1509TIP3   OH226085   1.146   5.927   7.487  0.1801 -0.1153 -0.3692
 1509TIP3    H126086   1.217   5.945   7.425  0.2226  1.0772  0.0003
 1509TIP3    H226087   1.184   5.865   7.550  2.2129  3.1574  1.9467
 1510TIP3   OH226088   6.497   0.618   6.756 -0.0547  0.0825  0.1756
 1510TIP3    H126089   6.471   0.574   6.675 -1.5924  1.6675 -0.2752
 1510TIP3    H226090   6.450   0.572   6.825 -0.7910  0.3162 -0.1604
 1511TIP3   OH226091   0.063   3.439   8.275  0.1926  0.5208 -0.2604
 1511TIP3    H126092   0.158   3.440   8.289  0.3677 -0.4308 -1.3081
 1511TIP3    H226093   0.031   3.512   8.328  1.5202  0.9430  0.0011
 1512TIP3   OH226094   2.581   1.472   1.196  0.1796  0.8499  0.0883
 1512TIP3    H126095   2.517   1.543   1.193  0.3552  1.0164  0.2221
 1512TIP3    H226096   2.558   1.424   1.276 -0.7878 -0.0563 -0.7110
 1513TIP3   OH226097   0.615   0.281   0.523 -0.1451  0.2186 -0.3527
 1513TIP3    H126098   0.640   0.280   0.615 -1.5754 -0.0593  0.0537
 1513TIP3    H226099   0.698   0.270   0.475  0.5821  0.1469  0.8916
 1514TIP3   OH226100   6.352   1.625   2.588  0.5167 -0.4669  0.3436
 1514TIP3    H126101   6.315   1.537   2.583  0.1782 -0.3684  0.9739
 1514TIP3    H226102   6.282   1.683   2.557  0.9935 -0.4711 -0.7766
 1515TIP3   OH226103   5.907   2.454   7.792 -0.1145 -0.1991 -0.4206
 1515TIP3    H126104   5.934   2.468   7.702 -1.1107 -1.2163 -0.9022
 1515TIP3    H226105   5.841   2.522   7.808 -1.2679 -1.1161 -1.0890
 1516TIP3   OH226106   4.682   2.393   2.049 -0.1633 -0.1662 -0.2866
 1516TIP3    H126107   4.770   2.420   2.021  0.1088  0.9136  1.4574
 1516TIP3    H226108   4.623   2.443   1.992  0.3587  0.6453 -0.1274
 1517TIP3   OH226109   0.699   4.333   7.861 -0.7148 -0.3818 -0.3171
 1517TIP3    H126110   0.678   4.419   7.896 -0.6543  0.0571 -1.3492
 1517TIP3    H226111   0.623   4.308   7.809 -0.2267 -0.4165 -1.0192
 1518TIP3   OH226112   0.264   5.375   0.865  0.4876  0.1896 -0.1517
 1518TIP3    H126113   0.358   5.391   0.871  0.7516 -1.1750 -0.5144
 1518TIP3    H226114   0.246   5.368   0.772  0.1702 -0.3466 -0.0544
 1519TIP3   OH226115   0.123   3.603   7.554 -0.3896 -0.3797  0.6652
 1519TIP3    H126116   0.188   3.567   7.494  0.0434  0.6033  0.5341
 1519TIP3    H226117   0.039   3.581   7.515 -0.1472 -1.3089  0.6308
 1520TIP3   OH226118   2.449   0.154   7.677  0.0136  0.0687  0.3887
 1520TIP3    H126119   2.445   0.060   7.694  0.9623 -0.1558 -0.5192
 1520TIP3    H226120   2.541   0.170   7.655 -0.0168  1.3161  1.0934
 1521TIP3   OH226121   0.857   5.409   1.430  0.4785  0.3811  0.0607
 1521TIP3    H126122   0.828   5.477   1.370  0.8113  0.1646 -0.3476
 1521TIP3    H226123   0.777   5.383   1.478 -0.8078 -2.4281 -3.1958
 1522TIP3   OH226124   1.701   1.240   1.722  0.3317 -0.1672  0.2343
 1522TIP3    H126125   1.718   1.226   1.816  0.1695 -0.0958  0.2740
 1522TIP3    H226126   1.686   1.153   1.687  0.0855 -0.1635  0.3329
 1523TIP3   OH226127   3.203   4.574   8.400  0.1699 -0.0842  0.3095
 1523TIP3    H126128   3.239   4.566   8.488  1.0951  0.3726 -0.0115
 1523TIP3    H226129   3.280   4.586   8.344 -0.5049  1.5919 -0.3235
 1524TIP3   OH226130   2.319   6.561   8.244  0.1977  0.2546 -0.0268
 1524TIP3    H126131   2.348   6.647   8.215  0.8589  0.0490 -0.0040
 1524TIP3    H226132   2.229   6.554   8.214  0.2909  0.7669 -0.4366
 1525TIP3   OH226133   0.057   0.932   0.832  0.6227 -0.2929 -0.4356
 1525TIP3    H126134  -0.022   0.878   0.828 -0.1452  0.7197  0.4917
 1525TIP3    H226135   0.045   0.985   0.911  2.2198 -0.0984 -0.3019
 1526TIP3   OH226136   0.816   6.088   0.425 -0.2989 -0.1036  0.2067
 1526TIP3    H126137   0.792   6.061   0.337 -2.9684  1.3325  0.4064
 1526TIP3    H226138   0.816   6.007   0.476 -1.8082 -0.5724 -0.4976
 1527TIP3   OH226139   3.281   3.247   7.959 -0.1998  1.1522  0.3557
 1527TIP3    H126140   3.295   3.189   7.883 -0.0719 -0.7218  1.7287
 1527TIP3    H226141   3.187   3.242   7.976 -0.0716  0.6493  0.9735
 1528TIP3   OH226142   6.282   4.480   1.579  0.6266  0.0010  0.6082
 1528TIP3    H126143   6.340   4.408   1.554 -0.9660 -1.1553  0.0302
 1528TIP3    H226144   6.326   4.523   1.652  2.7031 -0.1268 -0.4903
 1529TIP3   OH226145   1.020   3.079   1.261  0.5314  0.2418 -0.3995
 1529TIP3    H126146   0.994   3.111   1.174 -4.3031  2.4319  1.4740
 1529TIP3    H226147   1.033   2.985   1.249  0.5602  0.5446 -3.5404
 1530TIP3   OH226148   0.070   4.077   0.885 -0.1706 -0.2591 -0.0735
 1530TIP3    H126149   0.157   4.050   0.857 -0.5620 -0.3075 -1.3146
 1530TIP3    H226150   0.085   4.149   0.946  0.8542 -2.5169  2.5388
 1531TIP3   OH226151   5.226   0.240   2.322 -0.1490 -0.0043 -0.0696
 1531TIP3    H126152   5.220   0.311   2.386 -0.9030  0.3720 -0.5459
 1531TIP3    H226153   5.148   0.250   2.268 -0.7535 -1.7368  0.4160
 1532TIP3   OH226154   6.709   1.470   6.533  0.5280  0.0772  0.8035
 1532TIP3    H126155   6.791   1.518   6.527  0.2253  0.4903 -0.2375
 1532TIP3    H226156   6.718   1.400   6.469  0.3861 -0.3705  1.2696
 1533TIP3   OH226157   4.462   3.955   8.248 -0.3944 -0.0591 -0.0385
 1533TIP3    H126158   4.541   3.903   8.237  0.3460  0.9215  0.5338
 1533TIP3    H226159   4.435   3.976   8.158 -0.0799 -0.4975 -0.2371
 1534TIP3   OH226160   2.761   6.191   3.021 -0.1133 -0.7930  0.3850
 1534TIP3    H126161   2.679   6.145   3.042 -0.8345  0.6428  0.7985
 1534TIP3    H226162   2.764   6.192   2.926 -0.8040 -0.4609  0.3612
 1535TIP3   OH226163   6.356   6.060   7.275 -0.5323  0.4289  0.0151
 1535TIP3    H126164   6.297   5.986   7.286 -1.3227  1.1436  0.7394
 1535TIP3    H226165   6.337   6.117   7.349  2.4306 -0.1953  1.3945
 1536TIP3   OH226166   0.176   5.950   0.152  0.2497  0.3928 -0.0100
 1536TIP3    H126167   0.224   5.897   0.216 -0.1093  1.7169  1.4095
 1536TIP3    H226168   0.240   5.968   0.083  2.7127  4.0212  2.8631
 1537TIP3   OH226169   4.351   1.450   0.208  0.1552 -0.0753 -0.2805
 1537TIP3    H126170   4.390   1.375   0.163 -2.9722 -0.7289 -2.1914
 1537TIP3    H226171   4.416   1.520   0.198  1.3349 -1.3296 -2.2588
 1538TIP3   OH226172   2.049   4.902   1.482  0.3351  0.3801  0.1480
 1538TIP3    H126173   2.060   4.919   1.388  1.8837  0.3116  0.2942
 1538TIP3    H226174   1.980   4.836   1.486  0.3201  0.3047 -0.9525
 1539TIP3   OH226175   6.889   2.135   7.615  0.4800  0.5079  0.3314
 1539TIP3    H126176   6.860   2.046   7.636  0.0739  1.3677  4.1429
 1539TIP3    H226177   6.814   2.191   7.637  1.5961  1.9729  0.6040
 1540TIP3   OH226178   3.058   2.680   8.210 -0.4951  0.0128  0.2027
 1540TIP3    H126179   3.087   2.771   8.223  0.1075  0.0165 -0.9717
 1540TIP3    H226180   3.139   2.631   8.200 -0.8370 -0.5499  0.1921
 1541TIP3   OH226181   4.107   3.989   0.653 -0.0723  0.0519  0.3862
 1541TIP3    H126182   4.151   3.927   0.711 -0.7096 -0.3215  0.4772
 1541TIP3    H226183   4.136   4.075   0.685  0.8623 -0.1936  0.2166
 1542TIP3   OH226184   1.032   2.468   7.804  0.0250  0.1129 -0.2026
 1542TIP3    H126185   1.126   2.486   7.810  0.1226 -0.4771  0.2330
 1542TIP3    H226186   0.992   2.554   7.794  0.6602  0.3164 -1.1790
 1543TIP3   OH226187   5.829   1.071   0.176 -0.0431  0.4990  0.0502
 1543TIP3    H126188   5.810   0.987   0.134 -1.1069  1.0068 -0.5242
 1543TIP3    H226189   5.848   1.049   0.267  0.3732 -0.4303 -0.2505
 1544TIP3   OH226190   1.478   6.928   0.530  0.1569 -0.5031  0.1920
 1544TIP3    H126191   1.563   6.917   0.571  0.7401  0.4911 -0.7040
 1544TIP3    H226192   1.453   7.018   0.549 -0.7601 -0.8116  0.5367
 1545TIP3   OH226193   3.902   1.131   0.982 -0.4271  0.1049 -0.3891
 1545TIP3    H126194   3.940   1.218   0.969  1.7672 -0.4247  1.7140
 1545TIP3    H226195   3.952   1.094   1.055 -3.7544 -1.4998  1.2924
 1546TIP3   OH226196   6.244   1.381   7.824  0.1706  0.6919 -0.3568
 1546TIP3    H126197   6.248   1.444   7.896  0.7696 -0.8010  0.9924
 1546TIP3    H226198   6.326   1.394   7.777  0.9585  0.0267  0.7652
 1547TIP3   OH226199   4.397   6.415   2.278  0.3547 -0.0438 -0.7845
 1547TIP3    H126200   4.438   6.485   2.329  1.9214 -1.1258 -0.5094
 1547TIP3    H226201   4.350   6.363   2.342  0.6204 -0.2224 -0.7323
 1548TIP3   OH226202   3.398   5.235   0.274  0.5846  0.0047  0.0267
 1548TIP3    H126203   3.372   5.156   0.227  0.1265  0.1708  0.0012
 1548TIP3    H226204   3.470   5.206   0.331 -0.5511 -0.7787  1.1330
 1549TIP3   OH226205   0.307   0.655   1.780 -0.3368  0.4709  0.3755
 1549TIP3    H126206   0.285   0.562   1.778 -0.2433  0.4638 -0.3918
 1549TIP3    H226207   0.269   0.691   1.700  0.1536  0.9683  0.3606
 1550TIP3   OH226208   3.761   3.549   2.049 -0.1896  0.7346  0.1172
 1550TIP3    H126209   3.797   3.461   2.057  0.6325  0.9064 -1.3738
 1550TIP3    H226210   3.701   3.544   1.975 -0.4014  1.3408  0.2432
 1551TIP3   OH226211   2.166   2.657   0.652  0.1865 -0.2607 -0.2928
 1551TIP3    H126212   2.145   2.750   0.643  0.4612 -0.1855 -0.1697
 1551TIP3    H226213   2.113   2.627   0.726  0.5201 -0.0701  0.0244
 1552TIP3   OH226214   0.161   2.483   1.859  0.0256 -0.1511  0.6571
 1552TIP3    H126215   0.128   2.478   1.948  0.1860  0.5134  0.7556
 1552TIP3    H226216   0.221   2.408   1.851 -2.3643 -2.1573  0.0850
 1553TIP3   OH226217   5.676   2.229   7.569 -0.6723 -0.3788 -0.5961
 1553TIP3    H126218   5.769   2.244   7.555 -0.7374  0.6548 -0.0544
 1553TIP3    H226219   5.659   2.144   7.529  0.1444  0.1687 -2.1933
 1554TIP3   OH226220   6.663   0.255   0.442 -0.3491 -0.2828  0.4514
 1554TIP3    H126221   6.737   0.261   0.381  0.0533 -2.4948  0.6295
 1554TIP3    H226222   6.603   0.324   0.414  0.7713  0.1158 -1.1153
 1555TIP3   OH226223   1.991   2.372   6.993  0.1172 -0.6170 -0.2414
 1555TIP3    H126224   1.919   2.380   6.931 -1.8835 -1.6132  1.8271
 1555TIP3    H226225   2.010   2.463   7.019  0.4452 -0.2593 -1.6282
 1556TIP3   OH226226   5.186   0.888   7.930  0.4764 -0.1651 -0.4004
 1556TIP3    H126227   5.174   0.983   7.923  0.8126  0.1343  2.1855
 1556TIP3    H226228   5.139   0.864   8.009  2.7209 -1.6879  0.5596
 1557TIP3   OH226229   1.583   5.348   0.203  0.1335 -0.0954  0.4883
 1557TIP3    H126230   1.678   5.350   0.213  0.2861  0.2754 -0.8417
 1557TIP3    H226231   1.563   5.424   0.148 -1.2451  1.4019  2.8524
 1558TIP3   OH226232   2.550   5.725   8.147 -0.4118  0.0456  0.5007
 1558TIP3    H126233   2.642   5.753   8.152 -0.3648  0.1234 -0.6331
 1558TIP3    H226234   2.520   5.728   8.238  0.0268  2.2848  0.6270
 1559TIP3   OH226235   2.304   5.290   2.228 -0.4971 -0.0345 -0.1961
 1559TIP3    H126236   2.210   5.273   2.242 -0.5604  1.3972  1.4221
 1559TIP3    H226237   2.320   5.261   2.138 -1.7971 -3.0548  0.4025
 1560TIP3   OH226238   3.804   1.524   7.048 -0.2936 -0.0582 -0.0839
 1560TIP3    H126239   3.890   1.485   7.038  0.0897  0.9371 -1.0083
 1560TIP3    H226240   3.761   1.510   6.963 -0.2002  1.3166 -0.3936
 1561TIP3   OH226241   0.710   1.202   1.140 -0.1805  0.1164 -0.2659
 1561TIP3    H126242   0.782   1.264   1.156 -0.4039  0.2826  0.1048
 1561TIP3    H226243   0.636   1.238   1.189 -0.0712 -0.9191  0.6941
 1562TIP3   OH226244   5.237   5.277   7.590 -0.2394  0.6148 -0.4520
 1562TIP3    H126245   5.295   5.202   7.597 -0.8916  0.1148 -0.2562
 1562TIP3    H226246   5.176   5.266   7.663  1.3357  2.8375  1.3460
 1563TIP3   OH226247   6.635   2.884   0.143 -0.0640 -0.0070  0.3281
 1563TIP3    H126248   6.717   2.846   0.111 -0.6584  0.2596 -1.6727
 1563TIP3    H226249   6.568   2.848   0.085 -0.9958  1.9377  0.1130
 1564TIP3   OH226250   4.223   0.728   7.272  0.0013 -0.1023 -0.3639
 1564TIP3    H126251   4.287   0.799   7.265 -0.2020  0.0314 -0.9470
 1564TIP3    H226252   4.236   0.692   7.359  1.2754 -0.4422 -0.6678
 1565TIP3   OH226253   6.284   4.572   2.300  0.2588  0.3094 -0.1347
 1565TIP3    H126254   6.267   4.642   2.363 -1.0506  0.4327 -0.5808
 1565TIP3    H226255   6.376   4.550   2.311  0.6554  2.0152  0.1097
 1566TIP3   OH226256   3.261   6.722   0.547 -0.2454  0.2408 -0.0154
 1566TIP3    H126257   3.231   6.659   0.612  0.1466 -1.3943 -1.3230
 1566TIP3    H226258   3.240   6.808   0.584 -1.1382 -0.6577  1.6785
 1567TIP3   OH226259   1.171   1.210   1.291 -0.3563  0.4940  0.2244
 1567TIP3    H126260   1.087   1.228   1.249 -0.7094  2.4071  1.5993
 1567TIP3    H226261   1.222   1.290   1.277  1.0583 -0.4361 -0.1278
 1568TIP3   OH226262   6.644   1.669   7.739  0.2682  0.3350  0.3933
 1568TIP3    H126263   6.574   1.608   7.717 -0.0701  0.4364  1.1606
 1568TIP3    H226264   6.718   1.614   7.763  0.3026  0.2275  0.0393
 1569TIP3   OH226265   0.829   1.311   8.062 -0.6390  0.3165 -0.0980
 1569TIP3    H126266   0.884   1.234   8.053 -0.1354  0.7885 -1.3698
 1569TIP3    H226267   0.748   1.279   8.103  0.4058 -0.4501  1.4316
 1570TIP3   OH226268   0.642   4.973   1.474  0.3769 -0.1333  0.3850
 1570TIP3    H126269   0.608   4.885   1.461  1.6265 -0.5194 -0.4800
 1570TIP3    H226270   0.722   4.976   1.421  0.7093  1.3044  0.9155
 1571TIP3   OH226271   1.859   5.894   1.549 -0.6537  0.3684  0.1576
 1571TIP3    H126272   1.874   5.950   1.473  0.5064  1.5422  1.1934
 1571TIP3    H226273   1.919   5.928   1.615  0.0644 -2.0893  0.8640
 1572TIP3   OH226274   6.559   1.301   0.210 -0.5914 -0.0960 -0.0165
 1572TIP3    H126275   6.542   1.312   0.117  0.8414  0.1557 -0.2771
 1572TIP3    H226276   6.617   1.224   0.215  0.0135  0.3852  0.5725
 1573TIP3   OH226277   5.860   4.081   0.535  0.9504 -0.2302 -0.0068
 1573TIP3    H126278   5.944   4.073   0.490  0.9149 -0.8109  0.0238
 1573TIP3    H226279   5.864   4.165   0.580  1.7994 -0.5838  0.5911
 1574TIP3   OH226280   5.093   4.813   0.765 -0.6120 -0.1413 -0.2944
 1574TIP3    H126281   5.152   4.887   0.778  0.5841 -0.8575 -1.4063
 1574TIP3    H226282   5.011   4.852   0.737 -0.4892  0.8397  0.6572
 1575TIP3   OH226283   2.098   1.138   1.924 -0.1606 -0.4063  0.0363
 1575TIP3    H126284   2.123   1.138   2.017 -0.1148 -1.1790  0.0313
 1575TIP3    H226285   2.038   1.064   1.916 -0.9846  0.2807 -0.3452
 1576TIP3   OH226286   2.735   2.154   2.431 -0.0717 -0.1941 -1.0409
 1576TIP3    H126287   2.774   2.237   2.457 -0.4597 -0.0727 -0.8390
 1576TIP3    H226288   2.752   2.095   2.504 -2.5176  0.5638  0.2780
 1577TIP3   OH226289   4.101   3.410   0.677  0.0268  0.0188  0.0820
 1577TIP3    H126290   4.056   3.435   0.758  0.9032  0.1496  0.5395
 1577TIP3    H226291   4.138   3.492   0.645  0.9910 -0.2919  0.3751
 1578TIP3   OH226292   3.356   0.473   0.489  0.1355  0.3473  0.4952
 1578TIP3    H126293   3.394   0.444   0.572  2.5428  0.1366 -0.6050
 1578TIP3    H226294   3.425   0.524   0.447 -0.6477 -0.3584 -1.8136
 1579TIP3   OH226295   6.273   3.965   6.700  0.4408  0.3637 -0.9055
 1579TIP3    H126296   6.279   3.872   6.679 -0.6409 -0.0455  0.4309
 1579TIP3    H226297   6.228   4.003   6.625 -1.4562 -0.6870 -0.3951
 1580TIP3   OH226298   5.460   4.337   7.644  0.1751 -1.0645  0.2868
 1580TIP3    H126299   5.507   4.413   7.609 -0.5651 -0.9438 -0.4889
 1580TIP3    H226300   5.511   4.262   7.614  0.8853 -0.8917  1.0184
 1581TIP3   OH226301   3.982   0.078   8.091  0.3485 -0.1953 -0.0188
 1581TIP3    H126302   4.001   0.102   8.000 -0.3030  0.7256  0.0745
 1581TIP3    H226303   4.045   0.128   8.143 -0.4874  0.7549  0.1278
 1582TIP3   OH226304   1.762   0.063   0.655  0.2839 -0.0798  0.1347
 1582TIP3    H126305   1.845   0.016   0.655  0.5566  0.4009  0.2794
 1582TIP3    H226306   1.764   0.116   0.575  0.4825  0.5671  0.5605
 1583TIP3   OH226307   2.346   3.491   7.112  0.4687 -0.3160  0.6813
 1583TIP3    H126308   2.280   3.446   7.061  0.4906 -1.8863  1.9396
 1583TIP3    H226309   2.427   3.483   7.061  0.3095 -1.0661  0.5483
 1584TIP3   OH226310   0.077   4.931   0.653  0.5494 -0.3150  0.4668
 1584TIP3    H126311   0.137   4.872   0.607  0.8481  0.3630 -0.0410
 1584TIP3    H226312  -0.004   4.882   0.661  0.7801 -0.7793  0.0172
 1585TIP3   OH226313   0.096   4.682   7.563  0.2205  0.0720  0.6238
 1585TIP3    H126314   0.166   4.644   7.511  1.6348  1.9861  1.0304
 1585TIP3    H226315   0.061   4.609   7.613  2.4388 -0.8133  0.9838
 1586TIP3   OH226316   3.647   4.267   1.356 -0.0715 -0.0271  0.3538
 1586TIP3    H126317   3.557   4.294   1.336  0.3465  0.2353 -1.2374
 1586TIP3    H226318   3.636   4.186   1.406 -1.1884  0.0092  0.1951
 1587TIP3   OH226319   5.394   1.521   2.048  0.1906 -0.0337 -0.1369
 1587TIP3    H126320   5.409   1.593   1.987  0.9183 -0.1658 -0.1215
 1587TIP3    H226321   5.434   1.550   2.130 -1.0107  0.2520  0.3703
 1588TIP3   OH226322   6.051   4.721   1.259 -0.1923  0.5944  0.1724
 1588TIP3    H126323   6.146   4.725   1.268  0.0085  0.1029 -1.4693
 1588TIP3    H226324   6.024   4.812   1.245  0.3039  0.4951 -1.5578
 1589TIP3   OH226325   4.102   3.999   0.229  0.6074 -0.2138  0.6135
 1589TIP3    H126326   4.192   3.984   0.256  1.9301  1.0760 -2.5853
 1589TIP3    H226327   4.107   4.069   0.164 -2.7034 -0.1597  0.2129
 1590TIP3   OH226328   6.637   4.133   7.153 -0.1864  0.0101  0.4715
 1590TIP3    H126329   6.635   4.162   7.062 -0.3147  0.8007  0.7219
 1590TIP3    H226330   6.725   4.098   7.165  0.7691  2.3495  0.7715
 1591TIP3   OH226331   0.102   6.169   7.638 -0.0976 -0.5668  0.4112
 1591TIP3    H126332   0.182   6.132   7.676 -0.5743 -0.7268  1.2834
 1591TIP3    H226333   0.045   6.187   7.713 -1.5936 -2.1130 -0.2747
 1592TIP3   OH226334   2.819   0.291   2.447  0.4422 -0.6203  0.2741
 1592TIP3    H126335   2.734   0.267   2.484  0.2872 -0.0744  0.2790
 1592TIP3    H226336   2.860   0.207   2.425 -0.6706 -0.8581 -1.0370
 1593TIP3   OH226337   2.681   0.582   2.489  0.3037 -0.0037 -0.2614
 1593TIP3    H126338   2.698   0.506   2.544 -0.2067 -0.4559 -0.7234
 1593TIP3    H226339   2.696   0.552   2.400  0.8102  0.6380 -0.3988
 1594TIP3   OH226340   1.474   2.425   1.498 -0.0100  0.3619  0.1284
 1594TIP3    H126341   1.440   2.338   1.477 -0.6638  0.3419  1.2069
 1594TIP3    H226342   1.449   2.480   1.423 -0.4159 -0.1689 -0.1317
 1595TIP3   OH226343   4.131   1.063   2.136  0.4026 -0.4961  0.2763
 1595TIP3    H126344   4.221   1.031   2.146  0.6611  0.5502  1.8462
 1595TIP3    H226345   4.100   1.072   2.226 -0.4408  1.3740 -0.1533
 1596TIP3   OH226346   1.845   4.276   7.472 -0.0291 -0.2441 -0.3905
 1596TIP3    H126347   1.936   4.299   7.493  0.0690 -0.7057 -0.2935
 1596TIP3    H226348   1.825   4.328   7.393 -0.5461  1.8357  1.0207
 1597TIP3   OH226349   1.107   1.436   1.654  0.2972  0.1160 -0.1718
 1597TIP3    H126350   1.026   1.427   1.604  1.1046 -0.3805 -1.4587
 1597TIP3    H226351   1.150   1.512   1.616 -0.2182  1.2952  1.5090
 1598TIP3   OH226352   5.266   3.908   0.744 -0.3629 -0.3024 -0.1256
 1598TIP3    H126353   5.246   4.001   0.735 -0.0183 -0.2909 -0.8107
 1598TIP3    H226354   5.197   3.863   0.695 -0.4713 -0.4064  0.1188
 1599TIP3   OH226355   5.382   4.121   1.497  0.0315  0.0705  0.0547
 1599TIP3    H126356   5.461   4.175   1.501  0.4897 -0.5451 -0.4778
 1599TIP3    H226357   5.311   4.184   1.484  0.6560  0.5157 -1.4639
 1600TIP3   OH226358   2.717   0.658   8.131 -0.1268  0.4657  0.5958
 1600TIP3    H126359   2.723   0.639   8.037 -0.1048  1.7624  0.3155
 1600TIP3    H226360   2.626   0.639   8.153 -0.6033  1.7768 -0.0999
 1601TIP3   OH226361   2.860   2.336   7.671  0.3681  0.2118 -0.5599
 1601TIP3    H126362   2.846   2.428   7.649 -1.3915  0.3000  0.7341
 1601TIP3    H226363   2.887   2.296   7.588  0.6780  1.7847 -1.2562
 1602TIP3   OH226364   2.183   6.081   0.487 -0.2135 -0.0551  0.7848
 1602TIP3    H126365   2.254   6.086   0.550  0.5415 -0.4200 -0.0137
 1602TIP3    H226366   2.117   6.027   0.529  0.9152 -1.5674  0.6956
 1603TIP3   OH226367   6.271   0.888   1.516 -0.2908  0.0901  0.1286
 1603TIP3    H126368   6.215   0.936   1.579 -0.2647 -0.6096  0.7002
 1603TIP3    H226369   6.356   0.884   1.559 -0.4576 -1.0184  0.3783
 1604TIP3   OH226370   0.417   0.007   1.370 -0.2802  0.4768  0.2348
 1604TIP3    H126371   0.419   0.082   1.430  0.4507 -1.2759  2.5095
 1604TIP3    H226372   0.509  -0.019   1.361 -0.5391 -0.2265 -0.4624
 1605TIP3   OH226373   6.458   5.837   6.509 -0.0709  0.5421 -0.9371
 1605TIP3    H126374   6.400   5.873   6.576  0.5615  1.2544 -0.7637
 1605TIP3    H226375   6.403   5.776   6.460 -0.9062  1.0350 -0.6278
 1606TIP3   OH226376   6.227   3.552   7.299 -0.2954 -0.1298  0.4032
 1606TIP3    H126377   6.247   3.529   7.389  1.1831 -1.6279 -0.2584
 1606TIP3    H226378   6.270   3.636   7.285  0.7474 -0.5993  0.6922
 1607TIP3   OH226379   5.757   0.680   0.382 -0.1877 -0.4112 -0.1632
 1607TIP3    H126380   5.698   0.647   0.449 -0.3054  0.8384  0.3740
 1607TIP3    H226381   5.840   0.696   0.427 -0.1698  0.1279 -0.3761
 1608TIP3   OH226382   3.732   4.331   0.631 -0.1477  0.3709  0.6668
 1608TIP3    H126383   3.731   4.335   0.535 -0.1192 -1.4022  0.5738
 1608TIP3    H226384   3.713   4.421   0.658 -1.4324  0.6499 -0.9845
 1609TIP3   OH226385   2.877   4.275   8.307 -0.5541  0.3276 -0.7798
 1609TIP3    H126386   2.894   4.355   8.258  0.8501 -0.1383 -1.1107
 1609TIP3    H226387   2.888   4.299   8.399 -0.9471  0.6901 -0.8266
 1610TIP3   OH226388   6.877   5.142   1.096 -0.3401 -0.2036  0.0740
 1610TIP3    H126389   6.808   5.173   1.155 -2.1015 -0.7089 -1.6057
 1610TIP3    H226390   6.957   5.181   1.130 -1.5911  1.2381  1.5277
 1611TIP3   OH226391   3.989   1.245   0.129 -0.1293  0.2243 -0.4162
 1611TIP3    H126392   4.033   1.319   0.171  1.6067  0.6590 -2.8096
 1611TIP3    H226393   4.002   1.172   0.190 -0.3522  1.4463  1.1614
 1612TIP3   OH226394   4.202   2.144   7.003 -0.2617 -0.5835 -0.0186
 1612TIP3    H126395   4.164   2.081   6.941  0.2559 -1.1263  0.2088
 1612TIP3    H226396   4.260   2.198   6.950 -0.8392 -0.1840 -0.2470
 1613TIP3   OH226397   3.663   1.488   6.803  0.4365  0.6165  0.3227
 1613TIP3    H126398   3.580   1.494   6.755  0.0512  0.6942  0.9918
 1613TIP3    H226399   3.717   1.558   6.765  0.0781  0.7806  0.1096
 1614TIP3   OH226400   4.280   2.968   7.437 -0.7788 -0.3468  0.2564
 1614TIP3    H126401   4.192   3.005   7.433 -0.4248  0.4717 -0.3356
 1614TIP3    H226402   4.310   2.968   7.346 -0.4311 -1.2745  0.3611
 1615TIP3   OH226403   4.449   4.451   7.612  0.1550 -0.4827 -0.0850
 1615TIP3    H126404   4.421   4.542   7.616  0.6537 -0.1996 -2.0804
 1615TIP3    H226405   4.471   4.429   7.702 -3.4423  0.1942  1.1524
 1616TIP3   OH226406   4.955   3.099   8.243 -0.0149 -0.1215  0.0861
 1616TIP3    H126407   4.950   3.181   8.193 -1.3537  0.3763  0.9699
 1616TIP3    H226408   5.012   3.119   8.317 -0.6726  0.1698  0.5298
 1617TIP3   OH226409   4.133   5.692   0.388  0.5902 -0.2435  0.3749
 1617TIP3    H126410   4.085   5.609   0.382  1.1892 -0.8538  2.8253
 1617TIP3    H226411   4.073   5.757   0.351  0.2881 -1.7535 -2.0690
 1618TIP3   OH226412   2.553   6.540   7.663  0.0922 -0.5234 -0.3316
 1618TIP3    H126413   2.469   6.508   7.698 -0.1106 -0.4440 -0.7449
 1618TIP3    H226414   2.560   6.629   7.696  1.2761 -1.3797  1.9239
 1619TIP3   OH226415   1.120   4.687   7.803  0.1489  0.1682 -0.1321
 1619TIP3    H126416   1.043   4.630   7.802  0.0899  0.2331  0.6813
 1619TIP3    H226417   1.194   4.627   7.816 -0.0454  0.3819  2.5373
 1620TIP3   OH226418   1.899   3.975   7.177 -1.5200  0.2925  0.1651
 1620TIP3    H126419   1.990   3.995   7.198 -1.8448  1.4225  0.5530
 1620TIP3    H226420   1.904   3.898   7.121 -0.3607  0.0085  0.6257
 1621TIP3   OH226421   2.044   0.892   7.907 -0.1475 -0.2541 -0.1009
 1621TIP3    H126422   2.014   0.936   7.827 -1.4840 -1.0908 -0.0916
 1621TIP3    H226423   2.000   0.807   7.905  0.7171 -0.7423  0.9523
 1622TIP3   OH226424   1.819   5.448   8.409  0.9055  0.6388  0.1596
 1622TIP3    H126425   1.761   5.391   8.359  0.9925  0.3718  0.3603
 1622TIP3    H226426   1.777   5.535   8.404  1.6215  0.9361 -1.5342
 1623TIP3   OH226427   3.142   0.212   1.248 -0.2138 -0.2152  0.4651
 1623TIP3    H126428   3.208   0.184   1.185  0.3001 -0.7256  1.2152
 1623TIP3    H226429   3.180   0.289   1.290 -0.4146 -0.0694  0.3794
 1624TIP3   OH226430   0.879   4.520   8.163 -0.0502 -0.2513  0.1366
 1624TIP3    H126431   0.957   4.519   8.108 -0.9300 -1.9416 -1.1498
 1624TIP3    H226432   0.809   4.548   8.104 -0.7461 -0.5412  0.8151
 1625TIP3   OH226433   6.254   3.186   0.773  0.3394 -0.0232  0.2192
 1625TIP3    H126434   6.207   3.118   0.725  0.1990 -1.8035  2.7127
 1625TIP3    H226435   6.188   3.224   0.831  0.4697  2.1763 -0.9462
 1626TIP3   OH226436   2.919   5.606   7.502 -0.2034  0.1322 -0.5027
 1626TIP3    H126437   2.878   5.691   7.513  0.1787  0.0449  2.1525
 1626TIP3    H226438   2.884   5.552   7.573  0.8323 -1.4335 -1.1115
 1627TIP3   OH226439   2.703   4.381   0.239 -0.1863  0.1603  0.0962
 1627TIP3    H126440   2.649   4.417   0.168  0.5399 -1.5149 -1.3793
 1627TIP3    H226441   2.644   4.373   0.313 -1.2030  1.1104 -0.5851
 1628TIP3   OH226442   3.783   1.701   6.665  0.3556  0.5768 -0.4320
 1628TIP3    H126443   3.858   1.760   6.657 -0.9848  2.3432 -0.5054
 1628TIP3    H226444   3.706   1.758   6.659 -1.0106 -0.7225  2.5972
 1629TIP3   OH226445   0.777   6.579   1.310 -0.7628 -1.1741 -0.1712
 1629TIP3    H126446   0.825   6.612   1.235  0.7693 -2.6155  0.1057
 1629TIP3    H226447   0.727   6.654   1.342 -1.5310 -0.5497 -2.6499
 1630TIP3   OH226448   3.586   1.851   6.887  0.3386 -0.0142 -0.4533
 1630TIP3    H126449   3.636   1.923   6.924 -0.8978  0.9596 -0.6323
 1630TIP3    H226450   3.587   1.866   6.793  2.0080 -1.5291 -0.7279
 1631TIP3   OH226451   3.199   6.735   8.482 -0.8974  0.3048  0.6068
 1631TIP3    H126452   3.196   6.688   8.399  1.1993 -0.0563  0.6833
 1631TIP3    H226453   3.110   6.767   8.495 -0.8162  2.4005 -2.9415
 1632TIP3   OH226454   4.429   6.811   7.454 -0.8434 -0.5249 -0.0262
 1632TIP3    H126455   4.520   6.824   7.481 -0.8745 -0.7608  0.1884
 1632TIP3    H226456   4.377   6.845   7.527 -0.9301 -1.8761  0.5730
 1633TIP3   OH226457   5.464   3.664   6.815  0.1780  0.1932 -0.8030
 1633TIP3    H126458   5.558   3.677   6.804  0.2119  1.3106  0.5893
 1633TIP3    H226459   5.426   3.751   6.811 -0.7812 -0.2194 -1.1004
 1634TIP3   OH226460   2.581   5.049   0.379  0.1231 -0.1749  0.0931
 1634TIP3    H126461   2.523   5.002   0.438 -1.5897 -1.5570 -2.5139
 1634TIP3    H226462   2.653   4.989   0.362  1.5601  0.8847  1.9735
 1635TIP3   OH226463   1.597   0.236   8.448 -0.5289  0.5646 -0.6640
 1635TIP3    H126464   1.604   0.262   8.540  1.7165 -1.4684 -0.1620
 1635TIP3    H226465   1.630   0.147   8.445  1.4229  1.2250 -3.7419
 1636TIP3   OH226466   4.850   4.407   0.857  0.5008 -0.2979 -0.6412
 1636TIP3    H126467   4.945   4.393   0.854  0.4433 -1.0892  0.4875
 1636TIP3    H226468   4.822   4.401   0.766  1.3379 -1.6466 -0.8432
 1637TIP3   OH226469   3.003   3.222   7.896  0.2663  0.0941  0.5991
 1637TIP3    H126470   2.909   3.201   7.899 -0.1540  1.9691  2.1180
 1637TIP3    H226471   3.016   3.287   7.965  1.8290  3.2628 -2.3718
 1638TIP3   OH226472   4.295   3.016   0.496 -0.1365 -0.0410  0.4791
 1638TIP3    H126473   4.322   2.951   0.432  1.0086  0.9035 -0.0401
 1638TIP3    H226474   4.378   3.050   0.531 -0.6406 -1.9518  3.9907
 1639TIP3   OH226475   3.835   4.082   7.258  0.1993  0.1766 -0.9901
 1639TIP3    H126476   3.864   4.138   7.185 -0.8654  0.9848 -0.8183
 1639TIP3    H226477   3.740   4.075   7.246  0.1437 -0.4750 -0.2207
 1640TIP3   OH226478   5.519   6.697   0.181  0.4609  0.5176  0.4437
 1640TIP3    H126479   5.608   6.733   0.180  0.3531  1.2190  3.7642
 1640TIP3    H226480   5.462   6.772   0.164  0.4443  0.6311  0.9773
 1641TIP3   OH226481   3.211   6.842   1.288 -0.4760  0.7770  1.0464
 1641TIP3    H126482   3.174   6.930   1.294 -2.2353 -0.0413  3.6478
 1641TIP3    H226483   3.137   6.787   1.262  0.1937 -0.1893  1.1543
 1642TIP3   OH226484   4.286   4.074   1.807  0.0662  0.3334  0.0715
 1642TIP3    H126485   4.299   4.161   1.844  0.9386  0.4451 -0.4683
 1642TIP3    H226486   4.358   4.063   1.745 -0.0294 -0.7741  0.1284
 1643TIP3   OH226487   1.373   1.016   1.716  0.1065  0.5801 -0.0592
 1643TIP3    H126488   1.439   0.996   1.649 -2.1591 -1.6996 -1.8026
 1643TIP3    H226489   1.344   1.105   1.696  1.1740  0.8292 -0.5497
 1644TIP3   OH226490   0.732   6.870   8.359  0.8347  0.2573  0.1063
 1644TIP3    H126491   0.667   6.901   8.421  0.7113 -1.7815  1.0841
 1644TIP3    H226492   0.696   6.891   8.273  0.5357  2.2187  0.6833
 1645TIP3   OH226493   3.506   1.450   7.055  0.1746 -0.3286 -0.1921
 1645TIP3    H126494   3.465   1.440   6.968 -1.3526 -0.3489  0.4918
 1645TIP3    H226495   3.502   1.543   7.073  1.7627 -0.1412 -0.7087
 1646TIP3   OH226496   5.317   6.113   8.411  0.2238 -0.2721 -0.6638
 1646TIP3    H126497   5.376   6.043   8.438  0.4431 -0.5535 -1.8217
 1646TIP3    H226498   5.300   6.096   8.319 -0.3019  0.7915 -0.7785
 1647TIP3   OH226499   1.018   2.276   0.963 -0.1581  0.3292 -0.3905
 1647TIP3    H126500   0.941   2.302   1.014  0.0141  0.7989 -0.3687
 1647TIP3    H226501   1.074   2.354   0.962 -0.2306  0.3780 -1.4444
 1648TIP3   OH226502   1.240   2.704   7.118  0.0542  0.1273 -0.2076
 1648TIP3    H126503   1.191   2.786   7.114  0.8003  0.7077  1.5728
 1648TIP3    H226504   1.267   2.688   7.027  1.3835  2.7944 -0.3772
 1649TIP3   OH226505   0.555   0.903   1.602 -0.4448  0.1410  0.6535
 1649TIP3    H126506   0.500   0.929   1.676 -1.3222 -0.1691  0.1233
 1649TIP3    H226507   0.556   0.807   1.606 -2.3452 -0.0060 -1.0102
 1650TIP3   OH226508   5.754   1.161   2.279  0.0152 -0.5809  0.0269
 1650TIP3    H126509   5.693   1.116   2.222  1.2516 -2.0671 -0.1940
 1650TIP3    H226510   5.837   1.114   2.267  1.1624  1.2340  0.4392
 1651TIP3   OH226511   4.578   1.681   0.699  0.0180  0.4425  0.0405
 1651TIP3    H126512   4.656   1.648   0.653  0.4491 -1.2006  1.8304
 1651TIP3    H226513   4.530   1.730   0.632  0.5233 -1.9258 -2.2296
 1652TIP3   OH226514   5.173   3.400   1.347  0.2874  0.0353 -0.5953
 1652TIP3    H126515   5.263   3.424   1.325 -0.4721  1.5362 -2.3199
 1652TIP3    H226516   5.125   3.407   1.264 -1.8335  1.4156  0.6374
 1653TIP3   OH226517   5.779   6.170   8.010 -0.4024 -0.7837  0.0913
 1653TIP3    H126518   5.708   6.195   7.951 -0.1996 -1.1935 -0.3231
 1653TIP3    H226519   5.831   6.249   8.020 -1.9515  0.1175  1.9050
 1654TIP3   OH226520   1.660   3.049   1.706 -0.0676  0.0577 -0.1306
 1654TIP3    H126521   1.592   3.083   1.647  0.4004  0.0769 -0.6679
 1654TIP3    H226522   1.665   2.956   1.686  1.1901  0.3495 -1.2534
 1655TIP3   OH226523   6.479   3.717   2.003  0.3403  0.6121 -0.1555
 1655TIP3    H126524   6.539   3.651   2.039 -0.8213 -0.7244 -0.5702
 1655TIP3    H226525   6.521   3.801   2.023  0.5735 -0.0944  2.8148
 1656TIP3   OH226526   5.026   2.170   2.196  0.3201  0.3467  0.6096
 1656TIP3    H126527   5.089   2.105   2.164  0.3472  1.2634 -1.2981
 1656TIP3    H226528   4.944   2.147   2.152  0.0565  0.9339  0.7844
 1657TIP3   OH226529   0.612   5.841   1.719 -0.5130 -0.1703 -0.0674
 1657TIP3    H126530   0.606   5.747   1.736  2.4617 -0.8396 -1.8772
 1657TIP3    H226531   0.539   5.860   1.660 -0.2946 -1.7079 -0.8864
 1658TIP3   OH226532   0.986   0.051   2.200  0.2779 -0.6999 -0.2516
 1658TIP3    H126533   1.021   0.078   2.285 -0.1502  2.4119 -0.9353
 1658TIP3    H226534   1.063   0.035   2.146  0.5970  0.0296 -0.0276
 1659TIP3   OH226535   2.748   1.496   7.370  0.7794 -0.4026 -0.2139
 1659TIP3    H126536   2.665   1.543   7.382  2.1744  2.3961 -0.8259
 1659TIP3    H226537   2.728   1.431   7.303 -1.0331 -0.1316 -0.0013
 1660TIP3   OH226538   6.158   4.296   8.344  0.1146  0.3325 -0.4102
 1660TIP3    H126539   6.172   4.341   8.261 -1.3215  4.1858  1.1984
 1660TIP3    H226540   6.075   4.250   8.334  0.4626 -0.1126 -1.3745
 1661TIP3   OH226541   5.866   6.182   6.655  0.3985 -0.5477 -0.3165
 1661TIP3    H126542   5.840   6.090   6.651  0.8651 -0.7820  1.4177
 1661TIP3    H226543   5.792   6.227   6.695  0.7974 -0.4522  0.3333
 1662TIP3   OH226544   0.683   6.613   8.127 -0.5802 -0.0874 -0.3263
 1662TIP3    H126545   0.767   6.611   8.173 -0.7843  3.4735  0.4727
 1662TIP3    H226546   0.622   6.572   8.188 -0.1723  1.2076  0.9936
 1663TIP3   OH226547   0.876   2.436   8.183  0.3906 -0.1073 -0.0592
 1663TIP3    H126548   0.846   2.361   8.130  1.0460  0.1457 -0.8010
 1663TIP3    H226549   0.962   2.457   8.148  0.8080  0.1136  1.0848
 1664TIP3   OH226550   6.685   1.945   0.863 -0.2850  0.4015 -0.0947
 1664TIP3    H126551   6.634   1.890   0.803 -0.0797 -0.8478  0.8547
 1664TIP3    H226552   6.776   1.922   0.845  0.0495  2.5747 -1.7333
 1665TIP3   OH226553   5.021   6.711   0.330 -0.2032  0.2520 -0.0907
 1665TIP3    H126554   5.095   6.720   0.270 -0.3069  1.0017 -0.1232
 1665TIP3    H226555   4.956   6.774   0.297 -0.3720  0.4718  0.6420
 1666TIP3   OH226556   2.512   4.347   1.775  0.2276  0.0912 -0.5437
 1666TIP3    H126557   2.468   4.273   1.731  1.2224 -0.9888  0.2280
 1666TIP3    H226558   2.472   4.350   1.862 -1.4898  2.0058 -1.3339
 1667TIP3   OH226559   5.587   6.053   6.659 -0.0776 -0.8164  0.4613
 1667TIP3    H126560   5.612   6.144   6.678 -1.1710  0.1624 -2.2353
 1667TIP3    H226561   5.535   6.026   6.735 -0.4877  1.1549  0.9478
 1668TIP3   OH226562   3.977   6.049   1.474 -1.1040  0.2973  0.6402
 1668TIP3    H126563   3.970   5.953   1.472  0.9267  0.1033 -0.1205
 1668TIP3    H226564   4.062   6.067   1.433 -2.8307  2.5994 -2.3692
 1669TIP3   OH226565   3.926   5.350   0.164  1.1276 -0.4134  0.2932
 1669TIP3    H126566   3.955   5.260   0.179 -0.6693 -1.1065 -0.2064
 1669TIP3    H226567   3.937   5.364   0.070  1.3101 -0.1483  0.3543
 1670TIP3   OH226568   3.912   6.404   7.470  0.2236 -0.6436 -0.0628
 1670TIP3    H126569   3.969   6.472   7.435 -0.9326  0.8172  0.8142
 1670TIP3    H226570   3.823   6.431   7.446 -0.3445 -1.2169  1.2878
 1671TIP3   OH226571   3.843   1.116   0.549  0.0916  0.3971 -0.1001
 1671TIP3    H126572   3.823   1.103   0.641  0.1436 -0.0653 -0.1546
 1671TIP3    H226573   3.759   1.103   0.504 -0.7305  3.7737  0.1369
 1672TIP3   OH226574   2.199   3.163   0.311 -0.3168  0.1609 -0.2546
 1672TIP3    H126575   2.234   3.196   0.394 -2.1844  1.1234  0.1908
 1672TIP3    H226576   2.115   3.208   0.300 -0.6597 -0.8247 -2.0979
 1673TIP3   OH226577   1.623   3.675   0.330  0.3654 -0.0532  0.0356
 1673TIP3    H126578   1.565   3.694   0.257 -0.5922 -0.7731  0.5980
 1673TIP3    H226579   1.702   3.726   0.311 -0.6387  1.3751 -0.4734
 1674TIP3   OH226580   1.522   4.015   0.111  0.6115 -0.2649  0.0633
 1674TIP3    H126581   1.451   3.999   0.049  0.3018  0.9282  0.0855
 1674TIP3    H226582   1.600   3.977   0.069  0.1446 -0.7200 -0.3991
 1675TIP3   OH226583   2.120   3.827   1.511 -0.3237 -0.2496 -0.2862
 1675TIP3    H126584   2.036   3.859   1.476  0.1919  1.4625 -0.0707
 1675TIP3    H226585   2.152   3.900   1.564  0.4983 -1.5472  1.0417
 1676TIP3   OH226586   4.232   3.395   1.042  0.0575  0.3403 -0.0570
 1676TIP3    H126587   4.250   3.367   1.132 -2.2241  0.1677  0.4076
 1676TIP3    H226588   4.222   3.313   0.993  1.8139  0.4318 -0.6254
 1677TIP3   OH226589   5.128   2.170   8.227 -0.3376 -0.2005 -0.8483
 1677TIP3    H126590   5.200   2.216   8.185  1.9737  0.7092  3.4693
 1677TIP3    H226591   5.157   2.079   8.232 -1.1083 -0.5354 -2.0342
 1678TIP3   OH226592   1.370   5.333   1.561  0.4740  0.0006 -0.3283
 1678TIP3    H126593   1.389   5.426   1.550  0.7035  0.0041  0.0756
 1678TIP3    H226594   1.416   5.308   1.642 -0.1840 -0.2924 -0.0396
 1679TIP3   OH226595   1.215   3.060   0.062  0.1575 -1.0846 -0.0154
 1679TIP3    H126596   1.269   3.077  -0.015  1.9406  0.5208  1.4829
 1679TIP3    H226597   1.271   3.008   0.120 -0.0169  0.2377  1.4086
 1680TIP3   OH226598   5.934   4.881   0.671 -1.1027 -0.0389 -0.2104
 1680TIP3    H126599   6.002   4.817   0.695  1.7098  1.8543 -2.3588
 1680TIP3    H226600   5.947   4.953   0.731 -1.7247  0.0542 -0.1828
 1681TIP3   OH226601   0.637   2.571   0.593  0.4122  0.0357 -0.2029
 1681TIP3    H126602   0.678   2.562   0.507 -0.2604  1.0598 -0.6431
 1681TIP3    H226603   0.644   2.483   0.632 -0.4964 -0.8137 -1.8471
 1682TIP3   OH226604   2.771   4.702   8.023  0.2163 -0.3765  0.3947
 1682TIP3    H126605   2.828   4.699   7.947  1.9616 -1.2371  1.6653
 1682TIP3    H226606   2.789   4.787   8.063 -0.7198  0.0879 -0.1309
 1683TIP3   OH226607   4.787   1.899   0.693  0.7091  0.6608  0.1060
 1683TIP3    H126608   4.786   1.826   0.630  3.5726  0.0111  0.6667
 1683TIP3    H226609   4.838   1.968   0.649 -1.0834  1.9799  0.0003
 1684TIP3   OH226610   6.264   4.096   7.654  0.3737  0.0796 -0.3071
 1684TIP3    H126611   6.231   4.016   7.697  2.2131 -0.8679 -0.5336
 1684TIP3    H226612   6.348   4.113   7.697  1.5618 -0.0157 -2.4390
 1685TIP3   OH226613   2.506   0.098   0.586  0.0766  0.4292  0.2177
 1685TIP3    H126614   2.503   0.076   0.492  0.2173  0.5609  0.1829
 1685TIP3    H226615   2.507   0.012   0.630  0.0303  0.3669  0.0977
 1686TIP3   OH226616   2.822   5.678   0.820 -0.4289 -0.6477 -0.3388
 1686TIP3    H126617   2.907   5.686   0.778 -0.2753  1.2452  0.2443
 1686TIP3    H226618   2.836   5.619   0.894  0.5847  0.2778  0.2310
 1687TIP3   OH226619   6.547   4.887   6.969  0.0863  0.2539  0.7566
 1687TIP3    H126620   6.553   4.948   7.043 -0.8806 -1.0252  1.9468
 1687TIP3    H226621   6.590   4.807   7.001 -0.9463 -0.5463  0.1866
 1688TIP3   OH226622   3.442   0.821   7.561 -0.2070 -0.0268  0.3480
 1688TIP3    H126623   3.390   0.816   7.641  1.1722 -1.3944  1.2027
 1688TIP3    H226624   3.465   0.730   7.542 -1.2930  0.1400 -2.1773
 1689TIP3   OH226625   4.609   3.784   0.120  0.3445 -0.5011 -0.2649
 1689TIP3    H126626   4.548   3.746   0.182  0.1665 -0.0599 -0.1666
 1689TIP3    H226627   4.560   3.854   0.078  1.0089  0.3564  0.3516
 1690TIP3   OH226628   2.841   2.701   7.154 -0.1711  0.5099 -0.1731
 1690TIP3    H126629   2.837   2.728   7.062  1.6554  0.1759 -0.3832
 1690TIP3    H226630   2.931   2.717   7.180 -0.1599 -1.2034  1.0021
 1691TIP3   OH226631   0.999   5.549   8.286 -0.4066 -0.0539 -0.3188
 1691TIP3    H126632   0.926   5.597   8.325  0.1708  1.3070 -0.8528
 1691TIP3    H226633   1.015   5.476   8.345 -2.0261 -0.2226 -0.0608
 1692TIP3   OH226634   6.019   5.320   1.567 -0.1128  0.0522  0.2717
 1692TIP3    H126635   6.103   5.358   1.543 -0.1229  0.1778  0.4359
 1692TIP3    H226636   5.962   5.395   1.585 -0.5428 -0.0025 -0.7801
 1693TIP3   OH226637   3.822   6.018   1.086 -0.2310  0.3735  0.4278
 1693TIP3    H126638   3.913   6.047   1.075 -0.4458  0.0854 -3.1098
 1693TIP3    H226639   3.829   5.933   1.129  1.4077 -0.7101 -1.7899
 1694TIP3   OH226640   2.726   3.483   0.797 -0.4236  0.1974 -0.3244
 1694TIP3    H126641   2.700   3.433   0.875 -1.5187  1.3193  0.0590
 1694TIP3    H226642   2.654   3.471   0.736  0.8572 -1.4828 -1.6173
 1695TIP3   OH226643   4.124   5.257   1.383  0.0368  0.0250 -0.0322
 1695TIP3    H126644   4.031   5.238   1.397  0.2614 -0.5266  0.7594
 1695TIP3    H226645   4.126   5.350   1.360 -0.6188  0.2824  0.9009
 1696TIP3   OH226646   1.628   0.506   1.335 -0.0850  0.3564  0.1302
 1696TIP3    H126647   1.664   0.593   1.352  0.0859 -0.0233  1.8863
 1696TIP3    H226648   1.682   0.446   1.387 -0.9579 -0.6446 -0.0729
 1697TIP3   OH226649   3.669   5.962   7.102  0.0564 -0.0824  0.2476
 1697TIP3    H126650   3.628   6.048   7.108  0.3146 -0.0107  0.9733
 1697TIP3    H226651   3.637   5.926   7.019 -1.2866  0.0771  0.6763
 1698TIP3   OH226652   1.056   4.607   2.048  0.1573 -0.0685 -0.0110
 1698TIP3    H126653   1.096   4.663   2.114 -0.6504  0.6069 -0.0864
 1698TIP3    H226654   1.001   4.547   2.097  1.2967 -1.0766  0.1029
 1699TIP3   OH226655   2.870   3.374   2.402  0.3114  0.5987 -0.3026
 1699TIP3    H126656   2.829   3.287   2.399 -0.6175  1.0038  0.2354
 1699TIP3    H226657   2.813   3.428   2.348  1.1631  0.7798 -1.0471
 1700TIP3   OH226658   3.031   2.623   0.069 -0.4007  0.1468 -0.1333
 1700TIP3    H126659   3.022   2.717   0.055 -2.4032  0.1727  1.0204
 1700TIP3    H226660   2.975   2.584   0.001  0.7401 -0.2505 -0.8675
 1701TIP3   OH226661   4.661   0.203   1.485  0.2083  0.2785  0.1415
 1701TIP3    H126662   4.582   0.245   1.448 -0.8471 -0.4698  1.4606
 1701TIP3    H226663   4.629   0.158   1.563  1.6998 -1.2455 -0.0901
 1702TIP3   OH226664   1.356   2.077   1.613  0.0720 -0.1928 -0.2094
 1702TIP3    H126665   1.423   2.023   1.572 -0.3373  0.2297 -1.4843
 1702TIP3    H226666   1.289   2.015   1.642 -0.4354 -0.3939 -1.7355
 1703TIP3   OH226667   3.117   1.336   1.312  0.0566  0.0927 -0.4064
 1703TIP3    H126668   3.117   1.399   1.240 -0.4303 -0.4803 -0.9140
 1703TIP3    H226669   3.071   1.381   1.383 -1.0802 -0.0037 -1.0562
 1704TIP3   OH226670   1.049   1.773   7.382  0.8189 -0.0844  0.7854
 1704TIP3    H126671   0.960   1.777   7.418  1.3080  0.7609  1.9714
 1704TIP3    H226672   1.042   1.712   7.308 -0.5504 -0.7537  1.4224
 1705TIP3   OH226673   3.644   0.317   8.164  0.2179 -0.3939  0.3093
 1705TIP3    H126674   3.570   0.299   8.107  0.1379  0.5612  0.0850
 1705TIP3    H226675   3.634   0.257   8.237 -0.6411 -0.4464  0.1557
 1706TIP3   OH226676   4.399   3.357   2.442  0.5820  0.5992 -1.1397
 1706TIP3    H126677   4.378   3.341   2.534  0.4626  0.8064 -1.1312
 1706TIP3    H226678   4.354   3.288   2.394 -1.5160  1.9860 -1.2818
 1707TIP3   OH226679   3.595   6.552   0.698  0.3375 -0.4571  0.6989
 1707TIP3    H126680   3.595   6.538   0.603  0.9928 -0.7549  0.7338
 1707TIP3    H226681   3.532   6.488   0.732 -0.9683  0.6165  0.3446
 1708TIP3   OH226682   6.849   0.098   7.125  0.4826  0.0061 -0.3203
 1708TIP3    H126683   6.938   0.107   7.158  0.2463 -0.1826  0.4066
 1708TIP3    H226684   6.856   0.037   7.052  1.0762  0.6996 -0.8566
 1709TIP3   OH226685   1.184   5.489   6.814  0.8670 -0.6844 -0.3473
 1709TIP3    H126686   1.224   5.413   6.772  0.7422 -0.3267 -1.1153
 1709TIP3    H226687   1.095   5.493   6.778  1.4754  0.9482 -1.8096
 1710TIP3   OH226688   6.119   0.077   7.617  0.8450 -0.1869  0.1531
 1710TIP3    H126689   6.041   0.064   7.563  0.3506  3.9586 -0.4262
 1710TIP3    H226690   6.189   0.032   7.569 -0.8483 -2.7943 -0.0397
 1711TIP3   OH226691   4.275   5.369   0.033 -0.4461  0.4683 -0.3961
 1711TIP3    H126692   4.265   5.447   0.087  0.6817 -0.1836  0.8271
 1711TIP3    H226693   4.332   5.312   0.084 -1.2318 -1.1626 -1.2420
 1712TIP3   OH226694   1.473   4.067   0.787  0.2952  0.0987  0.4722
 1712TIP3    H126695   1.420   4.143   0.766 -0.4412  0.0868  2.1883
 1712TIP3    H226696   1.421   4.016   0.848  1.9742 -0.2844  1.6635
 1713TIP3   OH226697   6.727   4.705   1.558 -0.4485 -0.5929 -0.1117
 1713TIP3    H126698   6.812   4.668   1.580 -0.8914 -2.2531 -1.0446
 1713TIP3    H226699   6.711   4.771   1.626  1.7525  0.0965 -0.1854
 1714TIP3   OH226700   5.375   1.251   2.081 -0.0049  0.1999 -0.2720
 1714TIP3    H126701   5.301   1.248   2.142 -0.4178 -0.0104 -0.7779
 1714TIP3    H226702   5.372   1.339   2.044 -1.1084 -0.3805 -1.6329
 1715TIP3   OH226703   3.834   4.734   1.200 -0.4769  0.1225  0.7034
 1715TIP3    H126704   3.895   4.671   1.162 -0.6139  0.0470  0.6099
 1715TIP3    H226705   3.747   4.699   1.182 -0.6004  0.9630 -0.4824
 1716TIP3   OH226706   3.344   0.101   8.263  0.1694  0.1986 -0.1827
 1716TIP3    H126707   3.350   0.017   8.219  1.5561 -0.4115  1.0764
 1716TIP3    H226708   3.339   0.165   8.193 -1.1637 -0.9190 -1.1661
 1717TIP3   OH226709   0.024   6.685   6.663  0.1381  0.1225  0.2167
 1717TIP3    H126710   0.029   6.772   6.624 -0.1663 -0.4419 -1.1160
 1717TIP3    H226711   0.114   6.654   6.664  0.1409  0.1211 -0.0827
 1718TIP3   OH226712   3.296   3.949   7.750 -0.2400 -0.0882 -0.3414
 1718TIP3    H126713   3.233   3.953   7.823  0.3260  0.8860  0.1210
 1718TIP3    H226714   3.322   4.040   7.737 -0.8678 -0.1303 -2.2628
 1719TIP3   OH226715   2.906   0.915   6.624 -0.5435 -0.5012 -0.3986
 1719TIP3    H126716   2.868   0.902   6.537  0.6971 -1.5174 -0.8233
 1719TIP3    H226717   2.871   0.843   6.676  1.2739 -1.8675 -0.9836
 1720TIP3   OH226718   5.566   0.355   8.165 -0.1126 -0.4493  0.0634
 1720TIP3    H126719   5.477   0.378   8.192  0.1740  0.1461  0.5315
 1720TIP3    H226720   5.615   0.437   8.174 -0.0981 -0.0269 -2.8059
 1721TIP3   OH226721   0.803   2.279   6.628 -0.2786 -0.7115 -0.2909
 1721TIP3    H126722   0.787   2.347   6.563  1.0883 -2.4381 -2.6039
 1721TIP3    H226723   0.794   2.323   6.713 -2.5688  1.5480 -1.5887
 1722TIP3   OH226724   1.662   1.375   7.135 -0.0739  0.1091 -0.8557
 1722TIP3    H126725   1.607   1.297   7.134  0.2891 -0.1650 -0.4045
 1722TIP3    H226726   1.677   1.392   7.228  0.3898  0.3197 -0.9632
 1723TIP3   OH226727   3.861   5.184   1.455  0.6849  0.3547 -0.3484
 1723TIP3    H126728   3.838   5.181   1.548  1.0068 -0.4456 -0.2811
 1723TIP3    H226729   3.791   5.233   1.414 -0.8835 -1.5451 -0.0839
 1724TIP3   OH226730   1.878   2.492   0.521  0.3733 -0.2630  0.0886
 1724TIP3    H126731   1.814   2.557   0.492 -0.2578 -1.9682 -2.7398
 1724TIP3    H226732   1.962   2.535   0.509 -0.0727  0.4235 -0.7394
 1725TIP3   OH226733   4.609   6.588   1.659 -0.3554 -0.2377 -0.3147
 1725TIP3    H126734   4.572   6.610   1.574 -0.6185  0.0990 -0.1155
 1725TIP3    H226735   4.594   6.494   1.668  0.1717 -0.3855 -0.8805
 1726TIP3   OH226736   6.044   4.814   7.421 -0.2093  0.3068 -0.6000
 1726TIP3    H126737   6.102   4.750   7.460 -0.1267 -0.0787 -1.3347
 1726TIP3    H226738   5.969   4.763   7.390 -0.4713  0.6618 -0.5650
 1727TIP3   OH226739   2.374   6.077   1.105  0.0661  1.0009 -0.6629
 1727TIP3    H126740   2.442   6.013   1.084  0.0014  0.1299  1.4433
 1727TIP3    H226741   2.421   6.151   1.144 -0.0196  1.3466 -1.2167
 1728TIP3   OH226742   2.158   3.989   7.274  0.0478 -0.1683  0.3734
 1728TIP3    H126743   2.242   3.947   7.290 -0.3385 -1.0498  0.1571
 1728TIP3    H226744   2.178   4.083   7.271  0.7908 -0.2587  1.7567
 1729TIP3   OH226745   6.611   0.486   0.060  0.3440  0.2427 -0.1007
 1729TIP3    H126746   6.561   0.408   0.034  0.9540 -0.4069  0.6302
 1729TIP3    H226747   6.545   0.556   0.064  0.0019  0.0920 -2.0277
 1730TIP3   OH226748   2.774   3.668   0.527 -0.6312 -0.6230 -0.1984
 1730TIP3    H126749   2.690   3.700   0.557 -0.3763 -1.2774  1.3057
 1730TIP3    H226750   2.796   3.597   0.588  2.2655  1.3134  1.2137
 1731TIP3   OH226751   0.465   1.146   7.372  0.3703  0.2292  0.7261
 1731TIP3    H126752   0.409   1.195   7.432 -1.1447 -0.6724  0.0833
 1731TIP3    H226753   0.472   1.059   7.412  0.3491 -0.0150  0.1947
 1732TIP3   OH226754   6.133   6.624   6.751  0.3667  0.2043  0.0503
 1732TIP3    H126755   6.119   6.595   6.661  0.1430  1.9723 -0.5389
 1732TIP3    H226756   6.052   6.668   6.776  1.0028  1.2046  0.4751
 1733TIP3   OH226757   4.380   4.871   8.183  0.3150 -0.1873 -0.2280
 1733TIP3    H126758   4.411   4.956   8.152  0.3815 -0.1262  0.0044
 1733TIP3    H226759   4.320   4.892   8.254  1.3807 -0.3682  0.7557
 1734TIP3   OH226760   4.868   0.523   8.116 -0.8028 -0.3023  0.3767
 1734TIP3    H126761   4.872   0.598   8.175 -0.5427  0.8297 -1.0270
 1734TIP3    H226762   4.781   0.528   8.076 -0.3800 -0.0663 -0.5532
 1735TIP3   OH226763   4.386   2.214   6.617 -0.0215 -0.4460  0.1156
 1735TIP3    H126764   4.455   2.265   6.575 -0.0065  0.5817  1.3407
 1735TIP3    H226765   4.388   2.241   6.709 -2.4771  0.1407  0.0682
 1736TIP3   OH226766   6.414   5.623   0.951 -0.3291 -0.2983 -0.1303
 1736TIP3    H126767   6.489   5.579   0.912  1.4657  1.1855  1.4526
 1736TIP3    H226768   6.357   5.644   0.876  0.8406 -1.4023 -1.3851
 1737TIP3   OH226769   0.684   1.745   2.147 -0.2186 -0.1855  0.2601
 1737TIP3    H126770   0.656   1.691   2.220  1.2519  0.1981  1.1484
 1737TIP3    H226771   0.716   1.826   2.188 -1.1336  0.8269 -0.9428
 1738TIP3   OH226772   3.686   1.257   6.654 -0.4412  0.2472 -0.2496
 1738TIP3    H126773   3.671   1.182   6.712  2.7760 -0.4878 -0.2013
 1738TIP3    H226774   3.662   1.333   6.708 -1.5472 -0.5906  0.5092
 1739TIP3   OH226775   5.253   6.028   0.572 -0.2809 -0.5165  0.1928
 1739TIP3    H126776   5.185   6.092   0.554  0.0413 -0.2772 -0.1784
 1739TIP3    H226777   5.251   5.968   0.497 -1.4445 -1.7147  1.1216
 1740TIP3   OH226778   3.614   2.388   8.271 -0.7598  0.6913 -0.2941
 1740TIP3    H126779   3.576   2.436   8.198 -0.8585  0.8565 -0.1340
 1740TIP3    H226780   3.585   2.297   8.257 -0.8528  0.7383 -0.4093
 1741TIP3   OH226781   0.216   2.874   2.682  0.2179 -0.6078  0.5326
 1741TIP3    H126782   0.230   2.800   2.623 -0.8772  0.8578 -1.7464
 1741TIP3    H226783   0.161   2.839   2.752 -1.0518 -1.8082 -0.9633
 1742TIP3   OH226784   0.326   1.253   8.123  0.2059 -0.1640 -0.0635
 1742TIP3    H126785   0.281   1.328   8.085  2.4008  2.0830  1.4191
 1742TIP3    H226786   0.296   1.249   8.214 -2.6244 -3.5148 -0.9258
 1743TIP3   OH226787   2.019   6.084   0.935 -0.5106 -0.2935  0.3312
 1743TIP3    H126788   2.034   6.029   1.012  4.0322 -1.2123 -0.9442
 1743TIP3    H226789   2.056   6.169   0.957 -1.6150  0.2958  0.0158
 1744TIP3   OH226790   1.943   0.445   2.130  0.0008  0.0715 -0.4059
 1744TIP3    H126791   1.863   0.392   2.123  0.0235 -0.1685  0.8505
 1744TIP3    H226792   1.914   0.535   2.115 -0.6122  0.0405  0.4608
 1745TIP3   OH226793   1.800   1.226   0.878 -0.5227  0.3545 -0.4037
 1745TIP3    H126794   1.752   1.308   0.865 -1.0305  0.0951 -0.2010
 1745TIP3    H226795   1.842   1.209   0.794  1.3200  1.9047  0.1388
 1746TIP3   OH226796   3.608   5.765   1.793  0.1788  0.1667 -0.8019
 1746TIP3    H126797   3.680   5.826   1.779 -0.8721  2.2603  1.9698
 1746TIP3    H226798   3.614   5.741   1.886 -2.2576 -0.1163 -0.6411
 1747TIP3   OH226799   3.332   3.202   6.977 -0.2248 -0.6751 -0.2290
 1747TIP3    H126800   3.339   3.159   6.891  3.8043 -1.4981  0.3436
 1747TIP3    H226801   3.305   3.133   7.036 -1.0018 -0.5826 -0.4586
 1748TIP3   OH226802   2.532   5.410   1.850 -0.2258  0.2630  0.4756
 1748TIP3    H126803   2.583   5.471   1.902  0.3535  0.1982 -0.0103
 1748TIP3    H226804   2.592   5.379   1.782 -0.5776 -0.6528  0.5597
 1749TIP3   OH226805   0.783   3.568   0.284 -0.2634  0.0979  0.3432
 1749TIP3    H126806   0.861   3.528   0.323  1.1816  1.4714 -0.9860
 1749TIP3    H226807   0.778   3.529   0.196 -2.5525 -1.7917  1.2338
 1750TIP3   OH226808   2.184   1.215   7.522  0.4037 -0.3286 -0.6769
 1750TIP3    H126809   2.095   1.191   7.497  0.3551 -0.2704 -0.5639
 1750TIP3    H226810   2.185   1.205   7.617 -0.2348  2.0728 -0.3554
 1751TIP3   OH226811   0.796   6.072   6.966 -0.0654  0.2393 -0.2778
 1751TIP3    H126812   0.719   6.018   6.947 -0.7157  0.6423  1.0982
 1751TIP3    H226813   0.788   6.147   6.907 -0.1975 -0.1924 -0.8211
 1752TIP3   OH226814   1.474   1.280   7.523  0.2902 -0.8074 -0.3455
 1752TIP3    H126815   1.479   1.186   7.538 -2.3601 -0.7517  1.7662
 1752TIP3    H226816   1.383   1.302   7.542  1.0561  2.3252  0.2209
 1753TIP3   OH226817   4.953   0.704   0.870  0.3902 -0.2993  0.0791
 1753TIP3    H126818   5.010   0.757   0.813  1.4297 -2.0038 -0.5366
 1753TIP3    H226819   4.957   0.748   0.955  0.2447  1.2833 -0.7007
 1754TIP3   OH226820   1.416   0.664   8.148  0.1681 -0.0559  0.4969
 1754TIP3    H126821   1.365   0.629   8.074 -0.0063  0.8500  0.1800
 1754TIP3    H226822   1.453   0.586   8.190 -0.4715 -0.6483 -0.0018
 1755TIP3   OH226823   1.050   6.433   0.798 -0.3369 -0.0528 -0.6005
 1755TIP3    H126824   1.003   6.422   0.715 -0.3784 -0.7226 -0.4960
 1755TIP3    H226825   1.004   6.504   0.842  0.0750  0.7285 -1.4149
 1756TIP3   OH226826   0.665   6.228   8.384  0.1848 -0.5417 -0.1245
 1756TIP3    H126827   0.745   6.205   8.430 -0.4620 -1.7925  0.4018
 1756TIP3    H226828   0.639   6.148   8.339 -0.1237  0.1854 -1.2956
 1757TIP3   OH226829   2.027   5.118   8.378 -0.4666  0.0520 -0.5152
 1757TIP3    H126830   2.107   5.077   8.410 -1.6879 -1.6475  0.6062
 1757TIP3    H226831   2.023   5.096   8.285 -0.5245 -1.5097 -0.1727
 1758TIP3   OH226832   4.909   5.603   1.650 -0.2306  0.4596  0.3328
 1758TIP3    H126833   4.963   5.533   1.688  0.5170 -0.3113 -2.0191
 1758TIP3    H226834   4.820   5.582   1.679 -0.0026 -1.4142 -0.1794
 1759TIP3   OH226835   5.799   3.643   3.000  0.2865  0.2442 -0.3950
 1759TIP3    H126836   5.835   3.555   3.012  0.2627  0.0942 -1.3224
 1759TIP3    H226837   5.875   3.701   2.999  0.7235 -0.1903 -3.4858
 1760TIP3   OH226838   1.016   0.823   7.468  0.8490 -0.4744 -0.2845
 1760TIP3    H126839   1.043   0.804   7.558  0.6431  0.2223 -0.0676
 1760TIP3    H226840   1.096   0.813   7.417  1.1935  0.0967  0.1281
 1761TIP3   OH226841   1.662   4.125   8.160 -0.1492  0.2654  0.5819
 1761TIP3    H126842   1.666   4.181   8.083 -2.1165 -0.0130  0.2247
 1761TIP3    H226843   1.667   4.186   8.234 -3.1918  1.1315  0.2130
 1762TIP3   OH226844   0.921   5.500   7.870 -0.0243  0.3041 -0.3916
 1762TIP3    H126845   0.851   5.530   7.928 -0.5353  0.0565 -0.8754
 1762TIP3    H226846   0.891   5.523   7.782  0.5383  0.2648 -0.5986
 1763TIP3   OH226847   5.318   2.939   0.490  0.1073  0.0995 -0.0817
 1763TIP3    H126848   5.390   2.911   0.434  0.4536 -0.1296  0.4722
 1763TIP3    H226849   5.360   2.981   0.565 -0.2270 -1.6935  1.1765
 1764TIP3   OH226850   5.166   0.807   0.122 -0.1532 -0.0983  0.4282
 1764TIP3    H126851   5.092   0.747   0.115  0.2065 -0.3655 -1.9495
 1764TIP3    H226852   5.233   0.757   0.170  0.3045 -1.8603 -1.8976
 1765TIP3   OH226853   1.020   1.789   7.067  0.0306 -0.0677 -0.1050
 1765TIP3    H126854   0.972   1.864   7.033 -0.5815  0.4189  1.7301
 1765TIP3    H226855   1.097   1.782   7.010 -0.4732  1.2554 -0.9875
 1766TIP3   OH226856   2.128   3.212   1.127 -0.0914  0.3007  0.8638
 1766TIP3    H126857   2.067   3.282   1.149  0.2336  1.0267 -0.4435
 1766TIP3    H226858   2.139   3.218   1.032  0.4159 -1.1422  0.8035
 1767TIP3   OH226859   0.672   1.963   8.499  0.2875  0.0365 -0.0245
 1767TIP3    H126860   0.659   1.988   8.590 -1.4572  0.9551 -0.4760
 1767TIP3    H226861   0.767   1.963   8.486  0.5294  0.5013  1.6136
 1768TIP3   OH226862   0.139   5.380   8.453 -0.2438 -0.0431 -0.2854
 1768TIP3    H126863   0.107   5.455   8.503  0.2300  0.7650 -1.1740
 1768TIP3    H226864   0.061   5.326   8.438 -0.5200  0.0812  0.6589
 1769TIP3   OH226865   5.733   4.197   7.072  0.0678  0.1505  0.1279
 1769TIP3    H126866   5.646   4.166   7.096  0.0040  0.9229  0.9576
 1769TIP3    H226867   5.744   4.171   6.981 -0.7224 -0.6247  0.2448
 1770TIP3   OH226868   3.480   3.483   1.897 -0.0131  0.0468  0.7708
 1770TIP3    H126869   3.402   3.526   1.933  0.4086  1.2655  0.3106
 1770TIP3    H226870   3.476   3.501   1.803 -1.0869 -3.0655  0.1090
 1771TIP3   OH226871   6.898   5.163   6.211 -0.4195  0.1043 -0.2261
 1771TIP3    H126872   6.959   5.156   6.137  2.5391 -0.4064  2.0543
 1771TIP3    H226873   6.908   5.254   6.240  0.0180 -0.2273  0.7110
 1772TIP3   OH226874   5.538   4.463   1.359 -0.0723 -0.4208 -0.0494
 1772TIP3    H126875   5.472   4.518   1.401  0.8251 -1.1362  2.5220
 1772TIP3    H226876   5.558   4.507   1.277 -1.6415  1.3630  0.4599
 1773TIP3   OH226877   5.004   6.108   1.349  0.6285 -0.3656 -0.5576
 1773TIP3    H126878   4.942   6.093   1.420  0.5418 -2.3241 -0.9855
 1773TIP3    H226879   4.998   6.201   1.331 -1.3786 -0.3047  0.1687
 1774TIP3   OH226880   3.761   4.619   7.728  0.2770 -0.4238  0.2075
 1774TIP3    H126881   3.779   4.535   7.768  1.3125 -0.0538  0.5545
 1774TIP3    H226882   3.814   4.682   7.777 -1.4114  0.6389  0.7741
 1775TIP3   OH226883   5.454   6.896   8.344  0.3682  0.6449  0.2488
 1775TIP3    H126884   5.407   6.881   8.426  0.5373  2.6077  0.7625
 1775TIP3    H226885   5.386   6.918   8.281  0.2670 -0.5650 -0.0910
 1776TIP3   OH226886   5.979   5.150   0.239  0.1574  0.5397  0.1085
 1776TIP3    H126887   5.977   5.222   0.302 -0.2717  1.7068 -1.1949
 1776TIP3    H226888   5.927   5.181   0.165  2.6075  0.2269 -1.8824
 1777TIP3   OH226889   2.588   1.337   1.523  0.4376 -0.1634 -0.2920
 1777TIP3    H126890   2.551   1.390   1.592  2.0188  0.4245  0.1585
 1777TIP3    H226891   2.520   1.273   1.502 -1.2659  1.5916 -0.4002
 1778TIP3   OH226892   2.802   1.992   1.420  0.4491  0.0673  0.2742
 1778TIP3    H126893   2.790   2.026   1.332 -0.3322 -0.7486  0.0536
 1778TIP3    H226894   2.757   2.054   1.477 -1.3738 -0.7764 -0.1669
 1779TIP3   OH226895   4.913   4.865   7.737 -0.4719  0.4565  0.3481
 1779TIP3    H126896   4.839   4.858   7.798 -1.3951  0.0444 -0.7887
 1779TIP3    H226897   4.924   4.777   7.702 -0.8077  0.9345 -1.0336
 1780TIP3   OH226898   0.391   2.121   6.858 -0.2278  0.0723  0.6293
 1780TIP3    H126899   0.383   2.196   6.799  0.4147  0.6745  1.2734
 1780TIP3    H226900   0.307   2.116   6.903 -0.3862  0.2087  0.3472
 1781TIP3   OH226901   2.169   5.314   0.696 -0.7046  0.4660 -0.3913
 1781TIP3    H126902   2.183   5.408   0.711 -3.1725  1.0412 -1.1989
 1781TIP3    H226903   2.106   5.311   0.624  1.1637 -1.9098 -2.0748
 1782TIP3   OH226904   1.399   0.142   2.324  0.3187 -0.1873  0.0738
 1782TIP3    H126905   1.422   0.220   2.273  0.3468  0.0642  0.4684
 1782TIP3    H226906   1.310   0.120   2.295  0.4420 -0.2171 -0.2887
 1783TIP3   OH226907   0.447   1.965   7.527 -0.8262  1.0892 -0.4041
 1783TIP3    H126908   0.396   1.886   7.507 -1.4642  1.2693  0.4657
 1783TIP3    H226909   0.400   2.005   7.600  1.1336  0.7116  1.1377
 1784TIP3   OH226910   6.782   4.281   1.828  0.0890 -0.3729 -0.3198
 1784TIP3    H126911   6.817   4.315   1.746 -2.1758  3.0087 -0.0995
 1784TIP3    H226912   6.687   4.276   1.813 -0.3065 -0.3981  1.8371
 1785TIP3   OH226913   4.316   1.282   2.463  0.0310 -0.0093 -0.4512
 1785TIP3    H126914   4.360   1.342   2.524  0.0832  0.2352 -0.7249
 1785TIP3    H226915   4.346   1.195   2.488 -1.3501 -0.0940  1.0515
 1786TIP3   OH226916   4.539   6.459   7.320 -0.0058  0.0595 -0.1772
 1786TIP3    H126917   4.561   6.397   7.251  0.6402 -1.1235  1.0468
 1786TIP3    H226918   4.594   6.535   7.302 -0.4413  0.0959 -1.4169
 1787TIP3   OH226919   1.869   2.839   0.825 -1.0104  0.2466 -0.2217
 1787TIP3    H126920   1.861   2.927   0.863 -0.7230  0.3405 -0.3815
 1787TIP3    H226921   1.924   2.791   0.887  1.8586  1.1906 -1.8373
 1788TIP3   OH226922   4.413   5.561   0.457  0.2217  0.5594  0.4699
 1788TIP3    H126923   4.446   5.541   0.545  1.5494 -0.1913 -0.1633
 1788TIP3    H226924   4.369   5.645   0.466  0.1281  0.3811  1.9021
 1789TIP3   OH226925   2.677   1.736   2.352  0.8877  0.5821 -0.1034
 1789TIP3    H126926   2.589   1.768   2.334  0.9884  0.9915  0.1091
 1789TIP3    H226927   2.664   1.650   2.392  0.5383  1.0291  0.7882
 1790TIP3   OH226928   2.474   6.146   0.336 -0.1231  0.3564  0.1355
 1790TIP3    H126929   2.535   6.083   0.374 -0.3576  0.8027  1.2904
 1790TIP3    H226930   2.400   6.093   0.306  0.9648 -0.2353 -1.6294
 1791TIP3   OH226931   5.066   3.206   2.546  0.2420 -0.3000 -0.0943
 1791TIP3    H126932   5.157   3.176   2.544  0.5517  0.2269  2.4119
 1791TIP3    H226933   5.064   3.283   2.491  2.0320  1.2961  1.9135
 1792TIP3   OH226934   5.125   0.058   1.775 -0.0792 -0.4401 -0.0626
 1792TIP3    H126935   5.163   0.132   1.823 -1.2429  0.0172  0.2010
 1792TIP3    H226936   5.126  -0.014   1.837 -2.4532  0.3924  1.0776
 1793TIP3   OH226937   4.906   2.757   2.098  0.8230 -0.0357 -0.7911
 1793TIP3    H126938   4.988   2.806   2.100  1.4231 -1.0296  0.6841
 1793TIP3    H226939   4.917   2.689   2.165 -0.5987 -1.1689 -1.6505
 1794TIP3   OH226940   3.781   6.749   0.609  0.2497  0.0010  0.0304
 1794TIP3    H126941   3.702   6.702   0.635  0.8480 -1.9126 -1.4049
 1794TIP3    H226942   3.850   6.713   0.665  0.4412  0.3252  0.0079
 1795TIP3   OH226943   4.164   1.915   0.874  0.8239 -0.2917  0.1609
 1795TIP3    H126944   4.208   1.851   0.818  1.6803 -0.8855  1.4446
 1795TIP3    H226945   4.229   1.984   0.887  0.4094  0.1472 -0.0775
 1796TIP3   OH226946   0.756   3.417   8.293  0.2943 -0.0339  0.9988
 1796TIP3    H126947   0.687   3.352   8.280 -1.1220  1.3920  1.0052
 1796TIP3    H226948   0.733   3.488   8.234  0.7839  1.2068  2.2473
 1797TIP3   OH226949   3.857   1.962   8.360 -0.0987  0.4171 -0.0380
 1797TIP3    H126950   3.844   1.936   8.451  2.1165 -1.9424 -0.2671
 1797TIP3    H226951   3.882   1.881   8.315  2.8429  2.1478 -1.8651
 1798TIP3   OH226952   2.128   6.482   8.523 -0.1515  0.6752 -0.1949
 1798TIP3    H126953   2.223   6.474   8.526 -0.2308 -0.1285  0.4773
 1798TIP3    H226954   2.107   6.481   8.430  0.5302  1.4372 -0.3755
 1799TIP3   OH226955   2.397   3.076   1.077 -0.3218 -0.0864  0.1773
 1799TIP3    H126956   2.456   3.043   1.145 -0.5634 -0.3361  0.2671
 1799TIP3    H226957   2.412   3.170   1.076  0.4233 -0.1989 -0.1234
 1800TIP3   OH226958   5.506   6.754   0.812  0.0119 -0.0517 -0.0657
 1800TIP3    H126959   5.446   6.812   0.765 -1.3231 -1.2565  0.0650
 1800TIP3    H226960   5.517   6.679   0.753 -1.6894 -1.5875  1.4665
 1801TIP3   OH226961   1.002   0.738   7.764 -0.4844  0.7603 -0.0430
 1801TIP3    H126962   1.018   0.686   7.843  0.3160  1.6680  0.4135
 1801TIP3    H226963   0.972   0.823   7.796  0.4092  1.3378 -0.6777
 1802TIP3   OH226964   1.676   3.995   0.339  1.0508 -0.1200  0.5246
 1802TIP3    H126965   1.633   3.962   0.418  0.3697 -1.2281 -0.2695
 1802TIP3    H226966   1.610   3.987   0.271  1.9063 -0.0490 -0.3390
 1803TIP3   OH226967   3.736   0.358   7.282 -0.3780 -0.2117 -0.0306
 1803TIP3    H126968   3.677   0.429   7.307 -0.4194 -0.8665  1.9063
 1803TIP3    H226969   3.823   0.392   7.298 -0.3041 -0.0131 -0.7931
 1804TIP3   OH226970   2.295   2.626   2.177  0.2062  0.0644 -0.0714
 1804TIP3    H126971   2.381   2.584   2.169  1.1337  1.9961 -0.6222
 1804TIP3    H226972   2.299   2.675   2.259 -1.0726 -1.2509  0.8469
 1805TIP3   OH226973   2.365   3.750   1.348 -0.1946 -0.4508 -0.3793
 1805TIP3    H126974   2.281   3.777   1.384  0.2990  2.4344 -1.1248
 1805TIP3    H226975   2.424   3.823   1.368  1.7300 -1.6677 -1.2986
 1806TIP3   OH226976   1.697   6.347   7.981  0.4407 -0.1151  0.2783
 1806TIP3    H126977   1.784   6.383   7.963  0.2029 -0.2605 -1.3501
 1806TIP3    H226978   1.645   6.423   8.007  0.8160  0.1236  0.3495
 1807TIP3   OH226979   5.242   1.721   1.418 -0.3113 -0.1430  0.3925
 1807TIP3    H126980   5.293   1.754   1.344 -1.5295 -0.1401 -0.4994
 1807TIP3    H226981   5.257   1.784   1.488  0.4461  0.1580 -0.0258
 1808TIP3   OH226982   0.892   6.628   7.875  0.5924 -0.1978 -0.4048
 1808TIP3    H126983   0.850   6.580   7.946  1.0011  0.2346  0.1407
 1808TIP3    H226984   0.951   6.565   7.834 -1.0876 -1.0346 -1.6583
 1809TIP3   OH226985   0.787   1.195   0.618 -0.1724 -0.2944  0.3892
 1809TIP3    H126986   0.743   1.255   0.677  0.2407  0.3532  0.0498
 1809TIP3    H226987   0.835   1.135   0.676 -0.6268 -0.3312  0.7287
 1810TIP3   OH226988   0.604   4.556   8.052  0.1903 -0.5901  0.4719
 1810TIP3    H126989   0.565   4.529   8.135  0.8300 -0.0905  0.9482
 1810TIP3    H226990   0.616   4.651   8.061  0.8950 -0.6351  0.0735
 1811TIP3   OH226991   6.776   3.487   6.096 -0.0823 -0.1648  0.6510
 1811TIP3    H126992   6.811   3.489   6.185 -0.3619  2.7545  0.7772
 1811TIP3    H226993   6.807   3.404   6.060  0.5196 -1.1584  3.2508
 1812TIP3   OH226994   4.984   3.085   2.009  0.0372 -0.2415  0.5344
 1812TIP3    H126995   5.045   3.065   2.080  0.1572  0.2341  0.5684
 1812TIP3    H226996   5.012   3.171   1.976 -1.7821  0.9258  1.8458
 1813TIP3   OH226997   2.335   5.001   6.911  0.0688 -0.1000  0.4799
 1813TIP3    H126998   2.351   4.989   6.818  1.5031  1.3210  0.5044
 1813TIP3    H226999   2.422   5.008   6.950 -0.4982 -0.9950  1.9874
 1814TIP3   OH227000   5.235   5.619   1.983  0.2733  0.8564 -0.0426
 1814TIP3    H127001   5.150   5.575   1.986 -0.0792  1.1735 -2.6389
 1814TIP3    H227002   5.258   5.635   2.074  0.2868 -4.2894  1.1326
 1815TIP3   OH227003   3.500   0.120   7.070 -0.0713  0.0542  0.2389
 1815TIP3    H127004   3.509   0.196   7.013 -1.5612  0.4255  0.4705
 1815TIP3    H227005   3.444   0.060   7.022  0.2517 -0.4742  0.5020
 1816TIP3   OH227006   3.229   2.305   6.719 -0.4258  0.1752  0.3210
 1816TIP3    H127007   3.152   2.355   6.692 -0.1893  0.6926  0.5903
 1816TIP3    H227008   3.299   2.333   6.660 -0.4501 -0.3147  0.0584
 1817TIP3   OH227009   6.118   3.607   8.446  0.1873  0.4635 -0.5826
 1817TIP3    H127010   6.085   3.598   8.535 -0.3328  1.5128 -0.6518
 1817TIP3    H227011   6.044   3.644   8.397  0.5939  0.2616 -1.3668
 1818TIP3   OH227012   1.587   4.854   7.172 -0.3709 -0.3637  0.5360
 1818TIP3    H127013   1.623   4.784   7.226 -0.8160 -2.0724 -1.2465
 1818TIP3    H227014   1.653   4.867   7.103 -0.8290  0.1282  0.1759
 1819TIP3   OH227015   6.040   6.530   0.032  0.3711 -0.3187  0.2493
 1819TIP3    H127016   6.013   6.480   0.109  1.1624  0.2961  0.9358
 1819TIP3    H227017   6.135   6.528   0.033  0.4637  1.7312  0.6820
 1820TIP3   OH227018   1.937   0.540   1.523 -0.4028 -0.3600  0.6811
 1820TIP3    H127019   1.880   0.562   1.596  0.8768 -0.7009  1.8223
 1820TIP3    H227020   1.946   0.622   1.474 -1.1136 -0.0748  1.0234
 1821TIP3   OH227021   2.855   0.872   8.256  0.0582  0.2545  0.0082
 1821TIP3    H127022   2.785   0.903   8.313 -0.0040  1.2305 -0.5743
 1821TIP3    H227023   2.811   0.815   8.192  0.0302 -0.3017  0.5149
 1822TIP3   OH227024   0.270   4.418   7.800  0.2707 -0.0430  0.3689
 1822TIP3    H127025   0.227   4.368   7.731 -1.8442  0.0692  1.5323
 1822TIP3    H227026   0.338   4.468   7.755  0.7358 -1.9684 -1.2084
 1823TIP3   OH227027   6.162   2.202   2.386 -0.0981 -0.5179  0.0700
 1823TIP3    H127028   6.073   2.200   2.350  0.2953  1.3840 -1.2161
 1823TIP3    H227029   6.188   2.294   2.378  1.8082 -0.9469  0.8789
 1824TIP3   OH227030   2.144   0.440   8.413 -0.9925  0.3781 -0.2269
 1824TIP3    H127031   2.201   0.489   8.473  0.2372 -0.3350 -0.7756
 1824TIP3    H227032   2.140   0.352   8.449 -1.1192  0.2217 -0.6184
 1825TIP3   OH227033   4.699   5.712   7.382 -0.2536 -0.5000  0.4451
 1825TIP3    H127034   4.680   5.703   7.476  1.1986 -0.1598  0.8028
 1825TIP3    H227035   4.672   5.801   7.361 -0.5149 -0.5496  0.5695
 1826TIP3   OH227036   2.961   6.837   8.517 -0.5204  0.1257 -0.7097
 1826TIP3    H127037   2.899   6.903   8.485  0.5002  1.5623  0.1843
 1826TIP3    H227038   2.925   6.809   8.601 -0.3927  0.3498 -0.5795
 1827TIP3   OH227039   2.350   1.957   6.990 -0.3394  0.1197 -0.2136
 1827TIP3    H127040   2.370   1.906   7.068 -1.6482  0.5544  0.4392
 1827TIP3    H227041   2.336   1.891   6.922 -1.0995 -0.3653  0.3988
 1828TIP3   OH227042   0.517   0.677   8.256 -0.0863 -0.0823  0.1647
 1828TIP3    H127043   0.547   0.588   8.238 -1.9711 -0.4557 -1.4406
 1828TIP3    H227044   0.493   0.713   8.170 -0.1591  1.6802  0.8743
 1829TIP3   OH227045   2.182   3.272   6.940 -0.2361  0.1584  0.2213
 1829TIP3    H127046   2.265   3.242   6.903  0.9331  1.6676  1.4776
 1829TIP3    H227047   2.127   3.292   6.864  1.1967  0.8044 -0.6888
 1830TIP3   OH227048   6.553   5.535   2.266  0.1369  0.0184 -0.0960
 1830TIP3    H127049   6.633   5.586   2.260  1.8975 -2.6627 -1.0621
 1830TIP3    H227050   6.501   5.562   2.190  3.7804 -3.7159 -4.4961
 1831TIP3   OH227051   5.946   0.563   2.079  0.2835  0.0714  1.2251
 1831TIP3    H127052   6.029   0.522   2.054 -0.2548  1.4735 -4.2173
 1831TIP3    H227053   5.972   0.639   2.131  2.5595  0.6945 -0.6345
 1832TIP3   OH227054   1.070   4.342   8.311  0.2788 -0.2294 -0.0612
 1832TIP3    H127055   0.997   4.394   8.275 -0.0070 -1.6264 -1.6245
 1832TIP3    H227056   1.121   4.316   8.234  0.1011 -2.6934  0.5864
 1833TIP3   OH227057   0.273   2.245   1.600 -0.4564  0.0687 -0.4564
 1833TIP3    H127058   0.355   2.292   1.609 -0.9460  0.9884 -0.6745
 1833TIP3    H227059   0.291   2.158   1.636 -0.0454  0.9997  1.8098
 1834TIP3   OH227060   1.833   0.788   6.553  0.4326  0.1129  0.0345
 1834TIP3    H127061   1.804   0.704   6.518  0.8965  0.2377 -0.6781
 1834TIP3    H227062   1.917   0.769   6.596  0.3979  0.1624  0.1258
 1835TIP3   OH227063   4.312   5.850   7.733  0.2450 -0.2048  0.2075
 1835TIP3    H127064   4.314   5.859   7.638  1.3992 -0.0885  0.2228
 1835TIP3    H227065   4.237   5.902   7.760 -0.1543 -0.3147 -0.6449
 1836TIP3   OH227066   1.582   1.843   2.560  0.0470 -0.0687  0.1452
 1836TIP3    H127067   1.576   1.747   2.560 -0.0078 -0.0948 -1.4370
 1836TIP3    H227068   1.616   1.864   2.473 -1.3286  1.4286 -0.0664
 1837TIP3   OH227069   1.454   2.942   0.496  0.2549 -0.6000 -0.6213
 1837TIP3    H127070   1.467   2.892   0.577 -2.2532 -1.2859 -0.5647
 1837TIP3    H227071   1.536   2.990   0.484  1.7298 -2.5775  0.8293
 1838TIP3   OH227072   0.229   1.475   2.738 -0.4863  0.5764  0.2885
 1838TIP3    H127073   0.168   1.529   2.788 -1.5379  0.2586 -0.6070
 1838TIP3    H227074   0.173   1.413   2.690  0.6230 -0.6958  0.5676
 1839TIP3   OH227075   0.156   3.135   1.213  0.2508  0.3943 -0.5327
 1839TIP3    H127076   0.175   3.216   1.167  0.8639 -0.1834 -1.3276
 1839TIP3    H227077   0.148   3.161   1.305  1.6533  1.1869 -0.6032
 1840TIP3   OH227078   1.135   1.054   6.959 -0.2125 -0.2749 -0.5297
 1840TIP3    H127079   1.049   1.081   6.992  0.4247  0.8433  0.3131
 1840TIP3    H227080   1.153   0.971   7.003 -1.4093 -1.2027 -1.7248
 1841TIP3   OH227081   4.550   4.832   2.327 -0.1728  0.5184  0.0378
 1841TIP3    H127082   4.477   4.844   2.388 -0.6658  0.7700 -0.5783
 1841TIP3    H227083   4.575   4.740   2.336  0.4381  0.8019  1.3470
 1842TIP3   OH227084   1.781   3.442   0.371 -0.0309 -0.3965  0.3289
 1842TIP3    H127085   1.694   3.460   0.335  0.8996  1.5004 -1.1784
 1842TIP3    H227086   1.806   3.523   0.416  0.8439 -1.0218  1.0276
 1843TIP3   OH227087   1.408   3.847   1.485 -0.0395  0.4225 -0.2739
 1843TIP3    H127088   1.438   3.777   1.427  0.8100 -0.0700  0.7131
 1843TIP3    H227089   1.325   3.877   1.448 -0.8600 -1.6997 -0.2439
 1844TIP3   OH227090   0.444   6.916   8.386  0.2983  0.0159  0.2827
 1844TIP3    H127091   0.390   6.926   8.464  1.6031 -3.6897  1.8897
 1844TIP3    H227092   0.401   6.848   8.335 -0.4824  2.2987 -2.3842
 1845TIP3   OH227093   3.186   6.899   0.861  0.1202 -0.0630  0.1344
 1845TIP3    H127094   3.265   6.848   0.847 -0.2164 -1.2831  2.1832
 1845TIP3    H227095   3.203   6.948   0.942 -0.6001  0.9511 -0.3062
 1846TIP3   OH227096   6.011   2.803   2.174  0.5589  0.0718 -0.0585
 1846TIP3    H127097   6.071   2.856   2.122  0.1317  2.0284  1.3565
 1846TIP3    H227098   6.005   2.848   2.258 -0.4920 -1.7868  0.9260
 1847TIP3   OH227099   5.166   3.384   7.577 -0.1259  0.5415 -0.2915
 1847TIP3    H127100   5.193   3.407   7.488  0.5502 -1.1864 -0.5680
 1847TIP3    H227101   5.114   3.459   7.606 -0.4464  1.1029 -2.1761
 1848TIP3   OH227102   1.047   5.411   0.007  0.0395  1.1502  0.0048
 1848TIP3    H127103   0.996   5.447   0.080  0.1933 -1.2246  1.3788
 1848TIP3    H227104   1.135   5.399   0.042 -0.3349 -1.8686  0.2012
 1849TIP3   OH227105   3.686   5.265   7.365 -0.3690  0.0351  0.0262
 1849TIP3    H127106   3.652   5.316   7.291  0.7002 -0.0376 -0.5299
 1849TIP3    H227107   3.648   5.178   7.353 -1.7408  0.5191  0.6595
 1850TIP3   OH227108   1.177   5.111   1.731 -0.0969  0.6522 -0.0729
 1850TIP3    H127109   1.265   5.075   1.742 -1.3969 -3.0988 -0.5693
 1850TIP3    H227110   1.187   5.181   1.666  2.5203  0.5950  0.1627
 1851TIP3   OH227111   6.669   1.128   0.593  0.1552  0.1626 -0.4364
 1851TIP3    H127112   6.735   1.191   0.564  2.1047 -1.4848  0.1872
 1851TIP3    H227113   6.672   1.058   0.527  0.1598 -0.6446  0.3971
 1852TIP3   OH227114   0.957   0.592   7.302 -0.2846 -0.0437  0.1996
 1852TIP3    H127115   0.930   0.673   7.345  1.6436 -0.1379  1.7136
 1852TIP3    H227116   0.897   0.583   7.227 -0.3180  2.9579 -0.2383
 1853TIP3   OH227117   3.906   5.316   2.338 -0.0781 -0.0930  0.2165
 1853TIP3    H127118   3.957   5.326   2.258 -1.2731  0.2356 -0.5261
 1853TIP3    H227119   3.955   5.366   2.404  0.3469  0.5471 -0.5679
 1854TIP3   OH227120   4.733   4.151   0.603  0.0190 -0.0675  0.1003
 1854TIP3    H127121   4.755   4.240   0.576 -1.0094 -0.2727 -1.5152
 1854TIP3    H227122   4.698   4.161   0.692  0.4805  1.0580  0.1626
 1855TIP3   OH227123   0.186   4.849   6.364  0.4311 -0.0955  0.0132
 1855TIP3    H127124   0.145   4.847   6.278  1.1821  0.3127 -0.3660
 1855TIP3    H227125   0.277   4.872   6.346  0.0412  2.6247  1.1183
 1856TIP3   OH227126   2.114   6.051   2.325 -0.5277 -0.2069 -0.0785
 1856TIP3    H127127   2.063   6.091   2.396 -1.9882  0.1424 -1.2714
 1856TIP3    H227128   2.188   6.110   2.314  0.6796 -1.1402  2.2228
 1857TIP3   OH227129   3.921   4.351   7.535 -0.3401 -0.8500 -0.5130
 1857TIP3    H127130   3.929   4.259   7.510  0.5468 -0.3741 -2.1637
 1857TIP3    H227131   4.004   4.390   7.507 -1.0035  0.5957 -0.5401
 1858TIP3   OH227132   5.380   2.012   0.953  0.0460  0.1008 -0.2294
 1858TIP3    H127133   5.331   2.038   0.876 -0.3142  2.2285  0.6534
 1858TIP3    H227134   5.468   1.991   0.920 -0.2430  0.4703 -1.2605
 1859TIP3   OH227135   2.827   6.628   7.916 -1.2426  0.1377 -0.0751
 1859TIP3    H127136   2.830   6.640   7.821 -1.2577  0.6444 -0.0149
 1859TIP3    H227137   2.845   6.535   7.929  0.2718  0.3407 -0.5052
 1860TIP3   OH227138   4.245   4.181   6.683 -0.7169  0.1700 -0.1089
 1860TIP3    H127139   4.236   4.111   6.748 -1.7790 -0.8173 -1.2425
 1860TIP3    H227140   4.308   4.146   6.620 -0.7194  0.5258 -0.3078
 1861TIP3   OH227141   0.714   2.954   1.387  0.5700  0.1630 -0.5890
 1861TIP3    H127142   0.707   3.007   1.308  2.1833  1.1653 -0.1196
 1861TIP3    H227143   0.624   2.943   1.417  0.1387  2.4443 -0.8674
 1862TIP3   OH227144   2.369   5.188   7.680 -0.3361  0.1554 -0.2792
 1862TIP3    H127145   2.399   5.159   7.767  0.7544  0.8598 -0.3953
 1862TIP3    H227146   2.412   5.272   7.667  0.6169 -0.5390 -2.0503
 1863TIP3   OH227147   4.786   5.685   8.094 -0.6966  0.1801  0.0549
 1863TIP3    H127148   4.797   5.780   8.095 -0.1775  0.1580  2.6771
 1863TIP3    H227149   4.695   5.671   8.121 -0.4532 -0.0757  0.7521
 1864TIP3   OH227150   0.348   4.975   0.134 -0.0450 -0.6333 -0.3090
 1864TIP3    H127151   0.408   4.901   0.127 -0.5634 -1.2811  1.5090
 1864TIP3    H227152   0.363   5.026   0.054  1.6279 -1.7167 -0.7381
 1865TIP3   OH227153   5.316   0.768   7.070  0.3347 -0.1341 -0.3252
 1865TIP3    H127154   5.335   0.787   7.162  0.6114  0.3255 -0.4735
 1865TIP3    H227155   5.312   0.672   7.066  1.6917 -0.2304 -0.0849
 1866TIP3   OH227156   1.626   5.756   1.352  0.2504 -0.3963 -0.0647
 1866TIP3    H127157   1.712   5.797   1.338  0.9429 -1.7228  0.1575
 1866TIP3    H227158   1.606   5.715   1.268  0.1198 -0.6247  0.0799
 1867TIP3   OH227159   3.518   4.788   6.575  0.1932 -0.8839 -0.4176
 1867TIP3    H127160   3.461   4.724   6.616  0.0572 -0.2478  0.4006
 1867TIP3    H227161   3.468   4.870   6.576  2.1312  0.4525  3.0242
 1868TIP3   OH227162   5.041   0.877   1.793 -0.0900 -1.0742  0.0008
 1868TIP3    H127163   5.041   0.781   1.791 -1.5094 -1.1969  2.2843
 1868TIP3    H227164   5.014   0.899   1.882  0.0834  1.4736 -0.4995
 1869TIP3   OH227165   5.493   4.158   1.797 -0.0665  0.1904 -0.5637
 1869TIP3    H127166   5.585   4.141   1.813  0.2231  2.1593  0.0919
 1869TIP3    H227167   5.485   4.158   1.701  0.5832 -0.1584 -0.6188
 1870TIP3   OH227168   6.499   6.868   8.425  0.5527  0.2135  0.2300
 1870TIP3    H127169   6.555   6.914   8.362 -1.7143  1.8859 -0.6957
 1870TIP3    H227170   6.465   6.937   8.482  1.4583 -1.0932  2.5137
 1871TIP3   OH227171   5.067   0.443   0.499  0.4646 -0.0675 -0.1489
 1871TIP3    H127172   5.059   0.536   0.524  0.5472 -0.0915 -0.0308
 1871TIP3    H227173   5.057   0.396   0.581 -1.0669 -0.2451 -0.4187
 1872TIP3   OH227174   4.365   2.281   0.653  0.4665  0.3524 -0.0606
 1872TIP3    H127175   4.428   2.321   0.713  1.0717  0.5995 -0.8544
 1872TIP3    H227176   4.318   2.354   0.614 -0.6836  0.1568  0.8909
 1873TIP3   OH227177   0.059   2.603   6.935  0.6070 -0.3963 -0.0980
 1873TIP3    H127178   0.105   2.684   6.959  0.9824  0.6337 -3.7639
 1873TIP3    H227179   0.128   2.538   6.926  0.7516 -0.1752 -0.6169
 1874TIP3   OH227180   5.120   5.625   2.406 -0.3176  0.4528 -0.2536
 1874TIP3    H127181   5.079   5.653   2.488 -0.5996  0.8829 -0.5420
 1874TIP3    H227182   5.101   5.531   2.401 -0.9597  0.5747 -0.2046
 1875TIP3   OH227183   6.703   2.283   2.053 -0.4232 -0.5712  0.3504
 1875TIP3    H127184   6.750   2.365   2.042 -2.4447  0.9075  1.8948
 1875TIP3    H227185   6.768   2.223   2.090  1.4047 -0.1175 -1.8945
 1876TIP3   OH227186   1.245   4.560   1.467  0.7445 -0.2821  0.4244
 1876TIP3    H127187   1.273   4.508   1.392 -1.0374 -1.3966  0.4850
 1876TIP3    H227188   1.319   4.556   1.528  1.7478 -0.3479 -0.7498
 1877TIP3   OH227189   4.794   2.907   2.721  0.3643  0.5316  0.1222
 1877TIP3    H127190   4.761   2.820   2.700  0.0824  0.5553  0.4605
 1877TIP3    H227191   4.845   2.933   2.643 -0.1209  0.3527 -0.2575
 1878TIP3   OH227192   3.112   1.317   7.576  0.4625 -0.8951 -0.3014
 1878TIP3    H127193   3.041   1.275   7.625 -1.3152  0.8933 -1.1937
 1878TIP3    H227194   3.138   1.391   7.630  1.0381 -1.0291 -0.3907
 1879TIP3   OH227195   3.958   0.401   7.866  0.6327 -0.5582 -0.2470
 1879TIP3    H127196   3.872   0.434   7.839  0.3179 -1.1083  0.0525
 1879TIP3    H227197   3.951   0.306   7.857  0.5702 -0.7566  1.5632
 1880TIP3   OH227198   4.797   1.916   0.111 -0.8895 -0.5771 -0.0840
 1880TIP3    H127199   4.830   1.835   0.151 -0.6560  0.3669  1.7617
 1880TIP3    H227200   4.820   1.909   0.019  0.7941 -1.7833  0.3817
 1881TIP3   OH227201   1.343   3.443   1.433  0.2370  0.8040 -0.4737
 1881TIP3    H127202   1.374   3.513   1.375  1.6025  1.5052  1.0329
 1881TIP3    H227203   1.248   3.451   1.432  0.2729  1.3617 -1.8958
 1882TIP3   OH227204   5.798   4.078   6.737  0.1872 -0.0279 -0.3470
 1882TIP3    H127205   5.708   4.106   6.753 -0.1105  0.4027 -2.5261
 1882TIP3    H227206   5.846   4.159   6.719  1.1838 -0.1936  1.3237
 1883TIP3   OH227207   1.753   2.369   1.480 -0.0382 -0.0770  0.1360
 1883TIP3    H127208   1.665   2.402   1.498 -0.2121 -0.3343 -0.2422
 1883TIP3    H227209   1.751   2.341   1.388  0.2686 -0.6277  0.2922
 1884TIP3   OH227210   3.367   3.327   1.125 -0.0150 -0.2508 -0.6921
 1884TIP3    H127211   3.345   3.237   1.101  2.7642 -1.1261 -0.3159
 1884TIP3    H227212   3.313   3.346   1.202 -1.0110 -1.3954 -1.0955
 1885TIP3   OH227213   4.166   4.222   8.264  0.3362 -0.2232 -0.3928
 1885TIP3    H127214   4.172   4.141   8.214 -1.0939 -1.3212  1.1289
 1885TIP3    H227215   4.126   4.284   8.203  1.7709 -0.5053 -1.6884
 1886TIP3   OH227216   1.803   6.486   7.224  0.4224  0.5232 -0.1471
 1886TIP3    H127217   1.833   6.403   7.188  0.2776  0.2943  0.2480
 1886TIP3    H227218   1.775   6.537   7.148  2.1479  0.8967 -0.5530
 1887TIP3   OH227219   2.085   2.529   7.281 -0.1691 -0.5314 -0.0043
 1887TIP3    H127220   2.103   2.437   7.300 -2.4788 -1.2851 -1.0833
 1887TIP3    H227221   2.122   2.542   7.194 -0.8830 -0.8268 -0.3662
 1888TIP3   OH227222   3.298   4.522   1.015  0.0682 -0.1897  0.1357
 1888TIP3    H127223   3.287   4.577   1.092  0.2942 -0.2943  0.2456
 1888TIP3    H227224   3.259   4.439   1.039 -0.7832  0.0976 -0.2360
 1889TIP3   OH227225   0.353   6.597   1.541  0.8746  0.2561  0.1420
 1889TIP3    H127226   0.369   6.645   1.623 -0.3865 -0.8076  1.0527
 1889TIP3    H227227   0.396   6.513   1.553 -1.3134 -0.8452  0.7522
 1890TIP3   OH227228   6.647   4.557   6.912 -0.3514 -0.0888  0.0183
 1890TIP3    H127229   6.676   4.601   6.992  0.0434 -0.1248 -0.1008
 1890TIP3    H227230   6.662   4.621   6.843 -2.4015  0.6411  0.1815
 1891TIP3   OH227231   6.020   2.043   7.909  0.1283 -0.0180 -0.4867
 1891TIP3    H127232   5.967   1.980   7.957  0.6615  0.9834  1.5695
 1891TIP3    H227233   6.107   2.036   7.949  0.2196  1.9226 -0.2576
 1892TIP3   OH227234   4.276   1.580   8.471  0.3211 -0.0198  0.4984
 1892TIP3    H127235   4.290   1.644   8.540 -0.2812  0.5438  0.1100
 1892TIP3    H227236   4.317   1.620   8.393 -1.9794  0.9683 -0.2925
 1893TIP3   OH227237   6.940   2.987   1.666  0.2000  0.2866 -0.1065
 1893TIP3    H127238   6.974   3.032   1.744  0.0860  0.8088 -0.3502
 1893TIP3    H227239   6.945   3.054   1.597 -1.8171  0.5498 -0.0443
 1894TIP3   OH227240   3.850   3.416   8.258 -0.2613 -0.1488 -0.3612
 1894TIP3    H127241   3.813   3.494   8.217  0.3078  0.9173  1.0546
 1894TIP3    H227242   3.892   3.449   8.338  0.4125 -1.8448  0.0254
 1895TIP3   OH227243   1.965   5.534   1.242  0.3198 -0.2684 -0.5301
 1895TIP3    H127244   2.053   5.562   1.267 -0.4937  0.8540  1.1605
 1895TIP3    H227245   1.918   5.523   1.324 -0.6301 -2.7039 -1.2878
 1896TIP3   OH227246   1.553   5.176   0.876 -0.1567  0.2877 -0.2775
 1896TIP3    H127247   1.607   5.133   0.942  0.2814  1.7388  0.3573
 1896TIP3    H227248   1.615   5.206   0.810 -0.1995  1.5285  0.2068
 1897TIP3   OH227249   1.082   0.529   0.315 -0.1488  0.0404  0.1609
 1897TIP3    H127250   1.117   0.549   0.228 -0.7684  0.7538  0.0667
 1897TIP3    H227251   1.001   0.580   0.321  0.5441  1.0153  1.6717
 1898TIP3   OH227252   2.844   1.049   0.106  0.2366 -0.3133 -0.1432
 1898TIP3    H127253   2.834   0.969   0.157 -3.3687  0.1238  0.0920
 1898TIP3    H227254   2.825   1.120   0.168 -0.3195  0.4559 -1.1560
 1899TIP3   OH227255   5.809   4.802   1.039 -0.1617 -0.0919 -0.2222
 1899TIP3    H127256   5.854   4.833   1.118 -1.9064  0.0558  0.7531
 1899TIP3    H227257   5.804   4.880   0.982  0.4546 -0.0191 -0.1829
 1900TIP3   OH227258   0.819   0.314   1.067 -0.4141  0.1611 -0.4379
 1900TIP3    H127259   0.877   0.353   1.133 -1.2086  0.0513  0.3475
 1900TIP3    H227260   0.870   0.242   1.029 -0.1734 -0.1792  0.5049
 1901TIP3   OH227261   0.579   5.379   0.928  0.1497 -0.4452  0.2117
 1901TIP3    H127262   0.587   5.474   0.932 -0.8996 -0.3756  1.2535
 1901TIP3    H227263   0.570   5.359   0.835 -1.9305  0.7038  0.1175
 1902TIP3   OH227264   6.938   5.866   1.263  0.6289 -0.3585  0.1753
 1902TIP3    H127265   6.904   5.801   1.201  1.0959 -0.1410 -0.3158
 1902TIP3    H227266   6.907   5.836   1.348 -1.2088  0.0889 -0.2861
 1903TIP3   OH227267   4.590   6.186   1.425  0.4552  0.1143  0.1818
 1903TIP3    H127268   4.525   6.240   1.379  0.7653  0.0744 -0.3085
 1903TIP3    H227269   4.673   6.232   1.413  0.3276  0.8938  1.9725
 1904TIP3   OH227270   6.571   3.308   6.926 -0.1047 -0.6915 -0.4726
 1904TIP3    H127271   6.632   3.328   6.855  1.0790 -0.5489  0.5440
 1904TIP3    H227272   6.513   3.384   6.931  0.0971 -0.5040 -0.9932
 1905TIP3   OH227273   3.537   4.754   7.711  0.2577  0.2530 -0.7300
 1905TIP3    H127274   3.523   4.793   7.625 -1.5721 -1.2510 -1.1787
 1905TIP3    H227275   3.617   4.702   7.701 -0.1291 -0.1806 -1.6440
 1906TIP3   OH227276   5.190   0.347   7.316 -0.0319  0.1190 -0.5716
 1906TIP3    H127277   5.219   0.258   7.294  1.2311  0.5900 -0.9390
 1906TIP3    H227278   5.212   0.357   7.408 -2.2242 -0.6854  0.1002
 1907TIP3   OH227279   5.635   3.256   7.219  0.2035  0.2810  0.5495
 1907TIP3    H127280   5.605   3.254   7.310  0.5132  0.7285  0.6611
 1907TIP3    H227281   5.607   3.171   7.183 -0.2388  0.2483  0.9553
 1908TIP3   OH227282   5.051   3.939   2.686 -0.0647  0.2217  0.2249
 1908TIP3    H127283   5.077   4.030   2.694  0.7887 -0.1557  2.6372
 1908TIP3    H227284   4.963   3.942   2.649  0.0994  1.9761 -0.0895
 1909TIP3   OH227285   0.622   5.670   0.950  0.2760 -0.0934 -0.4020
 1909TIP3    H127286   0.632   5.726   1.026  1.6350  0.4707 -0.9671
 1909TIP3    H227287   0.703   5.682   0.900  0.1246 -1.7019 -1.1046
 1910TIP3   OH227288   5.120   2.945   7.733  0.2992  0.3706 -0.4610
 1910TIP3    H127289   5.154   2.856   7.723 -0.9181  0.1237 -2.8973
 1910TIP3    H227290   5.073   2.943   7.816  0.3892 -1.2159 -0.4252
 1911TIP3   OH227291   3.667   2.994   7.849  0.6511  0.3006 -0.5998
 1911TIP3    H127292   3.684   3.013   7.941  2.6483  3.3539 -1.4810
 1911TIP3    H227293   3.697   2.903   7.838  1.4506  0.2458  1.4934
 1912TIP3   OH227294   0.265   3.054   1.596  0.5095 -0.0193  0.7602
 1912TIP3    H127295   0.200   3.021   1.657  0.4920 -0.7286  0.3596
 1912TIP3    H227296   0.220   3.125   1.549 -0.1247 -0.7999  0.1691
 1913TIP3   OH227297   3.471   5.762   7.925  0.1034 -0.2462 -0.1521
 1913TIP3    H127298   3.535   5.720   7.867 -2.6239 -0.9208 -2.9044
 1913TIP3    H227299   3.468   5.853   7.896  1.2289  0.3327  1.3969
 1914TIP3   OH227300   5.405   0.874   8.482 -0.1868 -0.0690  0.2489
 1914TIP3    H127301   5.445   0.815   8.547 -0.1509  0.5471  0.7919
 1914TIP3    H227302   5.311   0.865   8.496 -0.1958 -0.3549  0.0100
 1915TIP3   OH227303   1.923   5.464   2.504  0.2351  0.0427  0.2939
 1915TIP3    H127304   1.894   5.533   2.445 -0.5093 -0.3818  0.1589
 1915TIP3    H227305   1.899   5.382   2.460 -0.2989 -0.2765  1.1481
 1916TIP3   OH227306   2.626   4.482   1.133 -0.2206  0.3133  0.1304
 1916TIP3    H127307   2.627   4.419   1.205  0.4197 -1.2963 -1.2261
 1916TIP3    H227308   2.717   4.511   1.125  0.1426 -1.1292 -1.3489
 1917TIP3   OH227309   6.328   6.115   0.365  0.1229  0.4118  0.3249
 1917TIP3    H127310   6.375   6.033   0.353  1.3539  0.7973  2.0827
 1917TIP3    H227311   6.297   6.111   0.456 -2.8664  0.3997 -0.5872
 1918TIP3   OH227312   0.017   4.503   1.887  0.6547  1.0542  0.3320
 1918TIP3    H127313  -0.022   4.568   1.945  1.4350  0.7316  1.2617
 1918TIP3    H227314  -0.050   4.436   1.877  0.5206  1.0993  0.9087
 1919TIP3   OH227315   6.575   5.061   1.608 -0.0361  0.3943  0.1899
 1919TIP3    H127316   6.514   4.988   1.617 -0.3711  0.6477  0.0120
 1919TIP3    H227317   6.659   5.026   1.638 -0.2463  0.0130  0.3428
 1920TIP3   OH227318   2.073   3.134   2.267 -0.1941  0.3751  0.1313
 1920TIP3    H127319   2.092   3.050   2.309 -3.7384 -0.0068  1.3120
 1920TIP3    H227320   2.053   3.112   2.176 -0.4939  0.0113  0.2840
 1921TIP3   OH227321   0.003   0.790   6.986  0.2196  0.4835  0.4072
 1921TIP3    H127322   0.036   0.842   6.913 -0.9732  0.9499  0.1681
 1921TIP3    H227323  -0.061   0.731   6.947  0.7230 -0.3860  0.8517
 1922TIP3   OH227324   2.319   2.788   1.017 -0.3502  0.2335  0.2631
 1922TIP3    H127325   2.337   2.880   1.033 -0.1013  0.0484  1.0784
 1922TIP3    H227326   2.376   2.764   0.944  2.0506 -0.0871  2.1129
 1923TIP3   OH227327   5.510   2.431   0.099 -0.2285 -0.1158 -0.1852
 1923TIP3    H127328   5.566   2.356   0.116  1.5934  1.2681  0.2228
 1923TIP3    H227329   5.469   2.413   0.014  2.8855 -0.0492 -1.8273
 1924TIP3   OH227330   3.631   2.086   1.822  0.1772 -0.2990 -0.2239
 1924TIP3    H127331   3.695   2.023   1.790  1.4560  0.1684  1.2892
 1924TIP3    H227332   3.681   2.143   1.880 -1.0031  1.8833 -1.2270
 1925TIP3   OH227333   3.082   3.531   0.069 -0.3720  1.2128 -0.2413
 1925TIP3    H127334   3.152   3.593   0.048  0.4120 -0.2048 -2.0725
 1925TIP3    H227335   3.110   3.490   0.150 -0.8444  3.0985  0.9454
 1926TIP3   OH227336   3.951   0.283   6.500 -0.0561  0.7448  0.7494
 1926TIP3    H127337   3.973   0.369   6.464 -0.5076  0.4602 -0.2393
 1926TIP3    H227338   3.865   0.262   6.464 -0.0946  0.0165  1.2304
 1927TIP3   OH227339   1.313   4.185   1.059  0.1870  0.5321 -0.4087
 1927TIP3    H127340   1.235   4.171   1.113  0.8792 -0.0006  0.4600
 1927TIP3    H227341   1.383   4.138   1.104  0.5597 -0.8914 -2.3399
 1928TIP3   OH227342   6.639   3.932   1.772  0.6911 -0.0114  0.1789
 1928TIP3    H127343   6.580   3.957   1.843  0.0913 -2.2947  0.5634
 1928TIP3    H227344   6.719   3.904   1.816  0.1219 -1.9690  0.0709
 1929TIP3   OH227345   3.333   6.867   2.117  0.2985 -0.2839  0.2897
 1929TIP3    H127346   3.245   6.886   2.085 -0.3391 -1.0631  1.5098
 1929TIP3    H227347   3.391   6.894   2.046 -0.8840  0.8174 -0.2853
 1930TIP3   OH227348   1.124   1.943   0.308  0.2135 -0.4379  0.3673
 1930TIP3    H127349   1.064   1.989   0.251  0.9226  0.8073  0.5927
 1930TIP3    H227350   1.211   1.973   0.281  0.5303  1.0288  2.7461
 1931TIP3   OH227351   1.789   3.877   6.852 -0.0867 -0.1361 -0.4238
 1931TIP3    H127352   1.862   3.821   6.878  0.0032 -0.3384 -1.0854
 1931TIP3    H227353   1.823   3.966   6.861 -0.0381 -0.1999  0.0687
 1932TIP3   OH227354   6.310   1.480   1.403  0.4903 -0.3982  0.3018
 1932TIP3    H127355   6.273   1.401   1.441 -0.4827  0.9870  2.4055
 1932TIP3    H227356   6.235   1.526   1.363  0.6206  0.5097  1.0642
 1933TIP3   OH227357   3.546   6.880   7.254 -0.9958  0.5031 -0.2763
 1933TIP3    H127358   3.602   6.811   7.216 -0.4871  0.9505 -0.3488
 1933TIP3    H227359   3.548   6.951   7.190 -1.6533  0.5276 -0.2782
 1934TIP3   OH227360   2.047   5.271   0.422  0.5979 -0.1262  0.4086
 1934TIP3    H127361   2.077   5.180   0.421 -2.6138 -1.3212 -0.7261
 1934TIP3    H227362   2.072   5.306   0.336  0.2374 -0.5483  0.1306
 1935TIP3   OH227363   1.321   6.403   0.222 -0.3761 -0.1606 -0.2427
 1935TIP3    H127364   1.340   6.484   0.270 -1.3519  1.1466 -1.9313
 1935TIP3    H227365   1.227   6.389   0.237 -0.0712 -1.4138  0.6167
 1936TIP3   OH227366   5.362   2.285   1.464  0.4794 -0.0537 -0.2883
 1936TIP3    H127367   5.307   2.221   1.509  0.7924 -0.6823 -0.7825
 1936TIP3    H227368   5.302   2.332   1.406  0.4542 -0.7523 -0.8450
 1937TIP3   OH227369   5.428   3.489   1.270 -0.2029  0.5761  0.7362
 1937TIP3    H127370   5.447   3.399   1.243 -1.4165  0.4831  0.0869
 1937TIP3    H227371   5.513   3.527   1.289  0.4385 -0.3491 -0.1634
 1938TIP3   OH227372   0.131   2.112   6.505  0.2215  0.0338  0.0704
 1938TIP3    H127373   0.144   2.040   6.566  0.7371 -0.9983 -1.2041
 1938TIP3    H227374   0.202   2.173   6.524  1.0127 -0.7854 -0.1711
 1939TIP3   OH227375   0.819   6.883   0.229  0.1009 -0.4805  0.1643
 1939TIP3    H127376   0.751   6.903   0.292  2.6652  1.3518  2.5601
 1939TIP3    H227377   0.836   6.965   0.184  1.4231 -0.6232  0.3559
 1940TIP3   OH227378   2.894   2.717   0.849  0.0549  0.0074  0.4441
 1940TIP3    H127379   2.962   2.760   0.901  0.4039 -0.9793  0.8374
 1940TIP3    H227380   2.904   2.755   0.761  2.6416 -1.6505 -0.1069
 1941TIP3   OH227381   0.158   5.191   1.675 -0.1942  0.1985  0.9015
 1941TIP3    H127382   0.220   5.148   1.735  0.0379  0.4945  0.8746
 1941TIP3    H227383   0.209   5.206   1.595 -1.5844 -4.2421 -1.1642
 1942TIP3   OH227384   6.178   0.043   1.039 -0.5778  0.9962  0.2053
 1942TIP3    H127385   6.201  -0.042   1.075  0.5752  1.5305  0.7591
 1942TIP3    H227386   6.161   0.026   0.946  0.7535  0.3391  0.0643
 1943TIP3   OH227387   0.880   3.665   1.261 -0.7039 -0.1075 -0.4956
 1943TIP3    H127388   0.898   3.693   1.172 -0.5039  0.4727 -0.2786
 1943TIP3    H227389   0.798   3.708   1.283 -1.4235 -1.2546 -0.8295
 1944TIP3   OH227390   3.163   4.052   7.491  0.2962  0.5178  0.2492
 1944TIP3    H127391   3.098   4.049   7.561 -0.2441  1.3291 -0.2086
 1944TIP3    H227392   3.247   4.065   7.537  0.1113 -0.1722  0.8120
 1945TIP3   OH227393   1.365   6.818   7.444  0.0442 -0.2190  0.1039
 1945TIP3    H127394   1.426   6.766   7.392 -0.5207 -0.2760 -0.5231
 1945TIP3    H227395   1.330   6.883   7.382 -1.4592 -0.9785  0.1105
 1946TIP3   OH227396   5.645   6.086   8.289  0.6094  0.0470 -0.4410
 1946TIP3    H127397   5.671   6.083   8.197  1.5160 -2.6801 -0.1970
 1946TIP3    H227398   5.685   6.166   8.322  1.7456  0.1907 -2.0324
 1947TIP3   OH227399   5.475   4.775   6.491  0.2993  0.1431 -0.5549
 1947TIP3    H127400   5.549   4.725   6.526  0.3435  0.6013  0.0178
 1947TIP3    H227401   5.498   4.866   6.506 -0.4146  0.2901 -0.3056
 1948TIP3   OH227402   5.956   1.432   0.392 -0.3543 -0.3937  0.0654
 1948TIP3    H127403   6.044   1.467   0.380 -0.2402 -0.6720  0.0690
 1948TIP3    H227404   5.936   1.447   0.484 -0.6111  0.3460 -0.1088
 1949TIP3   OH227405   5.441   5.437   6.778 -0.1087  0.3925  0.2657
 1949TIP3    H127406   5.436   5.435   6.873  1.3701  0.3308  0.3657
 1949TIP3    H227407   5.384   5.509   6.752  0.4138  1.1962  1.2808
 1950TIP3   OH227408   6.910   1.387   1.643 -0.2453  0.4602  0.5893
 1950TIP3    H127409   6.816   1.377   1.655 -0.3380  0.6356  0.0212
 1950TIP3    H227410   6.941   1.299   1.624 -0.3530  0.4638  0.3938
 1951TIP3   OH227411   2.664   5.754   1.638 -0.0243  0.3229 -0.2785
 1951TIP3    H127412   2.608   5.683   1.607 -1.9908  0.6902  2.0872
 1951TIP3    H227413   2.604   5.821   1.668  1.7533  1.7954  0.1807
 1952TIP3   OH227414   0.325   3.444   8.455  0.4424  0.3647 -0.1710
 1952TIP3    H127415   0.252   3.442   8.516  0.5464  1.0981 -0.0065
 1952TIP3    H227416   0.392   3.496   8.499  1.6427 -1.4896  0.3006
 1953TIP3   OH227417   0.199   4.678   1.987  0.2810  0.6920  0.1703
 1953TIP3    H127418   0.135   4.746   1.968  0.2974  1.6860  3.0972
 1953TIP3    H227419   0.278   4.726   2.013  1.0721 -0.4787  0.0118
 1954TIP3   OH227420   1.586   0.632   8.482 -0.0908  0.1905  0.1790
 1954TIP3    H127421   1.598   0.568   8.412 -2.9438 -1.0180  0.7005
 1954TIP3    H227422   1.657   0.613   8.544  1.0975 -0.2066 -1.2357
 1955TIP3   OH227423   5.323   2.651   7.224  0.5874  0.2760 -0.2845
 1955TIP3    H127424   5.361   2.646   7.312 -2.6104 -0.4174  1.2036
 1955TIP3    H227425   5.390   2.613   7.167  2.0380 -1.0280  2.1153
 1956TIP3   OH227426   6.832   3.149   0.447 -0.4059  0.1006 -0.4803
 1956TIP3    H127427   6.841   3.152   0.542 -0.5599  0.5235 -0.4767
 1956TIP3    H227428   6.902   3.207   0.415 -2.1241  2.2935 -0.5089
 1957TIP3   OH227429   1.131   4.477   7.543 -0.7430 -0.6602 -0.5606
 1957TIP3    H127430   1.147   4.388   7.511 -0.6877 -0.6620 -0.5275
 1957TIP3    H227431   1.200   4.492   7.608  0.0752 -0.1026 -1.5256
 1958TIP3   OH227432   2.577   2.390   1.483  0.3999 -0.0905  0.0031
 1958TIP3    H127433   2.655   2.418   1.436 -0.4627  4.2512  0.7270
 1958TIP3    H227434   2.597   2.404   1.575 -0.3598 -1.5326  0.4204
 1959TIP3   OH227435   3.090   4.364   0.827 -1.4161  0.1957 -0.3256
 1959TIP3    H127436   3.086   4.307   0.903  0.4806  1.5974  0.9198
 1959TIP3    H227437   3.181   4.357   0.796 -1.8467  0.5292 -1.7782
 1960TIP3   OH227438   6.831   5.934   0.070  0.0853  0.2045 -0.4106
 1960TIP3    H127439   6.796   5.868   0.129  0.8790  1.2919  1.3673
 1960TIP3    H227440   6.923   5.943   0.096 -0.1121  2.2988 -0.2950
 1961TIP3   OH227441   4.413   1.299   2.197 -0.1119  0.7036 -0.4420
 1961TIP3    H127442   4.380   1.306   2.286  0.3340  1.4142 -0.3183
 1961TIP3    H227443   4.406   1.207   2.175 -0.9985  0.6528  0.0306
 1962TIP3   OH227444   1.670   5.026   1.649 -0.2911  0.9428 -1.3285
 1962TIP3    H127445   1.680   5.099   1.710  1.2386  0.9996 -1.6199
 1962TIP3    H227446   1.705   5.057   1.566  1.1907 -0.3685 -1.2425
 1963TIP3   OH227447   1.623   3.942   1.315 -0.5226 -0.4352  0.1788
 1963TIP3    H127448   1.529   3.957   1.310 -1.0736 -3.0512  1.4449
 1963TIP3    H227449   1.653   3.998   1.387 -1.9204 -2.5890  2.5982
 1964TIP3   OH227450   4.315   1.204   0.510 -0.0851  0.0200 -0.4246
 1964TIP3    H127451   4.379   1.275   0.514  1.7880 -1.4843 -1.6352
 1964TIP3    H227452   4.306   1.187   0.416  0.5377 -2.1608 -0.1356
 1965TIP3   OH227453   4.515   3.043   8.310  0.3551  0.0223  0.1070
 1965TIP3    H127454   4.496   3.135   8.328  0.3918 -0.2757  1.7519
 1965TIP3    H227455   4.440   3.013   8.259 -0.2835  0.6354  0.6619
 1966TIP3   OH227456   6.438   4.596   8.424  0.1663 -0.0232 -0.2516
 1966TIP3    H127457   6.499   4.640   8.483 -0.2100 -0.2906  0.3506
 1966TIP3    H227458   6.368   4.660   8.409 -1.0495 -0.8237  1.6680
 1967TIP3   OH227459   4.416   5.593   7.783  0.1253  0.6063 -0.4539
 1967TIP3    H127460   4.365   5.674   7.790  0.9343  1.0214  1.0351
 1967TIP3    H227461   4.357   5.525   7.817 -0.6938  0.4650 -2.0550
 1968TIP3   OH227462   2.232   5.901   1.537 -0.0792  0.5408 -0.3227
 1968TIP3    H127463   2.211   5.992   1.515 -0.1276  0.9514  1.3346
 1968TIP3    H227464   2.308   5.880   1.482 -0.0044  1.5989 -0.6458
 1969TIP3   OH227465   4.622   4.798   7.446  0.4680 -0.0399  0.0552
 1969TIP3    H127466   4.716   4.785   7.433  0.0631 -2.2644 -1.1487
 1969TIP3    H227467   4.599   4.736   7.515 -0.0683  0.7572  0.6003
 1970TIP3   OH227468   2.296   5.567   0.690  0.4813 -0.6950  0.3475
 1970TIP3    H127469   2.373   5.513   0.675 -0.5090 -2.3761  1.0968
 1970TIP3    H227470   2.267   5.594   0.603 -0.9531 -4.2340 -0.4333
 1971TIP3   OH227471   3.328   6.825   7.667 -0.7421  0.1494 -0.0250
 1971TIP3    H127472   3.386   6.879   7.719  0.1175 -1.7016  1.0474
 1971TIP3    H227473   3.322   6.870   7.583  2.2028  0.4684 -0.1559
 1972TIP3   OH227474   1.815   1.268   7.755  0.4890 -0.3770 -0.6299
 1972TIP3    H127475   1.892   1.229   7.715  0.6128 -1.0875  0.2599
 1972TIP3    H227476   1.755   1.195   7.767  0.6252 -0.2812  0.8236
 1973TIP3   OH227477   1.396   6.885   8.414 -0.4982 -0.1463  0.4435
 1973TIP3    H127478   1.400   6.841   8.329 -3.3624  0.1664  0.0482
 1973TIP3    H227479   1.384   6.815   8.477 -1.0360 -0.2197  0.2663
 1974TIP3   OH227480   0.931   6.173   8.456  0.1828  0.0205 -0.3858
 1974TIP3    H127481   0.926   6.267   8.475 -1.6672  0.0004 -0.5942
 1974TIP3    H227482   0.972   6.168   8.370  1.3299  0.5571  0.1076
 1975TIP3   OH227483   4.751   3.273   0.166  0.0389  0.3640  0.1985
 1975TIP3    H127484   4.700   3.343   0.206  0.7721  2.1145 -1.7940
 1975TIP3    H227485   4.758   3.207   0.235 -0.0828  2.5288  2.4329
 1976TIP3   OH227486   3.435   4.676   6.973  0.4971  0.4459  0.1136
 1976TIP3    H127487   3.476   4.591   6.987 -0.4972 -0.1236 -0.3702
 1976TIP3    H227488   3.435   4.688   6.878  0.2235  0.7891  0.1539
 1977TIP3   OH227489   0.975   5.239   7.796  0.0146 -0.3772 -0.5937
 1977TIP3    H127490   0.908   5.211   7.859  0.0072  0.3332 -0.2762
 1977TIP3    H227491   0.968   5.334   7.795  1.3678 -0.2441 -0.1674
 1978TIP3   OH227492   3.185   0.508   8.120  0.1172 -0.0594  0.1080
 1978TIP3    H127493   3.191   0.603   8.134 -1.2766  0.1923 -0.8746
 1978TIP3    H227494   3.163   0.473   8.206 -1.2862  0.7204  0.0940
 1979TIP3   OH227495   2.560   6.228   8.486  0.4700  0.5933  0.4374
 1979TIP3    H127496   2.472   6.191   8.476  0.2351  1.5001 -1.1449
 1979TIP3    H227497   2.616   6.175   8.429  0.9410  0.1303  1.3038
 1980TIP3   OH227498   0.892   4.213   8.514  0.0560 -0.1047  0.4202
 1980TIP3    H127499   0.813   4.259   8.485  0.0824 -0.9318 -1.0987
 1980TIP3    H227500   0.961   4.248   8.458  1.1088  1.5557  2.5823
 1981TIP3   OH227501   0.570   4.459   1.701 -0.2440 -0.3673 -0.3631
 1981TIP3    H127502   0.476   4.468   1.719 -0.0465 -1.0984  1.2444
 1981TIP3    H227503   0.574   4.423   1.612 -1.5599 -1.7999  0.1014
 1982TIP3   OH227504   1.640   4.346   8.400  0.3532  0.0517  0.1330
 1982TIP3    H127505   1.571   4.412   8.397 -0.9686 -1.1001  2.5255
 1982TIP3    H227506   1.594   4.263   8.405  1.9810 -0.9735 -0.8178
 1983TIP3   OH227507   1.666   3.240   7.646 -0.2064 -0.1687  0.1832
 1983TIP3    H127508   1.625   3.215   7.729 -0.0184  0.0570  0.3435
 1983TIP3    H227509   1.601   3.216   7.579 -1.1429  1.3234  0.5095
 1984TIP3   OH227510   0.683   6.934   0.458  0.2699 -0.2167  0.1616
 1984TIP3    H127511   0.621   7.006   0.449  0.2659 -0.2375  0.0169
 1984TIP3    H227512   0.638   6.870   0.513 -0.0152 -0.4271 -0.3061
 1985TIP3   OH227513   0.543   0.097   1.825  0.7262 -0.3328  0.7082
 1985TIP3    H127514   0.521   0.126   1.914  0.7081  0.9469  0.3035
 1985TIP3    H227515   0.636   0.072   1.831  1.3368  1.7137  0.6533
 1986TIP3   OH227516   6.056   3.865   0.278  0.3301 -0.2346  0.0331
 1986TIP3    H127517   5.987   3.840   0.339  2.4676 -1.0356  2.2700
 1986TIP3    H227518   6.129   3.806   0.298  1.9778  1.1110 -1.6306
 1987TIP3   OH227519   6.118   2.947   1.211  0.5027  0.5320  0.0213
 1987TIP3    H127520   6.162   2.946   1.126  0.2990  1.6116 -0.1131
 1987TIP3    H227521   6.183   2.982   1.271  1.4402 -2.3557  0.8143
 1988TIP3   OH227522   5.195   5.408   0.913  0.2897  0.4988 -0.0337
 1988TIP3    H127523   5.129   5.341   0.893 -0.9811  1.7707 -0.2767
 1988TIP3    H227524   5.223   5.440   0.828  1.9330 -0.6295  0.0275
 1989TIP3   OH227525   3.876   3.947   1.980 -0.2213  0.2103  0.2555
 1989TIP3    H127526   3.932   3.936   1.902  0.6225  2.9100  0.3462
 1989TIP3    H227527   3.904   3.878   2.040  1.1944 -0.1359 -0.7478
 1990TIP3   OH227528   0.231   2.549   1.401  0.1246 -0.7022  0.6007
 1990TIP3    H127529   0.191   2.564   1.487 -1.0796 -2.5123  0.4148
 1990TIP3    H227530   0.173   2.593   1.339  0.1922 -0.6320  0.5865
 1991TIP3   OH227531   0.007   6.596   0.851 -0.0205 -0.3733  0.0674
 1991TIP3    H127532   0.005   6.631   0.940 -2.0761  0.8303 -0.3728
 1991TIP3    H227533   0.054   6.662   0.800  0.4406 -0.6657  0.1118
 1992TIP3   OH227534   4.380   5.974   8.398  0.0281  0.0448 -0.2658
 1992TIP3    H127535   4.300   5.959   8.347 -0.3128  1.2626 -0.1302
 1992TIP3    H227536   4.349   6.019   8.477  0.7600 -0.2244  0.1796
 1993TIP3   OH227537   5.602   1.622   6.787 -0.0269 -0.2096 -0.1537
 1993TIP3    H127538   5.641   1.553   6.841 -2.3467 -2.2665 -0.8793
 1993TIP3    H227539   5.626   1.704   6.830  1.8809 -1.5131  1.4352
 1994TIP3   OH227540   5.123   6.657   0.793 -0.0989 -0.3514 -0.7993
 1994TIP3    H127541   5.167   6.702   0.865  0.0063  0.4500 -1.3435
 1994TIP3    H227542   5.051   6.715   0.769 -1.8780 -1.9319  0.4753
 1995TIP3   OH227543   1.992   3.176   0.542  0.4653  0.3107  0.0716
 1995TIP3    H127544   2.018   3.263   0.570  0.3111  0.4495 -0.2063
 1995TIP3    H227545   1.897   3.174   0.554  0.7463 -0.7493  2.6093
 1996TIP3   OH227546   4.502   3.858   1.780 -0.5451  0.3853 -0.6592
 1996TIP3    H127547   4.541   3.881   1.864 -0.1817  0.6822 -0.9117
 1996TIP3    H227548   4.460   3.773   1.796 -1.1635  0.8074  0.0354
 1997TIP3   OH227549   5.763   4.689   6.641 -0.3624 -0.1478  0.0158
 1997TIP3    H127550   5.723   4.670   6.726  1.2561  2.0758  1.3986
 1997TIP3    H227551   5.847   4.643   6.643 -0.8503 -1.1105 -0.9498
 1998TIP3   OH227552   4.795   1.371   7.654  0.4945  0.7732 -0.1313
 1998TIP3    H127553   4.809   1.277   7.664 -0.0676  0.7553  0.5146
 1998TIP3    H227554   4.701   1.380   7.636  0.6145  1.1860 -0.5930
 1999TIP3   OH227555   4.007   3.738   7.060  0.0750  0.1433 -0.6266
 1999TIP3    H127556   4.086   3.702   7.019 -0.0700 -1.9432  0.7519
 1999TIP3    H227557   3.966   3.791   6.992  1.5874 -0.4165 -2.0349
 2000TIP3   OH227558   0.296   3.788   6.785  0.1811  0.3080 -0.4514
 2000TIP3    H127559   0.346   3.824   6.713  0.6972 -0.9677 -0.7560
 2000TIP3    H227560   0.335   3.826   6.864  0.6229  0.5099 -0.7666
 2001TIP3   OH227561   1.467   3.959   7.574 -0.6040  0.4496 -0.7702
 2001TIP3    H127562   1.537   3.977   7.511 -0.1081  2.5486  0.2995
 2001TIP3    H227563   1.438   3.870   7.552  1.0833  0.2438 -2.4640
 2002TIP3   OH227564   3.033   4.872   0.958 -0.0372 -0.3256 -0.5460
 2002TIP3    H127565   3.093   4.925   1.009  1.1699 -1.5510 -0.6324
 2002TIP3    H227566   2.949   4.878   1.004  0.6343 -0.1222  0.6718
 2003TIP3   OH227567   3.960   6.613   1.043  0.1791 -0.0619  0.0784
 2003TIP3    H127568   3.924   6.536   0.999  0.2594  0.4392 -0.8926
 2003TIP3    H227569   3.898   6.632   1.113 -1.5409  0.8271 -1.5878
 2004TIP3   OH227570   1.858   5.617   6.882  0.1721 -0.2532  0.1037
 2004TIP3    H127571   1.909   5.546   6.921 -1.4178 -1.2143  0.5341
 2004TIP3    H227572   1.832   5.584   6.796  2.6646  1.3915 -1.4055
 2005TIP3   OH227573   1.149   1.763   6.438  0.0537  0.1366  0.2604
 2005TIP3    H127574   1.209   1.772   6.364  1.0319  0.2564  1.0417
 2005TIP3    H227575   1.130   1.669   6.443 -1.1404  0.2943 -0.9859
 2006TIP3   OH227576   2.935   5.764   0.542  0.8871  0.3439 -0.2996
 2006TIP3    H127577   2.873   5.701   0.506  0.0058  0.2957  1.2317
 2006TIP3    H227578   2.889   5.848   0.540  1.0840  0.4623  0.0800
 2007TIP3   OH227579   4.043   0.256   2.542  0.4047  0.1448  0.1306
 2007TIP3    H127580   4.038   0.276   2.635 -0.4185  1.6684 -0.1979
 2007TIP3    H227581   4.136   0.261   2.521  0.5055  0.7662  0.6969
 2008TIP3   OH227582   4.294   6.334   2.038 -0.2028  0.0093  0.6554
 2008TIP3    H127583   4.344   6.321   2.118 -0.7688 -1.4167  0.8149
 2008TIP3    H227584   4.203   6.341   2.068 -0.1710  2.3623  0.3585
 2009TIP3   OH227585   2.443   2.579   0.411  0.3288  0.0382  0.0781
 2009TIP3    H127586   2.405   2.583   0.499  0.4325  1.4357  0.0849
 2009TIP3    H227587   2.399   2.506   0.369 -0.2817 -0.1631  1.0398
 2010TIP3   OH227588   6.498   2.829   7.278 -0.6520  0.2957 -0.2334
 2010TIP3    H127589   6.545   2.747   7.292 -1.5980 -0.5310 -1.6213
 2010TIP3    H227590   6.521   2.855   7.189 -0.9054  1.1846 -0.0497
 2011TIP3   OH227591   0.859   0.298   1.802  0.2237  0.2085  0.1072
 2011TIP3    H127592   0.848   0.265   1.891  1.6362 -0.9543 -0.1073
 2011TIP3    H227593   0.770   0.314   1.771 -0.3727 -0.8621  1.1864
 2012TIP3   OH227594   3.048   2.365   1.821 -0.5771 -0.1814  0.6299
 2012TIP3    H127595   3.029   2.277   1.854 -2.9250  0.0557  0.0709
 2012TIP3    H227596   3.014   2.364   1.731  0.5861  0.9086  0.1488
 2013TIP3   OH227597   6.430   3.049   0.979 -0.4328  0.0974  0.7435
 2013TIP3    H127598   6.397   2.959   0.972  0.6927 -0.2184 -1.1408
 2013TIP3    H227599   6.381   3.098   0.913 -0.4596  0.6884  1.1935
 2014TIP3   OH227600   0.105   4.916   8.446  0.4222 -0.0326  0.3615
 2014TIP3    H127601   0.131   4.829   8.477  2.8657  0.6890  0.5210
 2014TIP3    H227602   0.072   4.901   8.358  1.3288 -1.0746  0.1722
 2015TIP3   OH227603   6.723   0.125   0.042  0.2513 -0.1611 -0.0459
 2015TIP3    H127604   6.748   0.193   0.104  0.4616  2.0255 -2.3708
 2015TIP3    H227605   6.632   0.144   0.020  0.4072 -0.4155 -0.9655
 2016TIP3   OH227606   2.555   2.099   1.502 -0.0718  0.2846  0.1439
 2016TIP3    H127607   2.468   2.099   1.463 -0.2483  1.9768  0.4346
 2016TIP3    H227608   2.548   2.161   1.575  0.9606 -0.7839  1.1842
 2017TIP3   OH227609   0.853   0.548   7.667  0.1514 -0.2386  0.3377
 2017TIP3    H127610   0.916   0.603   7.715  1.5362 -1.3475 -0.1366
 2017TIP3    H227611   0.908   0.495   7.609 -1.3598 -0.0618 -1.3176
 2018TIP3   OH227612   3.745   2.298   7.961 -0.3673  0.0454  0.1917
 2018TIP3    H127613   3.735   2.385   8.000  0.1004 -0.2692  1.0436
 2018TIP3    H227614   3.839   2.287   7.950 -0.4010 -0.4794  0.3984
 2019TIP3   OH227615   6.943   0.189   2.865 -0.4190  0.1287  0.6906
 2019TIP3    H127616   6.885   0.115   2.850 -1.2558  0.5352  1.8527
 2019TIP3    H227617   6.980   0.174   2.952 -0.6835  1.1135  0.9897
 2020TIP3   OH227618   4.686   1.798   6.543  0.0952 -0.0249  0.4547
 2020TIP3    H127619   4.778   1.777   6.560  0.5953 -0.0480 -1.9495
 2020TIP3    H227620   4.688   1.888   6.511 -0.2866 -0.8864 -2.2562
 2021TIP3   OH227621   2.966   3.746   1.643 -0.3440 -0.4214 -0.2733
 2021TIP3    H127622   2.977   3.796   1.562  0.0994  0.2582  0.1909
 2021TIP3    H227623   2.975   3.811   1.713 -3.6740 -0.3813  0.3160
 2022TIP3   OH227624   1.295   6.912   7.926  0.1048 -0.0752  0.0133
 2022TIP3    H127625   1.278   6.863   8.006  0.4676 -1.7568 -0.8794
 2022TIP3    H227626   1.329   6.996   7.955 -0.4489 -0.3737  1.6199
 2023TIP3   OH227627   0.438   6.296   1.039  0.5230 -0.0733 -0.5139
 2023TIP3    H127628   0.431   6.334   1.127 -0.0290 -1.5426  0.0975
 2023TIP3    H227629   0.359   6.327   0.994  0.1415 -0.3742 -0.0616
 2024TIP3   OH227630   0.559   1.824   1.007 -0.0050  0.4842 -0.0491
 2024TIP3    H127631   0.596   1.746   0.965  0.6951  0.6687  0.2188
 2024TIP3    H227632   0.562   1.804   1.100 -0.7005  0.4548 -0.0271
 2025TIP3   OH227633   6.690   1.879   1.172  0.1409  0.0342 -0.5151
 2025TIP3    H127634   6.767   1.861   1.118  0.4430  0.5710 -0.2759
 2025TIP3    H227635   6.632   1.929   1.114  0.2731  0.2297 -0.4788
 2026TIP3   OH227636   2.017   2.992   6.761  0.4674  0.3282 -0.2179
 2026TIP3    H127637   1.997   2.937   6.685  0.2574 -1.3891  1.0332
 2026TIP3    H227638   1.944   3.055   6.764  0.1519  0.0231 -1.0731
 2027TIP3   OH227639   0.225   0.403   1.087 -0.3988 -0.1794 -0.4113
 2027TIP3    H127640   0.278   0.481   1.105 -2.0444  0.9120 -0.1296
 2027TIP3    H227641   0.249   0.378   0.998  0.6118  0.2542 -0.2774
 2028TIP3   OH227642   1.399   6.512   8.000 -0.6042  0.3810 -0.2320
 2028TIP3    H127643   1.329   6.461   8.041  1.7500 -1.8222  1.3881
 2028TIP3    H227644   1.455   6.539   8.073  1.0278  0.7948 -1.5791
 2029TIP3   OH227645   5.307   3.585   0.366 -0.0277 -0.0170 -0.1065
 2029TIP3    H127646   5.348   3.600   0.280 -2.4371 -1.2503 -1.5624
 2029TIP3    H227647   5.231   3.643   0.367 -0.3540 -0.4435  0.9663
 2030TIP3   OH227648   3.000   1.878   0.546 -0.2417  0.2090 -0.2191
 2030TIP3    H127649   3.073   1.934   0.521  0.2328 -0.4255 -0.2671
 2030TIP3    H227650   2.958   1.855   0.463  0.9063 -1.3158 -0.4044
 2031TIP3   OH227651   6.935   3.687   8.092  0.0553  0.6285  0.3944
 2031TIP3    H127652   6.942   3.622   8.022  1.8002 -1.4235  2.3159
 2031TIP3    H227653   7.016   3.738   8.085 -0.0232  0.7768  0.5780
 2032TIP3   OH227654   6.382   5.042   1.999  0.2854 -0.4726 -0.6599
 2032TIP3    H127655   6.405   4.976   2.063  1.8115 -0.6312 -1.3223
 2032TIP3    H227656   6.287   5.046   2.001  0.2806 -0.7882  1.2644
 2033TIP3   OH227657   5.865   0.390   1.831  0.2020  0.1653 -0.3089
 2033TIP3    H127658   5.772   0.382   1.852  0.3660 -1.2561 -0.0324
 2033TIP3    H227659   5.909   0.394   1.916  0.4913 -0.6769 -0.4029
 2034TIP3   OH227660   3.924   4.578   0.896 -0.0057  0.0814  0.6248
 2034TIP3    H127661   4.006   4.533   0.874  0.4736  1.0883  0.2662
 2034TIP3    H227662   3.935   4.666   0.858 -2.0568 -0.3543 -1.1615
 2035TIP3   OH227663   0.595   1.694   1.612 -0.3626 -0.0329 -0.1166
 2035TIP3    H127664   0.682   1.734   1.619 -1.3247  1.9247  2.7602
 2035TIP3    H227665   0.601   1.614   1.665 -0.5133  0.6099  0.9027
 2036TIP3   OH227666   2.806   3.285   7.498  0.2654 -0.3898  0.0664
 2036TIP3    H127667   2.833   3.270   7.408  0.3334 -0.9130  0.1698
 2036TIP3    H227668   2.879   3.255   7.551 -0.6446 -2.2450  0.3609
 2037TIP3   OH227669   0.950   3.599   8.046  0.3409  0.2561  0.2174
 2037TIP3    H127670   0.936   3.657   7.971  0.2847 -0.5009 -0.3601
 2037TIP3    H227671   0.862   3.580   8.078  0.3413  0.1374  0.1445
 2038TIP3   OH227672   5.529   5.167   6.933  0.5864 -0.2942  0.1345
 2038TIP3    H127673   5.462   5.111   6.973 -0.6135  0.9027 -0.1139
 2038TIP3    H227674   5.576   5.205   7.007  0.3316 -0.3723  0.3358
 2039TIP3   OH227675   2.770   4.358   1.753  0.0223  0.4007  0.1811
 2039TIP3    H127676   2.675   4.345   1.759 -0.1785  1.6029 -0.2094
 2039TIP3    H227677   2.788   4.428   1.816  0.8905 -0.8060  1.3370
 2040TIP3   OH227678   4.570   5.241   2.308  0.6689  0.0484 -0.2954
 2040TIP3    H127679   4.539   5.294   2.235  2.0682 -0.4911 -1.3312
 2040TIP3    H227680   4.505   5.171   2.316 -0.1221  0.7682 -0.2240
 2041TIP3   OH227681   2.473   1.308   7.255  0.7418 -0.7698 -0.1444
 2041TIP3    H127682   2.515   1.362   7.188  1.0608  0.2512  0.8452
 2041TIP3    H227683   2.398   1.361   7.284  0.0901 -1.5907 -0.3156
 2042TIP3   OH227684   6.233   2.430   8.421  0.0534 -0.2501 -0.2667
 2042TIP3    H127685   6.306   2.491   8.413 -0.1741  0.5833  2.7590
 2042TIP3    H227686   6.159   2.476   8.381  0.0944  1.1292  1.1458
 2043TIP3   OH227687   5.045   3.511   6.663 -0.1131 -0.0882 -0.4735
 2043TIP3    H127688   4.973   3.453   6.689 -1.7637  1.0845 -2.0982
 2043TIP3    H227689   5.070   3.480   6.576  1.0359 -0.1720 -0.1264
 2044TIP3   OH227690   3.909   0.736   8.513  0.2496 -0.3428  0.0576
 2044TIP3    H127691   3.874   0.722   8.425  1.7551  1.5959 -0.9373
 2044TIP3    H227692   3.959   0.657   8.532  0.6604 -0.4173 -1.2381
 2045TIP3   OH227693   1.760   5.507   1.049 -0.3273 -0.0169 -0.6426
 2045TIP3    H127694   1.688   5.565   1.071 -1.4064 -1.4320 -0.2643
 2045TIP3    H227695   1.827   5.524   1.116 -1.5904 -0.8279  0.8982
 2046TIP3   OH227696   5.554   2.405   7.310  0.6999 -0.8988  0.1343
 2046TIP3    H127697   5.535   2.454   7.230 -1.6534 -1.1437  0.4649
 2046TIP3    H227698   5.621   2.342   7.285  0.5332 -0.4841 -1.4564
 2047TIP3   OH227699   5.938   1.098   8.013  0.7434  0.1841 -0.2013
 2047TIP3    H127700   5.890   1.115   7.932  1.6005 -1.7152 -1.1781
 2047TIP3    H227701   5.892   1.149   8.079 -2.3473 -1.0811 -1.1613
 2048TIP3   OH227702   3.704   3.044   1.581  0.2464 -0.0933  0.5661
 2048TIP3    H127703   3.610   3.047   1.563 -0.0640 -2.7997  1.3375
 2048TIP3    H227704   3.739   3.121   1.536 -2.0640 -0.0586 -1.3927
 2049TIP3   OH227705   0.915   6.777   1.162 -0.7253  0.1117  0.1663
 2049TIP3    H127706   0.850   6.846   1.149 -0.1155  0.3721 -1.8873
 2049TIP3    H227707   0.997   6.823   1.179  0.3125  0.1739 -4.0263
 2050TIP3   OH227708   6.931   5.527   1.736  0.5899  0.0869  0.5902
 2050TIP3    H127709   6.968   5.586   1.802  0.1035 -2.4103  3.3484
 2050TIP3    H227710   6.836   5.542   1.742  0.5680  0.1663  0.0915
 2051TIP3   OH227711   4.824   2.137   0.848 -0.4129  0.1796 -0.0563
 2051TIP3    H127712   4.799   2.051   0.814  1.9230 -1.4423  1.9834
 2051TIP3    H227713   4.841   2.122   0.941 -1.3673  3.2246  0.7133
 2052TIP3   OH227714   5.953   4.561   0.355  0.3306 -0.4507 -0.7406
 2052TIP3    H127715   5.993   4.541   0.440 -1.5207 -3.0930 -0.3617
 2052TIP3    H227716   5.862   4.582   0.376  0.5412  1.8834 -1.8694
 2053TIP3   OH227717   1.427   1.732   7.146  0.5422 -0.2423  0.7747
 2053TIP3    H127718   1.421   1.657   7.087 -3.7131  2.8464 -3.4291
 2053TIP3    H227719   1.485   1.794   7.101  1.3426  0.3403  2.5134
 2054TIP3   OH227720   1.081   5.153   0.034  0.4233 -0.3665  0.7955
 2054TIP3    H127721   1.174   5.150   0.059  0.4576 -0.5030  0.6519
 2054TIP3    H227722   1.069   5.241  -0.001  0.4711 -0.3090  0.9204
 2055TIP3   OH227723   6.170   5.928   1.788  0.1842  0.4229 -0.0792
 2055TIP3    H127724   6.186   6.022   1.796  0.4128  0.3405  0.5194
 2055TIP3    H227725   6.258   5.889   1.786  0.0934  0.1350  0.9505
 2056TIP3   OH227726   1.183   4.267   0.211  0.3377  0.0328 -0.2410
 2056TIP3    H127727   1.258   4.286   0.267  2.1272 -2.3539 -1.6332
 2056TIP3    H227728   1.212   4.293   0.123  0.1853 -2.2617 -1.0344
 2057TIP3   OH227729   0.658   6.782   1.468 -0.5593 -0.1208  0.8936
 2057TIP3    H127730   0.687   6.873   1.475 -0.3994 -0.0156 -0.6930
 2057TIP3    H227731   0.649   6.753   1.559  0.2541  1.1966  1.4376
 2058TIP3   OH227732   4.879   2.371   6.863  0.1901 -0.4938  0.1376
 2058TIP3    H127733   4.917   2.459   6.865 -0.3941 -0.1145 -2.1892
 2058TIP3    H227734   4.800   2.377   6.916  0.4130  0.2365  0.3939
 2059TIP3   OH227735   6.290   0.393   6.751 -0.4260  0.2021 -0.6201
 2059TIP3    H127736   6.324   0.422   6.836 -0.1885  0.4465 -0.7977
 2059TIP3    H227737   6.195   0.398   6.760 -0.4662 -1.1652  0.1281
 2060TIP3   OH227738   1.025   3.545   7.702  0.2202 -0.3161  0.5284
 2060TIP3    H127739   1.055   3.630   7.734  0.6724 -0.1611 -0.2826
 2060TIP3    H227740   0.930   3.549   7.712  0.1585  0.5924 -0.1886
 2061TIP3   OH227741   0.932   3.924   1.951 -0.2205 -0.1740 -0.6238
 2061TIP3    H127742   0.968   3.999   1.999 -0.9521  0.1422 -0.5548
 2061TIP3    H227743   0.851   3.903   1.997 -0.0748 -0.9446 -0.7107
 2062TIP3   OH227744   5.382   0.510   1.585 -0.0628  0.8907 -0.0032
 2062TIP3    H127745   5.332   0.589   1.606  0.0049  0.6717  1.0754
 2062TIP3    H227746   5.448   0.539   1.523 -1.7683  1.1030 -1.8226
 2063TIP3   OH227747   2.194   5.767   2.624 -0.3439 -0.7435  0.5932
 2063TIP3    H127748   2.225   5.721   2.702 -0.1500  1.0268  1.6117
 2063TIP3    H227749   2.196   5.859   2.648 -1.2662 -0.2142 -1.1778
 2064TIP3   OH227750   6.225   5.525   0.116 -0.0922 -0.4415  0.2214
 2064TIP3    H127751   6.294   5.478   0.162 -0.0663 -1.6733 -1.0213
 2064TIP3    H227752   6.254   5.617   0.117  0.9110 -0.7514  0.8248
 2065TIP3   OH227753   4.602   1.902   1.069  0.3786  0.4712 -0.4306
 2065TIP3    H127754   4.561   1.834   1.123 -0.4689 -0.0894 -1.7024
 2065TIP3    H227755   4.641   1.854   0.996  1.1885  1.2291 -0.5125
 2066TIP3   OH227756   1.200   2.392   7.529 -0.7943  0.2869  0.2504
 2066TIP3    H127757   1.109   2.362   7.527 -1.2837  1.7246 -0.6689
 2066TIP3    H227758   1.193   2.486   7.545  0.4931  0.5352 -0.5340
 2067TIP3   OH227759   5.262   2.891   8.092  0.7881  0.1908  0.0080
 2067TIP3    H127760   5.335   2.852   8.044  1.0245  0.9199 -0.2379
 2067TIP3    H227761   5.290   2.892   8.183  0.1477 -1.6421  0.2705
 2068TIP3   OH227762   5.244   1.922   7.915  0.3212  0.4958  0.5764
 2068TIP3    H127763   5.158   1.897   7.949 -0.2196 -0.0890 -1.1122
 2068TIP3    H227764   5.299   1.932   7.993 -1.0203 -0.0992  1.6343
 2069TIP3   OH227765   3.535   3.549   1.509  0.8970 -0.2242 -0.0231
 2069TIP3    H127766   3.609   3.604   1.533 -0.0065  1.0191  0.0372
 2069TIP3    H227767   3.511   3.579   1.421  0.7682 -0.9430 -0.2329
 2070TIP3   OH227768   4.327   5.578   6.865 -0.4677  0.3818  0.3940
 2070TIP3    H127769   4.363   5.491   6.882  0.1442  0.6006  0.2354
 2070TIP3    H227770   4.237   5.574   6.899 -0.5824 -0.4403  0.0079
 2071TIP3   OH227771   4.811   4.890   8.278  0.0763 -0.0051  0.2634
 2071TIP3    H127772   4.886   4.832   8.267  0.0700 -0.2294  1.3001
 2071TIP3    H227773   4.806   4.939   8.196  2.7014  1.5731  0.9019
 2072TIP3   OH227774   2.570   1.461   7.031  0.1705 -0.0880 -0.2337
 2072TIP3    H127775   2.617   1.396   6.979 -0.4148 -0.1515 -0.6905
 2072TIP3    H227776   2.593   1.545   6.992  0.6768 -0.0390  0.1594
 2073TIP3   OH227777   3.633   0.586   8.299  0.0813  0.0499  0.3182
 2073TIP3    H127778   3.687   0.659   8.269  1.2305 -0.7241  0.4346
 2073TIP3    H227779   3.645   0.518   8.232 -0.0679 -0.4427  0.7829
 2074TIP3   OH227780   2.309   5.589   2.204 -0.3629  0.1669  0.6631
 2074TIP3    H127781   2.280   5.669   2.248  0.1066  0.2233  0.8793
 2074TIP3    H227782   2.287   5.519   2.266  0.5042  0.2674  1.1030
 2075TIP3   OH227783   5.446   0.529   7.545  0.8064  0.4847 -0.4592
 2075TIP3    H127784   5.376   0.584   7.579  1.3716  0.4322  0.8543
 2075TIP3    H227785   5.423   0.441   7.573  1.3422  0.4549 -0.0976
 2076TIP3   OH227786   6.125   4.634   0.156 -0.0758  0.0016 -0.3583
 2076TIP3    H127787   6.164   4.555   0.119 -1.3967  0.2900 -2.5475
 2076TIP3    H227788   6.064   4.602   0.222  0.7571 -0.6737  0.1094
 2077TIP3   OH227789   0.163   6.509   1.877 -0.8403 -0.4258 -0.0296
 2077TIP3    H127790   0.251   6.473   1.866 -1.0244 -0.5859 -1.0050
 2077TIP3    H227791   0.111   6.436   1.908 -0.8810 -0.6233 -0.5591
 2078TIP3   OH227792   2.945   3.777   7.619  0.9455 -0.4977  0.0441
 2078TIP3    H127793   2.980   3.866   7.608  0.7376 -0.2166  1.4452
 2078TIP3    H227794   2.859   3.790   7.659  0.3402 -1.2896 -0.9703
 2079TIP3   OH227795   4.467   6.713   7.874 -0.0693 -0.4752  0.0485
 2079TIP3    H127796   4.452   6.629   7.916  0.0991 -0.0612  0.9598
 2079TIP3    H227797   4.495   6.771   7.945  0.5702  0.1509 -0.6920
 2080TIP3   OH227798   5.167   5.413   1.231  0.1137 -0.1420 -0.1509
 2080TIP3    H127799   5.144   5.336   1.180 -0.5979  0.4185 -0.6920
 2080TIP3    H227800   5.083   5.451   1.256  0.3721 -1.2633  2.8210
 2081TIP3   OH227801   6.904   2.728   2.215  0.3166 -0.8916 -0.3524
 2081TIP3    H127802   6.853   2.780   2.153  1.6843  0.9027 -0.0669
 2081TIP3    H227803   6.986   2.777   2.225 -0.4236 -0.1331  4.0988
 2082TIP3   OH227804   0.103   6.474   8.194 -0.1861 -0.3766 -0.1996
 2082TIP3    H127805   0.189   6.433   8.202 -0.1502 -0.1099  1.0363
 2082TIP3    H227806   0.095   6.496   8.102  1.2013 -0.1276 -0.2772
 2083TIP3   OH227807   0.869   0.311   0.383  0.8256  0.4653  0.2849
 2083TIP3    H127808   0.868   0.405   0.364  1.2518  0.4197  0.0189
 2083TIP3    H227809   0.962   0.287   0.382  0.6744 -0.7608 -3.8447
 2084TIP3   OH227810   3.633   3.954   0.435 -0.3078 -0.7217  0.0149
 2084TIP3    H127811   3.644   3.876   0.381  0.3743 -0.2086 -0.6026
 2084TIP3    H227812   3.715   4.003   0.424 -0.0936 -0.6688  1.6128
 2085TIP3   OH227813   6.144   4.725   1.644  0.3442 -0.3943  0.5709
 2085TIP3    H127814   6.155   4.739   1.738 -1.9991 -2.2797  1.2154
 2085TIP3    H227815   6.131   4.631   1.636  0.9093 -0.3156 -1.7214
 2086TIP3   OH227816   2.501   1.635   7.423 -0.5254  0.2990  0.7241
 2086TIP3    H127817   2.424   1.591   7.460  0.1290 -0.4233  1.2719
 2086TIP3    H227818   2.538   1.684   7.497  2.0672 -2.9035  1.8254
 2087TIP3   OH227819   6.672   6.120   1.394  0.4764  0.2430 -0.1553
 2087TIP3    H127820   6.705   6.067   1.467 -0.8003  1.2147  1.1751
 2087TIP3    H227821   6.750   6.161   1.357  1.1463 -0.2477  0.6839
 2088TIP3   OH227822   0.793   6.302   1.314  0.2207 -0.0916 -0.3636
 2088TIP3    H127823   0.782   6.274   1.223  0.4583  1.0811 -0.7781
 2088TIP3    H227824   0.792   6.398   1.309  1.0542 -0.0052  0.7672
 2089TIP3   OH227825   4.519   3.373   1.420 -0.0755 -0.4371  0.9860
 2089TIP3    H127826   4.589   3.332   1.472 -0.1642 -0.5488  1.0163
 2089TIP3    H227827   4.551   3.369   1.330 -0.2845 -0.9782  0.9342
 2090TIP3   OH227828   6.259   0.219   7.307 -0.2086  0.2887 -0.4191
 2090TIP3    H127829   6.175   0.173   7.311  0.2075 -0.3741  1.9918
 2090TIP3    H227830   6.240   0.306   7.344  0.3973 -0.3486  1.5146
 2091TIP3   OH227831   4.336   5.053   0.428 -0.2088  0.0009  0.0460
 2091TIP3    H127832   4.301   5.140   0.450  0.9117  0.0260  1.9422
 2091TIP3    H227833   4.429   5.069   0.410  0.1733 -0.8951  1.1467
 2092TIP3   OH227834   6.770   4.788   6.754  0.2881 -0.4971 -0.2103
 2092TIP3    H127835   6.862   4.770   6.770  0.3995  0.8743  0.9083
 2092TIP3    H227836   6.768   4.879   6.726 -0.6627 -0.7354 -0.9731
 2093TIP3   OH227837   5.229   5.642   8.175  0.3358 -0.5154  0.0348
 2093TIP3    H127838   5.179   5.721   8.154 -1.7370 -1.5210  0.9107
 2093TIP3    H227839   5.169   5.570   8.157  1.6956 -1.8382  0.5722
 2094TIP3   OH227840   3.403   2.704   7.552  0.0003 -0.4652  0.8590
 2094TIP3    H127841   3.434   2.720   7.641  0.3237  1.0374  0.4946
 2094TIP3    H227842   3.374   2.613   7.553  1.3291 -0.9172  2.1198
 2095TIP3   OH227843   3.787   0.511   0.106 -0.4960  0.4818  0.8696
 2095TIP3    H127844   3.809   0.603   0.100  0.2026  0.3686  1.5322
 2095TIP3    H227845   3.808   0.475   0.020 -2.5837  1.2915 -0.0278
 2096TIP3   OH227846   1.201   0.340   7.037  0.1748  0.3125 -0.2977
 2096TIP3    H127847   1.137   0.272   7.013  1.7388 -1.6782  0.8828
 2096TIP3    H227848   1.202   0.399   6.962 -1.5833 -0.7139 -1.1924
 2097TIP3   OH227849   3.289   6.180   0.182 -0.1672 -0.4764  0.0065
 2097TIP3    H127850   3.322   6.161   0.095 -1.5166  0.1446 -0.6690
 2097TIP3    H227851   3.272   6.274   0.182 -1.3158 -0.6657  0.5166
 2098TIP3   OH227852   1.939   6.479   7.905 -0.0622  0.6432 -0.7106
 2098TIP3    H127853   1.966   6.432   7.826 -0.7596  1.5935 -1.5355
 2098TIP3    H227854   2.012   6.538   7.925 -0.4068  1.2957 -1.3750
 2099TIP3   OH227855   5.822   4.925   8.101 -0.2873  0.2130 -0.5788
 2099TIP3    H127856   5.800   4.867   8.174 -0.7356  2.4158  1.1549
 2099TIP3    H227857   5.808   4.872   8.023 -0.2496 -2.1038  0.8967
 2100TIP3   OH227858   3.529   6.037   0.645 -0.0603  0.2516 -0.2009
 2100TIP3    H127859   3.540   6.132   0.641 -1.0385  0.4892  1.8572
 2100TIP3    H227860   3.593   6.008   0.711  0.9486 -0.6949 -1.5220
 2101TIP3   OH227861   3.492   0.676   7.946  0.6238  0.8254  0.1684
 2101TIP3    H127862   3.580   0.692   7.911  0.9358 -0.9903  0.0574
 2101TIP3    H227863   3.433   0.717   7.883  1.2664 -0.6561 -1.4540
 2102TIP3   OH227864   1.182   1.669   6.866  0.0853  0.2962  0.8922
 2102TIP3    H127865   1.136   1.585   6.860  1.0879 -0.3118  1.4997
 2102TIP3    H227866   1.153   1.718   6.788 -1.4225 -0.1316  1.1596
 2103TIP3   OH227867   3.457   4.144   0.559  0.0948  0.4548 -0.3856
 2103TIP3    H127868   3.522   4.095   0.510  0.1209  1.5513 -1.4846
 2103TIP3    H227869   3.404   4.077   0.602  2.1496 -0.4711  0.8815
 2104TIP3   OH227870   1.015   2.731   1.639 -1.1387  0.0061  0.1541
 2104TIP3    H127871   1.031   2.682   1.558  0.2632  0.3070  0.2239
 2104TIP3    H227872   0.920   2.737   1.644 -1.4993 -3.5115  0.6183
 2105TIP3   OH227873   2.118   1.523   1.874 -0.5209  0.8349 -0.3358
 2105TIP3    H127874   2.195   1.579   1.868  0.7599 -0.8115 -0.1065
 2105TIP3    H227875   2.077   1.547   1.957  2.0242 -0.8759  1.6124
 2106TIP3   OH227876   1.734   6.542   0.301 -0.6501 -0.2162  0.0463
 2106TIP3    H127877   1.698   6.630   0.312  0.2780  0.3048 -0.8869
 2106TIP3    H227878   1.818   6.544   0.346 -0.0586 -0.2209 -1.0081
 2107TIP3   OH227879   4.709   6.526   6.938 -0.3883 -0.6671 -0.3281
 2107TIP3    H127880   4.673   6.610   6.967  0.5741 -0.4341  0.2080
 2107TIP3    H227881   4.635   6.465   6.943 -0.9679  0.0353 -0.2538
 2108TIP3   OH227882   0.199   2.033   7.671  0.4272  0.1053  0.1097
 2108TIP3    H127883   0.184   1.949   7.713  1.7572 -0.7407 -1.0306
 2108TIP3    H227884   0.118   2.052   7.624  0.1998 -0.6285  0.2038
 2109TIP3   OH227885   4.013   1.682   8.111  0.3140 -0.1519 -0.5626
 2109TIP3    H127886   3.933   1.658   8.063 -1.1460  0.8584  1.2207
 2109TIP3    H227887   3.991   1.665   8.203  1.6950  1.4024  0.0966
 2110TIP3   OH227888   6.696   0.998   0.349 -0.1929  0.3032 -0.4842
 2110TIP3    H127889   6.732   1.029   0.266  0.8735  0.2613 -0.0484
 2110TIP3    H227890   6.723   0.906   0.354  0.6931  0.5988  0.4096
 2111TIP3   OH227891   2.659   2.545   0.657 -0.6882 -0.2367 -0.2383
 2111TIP3    H127892   2.752   2.530   0.677 -0.4256  1.6646  0.1526
 2111TIP3    H227893   2.624   2.458   0.639  1.0457 -1.0562  0.1523
 2112TIP3   OH227894   5.575   2.669   2.549 -0.0422  0.2518 -0.5113
 2112TIP3    H127895   5.657   2.627   2.575 -0.7201 -0.9257 -0.2152
 2112TIP3    H227896   5.599   2.760   2.533  0.8974  0.5047  1.8447
 2113TIP3   OH227897   4.343   6.833   6.764  0.0423  0.2560 -0.1031
 2113TIP3    H127898   4.302   6.770   6.824 -0.7388 -0.5687 -1.4374
 2113TIP3    H227899   4.270   6.864   6.710  1.1909 -2.1357 -3.3498
 2114TIP3   OH227900   2.228   0.488   8.141  0.0980  0.3939  0.3723
 2114TIP3    H127901   2.156   0.430   8.115  0.7013  0.2811 -1.0888
 2114TIP3    H227902   2.211   0.505   8.234 -0.4252 -1.6267  0.7009
 2115TIP3   OH227903   1.877   6.804   2.180  0.5889  0.2594 -0.1332
 2115TIP3    H127904   1.788   6.826   2.207 -0.0477 -0.3170 -1.5994
 2115TIP3    H227905   1.933   6.849   2.242 -0.7241  0.5261  0.9149
 2116TIP3   OH227906   0.357   3.826   1.909 -0.2687 -0.4045 -0.0770
 2116TIP3    H127907   0.388   3.753   1.856 -1.1281  0.9212 -2.5545
 2116TIP3    H227908   0.375   3.904   1.856 -0.6804  1.0819  1.8446
 2117TIP3   OH227909   6.335   1.667   2.236  0.3799 -0.1726  0.2475
 2117TIP3    H127910   6.269   1.641   2.172  1.7783 -0.3922 -1.1734
 2117TIP3    H227911   6.299   1.745   2.277 -1.3018 -1.0060  0.4225
 2118TIP3   OH227912   3.924   2.058   1.035  0.0941  0.3340  0.2020
 2118TIP3    H127913   3.883   2.045   1.120 -1.5835 -0.4821 -0.6852
 2118TIP3    H227914   4.003   2.004   1.037  0.5731  1.0523  1.5520
 2119TIP3   OH227915   4.163   4.146   7.918  0.0030 -0.0892 -0.4745
 2119TIP3    H127916   4.115   4.225   7.941  1.5755  1.3977 -1.9904
 2119TIP3    H227917   4.238   4.177   7.867  1.1308 -2.4989 -0.4460
 2120TIP3   OH227918   0.382   5.566   2.343  0.1718  0.0606 -0.1376
 2120TIP3    H127919   0.290   5.591   2.334 -0.1124 -0.7049  0.5149
 2120TIP3    H227920   0.381   5.493   2.405  1.4030  1.2911  1.4371
 2121TIP3   OH227921   3.616   3.154   2.581 -0.1333 -0.0342  0.3341
 2121TIP3    H127922   3.659   3.121   2.660 -0.3281 -0.0922  0.4155
 2121TIP3    H227923   3.679   3.217   2.545  1.1549 -1.9526 -0.9289
 2122TIP3   OH227924   5.967   2.555   7.555  0.3318 -0.3014  0.1903
 2122TIP3    H127925   5.918   2.635   7.574  2.1476  1.3045 -1.4986
 2122TIP3    H227926   5.957   2.542   7.461 -0.4873 -2.5124  0.5260
 2123TIP3   OH227927   4.673   0.045   7.332  0.1793  0.4191 -0.3449
 2123TIP3    H127928   4.598   0.043   7.273  0.2809 -0.8642 -0.4735
 2123TIP3    H227929   4.651   0.110   7.398 -0.5492  0.8572 -1.0165
 2124TIP3   OH227930   6.501   1.357   0.688  0.2505 -0.3411  0.3518
 2124TIP3    H127931   6.582   1.320   0.725  1.5434  2.5447  0.7173
 2124TIP3    H227932   6.530   1.399   0.607 -1.1819 -0.3860 -0.1961
 2125TIP3   OH227933   2.202   2.430   1.621 -0.5904 -0.3220  0.0003
 2125TIP3    H127934   2.214   2.446   1.714 -0.4773 -0.3568 -0.0082
 2125TIP3    H227935   2.156   2.508   1.589 -1.7794 -0.8722  0.3264
 2126TIP3   OH227936   5.200   2.856   1.119  0.1343  0.2945  0.3372
 2126TIP3    H127937   5.172   2.939   1.079 -0.0202  0.1802  0.2041
 2126TIP3    H227938   5.121   2.801   1.118 -0.2670  0.7734  2.1009
 2127TIP3   OH227939   1.153   5.549   7.490 -0.3388 -0.1196  0.5098
 2127TIP3    H127940   1.197   5.631   7.511  2.0647 -0.9520 -0.8239
 2127TIP3    H227941   1.066   5.575   7.461  1.0825  2.3065 -2.2054
 2128TIP3   OH227942   6.735   4.380   0.749  0.0813  0.8898  0.2157
 2128TIP3    H127943   6.684   4.353   0.673  0.2572 -0.9302  0.6907
 2128TIP3    H227944   6.681   4.355   0.824  0.0436  2.3785  0.7249
 2129TIP3   OH227945   1.477   1.554   8.031 -0.7141  0.2412 -0.2850
 2129TIP3    H127946   1.538   1.550   7.958  0.8047 -1.2967  0.9982
 2129TIP3    H227947   1.437   1.641   8.024  0.2643  0.5777 -2.2253
 2130TIP3   OH227948   4.624   1.587   6.977 -0.1192  0.0594 -0.3065
 2130TIP3    H127949   4.667   1.527   7.038 -0.9561 -0.7306 -0.4918
 2130TIP3    H227950   4.669   1.671   6.991  0.7920 -0.5059  0.2281
 2131TIP3   OH227951   5.539   4.657   2.047 -0.6372 -0.2263 -0.5790
 2131TIP3    H127952   5.511   4.608   2.124 -0.0224  1.7905  1.0115
 2131TIP3    H227953   5.461   4.659   1.990 -1.1984 -1.4593  0.1108
 2132TIP3   OH227954   2.566   5.672   8.527  0.0622  0.6943  0.2628
 2132TIP3    H127955   2.575   5.583   8.492  3.7499  1.4213 -1.1145
 2132TIP3    H227956   2.616   5.671   8.609  0.4069  1.5345  0.0747
 2133TIP3   OH227957   0.783   6.147   1.560 -0.0315  0.1569  0.0746
 2133TIP3    H127958   0.724   6.081   1.523  0.1162  1.0007 -1.7951
 2133TIP3    H227959   0.808   6.202   1.485  1.3771  1.1686  1.2175
 2134TIP3   OH227960   6.581   1.710   1.433  0.7862 -0.2409  0.3932
 2134TIP3    H127961   6.537   1.666   1.506 -0.1975 -1.8004 -1.0481
 2134TIP3    H227962   6.566   1.803   1.449 -2.0345 -0.6368  0.6712
 2135TIP3   OH227963   0.416   2.990   6.954 -0.2463 -0.1959 -0.5905
 2135TIP3    H127964   0.440   3.070   6.908 -1.0348  0.5494  0.2520
 2135TIP3    H227965   0.421   2.922   6.887  0.6446  0.5058 -1.2774
 2136TIP3   OH227966   0.864   4.134   7.939 -0.1206 -0.5189  0.1950
 2136TIP3    H127967   0.790   4.194   7.929  0.6237  0.1404 -1.5629
 2136TIP3    H227968   0.872   4.091   7.854  0.6628 -1.5952  0.7960
 2137TIP3   OH227969   6.610   5.987   7.375 -0.3831 -0.3358 -0.4448
 2137TIP3    H127970   6.531   6.038   7.356 -0.0660  0.1662 -0.4366
 2137TIP3    H227971   6.578   5.898   7.388 -1.1185  0.0695  0.7654
 2138TIP3   OH227972   0.543   3.172   0.664  0.3119 -0.2612  0.5735
 2138TIP3    H127973   0.520   3.261   0.690 -0.4290 -0.3823  0.3548
 2138TIP3    H227974   0.466   3.140   0.617  0.1698 -1.3863  1.5230
 2139TIP3   OH227975   2.803   4.051   8.509  0.7231  0.0750  0.0282
 2139TIP3    H127976   2.822   4.145   8.506  0.7827  0.1096  1.1186
 2139TIP3    H227977   2.883   4.012   8.545  0.8997 -0.4674 -0.9103
 2140TIP3   OH227978   4.568   4.888   1.421 -0.6939 -0.7373  0.2047
 2140TIP3    H127979   4.531   4.888   1.333  0.5938  0.8911 -0.3931
 2140TIP3    H227980   4.663   4.881   1.407 -0.4125  0.3576  1.3990
 2141TIP3   OH227981   6.245   2.150   8.346  0.2251  0.2969 -0.1203
 2141TIP3    H127982   6.297   2.224   8.318  0.3958 -0.1464 -1.0032
 2141TIP3    H227983   6.179   2.139   8.278 -1.2316  1.0212  1.1143
 2142TIP3   OH227984   2.777   5.763   1.157  0.7145  0.1692 -0.4119
 2142TIP3    H127985   2.745   5.679   1.124  0.1544  0.8460 -1.6612
 2142TIP3    H227986   2.872   5.757   1.149  0.6446 -0.0883 -1.1766
 2143TIP3   OH227987   0.999   1.479   6.818 -0.0933 -0.5244 -0.2170
 2143TIP3    H127988   0.932   1.418   6.848 -0.4962  0.5718  1.2434
 2143TIP3    H227989   0.964   1.516   6.737 -1.3519  0.1123  0.5839
 2144TIP3   OH227990   0.974   3.147   2.118  0.4198  0.0185 -0.0747
 2144TIP3    H127991   1.055   3.099   2.135  1.1085  1.7268  2.0001
 2144TIP3    H227992   0.982   3.226   2.171 -2.2513  0.6468 -0.4607
 2145TIP3   OH227993   3.593   4.950   1.108 -0.1268  0.2390  0.3355
 2145TIP3    H127994   3.581   4.863   1.147  0.6571  0.7649  1.8258
 2145TIP3    H227995   3.529   5.006   1.153  1.0034  0.9209  1.1460
 2146TIP3   OH227996   4.396   0.972   2.118 -0.3447  0.3989  0.0991
 2146TIP3    H127997   4.451   0.916   2.064 -0.0730 -0.0383  0.8128
 2146TIP3    H227998   4.447   0.987   2.198 -1.1497  0.1762  0.6760
 2147TIP3   OH227999   4.858   0.456   7.380  0.4533 -0.2632 -0.5474
 2147TIP3    H128000   4.923   0.386   7.376  0.1022 -0.6619  0.5049
 2147TIP3    H228001   4.880   0.504   7.460 -0.0442  0.0952 -0.6270
 2148TIP3   OH228002   0.428   0.897   8.398  0.1835  0.3030  0.0188
 2148TIP3    H128003   0.383   0.917   8.316  1.6428  0.1326 -0.8558
 2148TIP3    H228004   0.471   0.813   8.382  3.3352  1.8287 -0.3508
 2149TIP3   OH228005   3.152   1.798   7.386  0.1350  0.5068  0.5057
 2149TIP3    H128006   3.103   1.720   7.413 -2.4840  1.9195  0.1957
 2149TIP3    H228007   3.189   1.774   7.301 -1.5340 -0.1212 -0.0944
 2150TIP3   OH228008   6.884   5.921   6.849  0.1575 -0.1407 -0.0838
 2150TIP3    H128009   6.905   5.872   6.770 -0.2715  1.2166 -1.0914
 2150TIP3    H228010   6.919   6.009   6.833 -0.4026  0.3033  0.9980
 2151TIP3   OH228011   2.331   4.065   1.151 -0.4740 -0.2135  0.6187
 2151TIP3    H128012   2.396   4.047   1.220 -1.4624 -2.9001  0.9804
 2151TIP3    H228013   2.260   4.111   1.196 -0.6861 -1.0946  1.2037
 2152TIP3   OH228014   4.932   1.335   8.373 -0.2670 -0.1839  0.2312
 2152TIP3    H128015   4.943   1.402   8.306  0.1391 -0.0282  0.4518
 2152TIP3    H228016   4.838   1.317   8.372 -0.1250 -0.9783 -1.1249
 2153TIP3   OH228017   5.166   2.850   1.510  0.0087 -0.7068  0.0598
 2153TIP3    H128018   5.184   2.852   1.416 -0.7633  1.2751 -0.0998
 2153TIP3    H228019   5.078   2.886   1.519  0.5757  0.4334  1.6301
 2154TIP3   OH228020   2.769   5.493   1.090  0.2079 -0.2562  0.0766
 2154TIP3    H128021   2.802   5.453   1.170 -0.8236  0.4227  0.8753
 2154TIP3    H228022   2.794   5.433   1.020  1.0477 -0.9055  0.9160
 2155TIP3   OH228023   4.901   2.919   0.910 -0.4009  0.4340 -0.2961
 2155TIP3    H128024   4.927   2.856   0.978  0.9257  1.6698  0.3922
 2155TIP3    H228025   4.810   2.941   0.931 -0.6378 -0.6586 -0.1047
 2156TIP3   OH228026   5.193   5.003   7.067  0.2342 -0.0846  0.1383
 2156TIP3    H128027   5.229   4.949   6.997  0.2434 -0.5488  0.4932
 2156TIP3    H228028   5.178   5.088   7.027 -1.5679 -0.8612 -0.9633
 2157TIP3   OH228029   6.367   6.014   0.881  0.1072 -0.0591  0.1477
 2157TIP3    H128030   6.375   5.938   0.824  0.0037 -0.6433  0.8911
 2157TIP3    H228031   6.433   6.000   0.949  0.2116  0.6121  0.1919
 2158TIP3   OH228032   2.949   4.107   6.677 -0.2710  0.1080  0.3556
 2158TIP3    H128033   2.871   4.060   6.648  0.3272  0.8025 -2.7576
 2158TIP3    H228034   2.943   4.192   6.633  2.5558 -0.0909 -0.6092
 2159TIP3   OH228035   2.034   0.403   6.670 -0.3100  0.1347 -0.0067
 2159TIP3    H128036   1.956   0.395   6.724 -0.3977 -1.7555 -0.3331
 2159TIP3    H228037   2.095   0.337   6.706  0.6805  0.7637 -0.4857
 2160TIP3   OH228038   5.191   1.364   0.226  0.0120 -0.0094 -1.0651
 2160TIP3    H128039   5.162   1.391   0.139  0.4186 -0.1121 -1.2357
 2160TIP3    H228040   5.167   1.272   0.233 -0.9090  0.2469 -0.6829
 2161TIP3   OH228041   3.456   1.536   7.990  0.1162 -0.1853  0.6267
 2161TIP3    H128042   3.528   1.572   8.040 -0.7558  1.0558  1.0562
 2161TIP3    H228043   3.403   1.613   7.966 -0.7645 -0.9988 -0.1343
 2162TIP3   OH228044   4.404   2.691   1.145 -0.6711  0.0997 -0.6820
 2162TIP3    H128045   4.491   2.683   1.105 -0.2636  1.3137 -0.0855
 2162TIP3    H228046   4.366   2.604   1.136  1.1652 -0.8876  0.3228
 2163TIP3   OH228047   3.679   3.218   8.168 -0.5344 -0.7032 -0.1241
 2163TIP3    H128048   3.738   3.283   8.207  0.1696 -2.1746  1.3942
 2163TIP3    H228049   3.659   3.253   8.081  0.1365  1.3229  0.4769
 2164TIP3   OH228050   3.764   2.313   7.567 -0.3366  0.5782 -0.0816
 2164TIP3    H128051   3.699   2.301   7.637 -1.0088 -1.2087 -0.9339
 2164TIP3    H228052   3.714   2.298   7.486  0.3356  2.9708 -1.0118
 2165TIP3   OH228053   5.161   2.833   2.354  0.4883  0.5652  0.0939
 2165TIP3    H128054   5.241   2.783   2.368 -0.2091 -0.8488 -0.7477
 2165TIP3    H228055   5.092   2.766   2.351 -0.3821  1.4919 -1.8769
 2166TIP3   OH228056   2.480   4.180   8.467 -0.0058  0.4756 -0.4375
 2166TIP3    H128057   2.520   4.103   8.508 -2.8125 -0.7625  0.2411
 2166TIP3    H228058   2.488   4.249   8.533 -0.8132 -0.3551  0.5707
 2167TIP3   OH228059   4.347   6.491   7.621 -0.5939 -0.3178 -0.2686
 2167TIP3    H128060   4.435   6.467   7.594 -1.1036 -1.2605 -1.1846
 2167TIP3    H228061   4.358   6.569   7.675  0.8685 -0.9528  0.3880
 2168TIP3   OH228062   4.433   4.719   0.101 -0.2383 -0.0310  0.6084
 2168TIP3    H128063   4.452   4.786   0.167  1.4921 -0.9081  1.0807
 2168TIP3    H228064   4.501   4.732   0.034 -0.5939 -0.5807  0.1370
 2169TIP3   OH228065   3.435   0.732   8.203  0.1562  0.0150  1.0214
 2169TIP3    H128066   3.511   0.695   8.248  0.1588 -0.4079  0.6750
 2169TIP3    H228067   3.452   0.717   8.110  2.1436  4.5069  0.3905
 2170TIP3   OH228068   4.972   1.145   0.584 -0.1609  0.1792 -0.0367
 2170TIP3    H128069   4.956   1.181   0.671  1.2646  0.6419  0.0573
 2170TIP3    H228070   4.974   1.221   0.526 -1.5719 -0.1583 -0.5866
 2171TIP3   OH228071   0.972   2.484   7.350 -0.2522 -0.1022 -0.0142
 2171TIP3    H128072   0.933   2.507   7.265  0.9172  2.4725  0.0488
 2171TIP3    H228073   1.055   2.442   7.327 -0.8413 -1.2576 -0.1129
 2172TIP3   OH228074   2.065   1.115   8.157  0.1306 -0.5024  0.5539
 2172TIP3    H128075   2.049   1.022   8.146 -0.5933 -0.3481  0.2255
 2172TIP3    H228076   1.984   1.149   8.196 -0.4997  0.3522 -1.3821
 2173TIP3   OH228077   1.091   6.189   6.774 -0.3009 -0.0172 -0.0679
 2173TIP3    H128078   1.095   6.157   6.864 -0.9978 -0.5098 -0.2057
 2173TIP3    H228079   1.023   6.257   6.775 -1.7675 -1.4105 -0.6142
 2174TIP3   OH228080   3.385   6.337   0.548 -0.2367 -0.1124 -0.0852
 2174TIP3    H128081   3.386   6.417   0.495 -0.7353 -1.4280 -2.1925
 2174TIP3    H228082   3.371   6.368   0.638 -1.9153  2.0680 -1.0025
 2175TIP3   OH228083   1.617   1.720   1.301 -0.5427  0.1640  0.4322
 2175TIP3    H128084   1.705   1.736   1.268  0.4675 -1.4666  2.1745
 2175TIP3    H228085   1.603   1.789   1.367 -0.3060  0.0357  0.6168
 2176TIP3   OH228086   0.619   2.946   7.417 -0.3690 -0.3721 -0.1483
 2176TIP3    H128087   0.624   3.041   7.399  0.2469 -0.2270  0.7273
 2176TIP3    H228088   0.560   2.912   7.350 -0.1862  0.5574 -0.8018
 2177TIP3   OH228089   4.768   0.794   7.669  0.3495  0.6879 -0.5225
 2177TIP3    H128090   4.745   0.885   7.653  0.1046  0.4530 -1.6908
 2177TIP3    H228091   4.685   0.746   7.656  0.5964  0.2478 -0.5144
 2178TIP3   OH228092   3.145   1.041   6.538 -0.6233  0.1798  0.5599
 2178TIP3    H128093   3.159   1.097   6.461 -1.6398 -0.4726 -0.1317
 2178TIP3    H228094   3.050   1.040   6.549 -0.5555 -0.6853  1.1123
 2179TIP3   OH228095   4.998   4.240   2.642 -0.5689  0.3511  0.1911
 2179TIP3    H128096   4.926   4.247   2.706 -1.4695  0.6853 -0.8310
 2179TIP3    H228097   5.027   4.330   2.629  0.5810  0.1424  1.1802
 2180TIP3   OH228098   3.659   4.374   7.390 -0.5991  0.0827 -0.3832
 2180TIP3    H128099   3.732   4.388   7.450 -0.9661 -1.9084  0.6165
 2180TIP3    H228100   3.696   4.389   7.303  0.2438  1.8801  0.2279
 2181TIP3   OH228101   6.794   6.528   7.054  0.0649 -0.0618 -0.1464
 2181TIP3    H128102   6.831   6.440   7.058  0.4394  0.1535  1.9112
 2181TIP3    H228103   6.861   6.584   7.092 -0.8639  0.8818  0.1391
 2182TIP3   OH228104   3.424   4.914   8.412 -0.8643  0.4500  0.2748
 2182TIP3    H128105   3.395   4.834   8.456 -2.3546  1.2562  0.8279
 2182TIP3    H228106   3.479   4.884   8.340 -0.0312 -0.9900  1.4617
 2183TIP3   OH228107   0.633   0.416   1.675 -0.7404  0.7949  0.8270
 2183TIP3    H128108   0.571   0.400   1.746 -1.2810  0.7908  0.3624
 2183TIP3    H228109   0.612   0.349   1.609  0.5676 -0.0092  1.1700
 2184TIP3   OH228110   3.602   1.403   7.759 -0.0751 -0.1891 -0.2327
 2184TIP3    H128111   3.545   1.364   7.693 -1.4282 -0.8193  1.2512
 2184TIP3    H228112   3.560   1.486   7.782  1.0932  0.6719 -1.0706
 2185TIP3   OH228113   2.130   6.525   7.186 -0.1548 -0.2036 -0.9619
 2185TIP3    H128114   2.101   6.589   7.251  0.2745 -0.4893 -0.4766
 2185TIP3    H228115   2.225   6.535   7.183  0.1690 -2.1035  0.5713
 2186TIP3   OH228116   5.387   2.632   8.305 -0.1868  0.0179 -0.6123
 2186TIP3    H128117   5.297   2.606   8.288 -1.2521  3.5432 -1.2865
 2186TIP3    H228118   5.428   2.636   8.219 -0.7760  2.5516 -0.8455
 2187TIP3   OH228119   2.217   4.456   6.871  0.0819  0.5411 -0.0467
 2187TIP3    H128120   2.169   4.433   6.791  1.5789 -0.8207 -0.6114
 2187TIP3    H228121   2.309   4.458   6.844  0.8912 -2.1794  2.0471
 2188TIP3   OH228122   0.114   2.233   2.404  0.0227  0.1307 -0.4525
 2188TIP3    H128123   0.023   2.206   2.408  0.1936 -0.3103  1.0770
 2188TIP3    H228124   0.112   2.327   2.421 -0.0973 -0.0270  0.4702
 2189TIP3   OH228125   4.082   1.042   1.187  0.7154 -0.4959 -0.1775
 2189TIP3    H128126   4.093   1.028   1.281  1.2610  1.0461  0.0053
 2189TIP3    H228127   4.169   1.030   1.150  0.5036 -1.0883 -0.5102
 2190TIP3   OH228128   0.110   5.619   2.352 -0.4631 -0.1590  0.1356
 2190TIP3    H128129   0.050   5.587   2.420 -1.5672  2.1586  0.3399
 2190TIP3    H228130   0.070   5.700   2.321 -0.5575 -1.5941 -4.0842
 2191TIP3   OH228131   5.793   5.649   1.312 -0.0902 -0.0416 -0.7312
 2191TIP3    H128132   5.708   5.613   1.286  0.9051 -2.1459 -1.2974
 2191TIP3    H228133   5.773   5.708   1.385 -1.9406 -1.1726 -0.2532
 2192TIP3   OH228134   1.742   5.194   0.643 -0.4226  0.0930  0.2222
 2192TIP3    H128135   1.755   5.284   0.613  1.1954 -0.1168  0.1865
 2192TIP3    H228136   1.756   5.140   0.564 -2.3046 -0.1707  0.0288
 2193TIP3   OH228137   3.077   3.919   7.915  0.0901 -0.0639 -0.3824
 2193TIP3    H128138   3.056   3.827   7.932  0.5130 -0.4222 -1.6624
 2193TIP3    H228139   2.991   3.962   7.910 -0.0922 -0.2433  0.8616
 2194TIP3   OH228140   5.556   5.231   2.212 -0.0474 -0.2385 -0.1616
 2194TIP3    H128141   5.635   5.245   2.161 -1.1300  1.7711 -1.4277
 2194TIP3    H228142   5.500   5.306   2.192 -1.3275 -0.3129  2.5475
 2195TIP3   OH228143   0.637   0.900   6.494  0.6932 -0.2983  0.0620
 2195TIP3    H128144   0.659   0.972   6.435 -0.9680 -0.0357 -0.2828
 2195TIP3    H228145   0.542   0.898   6.496  0.7040 -1.4137  1.4064
 2196TIP3   OH228146   0.441   3.533   2.014  0.0017 -0.4100 -0.4226
 2196TIP3    H128147   0.428   3.442   2.038 -0.8036  0.2964  2.1316
 2196TIP3    H228148   0.401   3.583   2.085  2.5671  1.9472 -0.4621
 2197TIP3   OH228149   0.734   1.367   6.828  0.2630  0.3624  0.1126
 2197TIP3    H128150   0.709   1.310   6.900 -1.5195 -1.3203 -1.7105
 2197TIP3    H228151   0.651   1.399   6.792  0.8905 -0.6334 -2.5005
 2198TIP3   OH228152   5.752   2.155   6.154 -0.3502  1.0063 -0.2740
 2198TIP3    H128153   5.738   2.232   6.210  2.8259  1.2121  0.3894
 2198TIP3    H228154   5.772   2.191   6.068 -1.1675  0.7916 -0.5706
 2199TIP3   OH228155   4.986   0.443   2.725  0.5126  0.2137  0.1861
 2199TIP3    H128156   4.923   0.394   2.777  3.0337 -1.3923  2.0010
 2199TIP3    H228157   4.986   0.530   2.763  2.5028 -0.9936  3.3466
 2200TIP3   OH228158   6.454   3.746   0.541  0.0467  0.2810 -0.6513
 2200TIP3    H128159   6.422   3.772   0.628 -0.6607 -0.6278 -0.6192
 2200TIP3    H228160   6.548   3.760   0.545  0.1238 -0.3986  0.5156
 2201TIP3   OH228161   1.105   6.555   1.462  0.1528 -0.1653  0.0456
 2201TIP3    H128162   1.113   6.647   1.486  1.1215 -0.1948 -0.1249
 2201TIP3    H228163   1.012   6.534   1.476 -0.1114  0.8750 -0.0697
 2202TIP3   OH228164   6.539   5.232   0.551  0.5133 -0.3966  0.0329
 2202TIP3    H128165   6.633   5.223   0.559  0.5945 -0.6430 -1.0226
 2202TIP3    H228166   6.518   5.192   0.466 -0.1953  1.8002 -0.9105
 2203TIP3   OH228167   6.048   2.790   0.067  0.2515  0.8802 -0.2715
 2203TIP3    H128168   6.098   2.710   0.088  1.3563  0.7757 -2.8692
 2203TIP3    H228169   6.020   2.777  -0.024  0.2550  3.3292 -0.6933
 2204TIP3   OH228170   2.020   5.100   6.921  0.3798 -0.3130 -0.2207
 2204TIP3    H128171   2.113   5.098   6.944  0.2189  0.4916  0.5710
 2204TIP3    H228172   2.003   5.192   6.900 -0.5943 -0.1501  1.1983
 2205TIP3   OH228173   1.200   6.420   7.359  0.1379 -1.0517 -0.3481
 2205TIP3    H128174   1.134   6.353   7.372  0.9661 -1.8147  0.0372
 2205TIP3    H228175   1.249   6.422   7.441  1.6134 -1.6593 -1.1673
 2206TIP3   OH228176   6.306   4.058   1.446  0.1385 -0.0464 -0.4777
 2206TIP3    H128177   6.369   4.002   1.399 -0.4765  0.4264 -1.9304
 2206TIP3    H228178   6.361   4.125   1.487  0.8173 -1.2428  0.6614
 2207TIP3   OH228179   2.206   4.872   7.114  0.1973  0.6151  0.5614
 2207TIP3    H128180   2.249   4.911   7.038 -1.4177 -0.8061 -1.1727
 2207TIP3    H228181   2.115   4.861   7.087 -0.0372 -1.6293  2.0104
 2208TIP3   OH228182   5.390   1.728   1.866  0.9705  0.2269 -0.1259
 2208TIP3    H128183   5.458   1.781   1.824  1.4548  0.4532  0.9151
 2208TIP3    H228184   5.322   1.791   1.891  1.5214  0.3651  1.0628
 2209TIP3   OH228185   6.110   5.017   2.056 -0.4261 -0.6889 -0.0311
 2209TIP3    H128186   6.035   5.058   2.013  0.9095 -0.1044 -1.9539
 2209TIP3    H228187   6.127   5.072   2.133 -0.4908  0.6466 -0.9346
 2210TIP3   OH228188   1.768   3.940   8.508 -0.0561  0.1621  0.0574
 2210TIP3    H128189   1.747   3.929   8.415 -0.8142 -0.8157  0.3271
 2210TIP3    H228190   1.855   3.981   8.508 -0.1662  0.4251 -1.0780
 2211TIP3   OH228191   1.608   1.942   7.059 -0.1139 -0.4333  0.0499
 2211TIP3    H128192   1.592   2.001   7.133 -1.2459  1.1008 -1.3323
 2211TIP3    H228193   1.658   1.995   6.996 -0.4404 -1.2089 -0.8976
 2212TIP3   OH228194   2.828   1.170   1.313  0.1279 -0.2920 -0.2853
 2212TIP3    H128195   2.846   1.251   1.361  0.1428  0.1991 -1.0926
 2212TIP3    H228196   2.819   1.198   1.222 -1.9184 -0.9071 -0.3117
 2213TIP3   OH228197   2.102   2.566   7.845  0.2865  0.3673 -0.3440
 2213TIP3    H128198   2.166   2.632   7.870 -0.2361  0.8200 -0.1911
 2213TIP3    H228199   2.116   2.554   7.751  0.7949  0.2440 -0.2539
 2214TIP3   OH228200   4.591   4.030   0.812 -0.0271 -0.0372  0.2160
 2214TIP3    H128201   4.543   4.106   0.779 -0.0261 -0.1210  0.0202
 2214TIP3    H228202   4.532   3.991   0.877 -0.1083  0.0211  0.1780
 2215TIP3   OH228203   1.441   3.838   7.267  0.7772  1.1802 -0.2571
 2215TIP3    H128204   1.353   3.845   7.304  0.4833  0.3439 -0.7715
 2215TIP3    H228205   1.429   3.795   7.183  1.6663  1.1616 -0.3913
 2216TIP3   OH228206   2.188   4.416   7.776 -0.6800  0.3100 -0.0692
 2216TIP3    H128207   2.205   4.494   7.829  2.3292 -0.5966  0.4948
 2216TIP3    H228208   2.104   4.382   7.809 -2.0417  3.1708 -0.2854
 2217TIP3   OH228209   0.351   0.593   2.236 -0.5560 -0.4677 -0.1593
 2217TIP3    H128210   0.368   0.607   2.329 -0.1682  1.1150 -0.4330
 2217TIP3    H228211   0.411   0.523   2.211 -1.7097 -1.9757  1.0642
 2218TIP3   OH228212   2.099   1.953   6.646  0.6203  0.0604  0.7495
 2218TIP3    H128213   2.162   1.959   6.574 -1.3498 -1.9353 -1.2915
 2218TIP3    H228214   2.085   2.044   6.672  3.2356  0.6763  0.3654
 2219TIP3   OH228215   3.746   0.858   0.359  0.2216  0.5659 -0.2253
 2219TIP3    H128216   3.687   0.918   0.405  0.1326  0.7615 -0.5909
 2219TIP3    H228217   3.723   0.868   0.267  1.6647  1.5921 -0.5074
 2220TIP3   OH228218   2.049   2.426   1.297 -0.0713  0.2365 -0.1004
 2220TIP3    H128219   2.143   2.415   1.286  0.0733 -0.1585  1.3235
 2220TIP3    H228220   2.016   2.440   1.209  1.5319  2.1879 -0.4593
 2221TIP3   OH228221   2.659   0.513   7.487 -0.5042  0.2653  0.2758
 2221TIP3    H128222   2.692   0.480   7.570  0.2690 -0.1031 -0.1764
 2221TIP3    H228223   2.653   0.436   7.431  0.7194  0.7734 -0.5833
 2222TIP3   OH228224   2.442   6.873   1.980  0.1714 -0.0448 -0.3459
 2222TIP3    H128225   2.445   6.868   2.075  1.2370  2.9351 -0.1329
 2222TIP3    H228226   2.513   6.816   1.951  0.9614  0.3502  0.7498
 2223TIP3   OH228227   3.597   6.011   8.102  0.1236 -0.0128 -0.2868
 2223TIP3    H128228   3.531   5.945   8.125 -1.1218  1.5163  0.7242
 2223TIP3    H228229   3.681   5.967   8.117 -0.6660 -1.0747  1.3396
 2224TIP3   OH228230   3.053   5.826   1.107 -0.2191 -0.8359  0.1382
 2224TIP3    H128231   3.043   5.902   1.050 -1.6647 -1.6356 -0.7184
 2224TIP3    H228232   3.119   5.772   1.063 -0.2477 -0.7608  0.0019
 2225TIP3   OH228233   2.843   0.124   7.262 -0.2201 -0.6170 -0.4832
 2225TIP3    H128234   2.887   0.050   7.221 -2.0905 -1.5580 -0.8743
 2225TIP3    H228235   2.792   0.087   7.333  2.6087  0.9336  2.6184
 2226TIP3   OH228236   1.159   0.498   7.608  0.4532  0.1824 -0.4821
 2226TIP3    H128237   1.235   0.555   7.598  0.7751 -0.4090 -1.6445
 2226TIP3    H228238   1.148   0.457   7.521 -0.2490 -0.8896  0.0859
 2227TIP3   OH228239   6.787   6.361   8.283  0.1457 -0.0455 -0.8935
 2227TIP3    H128240   6.791   6.369   8.379  0.6686 -0.9464 -0.8303
 2227TIP3    H228241   6.876   6.377   8.253  0.4742 -1.8994 -1.0316
 2228TIP3   OH228242   4.120   0.910   0.026  0.7553 -0.0649 -0.0215
 2228TIP3    H128243   4.054   0.844   0.006  0.7453  0.1509 -0.7673
 2228TIP3    H228244   4.094   0.985  -0.028  0.5699  0.6722  1.0612
 2229TIP3   OH228245   6.521   3.671   8.067  0.1477 -0.0101  0.4862
 2229TIP3    H128246   6.429   3.696   8.081  0.2983  0.2221  1.0845
 2229TIP3    H228247   6.540   3.700   7.978  0.1640  1.5797  0.9781
 2230TIP3   OH228248   2.779   6.785   7.367 -0.1680  0.0991 -0.9360
 2230TIP3    H128249   2.873   6.770   7.368 -0.1409  0.1068 -2.1863
 2230TIP3    H228250   2.749   6.759   7.454  1.0805  0.7639 -0.2925
 2231TIP3   OH228251   2.721   1.944   8.113  0.1583  0.0457  0.3271
 2231TIP3    H128252   2.630   1.961   8.139 -0.3204  1.5992 -2.0435
 2231TIP3    H228253   2.734   1.851   8.129 -1.3350  0.0932  2.1128
 2232TIP3   OH228254   4.202   1.051   1.467  0.5287  0.8668  0.0244
 2232TIP3    H128255   4.249   1.134   1.467 -0.4076  1.4267 -0.9487
 2232TIP3    H228256   4.138   1.059   1.538 -0.4908  1.5469 -0.9525
 2233TIP3   OH228257   6.342   6.830   1.501 -0.2384 -0.3048 -0.2498
 2233TIP3    H128258   6.426   6.829   1.456  0.2505 -1.2768  0.6468
 2233TIP3    H228259   6.277   6.837   1.431  0.5902  2.4000 -0.8758
 2234TIP3   OH228260   4.138   2.427   0.925  0.3795  0.7402 -0.1111
 2234TIP3    H128261   4.059   2.461   0.967  0.5796  1.8474 -0.5948
 2234TIP3    H228262   4.111   2.346   0.884 -0.0038  0.0209  1.4784
 2235TIP3   OH228263   5.794   3.392   8.149  0.0848  0.3595 -0.2816
 2235TIP3    H128264   5.867   3.365   8.204 -0.7556 -1.0613  0.1849
 2235TIP3    H228265   5.799   3.334   8.073 -0.1228  0.7665 -0.6089
 2236TIP3   OH228266   5.655   3.546   7.325 -0.6394 -0.3558 -0.0751
 2236TIP3    H128267   5.726   3.520   7.267  0.1442  1.9058 -0.2436
 2236TIP3    H228268   5.590   3.477   7.316  0.4603 -1.2305 -1.8523
 2237TIP3   OH228269   4.345   5.987   7.114 -0.8939 -0.4956  1.0825
 2237TIP3    H128270   4.381   5.905   7.150  0.0782  0.6753  2.9432
 2237TIP3    H228271   4.331   6.042   7.191 -0.2543  1.5708 -0.2249
 2238TIP3   OH228272   0.840   2.321   7.528  0.1758  0.3272  0.0403
 2238TIP3    H128273   0.772   2.272   7.482  0.2871 -0.7132  0.9252
 2238TIP3    H228274   0.865   2.391   7.468 -1.4673  0.5624 -0.4226
 2239TIP3   OH228275   6.311   1.196   0.573 -0.1964 -0.0190  0.3069
 2239TIP3    H128276   6.394   1.242   0.585 -0.4529  1.0056 -1.4466
 2239TIP3    H228277   6.251   1.239   0.634  0.4924 -0.6687  1.4795
 2240TIP3   OH228278   1.663   3.443   0.755  0.2714  0.0624 -0.8385
 2240TIP3    H128279   1.621   3.374   0.807 -0.8283  1.0768 -0.3353
 2240TIP3    H228280   1.609   3.450   0.677 -1.8419  2.7655  0.7146
 2241TIP3   OH228281   3.646   0.390   2.257 -0.0997 -0.2613  0.1868
 2241TIP3    H128282   3.716   0.365   2.317  0.8132  0.8260 -0.3905
 2241TIP3    H228283   3.612   0.472   2.293  1.0805  0.8989 -1.2518
 2242TIP3   OH228284   3.574   4.624   0.433  0.2109 -0.2479 -0.0469
 2242TIP3    H128285   3.620   4.634   0.516 -1.9452  1.5969  1.0330
 2242TIP3    H228286   3.544   4.712   0.411 -0.8894 -0.9998 -1.8019
 2243TIP3   OH228287   5.233   0.422   1.340 -0.4883 -0.2466 -0.2091
 2243TIP3    H128288   5.222   0.403   1.433  0.0815 -0.5240 -0.1909
 2243TIP3    H228289   5.282   0.505   1.338  2.4135 -1.8181 -0.1753
 2244TIP3   OH228290   0.820   5.806   1.507 -0.0914 -0.6241  0.5958
 2244TIP3    H128291   0.795   5.722   1.547  0.9291 -1.4918 -0.4963
 2244TIP3    H228292   0.738   5.842   1.473 -0.5686 -1.1157  1.2062
 2245TIP3   OH228293   2.704   3.591   2.309  0.2394  0.0383  0.4822
 2245TIP3    H128294   2.610   3.605   2.304 -0.0175 -1.6154 -0.0162
 2245TIP3    H228295   2.742   3.678   2.297 -1.1999  0.6565  0.1856
 2246TIP3   OH228296   5.263   4.407   7.985  0.3186  0.0012  0.2891
 2246TIP3    H128297   5.323   4.333   7.975 -0.3938 -0.3588 -1.8821
 2246TIP3    H228298   5.232   4.401   8.075  1.6570 -1.2596  0.7013
 2247TIP3   OH228299   4.644   2.624   8.281  0.0321 -0.3514 -0.4267
 2247TIP3    H128300   4.669   2.714   8.257 -1.7303  0.0216 -1.0068
 2247TIP3    H228301   4.727   2.581   8.301  0.8200  1.8337  1.4374
 2248TIP3   OH228302   1.999   0.772   0.158  0.7689  0.0267 -0.3498
 2248TIP3    H128303   2.041   0.828   0.224  1.1588 -1.4828  0.7433
 2248TIP3    H228304   2.032   0.804   0.074  1.0186  1.3863  0.2389
 2249TIP3   OH228305   1.476   2.378   1.931 -0.0677 -0.5208 -0.6851
 2249TIP3    H128306   1.383   2.354   1.931  0.4454 -2.8490 -2.1710
 2249TIP3    H228307   1.485   2.441   1.859 -0.8331  1.6653  1.0185
 2250TIP3   OH228308   2.587   5.424   0.765 -0.9507 -0.4352 -0.3210
 2250TIP3    H128309   2.566   5.363   0.694  0.9718 -0.0653 -1.2720
 2250TIP3    H228310   2.680   5.411   0.781 -0.6359  1.7569 -0.0778
 2251TIP3   OH228311   2.958   6.365   1.475  0.1625  0.3021  0.5098
 2251TIP3    H128312   3.019   6.304   1.517 -0.5882  0.7864  2.4050
 2251TIP3    H228313   2.995   6.451   1.492  0.5965  0.4786 -1.1420
 2252TIP3   OH228314   5.883   2.301   8.240  0.4718  0.8134  0.1860
 2252TIP3    H128315   5.882   2.217   8.285  1.7036  0.9381  0.4653
 2252TIP3    H228316   5.862   2.280   8.149 -2.8390  0.6427  0.8477
 2253TIP3   OH228317   3.566   2.738   1.694 -0.0788 -0.2421 -0.1551
 2253TIP3    H128318   3.601   2.798   1.760 -0.9508 -1.9940  2.0426
 2253TIP3    H228319   3.641   2.684   1.669 -0.0056 -0.4011  0.3906
 2254TIP3   OH228320   1.511   2.567   1.735 -0.3394 -0.0502  0.2752
 2254TIP3    H128321   1.586   2.617   1.702 -0.0470 -1.1007 -0.6978
 2254TIP3    H228322   1.483   2.513   1.661 -2.8009  1.1154  0.2559
 2255TIP3   OH228323   6.429   1.253   8.489 -0.2172 -0.1656  0.1595
 2255TIP3    H128324   6.449   1.172   8.441 -1.3116  0.4027 -1.3159
 2255TIP3    H228325   6.398   1.313   8.422  0.2345  1.3864  1.2955
 2256TIP3   OH228326   1.121   4.478   1.145  0.0109  0.2652  0.1750
 2256TIP3    H128327   1.193   4.430   1.185  0.3254  1.8467  1.6252
 2256TIP3    H228328   1.160   4.522   1.069  0.2421  0.0149  0.1500
 2257TIP3   OH228329   0.209   2.614   2.567  0.0019  0.1342  0.5622
 2257TIP3    H128330   0.280   2.588   2.508  0.3405  2.2932 -0.0760
 2257TIP3    H228331   0.185   2.534   2.612  0.6814 -1.3136 -1.5048
 2258TIP3   OH228332   0.562   3.616   2.310 -0.1114  0.1389 -0.2796
 2258TIP3    H128333   0.571   3.578   2.397  1.2904  1.5678  0.2467
 2258TIP3    H228334   0.472   3.650   2.308 -0.5000 -0.8224  0.1961
 2259TIP3   OH228335   4.222   3.667   0.731 -0.2155  0.0428  0.5819
 2259TIP3    H128336   4.289   3.715   0.683 -1.7876  2.2797  0.4497
 2259TIP3    H228337   4.248   3.675   0.823  0.7160 -0.8558  0.4170
 2260TIP3   OH228338   3.073   5.343   1.005  0.4155 -0.1917 -0.0629
 2260TIP3    H128339   3.093   5.347   1.098  1.2183 -1.1651 -0.1704
 2260TIP3    H228340   3.142   5.395   0.964  0.2282  0.0014 -0.1334
 2261TIP3   OH228341   5.768   2.757   1.948  0.4630  0.0594 -0.3661
 2261TIP3    H128342   5.758   2.821   1.878  1.5747  0.0093 -0.5959
 2261TIP3    H228343   5.828   2.691   1.912  0.3484 -0.4369  0.3211
 2262TIP3   OH228344   4.797   5.967   8.043 -0.0345  0.0371 -0.4782
 2262TIP3    H128345   4.730   6.027   8.074 -0.2191 -1.7551  3.2826
 2262TIP3    H228346   4.879   6.001   8.080  0.4453 -0.1417 -1.3431
 2263TIP3   OH228347   4.324   6.861   1.729 -0.1140  0.0158  0.6508
 2263TIP3    H128348   4.242   6.846   1.682  0.7239 -0.3838 -0.7330
 2263TIP3    H228349   4.298   6.911   1.806 -1.2614  3.0000 -1.4915
 2264TIP3   OH228350   0.336   1.206   8.383 -0.3740  0.3553  0.4674
 2264TIP3    H128351   0.415   1.152   8.389 -0.2680  0.2765 -1.3606
 2264TIP3    H228352   0.299   1.204   8.472  0.1977 -1.8313  0.7023
 2265TIP3   OH228353   1.391   2.134   0.501 -0.7027 -0.1833  0.2582
 2265TIP3    H128354   1.460   2.192   0.534  0.9689 -0.6146 -2.2148
 2265TIP3    H228355   1.359   2.178   0.423 -0.0600 -2.0722 -1.1333
 2266TIP3   OH228356   5.991   0.981   1.135 -0.7346  0.2268  0.0576
 2266TIP3    H128357   5.975   0.911   1.072 -0.2891 -0.3737  0.5997
 2266TIP3    H228358   5.941   1.055   1.101 -2.6621 -0.8471  0.3907
 2267TIP3   OH228359   5.018   3.676   1.792 -0.0244  0.3840  0.2738
 2267TIP3    H128360   5.098   3.671   1.845 -0.3413 -3.3499  0.7023
 2267TIP3    H228361   4.947   3.681   1.856 -0.2653 -0.1604  0.0528
 2268TIP3   OH228362   6.453   4.845   1.179  0.6584 -0.1703  0.2747
 2268TIP3    H128363   6.546   4.847   1.155  0.4239 -1.0139 -0.7977
 2268TIP3    H228364   6.449   4.788   1.256  0.9714 -0.5913 -0.0152
 2269TIP3   OH228365   1.469   0.331   0.848  0.0717  0.0074 -0.0950
 2269TIP3    H128366   1.512   0.410   0.883  0.3002  0.6834 -1.8137
 2269TIP3    H228367   1.391   0.321   0.902 -1.3414  2.9202 -1.3590
 2270TIP3   OH228368   2.811   6.027   7.378  0.1963  0.1810  0.3062
 2270TIP3    H128369   2.784   5.936   7.393  0.7346  0.2875  2.2111
 2270TIP3    H228370   2.782   6.046   7.289 -0.0966 -1.7895 -0.0686
 2271TIP3   OH228371   1.284   6.684   8.223 -0.2042 -0.0171 -0.3737
 2271TIP3    H128372   1.287   6.590   8.243  0.1363  0.3837  1.6386
 2271TIP3    H228373   1.198   6.697   8.184 -1.1267 -0.8547  1.2577
 2272TIP3   OH228374   0.896   3.037   7.284 -0.1539  1.0460 -0.2405
 2272TIP3    H128375   0.871   2.971   7.350 -0.5296 -0.7625 -2.0937
 2272TIP3    H228376   0.840   3.112   7.303 -0.2785  0.5681  1.4612
 2273TIP3   OH228377   2.430   6.044   2.193 -0.1013 -0.2522  0.3939
 2273TIP3    H128378   2.401   6.070   2.106 -2.0967  0.1438  1.1293
 2273TIP3    H228379   2.411   6.120   2.249 -1.5284 -1.4886  1.6848
 2274TIP3   OH228380   3.704   1.846   0.983 -1.0296 -0.0103 -0.1498
 2274TIP3    H128381   3.732   1.796   0.906  1.3701  0.8284  0.1051
 2274TIP3    H228382   3.755   1.927   0.979 -2.4999  1.0325  1.1543
 2275TIP3   OH228383   0.419   0.352   7.543 -0.9079  0.3055 -0.2075
 2275TIP3    H128384   0.375   0.307   7.470  0.0626  0.0037 -0.6227
 2275TIP3    H228385   0.351   0.362   7.609 -2.0840  1.4502 -1.5099
 2276TIP3   OH228386   5.198   6.686   1.404  0.7008 -0.1192 -0.7987
 2276TIP3    H128387   5.184   6.749   1.334  0.7615 -0.9623 -1.5800
 2276TIP3    H228388   5.256   6.620   1.366  2.3307  0.4089  0.6389
 2277TIP3   OH228389   3.040   4.745   8.142 -0.0507 -0.1298  0.2370
 2277TIP3    H128390   3.020   4.716   8.231  0.5484 -2.1341 -0.2444
 2277TIP3    H228391   3.093   4.675   8.105  0.3208  1.0016 -1.4756
 2278TIP3   OH228392   2.961   5.802   7.731  0.5569 -0.0243 -0.0757
 2278TIP3    H128393   3.023   5.810   7.658  0.0011 -2.3494 -0.8840
 2278TIP3    H228394   3.016   5.783   7.807  0.9500 -0.6330 -0.5013
 2279TIP3   OH228395   3.285   6.243   7.366  0.3007  0.5761 -0.2972
 2279TIP3    H128396   3.218   6.175   7.358 -0.8124  1.7021 -0.7194
 2279TIP3    H228397   3.303   6.269   7.276  2.0173 -0.3378 -0.2760
 2280TIP3   OH228398   1.387   5.736   6.513 -0.0858  0.2268 -0.1019
 2280TIP3    H128399   1.364   5.651   6.477 -2.1891  0.8882 -0.4752
 2280TIP3    H228400   1.368   5.798   6.443 -2.0327  1.3026  1.2606
 2281TIP3   OH228401   6.819   3.255   1.978 -0.4156  0.4579 -0.5780
 2281TIP3    H128402   6.726   3.269   1.996 -0.3284  1.9170 -1.0735
 2281TIP3    H228403   6.864   3.311   2.041  0.2469 -1.7836  1.0487
 2282TIP3   OH228404   2.445   6.139   1.473 -0.0479  0.3328 -0.0111
 2282TIP3    H128405   2.457   6.053   1.434  1.8268  0.1363  0.8794
 2282TIP3    H228406   2.528   6.184   1.458 -0.7874  1.7876  0.0532
 2283TIP3   OH228407   1.644   2.355   0.865 -0.1845  0.1030  0.1973
 2283TIP3    H128408   1.628   2.270   0.907  0.1102  1.3634  3.1051
 2283TIP3    H228409   1.572   2.410   0.895  0.1107  1.1545 -0.9354
 2284TIP3   OH228410   5.503   2.371   0.459  1.1564  0.1148  0.7439
 2284TIP3    H128411   5.487   2.325   0.542  2.0403 -2.0026 -0.1956
 2284TIP3    H228412   5.445   2.447   0.463 -3.4132 -2.9662  0.8093
 2285TIP3   OH228413   5.037   2.202   6.425  0.2149 -0.8164  0.6917
 2285TIP3    H128414   5.023   2.138   6.355 -1.2638  0.5907 -0.3737
 2285TIP3    H228415   4.951   2.211   6.467  0.8666 -0.9450  2.1131
 2286TIP3   OH228416   2.413   4.874   7.312  0.1036  0.0778  0.1803
 2286TIP3    H128417   2.466   4.795   7.305  1.0830  0.5172  1.8521
 2286TIP3    H228418   2.365   4.879   7.230  1.5250 -1.1775 -0.7819
 2287TIP3   OH228419   1.085   3.462   1.132  0.1648 -0.0057 -0.4467
 2287TIP3    H128420   1.066   3.482   1.224 -0.4763 -0.8518 -0.3873
 2287TIP3    H228421   1.055   3.373   1.120  3.5544 -1.2972 -0.5022
 2288TIP3   OH228422   4.943   3.866   7.370 -0.2156  0.0339 -0.0038
 2288TIP3    H128423   5.026   3.894   7.408  1.4145  1.3621 -4.0198
 2288TIP3    H228424   4.893   3.947   7.361  0.4291  0.2121 -2.6334
 2289TIP3   OH228425   5.212   3.148   7.947 -0.4444  0.2385 -0.3550
 2289TIP3    H128426   5.133   3.170   7.996 -0.2759  0.8191 -0.3332
 2289TIP3    H228427   5.243   3.066   7.986 -0.6779  0.3504  0.0715
 2290TIP3   OH228428   4.521   3.175   6.466 -0.0294  0.0855 -0.5643
 2290TIP3    H128429   4.513   3.219   6.382  2.4843  1.3901 -0.2065
 2290TIP3    H228430   4.533   3.246   6.529  1.1292 -0.9545  0.4396
 2291TIP3   OH228431   6.571   3.459   7.362  0.3184 -0.0544  0.2198
 2291TIP3    H128432   6.528   3.374   7.369 -1.3602  0.7453  0.0511
 2291TIP3    H228433   6.522   3.516   7.423  1.9830  0.5832  1.0309
 2292TIP3   OH228434   2.144   4.121   6.633  0.1953 -0.4072  0.0495
 2292TIP3    H128435   2.185   4.202   6.604 -1.0432  0.2245  0.0076
 2292TIP3    H228436   2.199   4.091   6.706 -0.4575  1.5822  1.4455
 2293TIP3   OH228437   3.025   0.568   0.643 -0.1788  0.0358 -0.2772
 2293TIP3    H128438   2.972   0.490   0.633  0.2569 -0.1814 -0.9935
 2293TIP3    H228439   2.962   0.640   0.648 -0.5492 -0.1772 -1.5234
 2294TIP3   OH228440   5.027   3.308   8.093  0.9383 -0.4377  0.4619
 2294TIP3    H128441   5.054   3.399   8.108  2.1759 -0.8384  0.7848
 2294TIP3    H228442   4.963   3.314   8.022  0.0599  0.8026  1.3026
 2295TIP3   OH228443   5.659   2.787   8.190 -0.0630 -0.2126  0.2569
 2295TIP3    H128444   5.660   2.761   8.098  1.6131 -1.9404  0.7198
 2295TIP3    H228445   5.630   2.709   8.237  1.2994 -0.0805  1.3695
 2296TIP3   OH228446   5.052   3.864   8.074  0.1946  0.1253 -0.6671
 2296TIP3    H128447   5.035   3.782   8.120  1.4154 -0.4532 -1.1964
 2296TIP3    H228448   4.999   3.859   7.994 -1.6583  0.9785  0.4507
 2297TIP3   OH228449   4.968   2.686   0.469 -0.0766  0.2268 -0.0339
 2297TIP3    H128450   4.951   2.768   0.515 -0.9690  0.0373  0.0074
 2297TIP3    H228451   5.020   2.711   0.393 -0.0242  0.7742  0.1797
 2298TIP3   OH228452   5.581   1.897   2.087  0.1636  0.3875  0.3536
 2298TIP3    H128453   5.506   1.860   2.134 -1.3808  2.7135 -0.0839
 2298TIP3    H228454   5.593   1.984   2.125  0.7124  1.2312 -1.5843
 2299TIP3   OH228455   0.985   2.147   7.715  0.5264 -0.1705 -0.1226
 2299TIP3    H128456   0.926   2.220   7.696  0.8878  1.0211  2.8306
 2299TIP3    H228457   1.013   2.116   7.628 -1.9710  1.2000 -1.5472
 2300TIP3   OH228458   2.473   4.194   1.516 -0.1558 -0.1482 -0.0510
 2300TIP3    H128459   2.520   4.269   1.479 -1.2914  1.4437  1.6031
 2300TIP3    H228460   2.396   4.185   1.460  1.0966 -1.6645 -1.6903
 2301TIP3   OH228461   6.452   2.944   7.847  1.0805 -0.1696  0.5125
 2301TIP3    H128462   6.511   2.894   7.904  1.2022 -0.6420 -0.0135
 2301TIP3    H228463   6.415   2.878   7.788 -0.5521 -0.0085  1.2984
 2302TIP3   OH228464   2.833   4.280   2.315 -0.3193  0.0822  0.0495
 2302TIP3    H128465   2.913   4.332   2.314 -0.0741 -0.2628  0.7711
 2302TIP3    H228466   2.862   4.192   2.340 -1.0384  0.1735  1.2951
 2303TIP3   OH228467   1.976   3.608   8.356 -0.0983 -0.2208 -0.3782
 2303TIP3    H128468   2.067   3.631   8.336  0.2907 -0.9305  0.5256
 2303TIP3    H228469   1.973   3.605   8.451 -1.3200  0.7318 -0.3695
 2304TIP3   OH228470   3.364   4.197   7.677  0.2320  1.0842 -0.6801
 2304TIP3    H128471   3.435   4.217   7.616 -0.0062 -0.6195 -1.5715
 2304TIP3    H228472   3.307   4.274   7.673  3.1654  3.7115  1.9755
 2305TIP3   OH228473   3.763   5.250   6.788  0.1692 -0.3189 -0.4186
 2305TIP3    H128474   3.830   5.311   6.758 -1.1670  0.6317 -1.5879
 2305TIP3    H228475   3.749   5.274   6.880  1.9003 -1.0239  0.0743
 2306TIP3   OH228476   4.385   0.945   0.498  1.1344  0.2383  0.0742
 2306TIP3    H128477   4.370   1.035   0.468  3.1228  0.3463 -0.7618
 2306TIP3    H228478   4.313   0.928   0.559 -0.6377  1.5327 -1.5218
 2307TIP3   OH228479   6.452   1.029   8.328 -0.2743 -0.3854  0.6993
 2307TIP3    H128480   6.433   0.942   8.293  2.1055  0.0454 -2.0178
 2307TIP3    H228481   6.454   1.086   8.251 -0.2685  1.8171  2.2298
 2308TIP3   OH228482   1.496   4.614   6.395  0.2712 -0.5222  0.0968
 2308TIP3    H128483   1.451   4.694   6.420  1.5882  0.5506 -0.8318
 2308TIP3    H228484   1.440   4.544   6.429 -0.0168  0.7628  2.5355
 2309TIP3   OH228485   4.268   1.666   1.448 -0.2286  0.5271 -0.1039
 2309TIP3    H128486   4.289   1.660   1.542  2.3110  0.7710 -0.5799
 2309TIP3    H228487   4.223   1.750   1.440  0.5985  1.0842  0.7595
 2310TIP3   OH228488   5.174   2.808   1.994 -0.3208  0.2276 -0.5180
 2310TIP3    H128489   5.233   2.746   2.037 -0.6376  0.1253 -0.2330
 2310TIP3    H228490   5.163   2.773   1.906  0.4487  0.5205 -0.7411
 2311TIP3   OH228491   5.583   6.925   0.488  0.4044  0.1705 -0.7050
 2311TIP3    H128492   5.517   6.856   0.501  0.0145  0.7712  0.6805
 2311TIP3    H228493   5.604   6.920   0.395 -1.2013 -0.4105 -1.0831
 2312TIP3   OH228494   2.951   4.985   7.473  0.0171  0.2580  0.9057
 2312TIP3    H128495   2.863   4.950   7.460 -0.1635  0.7353  0.8175
 2312TIP3    H228496   3.006   4.907   7.482 -0.3602 -0.0492  0.6315
 2313TIP3   OH228497   4.592   2.872   1.005  0.1716 -0.2391 -0.5211
 2313TIP3    H128498   4.520   2.934   1.018  0.1376  0.0865 -2.0265
 2313TIP3    H228499   4.658   2.898   1.070 -0.3213  0.6357 -0.3477
 2314TIP3   OH228500   1.948   3.087   8.265  0.3723 -0.3340  0.0493
 2314TIP3    H128501   2.041   3.108   8.262  0.3155 -0.0093  0.5071
 2314TIP3    H228502   1.944   2.994   8.240  1.0443 -0.9533  1.9779
 2315TIP3   OH228503   4.598   6.113   8.137 -0.0011  0.4728  0.1385
 2315TIP3    H128504   4.520   6.061   8.114  2.2688 -1.9413 -3.1874
 2315TIP3    H228505   4.613   6.094   8.229 -2.3024 -0.3950  0.4203
 2316TIP3   OH228506   3.505   0.420   1.615 -0.1491  0.1599 -0.5065
 2316TIP3    H128507   3.526   0.332   1.647 -0.2643  0.5008  0.5435
 2316TIP3    H228508   3.447   0.457   1.682  2.0564  2.0183  0.5390
 2317TIP3   OH228509   3.101   4.303   0.517  0.1646 -0.2825 -0.5523
 2317TIP3    H128510   3.191   4.318   0.546  0.2334  0.2493 -1.0182
 2317TIP3    H228511   3.066   4.240   0.579  0.7726 -0.2824 -0.1999
 2318TIP3   OH228512   1.446   1.671   2.232 -0.4952 -0.0575  0.2236
 2318TIP3    H128513   1.418   1.586   2.198 -1.2737  0.2320  0.1024
 2318TIP3    H228514   1.475   1.653   2.321 -0.6611 -0.4481  0.2017
 2319TIP3   OH228515   6.727   3.944   6.810  0.2360 -0.2951 -0.1434
 2319TIP3    H128516   6.735   4.013   6.876  0.9081 -1.6037  1.1955
 2319TIP3    H228517   6.669   3.879   6.850 -2.5603  0.6004 -2.4261
 2320TIP3   OH228518   0.669   3.204   7.315  0.1383  0.6371  0.5199
 2320TIP3    H128519   0.663   3.196   7.220  2.1253 -1.6270  0.4760
 2320TIP3    H228520   0.681   3.298   7.331 -0.1066  1.0366 -1.4710
 2321TIP3   OH228521   6.074   1.533   1.732 -0.4366 -0.0921 -0.0730
 2321TIP3    H128522   6.119   1.499   1.809 -1.7174  0.4985  0.9890
 2321TIP3    H228523   6.097   1.626   1.730 -1.2033  0.1148  0.2149
 2322TIP3   OH228524   4.078   0.650   1.155 -0.5554  0.2290 -0.4168
 2322TIP3    H128525   4.029   0.718   1.201  0.1138 -0.0896  0.8192
 2322TIP3    H228526   4.112   0.595   1.225  1.5913  0.4574 -1.2342
 2323TIP3   OH228527   2.087   3.379   2.085  0.5564 -1.0221  0.4250
 2323TIP3    H128528   2.114   3.456   2.134 -0.5708  2.8605 -4.2649
 2323TIP3    H228529   2.169   3.337   2.058  1.2814  0.0210  0.9667
 2324TIP3   OH228530   4.721   5.533   7.007 -0.1512 -0.0757 -0.2436
 2324TIP3    H128531   4.719   5.553   6.913  2.6606 -0.9358 -0.5815
 2324TIP3    H228532   4.791   5.468   7.016 -1.3627 -1.1837  2.2853
 2325TIP3   OH228533   6.773   6.528   0.056  0.3462  0.8904 -0.2192
 2325TIP3    H128534   6.745   6.611   0.094 -0.5442  0.4542  0.1071
 2325TIP3    H228535   6.811   6.480   0.130 -4.2149 -1.2570  1.1059
 2326TIP3   OH228536   0.098   2.215   8.206 -0.9098 -0.3442  0.0260
 2326TIP3    H128537   0.067   2.133   8.167 -1.5348  0.2999 -0.8657
 2326TIP3    H228538   0.100   2.277   8.134  0.4554  0.2060  0.5001
 2327TIP3   OH228539   5.090   6.139   6.257  0.4322 -0.1358 -0.3817
 2327TIP3    H128540   5.048   6.208   6.307  0.2423  0.9325 -1.9547
 2327TIP3    H228541   5.183   6.163   6.256  0.7139 -1.0985  0.9031
 2328TIP3   OH228542   2.178   3.629   2.007  0.3184  0.2797  0.4905
 2328TIP3    H128543   2.091   3.641   2.043 -0.2663 -1.5344 -0.1942
 2328TIP3    H228544   2.188   3.700   1.943 -1.0661 -0.0804 -0.1489
 2329TIP3   OH228545   3.476   2.376   1.348 -0.2330  0.3825  0.4566
 2329TIP3    H128546   3.433   2.362   1.265 -0.7684  1.2351  0.5821
 2329TIP3    H228547   3.542   2.444   1.330 -0.1168  0.3210  0.6448
 2330TIP3   OH228548   0.495   3.549   7.826 -0.0985 -0.1006 -0.2475
 2330TIP3    H128549   0.471   3.458   7.845 -0.9850  0.4552  1.5260
 2330TIP3    H228550   0.411   3.594   7.816  0.3218  0.6130 -0.6059
 2331TIP3   OH228551   0.436   3.420   0.739  0.3504 -0.5791  0.0200
 2331TIP3    H128552   0.474   3.507   0.752  0.0381 -0.3664 -0.4786
 2331TIP3    H228553   0.406   3.394   0.826 -0.3931  0.2146  0.0184
 2332TIP3   OH228554   6.835   1.274   0.868  0.4901 -0.0635  0.1699
 2332TIP3    H128555   6.871   1.236   0.787 -1.0240 -0.4788 -0.3263
 2332TIP3    H228556   6.863   1.366   0.865 -0.2884  0.1534 -1.2923
 2333TIP3   OH228557   2.960   2.677   0.542 -0.5837  0.3847 -0.3395
 2333TIP3    H128558   3.012   2.749   0.576 -0.5690  0.3178 -0.2192
 2333TIP3    H228559   2.911   2.715   0.469  0.2454  0.2485 -0.9782
 2334TIP3   OH228560   5.605   0.420   1.922  0.3253  0.2650  0.4879
 2334TIP3    H128561   5.599   0.514   1.943  1.4578  0.7124 -1.0017
 2334TIP3    H228562   5.532   0.381   1.969  1.8375  1.3029  4.0497
 2335TIP3   OH228563   1.144   4.659   0.904 -0.3521  0.6683  0.5423
 2335TIP3    H128564   1.204   4.634   0.835  1.3983 -0.7019  2.4306
 2335TIP3    H228565   1.141   4.755   0.900 -0.5642  0.6132 -1.5645
 2336TIP3   OH228566   3.276   2.392   8.361  0.6575 -0.6604 -0.4441
 2336TIP3    H128567   3.294   2.303   8.391  3.2854  0.4432  1.6580
 2336TIP3    H228568   3.331   2.448   8.417 -0.4186  2.2442 -2.0822
 2337TIP3   OH228569   5.624   3.321   2.201 -0.8526  0.0120 -0.5961
 2337TIP3    H128570   5.651   3.355   2.286 -0.1691  0.1468 -0.8551
 2337TIP3    H228571   5.557   3.256   2.221 -0.8725  0.2161  0.0262
 2338TIP3   OH228572   3.926   5.798   0.772  0.5961 -0.1884  0.2997
 2338TIP3    H128573   3.926   5.732   0.840 -0.3616  0.4200  0.9138
 2338TIP3    H228574   4.011   5.789   0.729 -0.0163 -2.7225 -0.5499
 2339TIP3   OH228575   0.271   3.050   6.683  0.1157  0.0700 -0.0047
 2339TIP3    H128576   0.315   3.122   6.728 -1.0584  1.2332 -0.6439
 2339TIP3    H228577   0.317   2.972   6.713 -0.3023  0.7978  2.8764
 2340TIP3   OH228578   1.364   5.821   0.964 -0.0195 -0.1201 -0.0490
 2340TIP3    H128579   1.269   5.822   0.955  0.0686  1.1896 -1.1028
 2340TIP3    H228580   1.389   5.913   0.964  1.4093 -0.4494 -1.8142
 2341TIP3   OH228581   3.559   0.013   1.033  0.0762 -0.8322  0.4723
 2341TIP3    H128582   3.643   0.059   1.039 -0.0395 -0.3936 -1.0608
 2341TIP3    H228583   3.568  -0.045   0.957 -0.0960 -2.7546  1.8262
 2342TIP3   OH228584   4.898   3.870   7.779  0.3046 -0.0430 -0.5538
 2342TIP3    H128585   4.883   3.816   7.702 -0.1763 -0.1072 -0.4167
 2342TIP3    H228586   4.811   3.891   7.812  0.4728  1.2891 -0.9271
 2343TIP3   OH228587   4.654   2.650   0.122 -0.4684  0.1426  0.0589
 2343TIP3    H128588   4.661   2.632   0.215  1.4598  1.3918  0.2023
 2343TIP3    H228589   4.741   2.680   0.096 -1.2491  0.9021 -1.9063
 2344TIP3   OH228590   2.639   0.120   1.895  0.5379  0.3135 -0.5850
 2344TIP3    H128591   2.700   0.127   1.969  3.3136 -1.9963 -2.3931
 2344TIP3    H228592   2.560   0.082   1.933  1.2413  0.7185  1.4336
 2345TIP3   OH228593   5.877   5.846   8.343 -0.5926 -0.1925 -0.2233
 2345TIP3    H128594   5.846   5.830   8.253  0.7243 -0.9690 -0.5703
 2345TIP3    H228595   5.856   5.938   8.360  2.1450  1.0373 -2.6315
 2346TIP3   OH228596   6.172   1.869   0.185 -0.3554  0.1094  0.1751
 2346TIP3    H128597   6.174   1.777   0.160  0.3411  0.2202 -0.1760
 2346TIP3    H228598   6.110   1.909   0.124  0.1162  0.0711 -0.3283
 2347TIP3   OH228599   3.230   4.429   7.666 -0.5121 -0.1085 -0.1596
 2347TIP3    H128600   3.299   4.470   7.718 -1.3761  1.0432  0.1339
 2347TIP3    H228601   3.217   4.488   7.592 -1.9123  0.2892  0.3681
 2348TIP3   OH228602   0.440   6.758   7.286  0.1704  0.1869 -0.0733
 2348TIP3    H128603   0.490   6.800   7.356  0.1418  0.1457 -0.0280
 2348TIP3    H228604   0.494   6.685   7.258  0.0117 -0.0257  0.1647
 2349TIP3   OH228605   6.832   5.753   0.285 -0.1200  0.3466  0.2898
 2349TIP3    H128606   6.855   5.685   0.222  0.6997  0.5990  0.2993
 2349TIP3    H228607   6.807   5.706   0.364  1.4805  0.0535  0.6516
 2350TIP3   OH228608   2.355   4.575   0.631  0.0239 -0.2954  0.3029
 2350TIP3    H128609   2.287   4.511   0.652  0.6944 -0.6122  1.5804
 2350TIP3    H228610   2.429   4.552   0.687  0.9596  0.4545 -0.5717
 2351TIP3   OH228611   2.507   4.836   0.532 -0.1120  0.2270  0.2544
 2351TIP3    H128612   2.565   4.780   0.583 -1.1028 -0.0165  1.1408
 2351TIP3    H228613   2.434   4.856   0.590 -0.3150  1.5738 -0.4053
 2352TIP3   OH228614   2.718   4.689   0.626 -0.3178 -0.0449 -0.1048
 2352TIP3    H128615   2.732   4.722   0.714  0.4295 -1.1547  0.2118
 2352TIP3    H228616   2.771   4.609   0.621  0.3917  0.4769 -1.8523
 2353TIP3   OH228617   4.162   1.975   8.439 -0.4475  0.1881  0.4662
 2353TIP3    H128618   4.092   1.992   8.376  0.3918  1.5757 -0.1396
 2353TIP3    H228619   4.153   2.044   8.504  0.6832  0.7413  0.0692
 2354TIP3   OH228620   4.547   2.470   7.724 -0.4362 -0.2099 -0.3624
 2354TIP3    H128621   4.475   2.469   7.661 -1.7746 -1.6120  1.0653
 2354TIP3    H228622   4.504   2.484   7.809  1.2257  1.0290  0.3191
 2355TIP3   OH228623   0.682   1.380   2.454 -0.1464 -0.1768  0.2105
 2355TIP3    H128624   0.649   1.308   2.508 -0.9854 -0.3047 -0.4455
 2355TIP3    H228625   0.708   1.447   2.517  0.0587 -0.8011  0.8076
 2356TIP3   OH228626   1.529   1.487   1.466 -0.5337 -0.4409 -0.5862
 2356TIP3    H128627   1.487   1.437   1.396 -0.8020  1.3037 -1.7162
 2356TIP3    H228628   1.537   1.575   1.432  0.1542  0.2677  1.2622
 2357TIP3   OH228629   1.904   2.459   1.063 -0.0845  0.3890  0.3905
 2357TIP3    H128630   1.905   2.549   1.033 -0.5227  0.2479 -0.0628
 2357TIP3    H228631   1.916   2.407   0.983 -1.0716  0.0126  0.4700
 2358TIP3   OH228632   6.360   5.839   0.679  0.2448 -0.3971 -0.0018
 2358TIP3    H128633   6.399   5.825   0.592  1.5520 -1.0852  0.6640
 2358TIP3    H228634   6.321   5.755   0.701 -0.4952 -0.0862 -0.1038
 2359TIP3   OH228635   6.673   2.757   7.905 -0.5739  0.2313 -0.1521
 2359TIP3    H128636   6.766   2.774   7.891  0.1503 -2.5370  0.8152
 2359TIP3    H228637   6.649   2.695   7.837 -1.7653  0.9271 -0.3969
 2360TIP3   OH228638   3.388   6.412   0.818 -0.1711  0.3166 -0.2608
 2360TIP3    H128639   3.294   6.426   0.808 -0.4874 -1.2743  0.1917
 2360TIP3    H228640   3.404   6.429   0.911 -0.7421 -2.8544  0.5346
 2361TIP3   OH228641   1.844   6.612   1.968 -0.2049 -0.0863 -0.0586
 2361TIP3    H128642   1.868   6.671   2.040 -0.7973 -1.1023  1.0135
 2361TIP3    H228643   1.894   6.532   1.985  0.1200 -0.1284 -1.1460
 2362TIP3   OH228644   5.979   6.275   0.518  0.1210 -0.2967  0.4091
 2362TIP3    H128645   6.019   6.339   0.577 -0.7651 -0.1235  0.8305
 2362TIP3    H228646   6.025   6.193   0.537  0.1660 -0.1364  1.0048
 2363TIP3   OH228647   5.177   6.106   0.118  0.2358 -0.2980 -0.1400
 2363TIP3    H128648   5.215   6.146   0.040 -1.6519  0.7731 -0.5763
 2363TIP3    H228649   5.115   6.041   0.085  1.8933 -2.3312  0.5576
 2364TIP3   OH228650   6.276   5.374   2.069  0.2315  0.4844 -0.2897
 2364TIP3    H128651   6.280   5.338   2.158 -2.1182  1.5970  0.3546
 2364TIP3    H228652   6.337   5.447   2.071  0.9255 -0.0904  0.0977
 2365TIP3   OH228653   1.083   4.021   8.083  0.3708  0.4041 -0.4842
 2365TIP3    H128654   0.998   4.050   8.051  0.2588  0.7363  0.0982
 2365TIP3    H228655   1.143   4.032   8.009 -0.2556 -0.6155 -1.1548
 2366TIP3   OH228656   5.093   0.944   7.223 -0.2131  0.1536  0.1462
 2366TIP3    H128657   5.153   0.870   7.227 -0.6740 -0.3153 -1.1716
 2366TIP3    H228658   5.060   0.944   7.133  1.3694  3.2670 -0.5587
 2367TIP3   OH228659   6.639   6.610   1.672  0.1448  0.4286 -0.6101
 2367TIP3    H128660   6.712   6.549   1.655  0.3799  0.1248  1.2750
 2367TIP3    H228661   6.682   6.694   1.687  0.0307  0.4643 -0.4854
 2368TIP3   OH228662   0.700   6.736   6.493  0.4110 -0.0538  0.7783
 2368TIP3    H128663   0.654   6.805   6.540  0.0043 -0.4488  0.9648
 2368TIP3    H228664   0.791   6.745   6.519  0.3821  0.5026  0.6901
 2369TIP3   OH228665   5.956   0.124   8.309 -0.0567 -0.5903 -0.3773
 2369TIP3    H128666   6.029   0.118   8.248  1.1570 -0.3765  0.9841
 2369TIP3    H228667   5.887   0.070   8.270  0.1966  0.5119 -2.4946
 2370TIP3   OH228668   0.435   4.836   7.529 -0.7427  0.0615 -0.7573
 2370TIP3    H128669   0.528   4.852   7.518 -0.5152  0.4091  1.3476
 2370TIP3    H228670   0.392   4.904   7.477  0.1600  0.2051 -1.3253
 2371TIP3   OH228671   0.265   3.083   0.574  1.4695 -0.4198  0.0623
 2371TIP3    H128672   0.255   2.990   0.552  0.2820 -0.4590  0.6887
 2371TIP3    H228673   0.286   3.084   0.667  1.1724 -0.0555  0.1288
 2372TIP3   OH228674   3.196   1.077   1.366 -0.3700 -0.1504 -0.2174
 2372TIP3    H128675   3.272   1.023   1.343 -0.3892 -0.4356  0.3619
 2372TIP3    H228676   3.211   1.160   1.320 -0.9087 -1.0182 -2.0374
 2373TIP3   OH228677   4.063   1.781   1.144  0.8037  0.7462  0.2137
 2373TIP3    H128678   4.111   1.792   1.062  1.2454 -0.0224  0.3583
 2373TIP3    H228679   4.102   1.703   1.184 -0.2333  0.4006  0.5731
 2374TIP3   OH228680   3.916   6.755   1.519 -0.2668 -0.2833  0.2486
 2374TIP3    H128681   3.906   6.662   1.499  0.0405 -0.3694  0.4867
 2374TIP3    H228682   3.994   6.782   1.470  0.6470 -0.5568  1.4953
 2375TIP3   OH228683   1.331   4.032   1.285  0.6229 -0.4414  0.1220
 2375TIP3    H128684   1.270   3.963   1.261 -1.5899  1.3805  0.1173
 2375TIP3    H228685   1.292   4.072   1.363  2.3476  0.2123  0.7022
 2376TIP3   OH228686   2.581   5.698   7.071  0.7041  0.3089  1.0223
 2376TIP3    H128687   2.550   5.778   7.029  0.1299  0.1716  1.1743
 2376TIP3    H228688   2.676   5.704   7.067  0.6894  0.0760 -0.7309
 2377TIP3   OH228689   3.390   3.234   0.730 -0.1511  0.1130  0.6485
 2377TIP3    H128690   3.419   3.185   0.806 -0.0304 -0.2919  0.3429
 2377TIP3    H228691   3.321   3.180   0.691  0.3380 -0.0735  0.0152
 2378TIP3   OH228692   4.041   0.203   0.624  0.1778  0.1242 -0.5039
 2378TIP3    H128693   4.018   0.293   0.648 -2.7344 -0.6033 -0.2039
 2378TIP3    H228694   4.016   0.151   0.701  2.6116 -0.9123 -0.3247
 2379TIP3   OH228695   5.600   4.307   0.222  0.0414  0.3474 -0.1848
 2379TIP3    H128696   5.634   4.368   0.287  0.7123  0.5915 -0.7425
 2379TIP3    H228697   5.562   4.362   0.154 -0.1754  0.1147 -0.2559
 2380TIP3   OH228698   5.321   1.097   1.008  0.0422 -0.3539 -0.1244
 2380TIP3    H128699   5.334   1.192   1.010 -0.9013 -0.1989 -0.3923
 2380TIP3    H228700   5.272   1.082   0.927 -0.0655 -1.0369  0.0618
 2381TIP3   OH228701   6.410   1.804   7.802  0.5786  0.2915 -0.0017
 2381TIP3    H128702   6.354   1.800   7.724 -0.5834  2.1746  0.6894
 2381TIP3    H228703   6.492   1.764   7.774 -0.7897 -1.8177 -1.2921
 2382TIP3   OH228704   3.426   1.743   1.226 -0.0105  0.1857  0.9142
 2382TIP3    H128705   3.479   1.737   1.305  0.4463  1.2267  0.6940
 2382TIP3    H228706   3.378   1.825   1.236 -1.0188 -0.3678  0.7535
 2383TIP3   OH228707   4.684   2.882   8.118 -0.2381 -0.7555 -0.0536
 2383TIP3    H128708   4.596   2.844   8.111 -0.5061 -0.0193 -0.8958
 2383TIP3    H228709   4.670   2.965   8.164  0.0959 -0.8636  0.2497
 2384TIP3   OH228710   3.065   0.856   7.688 -0.3741  0.2039 -0.1989
 2384TIP3    H128711   3.110   0.772   7.701  1.2446  1.1838  0.9407
 2384TIP3    H228712   3.057   0.865   7.593  3.4080  0.6554 -0.6537
 2385TIP3   OH228713   5.190   1.926   8.337  0.0808 -0.5738 -1.0392
 2385TIP3    H128714   5.170   1.979   8.414 -0.7688 -2.2827 -0.0443
 2385TIP3    H228715   5.285   1.927   8.332  0.1024  0.5396 -0.6870
 2386TIP3   OH228716   4.230   5.165   1.144 -0.3748 -0.3608  0.4390
 2386TIP3    H128717   4.187   5.194   1.064 -0.6129 -0.4459  0.5372
 2386TIP3    H228718   4.185   5.212   1.215  0.8575  0.9493  0.4194
 2387TIP3   OH228719   3.439   2.119   8.327 -0.1324  0.6012  0.0403
 2387TIP3    H128720   3.451   2.029   8.358 -0.5331  0.9518  1.2440
 2387TIP3    H228721   3.470   2.117   8.236  0.6771 -0.5431  0.3249
 2388TIP3   OH228722   1.627   0.324   0.191  0.6714  0.3132  0.0698
 2388TIP3    H128723   1.570   0.327   0.268 -1.1805  1.8018 -1.2501
 2388TIP3    H228724   1.673   0.408   0.192  1.4280 -0.0937  0.0953
 2389TIP3   OH228725   4.045   2.684   2.663 -0.4990  0.0836 -0.2794
 2389TIP3    H128726   4.082   2.601   2.634  0.2627  0.9952 -2.1071
 2389TIP3    H228727   4.103   2.713   2.733 -1.1903 -1.2299  0.8836
 2390TIP3   OH228728   5.815   5.575   7.761 -0.1182 -0.0884 -0.1479
 2390TIP3    H128729   5.803   5.551   7.669  0.4813  0.3667 -0.3574
 2390TIP3    H228730   5.882   5.514   7.793  0.5103  0.4793 -0.3421
 2391TIP3   OH228731   3.340   6.894   8.005 -0.0407  0.2389 -0.4679
 2391TIP3    H128732   3.403   6.945   7.954 -0.3460  0.3707 -0.7182
 2391TIP3    H228733   3.257   6.941   7.994 -0.8355 -1.4511 -2.4827
 2392TIP3   OH228734   6.529   0.769   1.355 -0.2050  0.0709  0.4794
 2392TIP3    H128735   6.467   0.841   1.345 -1.3975 -0.6084  2.6163
 2392TIP3    H228736   6.572   0.764   1.269 -1.3463  2.1334 -0.2968
 2393TIP3   OH228737   2.377   1.395   0.506  0.6406  0.0841 -0.5197
 2393TIP3    H128738   2.450   1.392   0.444 -0.0226  2.1660 -1.4978
 2393TIP3    H228739   2.324   1.470   0.478 -2.4836 -1.9169 -0.4615
 2394TIP3   OH228740   0.444   6.002   1.185  0.6041  0.1842  0.2309
 2394TIP3    H128741   0.410   6.090   1.168  1.0398  0.2445 -0.3542
 2394TIP3    H228742   0.365   5.948   1.192  0.3571  0.1514 -2.0604
 2395TIP3   OH228743   2.930   3.747   0.281 -0.4290  0.1864  0.1501
 2395TIP3    H128744   2.888   3.833   0.283 -1.7926 -0.4518 -0.2349
 2395TIP3    H228745   2.900   3.704   0.361  1.0765  0.4202  0.8771
 2396TIP3   OH228746   2.804   3.102   2.381 -0.4778 -0.4133 -0.3042
 2396TIP3    H128747   2.899   3.104   2.373 -0.3891 -1.9804  0.1032
 2396TIP3    H228748   2.784   3.013   2.408 -2.2750 -0.8904 -2.9245
 2397TIP3   OH228749   3.149   4.775   1.213 -0.5423  0.1244  0.2298
 2397TIP3    H128750   3.218   4.755   1.276 -0.8233  0.1733  0.5520
 2397TIP3    H228751   3.110   4.857   1.245 -0.5435  0.2649 -0.1252
 2398TIP3   OH228752   0.851   4.293   1.463  0.2179  0.3670  0.4789
 2398TIP3    H128753   0.857   4.228   1.533 -1.7444 -0.0064  0.3552
 2398TIP3    H228754   0.930   4.346   1.473  2.5242 -2.6563 -0.1074
 2399TIP3   OH228755   2.025   4.070   0.064  0.0889 -0.1918  0.0964
 2399TIP3    H128756   1.984   4.091   0.147 -0.3892 -3.2774  0.7832
 2399TIP3    H228757   2.001   4.142   0.006 -1.1750  1.0948  2.0995
 2400TIP3   OH228758   0.704   0.816   7.964  0.3129 -0.0519  0.0575
 2400TIP3    H128759   0.636   0.843   7.902 -0.5661 -0.3977  0.8496
 2400TIP3    H228760   0.786   0.850   7.926 -0.0352 -1.1992 -1.8439
 2401TIP3   OH228761   5.857   2.785   6.749 -0.0000  0.8038 -0.1191
 2401TIP3    H128762   5.884   2.700   6.717  2.6768  0.7142  2.0570
 2401TIP3    H228763   5.802   2.766   6.825  0.9518  0.9653  0.6298
 2402TIP3   OH228764   4.288   6.589   7.289 -0.3495 -0.0223 -0.3209
 2402TIP3    H128765   4.354   6.521   7.300 -0.5712 -0.6512 -2.4551
 2402TIP3    H228766   4.291   6.639   7.371  0.1949 -2.2275  1.0784
 2403TIP3   OH228767   5.694   2.899   0.448  0.1102  0.2478 -0.2854
 2403TIP3    H128768   5.761   2.853   0.398  1.3413  3.7664 -2.1842
 2403TIP3    H228769   5.612   2.878   0.404 -0.0053 -2.8896  1.1503
 2404TIP3   OH228770   0.343   6.203   1.354 -0.3356 -0.8694  0.2144
 2404TIP3    H128771   0.393   6.285   1.358  0.4038 -1.3328  0.9088
 2404TIP3    H228772   0.320   6.184   1.445 -0.3763 -1.4999  0.0794
 2405TIP3   OH228773   5.339   1.551   6.734  0.4782  0.0337  0.5212
 2405TIP3    H128774   5.428   1.540   6.767  0.6726  0.9556  0.3309
 2405TIP3    H228775   5.344   1.627   6.675 -0.3540 -0.1324  0.2186
 2406TIP3   OH228776   0.957   5.845   1.231  0.1248  0.1697 -0.2070
 2406TIP3    H128777   0.917   5.851   1.318  2.1503  2.0985  0.6542
 2406TIP3    H228778   1.007   5.763   1.233 -0.1928 -0.0153  0.2663
 2407TIP3   OH228779   2.742   5.806   7.528 -0.1370 -0.1113  0.0381
 2407TIP3    H128780   2.667   5.766   7.570  0.5550 -1.4799  0.0263
 2407TIP3    H228781   2.793   5.843   7.601 -0.2837 -0.1013  0.1366
 2408TIP3   OH228782   4.893   4.759   7.429  0.2154 -0.0393 -0.0645
 2408TIP3    H128783   4.981   4.779   7.397  0.5133 -0.7453  0.2830
 2408TIP3    H228784   4.907   4.689   7.492 -0.2844  1.6208  1.9970
 2409TIP3   OH228785   3.268   4.542   8.012  0.0055  0.0515  0.2176
 2409TIP3    H128786   3.316   4.559   8.093 -0.6803 -1.0559  0.8833
 2409TIP3    H228787   3.333   4.551   7.943  0.5127  1.4179  0.8465
 2410TIP3   OH228788   2.041   4.949   0.896  0.1342  0.0665 -0.4140
 2410TIP3    H128789   2.109   4.882   0.904  0.1177  0.0263 -0.6110
 2410TIP3    H228790   2.079   5.015   0.839  0.2375  0.3374 -0.0372
 2411TIP3   OH228791   3.132   5.649   0.399  0.0518  0.1659 -0.3346
 2411TIP3    H128792   3.088   5.708   0.461 -2.1374 -0.1812 -1.4608
 2411TIP3    H228793   3.141   5.567   0.446 -0.0181  0.4003  0.0942
 2412TIP3   OH228794   2.655   6.338   2.105 -0.0966  0.0659 -0.1230
 2412TIP3    H128795   2.657   6.243   2.090 -1.6776  0.1370 -0.9615
 2412TIP3    H228796   2.682   6.348   2.196 -0.4685 -1.2414  0.1537
 2413TIP3   OH228797   5.615   3.520   0.319  0.4559  0.1461 -0.4589
 2413TIP3    H128798   5.561   3.442   0.307  2.4252 -1.8390  2.4594
 2413TIP3    H228799   5.565   3.574   0.381  0.2012  0.0380 -0.5670
 2414TIP3   OH228800   3.052   6.741   7.385 -0.1179 -0.5436 -0.3114
 2414TIP3    H128801   3.036   6.658   7.429  3.0170 -1.7522 -1.1746
 2414TIP3    H228802   3.137   6.769   7.418  0.3336  0.7018 -2.3645
 2415TIP3   OH228803   3.813   4.846   1.737  0.4099  0.6512  0.4093
 2415TIP3    H128804   3.834   4.764   1.782  0.4184 -0.0583 -0.8458
 2415TIP3    H228805   3.841   4.832   1.647 -2.0005  1.0199 -0.4690
 2416TIP3   OH228806   1.856   6.646   0.733  0.0918  0.1321  0.0415
 2416TIP3    H128807   1.927   6.698   0.695 -0.5951  1.4534  0.5305
 2416TIP3    H228808   1.807   6.708   0.787 -0.2605 -1.2005  1.3159
 2417TIP3   OH228809   1.555   6.356   1.278  0.0806  0.4802  0.5174
 2417TIP3    H128810   1.649   6.350   1.259 -0.1227  2.9441 -2.0187
 2417TIP3    H228811   1.536   6.449   1.273 -2.4350  0.1017  1.6281
 2418TIP3   OH228812   0.326   3.386   0.981 -0.3604  0.8333  0.7901
 2418TIP3    H128813   0.268   3.461   0.969 -1.2240  0.0193 -0.4549
 2418TIP3    H228814   0.295   3.344   1.061 -0.7790  1.0174  0.7277
 2419TIP3   OH228815   0.061   0.012   0.229 -0.4515 -0.1108  0.2140
 2419TIP3    H128816   0.044  -0.057   0.292 -1.0854 -0.3475 -0.2143
 2419TIP3    H228817   0.085  -0.034   0.148  4.1115  0.1113  1.1441
 2420TIP3   OH228818   2.389   2.688   2.442  0.3354 -0.8540  0.1795
 2420TIP3    H128819   2.323   2.686   2.512  0.2842 -3.5155  0.1910
 2420TIP3    H228820   2.451   2.619   2.468  1.6274 -0.2437 -1.2059
 2421TIP3   OH228821   4.409   3.747   2.675 -0.0596  0.5068  0.4049
 2421TIP3    H128822   4.493   3.738   2.719  1.3807 -0.3912 -2.3086
 2421TIP3    H228823   4.393   3.841   2.672 -1.2071  0.6074  4.3420
 2422TIP3   OH228824   1.556   5.845   0.071  0.2203  0.8511  0.4996
 2422TIP3    H128825   1.559   5.906  -0.003  2.4601 -1.9625 -1.9669
 2422TIP3    H228826   1.465   5.814   0.073 -0.7097  3.3734  1.1941
 2423TIP3   OH228827   3.782   0.657   1.321 -0.0774 -0.5645  0.0155
 2423TIP3    H128828   3.764   0.658   1.227 -1.6181  0.4214  0.2957
 2423TIP3    H228829   3.816   0.744   1.340  0.8502 -0.9700  0.2838
 2424TIP3   OH228830   6.849   2.647   0.438  0.0488 -0.3614 -1.0871
 2424TIP3    H128831   6.889   2.579   0.493  0.4843 -0.8524 -1.9752
 2424TIP3    H228832   6.921   2.677   0.382  0.3018  2.0492  0.3745
 2425TIP3   OH228833   6.006   0.319   1.617  0.2201  0.0777 -0.4632
 2425TIP3    H128834   6.087   0.365   1.641 -1.6854  3.5328  0.1184
 2425TIP3    H228835   5.939   0.360   1.672 -2.6789  0.8128 -4.1371
 2426TIP3   OH228836   5.571   1.911   0.204  0.0974  0.5761  0.1327
 2426TIP3    H128837   5.509   1.942   0.271 -2.0580  0.0111 -1.4907
 2426TIP3    H228838   5.640   1.868   0.254 -0.6666  1.4381  2.0574
 2427TIP3   OH228839   5.598   3.722   0.539  0.7065  0.0882 -0.1127
 2427TIP3    H128840   5.585   3.816   0.531  1.3579  0.3407  1.4774
 2427TIP3    H228841   5.545   3.696   0.614  2.0430 -0.4416  0.6935
 2428TIP3   OH228842   0.602   3.205   2.445 -0.1451  0.3492  0.0608
 2428TIP3    H128843   0.595   3.112   2.462 -0.2718  0.4830  0.7417
 2428TIP3    H228844   0.693   3.218   2.417 -0.3084 -0.0757 -0.6940
 2429TIP3   OH228845   1.971   4.610   1.676 -0.2874 -0.5404  0.1108
 2429TIP3    H128846   2.015   4.665   1.611 -1.3566 -0.0924 -0.2702
 2429TIP3    H228847   1.892   4.660   1.698 -1.5795 -2.1623 -0.6528
 2430TIP3   OH228848   2.599   6.824   7.187 -0.5240  0.6086 -0.3712
 2430TIP3    H128849   2.643   6.828   7.103  0.3113  4.2314  0.0533
 2430TIP3    H228850   2.670   6.808   7.250 -0.8595 -0.2064 -0.1938
 2431TIP3   OH228851   1.732   0.764   1.361  0.4192 -0.2946 -0.4524
 2431TIP3    H128852   1.778   0.827   1.306 -0.1861 -0.1028 -0.7354
 2431TIP3    H228853   1.762   0.784   1.450 -0.4455  0.9856 -0.4300
 2432TIP3   OH228854   1.677   1.416   7.411  0.2217  0.6881  0.0900
 2432TIP3    H128855   1.745   1.350   7.400  0.4066  0.0198  3.7271
 2432TIP3    H228856   1.608   1.371   7.461 -0.7536  2.5675  0.5508
 2433TIP3   OH228857   2.907   0.873   1.708  0.5706  0.4213  0.6763
 2433TIP3    H128858   2.948   0.916   1.634  1.1315  0.3596  0.9469
 2433TIP3    H228859   2.832   0.827   1.670  0.0705  1.4757  0.3636
 2434TIP3   OH228860   3.196   2.074   0.424  0.3831 -0.7412  0.1384
 2434TIP3    H128861   3.232   2.008   0.366  1.0330 -1.1253  0.9549
 2434TIP3    H228862   3.220   2.158   0.384 -0.2154 -0.9828 -0.7588
 2435TIP3   OH228863   5.885   6.615   1.129 -0.5442  0.8714 -0.1005
 2435TIP3    H128864   5.971   6.618   1.086 -0.1674 -3.2836 -0.0418
 2435TIP3    H228865   5.825   6.652   1.065  0.8080  0.3152 -1.7777
 2436TIP3   OH228866   5.735   5.357   6.988  0.1063 -0.0900 -0.0384
 2436TIP3    H128867   5.769   5.395   6.907  1.0277  1.8177  1.1867
 2436TIP3    H228868   5.813   5.331   7.037 -0.3058  0.9000  1.1998
 2437TIP3   OH228869   2.575   5.532   2.108  0.2571 -0.4177  0.5716
 2437TIP3    H128870   2.492   5.494   2.136 -0.8933  0.1189 -1.8622
 2437TIP3    H228871   2.558   5.626   2.102  1.3548 -0.1769  0.9685
 2438TIP3   OH228872   6.004   1.295   0.974  0.0416  0.2855 -0.6179
 2438TIP3    H128873   5.937   1.235   0.940  1.5374 -1.2303 -1.0369
 2438TIP3    H228874   5.974   1.318   1.061 -1.9030  1.0935 -1.4529
 2439TIP3   OH228875   6.269   6.790   2.188 -0.2330  0.2899  0.1894
 2439TIP3    H128876   6.355   6.819   2.220 -0.2844  0.4355  0.1973
 2439TIP3    H228877   6.246   6.716   2.244 -0.2985  0.5102  0.4536
 2440TIP3   OH228878   1.036   0.933   1.008  0.1094  0.1575 -0.4515
 2440TIP3    H128879   0.989   0.865   1.057  1.5114 -1.7529 -1.6501
 2440TIP3    H228880   1.109   0.957   1.065  0.2199 -0.1087 -0.4821
 2441TIP3   OH228881   4.341   6.592   0.339 -0.7969  0.3830  0.0277
 2441TIP3    H128882   4.396   6.542   0.399 -1.9120  1.0079  1.6135
 2441TIP3    H228883   4.380   6.576   0.253  0.3001 -1.2580  0.7790
 2442TIP3   OH228884   3.641   0.092   6.557  0.3651 -0.0278  0.1219
 2442TIP3    H128885   3.650   0.157   6.488 -1.5483  0.2330  0.0895
 2442TIP3    H228886   3.558   0.112   6.600  0.3189 -1.6935  0.8989
 2443TIP3   OH228887   4.891   5.014   8.501  0.3037  0.2768 -0.2092
 2443TIP3    H128888   4.867   4.978   8.415  1.0476 -0.9373  0.0775
 2443TIP3    H228889   4.810   5.054   8.533 -0.7324 -1.6422 -0.2987
 2444TIP3   OH228890   3.568   6.748   8.313 -0.3047 -0.3154  0.0540
 2444TIP3    H128891   3.540   6.779   8.399  0.3376  1.2423 -0.2654
 2444TIP3    H228892   3.578   6.827   8.261 -0.1914 -1.1939 -1.3189
 2445TIP3   OH228893   4.046   0.608   8.225 -0.6577  0.1732  0.3297
 2445TIP3    H128894   4.140   0.594   8.208 -0.5495  0.0436  1.0096
 2445TIP3    H228895   4.032   0.700   8.204 -0.7768 -0.2277 -1.5194
 2446TIP3   OH228896   5.413   6.465   1.228 -0.3492  0.2135 -0.1586
 2446TIP3    H128897   5.504   6.495   1.233  0.2628 -1.5430 -0.0941
 2446TIP3    H228898   5.413   6.378   1.269 -2.7286  1.4623  2.8666
 2447TIP3   OH228899   5.788   2.971   7.860  0.5705 -0.2270 -0.3698
 2447TIP3    H128900   5.748   2.979   7.773  0.8732 -1.2160 -0.6091
 2447TIP3    H228901   5.746   2.895   7.899  1.6509 -0.8383 -0.3346
 2448TIP3   OH228902   5.141   4.365   8.239  0.2714  0.6976  0.2743
 2448TIP3    H128903   5.116   4.371   8.331  0.9433 -1.1070  0.6026
 2448TIP3    H228904   5.162   4.273   8.225 -0.8586  0.7088 -1.9688
 2449TIP3   OH228905   2.870   4.444   0.651 -0.2237 -0.1785 -0.2880
 2449TIP3    H128906   2.871   4.426   0.745 -3.1312 -0.0050 -0.1105
 2449TIP3    H228907   2.953   4.409   0.619  0.9478 -0.0726  2.3372
 2450TIP3   OH228908   6.273   5.195   1.171  0.9155  0.6057  0.0625
 2450TIP3    H128909   6.352   5.151   1.200  0.2224 -0.7770 -0.0552
 2450TIP3    H228910   6.280   5.198   1.075  0.3058 -0.6202 -0.0444
 2451TIP3   OH228911   6.484   3.034   6.129  0.4525  0.0893 -0.1573
 2451TIP3    H128912   6.561   2.977   6.132 -0.3907 -1.0462  0.8172
 2451TIP3    H228913   6.410   2.976   6.146 -0.5354  1.3111 -0.1339
 2452TIP3   OH228914   5.064   0.610   1.762  0.1579  0.4202 -0.0125
 2452TIP3    H128915   5.124   0.592   1.834  1.7559  1.6247 -0.9544
 2452TIP3    H228916   5.091   0.550   1.693 -1.3415 -0.7080  0.3501
 2453TIP3   OH228917   2.241   3.151   0.844 -0.1429 -0.0857  0.0008
 2453TIP3    H128918   2.206   3.074   0.799 -1.7829 -0.0349  1.1073
 2453TIP3    H228919   2.308   3.117   0.903  0.4092 -0.4194 -0.8011
 2454TIP3   OH228920   6.631   3.970   8.433 -0.7544 -0.2809  0.2620
 2454TIP3    H128921   6.627   3.880   8.467 -0.4000 -0.5709 -0.4275
 2454TIP3    H228922   6.551   4.011   8.465 -0.9014 -0.8269  0.6280
 2455TIP3   OH228923   6.327   6.255   8.291 -0.2675 -0.1827  0.3865
 2455TIP3    H128924   6.411   6.216   8.268  0.0849 -0.0548  1.3918
 2455TIP3    H228925   6.291   6.287   8.208  0.3079 -0.9432 -0.1638
 2456TIP3   OH228926   6.209   1.521   0.453  0.1355  0.0219  0.2466
 2456TIP3    H128927   6.245   1.436   0.427 -0.6410 -0.8257  1.7973
 2456TIP3    H228928   6.285   1.572   0.479  0.4956 -0.7440  0.7460
 2457TIP3   OH228929   6.232   6.565   2.370  0.1316  0.0416  0.0586
 2457TIP3    H128930   6.185   6.524   2.298 -1.4061  0.8147  0.5680
 2457TIP3    H228931   6.280   6.493   2.412 -0.0052 -0.6416 -0.9357
 2458TIP3   OH228932   5.576   5.740   1.513 -0.2627 -0.2338 -0.3916
 2458TIP3    H128933   5.530   5.749   1.597  0.0911  1.0513 -0.3111
 2458TIP3    H228934   5.505   5.734   1.449 -0.5402 -0.3921 -0.0795
 2459TIP3   OH228935   1.957   3.005   8.518 -0.3310 -0.0047  0.2397
 2459TIP3    H128936   1.954   3.075   8.452  0.2745  0.2997  0.5289
 2459TIP3    H228937   1.923   2.928   8.472 -0.2904  0.3003 -0.3106
 2460TIP3   OH228938   4.852   1.799   0.454  0.4023 -0.7460  0.0026
 2460TIP3    H128939   4.894   1.730   0.402  0.3959 -0.6060 -0.1899
 2460TIP3    H228940   4.767   1.813   0.412 -0.4580 -2.0312  1.2348
 2461TIP3   OH228941   3.456   0.108   1.384 -0.5927 -0.4515 -0.1134
 2461TIP3    H128942   3.374   0.110   1.434 -0.8062  0.6256 -0.4660
 2461TIP3    H228943   3.485   0.199   1.384 -0.0910 -0.6031 -1.1266
 2462TIP3   OH228944   6.108   1.226   7.448  1.1031  0.8527 -0.0749
 2462TIP3    H128945   6.163   1.165   7.496  1.6507  0.0600 -1.6260
 2462TIP3    H228946   6.169   1.292   7.414  0.9758  0.5630 -0.9042
 2463TIP3   OH228947   5.953   6.387   7.298 -0.1734  0.1345  0.6374
 2463TIP3    H128948   5.947   6.393   7.393 -2.4681 -3.9944  0.9777
 2463TIP3    H228949   6.013   6.314   7.282 -0.8930 -0.1450 -1.0237
 2464TIP3   OH228950   1.963   4.420   0.880  0.1232  0.1587  0.4745
 2464TIP3    H128951   2.049   4.418   0.923  1.3039 -0.3719 -1.7492
 2464TIP3    H228952   1.967   4.494   0.820 -2.3348  2.3199  2.7045
 2465TIP3   OH228953   6.842   4.104   7.417  0.2360 -0.3450  0.6106
 2465TIP3    H128954   6.864   4.013   7.394 -0.6800 -0.6730  0.9725
 2465TIP3    H228955   6.773   4.095   7.483 -1.1227  0.6189 -0.6215
 2466TIP3   OH228956   5.649   5.037   7.492  0.1631 -0.0265 -0.4388
 2466TIP3    H128957   5.672   5.047   7.400  1.3095 -0.3531 -0.2109
 2466TIP3    H228958   5.558   5.007   7.492  0.0712  0.2363 -1.4483
 2467TIP3   OH228959   0.321   3.002   3.223  0.2014 -0.1555 -0.1585
 2467TIP3    H128960   0.323   3.096   3.244  0.6235 -0.0626 -0.5989
 2467TIP3    H228961   0.354   2.997   3.133  0.7635 -0.7855  0.0770
 2468TIP3   OH228962   0.141   2.287   0.844  0.2258 -0.3632  0.1950
 2468TIP3    H128963   0.098   2.364   0.881 -0.2311 -0.1975 -0.6550
 2468TIP3    H228964   0.189   2.248   0.917 -0.7516 -0.1180  0.9766
 2469TIP3   OH228965   0.439   5.226   7.501  0.2477 -0.2391  0.1350
 2469TIP3    H128966   0.498   5.288   7.458 -0.2441  0.4442  0.4245
 2469TIP3    H228967   0.367   5.215   7.438 -0.4954  0.7953  0.7642
 2470TIP3   OH228968   0.767   2.138   1.977 -0.0870 -0.3475 -0.5020
 2470TIP3    H128969   0.674   2.116   1.980 -0.2750  0.5282  1.5095
 2470TIP3    H228970   0.768   2.227   1.941 -0.2175  0.3859  1.2388
 2471TIP3   OH228971   1.415   5.919   7.848  0.5753  0.2409 -0.9060
 2471TIP3    H128972   1.497   5.871   7.834  0.3023 -0.5107 -0.0195
 2471TIP3    H228973   1.361   5.894   7.773  0.4897 -0.7474 -0.5303
 2472TIP3   OH228974   0.182   5.678   0.313 -0.7240  0.5545  0.0727
 2472TIP3    H128975   0.257   5.709   0.364  1.1899  0.5291 -2.5059
 2472TIP3    H228976   0.117   5.654   0.378  1.3718  0.9030  2.4617
 2473TIP3   OH228977   4.552   3.473   0.885  0.6003 -0.3864  0.0534
 2473TIP3    H128978   4.517   3.397   0.838 -0.1952  0.6908 -1.1371
 2473TIP3    H228979   4.518   3.549   0.839  0.8446  0.7352  1.6166
 2474TIP3   OH228980   4.460   2.865   8.526 -0.2067 -0.5233  0.4708
 2474TIP3    H128981   4.485   2.773   8.518  1.9488  0.1115 -0.9904
 2474TIP3    H228982   4.469   2.900   8.437  1.6968  1.6975  1.4336
 2475TIP3   OH228983   2.375   2.976   8.059 -0.6256  0.1612  0.1961
 2475TIP3    H128984   2.298   2.955   8.113 -0.2124 -0.2503  0.6366
 2475TIP3    H228985   2.444   2.919   8.093 -0.2083  0.3007 -0.4061
 2476TIP3   OH228986   6.910   3.776   6.692 -0.6519  0.3813 -0.4864
 2476TIP3    H128987   6.873   3.727   6.617 -1.1824 -0.6418  0.4087
 2476TIP3    H228988   6.833   3.813   6.736 -0.3070  1.3478 -0.6842
 2477TIP3   OH228989   2.681   4.692   6.355  0.1387  0.5860 -0.2011
 2477TIP3    H128990   2.647   4.734   6.434 -0.0414  0.6493 -0.3112
 2477TIP3    H228991   2.747   4.753   6.323  2.6272 -0.9286  1.7009
 2478TIP3   OH228992   0.495   6.093   6.761  0.0061 -0.6770  0.1202
 2478TIP3    H128993   0.494   6.187   6.742 -0.3398 -0.5950  0.5317
 2478TIP3    H228994   0.403   6.069   6.767  0.0384 -1.4384 -1.8424
 2479TIP3   OH228995   2.279   1.808   2.685 -0.1359 -0.2048 -1.0059
 2479TIP3    H128996   2.238   1.810   2.771  2.0802 -0.2538  0.1079
 2479TIP3    H228997   2.266   1.897   2.650  1.5106  0.7775  0.6989
 2480TIP3   OH228998   3.557   6.800   1.353 -0.2034 -0.5771  0.6170
 2480TIP3    H128999   3.512   6.884   1.359 -0.0104 -0.2549 -1.4860
 2480TIP3    H229000   3.496   6.744   1.305 -0.2149 -1.5656  1.7531
 2481TIP3   OH229001   5.768   0.372   6.832 -0.0366  0.0202 -0.0284
 2481TIP3    H129002   5.686   0.389   6.878 -0.4616  0.9224 -1.0627
 2481TIP3    H229003   5.743   0.317   6.758  0.3935 -0.2070 -0.0097
 2482TIP3   OH229004   4.660   1.553   2.412  0.1446 -0.7628 -0.2702
 2482TIP3    H129005   4.746   1.517   2.435 -0.2274 -0.5765  1.4904
 2482TIP3    H229006   4.602   1.528   2.484 -0.2368  2.9216  0.9431
 2483TIP3   OH229007   5.884   2.823   8.345  0.0621 -0.1326  0.1099
 2483TIP3    H129008   5.962   2.850   8.296  0.9812 -0.9567  1.0581
 2483TIP3    H229009   5.814   2.822   8.281  0.6867  1.2816 -0.6368
 2484TIP3   OH229010   1.355   0.188   8.332  0.1707 -0.2819  0.4804
 2484TIP3    H129011   1.428   0.238   8.369 -0.3198  0.4677  0.4421
 2484TIP3    H229012   1.357   0.105   8.380  1.1305 -0.3194  0.3845
 2485TIP3   OH229013   1.197   6.831   2.313  0.1049  0.1177 -0.4640
 2485TIP3    H129014   1.232   6.877   2.237  1.7448  0.0554  0.2067
 2485TIP3    H229015   1.173   6.744   2.280  0.2657  0.2825 -1.0233
 2486TIP3   OH229016   1.069   5.983   0.084 -0.0258 -0.2139  0.1586
 2486TIP3    H129017   1.163   5.999   0.091 -0.1040  0.6149 -0.5093
 2486TIP3    H229018   1.035   6.058   0.035 -1.3480  0.5366  2.0649
 2487TIP3   OH229019   5.572   0.550   1.387 -0.4047  0.1940  0.1103
 2487TIP3    H129020   5.507   0.613   1.357 -1.2741  0.5482  2.4839
 2487TIP3    H229021   5.656   0.589   1.364 -0.9549  1.7110  0.5230
 2488TIP3   OH229022   1.356   4.832   6.502  0.4539  0.0006 -0.1905
 2488TIP3    H129023   1.406   4.905   6.539  1.0617 -1.2356  1.5207
 2488TIP3    H229024   1.275   4.872   6.470  0.4396  1.3146  1.3957
 2489TIP3   OH229025   3.149   2.043   0.072  0.4338  0.1548  0.4302
 2489TIP3    H129026   3.109   2.078  -0.008  0.8168 -0.5513 -0.0767
 2489TIP3    H229027   3.176   2.121   0.121  1.1879  0.5888 -0.6280
 2490TIP3   OH229028   0.099   3.241   7.801  0.3613 -0.0521 -0.1435
 2490TIP3    H129029   0.163   3.216   7.734  2.4143 -0.4008  1.8160
 2490TIP3    H229030   0.077   3.158   7.845 -0.0652  0.3086  0.3367
 2491TIP3   OH229031   4.945   4.559   7.936 -0.3558 -0.4228  0.3927
 2491TIP3    H129032   4.877   4.596   7.993 -1.8802 -1.1525 -0.8904
 2491TIP3    H229033   4.956   4.469   7.968 -0.6633 -0.5957  0.0096
 2492TIP3   OH229034   2.531   5.187   0.144  0.5425 -0.0025 -0.0700
 2492TIP3    H129035   2.486   5.266   0.174 -0.4127  0.0049 -1.4133
 2492TIP3    H229036   2.564   5.146   0.224  1.6739  2.0823  0.6322
 2493TIP3   OH229037   0.225   2.819   2.265 -0.8141 -0.2657  0.1654
 2493TIP3    H129038   0.321   2.826   2.266 -0.8165 -0.2469  0.8560
 2493TIP3    H229039   0.195   2.884   2.328 -1.3329  0.2862 -0.6333
 2494TIP3   OH229040   2.891   1.459   1.760 -0.5528  0.6945  0.1871
 2494TIP3    H129041   2.957   1.499   1.815 -0.2905 -0.3351  0.6433
 2494TIP3    H229042   2.824   1.429   1.821 -0.8229  0.5809 -0.1604
 2495TIP3   OH229043   2.826   1.224   7.268  0.5028  0.1230  0.0408
 2495TIP3    H129044   2.903   1.249   7.320  0.4426 -1.1836  0.7889
 2495TIP3    H229045   2.859   1.214   7.179  1.2306 -0.5537  0.3780
 2496TIP3   OH229046   1.150   1.893   6.674  0.2656  0.6244 -0.5163
 2496TIP3    H129047   1.146   1.870   6.582 -0.0064 -0.5962 -0.2234
 2496TIP3    H229048   1.079   1.957   6.687 -1.4215 -1.1300 -0.6607
 2497TIP3   OH229049   5.828   6.445   7.904  0.5629 -0.2485  0.1443
 2497TIP3    H129050   5.864   6.484   7.984  1.1384  0.9537 -0.6666
 2497TIP3    H229051   5.793   6.520   7.855 -0.7931 -1.0989 -0.2316
 2498TIP3   OH229052   3.831   3.270   7.569  0.1611 -0.0402  0.1775
 2498TIP3    H129053   3.821   3.365   7.558  2.2174 -0.0230 -2.6787
 2498TIP3    H229054   3.745   3.234   7.546 -1.1382  1.0798  2.8138
 2499TIP3   OH229055   6.262   5.258   7.010  0.3897 -0.6008 -0.3873
 2499TIP3    H129056   6.313   5.299   6.941  0.6543  0.1710  0.2465
 2499TIP3    H229057   6.186   5.221   6.966 -0.3617  1.4311 -0.8676
 2500TIP3   OH229058   2.154   0.730   7.578  0.2959 -0.1997 -0.4544
 2500TIP3    H129059   2.168   0.655   7.636 -1.1355 -1.0061 -1.1147
 2500TIP3    H229060   2.143   0.805   7.638 -2.1816 -1.1717  0.4330
 2501TIP3   OH229061   0.972   4.848   1.907  0.4691  0.9306  0.3063
 2501TIP3    H129062   0.890   4.846   1.958 -0.2972 -1.0033 -0.8624
 2501TIP3    H229063   1.036   4.804   1.963  0.5683  1.8636  0.9560
 2502TIP3   OH229064   0.175   3.840   7.275 -0.3226 -0.1443  0.5608
 2502TIP3    H129065   0.203   3.868   7.362 -0.4029  1.5267  0.0906
 2502TIP3    H229066   0.079   3.848   7.277 -0.2648  0.8874  0.0335
 2503TIP3   OH229067   0.522   2.201   0.494  0.3139  0.0742  0.4295
 2503TIP3    H129068   0.502   2.109   0.511  0.2940 -0.2874 -1.3386
 2503TIP3    H229069   0.443   2.236   0.454  1.4257 -0.1247 -2.1913
 2504TIP3   OH229070   1.402   2.750   1.907  0.1144 -0.0904 -0.3952
 2504TIP3    H129071   1.455   2.824   1.879  0.4272 -0.2552 -0.2501
 2504TIP3    H229072   1.420   2.681   1.843  1.5111 -0.7600  0.6733
 2505TIP3   OH229073   2.397   1.927   0.397  0.1127 -0.2549  0.3842
 2505TIP3    H129074   2.419   1.847   0.349 -0.7635  0.1736 -0.7619
 2505TIP3    H229075   2.458   1.928   0.471  0.9589 -1.3408 -0.2716
 2506TIP3   OH229076   6.254   3.719   6.280  0.3756 -0.1526  0.7459
 2506TIP3    H129077   6.316   3.665   6.232  0.1217 -0.4118  0.7013
 2506TIP3    H229078   6.188   3.743   6.215 -0.7865 -1.7527  1.2487
 2507TIP3   OH229079   5.266   5.122   1.478 -0.2252  0.3715 -0.0333
 2507TIP3    H129080   5.283   5.192   1.541 -0.0575  1.4749 -1.2633
 2507TIP3    H229081   5.352   5.081   1.464 -0.5476 -1.0450  1.7181
 2508TIP3   OH229082   4.361   5.195   0.736 -0.1991 -0.1772 -0.2386
 2508TIP3    H129083   4.396   5.106   0.727  0.6640  0.0241  0.9685
 2508TIP3    H229084   4.316   5.211   0.652  0.2202 -1.4820 -0.7432
 2509TIP3   OH229085   4.367   1.279   1.375 -0.1406 -0.7250  0.4292
 2509TIP3    H129086   4.394   1.307   1.463 -1.4782  0.5759  0.4746
 2509TIP3    H229087   4.396   1.350   1.318  0.1664 -1.2670 -0.0875
 2510TIP3   OH229088   0.062   3.197   1.467 -0.0902  0.3887 -0.2092
 2510TIP3    H129089   0.102   3.266   1.520 -0.0147  0.3565 -0.2241
 2510TIP3    H229090  -0.027   3.228   1.450  0.0551  0.6470 -0.5108
 2511TIP3   OH229091   2.587   0.455   1.786  0.4082  0.3106 -0.3154
 2511TIP3    H129092   2.650   0.393   1.824  0.6230  0.9193  0.3280
 2511TIP3    H229093   2.504   0.435   1.830 -0.0859 -1.0380 -1.7326
 2512TIP3   OH229094   5.403   3.492   2.323 -0.0161 -0.1956 -0.2214
 2512TIP3    H129095   5.477   3.462   2.375 -1.3029 -0.5625  1.4628
 2512TIP3    H229096   5.383   3.419   2.265  0.1918 -0.5355  0.1380
 2513TIP3   OH229097   2.531   6.001   7.367  1.1423 -0.3453  0.7579
 2513TIP3    H129098   2.594   6.016   7.296 -0.6568 -1.0966 -1.1106
 2513TIP3    H229099   2.560   6.058   7.438  2.1862  1.6375 -1.1333
 2514TIP3   OH229100   3.280   3.100   1.014 -0.4579 -0.0080  1.3162
 2514TIP3    H129101   3.352   3.039   1.005 -0.8404 -0.1852 -1.3633
 2514TIP3    H229102   3.201   3.047   1.005 -0.8116  0.7269 -0.2229
 2515TIP3   OH229103   0.767   2.064   7.426 -0.2641  0.3079  0.7831
 2515TIP3    H129104   0.769   1.981   7.474 -0.0305 -0.0424  0.1791
 2515TIP3    H229105   0.677   2.071   7.395  0.1100 -0.5694 -0.5988
 2516TIP3   OH229106   0.320   6.816   8.142 -0.9739  0.3707  0.9330
 2516TIP3    H129107   0.346   6.763   8.066 -1.5101  0.5345  0.6245
 2516TIP3    H229108   0.227   6.798   8.152 -0.6498 -0.6512  2.3677
 2517TIP3   OH229109   6.277   6.684   1.108  0.1916 -0.2539 -0.0421
 2517TIP3    H129110   6.301   6.656   1.020 -1.0595  0.4497 -0.6413
 2517TIP3    H229111   6.229   6.609   1.145 -0.1964 -0.1624 -0.3575
 2518TIP3   OH229112   5.772   4.834   7.852 -0.4221  0.0432  0.1233
 2518TIP3    H129113   5.828   4.870   7.783  0.4471  0.8306  1.1946
 2518TIP3    H229114   5.697   4.797   7.806  0.3034  0.2298 -1.2590
 2519TIP3   OH229115   1.861   0.177   8.242 -0.0472  0.2857 -0.1205
 2519TIP3    H129116   1.800   0.142   8.177 -0.9317  1.1585  0.2090
 2519TIP3    H229117   1.926   0.107   8.254 -0.2645 -0.1679 -1.3989
 2520TIP3   OH229118   6.299   6.644   6.988 -0.2785 -0.4160 -0.2658
 2520TIP3    H129119   6.303   6.566   7.044  2.1973 -1.2825 -1.4731
 2520TIP3    H229120   6.229   6.626   6.926  0.0059 -1.5516 -0.2896
 2521TIP3   OH229121   3.097   6.576   2.181  0.4751 -0.0195 -0.5855
 2521TIP3    H129122   3.064   6.488   2.197 -0.8402  0.3286 -1.2535
 2521TIP3    H229123   3.151   6.596   2.257  3.5616 -2.6215 -1.8662
 2522TIP3   OH229124   3.137   4.157   2.174 -0.3818 -0.5505  0.0946
 2522TIP3    H129125   3.176   4.210   2.243 -1.4808  0.8043 -0.2564
 2522TIP3    H229126   3.064   4.111   2.217  0.4155 -1.6161  0.3426
 2523TIP3   OH229127   2.389   5.529   6.531 -0.3654  0.5204 -0.5244
 2523TIP3    H129128   2.374   5.490   6.618  2.9170 -1.3925 -0.6158
 2523TIP3    H229129   2.422   5.616   6.550  3.8518 -1.0619  0.6233
 2524TIP3   OH229130   6.074   2.239   1.711  0.7375 -0.3652  0.5717
 2524TIP3    H129131   5.985   2.239   1.744  0.7469 -0.1280  0.5962
 2524TIP3    H229132   6.125   2.287   1.776  1.0272 -1.1406  0.9372
 2525TIP3   OH229133   3.166   4.908   0.262 -0.3069 -0.6237  0.2332
 2525TIP3    H129134   3.213   4.947   0.335  0.5558 -2.2506  0.6022
 2525TIP3    H229135   3.201   4.953   0.185 -1.3947  1.2659  0.7835
 2526TIP3   OH229136   0.658   2.579   8.265  0.7087  0.1461  0.3371
 2526TIP3    H129137   0.707   2.511   8.219  1.2526  0.2887  0.6966
 2526TIP3    H229138   0.702   2.661   8.242  0.4101  0.3177  0.3654
 2527TIP3   OH229139   1.348   2.101   7.542  0.1271  0.0086 -0.2795
 2527TIP3    H129140   1.264   2.145   7.547  0.4546  0.5423  0.6513
 2527TIP3    H229141   1.357   2.077   7.449 -0.2862  1.4399 -0.7068
 2528TIP3   OH229142   3.410   5.059   1.290  0.3079  0.0918  0.3281
 2528TIP3    H129143   3.374   5.103   1.367  1.3885  3.1482 -0.7844
 2528TIP3    H229144   3.348   5.081   1.220  1.3155  0.5881 -0.4205
 2529TIP3   OH229145   5.359   2.332   8.167 -0.8641  0.6732  0.0625
 2529TIP3    H129146   5.432   2.273   8.148 -0.8605  0.3872  0.9140
 2529TIP3    H229147   5.373   2.408   8.110 -1.1019 -0.3166 -1.3462
 2530TIP3   OH229148   0.349   6.196   8.372 -0.2248  0.4320  0.0596
 2530TIP3    H129149   0.288   6.212   8.444  0.4157  0.0121  0.7179
 2530TIP3    H229150   0.379   6.283   8.346  1.2432  0.5141  1.8430
 2531TIP3   OH229151   3.882   5.490   7.534  0.2443 -0.3219 -0.1988
 2531TIP3    H129152   3.916   5.500   7.445 -1.0360  1.5112 -0.5450
 2531TIP3    H229153   3.787   5.504   7.525  0.2677  1.5235  1.6303
 2532TIP3   OH229154   2.735   3.577   0.212 -0.2937  0.2837  0.0702
 2532TIP3    H129155   2.642   3.601   0.213 -0.5664 -0.7457  0.2086
 2532TIP3    H229156   2.778   3.643   0.265 -0.6125  2.0842 -1.7790
 2533TIP3   OH229157   3.642   0.270   7.562  0.0591  0.6294 -0.1548
 2533TIP3    H129158   3.643   0.176   7.579 -2.6629  0.4965 -0.2665
 2533TIP3    H229159   3.705   0.282   7.491  1.6770 -0.8178  0.9587
 2534TIP3   OH229160   0.163   4.529   0.259 -0.0973  0.5224 -0.0598
 2534TIP3    H129161   0.242   4.543   0.310 -0.5265  1.0111  0.4867
 2534TIP3    H229162   0.106   4.478   0.317 -0.4924  0.8666 -0.1413
 2535TIP3   OH229163   6.374   5.221   7.995 -0.4212  0.0203  0.5198
 2535TIP3    H129164   6.369   5.261   7.908 -1.3393 -1.5759 -0.2035
 2535TIP3    H229165   6.374   5.296   8.055  1.2579  1.1986 -0.8537
 2536TIP3   OH229166   1.952   3.581   1.624  0.0057  0.3966  0.4897
 2536TIP3    H129167   2.042   3.572   1.593  0.2303  2.3472  0.4405
 2536TIP3    H229168   1.950   3.533   1.707  1.2888  0.8817  0.8278
 2537TIP3   OH229169   2.571   5.931   6.789  1.0357  0.0491 -0.1745
 2537TIP3    H129170   2.630   5.939   6.714 -0.5415  2.8359 -1.2620
 2537TIP3    H229171   2.520   6.012   6.788 -0.3225 -0.6360  2.8606
 2538TIP3   OH229172   1.019   0.122   8.441  0.3773  0.3005  0.0883
 2538TIP3    H129173   0.983   0.134   8.529  3.0254 -1.4883  1.5585
 2538TIP3    H229174   1.086   0.190   8.433  0.9924 -0.3105 -0.0269
 2539TIP3   OH229175   2.775   5.858   7.931  0.3313  0.4308  0.0741
 2539TIP3    H129176   2.802   5.803   7.857 -1.9629  0.2087 -0.6788
 2539TIP3    H229177   2.845   5.846   7.996  2.6877  1.0075 -2.1625
 2540TIP3   OH229178   4.068   1.424   8.342  0.6642  0.3634 -0.3520
 2540TIP3    H129179   4.131   1.357   8.367 -0.9086 -0.0213  3.0440
 2540TIP3    H229180   4.118   1.506   8.348  1.5608 -0.1510 -0.5611
 2541TIP3   OH229181   4.280   2.041   8.018 -0.7416 -0.4536 -0.0911
 2541TIP3    H129182   4.238   1.986   7.952 -0.0073 -2.5588  1.1399
 2541TIP3    H229183   4.274   1.992   8.099  1.8357  0.2912  0.6483
 2542TIP3   OH229184   2.252   3.226   0.002  0.6709 -0.7842 -0.1942
 2542TIP3    H129185   2.224   3.186   0.084 -0.4115 -1.0870 -0.6952
 2542TIP3    H229186   2.234   3.319   0.013 -0.0581 -0.9058 -0.3095
 2543TIP3   OH229187   3.740   6.025   2.761  0.2757  0.2347  0.5218
 2543TIP3    H129188   3.701   5.961   2.820  1.0495  1.8419  2.9003
 2543TIP3    H229189   3.676   6.095   2.755  0.1527  0.0415 -0.7110
 2544TIP3   OH229190   1.761   2.719   7.543 -0.1806  0.5471 -0.2406
 2544TIP3    H129191   1.825   2.670   7.595  1.7754 -0.0990 -3.0189
 2544TIP3    H229192   1.777   2.811   7.567  1.1129  0.3157 -0.1163
 2545TIP3   OH229193   5.905   4.301   1.489 -0.4971 -0.0039  0.3908
 2545TIP3    H129194   5.867   4.375   1.442  0.0610  1.5097  2.2168
 2545TIP3    H229195   5.965   4.261   1.427 -0.2916  1.5039 -0.4208
 2546TIP3   OH229196   3.532   0.392   0.131 -0.3647  0.3134  0.5653
 2546TIP3    H129197   3.610   0.444   0.113 -1.4558  2.2327  1.1080
 2546TIP3    H229198   3.546   0.310   0.083  1.8384  0.6987  0.4591
 2547TIP3   OH229199   5.830   2.228   7.965  0.8021  0.1093  0.3734
 2547TIP3    H129200   5.910   2.179   7.948  0.5461 -1.0042  2.1872
 2547TIP3    H229201   5.855   2.320   7.953  2.2342 -0.2478  0.4923
 2548TIP3   OH229202   4.348   2.449   7.543  0.5318  0.1721 -0.1926
 2548TIP3    H129203   4.348   2.468   7.449 -0.2054  1.2696  0.0161
 2548TIP3    H229204   4.274   2.499   7.578  0.7376 -0.2967  0.9637
 2549TIP3   OH229205   4.840   6.905   8.239  0.1546  0.2140 -0.1971
 2549TIP3    H129206   4.859   6.998   8.229  1.3074 -0.1777 -2.3964
 2549TIP3    H229207   4.926   6.863   8.241 -0.2152 -0.7041  3.2840
 2550TIP3   OH229208   2.346   0.041   8.296 -0.2031  0.4287  0.1002
 2550TIP3    H129209   2.337   0.096   8.219  0.9053  1.0530  0.3919
 2550TIP3    H229210   2.416  -0.021   8.274  0.7122  1.1497  0.8769
 2551TIP3   OH229211   2.194   3.192   8.244 -0.2123 -0.0554 -0.7673
 2551TIP3    H129212   2.199   3.186   8.339 -0.2401 -0.5019 -0.7918
 2551TIP3    H229213   2.224   3.281   8.224 -2.6632  0.9969 -0.1557
 2552TIP3   OH229214   2.854   4.189   2.012 -0.7996  0.1899  0.3522
 2552TIP3    H129215   2.917   4.231   1.953 -1.7903  0.4351 -0.5580
 2552TIP3    H229216   2.903   4.175   2.093  0.0851  1.4551  0.0650
 2553TIP3   OH229217   0.148   4.646   0.007  0.1522 -0.3099  0.3827
 2553TIP3    H129218   0.129   4.583  -0.063 -0.6147  0.8029 -0.4518
 2553TIP3    H229219   0.108   4.608   0.085 -0.5938 -0.7155 -0.1819
 2554TIP3   OH229220   6.931   0.315   6.416 -0.1924  0.2569 -0.1257
 2554TIP3    H129221   6.965   0.313   6.505  0.1067 -1.2534 -0.2478
 2554TIP3    H229222   7.003   0.349   6.363  0.9893 -2.2925 -0.2867
 2555TIP3   OH229223   4.325   6.134   0.096  0.7557 -0.0937  0.5362
 2555TIP3    H129224   4.299   6.213   0.143  0.6411 -0.2174  0.6803
 2555TIP3    H229225   4.403   6.103   0.143  0.8331 -0.0345  0.4460
 2556TIP3   OH229226   4.747   2.957   7.479  1.0073 -0.5372 -0.5113
 2556TIP3    H129227   4.841   2.947   7.462  0.9888 -0.5129 -0.6308
 2556TIP3    H229228   4.733   3.052   7.480  1.1355 -0.5196  0.3453
 2557TIP3   OH229229   3.485   4.695   0.038  0.4210 -0.5344 -0.4153
 2557TIP3    H129230   3.440   4.637   0.100  1.8289 -0.8922  0.3137
 2557TIP3    H229231   3.578   4.678   0.053  0.8363  0.9997 -1.0952
 2558TIP3   OH229232   2.389   1.498   1.678  0.0950 -0.7988  0.5008
 2558TIP3    H129233   2.306   1.498   1.631 -0.3379 -1.3028  1.2472
 2558TIP3    H229234   2.387   1.580   1.729  0.5337 -0.2872 -0.2778
 2559TIP3   OH229235   4.189   4.953   7.924 -0.1163 -0.7537  0.7055
 2559TIP3    H129236   4.267   4.948   7.869 -1.1534  0.6114 -0.9879
 2559TIP3    H229237   4.216   4.914   8.007  2.8056  0.8913  0.6719
 2560TIP3   OH229238   4.600   4.685   2.009  0.2539  0.6365  0.1388
 2560TIP3    H129239   4.600   4.659   1.917 -3.0456 -3.0025  0.9345
 2560TIP3    H229240   4.691   4.673   2.037  0.8631 -0.5077 -2.1145
 2561TIP3   OH229241   6.109   6.199   7.163 -0.4409  0.2382  0.1398
 2561TIP3    H129242   6.101   6.137   7.235 -2.8269  1.3280  0.9159
 2561TIP3    H229243   6.028   6.190   7.113  1.0243 -0.3104 -2.3489
 2562TIP3   OH229244   1.547   2.761   8.170 -0.3323 -0.0014 -0.0224
 2562TIP3    H129245   1.549   2.750   8.075 -0.8818 -0.4255  0.0100
 2562TIP3    H229246   1.624   2.713   8.202 -1.4853 -2.0166 -0.0683
 2563TIP3   OH229247   1.856   5.618   2.037 -0.1720 -0.0746  0.2076
 2563TIP3    H129248   1.812   5.597   2.120  2.3476  0.4195  1.7720
 2563TIP3    H229249   1.921   5.684   2.060  1.1213 -0.4613 -2.0390
 2564TIP3   OH229250   6.248   2.710   8.371  0.5602 -0.6229 -0.1854
 2564TIP3    H129251   6.187   2.777   8.341  0.2703  0.3788  2.3804
 2564TIP3    H229252   6.280   2.669   8.291  0.0055  1.9239 -1.8237
 2565TIP3   OH229253   4.443   1.315   1.868  0.9120  0.4628  0.2361
 2565TIP3    H129254   4.440   1.239   1.809  1.6263  0.5936  0.0110
 2565TIP3    H229255   4.501   1.288   1.939 -1.3771 -0.3484  1.8747
 2566TIP3   OH229256   0.897   1.514   6.542  0.1153 -0.0931  0.1546
 2566TIP3    H129257   0.812   1.483   6.510  0.2389  0.7546 -1.0355
 2566TIP3    H229258   0.961   1.463   6.494  0.2932  0.7768 -0.5628
 2567TIP3   OH229259   2.326   1.765   6.802  0.2025 -0.1670 -0.6203
 2567TIP3    H129260   2.394   1.727   6.746  0.5637 -1.3940  0.5724
 2567TIP3    H229261   2.276   1.689   6.833 -0.4589  0.5426  0.0986
 2568TIP3   OH229262   3.763   6.281   0.550 -0.6892  0.4382 -0.4888
 2568TIP3    H129263   3.766   6.373   0.524  0.4731  0.3947 -0.5881
 2568TIP3    H229264   3.717   6.281   0.634  0.4880  1.3040  0.1900
 2569TIP3   OH229265   2.023   3.403   1.819 -0.1763 -0.0550 -0.1433
 2569TIP3    H129266   2.079   3.406   1.896  0.8682  0.0657 -0.8863
 2569TIP3    H229267   2.060   3.332   1.765  0.2712  1.0666 -1.3722
 2570TIP3   OH229268   2.460   0.721   1.183  0.4418 -0.2859 -0.3057
 2570TIP3    H129269   2.439   0.757   1.096  1.3416  1.4544  0.1467
 2570TIP3    H229270   2.409   0.774   1.244 -0.3914 -1.6735  0.2445
 2571TIP3   OH229271   5.434   0.807   7.329 -0.8556  0.0794 -0.3126
 2571TIP3    H129272   5.519   0.849   7.318 -1.3432  0.9484 -0.8256
 2571TIP3    H229273   5.454   0.713   7.331  0.0343  0.2346 -1.2281
 2572TIP3   OH229274   4.093   5.533   7.968  0.2899 -0.2511 -0.0551
 2572TIP3    H129275   4.106   5.495   8.055 -0.8160 -2.6998 -0.8869
 2572TIP3    H229276   4.026   5.600   7.982  0.8894  0.1379  1.1373
 2573TIP3   OH229277   4.035   6.254   0.556  0.1512  0.2162  0.3557
 2573TIP3    H129278   4.032   6.171   0.604  0.9275 -0.2608 -0.3808
 2573TIP3    H229279   3.943   6.279   0.546 -0.2617 -1.6607 -1.2277
 2574TIP3   OH229280   4.551   0.769   1.021  0.2759 -0.7785  0.3472
 2574TIP3    H129281   4.550   0.674   1.033 -0.0845 -0.6804  1.2071
 2574TIP3    H229282   4.584   0.783   0.932  1.8044 -1.6460  0.7567
 2575TIP3   OH229283   5.584   3.899   1.945  0.0583  0.4253 -0.1227
 2575TIP3    H129284   5.604   3.986   1.912  0.1871  1.0150  1.4168
 2575TIP3    H229285   5.619   3.839   1.878 -1.9044  1.5188 -2.2521
 2576TIP3   OH229286   2.208   6.094   7.851  0.4083  0.3899  0.3647
 2576TIP3    H129287   2.115   6.068   7.852  0.5600 -0.3524 -1.1607
 2576TIP3    H229288   2.252   6.026   7.902  0.1827  0.3823  0.5523
 2577TIP3   OH229289   6.401   6.513   0.555 -0.1382  0.3820 -0.5252
 2577TIP3    H129290   6.409   6.605   0.530  1.1844  0.1881 -0.8787
 2577TIP3    H229291   6.370   6.469   0.476 -4.1028  0.9383  0.4960
 2578TIP3   OH229292   2.204   6.798   1.430 -0.0268 -0.2695  0.1191
 2578TIP3    H129293   2.151   6.865   1.474 -1.0408 -0.2105 -1.1541
 2578TIP3    H229294   2.258   6.847   1.368  1.3194 -0.3662  1.1649
 2579TIP3   OH229295   1.459   2.386   6.383 -0.0444  0.1358 -0.1652
 2579TIP3    H129296   1.470   2.322   6.314 -2.9388  0.1052 -0.7542
 2579TIP3    H229297   1.416   2.460   6.340  1.7463  1.8433  0.8277
 2580TIP3   OH229298   3.754   6.013   0.819 -0.4466  0.2177  0.3624
 2580TIP3    H129299   3.776   6.014   0.912  0.4848 -1.6852  0.2170
 2580TIP3    H229300   3.818   5.953   0.780  1.0902  3.1754 -2.0364
 2581TIP3   OH229301   5.719   1.700   8.190 -0.1413 -0.4025  0.2188
 2581TIP3    H129302   5.749   1.744   8.269 -0.8023  0.7744 -0.1637
 2581TIP3    H229303   5.691   1.613   8.220  0.3531 -0.2580  1.1335
 2582TIP3   OH229304   5.836   3.274   7.658 -0.9506 -0.2263  0.4159
 2582TIP3    H129305   5.790   3.210   7.604 -1.6983  1.0787 -0.5247
 2582TIP3    H229306   5.770   3.340   7.680  0.0352  0.7636  0.5156
 2583TIP3   OH229307   5.614   6.360   1.905  0.4823 -0.2038 -0.6322
 2583TIP3    H129308   5.557   6.393   1.974  0.2993 -1.2925 -0.2464
 2583TIP3    H229309   5.587   6.408   1.826  1.1707  1.5904  0.1540
 2584TIP3   OH229310   4.670   5.857   6.360 -0.1986 -0.2312  0.4924
 2584TIP3    H129311   4.752   5.871   6.314 -0.7589  0.7642 -0.2515
 2584TIP3    H229312   4.695   5.848   6.452  0.9553 -2.4386  0.0279
 2585TIP3   OH229313   6.840   2.194   6.746 -0.3146  0.4202 -0.3608
 2585TIP3    H129314   6.881   2.280   6.743  0.5131  0.5697  4.8722
 2585TIP3    H229315   6.908   2.134   6.714  1.5851  1.2984  1.7307
 2586TIP3   OH229316   5.505   4.748   7.692 -0.3769 -0.6800  0.0487
 2586TIP3    H129317   5.438   4.737   7.759 -1.4971 -0.1118 -0.9536
 2586TIP3    H229318   5.509   4.843   7.677  0.6628 -0.7000  0.0952
 2587TIP3   OH229319   0.672   4.676   0.379 -0.2061 -0.1542 -0.3693
 2587TIP3    H129320   0.708   4.668   0.290  0.8516 -0.4155  0.0722
 2587TIP3    H229321   0.720   4.612   0.431  2.3887  2.8697  1.3499
 2588TIP3   OH229322   1.331   5.477   0.040  0.2307 -0.2842 -0.5495
 2588TIP3    H129323   1.350   5.525  -0.040  0.3198 -1.2119 -1.1087
 2588TIP3    H229324   1.314   5.544   0.105  0.9399  0.5078 -1.1496
 2589TIP3   OH229325   4.808   1.005   0.120 -0.4950 -0.4785 -0.4816
 2589TIP3    H129326   4.785   0.946   0.049  0.1434 -1.2493 -0.0726
 2589TIP3    H229327   4.726   1.049   0.143 -0.9299 -1.0306 -0.9558
 2590TIP3   OH229328   5.347   4.302   1.982 -0.2026  0.1861 -0.1736
 2590TIP3    H129329   5.377   4.221   1.941 -0.4235 -0.5210  1.0397
 2590TIP3    H229330   5.344   4.283   2.075  3.4802  2.7428  0.6708
 2591TIP3   OH229331   1.633   5.104   2.100 -0.0327 -0.4609  0.3513
 2591TIP3    H129332   1.648   5.065   2.186  1.3602 -1.1835 -0.1855
 2591TIP3    H229333   1.655   5.196   2.111  1.3684 -0.7917  0.4929
 2592TIP3   OH229334   6.587   1.453   7.992 -0.1709 -0.1706  0.2360
 2592TIP3    H129335   6.646   1.492   8.056 -0.1056  0.4260 -0.1778
 2592TIP3    H229336   6.625   1.475   7.907 -1.6685  1.3748 -0.0803
 2593TIP3   OH229337   2.615   6.888   1.066  0.4309  0.8161  0.2496
 2593TIP3    H129338   2.671   6.964   1.075  1.0560  0.3829  0.0693
 2593TIP3    H229339   2.604   6.877   0.971 -1.3798  1.9093  0.2735
 2594TIP3   OH229340   0.423   2.858   7.608 -0.2714  0.4987  0.1989
 2594TIP3    H129341   0.479   2.861   7.530  0.1828 -0.9445  0.4399
 2594TIP3    H229342   0.484   2.855   7.682 -0.6954  1.2989  0.5998
 2595TIP3   OH229343   6.542   5.315   7.145 -0.4384 -0.5463 -0.3156
 2595TIP3    H129344   6.462   5.364   7.164  0.6604  0.4326  2.2306
 2595TIP3    H229345   6.516   5.223   7.152 -1.2131 -0.2385  1.2156
 2596TIP3   OH229346   2.947   3.751   8.278 -0.0732  0.2202  0.5806
 2596TIP3    H129347   3.006   3.726   8.208 -0.6502 -0.8379  0.4439
 2596TIP3    H229348   2.954   3.846   8.284  0.9641  0.1879 -0.0174
 2597TIP3   OH229349   3.945   5.101   8.321 -0.1566  0.5102 -0.7796
 2597TIP3    H129350   3.882   5.148   8.267 -0.1002 -0.0200 -1.3074
 2597TIP3    H229351   3.983   5.169   8.378 -0.8877  0.9032 -0.7496
 2598TIP3   OH229352   4.265   0.530   6.508 -0.4718 -0.2060  0.1650
 2598TIP3    H129353   4.316   0.595   6.459  0.4813 -1.2009 -0.2054
 2598TIP3    H229354   4.188   0.578   6.538 -0.0556  0.9591 -0.5490
 2599TIP3   OH229355   5.999   0.858   8.508  0.2851  0.4232  0.2077
 2599TIP3    H129356   5.996   0.779   8.561 -4.5349  1.2230  1.5774
 2599TIP3    H229357   6.055   0.918   8.558 -2.0470  0.2697  3.3043
 2600TIP3   OH229358   5.187   1.083   7.579  0.7497 -0.2547  0.0508
 2600TIP3    H129359   5.136   1.023   7.526 -0.4107  0.2942  0.4991
 2600TIP3    H229360   5.225   1.029   7.648  1.4864 -0.8080 -0.7668
 2601TIP3   OH229361   4.492   5.129   8.128  0.2661 -0.4520  0.2410
 2601TIP3    H129362   4.442   5.191   8.074 -0.6775  0.0357  1.6047
 2601TIP3    H229363   4.529   5.182   8.197  1.5885 -1.0436  0.0149
 2602TIP3   OH229364   0.407   5.677   7.174 -0.2465 -0.4813  0.8766
 2602TIP3    H129365   0.320   5.713   7.191  0.1554  1.9386 -1.5527
 2602TIP3    H229366   0.410   5.665   7.079  2.2795  0.1143  0.8211
 2603TIP3   OH229367   6.266   2.244   7.479  0.0798  0.0781 -0.0539
 2603TIP3    H129368   6.214   2.263   7.401  1.3688  0.3994 -0.8620
 2603TIP3    H229369   6.234   2.159   7.508 -1.2186  0.4759 -0.2354
 2604TIP3   OH229370   0.810   5.488   7.591  0.3161 -0.2088 -0.4523
 2604TIP3    H129371   0.729   5.533   7.614  0.3696  0.4343 -1.4325
 2604TIP3    H229372   0.847   5.542   7.521  0.6098 -1.5516 -1.3563
 2605TIP3   OH229373   4.019   5.344   1.690  0.3987 -0.4311 -0.7613
 2605TIP3    H129374   3.963   5.269   1.710  0.2124  0.0885  0.8768
 2605TIP3    H229375   4.095   5.307   1.646  0.5955 -1.6905  0.5497
 2606TIP3   OH229376   1.714   4.065   0.949 -0.0943 -0.5721  0.5339
 2606TIP3    H129377   1.745   4.156   0.957  0.0478 -0.6218  0.5495
 2606TIP3    H229378   1.630   4.073   0.903 -0.3111 -0.3925  0.9520
 2607TIP3   OH229379   1.064   4.369   0.836 -0.0694  0.2521  0.7114
 2607TIP3    H129380   1.123   4.433   0.875 -0.2276  0.0398  1.3105
 2607TIP3    H229381   1.115   4.288   0.832 -0.7154 -0.2939  2.4808
 2608TIP3   OH229382   3.165   4.648   0.794  0.0114  0.0748 -0.0197
 2608TIP3    H129383   3.144   4.730   0.838 -0.7596 -0.3029  0.3302
 2608TIP3    H229384   3.188   4.588   0.865 -0.3407 -0.2761 -0.1972
 2609TIP3   OH229385   3.308   3.505   6.810  1.2360  0.3362  0.2519
 2609TIP3    H129386   3.265   3.591   6.808  2.1679  0.8651  1.3061
 2609TIP3    H229387   3.309   3.476   6.719  0.3742  1.1768 -0.0372
 2610TIP3   OH229388   5.922   2.844   7.287 -0.2785  0.2463  0.0984
 2610TIP3    H129389   5.974   2.837   7.367 -0.0972  1.8810  0.1630
 2610TIP3    H229390   5.921   2.756   7.251  1.9553  0.0055  0.4726
 2611TIP3   OH229391   2.092   5.175   7.500 -0.0499  0.1097  0.2933
 2611TIP3    H129392   2.120   5.134   7.419  1.7118  2.3609 -0.3705
 2611TIP3    H229393   2.146   5.134   7.568 -0.4131 -0.6898  0.0987
 2612TIP3   OH229394   3.266   2.086   2.072  0.3310 -0.1968 -0.5579
 2612TIP3    H129395   3.274   2.002   2.027  1.5008 -0.4260  0.0307
 2612TIP3    H229396   3.281   2.152   2.003  2.4600 -0.5478 -0.5020
 2613TIP3   OH229397   0.614   5.215   0.130 -0.2693  0.0089 -0.3794
 2613TIP3    H129398   0.632   5.125   0.100  1.2103  0.1286  0.0983
 2613TIP3    H229399   0.606   5.265   0.049  0.1677 -0.3209 -0.6319
 2614TIP3   OH229400   6.412   5.606   2.027  0.3297  0.0106 -0.3126
 2614TIP3    H129401   6.417   5.576   1.936  0.6729  1.8711 -0.9533
 2614TIP3    H229402   6.443   5.697   2.024  2.0367 -0.3914  1.9452
 2615TIP3   OH229403   0.768   3.408   0.066  0.0880 -0.1393 -0.1661
 2615TIP3    H129404   0.739   3.316   0.068  1.3667 -0.5532  0.0758
 2615TIP3    H229405   0.793   3.423  -0.025  1.0455 -0.4179  0.0437
 2616TIP3   OH229406   0.848   5.742   8.100  0.3542 -0.5396  0.2493
 2616TIP3    H129407   0.843   5.733   8.195 -0.3948 -0.4673  0.2231
 2616TIP3    H229408   0.940   5.724   8.079  0.8661  0.9106  1.1252
 2617TIP3   OH229409   6.465   3.319   1.837  0.2638 -0.1445 -0.2172
 2617TIP3    H129410   6.382   3.366   1.831  0.5910  0.6330  0.8952
 2617TIP3    H229411   6.497   3.339   1.925  1.5410 -0.5712 -0.5639
 2618TIP3   OH229412   0.133   6.263   7.014  0.5717 -0.0506 -0.2109
 2618TIP3    H129413   0.155   6.306   6.931  0.8487  1.7976  0.7865
 2618TIP3    H229414   0.217   6.245   7.055  0.4244 -0.6127 -0.1497
 2619TIP3   OH229415   0.182   0.850   1.299  0.5584  0.1847  0.2032
 2619TIP3    H129416   0.109   0.800   1.261 -0.3568  0.4938  1.4528
 2619TIP3    H229417   0.208   0.911   1.231  0.5394 -0.8409 -0.7403
 2620TIP3   OH229418   6.564   4.442   2.085 -0.4522  0.3932  0.1115
 2620TIP3    H129419   6.600   4.384   2.017 -1.7250  0.5793 -0.7424
 2620TIP3    H229420   6.504   4.387   2.134  0.3120  0.3152  0.9847
 2621TIP3   OH229421   1.368   4.910   1.149  0.0239  0.6572 -0.4785
 2621TIP3    H129422   1.447   4.955   1.118  0.0091  0.2293 -1.1798
 2621TIP3    H229423   1.308   4.980   1.175  1.2844  0.9680  1.8073
 2622TIP3   OH229424   5.259   1.677   7.699 -0.1033  0.2527  0.2868
 2622TIP3    H129425   5.317   1.703   7.771 -1.1797  1.0899  0.8797
 2622TIP3    H229426   5.316   1.677   7.621  0.9044  0.0849  1.0038
 2623TIP3   OH229427   0.025   4.007   0.619  0.3028 -0.5287 -0.8128
 2623TIP3    H129428   0.054   4.029   0.707  1.5045  0.9015 -1.5112
 2623TIP3    H229429   0.096   3.952   0.584 -0.2747 -1.2817 -0.8351
 2624TIP3   OH229430   1.661   4.941   1.140  0.0424  0.3960 -0.2762
 2624TIP3    H129431   1.707   5.021   1.164 -1.5328  1.0720  0.6429
 2624TIP3    H229432   1.712   4.904   1.068  2.2334  0.8682  0.9383
 2625TIP3   OH229433   1.844   3.282   1.479 -0.4394  0.1884  0.9249
 2625TIP3    H129434   1.888   3.271   1.563  0.8659  1.8421  0.4927
 2625TIP3    H229435   1.768   3.337   1.499 -0.5322 -0.0124  1.1307
 2626TIP3   OH229436   5.323   1.313   0.618  0.0865 -0.2085  0.6943
 2626TIP3    H129437   5.394   1.327   0.555  0.4786  0.9607  1.3640
 2626TIP3    H229438   5.257   1.378   0.594  0.5236  0.7056  1.8664
 2627TIP3   OH229439   3.726   6.785   1.699  0.4457  0.5408 -0.2365
 2627TIP3    H129440   3.785   6.763   1.627 -0.4402 -0.8650 -0.5731
 2627TIP3    H229441   3.697   6.701   1.734 -1.6429  1.1370 -0.3448
 2628TIP3   OH229442   4.517   2.177   8.268 -0.1664 -0.1954 -0.0504
 2628TIP3    H129443   4.464   2.256   8.274 -1.1833 -0.9529  1.3817
 2628TIP3    H229444   4.548   2.177   8.177  1.6202  2.9174  0.3947
 2629TIP3   OH229445   5.331   3.224   2.239  0.4702  0.3468  0.3248
 2629TIP3    H129446   5.295   3.149   2.190 -0.8583  0.0555  1.6675
 2629TIP3    H229447   5.315   3.202   2.331  1.9123  1.3800  0.8546
 2630TIP3   OH229448   6.734   4.172   1.184 -0.2963 -0.1398 -0.2385
 2630TIP3    H129449   6.684   4.215   1.114  0.0995  0.0621 -0.4038
 2630TIP3    H229450   6.757   4.244   1.243  1.4873  0.1408 -1.1842
 2631TIP3   OH229451   3.278   0.426   2.083 -0.1550 -0.3661 -0.4290
 2631TIP3    H129452   3.371   0.443   2.065  0.2630 -0.4197  1.5085
 2631TIP3    H229453   3.278   0.340   2.125 -0.7987  0.5951  1.6458
 2632TIP3   OH229454   3.389   1.189   1.068  0.3011 -0.1881  0.5371
 2632TIP3    H129455   3.406   1.278   1.097 -0.2405  0.1079 -0.0353
 2632TIP3    H229456   3.405   1.191   0.974 -0.6128 -0.4642  0.3670
 2633TIP3   OH229457   6.896   0.718   1.750  0.2139 -0.1076 -0.2392
 2633TIP3    H129458   6.834   0.723   1.677 -0.6956  1.5850  0.5970
 2633TIP3    H229459   6.971   0.770   1.721 -0.5850  1.4666  0.3756
 2634TIP3   OH229460   5.200   4.163   0.336  0.0777  0.5295  0.7151
 2634TIP3    H129461   5.212   4.072   0.364  0.2149 -0.0791 -1.1914
 2634TIP3    H229462   5.178   4.157   0.243 -0.3006  2.4403  0.6409
 2635TIP3   OH229463   3.258   5.596   7.799 -0.0395  0.0252 -0.3287
 2635TIP3    H129464   3.287   5.644   7.721 -1.3585 -0.2720 -1.0267
 2635TIP3    H229465   3.260   5.660   7.869 -0.2681  0.6852 -0.9189
 2636TIP3   OH229466   2.659   5.118   0.739 -0.8793  0.5172 -0.2922
 2636TIP3    H129467   2.645   5.154   0.827  0.9766  0.9879 -0.1396
 2636TIP3    H229468   2.574   5.122   0.697 -1.2839  2.7332  0.6111
 2637TIP3   OH229469   1.064   6.803   7.623  0.0681  0.0433  0.3527
 2637TIP3    H129470   1.004   6.781   7.551  0.6576 -0.3784 -0.0199
 2637TIP3    H229471   1.007   6.828   7.695 -0.5732 -0.8654  0.1720
 2638TIP3   OH229472   5.339   0.312   1.023 -0.2245  0.3459 -0.2570
 2638TIP3    H129473   5.338   0.274   1.110  1.7493  0.7353 -0.0292
 2638TIP3    H229474   5.276   0.385   1.027 -1.9806 -1.1200  0.0781
 2639TIP3   OH229475   0.494   0.745   0.499 -0.0358 -0.5068  0.3048
 2639TIP3    H129476   0.472   0.656   0.526  0.1740 -0.9856 -1.0445
 2639TIP3    H229477   0.410   0.785   0.477  0.0161 -0.9828 -0.8358
 2640TIP3   OH229478   1.477   1.801   6.753  0.1044 -0.2295  0.4064
 2640TIP3    H129479   1.534   1.729   6.727 -0.8426 -0.4165 -1.2712
 2640TIP3    H229480   1.393   1.782   6.712 -0.6717  0.9497  1.3582
 2641TIP3   OH229481   3.001   6.415   0.136 -0.1148 -0.2903 -0.2280
 2641TIP3    H129482   2.978   6.495   0.088  1.5992  0.2312 -0.2410
 2641TIP3    H229483   3.096   6.410   0.131 -0.0911 -1.6753  0.8492
 2642TIP3   OH229484   1.955   1.947   7.314  0.2806  0.1228 -0.6714
 2642TIP3    H129485   1.940   2.025   7.259 -1.5524  1.1751  1.1659
 2642TIP3    H229486   1.899   1.880   7.275 -2.1177  1.2711  0.5995
 2643TIP3   OH229487   6.623   5.975   1.047 -0.2875  0.2404  0.0867
 2643TIP3    H129488   6.691   6.026   1.003 -1.9229  1.4703 -1.1208
 2643TIP3    H229489   6.607   6.023   1.129  1.1619 -0.7954  1.0357
 2644TIP3   OH229490   0.789   1.485   0.684  0.0849  0.6846 -0.5384
 2644TIP3    H129491   0.870   1.435   0.682 -0.0493  0.1714  2.3084
 2644TIP3    H229492   0.801   1.547   0.757 -2.8069 -0.9225  1.5060
 2645TIP3   OH229493   5.803   5.066   0.491 -0.1112  0.1550  0.4246
 2645TIP3    H129494   5.797   5.046   0.398  1.3084 -0.2568  0.4108
 2645TIP3    H229495   5.823   4.983   0.533  1.5080  0.7104  0.8289
 2646TIP3   OH229496   0.668   0.495   7.921 -0.2948 -0.0550  0.6622
 2646TIP3    H129497   0.687   0.466   8.011 -1.5707  0.9479  1.2899
 2646TIP3    H229498   0.707   0.582   7.915  1.8732 -1.0296 -0.5919
 2647TIP3   OH229499   2.589   0.270   2.619 -0.4020 -0.0652 -0.2879
 2647TIP3    H129500   2.515   0.331   2.621 -0.3005  0.0681  1.7160
 2647TIP3    H229501   2.577   0.221   2.538 -0.0281  3.1116 -2.4414
 2648TIP3   OH229502   5.988   6.329   0.239 -0.0203  0.5650 -0.5897
 2648TIP3    H129503   6.066   6.274   0.228 -0.6242 -0.1796 -1.2565
 2648TIP3    H229504   5.972   6.329   0.333  2.0480  2.5302 -0.1815
 2649TIP3   OH229505   2.791   0.715   2.688  0.0421 -0.0136  0.3852
 2649TIP3    H129506   2.754   0.701   2.601 -0.6060 -0.6090  0.7444
 2649TIP3    H229507   2.767   0.636   2.737  1.4352 -0.2250  0.7606
 2650TIP3   OH229508   5.686   0.027   6.914  0.6619 -0.1981 -0.0217
 2650TIP3    H129509   5.775   0.040   6.948  0.4430 -1.9691  1.3516
 2650TIP3    H229510   5.698   0.012   6.820  1.4815  2.5824 -0.4720
 2651TIP3   OH229511   3.832   1.321   8.276 -0.4921 -0.1708  0.7805
 2651TIP3    H129512   3.909   1.377   8.266 -0.9561  1.1499  3.6328
 2651TIP3    H229513   3.863   1.245   8.324 -0.8261  0.0829  1.4123
 2652TIP3   OH229514   5.925   0.034   7.042 -0.3559 -0.1441 -0.5949
 2652TIP3    H129515   5.995  -0.030   7.055  0.0455  0.0091 -1.8414
 2652TIP3    H229516   5.888   0.047   7.129 -0.2082 -1.7873 -0.2440
 2653TIP3   OH229517   0.774   5.871   7.880  0.1014  0.4729  0.0225
 2653TIP3    H129518   0.801   5.814   7.952 -1.7118 -0.9018 -0.2983
 2653TIP3    H229519   0.735   5.947   7.922 -0.0998  0.1142  0.4922
 2654TIP3   OH229520   6.583   1.194   7.669 -0.6091  0.6989 -0.5958
 2654TIP3    H129521   6.610   1.173   7.758 -0.1857  0.0705 -0.8605
 2654TIP3    H229522   6.635   1.135   7.614 -0.4509  1.4539 -1.2917
 2655TIP3   OH229523   6.604   1.883   0.006 -0.4036 -0.2179 -0.5678
 2655TIP3    H129524   6.611   1.823  -0.069 -1.7035 -0.6350 -0.3819
 2655TIP3    H229525   6.526   1.936  -0.013  0.2882  0.9023 -0.3546
 2656TIP3   OH229526   4.160   3.588   2.199  0.4441  0.0336  0.1829
 2656TIP3    H129527   4.093   3.650   2.168  1.9046  0.6521 -1.9806
 2656TIP3    H229528   4.163   3.520   2.131  0.7210 -0.9965  1.2021
 2657TIP3   OH229529   1.785   4.556   7.792  1.0124  0.3616 -0.0370
 2657TIP3    H129530   1.820   4.583   7.707 -0.2095  0.1780 -0.6328
 2657TIP3    H229531   1.769   4.462   7.782  1.5913  0.1798  0.6772
 2658TIP3   OH229532   0.131   1.543   6.751  0.8129 -0.3861 -0.1509
 2658TIP3    H129533   0.212   1.593   6.745  0.8992 -0.2604  1.6237
 2658TIP3    H229534   0.149   1.462   6.704  2.8136 -1.3557  2.1009
 2659TIP3   OH229535   2.515   5.457   6.328 -0.3000 -0.3578  0.1407
 2659TIP3    H129536   2.439   5.482   6.381 -1.6629 -1.6264 -1.1150
 2659TIP3    H229537   2.578   5.423   6.392 -1.2240 -0.2798  1.1210
 2660TIP3   OH229538   1.304   0.315   1.067 -0.3662 -0.5630  0.2897
 2660TIP3    H129539   1.360   0.310   1.144 -0.6415 -3.2028  0.4207
 2660TIP3    H229540   1.255   0.233   1.068 -1.5332  0.0329 -1.8485
 2661TIP3   OH229541   6.788   6.099   2.362 -0.1625  0.3385 -1.3415
 2661TIP3    H129542   6.850   6.172   2.363  1.0548 -0.6338  0.6124
 2661TIP3    H229543   6.715   6.129   2.415  2.1902 -1.1280  3.3518
 2662TIP3   OH229544   5.120   2.703   1.736 -0.0868 -0.1104  0.0854
 2662TIP3    H129545   5.117   2.751   1.653 -1.6409 -0.8922 -0.3387
 2662TIP3    H229546   5.146   2.614   1.711 -0.8721 -0.4295  0.3760
 2663TIP3   OH229547   6.009   1.619   0.819  0.3162  0.5288  0.4643
 2663TIP3    H129548   6.057   1.689   0.863  0.5406 -0.5069  1.9334
 2663TIP3    H229549   5.918   1.634   0.842  0.1703  1.2045 -0.4938
 2664TIP3   OH229550   6.681   4.808   1.811  0.2127  0.3134 -0.1887
 2664TIP3    H129551   6.656   4.740   1.873  0.1854 -0.8538 -1.4134
 2664TIP3    H229552   6.691   4.887   1.863  0.5084 -0.6957  1.3311
 2665TIP3   OH229553   6.206   4.349   1.334 -0.2704  0.0648 -0.1618
 2665TIP3    H129554   6.268   4.277   1.347 -0.7923 -0.6550 -1.4614
 2665TIP3    H229555   6.213   4.402   1.413  0.2747 -1.3096  0.7284
 2666TIP3   OH229556   2.410   6.578   7.219  0.0863  0.2410  0.2330
 2666TIP3    H129557   2.408   6.654   7.161  0.4455  0.0829  0.0086
 2666TIP3    H229558   2.489   6.530   7.192  0.6867  0.5694  1.3718
 2667TIP3   OH229559   5.786   5.772   1.065  0.5310  0.1348  0.2145
 2667TIP3    H129560   5.773   5.748   1.157  1.1456 -1.2619 -0.0373
 2667TIP3    H229561   5.857   5.716   1.035 -0.7555 -0.6525 -1.5570
 2668TIP3   OH229562   1.654   4.509   2.953 -0.1037  0.2011 -0.1323
 2668TIP3    H129563   1.741   4.471   2.937 -1.0524 -1.5787 -1.3824
 2668TIP3    H229564   1.599   4.434   2.974 -1.6050  1.1605 -0.5310
 2669TIP3   OH229565   3.796   5.967   1.792 -0.1548  0.0297  0.2486
 2669TIP3    H129566   3.877   5.992   1.748 -0.1425 -2.3130 -1.2650
 2669TIP3    H229567   3.821   5.956   1.884  1.0423  0.2273 -0.0330
 2670TIP3   OH229568   0.685   0.674   1.216  0.8630 -0.0679  0.6822
 2670TIP3    H129569   0.749   0.668   1.145  0.5100  0.6142  0.2961
 2670TIP3    H229570   0.675   0.768   1.231  0.5833 -0.1943  1.3211
 2671TIP3   OH229571   1.972   1.846   8.416 -0.6198 -0.0898  0.1999
 2671TIP3    H129572   1.960   1.912   8.485  2.0388 -0.0144  0.6878
 2671TIP3    H229573   1.884   1.832   8.381 -1.7145  1.5154  2.0939
 2672TIP3   OH229574   5.525   3.240   1.675 -0.3667 -0.8157 -0.8037
 2672TIP3    H129575   5.523   3.168   1.738 -0.2720 -0.7961 -0.7790
 2672TIP3    H229576   5.512   3.197   1.590  2.3648 -1.1969 -1.1087
 2673TIP3   OH229577   4.235   1.473   7.733 -0.6235  0.0946  0.1760
 2673TIP3    H129578   4.230   1.449   7.826  0.9224  0.1664  0.3026
 2673TIP3    H229579   4.255   1.391   7.688  1.0747  0.4330  0.2150
 2674TIP3   OH229580   6.370   6.263   7.446 -0.5993  0.0600  0.4300
 2674TIP3    H129581   6.309   6.303   7.508  0.8519  1.8032  0.8157
 2674TIP3    H229582   6.457   6.285   7.480  0.2428  0.2661 -1.7096
 2675TIP3   OH229583   2.462   5.816   6.530  0.3771 -0.3797 -0.1235
 2675TIP3    H129584   2.557   5.809   6.537  0.3834 -0.5323 -0.3793
 2675TIP3    H229585   2.448   5.890   6.471  0.3209  0.8808  1.3970
 2676TIP3   OH229586   2.506   4.761   6.816  0.4294  0.3948  0.2300
 2676TIP3    H129587   2.462   4.686   6.857  0.8416 -0.4530 -0.8152
 2676TIP3    H229588   2.595   4.759   6.853  0.4633  0.3155  0.1451
 2677TIP3   OH229589   4.492   2.016   6.906 -0.4049 -0.7932  0.3701
 2677TIP3    H129590   4.416   1.992   6.960 -1.7093 -1.8313 -1.7899
 2677TIP3    H229591   4.473   2.106   6.878 -1.8523 -1.6287 -1.6074
 2678TIP3   OH229592   5.882   5.569   2.478 -0.1306 -0.2766  0.4414
 2678TIP3    H129593   5.953   5.508   2.494 -0.0553 -0.0993  0.7794
 2678TIP3    H229594   5.900   5.644   2.534 -0.4942 -0.1584  0.4081
 2679TIP3   OH229595   1.436   0.398   2.215  0.2747  0.3207  0.1876
 2679TIP3    H129596   1.487   0.354   2.147  1.1229  0.2618  0.8436
 2679TIP3    H229597   1.479   0.483   2.225 -0.1648  0.5295  0.2798
 2680TIP3   OH229598   3.905   1.645   0.085 -0.3192 -0.2260  0.5619
 2680TIP3    H129599   3.909   1.708   0.157 -0.0417 -0.4681  0.7593
 2680TIP3    H229600   3.963   1.574   0.112  0.3437  0.0091 -0.2251
 2681TIP3   OH229601   4.398   4.928   0.950  0.1602 -0.0902 -0.0136
 2681TIP3    H129602   4.319   4.879   0.973 -0.5999  1.6113  1.2178
 2681TIP3    H229603   4.380   5.018   0.979  1.9383  0.6830 -1.1453
 2682TIP3   OH229604   5.490   3.637   1.808  0.1893 -0.2099 -0.5582
 2682TIP3    H129605   5.525   3.625   1.897  0.3733  1.3055 -0.4010
 2682TIP3    H229606   5.566   3.627   1.751  0.3502  0.2148 -0.4264
 2683TIP3   OH229607   0.984   2.749   0.399 -0.0128 -0.3294 -0.2831
 2683TIP3    H129608   1.024   2.829   0.364 -0.4451 -0.1680 -0.4185
 2683TIP3    H229609   1.055   2.685   0.399  0.4457  0.1640  0.2049
 2684TIP3   OH229610   4.075   4.664   8.184 -0.1339  0.0288  0.0376
 2684TIP3    H129611   4.087   4.749   8.226  1.8412  0.9513 -2.1927
 2684TIP3    H229612   4.137   4.606   8.228  1.1527  0.7096 -0.8406
 2685TIP3   OH229613   5.596   0.276   0.450 -0.3679  0.3652 -0.0160
 2685TIP3    H129614   5.632   0.199   0.494  0.6912 -0.4082 -2.0940
 2685TIP3    H229615   5.514   0.294   0.496  0.5681 -0.4718  2.1047
 2686TIP3   OH229616   3.164   2.912   7.463 -0.4117 -0.0575 -0.1224
 2686TIP3    H129617   3.198   2.980   7.521  0.4233 -1.2112  0.7958
 2686TIP3    H229618   3.190   2.829   7.505 -0.3808 -0.9422 -1.7990
 2687TIP3   OH229619   5.060   3.644   7.630  0.7002  0.5172 -0.9183
 2687TIP3    H129620   5.069   3.629   7.724 -0.9163 -0.4241 -0.8693
 2687TIP3    H229621   5.107   3.726   7.613  0.0243  1.3227  0.9136
 2688TIP3   OH229622   0.269   4.459   1.736  0.5124 -0.2582 -0.9736
 2688TIP3    H129623   0.293   4.373   1.771  0.3255  0.0549 -0.0538
 2688TIP3    H229624   0.205   4.493   1.798  1.8469  1.2827 -0.3680
 2689TIP3   OH229625   3.459   1.635   7.404 -0.6248  0.0080 -0.1213
 2689TIP3    H129626   3.476   1.658   7.313 -1.1270 -2.7537 -1.0250
 2689TIP3    H229627   3.545   1.636   7.446 -0.0664 -0.7504 -1.2061
 2690TIP3   OH229628   1.268   5.796   0.390 -0.3889 -0.1819 -0.3161
 2690TIP3    H129629   1.303   5.814   0.477 -1.7291 -0.4301  0.3070
 2690TIP3    H229630   1.204   5.726   0.404 -0.5312 -0.3169 -1.5244
 2691TIP3   OH229631   4.259   2.210   7.282  0.4831 -0.1763 -0.0381
 2691TIP3    H129632   4.271   2.197   7.188  2.6831  1.0861  0.0104
 2691TIP3    H229633   4.178   2.164   7.302  0.4270 -1.2346 -2.3799
 2692TIP3   OH229634   4.788   6.287   1.242 -0.0522  0.1766 -0.2972
 2692TIP3    H129635   4.788   6.218   1.176  1.1360  0.5521 -0.7081
 2692TIP3    H229636   4.878   6.319   1.244 -0.9884  3.1748 -1.6336
 2693TIP3   OH229637   6.680   6.010   7.844 -0.1389 -0.6265  0.1497
 2693TIP3    H129638   6.737   6.078   7.881 -1.1969  0.9479 -1.0040
 2693TIP3    H229639   6.718   5.992   7.758 -0.6216 -0.4953 -0.0964
 2694TIP3   OH229640   2.921   2.981   7.471 -0.0813 -1.1199  0.0126
 2694TIP3    H129641   2.918   3.051   7.405  3.1054  1.8657  2.6573
 2694TIP3    H229642   3.010   2.945   7.463  0.1871 -1.0587  2.2198
 2695TIP3   OH229643   5.613   0.539   7.932  0.5121  0.5114  0.5649
 2695TIP3    H129644   5.653   0.591   8.002  1.0150 -0.8136  1.2991
 2695TIP3    H229645   5.523   0.570   7.927  0.6023  0.9520  1.4759
 2696TIP3   OH229646   0.633   1.650   7.007 -0.4254  0.5011  0.2319
 2696TIP3    H129647   0.611   1.565   6.969  0.3742  1.1153 -1.7409
 2696TIP3    H229648   0.551   1.682   7.044 -1.2797 -0.1396 -1.0298
 2697TIP3   OH229649   5.476   4.065   8.280  0.5215 -0.3176  0.0033
 2697TIP3    H129650   5.417   4.007   8.233 -2.5213  1.6819  1.0578
 2697TIP3    H229651   5.520   4.009   8.344 -0.5678 -1.8181 -0.5121
 2698TIP3   OH229652   1.995   1.713   7.815  0.3756 -0.9189 -0.3922
 2698TIP3    H129653   2.011   1.659   7.738 -0.3609 -1.5935 -0.0923
 2698TIP3    H229654   2.056   1.680   7.881 -0.2385 -1.5767 -0.1334
 2699TIP3   OH229655   4.492   4.734   7.700 -0.5447  0.0300 -0.6646
 2699TIP3    H129656   4.466   4.824   7.680 -1.1545  0.0452  0.1696
 2699TIP3    H229657   4.434   4.707   7.771  2.1858  0.3631  1.8999
 2700TIP3   OH229658   1.783   2.167   7.841  0.3181  0.4286  0.3582
 2700TIP3    H129659   1.743   2.168   7.754 -1.7532 -1.3472  1.1872
 2700TIP3    H229660   1.872   2.136   7.827 -0.0956 -0.1713 -1.0946
 2701TIP3   OH229661   5.865   3.113   8.271  0.7156  0.3359 -0.0768
 2701TIP3    H129662   5.926   3.061   8.324  0.6590  0.6502  0.2981
 2701TIP3    H229663   5.879   3.203   8.300  0.1773  0.4258 -0.0892
 2702TIP3   OH229664   5.236   5.892   0.816 -0.4129 -0.0836  0.6361
 2702TIP3    H129665   5.289   5.958   0.770 -0.9342  1.0260  1.5624
 2702TIP3    H229666   5.162   5.942   0.851 -0.6453 -1.1076  1.6516
 2703TIP3   OH229667   4.409   3.087   7.632 -0.0448 -0.2027  0.0915
 2703TIP3    H129668   4.452   3.170   7.612 -1.1415 -0.0164 -1.7485
 2703TIP3    H229669   4.386   3.051   7.547 -1.0415 -1.6211  0.9148
 2704TIP3   OH229670   1.932   0.423   1.190 -0.0616  0.9098  0.3454
 2704TIP3    H129671   1.988   0.501   1.192  0.2445  0.7014 -0.0931
 2704TIP3    H229672   1.975   0.362   1.250  1.1864  0.0761 -1.3278
 2705TIP3   OH229673   4.039   0.365   2.273  0.3418 -0.7292 -0.1141
 2705TIP3    H129674   4.050   0.434   2.339 -1.6996 -2.0668  1.7910
 2705TIP3    H229675   4.054   0.284   2.321 -2.1525 -1.8131 -0.9599
 2706TIP3   OH229676   4.033   2.777   7.375  0.4713 -0.4359  0.1806
 2706TIP3    H129677   4.109   2.824   7.341  0.3346 -0.2940  0.0699
 2706TIP3    H229678   4.020   2.813   7.463 -0.5644  0.8640 -0.4543
 2707TIP3   OH229679   0.186   3.107   2.078 -0.1991  0.2415  0.3573
 2707TIP3    H129680   0.127   3.172   2.116  0.8488  1.2067  0.3770
 2707TIP3    H229681   0.274   3.141   2.096  0.3580 -0.7694 -0.3620
 2708TIP3   OH229682   1.964   2.893   7.790  0.7420 -0.3122  0.4897
 2708TIP3    H129683   1.930   2.825   7.847  0.3334 -1.3995 -0.9858
 2708TIP3    H229684   2.002   2.958   7.849  0.6736 -1.5599  1.9535
 2709TIP3   OH229685   4.905   2.440   0.572  0.2913  0.3627  0.1518
 2709TIP3    H129686   4.852   2.476   0.643  0.5446  1.7837 -0.3471
 2709TIP3    H229687   4.929   2.516   0.519  0.2490 -0.6395 -1.3723
 2710TIP3   OH229688   1.729   3.967   7.720 -0.3323  0.5283 -0.6557
 2710TIP3    H129689   1.752   3.875   7.732 -0.0901  0.1231 -3.5200
 2710TIP3    H229690   1.635   3.971   7.735 -0.1293  0.1347  0.8801
 2711TIP3   OH229691   2.002   2.451   8.095 -0.9772 -0.0086 -0.2633
 2711TIP3    H129692   2.051   2.446   8.013 -1.0920  2.1538 -0.5073
 2711TIP3    H229693   1.995   2.360   8.124 -3.0151 -1.2275 -3.8618
 2712TIP3   OH229694   0.940   6.431   8.517 -0.1341  0.1260  0.3673
 2712TIP3    H129695   1.005   6.495   8.488 -1.2672  0.2736 -2.1399
 2712TIP3    H229696   0.869   6.485   8.552 -1.0135  0.3597 -1.5876
 2713TIP3   OH229697   3.671   5.779   2.879  0.8865 -0.2569 -0.5722
 2713TIP3    H129698   3.731   5.742   2.944 -0.2439 -0.4048  0.4076
 2713TIP3    H229699   3.656   5.707   2.818 -0.7742 -1.2923  0.9581
 2714TIP3   OH229700   2.046   0.674   1.912  0.9083 -0.5675  0.0807
 2714TIP3    H129701   2.116   0.676   1.978  2.1110  2.8191 -1.0559
 2714TIP3    H229702   2.085   0.628   1.838  1.3001 -0.2920  0.1093
 2715TIP3   OH229703   1.970   4.027   1.369 -0.0136 -0.2142  0.2531
 2715TIP3    H129704   1.936   3.984   1.292 -2.2806  0.7982  0.6112
 2715TIP3    H229705   1.894   4.039   1.426  0.9594  1.9634  1.2195
 2716TIP3   OH229706   1.640   0.418   7.479  0.0190 -0.0688 -0.4755
 2716TIP3    H129707   1.729   0.453   7.466 -0.4561  0.9992 -0.9886
 2716TIP3    H229708   1.602   0.475   7.546 -0.4944 -0.1026 -0.7341
 2717TIP3   OH229709   3.625   6.908   7.538 -0.3731 -0.0960 -0.1260
 2717TIP3    H129710   3.701   6.880   7.487  0.0436  2.1427 -0.8506
 2717TIP3    H229711   3.552   6.901   7.476 -0.0228  1.7116 -0.7990
 2718TIP3   OH229712   2.097   2.955   0.653  0.0967  0.2554  0.2634
 2718TIP3    H129713   2.016   2.937   0.700 -0.1732  0.6333 -0.0443
 2718TIP3    H229714   2.074   3.026   0.593  0.7429  0.6008  0.4125
 2719TIP3   OH229715   4.128   0.658   0.493 -0.0461  0.0463 -0.1316
 2719TIP3    H129716   4.104   0.572   0.459  2.3956 -1.3551  1.4225
 2719TIP3    H229717   4.163   0.705   0.417 -1.4981 -0.2332 -1.0124
 2720TIP3   OH229718   4.238   1.488   8.015  0.7180  0.6177 -0.0800
 2720TIP3    H129719   4.217   1.414   8.072  1.4082 -0.9726 -1.8057
 2720TIP3    H229720   4.191   1.562   8.054 -2.2805 -1.2638  0.1733
 2721TIP3   OH229721   0.083   0.080   2.030 -0.5074  0.0713  0.4375
 2721TIP3    H129722   0.082   0.095   1.935  0.4379  1.3244  0.5902
 2721TIP3    H229723   0.112  -0.011   2.040  0.3547  0.2312 -0.4631
 2722TIP3   OH229724   5.443   4.233   0.462  0.0713  0.1946  0.5054
 2722TIP3    H129725   5.362   4.205   0.420  0.0780 -0.1331  0.7074
 2722TIP3    H229726   5.495   4.269   0.391 -0.2737  0.4566  0.3840
 2723TIP3   OH229727   1.370   2.803   0.167 -1.0593 -0.0907 -0.1369
 2723TIP3    H129728   1.450   2.751   0.173 -0.3574  0.8694 -0.7641
 2723TIP3    H229729   1.306   2.744   0.129  0.1659 -0.0763 -2.4272
 2724TIP3   OH229730   5.836   0.601   7.660  0.0359 -0.1161 -0.4320
 2724TIP3    H129731   5.757   0.642   7.695  0.0138  0.4942 -1.1912
 2724TIP3    H229732   5.900   0.606   7.732 -0.1453  0.7184 -0.3278
 2725TIP3   OH229733   4.719   1.986   7.490  0.8518 -0.4633  0.3588
 2725TIP3    H129734   4.719   1.896   7.459 -1.1379 -0.3600 -0.0554
 2725TIP3    H229735   4.637   2.023   7.458  1.6397  1.5284  0.4724
 2726TIP3   OH229736   4.928   6.247   7.705  0.9237 -0.0540  0.2614
 2726TIP3    H129737   4.939   6.317   7.770 -0.1546 -0.6784  1.1635
 2726TIP3    H229738   4.912   6.169   7.758 -0.5028 -0.4883 -0.7598
 2727TIP3   OH229739   4.244   3.298   8.392  0.2495  0.2623  0.8775
 2727TIP3    H129740   4.230   3.327   8.302 -0.9588  1.6388  1.4704
 2727TIP3    H229741   4.339   3.292   8.400  0.3525 -1.2523 -0.8694
 2728TIP3   OH229742   4.258   1.704   0.661  0.9374 -0.9786  0.0144
 2728TIP3    H129743   4.290   1.645   0.730  0.1558 -0.3835  0.9123
 2728TIP3    H229744   4.337   1.731   0.614  1.8560  0.5816  2.2590
 2729TIP3   OH229745   3.825   5.348   0.711 -0.0816 -0.2410 -0.3381
 2729TIP3    H129746   3.836   5.258   0.742  2.5230  0.0038 -0.3753
 2729TIP3    H229747   3.914   5.383   0.705 -1.0338  2.7454  0.8123
 2730TIP3   OH229748   6.642   1.530   7.274 -0.4180 -0.2919 -0.2425
 2730TIP3    H129749   6.562   1.535   7.327  0.9067  1.5683  1.7821
 2730TIP3    H229750   6.616   1.563   7.188 -1.1213  4.5324  1.5044
 2731TIP3   OH229751   5.336   2.615   2.109 -0.1902  0.2386  0.3320
 2731TIP3    H129752   5.397   2.613   2.183  1.1067 -1.0810 -0.7197
 2731TIP3    H229753   5.269   2.551   2.133  1.2140 -1.5931 -0.3631
 2732TIP3   OH229754   0.302   2.353   6.707 -0.0079 -0.9088 -0.4271
 2732TIP3    H129755   0.214   2.379   6.678  0.1238 -0.9792 -0.8925
 2732TIP3    H229756   0.331   2.426   6.761 -0.8190 -1.3906  0.7184
 2733TIP3   OH229757   6.040   0.384   8.000  0.1513 -0.1162 -1.4444
 2733TIP3    H129758   6.078   0.368   8.087  0.8607 -0.2703 -1.7723
 2733TIP3    H229759   5.958   0.335   8.000 -1.2253  2.0156  0.0883
 2734TIP3   OH229760   6.795   5.363   6.989 -0.7517  0.2422 -0.2373
 2734TIP3    H129761   6.752   5.331   6.909 -3.3012  2.4011  0.1406
 2734TIP3    H229762   6.731   5.349   7.058  0.5921  0.3429  1.0756
 2735TIP3   OH229763   3.315   3.236   1.899 -0.7240  0.1003 -0.3615
 2735TIP3    H129764   3.326   3.303   1.832 -0.2397 -0.2763 -0.6659
 2735TIP3    H229765   3.362   3.269   1.975 -0.3379  0.0245 -0.5682
 2736TIP3   OH229766   3.621   6.480   0.430  0.1161  0.3394  0.5827
 2736TIP3    H129767   3.634   6.565   0.389  0.7694 -0.2543 -0.4901
 2736TIP3    H229768   3.629   6.417   0.359 -1.0190 -0.5987  1.2396
 2737TIP3   OH229769   3.113   3.752   2.050 -0.4257  0.4898  0.0230
 2737TIP3    H129770   3.078   3.775   2.137  0.1078  0.6996  0.1883
 2737TIP3    H229771   3.175   3.681   2.067  1.2754  1.9272  0.1230
 2738TIP3   OH229772   3.524   2.900   2.036  0.5199  0.3140 -0.2495
 2738TIP3    H129773   3.581   2.977   2.031  1.7901 -0.6343 -1.2266
 2738TIP3    H229774   3.507   2.890   2.129  1.6234  0.8879  0.0433
 2739TIP3   OH229775   2.422   4.963   1.918  0.1382 -0.0637 -0.3454
 2739TIP3    H129776   2.491   4.977   1.982 -1.0018 -0.8200  1.1405
 2739TIP3    H229777   2.379   5.048   1.909 -0.2729 -0.1443  0.6602
 2740TIP3   OH229778   5.266   2.886   0.063 -0.3292  0.1450 -0.4997
 2740TIP3    H129779   5.186   2.863   0.017 -0.4558  0.9093 -0.6730
 2740TIP3    H229780   5.336   2.867   0.000 -0.0919 -3.1857  0.5901
 2741TIP3   OH229781   4.542   2.791   7.185 -0.1404 -0.3601  0.0431
 2741TIP3    H129782   4.629   2.819   7.157  0.0598  0.4375  1.3796
 2741TIP3    H229783   4.556   2.751   7.271 -0.8427 -1.9904 -0.5593
 2742TIP3   OH229784   3.444   0.026   2.620  0.5667  0.3597  0.6374
 2742TIP3    H129785   3.505   0.052   2.551  1.2249  1.3766  1.5715
 2742TIP3    H229786   3.358   0.040   2.581  0.9235  0.6376 -0.0790
 2743TIP3   OH229787   6.817   6.040   7.203 -0.6248  0.6544 -0.2106
 2743TIP3    H129788   6.737   6.046   7.255 -0.5331  1.9935 -0.1948
 2743TIP3    H229789   6.870   6.113   7.233 -0.4909  1.3566 -2.0586
 2744TIP3   OH229790   3.788   5.909   2.297 -0.1169  0.1846 -0.0578
 2744TIP3    H129791   3.711   5.965   2.300 -0.2467 -0.0055  0.1729
 2744TIP3    H229792   3.792   5.869   2.383  0.1203  0.0308 -0.1385
 2745TIP3   OH229793   1.969   1.233   0.585  0.4605  0.0705 -0.0677
 2745TIP3    H129794   2.022   1.291   0.531  1.8427 -0.0946  1.0695
 2745TIP3    H229795   2.028   1.202   0.654 -0.7120 -1.2929  0.3883
 2746TIP3   OH229796   3.957   0.748   2.112  0.1499  0.0871  0.5944
 2746TIP3    H129797   3.922   0.670   2.069 -0.2523 -0.0739  1.2079
 2746TIP3    H229798   3.966   0.724   2.204 -3.5305  1.8776  1.5996
 2747TIP3   OH229799   5.845   5.820   7.646 -0.2414  0.1384 -0.6861
 2747TIP3    H129800   5.863   5.789   7.557 -1.6024  0.9411 -1.2660
 2747TIP3    H229801   5.821   5.741   7.695  3.0320 -0.7359 -0.2834
 2748TIP3   OH229802   3.765   3.042   0.390 -0.3909 -0.1390  0.3554
 2748TIP3    H129803   3.749   3.051   0.296 -1.2236  0.2561  0.5361
 2748TIP3    H229804   3.856   3.072   0.401 -0.8748  1.5883 -0.0555
 2749TIP3   OH229805   2.497   4.182   7.307 -0.0983 -0.1994 -0.3912
 2749TIP3    H129806   2.435   4.147   7.243  0.0919 -1.3571  0.0364
 2749TIP3    H229807   2.487   4.125   7.384 -0.3829  1.2137  0.6519
 2750TIP3   OH229808   2.495   6.225   6.534  0.1612  0.1654  0.4263
 2750TIP3    H129809   2.589   6.242   6.534  0.3536 -0.8394 -0.4353
 2750TIP3    H229810   2.474   6.204   6.625  1.4146 -2.8350  0.1440
 2751TIP3   OH229811   3.009   6.401   7.907 -0.1303  0.3388  0.5459
 2751TIP3    H129812   3.081   6.403   7.844 -0.4472  1.3658  0.1876
 2751TIP3    H229813   3.016   6.485   7.953 -1.1433  0.5035  0.4303
 2752TIP3   OH229814   5.297   3.380   7.818 -0.1369  0.3782  0.2240
 2752TIP3    H129815   5.243   3.314   7.859  0.6739  0.0983  0.8703
 2752TIP3    H229816   5.280   3.371   7.724 -1.1519  0.2695  0.4083
 2753TIP3   OH229817   4.136   6.308   7.580 -0.0050  0.3880  0.7097
 2753TIP3    H129818   4.206   6.373   7.576 -0.6038  0.9771 -1.0976
 2753TIP3    H229819   4.064   6.347   7.530 -0.4035 -1.5972 -0.3693
 2754TIP3   OH229820   6.395   0.798   7.538 -0.1591 -0.2536  0.8346
 2754TIP3    H129821   6.318   0.756   7.500  2.4596 -2.1911 -2.9404
 2754TIP3    H229822   6.421   0.739   7.609  0.2377 -2.1256 -0.7611
 2755TIP3   OH229823   2.920   2.086   7.989  0.6747 -0.2145  0.3805
 2755TIP3    H129824   2.849   2.045   8.038 -0.6367  0.9583 -0.4553
 2755TIP3    H229825   2.953   2.017   7.932 -1.2812 -0.2604 -0.7786
 2756TIP3   OH229826   4.935   2.123   7.594 -0.0770  0.3530  0.2827
 2756TIP3    H129827   4.860   2.075   7.559  0.0342  0.6535 -0.3780
 2756TIP3    H229828   4.999   2.056   7.618 -0.3743  0.1216  0.4243
 2757TIP3   OH229829   5.917   5.592   7.092  0.0536 -0.2396 -0.2276
 2757TIP3    H129830   6.008   5.577   7.068 -0.4256 -1.2497 -1.5266
 2757TIP3    H229831   5.902   5.533   7.166  0.4286 -0.1520 -0.0810
 2758TIP3   OH229832   5.536   6.455   8.041  0.3587 -0.1704 -0.2596
 2758TIP3    H129833   5.591   6.448   8.120 -0.2115 -1.6101  0.0415
 2758TIP3    H229834   5.503   6.545   8.043  1.3024  0.1842  0.5004
 2759TIP3   OH229835   2.538   4.992   8.153 -0.7118  0.2218  0.3665
 2759TIP3    H129836   2.562   4.908   8.193 -0.9357 -0.3651 -0.7003
 2759TIP3    H229837   2.592   4.998   8.075  0.9606  2.1555  1.5598
 2760TIP3   OH229838   6.010   6.340   2.454  0.4075  0.5075 -0.2181
 2760TIP3    H129839   5.974   6.420   2.418  0.8038  0.8760  0.1968
 2760TIP3    H229840   5.934   6.294   2.491  0.2740  0.9865  0.1083
 2761TIP3   OH229841   3.986   5.473   1.170 -0.5606 -0.3089 -0.0579
 2761TIP3    H129842   3.974   5.535   1.098 -2.1392  1.2940  1.5101
 2761TIP3    H229843   4.002   5.389   1.126 -0.2211  0.8301 -2.2532
 2762TIP3   OH229844   2.460   2.975   0.349  0.2871 -0.2422 -0.2596
 2762TIP3    H129845   2.502   2.994   0.432  2.0447 -0.1488 -1.1127
 2762TIP3    H229846   2.390   3.039   0.341 -1.4751 -1.7097  2.1656
 2763TIP3   OH229847   3.015   0.972   0.611  0.7765  0.1180 -0.4001
 2763TIP3    H129848   2.957   0.898   0.628  2.0192 -1.1066 -1.2875
 2763TIP3    H229849   2.956   1.046   0.596 -0.4793 -0.5435  1.0362
 2764TIP3   OH229850   0.204   4.357   0.041 -0.1345  0.0797  0.3442
 2764TIP3    H129851   0.187   4.413   0.117  0.7703 -1.0672  1.4407
 2764TIP3    H229852   0.162   4.274   0.063 -0.7796  0.0474 -0.9139
 2765TIP3   OH229853   1.355   5.512   7.028  0.1156 -0.6660  0.2077
 2765TIP3    H129854   1.292   5.493   6.959 -0.1771 -2.8279  0.9846
 2765TIP3    H229855   1.440   5.512   6.983 -0.2197 -0.1021 -0.4457
 2766TIP3   OH229856   6.252   2.378   1.883 -0.5034 -0.2664 -0.1133
 2766TIP3    H129857   6.324   2.328   1.845 -0.9739 -2.1183  1.2573
 2766TIP3    H229858   6.283   2.404   1.970  0.0657  2.7539 -1.1087
 2767TIP3   OH229859   5.232   4.496   8.490  0.3317 -0.2018 -0.6881
 2767TIP3    H129860   5.149   4.497   8.537  1.0883 -0.2468  0.7121
 2767TIP3    H229861   5.237   4.408   8.453  0.4541 -0.7545  0.5811
 2768TIP3   OH229862   1.259   3.419   7.849 -0.1830 -0.1305 -0.7348
 2768TIP3    H129863   1.342   3.445   7.808  0.2763  0.0074  0.2403
 2768TIP3    H229864   1.229   3.344   7.798  0.2216  0.2041 -1.4835
 2769TIP3   OH229865   6.377   2.044   0.048 -0.6185 -0.0401  0.2680
 2769TIP3    H129866   6.316   2.054  -0.025 -1.2414  0.4613  0.8419
 2769TIP3    H229867   6.448   2.106   0.030  0.0281 -1.0206 -0.6871
 2770TIP3   OH229868   2.944   5.131   7.880 -0.1236  0.0288 -0.6541
 2770TIP3    H129869   2.996   5.205   7.911  1.5526 -1.5580  0.5660
 2770TIP3    H229870   2.913   5.158   7.793 -0.4517  2.5126  0.1527
 2771TIP3   OH229871   5.230   2.441   1.286 -0.1086 -0.4189 -0.1746
 2771TIP3    H129872   5.142   2.468   1.311  0.1460 -0.8772  1.3210
 2771TIP3    H229873   5.270   2.518   1.247  0.0116  0.8879  2.3669
 2772TIP3   OH229874   5.343   4.903   0.408 -0.0166  0.3336  0.1237
 2772TIP3    H129875   5.373   4.923   0.497 -1.6120  0.5202  0.6612
 2772TIP3    H229876   5.284   4.976   0.387 -1.3224 -0.8023 -0.2371
 2773TIP3   OH229877   5.848   3.239   7.938 -0.3833  0.3448 -0.9675
 2773TIP3    H129878   5.819   3.148   7.939 -1.7631  0.7613 -1.1074
 2773TIP3    H229879   5.840   3.265   7.846  3.3573 -0.3565 -1.6934
 2774TIP3   OH229880   0.859   4.503   1.141 -0.2151  0.1367  0.1502
 2774TIP3    H129881   0.855   4.562   1.065  0.4101 -2.2169 -1.8493
 2774TIP3    H229882   0.951   4.478   1.147 -0.4993 -0.7967  0.8129
 2775TIP3   OH229883   6.919   0.901   7.238 -0.2298  0.4946 -0.1926
 2775TIP3    H129884   6.914   0.860   7.152  1.6601 -0.2359 -0.0218
 2775TIP3    H229885   6.927   0.827   7.299  1.3591  1.0293  0.3059
 2776TIP3   OH229886   4.711   1.251   7.927 -0.6237 -0.3263  0.7275
 2776TIP3    H129887   4.681   1.341   7.916 -0.6093 -0.3270  0.6846
 2776TIP3    H229888   4.805   1.259   7.941 -0.7045 -0.2892  1.2892
 2777TIP3   OH229889   4.653   2.825   2.289 -0.1935  0.1926  0.3799
 2777TIP3    H129890   4.573   2.774   2.276 -0.6045  0.7367  0.7060
 2777TIP3    H229891   4.703   2.811   2.209 -1.4059  1.2237 -0.6253
 2778TIP3   OH229892   2.421   1.338   8.232  0.0857 -0.2715  0.1393
 2778TIP3    H129893   2.376   1.333   8.148  0.8518 -1.1101 -0.2455
 2778TIP3    H229894   2.470   1.255   8.237  2.6799  1.1456 -0.1278
 2779TIP3   OH229895   0.826   0.801   6.097 -0.4529 -0.3980  0.3529
 2779TIP3    H129896   0.771   0.761   6.030  2.2226 -1.2854 -1.4665
 2779TIP3    H229897   0.846   0.888   6.064 -0.2571 -0.3129  0.6816
 2780TIP3   OH229898   4.765   3.140   7.039  0.0279 -0.3752 -0.1708
 2780TIP3    H129899   4.754   3.185   7.123 -0.5619  0.4545 -0.6775
 2780TIP3    H229900   4.852   3.167   7.009 -0.5501  0.9296 -0.7431
 2781TIP3   OH229901   6.194   3.181   8.212  0.0623  0.4449 -0.2841
 2781TIP3    H129902   6.143   3.123   8.268 -1.1085  2.2011  0.5883
 2781TIP3    H229903   6.237   3.241   8.273  0.9533  0.7238 -1.1570
 2782TIP3   OH229904   1.422   6.550   0.500 -0.1880 -0.3882  0.2074
 2782TIP3    H129905   1.503   6.579   0.540 -0.8357 -0.1429  1.3923
 2782TIP3    H229906   1.428   6.455   0.498 -0.7599 -0.5310  2.3626
 2783TIP3   OH229907   6.418   6.074   6.990 -0.3007 -0.5781  0.0228
 2783TIP3    H129908   6.363   6.150   6.967  0.2630 -0.3349 -0.5569
 2783TIP3    H229909   6.425   6.079   7.086  0.2639  0.4974 -0.0503
 2784TIP3   OH229910   1.286   3.976   8.484 -0.4927 -0.2678 -0.4414
 2784TIP3    H129911   1.206   3.979   8.537 -0.2821  0.1364 -0.1371
 2784TIP3    H229912   1.273   3.902   8.425 -1.9466  0.9643 -1.7701
 2785TIP3   OH229913   2.085   0.711   1.123  0.2790  0.1287 -0.4777
 2785TIP3    H129914   2.063   0.637   1.066  0.4834 -0.5350  0.2806
 2785TIP3    H229915   2.155   0.757   1.076 -1.7956  1.5690 -2.3461
 2786TIP3   OH229916   3.087   2.885   0.688 -0.2639  0.7390 -0.0270
 2786TIP3    H129917   3.120   2.886   0.777  0.4906 -0.0205 -0.2851
 2786TIP3    H229918   3.144   2.944   0.639 -0.1092  0.4569 -0.1921
 2787TIP3   OH229919   5.097   4.579   1.395 -0.1754 -0.6940 -0.4391
 2787TIP3    H129920   5.118   4.601   1.305 -0.1766  1.1860 -0.0052
 2787TIP3    H229921   5.011   4.537   1.390 -1.3196  1.5676 -1.1190
 2788TIP3   OH229922   3.269   5.118   1.527 -0.3788 -0.0287  0.1419
 2788TIP3    H129923   3.224   5.203   1.521  0.0393  0.1251 -1.6327
 2788TIP3    H229924   3.309   5.117   1.614  0.2088  1.9212 -0.0586
 2789TIP3   OH229925   1.211   1.003   0.517 -0.3351 -0.7895 -0.3896
 2789TIP3    H129926   1.245   0.944   0.449  1.3537 -1.8182  1.2435
 2789TIP3    H229927   1.234   0.959   0.599 -4.7315 -1.0355  0.9602
 2790TIP3   OH229928   1.071   5.928   1.569  0.5797 -0.0938  0.0864
 2790TIP3    H129929   1.148   5.918   1.513  1.2724  1.6249  0.6837
 2790TIP3    H229930   1.000   5.887   1.520  1.4175  0.3098 -1.5130
 2791TIP3   OH229931   1.291   6.378   8.304  0.0227 -0.1105 -0.5216
 2791TIP3    H129932   1.318   6.288   8.323  0.8807  0.1994 -0.2159
 2791TIP3    H229933   1.234   6.370   8.227  1.0893 -0.7844 -1.2716
 2792TIP3   OH229934   2.521   6.839   7.753  0.0823  0.1134  0.2621
 2792TIP3    H129935   2.511   6.796   7.838  1.6532 -3.2044 -1.0586
 2792TIP3    H229936   2.604   6.886   7.760  1.0415 -1.4628  0.1749
 2793TIP3   OH229937   2.923   0.579   7.673  0.0499  0.3248  0.1206
 2793TIP3    H129938   2.939   0.616   7.587 -1.1928  0.2875 -0.1434
 2793TIP3    H229939   2.961   0.491   7.669  1.9842  1.1000  0.3769
 2794TIP3   OH229940   0.113   2.240   6.217  0.3268 -0.4981  0.3106
 2794TIP3    H129941   0.204   2.239   6.246  0.5622  1.6279 -0.1764
 2794TIP3    H229942   0.063   2.222   6.296  1.1480 -1.6891  0.5860
 2795TIP3   OH229943   4.685   6.254   2.198 -0.3953 -0.4155 -0.0973
 2795TIP3    H129944   4.737   6.303   2.134  0.3219 -0.6872  0.2632
 2795TIP3    H229945   4.739   6.177   2.218 -0.2555  0.0548  1.4183
 2796TIP3   OH229946   2.415   0.519   1.364  0.5575  0.5556  0.2846
 2796TIP3    H129947   2.439   0.582   1.296  1.2183  1.0372  0.9368
 2796TIP3    H229948   2.446   0.560   1.445  1.8856 -1.0467  0.6278
 2797TIP3   OH229949   4.142   0.626   7.912 -0.0656  0.1576 -0.8301
 2797TIP3    H129950   4.076   0.561   7.888 -0.7616 -0.2911  1.9849
 2797TIP3    H229951   4.154   0.615   8.006  1.8338  2.2785 -0.7371
 2798TIP3   OH229952   2.300   0.181   0.823 -0.1261 -0.6735  0.1559
 2798TIP3    H129953   2.249   0.181   0.742 -0.6570  0.3124  0.4664
 2798TIP3    H229954   2.247   0.232   0.885  1.9247  1.8506  0.0106
 2799TIP3   OH229955   6.840   0.354   7.359  0.8313 -0.0009 -0.3348
 2799TIP3    H129956   6.803   0.302   7.431 -0.2940 -1.1197 -1.6474
 2799TIP3    H229957   6.818   0.444   7.380  1.6818 -0.1486  1.3592
 2800TIP3   OH229958   2.957   6.675   1.197 -0.1550 -0.5957 -0.3513
 2800TIP3    H129959   2.883   6.643   1.248 -0.8438 -1.2302 -1.6885
 2800TIP3    H229960   2.929   6.665   1.106  1.3073 -0.1775 -0.8721
 2801TIP3   OH229961   1.137   2.138   2.144  0.2303  0.2017 -0.4914
 2801TIP3    H129962   1.154   2.163   2.235  1.4768 -0.4350 -0.5294
 2801TIP3    H229963   1.129   2.222   2.098 -1.9363  0.5657  0.4240
 2802TIP3   OH229964   5.524   2.032   1.561 -0.3749 -0.1932 -0.4823
 2802TIP3    H129965   5.553   2.108   1.511  0.9484 -0.7006 -0.5319
 2802TIP3    H229966   5.562   2.044   1.648  1.2583 -1.5697 -0.9535
 2803TIP3   OH229967   5.614   5.719   8.093 -0.2969  0.3115 -0.2729
 2803TIP3    H129968   5.691   5.776   8.087  1.3092 -1.6688  0.4414
 2803TIP3    H229969   5.584   5.710   8.003 -0.0873  1.5932 -0.4935
 2804TIP3   OH229970   1.600   2.293   0.601  0.2974 -0.0872 -0.2730
 2804TIP3    H129971   1.618   2.300   0.695 -0.2150 -1.6258 -0.0294
 2804TIP3    H229972   1.677   2.330   0.559  0.3095  1.1102  0.7489
 2805TIP3   OH229973   4.742   0.372   7.807 -0.5749  0.0568  0.1102
 2805TIP3    H129974   4.709   0.434   7.872  0.0175  0.6460 -0.1471
 2805TIP3    H229975   4.773   0.297   7.859  1.8179  1.3750  0.7190
 2806TIP3   OH229976   4.992   0.636   6.409 -0.7435  0.3616 -0.5743
 2806TIP3    H129977   5.068   0.582   6.432  0.1609  1.4667 -0.8579
 2806TIP3    H229978   4.995   0.708   6.472 -0.8124  1.0803 -1.3810
 2807TIP3   OH229979   4.812   3.597   8.188  0.1968  0.2348  0.1754
 2807TIP3    H129980   4.785   3.615   8.279  1.4506  0.6533  0.4766
 2807TIP3    H229981   4.907   3.588   8.192  0.0614 -2.4231 -0.6689
 2808TIP3   OH229982   6.313   1.580   8.005 -0.0389 -0.4001 -0.7244
 2808TIP3    H129983   6.392   1.530   8.026 -0.1724  0.2514  1.5043
 2808TIP3    H229984   6.345   1.666   7.977  0.0655 -0.2786 -0.2376
 2809TIP3   OH229985   1.604   3.432   1.573 -0.0799  0.2262  0.2998
 2809TIP3    H129986   1.512   3.448   1.556 -0.3174 -1.5350 -0.2795
 2809TIP3    H229987   1.615   3.452   1.666 -0.5919  2.2320 -0.0324
 2810TIP3   OH229988   0.395   0.169   1.080  0.1755 -0.5629  0.2451
 2810TIP3    H129989   0.374   0.122   1.000  0.0203 -0.2257  0.0852
 2810TIP3    H229990   0.334   0.243   1.081  1.7317  0.8002 -0.5504
 2811TIP3   OH229991   4.601   2.769   0.511 -0.6295  0.1720 -0.2527
 2811TIP3    H129992   4.571   2.772   0.602  0.9452  0.5165  0.2750
 2811TIP3    H229993   4.599   2.860   0.481  2.6675  0.7235  0.7872
 2812TIP3   OH229994   3.983   3.426   7.136  0.0754  0.3474  0.1311
 2812TIP3    H129995   4.070   3.456   7.162  0.1456  0.0508  0.2394
 2812TIP3    H229996   3.998   3.365   7.064  0.0676 -0.7757  1.0529
 2813TIP3   OH229997   1.204   0.094   0.860 -1.0462 -0.2518  0.0850
 2813TIP3    H129998   1.178   0.015   0.811  0.4928  0.4280 -1.9686
 2813TIP3    H229999   1.290   0.073   0.896 -0.8291  0.3154 -0.0950
 2814TIP3   OH230000   3.117   0.233   7.259  0.0854  0.6191  0.4868
 2814TIP3    H130001   3.046   0.281   7.300 -0.7234 -0.5460  0.4809
 2814TIP3    H230002   3.079   0.198   7.178 -0.6467 -3.2845  2.2467
 2815TIP3   OH230003   6.443   5.426   8.175 -0.9706 -0.4972 -0.5992
 2815TIP3    H130004   6.493   5.368   8.231 -0.1662  1.8927  1.2967
 2815TIP3    H230005   6.363   5.446   8.225 -0.8098  0.7182 -0.7890
 2816TIP3   OH230006   3.042   4.291   1.661 -0.2762  0.2485 -0.0367
 2816TIP3    H130007   2.952   4.278   1.693  0.2245 -1.4440  0.8207
 2816TIP3    H230008   3.097   4.279   1.739  0.8863 -2.3012 -1.1480
 2817TIP3   OH230009   6.242   0.506   0.838  0.3658 -0.4044  0.2858
 2817TIP3    H130010   6.278   0.560   0.907  0.1869  0.2138 -0.0985
 2817TIP3    H230011   6.255   0.557   0.758  2.1148 -1.8217 -0.3958
 2818TIP3   OH230012   5.062   0.917   8.178  0.4484 -0.0435 -0.3484
 2818TIP3    H130013   5.082   0.992   8.234  0.2981  0.4712 -0.9756
 2818TIP3    H230014   4.967   0.914   8.174  0.4114 -1.0520  0.7041
 2819TIP3   OH230015   2.409   5.407   0.231  0.7009  0.2969  0.5493
 2819TIP3    H130016   2.467   5.474   0.196  0.3721  0.2427 -0.1064
 2819TIP3    H230017   2.324   5.451   0.239  0.4042 -0.1262 -0.1954
 2820TIP3   OH230018   3.291   6.484   0.212 -0.3973  0.1770 -0.2083
 2820TIP3    H130019   3.281   6.577   0.231 -0.0892 -0.1657  1.8635
 2820TIP3    H230020   3.383   6.474   0.189 -0.5536  0.4401 -1.0063
 2821TIP3   OH230021   5.202   6.156   7.742  0.2948  0.3335 -0.2416
 2821TIP3    H130022   5.106   6.158   7.747  0.2576 -1.1692  0.2382
 2821TIP3    H230023   5.224   6.210   7.666 -1.1783 -2.1445 -2.6000
 2822TIP3   OH230024   3.104   6.458   0.748  0.3883 -0.4067  0.3853
 2822TIP3    H130025   3.128   6.507   0.827  3.4023 -2.9422  1.2379
 2822TIP3    H230026   3.034   6.399   0.777  0.7159 -0.5625  0.8652
 2823TIP3   OH230027   5.181   3.013   2.175 -0.7002  0.2319  0.0397
 2823TIP3    H130028   5.181   2.962   2.256  0.3444  1.1331  0.6371
 2823TIP3    H230029   5.181   2.948   2.106 -0.4664 -0.5800  0.7811
 2824TIP3   OH230030   3.636   6.266   0.797 -0.5136  0.6842  0.3489
 2824TIP3    H130031   3.659   6.180   0.832  0.7940  1.3844  1.3139
 2824TIP3    H230032   3.572   6.301   0.859 -1.5797  0.1396 -0.4276
 2825TIP3   OH230033   3.326   2.549   7.274 -0.6831  0.9344  0.4668
 2825TIP3    H130034   3.396   2.589   7.223 -1.7509  2.2022 -0.0543
 2825TIP3    H230035   3.345   2.571   7.365  0.3265  0.0742  0.4823
 2826TIP3   OH230036   6.166   5.512   2.562  0.2522  0.4296 -0.0662
 2826TIP3    H130037   6.194   5.589   2.612  1.4591 -0.2157  0.3047
 2826TIP3    H230038   6.248   5.476   2.527 -0.2562 -0.8243 -0.0140
 2827TIP3   OH230039   1.224   1.403   7.131 -0.1206  0.0375  0.0677
 2827TIP3    H130040   1.301   1.419   7.186  0.3988 -0.6786 -0.4238
 2827TIP3    H230041   1.213   1.308   7.133 -1.8675  0.2234  1.2735
 2828TIP3   OH230042   6.820   6.783   8.145 -0.0919 -0.2733  0.1439
 2828TIP3    H130043   6.845   6.749   8.231 -0.0183 -0.6743 -0.0319
 2828TIP3    H230044   6.897   6.832   8.115 -0.3383  0.3867  0.5656
 2829TIP3   OH230045   5.918   3.888   7.715 -0.4702  0.3411  0.2544
 2829TIP3    H130046   5.980   3.907   7.785 -1.6103  1.7139  0.9416
 2829TIP3    H230047   5.878   3.805   7.741  1.5951 -1.0266 -0.6305
 2830TIP3   OH230048   0.537   5.592   1.632 -0.9025  0.1175 -0.0093
 2830TIP3    H130049   0.505   5.655   1.568 -0.3897 -0.3245 -0.7168
 2830TIP3    H230050   0.478   5.516   1.622 -0.8474  0.0652  0.0666
 2831TIP3   OH230051   0.175   4.153   7.529  0.2809  0.0781  0.2715
 2831TIP3    H130052   0.119   4.229   7.543  1.9599  1.5451 -0.5498
 2831TIP3    H230053   0.115   4.079   7.531 -1.6016  1.4992 -0.0443
 2832TIP3   OH230054   6.539   4.278   1.755 -0.2260  0.1073 -0.6537
 2832TIP3    H130055   6.512   4.362   1.719 -0.8958  0.3765  0.4325
 2832TIP3    H230056   6.461   4.223   1.749 -0.5476  0.3452  0.8893
 2833TIP3   OH230057   2.004   1.110   1.394  0.4221 -0.3868 -0.0833
 2833TIP3    H130058   2.046   1.176   1.338  0.4720 -0.0373  0.3560
 2833TIP3    H230059   2.057   1.110   1.474  1.0400 -1.7115 -0.4723
 2834TIP3   OH230060   3.854   1.656   8.347 -0.2654 -0.3526 -0.1549
 2834TIP3    H130061   3.882   1.643   8.437 -0.8769  0.7639  0.2275
 2834TIP3    H230062   3.766   1.617   8.343 -0.7648  0.6991  0.1058
 2835TIP3   OH230063   0.098   3.701   1.923  0.2949  0.0134  0.2473
 2835TIP3    H130064   0.175   3.758   1.926  1.5631 -1.6418  1.2769
 2835TIP3    H230065   0.121   3.633   1.861 -1.0500  0.3775 -0.6897
 2836TIP3   OH230066   5.585   5.936   0.959  0.5267 -0.3546  0.1708
 2836TIP3    H130067   5.600   6.023   0.995  1.3809 -0.5752  0.3612
 2836TIP3    H230068   5.642   5.879   1.010  1.8911 -0.6594 -1.5920
 2837TIP3   OH230069   0.796   6.429   1.970  0.2361  0.1403  0.2716
 2837TIP3    H130070   0.852   6.364   2.012  0.0390 -0.3450 -0.2053
 2837TIP3    H230071   0.856   6.489   1.926  0.3909 -1.5912 -2.0691
 2838TIP3   OH230072   3.377   2.739   1.505 -0.1511 -0.2102  0.3325
 2838TIP3    H130073   3.451   2.752   1.565  1.6725  3.4065 -2.3168
 2838TIP3    H230074   3.318   2.812   1.523 -0.9284 -0.6347 -0.4425
 2839TIP3   OH230075   0.939   0.719   6.614 -0.0813 -0.4475  0.1126
 2839TIP3    H130076   0.977   0.637   6.647  0.8896 -0.5677 -1.2289
 2839TIP3    H230077   0.922   0.703   6.521 -0.7289  0.5831  0.0308
 2840TIP3   OH230078   0.642   6.478   0.945 -0.0954  0.0343 -0.1679
 2840TIP3    H130079   0.588   6.418   0.996  1.5178  0.4420  2.1973
 2840TIP3    H230080   0.728   6.436   0.942 -0.0705  0.0910 -2.5461
 2841TIP3   OH230081   1.960   6.600   6.940 -0.1340 -0.3208  0.1185
 2841TIP3    H130082   2.009   6.530   6.983 -1.2737 -0.8307  0.6328
 2841TIP3    H230083   1.872   6.595   6.978 -0.8625 -0.0302 -1.4394
 2842TIP3   OH230084   2.080   0.756   1.404 -0.1086 -0.0428  0.2271
 2842TIP3    H130085   2.064   0.738   1.311  0.8355  0.3329 -0.0250
 2842TIP3    H230086   2.163   0.804   1.405 -0.9747  1.5193  1.1281
 2843TIP3   OH230087   5.607   1.515   6.521  0.3985  0.6996 -0.4179
 2843TIP3    H130088   5.583   1.595   6.473  1.8528  1.7176  0.4597
 2843TIP3    H230089   5.609   1.543   6.612 -1.3061 -0.9437  0.1777
 2844TIP3   OH230090   3.952   0.464   1.680 -0.2603 -0.5718  0.3489
 2844TIP3    H130091   3.966   0.556   1.660  2.8720 -1.1547 -0.6370
 2844TIP3    H230092   3.941   0.422   1.594  1.8872 -1.5431  0.4977
 2845TIP3   OH230093   1.097   2.987   7.833  0.0221  0.2405 -0.6628
 2845TIP3    H130094   1.181   2.945   7.852  0.6817  1.5477 -0.5452
 2845TIP3    H230095   1.037   2.950   7.898  1.0831  1.0080  0.8282
 2846TIP3   OH230096   0.958   1.461   7.734 -0.0816 -0.3179 -0.3876
 2846TIP3    H130097   0.924   1.438   7.648 -1.0634 -0.5562  0.0434
 2846TIP3    H230098   0.881   1.490   7.783  0.6356  0.8389  0.0864
 2847TIP3   OH230099   3.947   0.225   1.235 -0.0175  0.2244 -0.0122
 2847TIP3    H130100   3.948   0.315   1.268  0.3996  0.3460 -0.3562
 2847TIP3    H230101   3.944   0.170   1.314  1.2613  0.5044  0.2437
 2848TIP3   OH230102   6.237   4.236   0.088  0.1809  0.2500  0.1350
 2848TIP3    H130103   6.176   4.180   0.135  1.3605 -1.4174 -0.2220
 2848TIP3    H230104   6.193   4.254   0.005  0.4216 -1.5647 -0.4400
 2849TIP3   OH230105   0.896   2.118   8.338  0.7704 -0.4676 -0.4294
 2849TIP3    H130106   0.883   2.072   8.255  1.7784  2.7620 -2.6077
 2849TIP3    H230107   0.833   2.190   8.335  2.6499  1.3229  0.1960
 2850TIP3   OH230108   0.401   1.668   7.535 -0.6952  0.1127  0.0583
 2850TIP3    H130109   0.314   1.634   7.557 -1.0524  1.3019  0.5254
 2850TIP3    H230110   0.403   1.671   7.440 -2.9445  4.3881 -0.0416
 2851TIP3   OH230111   4.636   4.452   0.251 -0.5541 -0.1008  0.2858
 2851TIP3    H130112   4.577   4.499   0.311  0.8848  0.3266  1.4133
 2851TIP3    H230113   4.718   4.445   0.299  1.1266  1.5058 -2.1999
 2852TIP3   OH230114   4.794   6.854   0.284  0.6650  0.3024  0.0711
 2852TIP3    H130115   4.754   6.791   0.344  1.1142 -0.7216 -0.6666
 2852TIP3    H230116   4.725   6.919   0.269 -0.1500 -0.5032  0.1544
 2853TIP3   OH230117   5.347   4.753   7.942  0.4701  0.3800 -0.1781
 2853TIP3    H130118   5.388   4.695   8.006  0.5556  1.6589  0.9814
 2853TIP3    H230119   5.317   4.828   7.994 -0.7622  0.7909 -1.4357
 2854TIP3   OH230120   3.139   1.817   7.045  0.0118  0.5327 -0.1676
 2854TIP3    H130121   3.202   1.781   6.983  1.5123  0.1052  1.5320
 2854TIP3    H230122   3.094   1.741   7.082 -0.9987  0.7921 -0.8284
 2855TIP3   OH230123   3.522   5.774   1.526  0.1676  0.3249  0.4417
 2855TIP3    H130124   3.471   5.697   1.503  0.6727 -0.4880  1.8936
 2855TIP3    H230125   3.537   5.766   1.620  1.8677  1.1892  0.2928
 2856TIP3   OH230126   5.319   3.578   1.532  0.4155 -0.7029  0.5131
 2856TIP3    H130127   5.315   3.577   1.436 -0.3787 -0.1640  0.5311
 2856TIP3    H230128   5.410   3.602   1.552  0.2211  0.6837 -0.1332
 2857TIP3   OH230129   2.989   2.068   0.802 -0.0512  0.2664  0.4094
 2857TIP3    H130130   3.010   2.004   0.733  0.7369 -2.2549  2.7878
 2857TIP3    H230131   3.074   2.102   0.830 -0.3060  0.7508  0.6055
 2858TIP3   OH230132   6.162   3.407   0.949  0.4811 -0.4362  0.1235
 2858TIP3    H130133   6.124   3.495   0.942 -1.0084 -1.1691 -1.9927
 2858TIP3    H230134   6.094   3.354   0.991  0.4734 -1.0456 -0.6355
 2859TIP3   OH230135   1.923   4.688   1.178  0.1411 -0.1728  0.0510
 2859TIP3    H130136   2.014   4.699   1.207  0.8609  0.0796 -2.1495
 2859TIP3    H230137   1.930   4.652   1.090 -1.7969  2.2526 -1.2117
 2860TIP3   OH230138   5.742   4.511   2.296 -0.1013  0.4395  0.5306
 2860TIP3    H130139   5.667   4.453   2.306  0.5956 -0.5513  0.1217
 2860TIP3    H230140   5.802   4.464   2.239 -0.3831  2.4202 -1.5687
 2861TIP3   OH230141   6.490   1.740   8.334 -0.4269  0.1811  0.2307
 2861TIP3    H130142   6.478   1.777   8.246  1.6931  0.6137  0.0823
 2861TIP3    H230143   6.418   1.677   8.343 -0.9027  0.3926 -1.6810
 2862TIP3   OH230144   1.345   1.010   6.769 -0.2336  0.5387 -0.2962
 2862TIP3    H130145   1.275   1.017   6.833  0.0304 -0.6964  0.1464
 2862TIP3    H230146   1.339   0.921   6.735  1.2708  0.3081 -0.0509
 2863TIP3   OH230147   6.287   4.916   0.077  0.4479  0.6001  0.3162
 2863TIP3    H130148   6.284   4.869  -0.006  1.2719  1.0662  0.0111
 2863TIP3    H230149   6.245   4.858   0.140  3.6031 -1.6802  0.5321
 2864TIP3   OH230150   5.248   6.551   7.305 -0.1652  0.1137 -0.3690
 2864TIP3    H130151   5.195   6.562   7.384 -0.5838  2.9715 -0.9282
 2864TIP3    H230152   5.293   6.635   7.295  2.2603 -1.2216 -1.5402
 2865TIP3   OH230153   4.447   2.792   2.589  0.5198  0.5491 -0.2601
 2865TIP3    H130154   4.501   2.869   2.571 -1.2599  1.7200 -0.8918
 2865TIP3    H230155   4.378   2.796   2.523 -2.1249  0.8692  2.3694
 2866TIP3   OH230156   5.876   3.668   7.901  0.0981  0.5340 -0.1626
 2866TIP3    H130157   5.917   3.591   7.941  0.2914  0.1526 -1.0709
 2866TIP3    H230158   5.835   3.714   7.974  0.0620 -0.3782  0.4083
 2867TIP3   OH230159   2.765   2.678   1.862  0.1079 -0.4575  0.2925
 2867TIP3    H130160   2.713   2.706   1.938 -0.7561 -1.7748  0.2161
 2867TIP3    H230161   2.821   2.753   1.842 -0.3893  0.2849  1.5913
 2868TIP3   OH230162   6.865   2.542   7.178 -0.5167  0.3454 -0.4962
 2868TIP3    H130163   6.846   2.633   7.154 -1.2934 -0.2069 -2.0679
 2868TIP3    H230164   6.871   2.495   7.095  4.3447 -0.3020 -0.0467
 2869TIP3   OH230165   3.041   6.100   7.230  0.1264  0.4739  0.0985
 2869TIP3    H130166   3.046   6.031   7.164  0.0163 -0.6192  1.2126
 2869TIP3    H230167   2.972   6.072   7.290  1.2522  0.6897  1.5402
 2870TIP3   OH230168   2.851   0.476   0.259 -0.2696  0.2759  0.1511
 2870TIP3    H130169   2.821   0.531   0.186  0.6976  0.4583 -0.1199
 2870TIP3    H230170   2.941   0.503   0.274 -0.4786  0.2749  1.4709
 2871TIP3   OH230171   4.875   0.924   0.402 -0.4270 -1.2482 -0.7030
 2871TIP3    H130172   4.883   0.954   0.312  0.2518 -0.2869 -0.3335
 2871TIP3    H230173   4.815   0.987   0.443 -2.2191 -2.7332 -0.9321
 2872TIP3   OH230174   5.269   5.012   7.357  0.1497 -0.0591  0.6395
 2872TIP3    H130175   5.179   5.040   7.375 -0.1778  0.3588 -1.4309
 2872TIP3    H230176   5.262   4.955   7.280  1.6950  0.2263  0.2490
 2873TIP3   OH230177   3.576   3.469   0.560 -0.5848 -0.1028 -0.3420
 2873TIP3    H130178   3.655   3.499   0.605  1.2096 -2.4363 -1.7071
 2873TIP3    H230179   3.554   3.386   0.603 -2.6334  0.6913  0.2862
 2874TIP3   OH230180   6.152   2.500   1.148 -0.3738 -0.8130 -0.9245
 2874TIP3    H130181   6.216   2.477   1.080  0.1343 -0.5505 -0.5373
 2874TIP3    H230182   6.185   2.457   1.227 -0.3321 -0.1544 -0.5832
 2875TIP3   OH230183   3.685   4.349   7.902  0.2213 -0.2536  0.7664
 2875TIP3    H130184   3.775   4.352   7.870  1.0468  0.0776  2.9424
 2875TIP3    H230185   3.669   4.257   7.921 -0.1864 -0.4171 -0.3067
 2876TIP3   OH230186   3.623   2.940   8.364 -0.1571 -0.1792 -0.1797
 2876TIP3    H130187   3.585   2.941   8.452 -0.9769 -1.1715 -0.5080
 2876TIP3    H230188   3.549   2.953   8.305  0.5527  1.8312 -0.7106
 2877TIP3   OH230189   1.046   6.485   7.681 -0.3389  0.2858 -0.1969
 2877TIP3    H130190   1.010   6.528   7.604  0.4886 -1.4231 -1.6179
 2877TIP3    H230191   1.135   6.518   7.689  0.0131 -0.4855 -0.7845
 2878TIP3   OH230192   5.206   6.429   1.833  0.0302  0.4983  0.2270
 2878TIP3    H130193   5.128   6.385   1.866  0.3492  0.9945  1.7186
 2878TIP3    H230194   5.262   6.440   1.910  0.7711  1.8007 -0.4573
 2879TIP3   OH230195   1.833   6.868   1.525 -0.1404  0.3589 -0.5331
 2879TIP3    H130196   1.758   6.864   1.466 -0.7121 -2.9976  0.1897
 2879TIP3    H230197   1.799   6.838   1.609  1.5618  0.9092  0.3958
 2880TIP3   OH230198   2.167   3.715   7.395  0.4096 -0.0064  0.2336
 2880TIP3    H130199   2.126   3.629   7.407  0.5162 -0.3472 -1.5533
 2880TIP3    H230200   2.242   3.698   7.338  0.0521  1.3409 -0.6932
 2881TIP3   OH230201   0.446   6.061   7.547 -0.5073  0.8828 -0.4158
 2881TIP3    H130202   0.382   6.093   7.484 -0.0709  2.4913 -0.0878
 2881TIP3    H230203   0.406   5.982   7.585 -1.4740  0.8235 -1.5186
 2882TIP3   OH230204   1.395   5.403   0.983  0.2785  0.1515 -0.0862
 2882TIP3    H130205   1.339   5.457   0.928  0.7165  0.4132 -0.2834
 2882TIP3    H230206   1.437   5.343   0.921 -0.8376 -0.9977  0.2254
 2883TIP3   OH230207   1.954   0.597   8.242 -0.1790 -0.2322  0.1077
 2883TIP3    H130208   1.994   0.546   8.312 -3.8493 -2.3905  0.8776
 2883TIP3    H230209   1.968   0.544   8.163  1.4968  0.8198 -0.3537
 2884TIP3   OH230210   0.293   6.220   7.334 -0.1761  0.5387  0.8199
 2884TIP3    H130211   0.326   6.180   7.254 -0.9275 -1.0449  1.2601
 2884TIP3    H230212   0.264   6.307   7.308  1.4786  0.8101 -0.1891
 2885TIP3   OH230213   6.852   4.303   8.267  0.3862 -0.1628  0.2033
 2885TIP3    H130214   6.839   4.334   8.178 -1.5767 -1.6690 -0.1060
 2885TIP3    H230215   6.809   4.369   8.322 -2.9741 -1.6799 -0.3820
 2886TIP3   OH230216   4.877   2.873   1.432 -0.3223  0.1300 -0.3197
 2886TIP3    H130217   4.862   2.871   1.526 -1.0173  0.8188 -0.4027
 2886TIP3    H230218   4.832   2.794   1.400 -0.8191  0.3462 -0.1662
 2887TIP3   OH230219   6.275   0.872   7.849 -0.2997 -0.1392  0.0032
 2887TIP3    H130220   6.210   0.846   7.784 -0.0300  1.0512 -0.7619
 2887TIP3    H230221   6.240   0.952   7.888  0.2613 -0.0028  0.2378
 2888TIP3   OH230222   4.437   2.470   8.234 -0.2123  0.2627 -0.2119
 2888TIP3    H130223   4.383   2.496   8.309 -0.0168  0.5609 -0.1732
 2888TIP3    H230224   4.512   2.529   8.237  0.1398 -0.1758 -0.2445
 2889TIP3   OH230225   5.118   3.119   0.621  0.1020 -0.0419  0.3956
 2889TIP3    H130226   5.054   3.048   0.624  0.0045 -0.0456 -1.0445
 2889TIP3    H230227   5.157   3.112   0.534  0.7190  1.1337  0.5609
 2890TIP3   OH230228   1.892   6.500   7.477 -0.1586  0.3878 -0.4063
 2890TIP3    H130229   1.897   6.506   7.381  2.0722 -0.0309 -0.3720
 2890TIP3    H230230   1.831   6.569   7.502 -1.4390 -0.0323 -2.1676
 2891TIP3   OH230231   3.547   6.467   1.603  0.9058 -0.4211 -0.0944
 2891TIP3    H130232   3.478   6.482   1.540 -1.1384  0.7609  2.2494
 2891TIP3    H230233   3.543   6.373   1.622 -1.3699 -0.1137  1.2979
 2892TIP3   OH230234   2.745   6.611   2.109  0.1337  0.3089  0.0462
 2892TIP3    H130235   2.729   6.612   2.203 -0.5351 -3.8622  0.1581
 2892TIP3    H230236   2.739   6.519   2.084  3.1401  0.8394 -3.6274
 2893TIP3   OH230237   1.292   3.539   0.013  0.1795 -0.1670 -0.2030
 2893TIP3    H130238   1.256   3.546  -0.076  0.3210 -0.5671 -0.2910
 2893TIP3    H230239   1.378   3.499   0.001  0.0873 -0.4675  0.1397
 2894TIP3   OH230240   4.857   4.347   8.101  0.4060 -0.2406  0.2308
 2894TIP3    H130241   4.818   4.299   8.174  1.8417 -2.2378 -0.2128
 2894TIP3    H230242   4.951   4.330   8.109  0.8855  1.8019 -0.5121
 2895TIP3   OH230243   1.994   1.700   6.996  0.0774  0.0794 -0.4960
 2895TIP3    H130244   1.914   1.649   6.982 -1.1919  2.1804 -1.3309
 2895TIP3    H230245   2.014   1.689   7.089 -1.4693 -0.0974 -0.1643
 2896TIP3   OH230246   2.297   6.471   7.467 -0.1761  0.8300 -0.2735
 2896TIP3    H130247   2.330   6.541   7.524  3.5366 -1.8828  1.3425
 2896TIP3    H230248   2.354   6.473   7.390 -0.1147 -0.2856 -0.2785
 2897TIP3   OH230249   0.370   6.038   0.412 -0.3724  0.0035  0.4360
 2897TIP3    H130250   0.309   6.080   0.473 -0.6436  1.0782 -0.5228
 2897TIP3    H230251   0.452   6.087   0.422  0.7404 -2.0945  2.4724
 2898TIP3   OH230252   0.547   6.396   1.552  0.3815 -0.1035  0.1476
 2898TIP3    H130253   0.585   6.315   1.518  1.1122  0.0304  0.6236
 2898TIP3    H230254   0.553   6.387   1.647 -0.2449  0.1815  0.2192
 2899TIP3   OH230255   2.425   6.625   0.353 -0.4311 -0.1976 -0.6021
 2899TIP3    H130256   2.406   6.626   0.446 -0.8258 -0.9583 -0.6657
 2899TIP3    H230257   2.415   6.534   0.327 -0.8024  0.0792 -1.4835
 2900TIP3   OH230258   3.234   2.610   0.717  0.1564  0.4233  0.1512
 2900TIP3    H130259   3.166   2.677   0.725  0.7313  0.9858  0.4209
 2900TIP3    H230260   3.283   2.615   0.799  0.6138  0.1276 -0.0987
 2901TIP3   OH230261   1.833   4.667   7.563  0.0709 -0.3971 -0.5589
 2901TIP3    H130262   1.849   4.761   7.571 -1.3726 -0.1604 -0.3156
 2901TIP3    H230263   1.841   4.649   7.469 -1.4157  0.3146 -0.8397
 2902TIP3   OH230264   2.490   4.401   0.874  0.4791  0.0188 -0.2798
 2902TIP3    H130265   2.568   4.365   0.832  0.1211 -0.8446 -0.2293
 2902TIP3    H230266   2.511   4.403   0.968  0.4004 -0.3089 -0.2562
 2903TIP3   OH230267   4.351   6.482   7.975 -0.3146  0.3042  0.0968
 2903TIP3    H130268   4.315   6.490   8.063  0.2141  0.8163  0.2751
 2903TIP3    H230269   4.357   6.388   7.960 -2.4419  0.1689 -0.2509
 2904TIP3   OH230270   0.846   6.773   1.713  0.5224  0.7375  0.3554
 2904TIP3    H130271   0.793   6.780   1.793  0.9025 -0.2369  0.7135
 2904TIP3    H230272   0.845   6.679   1.693 -0.4928  1.0863 -1.4364
 2905TIP3   OH230273   6.056   1.098   0.458  0.0310  0.1029 -0.9880
 2905TIP3    H130274   6.039   1.190   0.438 -1.2607  0.9527  3.0528
 2905TIP3    H230275   6.151   1.094   0.470  0.1570  0.7835 -1.6790
 2906TIP3   OH230276   0.925   1.366   0.169  0.1650 -0.6683 -0.5593
 2906TIP3    H130277   0.877   1.286   0.148  2.1159 -1.6263 -1.6328
 2906TIP3    H230278   0.925   1.370   0.265 -4.0416  0.7271 -0.3991
 2907TIP3   OH230279   5.070   5.598   0.418  0.0870  0.3423 -0.0865
 2907TIP3    H130280   5.092   5.645   0.498  0.3493 -0.2604  0.1998
 2907TIP3    H230281   4.991   5.549   0.439  1.4470 -1.7035  0.5965
 2908TIP3   OH230282   6.579   4.654   0.120  0.5356  0.2107  0.2610
 2908TIP3    H130283   6.613   4.741   0.142  0.7100 -0.3073  2.2679
 2908TIP3    H230284   6.578   4.607   0.204 -2.6641 -0.6764 -0.1474
 2909TIP3   OH230285   1.271   5.761   7.662  0.0223 -0.1631  0.1464
 2909TIP3    H130286   1.205   5.771   7.731 -0.5153  1.9072 -0.5807
 2909TIP3    H230287   1.332   5.696   7.696 -0.6686  0.1932  2.2131
 2910TIP3   OH230288   6.272   0.633   1.301 -0.4118  0.1353 -0.4006
 2910TIP3    H130289   6.254   0.660   1.391 -0.1696 -0.6892 -0.0983
 2910TIP3    H230290   6.341   0.567   1.309 -0.0226  0.4152 -1.2321
 2911TIP3   OH230291   6.468   5.861   0.411 -0.0439  0.1643 -0.1107
 2911TIP3    H130292   6.554   5.904   0.412  0.4032 -0.5056  3.7308
 2911TIP3    H230293   6.489   5.767   0.412 -0.6981 -0.0071  1.9628
 2912TIP3   OH230294   0.193   5.022   8.104  0.1169  0.1702  0.6969
 2912TIP3    H130295   0.105   5.060   8.111 -0.1395 -0.4335  0.7849
 2912TIP3    H230296   0.252   5.097   8.115 -0.3865  0.6595  0.1396
 2913TIP3   OH230297   5.528   5.701   1.227  0.8853  0.1581  0.1403
 2913TIP3    H130298   5.500   5.614   1.198  0.2003  0.5335 -0.3533
 2913TIP3    H230299   5.481   5.762   1.169  1.1464  0.8648  0.6580
 2914TIP3   OH230300   5.861   4.019   1.361 -0.6733 -0.2989 -0.0506
 2914TIP3    H130301   5.905   4.078   1.300 -1.1803  0.4182  0.2601
 2914TIP3    H230302   5.854   3.936   1.314  0.9341 -0.4122 -0.1204
 2915TIP3   OH230303   5.954   6.434   7.564  0.7697  0.1465  0.1800
 2915TIP3    H130304   5.909   6.353   7.589  0.2740  0.0441 -0.9946
 2915TIP3    H230305   5.890   6.503   7.576  1.2374  0.4089  1.3189
 2916TIP3   OH230306   6.729   5.741   1.570  0.1385  0.1005 -0.2897
 2916TIP3    H130307   6.799   5.680   1.545  1.9004  1.2862  1.4270
 2916TIP3    H230308   6.684   5.697   1.643  0.8095  0.4344  0.3354
 2917TIP3   OH230309   5.309   1.538   2.368 -0.1693  0.1821 -0.6296
 2917TIP3    H130310   5.391   1.576   2.335  0.5823  0.6883  1.6255
 2917TIP3    H230311   5.248   1.611   2.370  0.5368  0.7977  1.3278
 2918TIP3   OH230312   0.614   1.361   7.344 -0.3382 -0.3384  0.2605
 2918TIP3    H130313   0.578   1.273   7.352 -0.0925 -0.3598  1.1973
 2918TIP3    H230314   0.629   1.390   7.434  0.1913  0.4107 -0.0542
 2919TIP3   OH230315   6.669   2.330   6.203 -0.6921 -0.1021 -0.7347
 2919TIP3    H130316   6.725   2.356   6.130  1.4272 -0.1553  0.7892
 2919TIP3    H230317   6.687   2.237   6.216 -0.3102  0.1300  0.4574
 2920TIP3   OH230318   4.991   6.903   0.658  0.6012  0.0481 -0.0949
 2920TIP3    H130319   4.919   6.934   0.604 -0.6293  1.3496  2.1363
 2920TIP3    H230320   5.069   6.916   0.604 -0.5038  1.6140 -1.4019
 2921TIP3   OH230321   0.626   1.493   0.231  0.1501 -0.0027 -0.2129
 2921TIP3    H130322   0.689   1.453   0.292 -0.5822 -1.7786 -0.5721
 2921TIP3    H230323   0.667   1.576   0.207  1.7804 -0.5364  0.5174
 2922TIP3   OH230324   4.988   2.913   7.309  0.1484  0.0247 -0.1457
 2922TIP3    H130325   5.083   2.910   7.316  0.0984 -0.3946  0.4776
 2922TIP3    H230326   4.958   2.836   7.358 -0.4851 -0.2046 -0.8808
 2923TIP3   OH230327   3.591   3.722   7.523 -0.4386 -0.2831 -0.6912
 2923TIP3    H130328   3.545   3.701   7.604 -1.3534 -0.8267 -1.3429
 2923TIP3    H230329   3.622   3.811   7.536  1.7065 -1.1852  1.3013
 2924TIP3   OH230330   3.717   0.325   6.385  0.6339  0.4072 -0.3901
 2924TIP3    H130331   3.642   0.383   6.398 -0.8319 -1.1503 -1.3956
 2924TIP3    H230332   3.774   0.372   6.324 -1.0723  0.3675 -2.0910
 2925TIP3   OH230333   6.084   4.060   2.190  0.1184  0.1173  0.0573
 2925TIP3    H130334   6.062   4.058   2.096  1.3648  2.0189 -0.3144
 2925TIP3    H230335   6.004   4.089   2.233 -0.0951  0.4462 -0.5559
 2926TIP3   OH230336   0.280   4.850   0.462 -0.0196  0.2304  0.1257
 2926TIP3    H130337   0.350   4.788   0.484 -0.3748 -0.8360 -1.5308
 2926TIP3    H230338   0.326   4.928   0.430  0.5033 -0.8265 -1.9134
 2927TIP3   OH230339   1.420   4.138   1.789  0.2009 -0.1158 -0.2926
 2927TIP3    H130340   1.349   4.186   1.746 -1.0389 -0.9451  0.7493
 2927TIP3    H230341   1.466   4.205   1.840  0.5363  0.5305 -1.3991
 2928TIP3   OH230342   2.497   0.707   7.746  0.1021 -0.1795  0.3851
 2928TIP3    H130343   2.583   0.673   7.771  0.0730  1.3032  2.9199
 2928TIP3    H230344   2.450   0.717   7.829 -1.7728  0.9976 -0.7277
 2929TIP3   OH230345   0.909   1.589   0.911  0.0032 -0.1855 -0.2208
 2929TIP3    H130346   0.951   1.571   0.995 -1.8832  0.4270  0.8845
 2929TIP3    H230347   0.916   1.683   0.900 -1.3775 -0.0313  0.1516
 2930TIP3   OH230348   4.095   0.159   7.838 -0.2834  0.7554  0.0885
 2930TIP3    H130349   4.171   0.201   7.799  0.3379 -1.5381 -1.3624
 2930TIP3    H230350   4.045   0.126   7.763 -1.8724  0.7824  1.0903
 2931TIP3   OH230351   0.655   4.646   8.395 -0.6658 -0.1809  0.7157
 2931TIP3    H130352   0.565   4.673   8.376 -1.1367 -1.4146  1.0999
 2931TIP3    H230353   0.662   4.558   8.358 -0.4009 -1.0989  2.8077
 2932TIP3   OH230354   5.273   6.920   7.581 -0.0759 -0.2546  0.0353
 2932TIP3    H130355   5.199   6.908   7.641 -0.9586 -0.6071 -1.0905
 2932TIP3    H230356   5.238   6.971   7.508  0.7685 -0.5090 -0.5687
 2933TIP3   OH230357   4.261   5.316   0.499  0.0449 -0.2849 -0.4412
 2933TIP3    H130358   4.172   5.348   0.510 -0.7980 -2.2864 -0.9091
 2933TIP3    H230359   4.310   5.391   0.466 -1.7601  0.5217 -1.4294
 2934TIP3   OH230360   5.151   2.511   7.465 -0.0849  0.2299  0.1062
 2934TIP3    H130361   5.146   2.459   7.384 -0.0505  0.7386 -0.2238
 2934TIP3    H230362   5.115   2.453   7.532  0.1186 -0.2940 -0.2240
 2935TIP3   OH230363   0.560   2.611   7.219 -0.0958  0.3936  0.4792
 2935TIP3    H130364   0.548   2.517   7.208  0.1780 -0.1529  3.7949
 2935TIP3    H230365   0.471   2.646   7.226 -0.2364  0.6092 -1.6312
 2936TIP3   OH230366   5.421   5.488   1.118  0.1819  0.2056  0.0789
 2936TIP3    H130367   5.443   5.446   1.035 -0.2894 -0.9744  0.5170
 2936TIP3    H230368   5.335   5.453   1.140  1.0446 -0.9337  1.9340
 2937TIP3   OH230369   5.371   1.328   8.324 -0.1727  0.3018 -0.0925
 2937TIP3    H130370   5.382   1.402   8.385 -2.3159  1.5352 -1.0772
 2937TIP3    H230371   5.421   1.353   8.247 -0.5216  0.5147 -0.2505
 2938TIP3   OH230372   0.562   1.321   0.809  0.2234  0.5202 -0.6326
 2938TIP3    H130373   0.622   1.395   0.808  1.3456 -0.3263  0.2398
 2938TIP3    H230374   0.489   1.350   0.864  0.8211  0.8708 -0.0050
 2939TIP3   OH230375   5.618   6.670   8.403  0.3669 -0.1133 -0.8512
 2939TIP3    H130376   5.679   6.698   8.471 -1.2184 -1.3223  1.1891
 2939TIP3    H230377   5.551   6.739   8.402 -0.2761 -0.7165 -0.2507
 2940TIP3   OH230378   2.678   2.345   1.950 -0.1880  0.4629  0.2938
 2940TIP3    H130379   2.608   2.368   2.011  0.3853 -0.8811  1.5031
 2940TIP3    H230380   2.739   2.418   1.956  0.3860 -0.1039  2.1891
 2941TIP3   OH230381   0.056   6.114   8.311  0.3467 -0.1978 -0.1919
 2941TIP3    H130382   0.109   6.053   8.260  1.6888  0.1552  0.7353
 2941TIP3    H230383   0.119   6.164   8.362 -0.9042 -2.0421  3.5404
 2942TIP3   OH230384   4.450   3.134   1.163  0.4484 -1.1320  0.2544
 2942TIP3    H130385   4.479   3.078   1.235 -2.3008 -1.3566  1.3278
 2942TIP3    H230386   4.502   3.214   1.171  1.5756 -1.9371  1.2447
 2943TIP3   OH230387   5.518   3.270   8.517  0.1158  0.2003 -0.1826
 2943TIP3    H130388   5.462   3.345   8.497 -0.8670  0.6775  3.6303
 2943TIP3    H230389   5.604   3.296   8.484 -0.9418  1.2789 -2.3644
 2944TIP3   OH230390   4.665   4.151   1.216 -0.0065  0.3949 -0.1938
 2944TIP3    H130391   4.577   4.119   1.236 -0.4771  1.5868 -0.3309
 2944TIP3    H230392   4.705   4.079   1.167 -0.4852 -0.6260  0.8529
 2945TIP3   OH230393   0.360   5.019   7.240 -0.1057 -0.2524 -0.1480
 2945TIP3    H130394   0.447   5.059   7.239  0.3572 -1.1783  0.6753
 2945TIP3    H230395   0.304   5.081   7.194  1.0543  0.2099 -0.9817
 2946TIP3   OH230396   3.416   4.620   8.258 -0.2182  0.1517  0.0461
 2946TIP3    H130397   3.459   4.706   8.254 -0.8013  0.5159  1.0649
 2946TIP3    H230398   3.486   4.557   8.244  0.4408  0.7670  0.4968
 2947TIP3   OH230399   4.789   0.105   1.889  0.3887 -0.2858 -0.2853
 2947TIP3    H130400   4.871   0.138   1.850 -0.4112  0.8721 -1.0595
 2947TIP3    H230401   4.780   0.154   1.970  0.6432 -0.6786 -0.0182
 2948TIP3   OH230402   6.358   6.110   1.541  0.0881  0.0239 -0.4752
 2948TIP3    H130403   6.356   6.192   1.591  0.3310 -0.0074 -0.4119
 2948TIP3    H230404   6.443   6.072   1.563  0.5416  0.3975 -1.5366
 2949TIP3   OH230405   2.852   6.873   7.659 -0.4059  0.2178  0.0642
 2949TIP3    H130406   2.875   6.780   7.656 -1.4291 -0.0267 -2.0697
 2949TIP3    H230407   2.935   6.919   7.652  0.2702 -0.4548  2.6064
 2950TIP3   OH230408   2.190   3.848   0.412 -0.2370  0.2964 -0.4587
 2950TIP3    H130409   2.186   3.752   0.406 -0.9418  0.1974  1.1357
 2950TIP3    H230410   2.170   3.867   0.503 -1.2997  2.0502 -1.0223
 2951TIP3   OH230411   1.359   2.593   1.298 -0.5267  0.5987 -0.2437
 2951TIP3    H130412   1.393   2.604   1.209 -0.2924 -1.8524 -0.5269
 2951TIP3    H230413   1.268   2.568   1.286 -0.1784 -0.9716  0.0881
 2952TIP3   OH230414   3.240   5.261   7.232 -0.0065 -0.2958 -0.6132
 2952TIP3    H130415   3.173   5.217   7.180  0.0892  0.3779 -1.3197
 2952TIP3    H230416   3.235   5.353   7.207  0.7862 -0.1361 -0.2420
 2953TIP3   OH230417   6.461   3.673   7.516 -0.0867  0.3144 -0.3002
 2953TIP3    H130418   6.460   3.765   7.493 -1.4184  0.1315 -1.0201
 2953TIP3    H230419   6.543   3.662   7.565  0.1579  1.8292 -0.3262
 2954TIP3   OH230420   0.074   0.032   8.097 -0.1956 -0.1380 -0.5833
 2954TIP3    H130421   0.144   0.085   8.058 -0.4526  0.0822 -0.7455
 2954TIP3    H230422   0.040   0.086   8.168 -1.4148  0.5421 -1.6397
 2955TIP3   OH230423   4.022   1.880   7.037 -0.1225  0.5076 -0.1009
 2955TIP3    H130424   4.041   1.903   6.946 -0.7600 -0.3873 -0.4737
 2955TIP3    H230425   4.070   1.799   7.052  0.1047  0.7354  0.4146
 2956TIP3   OH230426   3.207   5.074   7.450  0.3419  0.3113  0.5333
 2956TIP3    H130427   3.206   5.144   7.384  1.5472 -0.3298 -0.1997
 2956TIP3    H230428   3.115   5.047   7.457  0.2690 -0.1973 -1.5627
 2957TIP3   OH230429   3.354   3.945   0.059  0.4099  0.1712  0.4620
 2957TIP3    H130430   3.310   3.971  -0.021  0.2719 -0.4712  0.3260
 2957TIP3    H230431   3.439   3.990   0.056  0.8212 -0.6494 -0.5370
 2958TIP3   OH230432   1.689   5.355   7.764  0.3883  0.4582  0.0829
 2958TIP3    H130433   1.727   5.318   7.684  2.7190 -2.5158  2.3264
 2958TIP3    H230434   1.604   5.312   7.772  0.5935 -0.0153 -0.2583
 2959TIP3   OH230435   5.150   2.208   0.307 -0.1746  0.5872 -0.2700
 2959TIP3    H130436   5.152   2.198   0.402  0.4465 -2.1139 -0.4915
 2959TIP3    H230437   5.063   2.177   0.281  0.2845 -0.3766 -0.6987
 2960TIP3   OH230438   4.405   2.991   7.908 -0.0048 -0.2307 -0.0697
 2960TIP3    H130439   4.448   2.908   7.929  1.5304  0.4318 -0.4731
 2960TIP3    H230440   4.443   3.018   7.824 -0.7909  0.6879 -0.1543
 2961TIP3   OH230441   6.755   4.878   0.188  0.0405 -0.0039 -0.1272
 2961TIP3    H130442   6.717   4.951   0.139 -0.4434 -0.2031 -0.0514
 2961TIP3    H230443   6.850   4.890   0.179 -0.0258  0.8855  0.2570
 2962TIP3   OH230444   0.054   0.690   6.639 -0.3166  0.5199 -0.5680
 2962TIP3    H130445   0.032   0.603   6.672  0.9077 -0.2536 -1.6323
 2962TIP3    H230446  -0.017   0.711   6.578 -1.0298  0.6297  0.2889
 2963TIP3   OH230447   3.376   2.195   0.649 -0.7050 -0.3720  0.2667
 2963TIP3    H130448   3.322   2.143   0.591 -2.3305  0.9328  0.5395
 2963TIP3    H230449   3.392   2.276   0.601  1.2232 -0.7717  0.1188
 2964TIP3   OH230450   1.436   0.259   0.579 -0.0574 -0.3055  0.1110
 2964TIP3    H130451   1.345   0.277   0.556 -0.3520 -1.6499  0.1814
 2964TIP3    H230452   1.442   0.283   0.672 -0.5192 -0.8197  0.2790
 2965TIP3   OH230453   3.022   3.295   0.877 -0.2225  0.2480 -0.6117
 2965TIP3    H130454   3.063   3.228   0.823 -0.2955  1.4542 -2.2316
 2965TIP3    H230455   2.936   3.260   0.899  0.7334 -1.3197  0.8757
 2966TIP3   OH230456   3.566   2.123   1.393  0.4660  0.2797  0.7114
 2966TIP3    H130457   3.522   2.073   1.462 -0.1831 -1.3105 -0.7659
 2966TIP3    H230458   3.522   2.207   1.393 -2.8460 -1.2659 -0.7584
 2967TIP3   OH230459   0.482   1.373   1.229  0.3905  0.3985 -0.0634
 2967TIP3    H130460   0.435   1.337   1.304  0.3415  0.3049 -0.1397
 2967TIP3    H230461   0.413   1.404   1.170  0.4299  1.5952  0.4755
 2968TIP3   OH230462   0.003   5.743   7.752 -0.2698  0.2533  0.4798
 2968TIP3    H130463   0.058   5.699   7.816 -1.8678 -0.6798  1.3005
 2968TIP3    H230464   0.032   5.834   7.753  1.9073 -0.3800  0.0981
 2969TIP3   OH230465   2.707   0.197   1.045 -0.3274 -0.3785 -0.5192
 2969TIP3    H130466   2.640   0.265   1.050  1.9817  2.0058  0.3462
 2969TIP3    H230467   2.712   0.174   0.953 -1.0132  0.8008 -0.8693
 2970TIP3   OH230468   3.772   0.307   0.319  0.3561  0.1890 -0.2142
 2970TIP3    H130469   3.747   0.352   0.400 -2.3902  0.7140 -1.2422
 2970TIP3    H230470   3.754   0.371   0.250 -0.2609 -1.2757 -1.4544
 2971TIP3   OH230471   0.677   3.872   6.757 -0.3020  0.1339  0.5257
 2971TIP3    H130472   0.658   3.959   6.792  0.4630  0.6603 -0.2937
 2971TIP3    H230473   0.599   3.849   6.706  0.1889  1.1914 -0.7919
 2972TIP3   OH230474   4.336   3.016   0.173  0.8796 -0.0996  0.3020
 2972TIP3    H130475   4.277   2.953   0.214  2.2206 -2.0881 -0.6412
 2972TIP3    H230476   4.374   2.969   0.099  1.4534  2.0756 -0.8712
 2973TIP3   OH230477   5.434   2.251   0.689  0.3501  0.0227  0.6011
 2973TIP3    H130478   5.480   2.211   0.763  0.8377 -0.4050  0.0790
 2973TIP3    H230479   5.370   2.310   0.730 -0.2037 -1.0706  1.3983
 2974TIP3   OH230480   2.120   5.788   1.300 -0.4127 -0.0802  0.2907
 2974TIP3    H130481   2.087   5.772   1.389 -1.0910 -1.2022 -0.1521
 2974TIP3    H230482   2.203   5.741   1.296 -0.1842  0.3030  0.4507
 2975TIP3   OH230483   6.553   3.539   6.740 -0.2433 -0.5112 -0.4062
 2975TIP3    H130484   6.515   3.571   6.658 -0.6453  0.1369  0.0271
 2975TIP3    H230485   6.616   3.473   6.713 -0.7601 -0.6856 -1.2124
 2976TIP3   OH230486   5.045   2.462   0.928  0.5917  0.9010  0.1138
 2976TIP3    H130487   5.117   2.448   0.867  0.4386 -1.9958  0.4308
 2976TIP3    H230488   5.075   2.532   0.986  1.3644  2.6552 -2.2536
 2977TIP3   OH230489   5.985   0.805   8.100  0.2236  0.0011 -0.3105
 2977TIP3    H130490   5.960   0.894   8.079 -1.4282  0.3690  2.7169
 2977TIP3    H230491   6.039   0.813   8.178 -0.2731 -1.6556  0.2476
 2978TIP3   OH230492   0.021   4.865   1.914  0.4170 -0.2210  0.0491
 2978TIP3    H130493  -0.058   4.817   1.889  0.2615 -0.1352  0.3736
 2978TIP3    H230494  -0.007   4.923   1.985  0.6171  0.3012 -0.2873
 2979TIP3   OH230495   6.735   1.591   8.185 -0.3349 -0.2835 -0.4091
 2979TIP3    H130496   6.677   1.623   8.254  0.5818  0.2326  0.1302
 2979TIP3    H230497   6.793   1.529   8.229  1.0758  0.9733 -0.4215
 2980TIP3   OH230498   1.143   4.984   7.741 -0.8670  0.8404 -0.4427
 2980TIP3    H130499   1.154   4.889   7.740  0.1856  0.9176 -3.2687
 2980TIP3    H230500   1.115   5.003   7.831  0.4107 -1.9459  0.6877
 2981TIP3   OH230501   1.017   4.997   8.048  0.1795  0.3617  0.0345
 2981TIP3    H130502   1.036   5.077   8.098  1.4346  0.3459 -0.3585
 2981TIP3    H230503   1.021   4.927   8.112  0.9735  0.4270  0.0672
 2982TIP3   OH230504   3.549   4.878   1.753 -0.0061  0.0413 -0.1466
 2982TIP3    H130505   3.644   4.879   1.740 -0.1044  1.5409 -1.0526
 2982TIP3    H230506   3.537   4.883   1.848  0.8314  0.2543 -0.0472
 2983TIP3   OH230507   0.253   0.427   1.501 -0.3738 -0.2013  0.0823
 2983TIP3    H130508   0.288   0.350   1.456  1.0574  1.0258 -0.9894
 2983TIP3    H230509   0.159   0.425   1.482 -0.2236 -1.1884 -0.6528
 2984TIP3   OH230510   1.307   4.621   0.676 -0.5823  0.0434 -0.0028
 2984TIP3    H130511   1.399   4.606   0.655 -0.2119  0.5042  1.2190
 2984TIP3    H230512   1.284   4.702   0.631 -1.2309 -1.4658 -2.6380
 2985TIP3   OH230513   3.119   2.773   7.197  0.0715  0.4036 -0.2056
 2985TIP3    H130514   3.137   2.716   7.272 -0.1187 -0.3051 -0.6862
 2985TIP3    H230515   3.115   2.861   7.234 -0.8333 -0.0132  0.7468
 2986TIP3   OH230516   1.919   4.144   0.339 -0.8599 -0.5963 -0.3368
 2986TIP3    H130517   1.957   4.094   0.410 -2.0970 -1.4377 -0.2446
 2986TIP3    H230518   1.830   4.110   0.330 -0.6059 -0.8362 -2.5720
 2987TIP3   OH230519   1.864   0.172   1.323 -0.0343 -0.0712  0.5161
 2987TIP3    H130520   1.809   0.109   1.277 -0.0257  0.6373 -0.4906
 2987TIP3    H230521   1.949   0.128   1.332  0.1024 -0.0594 -0.5582
 2988TIP3   OH230522   5.404   6.370   0.961  0.0681  0.4359 -0.4620
 2988TIP3    H130523   5.388   6.427   1.036  1.2187 -1.1528  1.0791
 2988TIP3    H230524   5.317   6.354   0.924 -0.4111  2.0360 -0.0999
 2989TIP3   OH230525   5.151   6.921   7.834  0.2699 -0.1284  0.0654
 2989TIP3    H130526   5.208   6.904   7.910  0.1852  0.8648  0.3649
 2989TIP3    H230527   5.088   6.986   7.865  0.9696  1.1974 -1.1983
 2990TIP3   OH230528   5.863   5.952   1.992  0.0792  0.1676  0.3179
 2990TIP3    H130529   5.863   5.944   1.897 -2.5563 -0.3313  0.3092
 2990TIP3    H230530   5.867   6.047   2.008 -0.2410  0.2892 -0.3059
 2991TIP3   OH230531   1.915   4.213   0.686 -0.2598  0.4746  0.0680
 2991TIP3    H130532   1.827   4.226   0.650 -0.5837 -0.1759  0.6068
 2991TIP3    H230533   1.915   4.264   0.767  0.1318  1.1220 -0.3340
 2992TIP3   OH230534   4.206   2.927   7.185  0.2357 -0.2937  0.3804
 2992TIP3    H130535   4.152   2.946   7.108  0.5139 -0.8045  0.0570
 2992TIP3    H230536   4.249   2.844   7.164  0.9715 -0.0056  0.7289
 2993TIP3   OH230537   0.702   6.189   6.316 -0.7634 -0.1214  0.7571
 2993TIP3    H130538   0.754   6.245   6.258 -2.0014  0.0638 -0.2166
 2993TIP3    H230539   0.703   6.235   6.400  0.9367 -0.3193  0.8855
 2994TIP3   OH230540   2.597   2.804   8.107  0.2206  0.4841 -0.2647
 2994TIP3    H130541   2.668   2.860   8.141 -0.2919  0.3307  1.1231
 2994TIP3    H230542   2.617   2.718   8.143  0.1874  0.0878 -1.1822
 2995TIP3   OH230543   3.763   0.778   6.922 -0.1957  0.2859  0.2161
 2995TIP3    H130544   3.682   0.820   6.893 -1.2858 -1.9193 -0.1995
 2995TIP3    H230545   3.833   0.837   6.894 -1.6123  1.8337 -0.1878
 2996TIP3   OH230546   5.607   3.486   1.603  0.2141  0.0447  0.1794
 2996TIP3    H130547   5.558   3.407   1.626 -0.6391  0.2527 -0.8286
 2996TIP3    H230548   5.678   3.454   1.546 -0.2135  0.0085 -0.3423
 2997TIP3   OH230549   0.910   6.016   1.006  0.5103  0.4030  0.2556
 2997TIP3    H130550   0.988   6.010   0.951  1.0414  1.3486  0.8656
 2997TIP3    H230551   0.937   5.976   1.089  0.0893  0.0394  0.2189
 2998TIP3   OH230552   2.799   2.439   7.204  0.2126  0.5727 -0.3686
 2998TIP3    H130553   2.825   2.531   7.201 -0.9166  0.8737 -1.2677
 2998TIP3    H230554   2.760   2.422   7.119 -0.5078 -0.4656  0.1510
 2999TIP3   OH230555   2.543   6.390   1.870  0.1955 -0.2424 -0.0873
 2999TIP3    H130556   2.619   6.347   1.834 -1.2922 -4.4181  1.1842
 2999TIP3    H230557   2.562   6.398   1.964 -0.9090 -1.4637  0.2678
 3000TIP3   OH230558   6.906   5.004   6.436  0.0905 -0.1541 -0.4036
 3000TIP3    H130559   6.917   5.075   6.373 -0.3978 -0.0081 -0.3329
 3000TIP3    H230560   6.951   4.929   6.396  1.0331  0.3214 -0.2472
 3001TIP3   OH230561   5.892   1.439   1.227 -0.0176 -0.0039  0.2503
 3001TIP3    H130562   5.798   1.423   1.221 -0.3282  1.2968  1.0713
 3001TIP3    H230563   5.906   1.518   1.175  0.0558  1.5952  2.5405
 3002TIP3   OH230564   3.712   1.062   6.431  0.3606  0.2036 -0.1472
 3002TIP3    H130565   3.669   1.087   6.512 -1.3823 -1.5243 -0.4510
 3002TIP3    H230566   3.802   1.091   6.441  0.0068  0.6813  2.0943
 3003TIP3   OH230567   2.321   4.561   8.273 -0.2021 -0.0324 -0.0179
 3003TIP3    H130568   2.293   4.643   8.314  1.5667  0.0655  1.1087
 3003TIP3    H230569   2.416   4.562   8.280  0.1900 -0.3042 -3.6878
 3004TIP3   OH230570   0.376   3.440   0.468 -0.3867  0.7128  0.3697
 3004TIP3    H130571   0.405   3.439   0.559 -0.3554 -3.7119  0.4902
 3004TIP3    H230572   0.457   3.435   0.417 -0.5035 -1.1494  0.3202
 3005TIP3   OH230573   0.388   4.723   8.376 -0.3137 -0.3406 -0.3069
 3005TIP3    H130574   0.368   4.745   8.285 -2.5317 -0.6815  0.0332
 3005TIP3    H230575   0.310   4.676   8.407 -0.6799  1.7829  2.4435
 3006TIP3   OH230576   5.918   6.756   0.333 -0.7319  0.2159 -0.3497
 3006TIP3    H130577   6.009   6.725   0.333 -0.5179  0.8234 -0.5560
 3006TIP3    H230578   5.908   6.801   0.416 -0.5212  1.0483 -0.7675
 3007TIP3   OH230579   0.014   5.437   6.571  0.0807 -0.0163  1.0401
 3007TIP3    H130580   0.015   5.532   6.559 -0.5580 -0.1866 -0.6704
 3007TIP3    H230581  -0.065   5.421   6.622 -0.9782  0.2281 -0.4676
 3008TIP3   OH230582   4.599   1.658   0.340  0.5952 -0.1537  0.4324
 3008TIP3    H130583   4.596   1.660   0.244 -0.7887 -2.4714  0.3616
 3008TIP3    H230584   4.642   1.575   0.361  0.6676  0.2110  1.8446
 3009TIP3   OH230585   4.712   6.504   7.633 -0.0445 -0.1633 -0.2920
 3009TIP3    H130586   4.644   6.452   7.675 -1.0723  0.9298 -0.5650
 3009TIP3    H230587   4.751   6.445   7.568  1.5845 -1.8989  2.0775
 3010TIP3   OH230588   0.272   5.848   1.923 -0.1119  0.3350 -0.0269
 3010TIP3    H130589   0.188   5.818   1.888  0.2339  0.1398 -0.6817
 3010TIP3    H230590   0.308   5.903   1.854  0.2082  0.5848  0.3407
 3011TIP3   OH230591   0.358   5.919   8.475  0.5923  0.2864  0.1164
 3011TIP3    H130592   0.411   5.996   8.456  2.5808 -1.4729 -2.1840
 3011TIP3    H230593   0.407   5.874   8.544  0.3607  0.2326  0.2455
 3012TIP3   OH230594   4.387   3.973   1.255  0.6005 -0.6205 -0.4504
 3012TIP3    H130595   4.396   3.972   1.350  0.4008 -2.1326 -0.4298
 3012TIP3    H230596   4.292   3.971   1.240  0.6039  0.3433 -0.6997
 3013TIP3   OH230597   1.164   2.592   0.079 -0.6012 -0.4680  0.1836
 3013TIP3    H130598   1.105   2.605   0.004 -0.5666 -1.9112 -0.1264
 3013TIP3    H230599   1.111   2.543   0.142  0.7540 -3.5510 -0.8890
 3014TIP3   OH230600   6.474   2.000   7.267 -0.0555 -0.5592 -0.6930
 3014TIP3    H130601   6.417   1.942   7.218  2.0672 -1.6120 -2.0433
 3014TIP3    H230602   6.561   1.962   7.258  0.9491  1.1422  1.0146
 3015TIP3   OH230603   6.726   6.835   6.741  0.4346  0.3326 -0.3955
 3015TIP3    H130604   6.752   6.790   6.660  0.1438  0.3184 -0.4803
 3015TIP3    H230605   6.631   6.829   6.743  0.4895 -0.7007  0.5388
 3016TIP3   OH230606   1.206   2.670   7.633 -0.3238 -0.8125  0.4916
 3016TIP3    H130607   1.233   2.673   7.542 -3.7678  0.1386 -0.6629
 3016TIP3    H230608   1.191   2.761   7.658  0.1473 -1.0837  1.8963
 3017TIP3   OH230609   1.092   6.729   2.660  0.1030  0.4942 -0.3489
 3017TIP3    H130610   1.150   6.655   2.645  1.3719  1.3525  0.0837
 3017TIP3    H230611   1.007   6.691   2.681  0.8013 -0.8268  0.1520
 3018TIP3   OH230612   5.728   0.892   7.148  0.0389  0.0703 -0.5139
 3018TIP3    H130613   5.730   0.817   7.207  1.7940  0.1070 -0.4747
 3018TIP3    H230614   5.731   0.854   7.060 -0.5631  0.0605 -0.5297
 3019TIP3   OH230615   3.600   4.847   7.082  0.0311 -0.5813  0.3776
 3019TIP3    H130616   3.524   4.794   7.056  0.3630 -0.0921 -1.8117
 3019TIP3    H230617   3.665   4.784   7.111  0.1422 -1.3953 -1.4613
 3020TIP3   OH230618   2.623   4.904   2.134  0.2818 -0.0539 -0.2327
 3020TIP3    H130619   2.652   4.823   2.175  0.0147 -0.0138  0.0324
 3020TIP3    H230620   2.704   4.945   2.102  0.3582 -0.7257 -0.9290
 3021TIP3   OH230621   3.323   2.578   1.777 -0.0206  0.7891  0.2608
 3021TIP3    H130622   3.398   2.632   1.751  0.6657 -0.4277 -0.3397
 3021TIP3    H230623   3.289   2.543   1.695 -0.2551  0.0488  0.6706
 3022TIP3   OH230624   0.713   3.142   1.644  0.3522  0.2329 -0.1528
 3022TIP3    H130625   0.733   3.210   1.709 -0.7754  1.9928 -1.5267
 3022TIP3    H230626   0.636   3.097   1.679  1.1873 -0.4503  0.8360
 3023TIP3   OH230627   4.343   3.924   2.446 -0.1074 -0.0055  0.0735
 3023TIP3    H130628   4.385   4.007   2.427 -0.5257 -0.2686 -2.2166
 3023TIP3    H230629   4.408   3.857   2.424  0.1170 -0.3475  1.6083
 3024TIP3   OH230630   3.482   0.157   1.904 -0.0836  0.1072  0.3498
 3024TIP3    H130631   3.524   0.200   1.979 -0.4643  0.5997  0.2885
 3024TIP3    H230632   3.397   0.128   1.938 -0.3573  0.5447  0.0502
 3025TIP3   OH230633   0.554   6.699   1.067 -0.0479 -0.8638  0.3193
 3025TIP3    H130634   0.622   6.646   1.026  1.6426  0.0913  1.7684
 3025TIP3    H230635   0.601   6.770   1.110 -2.1503  1.1815 -0.5621
 3026TIP3   OH230636   3.714   5.715   0.581  0.4836 -0.8241 -0.0177
 3026TIP3    H130637   3.781   5.759   0.634 -0.9849  0.3076  0.9974
 3026TIP3    H230638   3.644   5.780   0.574 -0.8314 -2.2454 -0.3840
 3027TIP3   OH230639   1.682   0.168   7.882 -0.5990  0.2581  0.3712
 3027TIP3    H130640   1.602   0.189   7.835 -0.1201  1.1226 -0.0739
 3027TIP3    H230641   1.737   0.125   7.816 -1.6802 -2.8713  1.3224
 3028TIP3   OH230642   4.957   4.404   0.388  0.1790 -0.1289 -0.0461
 3028TIP3    H130643   5.034   4.458   0.373  0.7459 -0.6370  0.8963
 3028TIP3    H230644   4.930   4.374   0.301  1.0256  0.0802 -0.3825
 3029TIP3   OH230645   4.529   6.225   7.475 -0.4047  0.0012  0.0955
 3029TIP3    H130646   4.441   6.241   7.441 -0.6985 -0.6700  0.5401
 3029TIP3    H230647   4.584   6.286   7.425 -1.1631  0.7046  0.0883
 3030TIP3   OH230648   2.106   4.415   8.306  0.1734 -0.1268 -0.8053
 3030TIP3    H130649   2.037   4.466   8.348  1.4591  0.2788  0.9720
 3030TIP3    H230650   2.180   4.475   8.299  0.5993 -0.7538 -1.9742
 3031TIP3   OH230651   4.173   5.951   8.202 -0.0658  0.1776 -0.4522
 3031TIP3    H130652   4.165   5.856   8.213 -2.2944  0.1935 -1.4373
 3031TIP3    H230653   4.084   5.980   8.181  0.9894  2.1728 -2.4856
 3032TIP3   OH230654   0.335   2.663   0.067  0.5085 -0.3105  0.4758
 3032TIP3    H130655   0.423   2.629   0.050  0.0584 -1.8691  1.1125
 3032TIP3    H230656   0.281   2.585   0.080 -1.2094  0.5747 -0.9168
 3033TIP3   OH230657   3.200   4.289   1.098 -0.4496 -0.7886 -0.4340
 3033TIP3    H130658   3.223   4.204   1.059 -0.4361 -0.6217 -0.7932
 3033TIP3    H230659   3.148   4.266   1.175  2.6837 -1.3112  1.7733
 3034TIP3   OH230660   3.041   6.912   7.975 -0.5738  0.0324  0.2572
 3034TIP3    H130661   2.950   6.928   8.000 -1.0719 -2.5314  0.3316
 3034TIP3    H230662   3.044   6.820   7.949  1.8198  0.2769 -0.6494
 3035TIP3   OH230663   2.289   4.799   8.477 -0.0580 -0.1009 -0.3116
 3035TIP3    H130664   2.345   4.840   8.543 -2.2533  0.6174  1.2311
 3035TIP3    H230665   2.269   4.868   8.415  0.5533 -0.2907 -0.7230
 3036TIP3   OH230666   5.155   4.396   0.970 -0.2506  0.0447  0.6676
 3036TIP3    H130667   5.221   4.328   0.984 -1.2570 -1.1990 -0.3701
 3036TIP3    H230668   5.173   4.429   0.882  0.3559  1.3003  1.2396
 3037TIP3   OH230669   4.648   2.509   1.054 -0.4910  0.5393 -0.3499
 3037TIP3    H130670   4.695   2.487   0.973 -1.8192 -0.2703 -0.9529
 3037TIP3    H230671   4.572   2.451   1.052  0.2059 -0.6029  2.2487
 3038TIP3   OH230672   5.521   5.448   0.847  0.2776 -0.2951  0.4820
 3038TIP3    H130673   5.583   5.466   0.776  1.2711 -0.4397  1.2852
 3038TIP3    H230674   5.486   5.534   0.871  1.4809  0.0217  1.1736
 3039TIP3   OH230675   0.399   6.738   1.773  0.4277  0.1469 -0.5544
 3039TIP3    H130676   0.348   6.819   1.771 -0.3534 -0.2983  0.3207
 3039TIP3    H230677   0.419   6.725   1.866 -1.1205 -1.6547 -0.4100
 3040TIP3   OH230678   1.195   0.770   8.310 -0.0399 -0.3967  0.2908
 3040TIP3    H130679   1.227   0.686   8.278 -0.3689 -0.5464  0.3472
 3040TIP3    H230680   1.102   0.755   8.328 -0.3557  0.2499 -0.6823
 3041TIP3   OH230681   3.170   6.072   1.922  0.9415  0.8093  0.7493
 3041TIP3    H130682   3.092   6.110   1.962  1.1987  0.8913  1.1856
 3041TIP3    H230683   3.228   6.146   1.908  1.2383  0.6555  1.1237
 3042TIP3   OH230684   6.109   6.639   7.515  0.0309 -0.1045 -0.3028
 3042TIP3    H130685   6.041   6.706   7.530 -1.2240 -1.4547  0.2597
 3042TIP3    H230686   6.067   6.556   7.537  1.7688 -1.0418 -0.3097
 3043TIP3   OH230687   2.515   6.045   0.713  0.2430  0.0230  0.0862
 3043TIP3    H130688   2.451   6.008   0.774 -0.4574  0.0743 -0.6165
 3043TIP3    H230689   2.561   5.968   0.678  0.5427 -0.0159  0.5450
 3044TIP3   OH230690   4.261   4.881   1.612 -0.2729 -0.4267  0.5667
 3044TIP3    H130691   4.172   4.882   1.577  0.7104 -1.8454 -2.2867
 3044TIP3    H230692   4.280   4.788   1.627  1.2655 -0.3062 -0.4816
 3045TIP3   OH230693   0.425   5.299   8.049  0.6372  0.6333 -0.4713
 3045TIP3    H130694   0.395   5.312   7.959 -0.7169 -0.6114 -0.2398
 3045TIP3    H230695   0.374   5.361   8.101 -0.6886 -0.6127 -0.2351
 3046TIP3   OH230696   3.716   4.409   1.002 -0.3914  0.4100 -0.4752
 3046TIP3    H130697   3.700   4.494   1.043  1.2652  0.4296  0.1785
 3046TIP3    H230698   3.774   4.428   0.928 -1.3802  0.0473 -1.3742
 3047TIP3   OH230699   6.846   0.896   7.669 -0.0224 -0.4301  0.3439
 3047TIP3    H130700   6.925   0.942   7.641  0.6862 -2.5658 -1.4741
 3047TIP3    H230701   6.782   0.916   7.600 -0.4726 -0.2371  0.8137
 3048TIP3   OH230702   2.215   4.100   8.297 -0.1322 -0.1016  0.1434
 3048TIP3    H130703   2.306   4.115   8.320 -0.2142  0.0087  0.3997
 3048TIP3    H230704   2.165   4.143   8.366 -0.3804 -1.9708  1.1822
 3049TIP3   OH230705   1.540   0.098   8.142  0.0581 -0.1445 -0.1873
 3049TIP3    H130706   1.492   0.123   8.221 -0.7516 -1.0171 -0.3868
 3049TIP3    H230707   1.511   0.159   8.075  0.9519  0.7767  0.2275
 3050TIP3   OH230708   4.327   1.551   1.689 -0.3643 -0.0529 -0.8363
 3050TIP3    H130709   4.331   1.499   1.769  0.8472 -2.4173 -2.3267
 3050TIP3    H230710   4.393   1.513   1.632 -0.1218  2.5319 -2.4547
 3051TIP3   OH230711   3.821   2.039   1.298  0.4743 -0.6588  0.6598
 3051TIP3    H130712   3.809   1.944   1.302  0.3867 -0.9033 -2.6815
 3051TIP3    H230713   3.738   2.075   1.328 -0.3067 -1.7388 -0.1319
 3052TIP3   OH230714   0.983   0.923   0.259 -0.2686 -0.0005  0.2394
 3052TIP3    H130715   0.960   0.865   0.332 -2.2122  2.3998  1.6681
 3052TIP3    H230716   1.079   0.922   0.257 -0.1989 -2.7616  0.4990
 3053TIP3   OH230717   5.581   0.887   7.859  0.1643 -0.0740  0.1702
 3053TIP3    H130718   5.492   0.906   7.831 -0.7142 -0.2263  2.5637
 3053TIP3    H230719   5.618   0.833   7.789 -1.7700 -0.3416 -0.7018
 3054TIP3   OH230720   3.039   6.893   7.154  0.2083  0.1883  0.3754
 3054TIP3    H130721   3.034   6.851   7.239 -1.4968 -1.8587 -0.6393
 3054TIP3    H230722   3.104   6.842   7.106  1.2234  1.3817  0.4544
 3055TIP3   OH230723   6.423   2.533   1.475  0.3934  0.2802 -0.5858
 3055TIP3    H130724   6.452   2.457   1.527 -0.0253 -1.0428 -2.1940
 3055TIP3    H230725   6.496   2.594   1.478  0.6630 -0.0680  0.9173
 3056TIP3   OH230726   5.734   2.281   1.357 -0.0174  0.5019 -0.3042
 3056TIP3    H130727   5.705   2.360   1.311  1.8613  0.7491 -1.1604
 3056TIP3    H230728   5.823   2.267   1.325 -0.0184 -1.4940  0.4726
 3057TIP3   OH230729   0.341   2.413   8.372 -0.2422  0.0391 -0.1128
 3057TIP3    H130730   0.350   2.344   8.305  0.2351  0.7252 -0.7786
 3057TIP3    H230731   0.314   2.490   8.322  1.5179  0.9464  0.2372
 3058TIP3   OH230732   0.865   3.073   0.395 -0.4370  0.1832 -0.0061
 3058TIP3    H130733   0.947   3.103   0.355  0.4076 -2.5142 -0.4599
 3058TIP3    H230734   0.797   3.105   0.336  0.3863  0.9749 -0.5619
 3059TIP3   OH230735   1.774   6.244   7.525  0.3881 -0.2050  0.2347
 3059TIP3    H130736   1.725   6.191   7.463 -0.3667 -1.6621  1.9662
 3059TIP3    H230737   1.799   6.323   7.477  1.6651 -2.1415 -2.5120
 3060TIP3   OH230738   2.165   1.182   2.196 -0.8957 -1.2787 -0.3916
 3060TIP3    H130739   2.204   1.205   2.281  1.1732 -0.4686 -1.4924
 3060TIP3    H230740   2.186   1.089   2.185 -1.9560 -1.6286  0.3377
 3061TIP3   OH230741   6.919   6.448   0.287  0.6262 -0.4822  0.2193
 3061TIP3    H130742   6.951   6.525   0.334  0.3258  1.1492 -2.0579
 3061TIP3    H230743   6.992   6.387   0.289  1.3227  0.3429  1.0782
 3062TIP3   OH230744   1.421   1.800   2.802  0.1004  1.0710  0.2758
 3062TIP3    H130745   1.470   1.843   2.732 -0.4453  0.2976 -0.6184
 3062TIP3    H230746   1.485   1.744   2.846 -0.0475 -0.3307 -1.2164
 3063TIP3   OH230747   4.179   6.260   8.183 -0.4003 -0.2713  0.1559
 3063TIP3    H130748   4.190   6.167   8.205  0.8114 -0.2041 -0.1027
 3063TIP3    H230749   4.086   6.269   8.164 -0.6230 -1.3315  0.6626
 3064TIP3   OH230750   3.751   3.164   0.669  0.1403  0.4539  0.2021
 3064TIP3    H130751   3.810   3.187   0.597  1.0207  0.6284  0.9696
 3064TIP3    H230752   3.698   3.092   0.635  1.2000 -0.1018 -0.2928
 3065TIP3   OH230753   0.310   5.373   2.522  0.3481 -0.6010 -0.0622
 3065TIP3    H130754   0.374   5.306   2.498  0.1401 -0.7223 -0.2888
 3065TIP3    H230755   0.236   5.324   2.559  0.5778 -0.4286  0.6337
 3066TIP3   OH230756   0.287   1.044   1.120  0.5267 -0.3641  0.1121
 3066TIP3    H130757   0.359   1.028   1.058  1.7086  1.9952  0.7465
 3066TIP3    H230758   0.219   1.086   1.068  1.1412  0.7462  0.1541
 3067TIP3   OH230759   3.400   2.598   0.951 -0.4969 -0.5454 -0.2677
 3067TIP3    H130760   3.387   2.606   1.046  1.7165 -3.1825  0.3743
 3067TIP3    H230761   3.492   2.618   0.938 -0.6550 -0.7386 -1.7831
 3068TIP3   OH230762   4.632   6.807   8.073  0.5030 -0.1008  0.0794
 3068TIP3    H130763   4.665   6.719   8.056  2.1606  0.3975  0.5109
 3068TIP3    H230764   4.681   6.837   8.149 -1.1533  0.6375  0.9094
 3069TIP3   OH230765   3.534   4.922   2.022  0.0572  0.6885  0.2247
 3069TIP3    H130766   3.517   4.829   2.038 -0.9045  0.6597 -0.7871
 3069TIP3    H230767   3.502   4.966   2.101  2.6595  0.0419  1.7574
 3070TIP3   OH230768   3.955   4.744   7.560  0.2314  0.1273  0.5316
 3070TIP3    H130769   3.866   4.721   7.535  1.4343 -1.9460 -2.4275
 3070TIP3    H230770   3.994   4.779   7.480  2.0720  1.0435  1.7642
 3071TIP3   OH230771   0.008   5.857   0.521 -0.1028 -0.1109 -0.0274
 3071TIP3    H130772   0.046   5.942   0.545 -1.7443  0.4460  0.7873
 3071TIP3    H230773  -0.006   5.863   0.427 -0.7655  0.7914  0.1114
 3072TIP3   OH230774   5.619   3.283   0.881  0.3590 -0.0008  0.1394
 3072TIP3    H130775   5.632   3.232   0.800 -1.8197  1.9914 -1.6143
 3072TIP3    H230776   5.605   3.372   0.850 -1.6060  0.6665  2.6623
 3073TIP3   OH230777   3.499   2.081   2.567  0.2150  0.3720 -0.5047
 3073TIP3    H130778   3.444   2.009   2.537  0.0991  0.1101  0.3208
 3073TIP3    H230779   3.578   2.075   2.513  0.3746 -0.6213 -0.1806
 3074TIP3   OH230780   2.590   3.995   1.674 -0.0849  0.1030 -0.4950
 3074TIP3    H130781   2.565   4.074   1.626  1.8793  0.3834 -1.1310
 3074TIP3    H230782   2.684   3.986   1.659  0.1218 -1.2298  1.2531
 3075TIP3   OH230783   4.800   0.828   1.089 -0.0678 -0.7296  0.0836
 3075TIP3    H130784   4.706   0.813   1.092  0.0208 -1.3446 -0.1691
 3075TIP3    H230785   4.822   0.861   1.176 -0.5432 -0.4224  0.0881
 3076TIP3   OH230786   0.933   0.904   2.495 -0.4304  0.5246 -0.2559
 3076TIP3    H130787   1.003   0.968   2.483  0.9350 -0.2861  2.5238
 3076TIP3    H230788   0.853   0.954   2.484  0.5331  1.6695 -2.6629
 3077TIP3   OH230789   3.270   0.726   1.123  0.1169  0.0180  0.6481
 3077TIP3    H130790   3.245   0.737   1.031 -0.3557  0.5951  0.8365
 3077TIP3    H230791   3.196   0.679   1.162  0.0691  0.2571  0.8487
 3078TIP3   OH230792   2.284   1.448   7.442  0.3063  0.1646  0.0736
 3078TIP3    H130793   2.232   1.368   7.439  1.6436 -0.7050 -1.8177
 3078TIP3    H230794   2.244   1.505   7.376 -0.1230  0.7706  0.8284
 3079TIP3   OH230795   0.031   5.217   7.269 -0.6249 -0.1232 -0.4904
 3079TIP3    H130796   0.063   5.126   7.273 -0.1442  0.0470 -0.4219
 3079TIP3    H230797   0.057   5.255   7.353 -1.0593  0.0024 -0.4130
 3080TIP3   OH230798   1.503   1.231   6.583 -0.1437 -0.1751 -0.0967
 3080TIP3    H130799   1.420   1.255   6.542 -0.1915  0.1343  0.1780
 3080TIP3    H230800   1.485   1.149   6.628  0.0648 -0.8422 -1.1842
 3081TIP3   OH230801   3.635   3.400   0.243 -0.4080  0.3220  0.2370
 3081TIP3    H130802   3.687   3.459   0.297 -0.5103  0.5524  0.0871
 3081TIP3    H230803   3.621   3.448   0.162  2.1532 -1.0832 -1.1766
 3082TIP3   OH230804   0.462   0.097   7.931 -0.5488 -0.1772  0.6451
 3082TIP3    H130805   0.443   0.027   7.867  2.1344 -0.1420 -0.3301
 3082TIP3    H230806   0.527   0.058   7.989  1.1876  1.5286 -0.0643
 3083TIP3   OH230807   5.843   2.487   1.840 -0.3998 -0.1744 -0.1845
 3083TIP3    H130808   5.812   2.397   1.844  0.3423 -0.5718 -2.1365
 3083TIP3    H230809   5.923   2.488   1.893 -1.1623 -0.2906  0.9937
 3084TIP3   OH230810   4.915   0.361   1.867 -0.5241 -0.2043  0.4809
 3084TIP3    H130811   4.964   0.443   1.876 -1.5487  0.8591 -2.4644
 3084TIP3    H230812   4.895   0.335   1.957  0.5016  2.3714  1.5500
 3085TIP3   OH230813   1.448   5.737   7.178 -0.3435  0.0898 -0.3099
 3085TIP3    H130814   1.538   5.762   7.158 -0.1221 -0.2447  0.2373
 3085TIP3    H230815   1.442   5.645   7.151 -0.8124  0.3907 -1.2496
 3086TIP3   OH230816   1.725   1.091   0.263 -0.6311 -0.0791 -0.1596
 3086TIP3    H130817   1.797   1.065   0.204 -1.1095  1.0787 -1.2985
 3086TIP3    H230818   1.756   1.065   0.350  2.2879  2.4874 -0.2473
 3087TIP3   OH230819   6.127   2.491   6.866 -0.1223  0.1179  0.9855
 3087TIP3    H130820   6.181   2.482   6.945  1.0968  2.0162  0.4483
 3087TIP3    H230821   6.178   2.549   6.809 -1.6600  0.0110 -0.5796
 3088TIP3   OH230822   0.751   6.858   1.950 -0.4361 -0.7837 -0.3336
 3088TIP3    H130823   0.795   6.875   2.033  0.3686 -0.9443 -0.7176
 3088TIP3    H230824   0.676   6.804   1.974  0.8882 -2.5579  0.1049
 3089TIP3   OH230825   2.942   1.858   0.031 -0.3034  0.0921  0.1907
 3089TIP3    H130826   2.964   1.769   0.003 -1.4945  0.1070 -0.8939
 3089TIP3    H230827   3.026   1.898   0.053  0.1248 -1.8388  2.4793
 3090TIP3   OH230828   3.823   5.805   1.537 -0.3015  0.1587  0.3619
 3090TIP3    H130829   3.731   5.829   1.528 -0.6621 -0.1872  2.6065
 3090TIP3    H230830   3.822   5.721   1.583  1.1481 -0.1635 -0.1304
 3091TIP3   OH230831   1.532   6.867   1.404 -0.0888 -0.3515 -0.3636
 3091TIP3    H130832   1.525   6.785   1.354 -2.9237 -0.6448  0.3707
 3091TIP3    H230833   1.488   6.932   1.350  0.8485  0.3922 -0.2649
 3092TIP3   OH230834   5.452   1.319   1.735  0.4496  0.2356  0.1667
 3092TIP3    H130835   5.526   1.286   1.787 -0.5113  0.3505  1.6936
 3092TIP3    H230836   5.485   1.400   1.695  1.0048  0.5749  1.2639
 3093TIP3   OH230837   4.270   0.615   7.517 -0.3193 -0.2730 -0.2007
 3093TIP3    H130838   4.280   0.681   7.586  0.0797 -1.8316  1.3146
 3093TIP3    H230839   4.311   0.537   7.553  0.3181 -1.0356 -2.4353
 3094TIP3   OH230840   6.120   5.711   0.409 -0.6073  0.2073 -0.4920
 3094TIP3    H130841   6.103   5.805   0.400  3.2160  0.9281 -2.4342
 3094TIP3    H230842   6.085   5.672   0.330  1.1998  0.7290 -1.6104
 3095TIP3   OH230843   2.720   3.838   7.757 -0.7214 -0.1319 -0.1110
 3095TIP3    H130844   2.662   3.792   7.819 -0.3528  0.1440  0.4455
 3095TIP3    H230845   2.683   3.926   7.751 -0.5807 -0.0689 -0.0513
 3096TIP3   OH230846   5.101   5.899   7.230 -0.3557 -0.2362  0.3192
 3096TIP3    H130847   5.164   5.830   7.251  0.3861  0.0070 -1.0235
 3096TIP3    H230848   5.113   5.964   7.299  1.2468  0.0439 -0.1892
 3097TIP3   OH230849   5.528   3.262   0.340 -0.0961 -0.3140 -0.2609
 3097TIP3    H130850   5.458   3.198   0.329 -1.3120  0.9781 -0.3210
 3097TIP3    H230851   5.602   3.225   0.292 -0.8999 -1.4524 -0.6750
 3098TIP3   OH230852   3.441   3.103   7.748 -0.3936  0.2121  0.1760
 3098TIP3    H130853   3.456   3.195   7.727  0.0891 -0.2003 -1.4583
 3098TIP3    H230854   3.529   3.065   7.757 -0.5685 -0.3094 -0.2495
 3099TIP3   OH230855   5.861   4.526   1.305  0.3820 -0.1221 -0.2478
 3099TIP3    H130856   5.931   4.590   1.291  2.0497 -1.8952 -0.4430
 3099TIP3    H230857   5.830   4.505   1.217  0.9352 -0.7056 -0.3147
 3100TIP3   OH230858   2.534   1.505   2.189 -0.1975 -0.2765  0.2628
 3100TIP3    H130859   2.456   1.558   2.173 -0.3859 -0.4593  0.5649
 3100TIP3    H230860   2.528   1.481   2.282  0.3165 -0.1319  0.3385
 3101TIP3   OH230861   4.365   1.516   0.849 -0.1151 -0.1244  0.0729
 3101TIP3    H130862   4.438   1.536   0.791  0.1260 -0.5021  0.2412
 3101TIP3    H230863   4.343   1.425   0.828  0.0500 -0.2993  0.6547
 3102TIP3   OH230864   3.462   4.631   0.815 -0.5977 -0.0416  0.1083
 3102TIP3    H130865   3.388   4.689   0.798 -1.7312 -1.5887 -0.4697
 3102TIP3    H230866   3.432   4.574   0.886  0.3040 -0.2269  0.3511
 3103TIP3   OH230867   3.111   4.857   1.832  0.0178 -0.1708 -0.1084
 3103TIP3    H130868   3.106   4.774   1.880 -0.9960  0.3299  0.7095
 3103TIP3    H230869   3.157   4.916   1.891 -3.4262  1.1874  1.5174
 3104TIP3   OH230870   0.888   1.800   1.153 -0.5893 -0.1089 -0.3216
 3104TIP3    H130871   0.916   1.839   1.070  2.1307 -0.4301  0.3539
 3104TIP3    H230872   0.917   1.709   1.148 -1.9741 -0.6120  0.3056
 3105TIP3   OH230873   5.705   4.476   0.684 -0.4629 -0.3245 -0.0079
 3105TIP3    H130874   5.628   4.528   0.706 -0.0669  1.1060 -1.7905
 3105TIP3    H230875   5.771   4.502   0.749 -0.1537  1.7965 -1.0606
 3106TIP3   OH230876   5.932   2.568   6.600 -0.0272 -0.2675  0.5223
 3106TIP3    H130877   5.886   2.595   6.521 -3.5436 -1.5518  1.9489
 3106TIP3    H230878   5.964   2.480   6.580  0.9175  0.1949 -0.0927
 3107TIP3   OH230879   1.040   5.242   0.778 -0.0005 -0.1733  0.6620
 3107TIP3    H130880   0.980   5.295   0.831  0.1283  0.7777 -0.1171
 3107TIP3    H230881   1.118   5.232   0.832 -0.3125 -0.1973  1.1102
 3108TIP3   OH230882   2.847   6.610   0.938  0.5340  0.0705 -0.1024
 3108TIP3    H130883   2.756   6.611   0.969  0.3813  1.9321 -0.5146
 3108TIP3    H230884   2.851   6.535   0.878 -0.4281 -0.6589  0.7039
 3109TIP3   OH230885   5.747   2.870   7.038 -0.0658  0.2575  0.0790
 3109TIP3    H130886   5.723   2.778   7.035  2.8455 -0.5944  0.0429
 3109TIP3    H230887   5.797   2.879   7.119  0.1710  1.6554 -0.1937
 3110TIP3   OH230888   3.156   1.773   7.850  0.5020  1.3999 -0.0105
 3110TIP3    H130889   3.243   1.811   7.841  0.9507  0.1551 -1.1034
 3110TIP3    H230890   3.100   1.829   7.797  1.0539  0.9322 -1.1232
 3111TIP3   OH230891   6.840   0.529   0.931  0.5433  0.6092 -0.2277
 3111TIP3    H130892   6.747   0.513   0.949  0.6054  0.9573  0.4030
 3111TIP3    H230893   6.862   0.463   0.865 -0.0271  0.1968 -0.0204
 3112TIP3   OH230894   2.388   6.850   1.696  0.4354  0.0557 -0.2436
 3112TIP3    H130895   2.399   6.851   1.791  0.6875 -0.0668 -0.2724
 3112TIP3    H230896   2.294   6.836   1.683  0.5430 -0.9463 -0.0171
 3113TIP3   OH230897   5.287   5.444   0.322  0.0966 -0.6999  0.1409
 3113TIP3    H130898   5.220   5.493   0.369  0.8779 -1.1909  1.8536
 3113TIP3    H230899   5.280   5.473   0.231 -1.2282  0.5670  0.6250
 3114TIP3   OH230900   5.244   1.272   1.367 -1.0062  0.3555  0.4176
 3114TIP3    H130901   5.189   1.343   1.401 -0.7373  0.3845  0.7936
 3114TIP3    H230902   5.258   1.215   1.442 -1.2159 -0.0978  0.1176
 3115TIP3   OH230903   5.191   4.541   0.747  0.5083  0.1942 -0.0647
 3115TIP3    H130904   5.172   4.634   0.760 -0.6700  0.0882 -0.8895
 3115TIP3    H230905   5.190   4.530   0.652  0.8240 -0.6355  0.0219
 3116TIP3   OH230906   6.179   2.481   0.655  0.6096  0.3002 -0.0456
 3116TIP3    H130907   6.260   2.459   0.608 -1.2346 -0.2955 -3.2614
 3116TIP3    H230908   6.115   2.417   0.623 -1.6108  1.9139  0.9166
 3117TIP3   OH230909   0.088   3.212   1.817  0.4668  0.0500 -0.1157
 3117TIP3    H130910   0.139   3.191   1.895  1.0319 -1.4978 -0.8559
 3117TIP3    H230911   0.001   3.232   1.850  0.7860 -0.2333  0.9367
 3118TIP3   OH230912   4.871   4.218   0.145 -0.3270 -0.1709  0.5191
 3118TIP3    H130913   4.924   4.153   0.100  1.0275  0.9101  0.5175
 3118TIP3    H230914   4.834   4.170   0.220 -0.2871 -1.2258 -0.1183
 3119TIP3   OH230915   2.788   4.926   1.487  0.3325  0.0584 -0.4091
 3119TIP3    H130916   2.793   4.831   1.475  1.7537  0.2605 -1.6812
 3119TIP3    H230917   2.707   4.939   1.537 -0.4570 -1.7297 -1.1151
 3120TIP3   OH230918   6.709   0.187   2.613 -0.2850  0.0681 -0.2719
 3120TIP3    H130919   6.702   0.119   2.546  0.3476 -0.3380  0.0611
 3120TIP3    H230920   6.683   0.143   2.694 -1.1518  0.5857 -0.2597
 3121TIP3   OH230921   0.454   4.442   8.244  0.5169  0.6140 -0.0530
 3121TIP3    H130922   0.501   4.375   8.293  0.3234  0.2105 -0.4186
 3121TIP3    H230923   0.362   4.423   8.260  0.4597  1.1078  0.2604
 3122TIP3   OH230924   5.671   4.946   6.596 -0.2329  0.1345  0.3944
 3122TIP3    H130925   5.723   4.868   6.614 -2.4229 -1.0661  1.9876
 3122TIP3    H230926   5.712   5.015   6.648  1.4705 -0.0098 -0.6968
 3123TIP3   OH230927   1.644   5.770   6.946 -0.3858  0.4909 -0.2745
 3123TIP3    H130928   1.650   5.717   6.866  1.2380 -0.1487  0.2378
 3123TIP3    H230929   1.704   5.729   7.007 -0.5907  1.7683  0.8389
 3124TIP3   OH230930   6.789   5.476   7.300 -0.1194  0.2918  0.1678
 3124TIP3    H130931   6.836   5.394   7.312 -0.8407  0.1120  2.1812
 3124TIP3    H230932   6.713   5.469   7.358 -0.5909  2.0727 -0.1682
 3125TIP3   OH230933   0.416   5.114   1.527  0.2393  0.2873 -0.0692
 3125TIP3    H130934   0.494   5.059   1.525  0.5411  0.7081 -1.7006
 3125TIP3    H230935   0.402   5.139   1.435 -2.1190 -0.2069  0.0740
 3126TIP3   OH230936   4.959   1.691   1.688  0.0314  0.0930 -0.1331
 3126TIP3    H130937   4.895   1.663   1.621 -0.2051 -0.7850  0.4338
 3126TIP3    H230938   4.938   1.783   1.704 -0.2270  0.1814 -0.9138
 3127TIP3   OH230939   5.781   3.724   8.405  0.0479 -0.6826 -0.4434
 3127TIP3    H130940   5.828   3.793   8.359 -1.7430  0.5551 -0.5365
 3127TIP3    H230941   5.783   3.749   8.497 -2.2201  0.6335 -0.6652
 3128TIP3   OH230942   6.166   1.225   2.184  0.0888  0.3572  0.0016
 3128TIP3    H130943   6.130   1.196   2.267  0.5632  0.9947  0.4407
 3128TIP3    H230944   6.211   1.307   2.205 -1.2488  1.4592 -1.1977
 3129TIP3   OH230945   0.764   2.812   0.206  0.2244 -0.4226  0.5605
 3129TIP3    H130946   0.718   2.882   0.251  0.6202  0.1997  0.0183
 3129TIP3    H230947   0.825   2.777   0.272  0.3692  0.0688  0.6883
 3130TIP3   OH230948   2.337   0.682   6.681 -0.3433  0.0390  0.3488
 3130TIP3    H130949   2.322   0.643   6.767 -0.2877  1.1024  0.8599
 3130TIP3    H230950   2.346   0.776   6.698  2.4876  0.0219 -0.4308
 3131TIP3   OH230951   6.229   5.588   0.668 -0.3021  0.2053 -0.1844
 3131TIP3    H130952   6.210   5.619   0.580  1.6816 -0.3275 -0.8516
 3131TIP3    H230953   6.216   5.493   0.664  1.6687 -0.0868 -0.4880
 3132TIP3   OH230954   5.349   1.748   7.029  0.0239  0.0256  0.2674
 3132TIP3    H130955   5.385   1.671   6.983 -0.8231 -0.6822  0.7529
 3132TIP3    H230956   5.417   1.815   7.020 -0.3366  0.1422 -2.5554
 3133TIP3   OH230957   5.512   2.251   0.967 -0.4236 -0.4862 -0.1585
 3133TIP3    H130958   5.426   2.293   0.970 -0.4270 -0.4017 -1.1068
 3133TIP3    H230959   5.532   2.231   1.058 -2.0916 -1.8426 -0.0389
 3134TIP3   OH230960   4.420   1.047   2.452  0.3739  0.7800 -0.3410
 3134TIP3    H130961   4.421   0.963   2.498 -1.8095 -0.2892 -2.0765
 3134TIP3    H230962   4.503   1.048   2.403  0.9558  0.2093  0.6000
 3135TIP3   OH230963   2.154   4.468   1.361  0.0773  0.1681 -0.4515
 3135TIP3    H130964   2.126   4.542   1.413  1.1483  1.3815 -1.5098
 3135TIP3    H230965   2.238   4.495   1.323  0.2641 -1.3854 -1.2742
 3136TIP3   OH230966   4.128   2.666   7.644  0.4292  0.6237  0.0833
 3136TIP3    H130967   4.099   2.611   7.717 -0.5613  0.4358 -0.4348
 3136TIP3    H230968   4.068   2.741   7.645 -0.6950 -0.2020 -1.5494
 3137TIP3   OH230969   5.150   3.202   1.543  0.9056 -0.0452  0.8581
 3137TIP3    H130970   5.129   3.292   1.518  1.0010 -0.6784 -1.8001
 3137TIP3    H230971   5.217   3.211   1.610  0.5311  1.8625  1.0476
 3138TIP3   OH230972   2.796   3.741   7.254  0.3291 -0.2560 -0.3536
 3138TIP3    H130973   2.726   3.730   7.190  0.1133  0.5751 -0.2827
 3138TIP3    H230974   2.772   3.684   7.327 -1.8123  2.0299  0.9027
 3139TIP3   OH230975   0.085   2.416   7.356 -0.4037 -0.7414 -0.5237
 3139TIP3    H130976   0.009   2.463   7.320 -1.9970 -2.1639  0.7747
 3139TIP3    H230977   0.078   2.428   7.451 -0.8940 -3.4515 -0.1214
 3140TIP3   OH230978   2.393   5.896   7.941  0.3657  0.4140 -0.3737
 3140TIP3    H130979   2.378   5.888   7.847 -0.0385 -0.6177 -0.2347
 3140TIP3    H230980   2.444   5.819   7.964 -2.0966 -0.9920  0.7410
 3141TIP3   OH230981   2.773   5.952   0.852 -0.0951 -0.5812 -0.0845
 3141TIP3    H130982   2.695   5.964   0.907  0.0256 -0.4669  0.0629
 3141TIP3    H230983   2.795   5.859   0.863 -0.4793 -0.7250 -0.4900
 3142TIP3   OH230984   0.684   3.140   0.008 -0.1868  0.6974 -0.7987
 3142TIP3    H130985   0.757   3.089  -0.026 -0.2344 -0.0556  0.1810
 3142TIP3    H230986   0.625   3.151  -0.066 -0.3210 -0.9398 -0.9628
 3143TIP3   OH230987   6.149   5.350   0.552 -0.3783 -0.4711  0.3910
 3143TIP3    H130988   6.213   5.299   0.502  0.3168  0.3906  0.3737
 3143TIP3    H230989   6.102   5.401   0.486  0.5966  0.7295  0.5999
 3144TIP3   OH230990   1.790   0.012   7.264 -0.2983 -0.4384  0.1314
 3144TIP3    H130991   1.697  -0.004   7.248 -0.3500 -0.0342  0.0307
 3144TIP3    H230992   1.821   0.057   7.185 -0.3454  0.7482  0.7779
 3145TIP3   OH230993   2.517   4.287   0.410 -0.5598 -0.6416  0.0357
 3145TIP3    H130994   2.449   4.333   0.360 -1.1792 -2.5531 -0.9500
 3145TIP3    H230995   2.469   4.241   0.479  0.2661  1.8413  2.4647
 3146TIP3   OH230996   1.577   4.551   1.641 -0.2252 -0.1418  0.1842
 3146TIP3    H130997   1.550   4.621   1.582  0.8449 -0.4246 -0.6921
 3146TIP3    H230998   1.529   4.567   1.723  0.1035  1.6929  0.0529
 3147TIP3   OH230999   3.608   4.778   7.427 -0.2078  0.2284 -0.1114
 3147TIP3    H131000   3.658   4.720   7.369  0.8407  1.0265 -0.0406
 3147TIP3    H231001   3.525   4.791   7.381  0.0361 -0.3107 -0.7340
 3148TIP3   OH231002   5.223   5.452   7.385  0.3609 -0.1981 -0.3754
 3148TIP3    H131003   5.149   5.420   7.332 -0.3754 -0.9634  1.0406
 3148TIP3    H231004   5.214   5.404   7.468  2.0728  0.2034  0.0628
 3149TIP3   OH231005   4.001   6.602   0.727  0.1038  0.3012 -0.5513
 3149TIP3    H131006   3.969   6.543   0.659 -5.1547  0.5499  1.2312
 3149TIP3    H231007   4.031   6.544   0.797 -1.9820 -0.3466 -0.1079
 3150TIP3   OH231008   6.735   1.636   2.323  0.0049 -0.0347 -0.2095
 3150TIP3    H131009   6.723   1.621   2.416 -0.1680  0.3855 -0.1598
 3150TIP3    H231010   6.719   1.730   2.312  1.9296  0.3096 -0.3569
 3151TIP3   OH231011   1.310   2.097   0.104 -0.0620  0.1279 -0.5506
 3151TIP3    H131012   1.380   2.033   0.093 -0.3157  0.1672 -2.7967
 3151TIP3    H231013   1.245   2.074   0.037 -1.0208  1.6134 -0.1839
 3152TIP3   OH231014   6.428   2.741   0.342  0.6568  0.2996 -0.1547
 3152TIP3    H131015   6.440   2.729   0.248  0.2887  2.0625 -0.4700
 3152TIP3    H231016   6.515   2.765   0.374  0.5498  0.8890 -0.2812
 3153TIP3   OH231017   1.809   6.275   1.660  0.1899 -0.2733  0.4332
 3153TIP3    H131018   1.776   6.257   1.748  0.8570  1.6477  1.1317
 3153TIP3    H231019   1.878   6.210   1.646  0.3097 -0.3863  1.4659
 3154TIP3   OH231020   4.144   2.357   1.844 -0.0629 -0.1273 -0.1178
 3154TIP3    H131021   4.186   2.336   1.927  1.0271  2.2900  0.0264
 3154TIP3    H231022   4.061   2.310   1.846  0.8267 -1.7516  1.4127
 3155TIP3   OH231023   1.204   2.948   0.730 -0.2554  0.0913 -0.7387
 3155TIP3    H131024   1.210   2.854   0.747  0.3884  0.4937  1.5296
 3155TIP3    H231025   1.273   2.965   0.666  1.7686 -0.5433  1.1530
 3156TIP3   OH231026   2.221   3.218   7.635 -0.6587 -0.2930  0.0989
 3156TIP3    H131027   2.227   3.198   7.728 -1.2302 -1.1959 -0.0457
 3156TIP3    H231028   2.141   3.174   7.606 -0.0706 -0.6892 -0.9797
 3157TIP3   OH231029   2.005   1.274   0.020  0.5336  0.7407  0.3665
 3157TIP3    H131030   1.991   1.367   0.037  3.9584  1.6364 -0.8333
 3157TIP3    H231031   1.969   1.260  -0.068 -0.9319  0.6128  0.9621
 3158TIP3   OH231032   1.909   4.264   8.454 -0.3909 -0.6901 -0.2166
 3158TIP3    H131033   1.970   4.301   8.391 -0.5345  0.9848  0.5795
 3158TIP3    H231034   1.823   4.292   8.423 -0.5100 -0.4225  0.3451
 3159TIP3   OH231035   5.926   4.298   7.930 -0.2929 -0.2071 -0.4215
 3159TIP3    H131036   5.894   4.323   8.016  0.7373  0.5337 -0.2259
 3159TIP3    H231037   5.896   4.208   7.918 -0.3996 -0.3432  0.7304
 3160TIP3   OH231038   5.351   3.358   0.525  0.1147  0.2524 -0.2180
 3160TIP3    H131039   5.423   3.321   0.474 -0.5136  0.9387 -1.6518
 3160TIP3    H231040   5.336   3.445   0.487 -0.3787  0.8056  1.1583
 3161TIP3   OH231041   0.868   1.869   0.894  0.0647  0.5548 -0.3405
 3161TIP3    H131042   0.798   1.909   0.945  0.5010  0.8145  0.0544
 3161TIP3    H231043   0.887   1.933   0.826 -1.5734 -0.4229 -1.8185
 3162TIP3   OH231044   4.233   5.654   1.231 -0.1915 -0.0742 -0.1532
 3162TIP3    H131045   4.268   5.716   1.166 -0.3645  0.2649  0.0757
 3162TIP3    H231046   4.165   5.606   1.184 -0.3461  0.2003 -0.2092
 3163TIP3   OH231047   1.738   5.719   8.409 -0.6036 -0.0231  0.0961
 3163TIP3    H131048   1.692   5.788   8.457  0.5674  1.4334 -0.7875
 3163TIP3    H231049   1.824   5.755   8.392  0.1122 -1.7931 -0.2748
 3164TIP3   OH231050   3.069   0.928   8.523  0.2581 -0.6061  0.1192
 3164TIP3    H131051   3.080   0.899   8.614  0.0725  0.7681  0.5980
 3164TIP3    H231052   2.987   0.977   8.522 -0.9943 -2.5725 -1.3344
 3165TIP3   OH231053   0.192   1.832   0.541  0.1685 -0.2747  0.5861
 3165TIP3    H131054   0.199   1.923   0.570 -0.0746 -0.3803  0.9835
 3165TIP3    H231055   0.281   1.807   0.519  0.0880  0.3943 -0.5608
 3166TIP3   OH231056   0.112   5.593   7.953 -0.2475 -0.2360 -0.6442
 3166TIP3    H131057   0.143   5.536   8.024 -0.6238 -0.7396 -0.8792
 3166TIP3    H231058   0.065   5.663   7.998  0.2030 -0.1144 -0.3538
 3167TIP3   OH231059   4.607   5.270   8.358 -0.1283  0.3677  0.2740
 3167TIP3    H131060   4.702   5.277   8.346 -0.0234  2.0501  1.6779
 3167TIP3    H231061   4.596   5.202   8.424 -0.0155 -0.7903 -0.8644
 3168TIP3   OH231062   4.970   6.934   1.560  0.1449  0.3061  0.1434
 3168TIP3    H131063   5.019   6.969   1.634 -2.1745  2.4816  0.7932
 3168TIP3    H231064   4.985   6.998   1.490 -0.1864 -0.0667 -0.2681
 3169TIP3   OH231065   3.077   4.376   1.975  0.2190 -0.0332  0.1739
 3169TIP3    H131066   3.114   4.464   1.975 -0.5880  0.3206  1.3257
 3169TIP3    H231067   3.130   4.328   2.039  1.1033 -0.6070 -0.9462
 3170TIP3   OH231068   6.238   3.202   6.245  0.0723  0.3365  0.0427
 3170TIP3    H131069   6.247   3.109   6.225  0.5168  0.4167 -0.1377
 3170TIP3    H231070   6.144   3.213   6.262 -0.0151 -0.1057 -0.1206
 3171TIP3   OH231071   2.858   6.780   1.485 -0.6006  0.1190  0.3842
 3171TIP3    H131072   2.908   6.850   1.444 -0.5072 -0.0114  0.2737
 3171TIP3    H231073   2.790   6.825   1.535  0.0849  0.3270  1.1408
 3172TIP3   OH231074   3.674   3.662   0.366  0.6943 -0.1308 -0.0828
 3172TIP3    H131075   3.745   3.625   0.417  1.6010 -0.8099 -1.7750
 3172TIP3    H231076   3.595   3.624   0.404  1.3529 -0.7597  0.6846
 3173TIP3   OH231077   3.103   3.372   2.156 -0.3268 -0.0672 -0.5116
 3173TIP3    H131078   3.049   3.391   2.078  2.0564  1.2726 -1.9679
 3173TIP3    H231079   3.097   3.277   2.167  0.2910 -0.5068 -3.2022
 3174TIP3   OH231080   4.480   2.099   0.455  0.0807 -0.2109 -0.0353
 3174TIP3    H131081   4.554   2.152   0.428  2.4581 -3.1070  0.3143
 3174TIP3    H231082   4.459   2.129   0.543  2.7500 -1.1025  0.9940
 3175TIP3   OH231083   2.073   4.821   7.406 -0.3034 -0.3542 -0.2387
 3175TIP3    H131084   2.004   4.886   7.417  1.5191  2.0674 -1.8420
 3175TIP3    H231085   2.140   4.846   7.469  0.2806 -0.9006 -0.6229
 3176TIP3   OH231086   5.861   6.576   2.426  0.7886  0.2962  0.4424
 3176TIP3    H131087   5.863   6.629   2.346  0.4976  0.4603  0.5423
 3176TIP3    H231088   5.771   6.583   2.457  0.2109 -1.7617 -0.5495
 3177TIP3   OH231089   2.070   5.827   1.031 -0.1122 -0.1085  0.2882
 3177TIP3    H131090   2.023   5.754   0.991  1.4319 -1.7974  1.3661
 3177TIP3    H231091   2.083   5.800   1.122  2.5311  0.4278  0.1525
 3178TIP3   OH231092   5.724   3.778   6.775 -0.7464 -0.1936  0.2888
 3178TIP3    H131093   5.779   3.774   6.697  0.4387  0.7776  1.0433
 3178TIP3    H231094   5.705   3.871   6.786  0.3743 -0.1272  1.9931
 3179TIP3   OH231095   0.796   1.550   2.616 -0.1204 -0.2931 -0.7626
 3179TIP3    H131096   0.778   1.624   2.675 -0.1381 -0.3097 -0.7474
 3179TIP3    H231097   0.887   1.527   2.633  0.2819  0.5459 -1.6733
 3180TIP3   OH231098   0.684   5.901   7.610  0.0477  0.5388  0.3669
 3180TIP3    H131099   0.624   5.975   7.608 -0.2689  0.2781 -0.3720
 3180TIP3    H231100   0.734   5.912   7.690 -0.5258  1.1317  0.6501
 3181TIP3   OH231101   1.837   1.749   1.111  0.3859  0.2028 -0.2508
 3181TIP3    H131102   1.788   1.715   1.037  1.4821  0.3707 -1.0852
 3181TIP3    H231103   1.921   1.777   1.074 -0.3288  3.5899  0.4233
 3182TIP3   OH231104   1.224   1.689   1.601 -0.4094  0.0404  0.0973
 3182TIP3    H131105   1.300   1.692   1.659  1.0162  0.9508 -1.6865
 3182TIP3    H231106   1.174   1.768   1.623 -1.1034 -0.7701  1.5537
 3183TIP3   OH231107   5.320   6.356   7.572  0.5432 -0.4029  0.3960
 3183TIP3    H131108   5.362   6.358   7.658  0.9055 -0.5414  0.2228
 3183TIP3    H231109   5.298   6.448   7.555 -2.6436 -0.6777  2.1308
 3184TIP3   OH231110   6.442   6.842   0.835  0.6316 -0.2814  0.4236
 3184TIP3    H131111   6.436   6.761   0.885 -2.5382  0.3348  1.2594
 3184TIP3    H231112   6.450   6.813   0.744  1.4221 -1.4771  0.8535
 3185TIP3   OH231113   2.558   1.015   1.550 -0.2533 -0.7017 -0.6231
 3185TIP3    H131114   2.483   1.073   1.533 -0.9417 -1.8379 -1.6890
 3185TIP3    H231115   2.558   1.003   1.645 -0.7647  0.1689 -0.4985
 3186TIP3   OH231116   0.672   5.847   1.158 -0.3586 -0.1991  0.0089
 3186TIP3    H131117   0.606   5.917   1.162 -0.3951 -0.1767 -0.8766
 3186TIP3    H231118   0.756   5.893   1.153 -0.3639 -0.2181 -0.2678
 3187TIP3   OH231119   1.709   5.691   8.086  0.1286  0.1975  0.2678
 3187TIP3    H131120   1.696   5.712   8.179 -1.0224  1.5035 -0.1478
 3187TIP3    H231121   1.630   5.643   8.061 -0.6668  1.8106 -0.5323
 3188TIP3   OH231122   2.070   0.183   0.657  0.3686 -0.0850  0.5108
 3188TIP3    H131123   2.043   0.261   0.705  1.2008  0.1663  0.5851
 3188TIP3    H231124   2.088   0.213   0.569  0.7627 -0.1722  0.5575
 3189TIP3   OH231125   2.750   3.686   1.325  0.5519 -0.2435 -0.2328
 3189TIP3    H131126   2.745   3.608   1.269 -0.9085  0.2936 -0.8939
 3189TIP3    H231127   2.707   3.660   1.406 -0.1220 -0.0839 -0.5293
 3190TIP3   OH231128   4.557   6.928   6.428 -0.8217 -0.1983 -0.5186
 3190TIP3    H131129   4.502   6.849   6.427  0.4628 -1.1382  0.4533
 3190TIP3    H231130   4.609   6.922   6.349  0.7422 -1.4400  0.5532
 3191TIP3   OH231131   1.228   3.287   8.099  0.1189  0.4885  0.1304
 3191TIP3    H131132   1.225   3.348   8.025 -0.5390  0.2533 -0.0477
 3191TIP3    H231133   1.137   3.279   8.128 -0.0064 -1.3175 -0.6105
 3192TIP3   OH231134   5.006   2.950   8.009  0.8557  0.6034 -0.0539
 3192TIP3    H131135   4.963   2.996   8.082  1.1902 -0.9224  1.1455
 3192TIP3    H231136   5.086   2.914   8.046  1.6659  0.8056 -1.5110
 3193TIP3   OH231137   6.768   4.374   1.356 -0.1542 -0.0788  0.0678
 3193TIP3    H131138   6.700   4.441   1.367  0.7275  1.0205 -0.8820
 3193TIP3    H231139   6.818   4.375   1.437 -0.0503  0.5464 -0.0010
 3194TIP3   OH231140   1.279   0.738   0.661  0.0424 -1.4011  0.0397
 3194TIP3    H131141   1.192   0.763   0.691  0.3478  0.7155 -0.6815
 3194TIP3    H231142   1.264   0.657   0.610 -1.7386 -0.3638 -1.2263
 3195TIP3   OH231143   2.590   5.295   7.840  0.3812 -0.8113 -0.5671
 3195TIP3    H131144   2.573   5.207   7.874  0.7015 -0.6027  0.1346
 3195TIP3    H231145   2.508   5.342   7.855  0.3387 -0.8746 -0.5962
 3196TIP3   OH231146   3.952   0.768   1.590 -0.1610 -0.2338 -0.1457
 3196TIP3    H131147   4.001   0.824   1.651 -0.1385 -2.0207  1.5607
 3196TIP3    H231148   3.860   0.785   1.610 -0.1884  0.3226 -0.7174
 3197TIP3   OH231149   6.063   2.274   0.049  0.0744  0.1550 -0.0578
 3197TIP3    H131150   6.085   2.181   0.044  0.1731  0.2041 -0.5712
 3197TIP3    H231151   6.131   2.318  -0.002  1.0728  0.6944  1.6197
 3198TIP3   OH231152   5.746   2.549   8.315 -0.0679 -0.4395 -0.0382
 3198TIP3    H131153   5.833   2.587   8.323 -0.3486 -0.0938  1.8105
 3198TIP3    H231154   5.740   2.485   8.385 -1.1185 -0.8572 -0.4741
 3199TIP3   OH231155   4.116   5.669   8.398  0.2293  0.0940 -0.6193
 3199TIP3    H131156   4.046   5.732   8.409  0.2813  0.2370 -1.0761
 3199TIP3    H231157   4.152   5.657   8.486  1.2524  1.8809 -0.7550
 3200TIP3   OH231158   5.089   0.803   6.239 -0.0531  0.1652 -0.3783
 3200TIP3    H131159   5.021   0.870   6.235  1.0683  1.4530  0.7515
 3200TIP3    H231160   5.049   0.731   6.288 -0.5512  0.9973  0.4834
 3201TIP3   OH231161   2.183   5.337   2.609 -0.1974  0.0114  0.0091
 3201TIP3    H131162   2.171   5.244   2.629  1.5074 -0.8215 -2.3879
 3201TIP3    H231163   2.110   5.357   2.550  0.3931 -0.3471 -0.8780
 3202TIP3   OH231164   1.947   5.303   1.977 -0.0077  0.4784  0.8004
 3202TIP3    H131165   1.985   5.389   1.960 -0.4746  0.7337  1.0264
 3202TIP3    H231166   1.877   5.320   2.040 -1.1828  0.1645 -0.3804
 3203TIP3   OH231167   1.775   1.482   0.649  0.1433  0.4647 -0.4302
 3203TIP3    H131168   1.690   1.509   0.613  0.7694  0.7085 -1.8001
 3203TIP3    H231169   1.782   1.529   0.732 -1.0553  0.4273 -0.2838
 3204TIP3   OH231170   0.012   5.878   2.297 -0.3441  0.3114  0.4015
 3204TIP3    H131171   0.044   5.907   2.212 -1.3935 -1.6262 -0.7236
 3204TIP3    H231172  -0.046   5.948   2.327 -3.1123 -0.5808 -2.3854
 3205TIP3   OH231173   3.058   1.017   7.471  0.0202  0.2577  0.2138
 3205TIP3    H131174   3.147   1.051   7.463  1.1337 -1.9026  2.1355
 3205TIP3    H231175   3.027   1.052   7.554 -0.8278  0.7200 -0.2873
 3206TIP3   OH231176   6.848   3.591   1.587  0.3163 -0.9725  0.2612
 3206TIP3    H131177   6.795   3.565   1.662 -0.7878 -2.5811 -0.9803
 3206TIP3    H231178   6.936   3.601   1.621  0.0290 -2.6240  1.5953
 3207TIP3   OH231179   4.374   0.043   1.496 -0.5594 -0.1994  0.0893
 3207TIP3    H131180   4.349   0.131   1.523 -1.1033 -0.3819  0.2075
 3207TIP3    H231181   4.382  -0.005   1.579  0.5020 -0.0661  0.0674
 3208TIP3   OH231182   3.614   3.155   7.464 -0.1446  0.1685 -0.6190
 3208TIP3    H131183   3.593   3.178   7.373  0.6735  0.2990 -0.7841
 3208TIP3    H231184   3.599   3.061   7.469  1.0194 -0.0689 -1.2535
 3209TIP3   OH231185   1.576   6.126   1.542 -0.4332  0.0394  0.0207
 3209TIP3    H131186   1.667   6.151   1.557 -0.4512  0.5017 -0.6371
 3209TIP3    H231187   1.538   6.199   1.495 -1.9566  1.2010  2.8039
 3210TIP3   OH231188   3.945   5.239   7.479  0.0296 -0.7014 -0.1284
 3210TIP3    H131189   3.855   5.228   7.447 -0.3000  2.2788 -0.4859
 3210TIP3    H231190   3.941   5.314   7.538  2.0436 -1.4834  1.1262
 3211TIP3   OH231191   6.800   3.651   6.459 -0.2933  0.2918 -0.3878
 3211TIP3    H131192   6.832   3.586   6.396  0.9215 -1.4243  1.8585
 3211TIP3    H231193   6.707   3.629   6.471  0.2507 -1.6415  0.8775
 3212TIP3   OH231194   3.562   6.057   1.152  0.0343 -0.0908  0.0404
 3212TIP3    H131195   3.649   6.037   1.117 -0.6086 -1.5366 -0.8607
 3212TIP3    H231196   3.565   6.150   1.173  1.2663  0.2784 -1.5538
 3213TIP3   OH231197   2.225   1.930   1.508 -0.1333 -0.4550  0.0279
 3213TIP3    H131198   2.175   1.901   1.585 -0.0575  0.0821  0.2816
 3213TIP3    H231199   2.225   2.025   1.514  0.7484 -0.4413 -0.0799
 3214TIP3   OH231200   4.425   0.222   0.863  0.1457  0.4918 -0.0954
 3214TIP3    H131201   4.472   0.235   0.945 -0.0227 -0.0501  0.0950
 3214TIP3    H231202   4.466   0.283   0.802 -2.0752  3.6083  1.2793
 3215TIP3   OH231203   4.261   2.723   1.602 -0.0659 -0.3104 -0.1387
 3215TIP3    H131204   4.323   2.686   1.539  0.1334 -0.0115 -0.1225
 3215TIP3    H231205   4.309   2.728   1.684 -0.6954 -1.7998  0.3485
 3216TIP3   OH231206   6.353   0.709   0.680  1.0338  0.1695  0.5708
 3216TIP3    H131207   6.399   0.791   0.697  1.0897  0.3509 -0.3868
 3216TIP3    H231208   6.419   0.641   0.693  1.5281  0.4113 -0.5420
 3217TIP3   OH231209   0.542   2.298   7.994 -0.3448  0.1119  0.7697
 3217TIP3    H131210   0.564   2.276   8.084 -0.5069 -0.1139  0.7566
 3217TIP3    H231211   0.600   2.244   7.941  1.1710  1.7111  0.7256
 3218TIP3   OH231212   6.460   4.039   7.905  0.4023  0.6807 -0.1354
 3218TIP3    H131213   6.520   4.090   7.850  2.9285 -0.9947  0.8972
 3218TIP3    H231214   6.486   4.060   7.995  0.4870 -1.2571  0.3267
 3219TIP3   OH231215   3.081   6.603   1.500  0.1260  0.3755  0.1401
 3219TIP3    H131216   3.147   6.644   1.556 -0.9639  0.6052  1.3188
 3219TIP3    H231217   3.025   6.676   1.473  1.0080  0.3697 -1.8373
 3220TIP3   OH231218   1.866   1.635   2.229  0.4033  0.2515  0.6420
 3220TIP3    H131219   1.819   1.594   2.157  0.7933  0.1111  0.4677
 3220TIP3    H231220   1.857   1.573   2.301 -0.1838  0.4976  0.7895
 3221TIP3   OH231221   4.904   6.725   6.933 -0.1049 -0.0312 -0.1367
 3221TIP3    H131222   4.880   6.740   6.842  0.7173 -1.4451 -0.6209
 3221TIP3    H231223   4.884   6.632   6.949  0.2880  0.0520  0.9407
 3222TIP3   OH231224   1.039   5.302   2.474 -0.1820  0.0016 -0.5108
 3222TIP3    H131225   1.071   5.264   2.555  0.9182 -1.6729 -1.6668
 3222TIP3    H231226   1.057   5.396   2.482  0.3271 -0.2063  0.9794
 3223TIP3   OH231227   2.821   0.101   0.761  0.1832 -0.2155 -0.1492
 3223TIP3    H131228   2.804   0.181   0.712  0.3377 -0.3968 -0.4996
 3223TIP3    H231229   2.915   0.087   0.754  0.2857  0.0194  0.6104
 3224TIP3   OH231230   2.582   1.770   1.073 -0.0472  0.1815 -0.3375
 3224TIP3    H131231   2.620   1.771   0.985  2.1092  0.9952  0.5079
 3224TIP3    H231232   2.656   1.749   1.130 -1.1263  0.8142  1.3733
 3225TIP3   OH231233   5.348   4.827   6.880 -0.0214 -0.2852 -0.4349
 3225TIP3    H131234   5.291   4.757   6.847 -1.5156 -1.1099  3.3479
 3225TIP3    H231235   5.436   4.791   6.874 -0.5087 -1.4707 -0.8828
 3226TIP3   OH231236   3.750   3.629   6.927 -0.4591 -0.0733  0.2089
 3226TIP3    H131237   3.688   3.606   6.858  0.9334  0.6323 -1.3567
 3226TIP3    H231238   3.756   3.725   6.922  0.0431 -0.0548  0.9812
 3227TIP3   OH231239   1.379   6.851   1.096  0.0211  0.0676 -0.2291
 3227TIP3    H131240   1.325   6.784   1.054 -0.6184  0.9141 -0.7874
 3227TIP3    H231241   1.320   6.894   1.158  0.8059 -0.8013  1.1875
 3228TIP3   OH231242   6.692   3.533   1.814  0.2886  0.2222  0.3201
 3228TIP3    H131243   6.603   3.557   1.786  0.2019  0.1105  0.4973
 3228TIP3    H231244   6.680   3.498   1.902  0.4103 -0.5035  0.0487
 3229TIP3   OH231245   4.005   6.660   6.754 -0.1331  0.1484  0.1436
 3229TIP3    H131246   3.961   6.594   6.701  0.2100 -1.4654  1.7736
 3229TIP3    H231247   3.969   6.650   6.842 -0.1200  2.2101  0.4442
 3230TIP3   OH231248   0.145   4.278   1.086 -0.8252  0.4687  0.1962
 3230TIP3    H131249   0.224   4.305   1.039  0.1229 -0.7498  1.0459
 3230TIP3    H231250   0.132   4.345   1.153 -0.0250  0.2466  0.5824
 3231TIP3   OH231251   2.946   3.112   1.106 -0.5562 -0.6457 -0.2076
 3231TIP3    H131252   2.858   3.149   1.109  0.2056  1.2240  3.0394
 3231TIP3    H231253   2.997   3.176   1.056 -0.3190  0.2051  1.0747
 3232TIP3   OH231254   0.307   3.022   0.864 -0.3033 -0.5797  0.6026
 3232TIP3    H131255   0.286   2.943   0.914  0.1211 -0.8688  0.3371
 3232TIP3    H231256   0.250   3.090   0.900 -0.1165 -0.8184  1.3666
 3233TIP3   OH231257   0.543   5.698   8.173 -0.3282  0.0046  0.2190
 3233TIP3    H131258   0.623   5.711   8.224  0.1770 -1.0875 -0.2548
 3233TIP3    H231259   0.472   5.722   8.233  0.3560  1.4622  0.4884
 3234TIP3   OH231260   0.715   0.929   2.252  0.1228  0.4750  0.0802
 3234TIP3    H131261   0.637   0.947   2.199 -0.7606 -1.7678  0.4953
 3234TIP3    H231262   0.684   0.931   2.342  0.2377 -1.5700  0.2012
 3235TIP3   OH231263   1.402   1.686   1.846 -0.0569  0.6195 -0.2013
 3235TIP3    H131264   1.486   1.728   1.866 -0.4845  0.6737  1.6461
 3235TIP3    H231265   1.412   1.596   1.877  0.0946 -0.0713 -2.1284
 3236TIP3   OH231266   1.017   4.796   0.008  0.1013 -0.0251  0.0648
 3236TIP3    H131267   1.003   4.772  -0.084  1.2269 -1.9003  0.3301
 3236TIP3    H231268   1.110   4.819   0.012  0.0541  0.0662  0.7332
 3237TIP3   OH231269   2.479   1.617   8.164 -0.0002  0.3794 -0.3768
 3237TIP3    H131270   2.456   1.530   8.199  2.6684  0.5630  2.2474
 3237TIP3    H231271   2.431   1.678   8.220  0.7104  0.6322 -0.0417
 3238TIP3   OH231272   4.819   4.761   1.613 -0.1031  0.5052 -0.7842
 3238TIP3    H131273   4.846   4.806   1.533  0.2572  1.0739 -0.3531
 3238TIP3    H231274   4.859   4.812   1.683  0.8740 -0.8909 -0.3042
 3239TIP3   OH231275   0.684   3.884   8.044  0.1856  0.2982 -0.3492
 3239TIP3    H131276   0.745   3.870   7.971  1.3196  1.1453  0.4094
 3239TIP3    H231277   0.625   3.954   8.013  0.4741  0.4469 -0.5638
 3240TIP3   OH231278   5.026   5.767   0.679  0.0294  0.8820  0.0065
 3240TIP3    H131279   4.985   5.728   0.756  0.3607 -0.9601 -0.6927
 3240TIP3    H231280   5.111   5.799   0.710  0.3037 -0.1490  0.3526
 3241TIP3   OH231281   2.935   6.256   1.951 -0.0109 -0.4928  0.1612
 3241TIP3    H131282   2.981   6.317   1.894  2.1037 -1.7249  0.4518
 3241TIP3    H231283   2.895   6.312   2.019  0.5327  0.6683 -0.4524
 3242TIP3   OH231284   3.445   5.980   7.322  0.1543  0.6551 -0.2915
 3242TIP3    H131285   3.410   6.068   7.341  1.0625  0.6570  1.5872
 3242TIP3    H231286   3.456   5.940   7.408  3.0699 -0.0148 -0.9004
 3243TIP3   OH231287   4.206   1.792   0.139  0.1299  0.1692 -0.4363
 3243TIP3    H131288   4.269   1.845   0.188  2.2747 -2.5976  0.0315
 3243TIP3    H231289   4.135   1.853   0.118  0.6836  2.3185  3.1262
 3244TIP3   OH231290   3.011   2.530   6.921  0.1561 -0.5053  0.4007
 3244TIP3    H131291   2.983   2.468   6.854  1.8866 -0.7542 -0.1266
 3244TIP3    H231292   2.948   2.601   6.916  0.7170 -0.1112 -2.0903
 3245TIP3   OH231293   5.181   3.897   7.772  0.1445  0.0689  0.7065
 3245TIP3    H131294   5.092   3.915   7.802 -0.3128  0.4053 -0.7423
 3245TIP3    H231295   5.221   3.983   7.763  0.1817 -0.0031  0.1350
 3246TIP3   OH231296   3.791   4.341   1.694 -0.1925 -0.2462 -0.4238
 3246TIP3    H131297   3.807   4.409   1.759  1.8058 -0.4338 -0.6746
 3246TIP3    H231298   3.760   4.388   1.616 -0.3158  0.2069 -0.1013
 3247TIP3   OH231299   0.256   5.466   8.190  0.2587 -0.1320  0.1702
 3247TIP3    H131300   0.313   5.542   8.187 -1.2365  1.0623  0.7285
 3247TIP3    H231301   0.222   5.464   8.279 -1.1536 -0.3265 -0.3434
 3248TIP3   OH231302   6.562   4.251   0.963  0.3016 -0.2762 -0.3925
 3248TIP3    H131303   6.527   4.299   1.039  2.0165 -0.2351  0.4359
 3248TIP3    H231304   6.544   4.159   0.982  0.7974 -0.2719  0.1213
 3249TIP3   OH231305   3.351   0.294   8.073  0.0512  0.2666  0.2521
 3249TIP3    H131306   3.310   0.370   8.112 -0.5041 -0.2997  0.7962
 3249TIP3    H231307   3.367   0.318   7.982  0.7202  1.3528  0.6441
 3250TIP3   OH231308   1.441   1.067   0.244 -0.4821 -0.2955  0.0015
 3250TIP3    H131309   1.525   1.106   0.270 -0.3292 -0.3322 -0.4313
 3250TIP3    H231310   1.452   0.973   0.259  0.2353 -0.5429 -1.8348
 3251TIP3   OH231311   6.929   1.159   1.408  0.0961 -0.0653  0.2676
 3251TIP3    H131312   6.875   1.128   1.336 -1.0556  1.1542  0.5723
 3251TIP3    H231313   6.912   1.254   1.412  0.3835 -0.0561  1.9149
 3252TIP3   OH231314   0.398   4.592   0.425  0.4703 -0.3852 -0.1132
 3252TIP3    H131315   0.403   4.600   0.330  1.8034  1.3085  0.0343
 3252TIP3    H231316   0.488   4.605   0.455 -0.0680  0.1082  1.4162
 3253TIP3   OH231317   4.076   3.058   1.714  0.8176 -0.2326 -0.6169
 3253TIP3    H131318   4.049   3.147   1.690  0.1606  0.7159  2.9122
 3253TIP3    H231319   4.143   3.072   1.781  1.7351 -2.4539 -1.0067
 3254TIP3   OH231320   0.865   6.655   7.475  0.1928  0.2526  0.0687
 3254TIP3    H131321   0.853   6.563   7.452 -1.0640  0.3248  0.3407
 3254TIP3    H231322   0.867   6.701   7.391  1.5598 -0.0794 -0.1020
 3255TIP3   OH231323   4.336   4.344   1.910  0.1223  0.2463 -0.1720
 3255TIP3    H131324   4.405   4.352   1.977 -0.6118  2.6465  0.3728
 3255TIP3    H231325   4.268   4.405   1.938 -1.2681 -0.4405 -1.8850
 3256TIP3   OH231326   5.724   2.776   1.308  0.2384  0.1190 -0.4207
 3256TIP3    H131327   5.789   2.756   1.240  0.2804 -0.2947 -0.2633
 3256TIP3    H231328   5.766   2.750   1.390 -1.1998 -3.1724 -0.5310
 3257TIP3   OH231329   5.387   3.514   8.040 -0.5071 -0.7053 -0.1636
 3257TIP3    H131330   5.300   3.516   8.080 -0.5733  0.8084 -0.3174
 3257TIP3    H231331   5.377   3.456   7.964 -1.1798 -1.1323  0.2438
 3258TIP3   OH231332   2.398   2.117   7.237 -0.3693  0.0363 -0.2802
 3258TIP3    H131333   2.483   2.151   7.265 -1.3262  0.8449  1.8988
 3258TIP3    H231334   2.371   2.174   7.166 -1.1757  2.9572  2.1846
 3259TIP3   OH231335   4.633   6.819   1.951 -0.9490 -0.4843  0.2531
 3259TIP3    H131336   4.645   6.789   2.042 -0.4747 -0.8465  0.0775
 3259TIP3    H231337   4.699   6.888   1.940 -0.0541 -1.3938 -0.2326
 3260TIP3   OH231338   4.193   0.511   1.862  0.4990 -0.1140 -0.3335
 3260TIP3    H131339   4.209   0.603   1.842  4.3946 -1.2972 -3.9093
 3260TIP3    H231340   4.106   0.494   1.827 -0.0696  1.9889 -0.1143
 3261TIP3   OH231341   2.896   4.611   0.897 -0.0339 -0.1627  0.4498
 3261TIP3    H131342   2.961   4.571   0.839 -1.1119  0.4065 -1.2470
 3261TIP3    H231343   2.918   4.704   0.897  0.4535 -0.2683  1.6587
 3262TIP3   OH231344   5.339   3.880   8.109  0.4017 -0.2172 -0.4486
 3262TIP3    H131345   5.245   3.875   8.089  0.7218  0.5550 -2.2999
 3262TIP3    H231346   5.368   3.789   8.115 -0.1735 -0.4731 -1.3771
 3263TIP3   OH231347   5.564   1.593   1.113 -0.3137  0.0849 -0.3812
 3263TIP3    H131348   5.469   1.588   1.100 -0.0380 -2.5369 -2.4744
 3263TIP3    H231349   5.588   1.507   1.149  1.2089  0.9726  0.8479
 3264TIP3   OH231350   1.722   3.604   8.092  0.2330 -0.0130  0.5278
 3264TIP3    H131351   1.649   3.605   8.155  0.4276 -2.2782  0.8814
 3264TIP3    H231352   1.689   3.552   8.019  1.3742 -0.8774  0.6003
 3265TIP3   OH231353   2.065   3.994   7.745 -0.8121 -0.0428  0.2132
 3265TIP3    H131354   2.042   4.032   7.660 -2.2519 -0.3592  0.4233
 3265TIP3    H231355   2.081   3.902   7.726  1.8789  0.4394 -0.1669
 3266TIP3   OH231356   4.437   6.076   2.206 -0.2589 -0.5015  0.3455
 3266TIP3    H131357   4.498   6.124   2.262  0.7666 -0.0732 -1.0628
 3266TIP3    H231358   4.491   6.008   2.164 -0.9371 -0.6730 -0.2791
 3267TIP3   OH231359   5.965   3.107   0.744 -0.0303  0.2475  0.6158
 3267TIP3    H131360   5.877   3.132   0.718 -0.9235 -3.2017 -0.1797
 3267TIP3    H231361   6.011   3.090   0.661  0.3765 -0.8751  1.0466
 3268TIP3   OH231362   5.803   5.899   8.040 -0.2573 -0.0192  0.9770
 3268TIP3    H131363   5.825   5.872   7.951  0.0695 -0.6141  1.2262
 3268TIP3    H231364   5.770   5.988   8.031 -0.7277 -0.2591  0.1978
 3269TIP3   OH231365   6.008   3.404   1.293 -0.0248  0.1210  0.2457
 3269TIP3    H131366   6.061   3.378   1.368  0.1910  0.0248  0.0605
 3269TIP3    H231367   6.028   3.340   1.226 -0.7800 -0.2291  0.3464
 3270TIP3   OH231368   1.443   1.629   6.440  0.0818 -0.0180  0.0394
 3270TIP3    H131369   1.433   1.704   6.381  3.0860  0.5026  0.0179
 3270TIP3    H231370   1.360   1.581   6.432 -1.3380  2.4138 -1.1494
 3271TIP3   OH231371   5.844   1.493   6.386 -0.1335 -0.3859 -0.3030
 3271TIP3    H131372   5.879   1.404   6.391 -0.3320 -0.3982  1.9310
 3271TIP3    H231373   5.754   1.485   6.418  0.5801  0.9232  2.2679
 3272TIP3   OH231374   1.478   5.958   2.334 -0.6937  0.5345  0.1212
 3272TIP3    H131375   1.572   5.971   2.320 -0.7520  1.4397  0.5050
 3272TIP3    H231376   1.473   5.878   2.388 -0.2594 -0.5466 -1.3717
 3273TIP3   OH231377   1.474   3.075   1.519 -0.7554 -0.3710 -0.0711
 3273TIP3    H131378   1.436   2.995   1.483  1.3498 -1.6592  0.3906
 3273TIP3    H231379   1.471   3.137   1.447 -3.1841 -0.5376 -0.2024
 3274TIP3   OH231380   6.670   1.932   6.506 -0.0322 -0.0528  0.2141
 3274TIP3    H131381   6.610   1.890   6.444  0.3675 -1.5153  0.7814
 3274TIP3    H231382   6.624   1.930   6.589 -0.4263  1.6059  0.0639
 3275TIP3   OH231383   3.916   6.287   8.088 -0.2504 -0.0807  0.2025
 3275TIP3    H131384   3.980   6.300   8.018  2.8854 -0.8552  2.6991
 3275TIP3    H231385   3.875   6.373   8.099 -0.6736  0.1332 -2.2933
 3276TIP3   OH231386   0.138   1.692   2.260  0.0204  0.1216 -0.6970
 3276TIP3    H131387   0.097   1.696   2.346  0.0486 -0.6321 -0.6453
 3276TIP3    H231388   0.121   1.778   2.222 -1.2257 -0.0216 -0.5001
 3277TIP3   OH231389   4.189   5.769   2.168 -0.0705 -0.8026  0.4426
 3277TIP3    H131390   4.165   5.735   2.254  0.0453  0.4423  0.9862
 3277TIP3    H231391   4.112   5.818   2.140  0.0546 -0.8490  0.0209
 3278TIP3   OH231392   1.489   0.155   7.414 -0.2811  0.5475 -0.1802
 3278TIP3    H131393   1.523   0.239   7.446  1.0029  0.3277 -0.9109
 3278TIP3    H231394   1.434   0.178   7.339  0.3221  0.7237 -0.5759
 3279TIP3   OH231395   1.659   2.886   2.140 -0.0562 -0.0597 -0.5125
 3279TIP3    H131396   1.688   2.871   2.229  2.4563  1.0947 -1.0415
 3279TIP3    H231397   1.581   2.941   2.148  1.2847  1.7161  0.9632
 3280TIP3   OH231398   5.797   6.732   0.061  0.0257  0.9497 -0.2921
 3280TIP3    H131399   5.860   6.663   0.040  0.3879  1.5342 -1.1694
 3280TIP3    H231400   5.806   6.745   0.155 -0.2285 -0.3711 -0.0744
 3281TIP3   OH231401   6.119   2.030   7.294 -0.1136  0.3605  0.3860
 3281TIP3    H131402   6.154   1.954   7.249  0.4717  1.2748 -0.7694
 3281TIP3    H231403   6.074   2.080   7.225 -0.8484  0.8420  1.2003
 3282TIP3   OH231404   4.332   5.810   6.616 -0.5393 -0.0578 -0.3611
 3282TIP3    H131405   4.356   5.839   6.527  0.6626  2.1817  0.6121
 3282TIP3    H231406   4.239   5.829   6.622 -0.0772  2.5160 -0.2566
 3283TIP3   OH231407   3.206   4.440   1.486 -0.7027 -0.2085  0.6867
 3283TIP3    H131408   3.165   4.372   1.539  0.5004  0.7649  3.0151
 3283TIP3    H231409   3.143   4.513   1.488 -0.2658  0.1662  1.6509
 3284TIP3   OH231410   5.152   4.415   7.483 -0.1446  0.7039  0.0465
 3284TIP3    H131411   5.222   4.479   7.483  0.7721 -0.2457  2.0746
 3284TIP3    H231412   5.138   4.393   7.575 -1.7221 -0.6267 -0.4562
 3285TIP3   OH231413   3.751   5.188   8.146 -0.3264  0.0649  0.1752
 3285TIP3    H131414   3.672   5.205   8.199  0.4088  1.2879  0.9350
 3285TIP3    H231415   3.751   5.259   8.081  2.1274  2.5485  2.5972
 3286TIP3   OH231416   6.273   2.970   2.481  0.3392 -0.2969 -0.1135
 3286TIP3    H131417   6.311   2.951   2.567 -3.3405  0.0794  1.8517
 3286TIP3    H231418   6.297   3.061   2.463 -0.1601  0.1756  1.4220
 3287TIP3   OH231419   1.804   6.839   1.831  0.1248  0.4135 -0.0234
 3287TIP3    H131420   1.826   6.749   1.855 -0.9407  0.1790  0.1539
 3287TIP3    H231421   1.836   6.892   1.903  1.8270  0.3376 -0.6663
 3288TIP3   OH231422   3.438   3.053   8.120  0.1495 -0.5053  0.3019
 3288TIP3    H131423   3.515   3.110   8.107 -0.8659  0.8517 -0.0010
 3288TIP3    H231424   3.370   3.092   8.065 -1.1802 -0.8664  1.6329
 3289TIP3   OH231425   2.942   4.086   0.704  0.2182 -0.1307  0.1347
 3289TIP3    H131426   2.953   3.993   0.685  0.2348  0.0104 -0.5831
 3289TIP3    H231427   2.851   4.104   0.680 -0.3000 -0.3042  1.7996
 3290TIP3   OH231428   1.395   5.235   1.204  0.3226 -0.1081  0.1308
 3290TIP3    H131429   1.486   5.224   1.232  0.8889  0.0160 -1.5705
 3290TIP3    H231430   1.400   5.293   1.128 -1.2751  0.5890  0.5009
 3291TIP3   OH231431   4.430   1.947   1.476  0.1288 -0.5272  0.7073
 3291TIP3    H131432   4.502   1.899   1.518  0.1921 -0.9017  0.1812
 3291TIP3    H231433   4.356   1.937   1.536  0.5109 -0.1450  1.2489
 3292TIP3   OH231434   1.864   2.135   8.506 -0.0325  0.1434  0.8746
 3292TIP3    H131435   1.803   2.179   8.447  1.0760  0.9898  0.3521
 3292TIP3    H231436   1.943   2.187   8.504  1.3570 -1.8627  0.2206
 3293TIP3   OH231437   6.507   0.849   7.983  0.2820 -0.1921  0.5981
 3293TIP3    H131438   6.434   0.878   7.928  0.3719  2.6083  1.7955
 3293TIP3    H231439   6.470   0.778   8.035 -1.2017  0.2835  0.2628
 3294TIP3   OH231440   0.473   3.929   7.375 -0.1474 -0.0428 -0.0721
 3294TIP3    H131441   0.529   3.957   7.447  2.3658 -0.9825 -1.5254
 3294TIP3    H231442   0.418   4.005   7.356  1.3919  1.3399  0.7602
 3295TIP3   OH231443   5.474   5.464   7.686 -0.3230 -0.1242  0.0270
 3295TIP3    H131444   5.529   5.415   7.625  2.3132  0.4012  1.8113
 3295TIP3    H231445   5.386   5.428   7.673 -0.0119  0.2037 -4.2047
 3296TIP3   OH231446   0.013   1.361   2.659  0.1685  0.4386  0.0842
 3296TIP3    H131447  -0.007   1.427   2.592 -2.4313  0.3290  0.6409
 3296TIP3    H231448  -0.059   1.368   2.722 -0.1391 -2.7839  0.2773
 3297TIP3   OH231449   2.652   2.723   7.799 -0.1297  0.8892 -0.4158
 3297TIP3    H131450   2.746   2.724   7.782  0.1640 -0.9398  0.8826
 3297TIP3    H231451   2.640   2.785   7.872  0.0111  1.3456 -0.7764
 3298TIP3   OH231452   3.983   2.724   0.110 -0.2132  0.3178 -0.2299
 3298TIP3    H131453   4.031   2.714   0.027 -1.3480 -0.1355 -0.8528
 3298TIP3    H231454   3.891   2.711   0.086 -0.6828  1.3795  0.9041
 3299TIP3   OH231455   1.092   1.725   8.323  0.8400 -0.2808 -0.5120
 3299TIP3    H131456   1.131   1.700   8.240  0.6193  0.0541 -0.7160
 3299TIP3    H231457   1.062   1.642   8.361 -0.2901 -0.3000 -1.3859
 3300TIP3   OH231458   2.125   0.145   1.420  0.2980 -0.1303  0.1254
 3300TIP3    H131459   2.197   0.128   1.481  0.7034 -0.2513 -0.3786
 3300TIP3    H231460   2.120   0.240   1.413  1.7460 -0.1065 -1.3646
 3301TIP3   OH231461   0.565   5.787   0.095 -0.0106 -0.3534  0.6453
 3301TIP3    H131462   0.598   5.758   0.179  0.6711 -0.1294  0.4586
 3301TIP3    H231463   0.630   5.756   0.031 -0.5915 -0.6519  0.1815
 3302TIP3   OH231464   6.571   3.584   7.117 -0.0528  0.2957 -0.0496
 3302TIP3    H131465   6.572   3.558   7.209  3.5800  0.0566 -0.0128
 3302TIP3    H231466   6.495   3.538   7.080  0.7039 -2.9457  1.9940
 3303TIP3   OH231467   0.044   2.657   1.232  0.3685  0.2934 -0.6101
 3303TIP3    H131468   0.060   2.604   1.153 -0.6446 -0.7127 -0.1690
 3303TIP3    H231469  -0.047   2.685   1.224  1.2119  3.1126 -1.4519
 3304TIP3   OH231470   6.041   0.015   7.885 -0.4122 -0.4694  0.1344
 3304TIP3    H131471   6.047  -0.073   7.921  0.8424 -0.0694  1.0023
 3304TIP3    H231472   6.081   0.009   7.798 -1.8820 -1.0865 -0.5245
 3305TIP3   OH231473   0.477   6.549   0.315  0.0300 -0.0081  0.2155
 3305TIP3    H131474   0.465   6.481   0.382  0.1316  0.7255  0.9875
 3305TIP3    H231475   0.477   6.631   0.364  1.3216  0.4644 -0.5277
 3306TIP3   OH231476   1.260   5.918   6.341  0.1386  0.1475  0.3028
 3306TIP3    H131477   1.212   5.887   6.265 -0.6091  0.2409  0.7242
 3306TIP3    H231478   1.316   5.989   6.308 -1.1690  1.1042  0.0794
 3307TIP3   OH231479   3.584   3.547   0.023  0.6169  0.1428  0.3502
 3307TIP3    H131480   3.494   3.570   0.046  0.3343 -0.8104  0.2646
 3307TIP3    H231481   3.627   3.631   0.007  0.1726  0.7154  1.9375
 3308TIP3   OH231482   2.671   1.271   0.814 -0.1765 -0.5375  0.2973
 3308TIP3    H131483   2.656   1.182   0.782 -2.1627 -0.2549  0.2604
 3308TIP3    H231484   2.651   1.327   0.739  1.3483 -0.0466  0.2317
 3309TIP3   OH231485   6.419   2.775   0.944  0.6155 -0.8071 -0.0133
 3309TIP3    H131486   6.355   2.743   0.880  1.2359 -1.4688 -0.3090
 3309TIP3    H231487   6.502   2.736   0.917  1.5875  1.6767 -0.8660
 3310TIP3   OH231488   3.672   4.419   8.433  0.7366  0.4170 -0.3627
 3310TIP3    H131489   3.662   4.407   8.338 -0.8331 -1.9660  0.0205
 3310TIP3    H231490   3.588   4.456   8.461  1.2552  1.2669  0.1037
 3311TIP3   OH231491   1.007   0.603   8.037 -0.2629  0.0014 -0.7323
 3311TIP3    H131492   0.989   0.510   8.025  0.8284 -0.3966  0.5368
 3311TIP3    H231493   1.101   0.612   8.020  0.0454  0.4960  1.0080
 3312TIP3   OH231494   3.036   1.676   2.395  0.0611 -0.7837  0.4685
 3312TIP3    H131495   3.047   1.655   2.487 -0.8131 -1.0764  0.5105
 3312TIP3    H231496   2.958   1.732   2.392 -0.2564 -1.2573 -0.1584
 3313TIP3   OH231497   6.059   3.670   1.823 -0.9357  0.2597 -0.4684
 3313TIP3    H131498   6.027   3.759   1.807 -2.0475  0.0192  0.2491
 3313TIP3    H231499   6.124   3.679   1.893  0.5601  0.7446 -1.8651
 3314TIP3   OH231500   1.854   0.213   2.417 -0.0348  0.5948 -0.5320
 3314TIP3    H131501   1.839   0.210   2.322 -0.3617  1.6416 -0.5252
 3314TIP3    H231502   1.779   0.261   2.451  1.0228  1.8708  0.0508
 3315TIP3   OH231503   2.922   4.200   1.261  0.4344 -0.2700  0.0597
 3315TIP3    H131504   2.914   4.202   1.166 -1.0336 -2.6012  0.0798
 3315TIP3    H231505   2.903   4.110   1.285  0.1138  0.4211  2.6452
 3316TIP3   OH231506   5.627   0.527   0.599 -0.5630 -0.3524  0.1930
 3316TIP3    H131507   5.604   0.503   0.688  1.7700  1.2434  1.3423
 3316TIP3    H231508   5.544   0.538   0.554 -1.9249  1.2674  2.8784
 3317TIP3   OH231509   2.159   3.490   0.078  0.5217  0.2638  0.3804
 3317TIP3    H131510   2.125   3.576   0.102  0.2737  0.1239  0.5335
 3317TIP3    H231511   2.100   3.428   0.121 -0.2402 -0.0104 -1.0106
 3318TIP3   OH231512   0.957   3.871   6.750 -0.2267  0.6227 -0.0046
 3318TIP3    H131513   0.980   3.779   6.737 -1.0273  0.3738  0.2569
 3318TIP3    H231514   0.862   3.874   6.739 -0.0587  1.6959 -1.5840
 3319TIP3   OH231515   4.833   5.902   6.570 -0.1107 -0.8100 -0.1292
 3319TIP3    H131516   4.833   5.985   6.523 -0.3995 -2.0485 -2.4887
 3319TIP3    H231517   4.926   5.884   6.586  0.0083 -0.4499 -0.3868
 3320TIP3   OH231518   3.735   1.335   0.009 -0.0434  0.3020  0.2419
 3320TIP3    H131519   3.757   1.323  -0.083 -1.0230 -0.5050  0.0867
 3320TIP3    H231520   3.814   1.311   0.057  0.3507  0.3639 -0.3779
 3321TIP3   OH231521   4.510   5.407   0.269 -0.7713 -0.0010  0.2397
 3321TIP3    H131522   4.469   5.466   0.333 -0.0573 -0.7710  1.4530
 3321TIP3    H231523   4.567   5.463   0.217 -2.3321  0.8672 -0.6336
 3322TIP3   OH231524   2.098   2.912   2.418 -0.0668  0.3746 -0.3131
 3322TIP3    H131525   2.135   2.896   2.505 -1.0993 -0.1419  0.0483
 3322TIP3    H231526   2.056   2.829   2.395  1.5779 -0.0426 -2.0314
 3323TIP3   OH231527   1.566   2.148   1.832 -0.2464 -0.3154 -0.8076
 3323TIP3    H131528   1.478   2.124   1.803 -0.7581 -1.6800  1.5883
 3323TIP3    H231529   1.554   2.227   1.884 -0.3196 -1.2733  0.6804
 3324TIP3   OH231530   4.014   4.945   1.493 -0.1282 -0.2266 -0.0438
 3324TIP3    H131531   3.963   5.024   1.476  1.8172  0.8297 -1.3276
 3324TIP3    H231532   3.949   4.878   1.512 -1.8529  1.6596  1.1019
 3325TIP3   OH231533   5.597   6.072   7.482 -0.0742 -0.6706  0.1842
 3325TIP3    H131534   5.553   6.014   7.544 -0.5868 -1.3012 -0.7410
 3325TIP3    H231535   5.645   6.012   7.424  2.2672 -0.0062  1.3308
 3326TIP3   OH231536   1.521   2.613   0.405 -0.1117 -0.2377 -0.4076
 3326TIP3    H131537   1.569   2.695   0.409  0.5221 -0.6140 -0.2611
 3326TIP3    H231538   1.513   2.585   0.496 -2.0374  0.6285 -0.2596
 3327TIP3   OH231539   2.088   3.197   1.634 -0.7948 -0.3940 -0.0343
 3327TIP3    H131540   2.136   3.176   1.554  0.9018  0.0137  0.8375
 3327TIP3    H231541   2.108   3.124   1.694  0.6155  0.8602  1.0999
 3328TIP3   OH231542   6.550   3.084   0.514  0.0916 -0.4877 -0.0935
 3328TIP3    H131543   6.589   3.109   0.598 -0.7933 -0.3618  0.2900
 3328TIP3    H231544   6.598   3.006   0.487 -0.0969 -0.9525  0.8928
 3329TIP3   OH231545   5.665   1.153   7.841 -0.2098 -0.3103  0.2106
 3329TIP3    H131546   5.728   1.102   7.790 -2.6245 -0.3628 -3.0627
 3329TIP3    H231547   5.616   1.087   7.891 -0.0824 -0.6702 -0.1310
 3330TIP3   OH231548   5.018   6.253   7.973  0.1882 -0.4851 -0.1582
 3330TIP3    H131549   5.002   6.295   8.057  0.7770 -0.6485  0.0449
 3330TIP3    H231550   5.106   6.283   7.947 -0.6219  0.8543 -1.5048
 3331TIP3   OH231551   2.115   1.554   7.214 -0.1092  0.2144 -0.5606
 3331TIP3    H131552   2.147   1.634   7.257  0.5222  0.0964 -0.8142
 3331TIP3    H231553   2.181   1.534   7.148 -0.0871 -0.7246 -0.2626
 3332TIP3   OH231554   0.588   1.723   0.700  0.0329 -0.0434  0.0124
 3332TIP3    H131555   0.507   1.673   0.696  0.5970 -1.0490  0.6827
 3332TIP3    H231556   0.654   1.660   0.727  0.7463  1.1114  1.0719
 3333TIP3   OH231557   5.173   3.127   6.779 -0.2394  0.2268 -0.2560
 3333TIP3    H131558   5.233   3.056   6.756 -2.5399 -1.0685 -2.8038
 3333TIP3    H231559   5.209   3.204   6.737  0.5577 -0.1393 -0.2548
 3334TIP3   OH231560   2.729   6.845   6.959  0.4617  0.4614 -0.0283
 3334TIP3    H131561   2.683   6.817   6.880  1.3482  0.8320 -0.6833
 3334TIP3    H231562   2.789   6.913   6.929  2.1419 -0.6835  0.6471
 3335TIP3   OH231563   3.997   2.082   2.144  0.3112  0.4740  0.4795
 3335TIP3    H131564   4.051   2.017   2.098  1.2905  0.5401  1.4888
 3335TIP3    H231565   4.002   2.056   2.236 -1.7956  0.2081  0.5728
 3336TIP3   OH231566   6.281   3.725   6.559 -0.0975  0.4125  0.8003
 3336TIP3    H131567   6.260   3.727   6.465  1.6975  0.7298  0.3671
 3336TIP3    H231568   6.204   3.685   6.600  0.2911 -2.7588 -1.1699
 3337TIP3   OH231569   0.639   4.413   2.264 -0.1133 -0.4962  0.4197
 3337TIP3    H131570   0.599   4.441   2.346  1.2528  0.5593  0.7766
 3337TIP3    H231571   0.577   4.439   2.196 -0.4810  0.1961  1.0088
 3338TIP3   OH231572   4.702   6.327   6.648  0.0144 -0.6020  0.0871
 3338TIP3    H131573   4.640   6.374   6.704  0.4509  1.5530 -1.1120
 3338TIP3    H231574   4.767   6.393   6.624  0.3422 -1.6597 -2.1899
 3339TIP3   OH231575   0.496   2.778   1.123 -0.2753  0.8999  0.2307
 3339TIP3    H131576   0.408   2.796   1.155  0.0757  2.9192  0.2307
 3339TIP3    H231577   0.532   2.865   1.102  0.6588 -0.0452 -2.5973
 3340TIP3   OH231578   2.739   6.723   6.707  0.0210  0.2402  0.1545
 3340TIP3    H131579   2.744   6.799   6.649  0.7935  0.2031  0.1583
 3340TIP3    H231580   2.804   6.662   6.673  0.8927  0.4548  1.3769
 3341TIP3   OH231581   0.933   0.548   1.854  0.3282 -0.4536  0.4539
 3341TIP3    H131582   0.909   0.461   1.824  0.6229  0.0989 -1.5080
 3341TIP3    H231583   0.896   0.554   1.942 -3.4498 -1.0081 -0.9280
 3342TIP3   OH231584   5.716   3.926   7.539 -0.1644 -0.5775  0.3918
 3342TIP3    H131585   5.785   3.919   7.606  0.2418  2.2584  0.3880
 3342TIP3    H231586   5.762   3.950   7.459 -0.9993 -0.2614 -0.0083
 3343TIP3   OH231587   4.655   2.387   1.332 -0.4827  0.1695 -0.3194
 3343TIP3    H131588   4.630   2.300   1.363  0.1643 -0.3873 -1.2807
 3343TIP3    H231589   4.665   2.376   1.237 -1.3465  1.5384 -0.5980
 3344TIP3   OH231590   4.084   0.556   0.046  0.1019 -0.4069  0.0778
 3344TIP3    H131591   4.151   0.499   0.008  1.0472 -1.2278  2.7611
 3344TIP3    H231592   4.090   0.541   0.140 -0.8736  2.8113  0.7735
 3345TIP3   OH231593   4.341   3.756   7.805  0.0665  0.5592 -0.5728
 3345TIP3    H131594   4.320   3.710   7.886  0.4926 -1.2013 -1.4076
 3345TIP3    H231595   4.261   3.749   7.753  0.1163  0.8154 -0.6828
 3346TIP3   OH231596   3.334   2.667   1.241  0.0523  1.0616  0.2720
 3346TIP3    H131597   3.363   2.716   1.318 -1.5111  0.1428  1.5163
 3346TIP3    H231598   3.238   2.668   1.246 -0.0753 -1.5416  0.0372
 3347TIP3   OH231599   6.866   1.401   1.304  0.0558  0.2742 -0.0789
 3347TIP3    H131600   6.855   1.388   1.210  3.2594 -0.1939 -0.4852
 3347TIP3    H231601   6.851   1.494   1.317 -1.9167  0.1098 -0.7156
 3348TIP3   OH231602   1.508   0.013   7.653 -0.1697  0.3391  0.6034
 3348TIP3    H131603   1.590  -0.036   7.651  0.2422  1.0049  0.7769
 3348TIP3    H231604   1.492   0.036   7.561  0.0996  0.6167  0.6214
 3349TIP3   OH231605   6.011   2.252   1.271 -0.0010  0.2808 -0.3881
 3349TIP3    H131606   5.985   2.311   1.200  0.9227  1.0691 -0.0837
 3349TIP3    H231607   6.060   2.307   1.332  2.5477 -1.1435 -1.0278
 3350TIP3   OH231608   6.729   4.714   7.124 -0.3943  0.5462  0.2375
 3350TIP3    H131609   6.792   4.680   7.187  3.1742  1.9504 -2.2533
 3350TIP3    H231610   6.736   4.809   7.132 -2.3075  0.7558 -0.0861
 3351TIP3   OH231611   3.301   3.073   0.226  0.6036  0.1540 -0.4328
 3351TIP3    H131612   3.361   3.136   0.267  1.7291 -2.5054  2.3655
 3351TIP3    H231613   3.217   3.089   0.269  0.7971  0.0187  0.0053
 3352TIP3   OH231614   2.334   6.851   0.910  0.2563  0.2015  0.1708
 3352TIP3    H131615   2.269   6.920   0.895 -1.4548 -1.6705 -1.6922
 3352TIP3    H231616   2.412   6.880   0.861 -0.7882  0.3832 -1.4736
 3353TIP3   OH231617   2.985   0.360   7.498  0.6202 -0.0258  0.6521
 3353TIP3    H131618   3.045   0.433   7.483 -0.2442  1.2053  2.6633
 3353TIP3    H231619   2.914   0.373   7.435  0.7975  0.5025  0.5606
 3354TIP3   OH231620   1.646   2.463   0.197  0.2377 -0.8525 -0.0316
 3354TIP3    H131621   1.613   2.497   0.281 -1.3212  0.5116 -1.1223
 3354TIP3    H231622   1.578   2.403   0.167 -1.3362  1.7264 -2.1451
 3355TIP3   OH231623   3.670   1.591   0.266 -0.1513 -0.3439 -0.2059
 3355TIP3    H131624   3.717   1.557   0.342  0.1479 -2.3620 -1.2280
 3355TIP3    H231625   3.734   1.586   0.194 -0.8682  0.1716 -0.8932
 3356TIP3   OH231626   4.021   2.210   0.831 -0.1967  0.2669 -0.0787
 3356TIP3    H131627   4.086   2.148   0.799  1.9572  1.6175  1.4304
 3356TIP3    H231628   3.970   2.160   0.895  3.2570  0.4644  3.2210
 3357TIP3   OH231629   5.813   0.014   8.091  0.8859 -0.0884  0.4206
 3357TIP3    H131630   5.876   0.004   8.020 -0.1469  2.1036 -0.8958
 3357TIP3    H231631   5.777   0.101   8.080 -1.5133 -0.7925  1.8607
 3358TIP3   OH231632   6.082   6.717   1.341 -0.2461 -0.7035  0.2686
 3358TIP3    H131633   6.059   6.631   1.306 -2.5367 -0.6177  1.4486
 3358TIP3    H231634   6.046   6.779   1.277 -0.2065 -0.5979  0.3487
 3359TIP3   OH231635   4.322   1.091   7.947  0.2140 -0.2133 -0.1409
 3359TIP3    H131636   4.364   1.006   7.959 -0.0803 -0.6106 -1.6672
 3359TIP3    H231637   4.233   1.070   7.919 -0.0753  0.6009  0.1444
 3360TIP3   OH231638   0.533   2.574   7.934  0.0945  0.4589  0.2595
 3360TIP3    H131639   0.464   2.534   7.882  2.6450 -1.0798 -2.2350
 3360TIP3    H231640   0.572   2.500   7.982  0.3096  1.2129  1.2732
 3361TIP3   OH231641   4.747   3.761   1.093  0.0451 -0.2228  0.2806
 3361TIP3    H131642   4.772   3.832   1.034  1.0661 -0.7514  0.0411
 3361TIP3    H231643   4.817   3.758   1.159  0.5736 -1.6251 -0.2899
 3362TIP3   OH231644   5.301   2.437   0.272  0.8216 -0.1749 -0.0605
 3362TIP3    H131645   5.379   2.416   0.221  0.7910 -0.5331  0.0349
 3362TIP3    H231646   5.247   2.358   0.266  1.7429 -1.0908  2.2722
 3363TIP3   OH231647   6.448   2.350   1.235  0.0006 -0.7204 -0.3167
 3363TIP3    H131648   6.428   2.389   1.320  0.3275 -2.6858  0.7176
 3363TIP3    H231649   6.544   2.346   1.233 -0.0293 -2.1316 -0.0364
 3364TIP3   OH231650   2.694   2.483   1.078  0.5220 -0.3604 -0.2987
 3364TIP3    H131651   2.740   2.483   1.162  0.0308 -0.2458 -0.0248
 3364TIP3    H231652   2.760   2.512   1.015  0.0101  3.0779  0.5562
 3365TIP3   OH231653   5.293   1.123   1.608  0.8887  0.1264 -0.1201
 3365TIP3    H131654   5.355   1.093   1.541  1.4777 -0.0114  0.4713
 3365TIP3    H231655   5.348   1.167   1.673  0.0089  3.0823 -1.2316
 3366TIP3   OH231656   3.243   6.696   3.033  0.2413  0.1521 -0.0199
 3366TIP3    H131657   3.267   6.606   3.056 -0.2778 -0.4665 -1.7152
 3366TIP3    H231658   3.309   6.722   2.968 -0.0552  0.7290 -0.0959
 3367TIP3   OH231659   3.506   6.670   2.007 -0.5039 -0.2276  0.2258
 3367TIP3    H131660   3.551   6.647   2.088  0.3478 -1.4049 -0.5500
 3367TIP3    H231661   3.565   6.639   1.937 -1.9968 -0.8077 -0.8315
 3368TIP3   OH231662   3.234   1.430   1.662  0.2450  0.3853 -0.0790
 3368TIP3    H131663   3.328   1.412   1.667  0.5619  0.9088 -2.6950
 3368TIP3    H231664   3.192   1.345   1.678  1.2727 -0.4057 -1.4346
 3369TIP3   OH231665   6.333   6.398   7.153  0.1971  0.3698  0.3344
 3369TIP3    H131666   6.252   6.349   7.143  0.5729 -0.0799 -0.7025
 3369TIP3    H231667   6.375   6.360   7.230  0.3952 -0.8399 -0.3447
 3370TIP3   OH231668   6.556   5.120   1.336 -0.8980 -0.1584  0.0994
 3370TIP3    H131669   6.532   5.028   1.322  0.6864 -0.5386 -0.2948
 3370TIP3    H231670   6.552   5.131   1.431  2.1805 -1.6645  0.5464
 3371TIP3   OH231671   1.718   4.503   7.318  0.0275 -0.4483 -0.1144
 3371TIP3    H131672   1.645   4.447   7.290  1.0642 -1.6564 -0.4503
 3371TIP3    H231673   1.683   4.550   7.394 -1.3161 -0.4998 -0.6658
 3372TIP3   OH231674   0.212   0.120   8.446  0.0830  0.2369 -0.3187
 3372TIP3    H131675   0.136   0.149   8.396  1.4645  2.5133 -1.2488
 3372TIP3    H231676   0.188   0.033   8.478 -3.0308  0.9857 -0.2749
 3373TIP3   OH231677   4.327   1.729   6.871 -0.1916  0.2358 -0.0173
 3373TIP3    H131678   4.386   1.736   6.796  2.1227 -1.0729  1.5537
 3373TIP3    H231679   4.349   1.805   6.925 -1.2190  0.6946 -0.2318
 3374TIP3   OH231680   3.877   3.985   0.934  0.5075  0.3405 -0.0124
 3374TIP3    H131681   3.846   4.008   0.846 -1.6966  0.4227  0.7227
 3374TIP3    H231682   3.964   3.949   0.920 -0.9341 -2.6041 -2.6190
 3375TIP3   OH231683   0.404   0.486   0.490 -0.0313 -0.3893  0.2286
 3375TIP3    H131684   0.400   0.496   0.394  0.0607  1.1804  0.3596
 3375TIP3    H231685   0.479   0.428   0.505  1.3953  1.1435 -0.5865
 3376TIP3   OH231686   2.700   2.644   6.682  0.3854  0.1756 -0.0354
 3376TIP3    H131687   2.738   2.711   6.625  0.2078  1.0203  0.8240
 3376TIP3    H231688   2.746   2.654   6.765  0.3594 -0.7870  0.1103
 3377TIP3   OH231689   4.292   0.434   1.108 -0.2064  0.8520  0.3343
 3377TIP3    H131690   4.258   0.432   1.019 -0.9964 -0.5020  0.6421
 3377TIP3    H231691   4.387   0.442   1.098 -0.0789 -1.3103 -0.7096
 3378TIP3   OH231692   3.816   3.660   8.124  0.6163  0.1872 -0.4160
 3378TIP3    H131693   3.810   3.699   8.037  0.7093  0.0350 -0.4930
 3378TIP3    H231694   3.852   3.729   8.179  1.6360 -0.0529 -0.7403
 3379TIP3   OH231695   0.937   3.036   8.082  0.4805  0.0599  0.1670
 3379TIP3    H131696   0.987   3.083   8.148  0.9498 -0.2090  0.0119
 3379TIP3    H231697   0.940   3.093   8.005  1.2873 -0.3317 -0.1086
 3380TIP3   OH231698   5.626   3.620   8.102  0.3386  0.6010 -0.0328
 3380TIP3    H131699   5.682   3.542   8.108 -0.7498 -0.1199  2.0286
 3380TIP3    H231700   5.548   3.590   8.056 -0.5391  0.1208  1.6951
 3381TIP3   OH231701   1.847   3.572   0.603  0.2428 -0.0472 -1.0530
 3381TIP3    H131702   1.806   3.505   0.657 -0.8624 -0.5997 -2.4988
 3381TIP3    H231703   1.795   3.651   0.617  0.2953 -0.0372 -0.9108
 3382TIP3   OH231704   5.637   2.618   2.172 -0.0644 -0.6940 -0.7383
 3382TIP3    H131705   5.648   2.694   2.115  0.3257 -0.1860 -0.0011
 3382TIP3    H231706   5.708   2.558   2.147  1.8629  0.7049  1.0348
 3383TIP3   OH231707   0.241   4.116   2.339 -0.2629  0.3943 -0.6678
 3383TIP3    H131708   0.320   4.075   2.304  1.3608  2.6052  0.1583
 3383TIP3    H231709   0.269   4.205   2.363 -2.8758  1.0691  0.1954
 3384TIP3   OH231710   2.604   6.510   1.593  0.1827  0.0217 -0.7416
 3384TIP3    H131711   2.567   6.589   1.555 -2.0598 -0.3541  0.4843
 3384TIP3    H231712   2.534   6.474   1.648  1.0636 -2.8706 -1.3175
 3385TIP3   OH231713   5.257   5.422   0.629 -0.3652  0.3331 -0.3483
 3385TIP3    H131714   5.279   5.500   0.578 -0.0032 -0.9720 -2.2944
 3385TIP3    H231715   5.287   5.349   0.575  0.2474 -1.1494  1.8665
 3386TIP3   OH231716   5.558   0.442   0.840 -0.3206 -0.2697 -0.0204
 3386TIP3    H131717   5.473   0.420   0.879 -0.4720  0.3436  0.0071
 3386TIP3    H231718   5.622   0.404   0.900 -0.5343  1.1245  1.1407
 3387TIP3   OH231719   5.880   5.539   8.231  0.5241 -0.8956  0.2529
 3387TIP3    H131720   5.938   5.462   8.232  1.6040 -0.1004  0.7662
 3387TIP3    H231721   5.924   5.602   8.175 -0.7600 -0.9111 -0.8344
 3388TIP3   OH231722   2.445   5.029   1.510  0.5650  0.2880 -0.4448
 3388TIP3    H131723   2.498   5.016   1.588 -1.5004  0.7747  1.1309
 3388TIP3    H231724   2.356   5.038   1.543 -0.1884  2.1164 -2.7213
 3389TIP3   OH231725   5.348   1.618   7.281  0.0351 -0.0489 -0.3337
 3389TIP3    H131726   5.351   1.642   7.188 -0.9887  1.8673  0.0856
 3389TIP3    H231727   5.393   1.690   7.326  1.3218 -1.3935  0.6252
 3390TIP3   OH231728   0.689   0.261   7.335 -0.0396 -0.1061 -0.5511
 3390TIP3    H131729   0.626   0.269   7.407 -0.3956 -1.4096 -0.6939
 3390TIP3    H231730   0.660   0.326   7.270 -2.1406 -1.6446 -1.2451
 3391TIP3   OH231731   3.402   1.058   8.168  0.3394  0.1241 -0.0057
 3391TIP3    H131732   3.328   1.042   8.227  0.0453 -0.6252 -0.5768
 3391TIP3    H231733   3.374   1.134   8.116  1.0110  1.4607  1.4689
 3392TIP3   OH231734   3.932   4.403   7.803  0.4149 -0.1672  0.5933
 3392TIP3    H131735   4.011   4.452   7.779  0.6674 -0.3066  1.1304
 3392TIP3    H231736   3.885   4.392   7.721  0.6527  0.4565  0.3703
 3393TIP3   OH231737   2.148   4.622   0.113  0.2579  0.1747 -0.4706
 3393TIP3    H131738   2.102   4.599   0.032  0.7437  0.4732 -0.8404
 3393TIP3    H231739   2.206   4.694   0.087  0.3996  0.2847  0.1510
 3394TIP3   OH231740   6.932   1.218   7.205 -0.4465 -0.4807  0.1550
 3394TIP3    H131741   6.846   1.245   7.172 -0.0388  1.2306  0.4010
 3394TIP3    H231742   6.945   1.270   7.284  0.8522 -0.6290  0.0643
 3395TIP3   OH231743   2.566   1.176   0.120  0.1975 -0.2991 -0.0271
 3395TIP3    H131744   2.512   1.130   0.055  1.4014 -2.5559  0.4551
 3395TIP3    H231745   2.593   1.256   0.075 -1.4731 -0.3072 -1.1683
 3396TIP3   OH231746   0.220   3.417   7.280  0.2035  0.3186  0.2602
 3396TIP3    H131747   0.228   3.496   7.227  0.1776  0.0206 -0.1946
 3396TIP3    H231748   0.127   3.415   7.306  0.5591  1.3427  1.7167
 3397TIP3   OH231749   3.905   4.048   0.419  0.5725  0.0505 -0.0314
 3397TIP3    H131750   3.971   4.018   0.356  0.9638 -2.9948  1.6145
 3397TIP3    H231751   3.941   4.023   0.504 -1.9628 -0.2024  1.0297
 3398TIP3   OH231752   3.802   0.971   1.300 -0.4388 -0.2002 -0.3046
 3398TIP3    H131753   3.797   1.044   1.362 -1.1554 -0.3722 -0.1512
 3398TIP3    H231754   3.829   1.012   1.218 -0.8982  0.2488 -0.2346
 3399TIP3   OH231755   1.470   2.574   6.605  0.7579  0.0977  0.0633
 3399TIP3    H131756   1.471   2.521   6.525 -0.9776  0.8997 -0.5459
 3399TIP3    H231757   1.557   2.563   6.642  0.5148 -3.0804 -0.0567
 3400TIP3   OH231758   3.661   1.091   0.862  0.7498 -0.7670  0.5501
 3400TIP3    H131759   3.626   1.179   0.878 -1.9098 -1.9927  1.9184
 3400TIP3    H231760   3.749   1.094   0.902  0.8652  1.3257  0.2893
 3401TIP3   OH231761   6.472   4.142   6.860 -0.4331  0.4358  0.5833
 3401TIP3    H131762   6.407   4.112   6.796  0.1533  0.4171 -0.0054
 3401TIP3    H231763   6.451   4.092   6.939 -0.4164 -0.4350  0.0556
 3402TIP3   OH231764   2.403   1.691   0.229 -0.2544 -0.0583 -0.3785
 3402TIP3    H131765   2.317   1.709   0.190 -0.6664 -0.9358  0.1027
 3402TIP3    H231766   2.465   1.701   0.156 -0.7299  0.7954 -0.6789
 3403TIP3   OH231767   2.549   0.986   0.319 -0.7335 -0.0161 -0.5496
 3403TIP3    H131768   2.476   0.940   0.276 -2.8830  0.6704  2.0925
 3403TIP3    H231769   2.550   1.072   0.276 -0.5459 -0.4841 -1.5193
 3404TIP3   OH231770   3.528   0.695   0.469  0.1542  1.0350 -0.2812
 3404TIP3    H131771   3.495   0.728   0.553  1.2540  0.8931  0.2180
 3404TIP3    H231772   3.476   0.742   0.404 -2.0815 -0.2457  0.4476
 3405TIP3   OH231773   5.269   2.449   0.773 -0.3457  0.2071  0.0358
 3405TIP3    H131774   5.311   2.527   0.810 -1.8326  1.2145 -0.3113
 3405TIP3    H231775   5.290   2.453   0.680 -1.3680  0.8400 -0.1779
 3406TIP3   OH231776   0.081   0.653   7.427  0.1746  0.0490  0.1285
 3406TIP3    H131777   0.170   0.664   7.459 -0.3228  1.8434  1.0049
 3406TIP3    H231778   0.031   0.624   7.503 -0.1846  0.0075 -0.1196
 3407TIP3   OH231779   6.481   5.438   0.723  0.2676 -0.4567  0.3994
 3407TIP3    H131780   6.479   5.377   0.650 -0.1165  1.0658 -0.8960
 3407TIP3    H231781   6.573   5.440   0.750  0.3476 -1.3039  0.2249
 3408TIP3   OH231782   6.394   0.682   0.235 -0.1273 -0.3301  0.3024
 3408TIP3    H131783   6.360   0.635   0.158 -0.3635 -0.3345  0.4084
 3408TIP3    H231784   6.446   0.753   0.198  2.4469 -2.1777  0.0933
 3409TIP3   OH231785   1.604   5.270   7.136 -0.4066  0.0680 -0.4038
 3409TIP3    H131786   1.596   5.345   7.196  1.4284 -0.6060  0.7629
 3409TIP3    H231787   1.600   5.309   7.049 -0.5089  1.4079  0.1753
 3410TIP3   OH231788   0.128   0.117   7.318  0.0681 -0.4997  0.2515
 3410TIP3    H131789   0.152   0.206   7.293  0.1269 -0.2697  1.1108
 3410TIP3    H231790   0.208   0.080   7.355  0.7177 -1.7032 -2.1630
 3411TIP3   OH231791   5.462   4.638   1.566 -0.4629 -0.1934  0.5148
 3411TIP3    H131792   5.379   4.685   1.572 -0.6006 -0.4946  1.0418
 3411TIP3    H231793   5.444   4.553   1.606 -0.2509 -0.7403 -0.5269
 3412TIP3   OH231794   2.579   4.422   1.434  0.7588  0.0301  0.6790
 3412TIP3    H131795   2.673   4.408   1.427  1.0081  1.3957  1.1121
 3412TIP3    H231796   2.569   4.488   1.502 -0.4227  0.9189 -0.3157
 3413TIP3   OH231797   4.738   1.875   6.955 -0.0354 -0.1552 -0.1028
 3413TIP3    H131798   4.799   1.925   6.900  1.0228 -0.9793  0.2848
 3413TIP3    H231799   4.656   1.923   6.949  0.2816  0.2508 -1.7275
 3414TIP3   OH231800   1.613   5.325   8.271  0.5448  0.0914 -0.2814
 3414TIP3    H131801   1.537   5.348   8.218  1.0559  0.3914 -0.8881
 3414TIP3    H231802   1.618   5.229   8.266 -0.8877 -0.1338  1.2942
 3415TIP3   OH231803   6.389   4.030   8.515 -0.1836  0.2084 -0.3209
 3415TIP3    H131804   6.318   3.966   8.508 -1.2804  1.5553 -2.8712
 3415TIP3    H231805   6.349   4.106   8.556  0.1016  0.5616 -0.6876
 3416TIP3   OH231806   6.556   5.051   8.510  0.2429 -0.0699  0.0635
 3416TIP3    H131807   6.466   5.017   8.511  0.0297  0.4299  2.3879
 3416TIP3    H231808   6.608   4.977   8.478 -0.8900 -0.5761 -0.7214
 3417TIP3   OH231809   3.078   1.588   2.647  0.3519  0.1820 -0.3359
 3417TIP3    H131810   3.011   1.622   2.706  1.3005  1.1432  0.2372
 3417TIP3    H231811   3.146   1.553   2.705  0.4166 -0.6526 -0.9012
 3418TIP3   OH231812   2.182   4.029   1.688 -0.5152 -0.0865  0.8962
 3418TIP3    H131813   2.139   4.012   1.772 -2.1143 -1.0028 -0.0555
 3418TIP3    H231814   2.150   4.115   1.662  0.8114  0.6831  1.6706
 3419TIP3   OH231815   1.615   2.083   0.122  0.1944  0.1877  0.3594
 3419TIP3    H131816   1.578   2.166   0.091  0.0999  0.6417  1.5941
 3419TIP3    H231817   1.708   2.089   0.102 -0.0890 -0.1715 -1.1274
 3420TIP3   OH231818   4.225   5.293   7.734  0.6622 -0.3786  0.0067
 3420TIP3    H131819   4.145   5.243   7.751  0.5590  0.2586  1.5976
 3420TIP3    H231820   4.242   5.281   7.641 -0.5704 -1.5718 -0.0903
 3421TIP3   OH231821   0.663   6.923   1.185  0.1629  0.4947  0.0987
 3421TIP3    H131822   0.685   6.956   1.272  1.8336  0.5425 -0.3226
 3421TIP3    H231823   0.604   6.990   1.149  0.5262  1.1404  0.6831
 3422TIP3   OH231824   4.690   5.626   0.954 -0.4604  0.4563 -0.0898
 3422TIP3    H131825   4.644   5.545   0.974 -0.0262  0.2676  0.1706
 3422TIP3    H231826   4.750   5.603   0.883 -1.0306  0.7945 -0.6951
 3423TIP3   OH231827   6.661   2.837   0.459 -0.0609  0.5010  0.2912
 3423TIP3    H131828   6.709   2.905   0.412  1.1783 -0.2251  0.4713
 3423TIP3    H231829   6.717   2.760   0.454 -0.6669 -0.0481  1.5391
 3424TIP3   OH231830   1.207   1.908   1.969 -0.4516  0.6452  0.2060
 3424TIP3    H131831   1.214   1.995   2.007 -0.5858  0.1970  1.2853
 3424TIP3    H231832   1.132   1.868   2.013 -1.8855  0.8091 -1.9654
 3425TIP3   OH231833   1.566   5.372   6.896  0.1433 -0.1663  0.2783
 3425TIP3    H131834   1.495   5.346   6.836  1.4252 -0.1299 -1.3119
 3425TIP3    H231835   1.610   5.444   6.851  0.0117  1.1534  2.1507
 3426TIP3   OH231836   0.656   3.471   7.385 -0.0730  0.4988 -0.2683
 3426TIP3    H131837   0.728   3.518   7.343 -0.3840  1.4534  0.2412
 3426TIP3    H231838   0.581   3.529   7.375 -0.0559  1.0202  2.0146
 3427TIP3   OH231839   6.221   3.443   2.155 -0.1034  0.5511  0.4319
 3427TIP3    H131840   6.172   3.360   2.159 -1.8862  1.5857  2.0754
 3427TIP3    H231841   6.293   3.431   2.217  0.2407 -0.0702 -0.0652
 3428TIP3   OH231842   2.050   0.143   8.468 -0.4606  0.0747  0.1050
 3428TIP3    H131843   2.138   0.133   8.502 -0.7367  0.3787  0.9396
 3428TIP3    H231844   2.049   0.090   8.388  0.4466  0.0113  0.1261
 3429TIP3   OH231845   0.842   5.087   2.516  0.3093 -0.7712 -0.0423
 3429TIP3    H131846   0.889   5.034   2.580  1.2852  0.8563  0.6836
 3429TIP3    H231847   0.898   5.164   2.503 -2.1431  1.3449  0.9273
 3430TIP3   OH231848   0.037   6.144   1.890 -0.5007  0.5730 -0.0071
 3430TIP3    H131849   0.105   6.157   1.956  0.5204 -0.0770 -0.8960
 3430TIP3    H231850  -0.045   6.145   1.939  0.2028  0.5635  1.2006
 3431TIP3   OH231851   5.695   0.233   1.156 -0.3352 -0.2575  0.3024
 3431TIP3    H131852   5.600   0.240   1.146 -0.3759 -0.1902  0.6985
 3431TIP3    H231853   5.707   0.206   1.247 -0.0179 -1.4596 -0.0841
 3432TIP3   OH231854   3.947   3.281   0.449  0.1471 -1.0463 -0.1444
 3432TIP3    H131855   4.002   3.227   0.392  2.0331 -0.6578  1.2372
 3432TIP3    H231856   4.001   3.297   0.526 -1.0193  1.3908  0.2362
 3433TIP3   OH231857   1.145   3.252   7.434 -0.0740  0.1343  0.0696
 3433TIP3    H131858   1.110   3.242   7.522 -0.7278 -1.8312 -0.3507
 3433TIP3    H231859   1.161   3.162   7.404  1.3356  0.8014 -1.3549
 3434TIP3   OH231860   4.615   1.751   8.043  0.1954  0.2049  0.1285
 3434TIP3    H131861   4.541   1.766   7.985 -0.3801 -1.1594  0.4659
 3434TIP3    H231862   4.667   1.683   8.000 -0.5736 -1.2934  1.4395
 3435TIP3   OH231863   4.326   3.975   0.396  0.0066 -0.2869 -0.0319
 3435TIP3    H131864   4.324   4.062   0.435  0.2686 -0.5247  0.5104
 3435TIP3    H231865   4.300   3.916   0.466 -1.0684 -0.5682 -0.6382
 3436TIP3   OH231866   1.991   6.062   7.456 -0.6424  0.5842 -0.5271
 3436TIP3    H131867   1.907   6.086   7.496  0.0546 -2.0733  3.0958
 3436TIP3    H231868   2.056   6.112   7.505  0.0630  1.5320 -2.3359
 3437TIP3   OH231869   3.213   3.961   8.351  0.1088 -0.6581 -0.5323
 3437TIP3    H131870   3.125   3.976   8.317  0.2787 -0.8693 -1.0748
 3437TIP3    H231871   3.271   3.980   8.277  0.5210 -0.4991 -0.1721
 3438TIP3   OH231872   6.838   2.173   7.285 -0.3405  0.2119  0.2665
 3438TIP3    H131873   6.923   2.210   7.307  0.6537 -1.1099 -1.1157
 3438TIP3    H231874   6.796   2.155   7.369  1.0353  0.2707  0.9812
 3439TIP3   OH231875   1.171   2.382   1.986  0.0769 -0.0330  0.4587
 3439TIP3    H131876   1.183   2.344   1.899 -0.4254 -1.3904  0.9523
 3439TIP3    H231877   1.151   2.474   1.970 -1.1681 -0.5088 -0.9196
 3440TIP3   OH231878   6.437   5.792   1.141 -0.7380 -0.3409  0.7198
 3440TIP3    H131879   6.421   5.726   1.074  0.7212 -1.2994  1.2554
 3440TIP3    H231880   6.502   5.851   1.102  2.3398 -2.5137  2.1411
 3441TIP3   OH231881   5.074   5.353   7.873 -0.1669 -0.3129  0.3266
 3441TIP3    H131882   5.134   5.411   7.825  0.9190 -2.1719 -0.6492
 3441TIP3    H231883   4.999   5.343   7.815  1.5675 -3.3664 -1.6758
 3442TIP3   OH231884   1.711   3.529   8.445  0.1270 -0.0918  0.4881
 3442TIP3    H131885   1.799   3.531   8.407  0.1728 -1.2515  0.4810
 3442TIP3    H231886   1.654   3.563   8.376  0.7032  2.0280  0.9851
 3443TIP3   OH231887   0.952   1.705   2.267  0.8322  0.1109 -0.4783
 3443TIP3    H131888   1.000   1.678   2.189  1.3194 -0.1736 -0.0821
 3443TIP3    H231889   0.884   1.764   2.234  2.4058  1.7754 -0.9108
 3444TIP3   OH231890   2.276   2.194   1.466 -1.1180 -0.0707  0.4196
 3444TIP3    H131891   2.229   2.203   1.383  2.5997  0.9970 -1.7955
 3444TIP3    H231892   2.268   2.280   1.507  0.1118  0.6145 -0.7084
 3445TIP3   OH231893   3.314   5.009   7.700  0.5215  0.1617  0.0551
 3445TIP3    H131894   3.309   5.012   7.604 -2.1519 -0.8836  0.0838
 3445TIP3    H231895   3.308   5.100   7.727  0.3977  0.4020 -0.7480
 3446TIP3   OH231896   1.538   3.085   8.520  0.0419 -0.3470 -0.3669
 3446TIP3    H131897   1.490   3.010   8.485 -0.0220 -1.1786  1.3594
 3446TIP3    H231898   1.595   3.113   8.449  0.2103 -2.1796 -1.0084
 3447TIP3   OH231899   6.348   1.753   0.705 -0.0553 -0.0260  0.0208
 3447TIP3    H131900   6.407   1.696   0.754 -0.4304 -0.1672  0.3087
 3447TIP3    H231901   6.281   1.779   0.768  1.0685  2.1821  0.3975
 3448TIP3   OH231902   4.319   4.639   0.731 -0.3437  0.2711  0.3913
 3448TIP3    H131903   4.412   4.642   0.757 -0.7383  0.2049  1.8953
 3448TIP3    H231904   4.310   4.709   0.666  0.3718  1.5520  1.6174
 3449TIP3   OH231905   0.134   5.873   6.359  0.3025 -0.4605 -0.6179
 3449TIP3    H131906   0.176   5.959   6.369 -0.3923 -0.2288  0.4423
 3449TIP3    H231907   0.205   5.814   6.333  1.5154 -0.2717  2.0367
 3450TIP3   OH231908   2.784   2.077   1.153  0.3369 -0.0667 -0.5785
 3450TIP3    H131909   2.691   2.082   1.131  0.4472 -2.3669 -1.8787
 3450TIP3    H231910   2.826   2.140   1.093 -0.2918  0.5451 -0.3949
 3451TIP3   OH231911   6.671   6.463   2.287 -0.7501 -0.2065  0.2099
 3451TIP3    H131912   6.652   6.382   2.334  0.2950 -1.0014 -0.6829
 3451TIP3    H231913   6.651   6.533   2.350  2.7313 -1.2365  2.7768
 3452TIP3   OH231914   6.671   2.888   0.954  0.3413  0.4228  0.4895
 3452TIP3    H131915   6.736   2.925   1.014 -0.3593  0.7776  1.0489
 3452TIP3    H231916   6.596   2.947   0.962  0.1117  0.2763 -0.4852
 3453TIP3   OH231917   1.975   4.968   1.157  0.2323 -0.2461  0.5666
 3453TIP3    H131918   1.927   4.886   1.168 -1.0062  0.3094 -0.3416
 3453TIP3    H231919   1.989   4.975   1.062 -0.5606  1.0342  0.5127
 3454TIP3   OH231920   3.027   5.969   1.377 -0.1037  0.4728  0.1653
 3454TIP3    H131921   3.072   6.042   1.334  0.9760 -0.1528  0.2004
 3454TIP3    H231922   3.043   5.894   1.319 -1.3309  0.2814  0.0496
 3455TIP3   OH231923   3.379   6.466   1.074 -0.5317 -0.0051  0.2392
 3455TIP3    H131924   3.440   6.422   1.133 -1.4114 -1.6542 -0.0241
 3455TIP3    H231925   3.401   6.559   1.082  0.9093 -0.4037  1.3762
 3456TIP3   OH231926   4.273   2.244   8.493 -0.3075 -0.2446  0.3800
 3456TIP3    H131927   4.358   2.247   8.538 -0.0330 -0.4049 -0.1146
 3456TIP3    H231928   4.210   2.222   8.562 -0.1055  0.8992  0.9531
 3457TIP3   OH231929   6.274   5.259   2.337  0.0577  0.2300 -0.5178
 3457TIP3    H131930   6.313   5.304   2.411  1.5168 -0.8554 -0.5847
 3457TIP3    H231931   6.241   5.177   2.374 -0.7797  0.4436 -0.7652
 3458TIP3   OH231932   2.930   0.083   1.377  0.0122 -0.6605 -0.8661
 3458TIP3    H131933   2.863   0.147   1.353  1.4628  1.6423  0.8100
 3458TIP3    H231934   3.012   0.121   1.346  0.9721 -1.5446  0.4681
 3459TIP3   OH231935   1.359   2.218   7.786 -0.1973  0.1887  0.5252
 3459TIP3    H131936   1.352   2.312   7.770  1.0405  0.2278  0.1122
 3459TIP3    H231937   1.384   2.181   7.701  1.3527 -0.2449  1.1491
 3460TIP3   OH231938   6.645   3.467   1.451  0.4543 -0.3533 -0.4651
 3460TIP3    H131939   6.710   3.525   1.490  0.2984  0.8734 -1.9488
 3460TIP3    H231940   6.645   3.390   1.508  1.9750  0.3267  0.5282
 3461TIP3   OH231941   4.407   3.973   1.538  0.2305 -0.1405  0.1382
 3461TIP3    H131942   4.469   4.039   1.570  0.3785 -0.1697 -0.0872
 3461TIP3    H231943   4.409   3.905   1.605  1.6436 -0.8876 -0.6235
 3462TIP3   OH231944   1.555   6.283   7.710  0.4818  0.2030  0.0291
 3462TIP3    H131945   1.635   6.251   7.668  1.4403  1.4166  0.8615
 3462TIP3    H231946   1.570   6.273   7.803 -0.0266  1.1239  0.2327
 3463TIP3   OH231947   3.917   5.018   1.199  0.0274  0.0015 -0.3961
 3463TIP3    H131948   3.886   4.927   1.198  1.8548 -0.6529 -0.7557
 3463TIP3    H231949   3.888   5.052   1.284 -2.0410 -0.3777 -0.8839
 3464TIP3   OH231950   3.686   5.461   0.509 -0.3855 -0.3453 -0.6247
 3464TIP3    H131951   3.726   5.420   0.586 -2.5574 -1.2989  0.0618
 3464TIP3    H231952   3.682   5.554   0.531 -0.7756 -0.5781  0.3365
 3465TIP3   OH231953   0.551   1.600   2.347 -0.0019  0.4636  0.6961
 3465TIP3    H131954   0.461   1.568   2.346 -0.0334  0.4226 -1.8913
 3465TIP3    H231955   0.603   1.526   2.378 -0.6935 -0.0082  0.7414
 3466TIP3   OH231956   4.132   4.569   1.420 -0.3491 -0.3072 -0.1145
 3466TIP3    H131957   4.223   4.592   1.399 -0.7056  0.7111 -0.6096
 3466TIP3    H231958   4.094   4.543   1.336 -0.9150  0.7007 -0.1780
 3467TIP3   OH231959   1.111   2.933   6.974 -0.0231  0.0454  0.2444
 3467TIP3    H131960   1.074   2.878   6.904 -2.1759 -0.6421  1.8191
 3467TIP3    H231961   1.101   3.022   6.942 -0.2174 -0.2932 -0.6687
 3468TIP3   OH231962   4.589   5.763   7.030  0.0627 -0.1798  0.3085
 3468TIP3    H131963   4.617   5.672   7.042 -0.4035 -0.3895 -0.1282
 3468TIP3    H231964   4.666   5.815   7.048  1.1071 -0.7848 -1.9643
 3469TIP3   OH231965   4.674   5.405   1.685  0.2193  0.4984  0.4646
 3469TIP3    H131966   4.746   5.358   1.642  0.2451 -0.4596  1.4938
 3469TIP3    H231967   4.607   5.338   1.698 -1.8017  1.7876 -2.3495
 3470TIP3   OH231968   3.987   4.449   8.486 -0.1462 -0.4600 -0.3271
 3470TIP3    H131969   4.079   4.422   8.488  0.3852  1.1582 -1.0373
 3470TIP3    H231970   3.946   4.401   8.558  1.1066 -1.6709 -0.3690
 3471TIP3   OH231971   5.742   0.835   1.096  0.4211  0.4383  0.2817
 3471TIP3    H131972   5.767   0.758   1.044  0.9198  0.9152 -0.1970
 3471TIP3    H231973   5.692   0.890   1.035  0.0974  0.5146  0.6119
 3472TIP3   OH231974   0.466   1.155   7.896 -0.5022  0.0365  0.1157
 3472TIP3    H131975   0.553   1.176   7.931 -0.6821 -1.5696  1.6334
 3472TIP3    H231976   0.405   1.201   7.955 -0.7311  1.5683 -1.2342
 3473TIP3   OH231977   1.916   3.838   7.948  0.1163  0.1238 -0.0771
 3473TIP3    H131978   1.879   3.785   7.877 -2.7859  1.1914  0.4935
 3473TIP3    H231979   1.938   3.922   7.907 -1.2493  0.6247  0.1697
 3474TIP3   OH231980   4.323   4.466   8.257 -0.3296  0.1765  0.0300
 3474TIP3    H131981   4.276   4.383   8.256 -0.4609  0.2503 -1.0050
 3474TIP3    H231982   4.412   4.444   8.230 -0.3818  0.3746 -0.3181
 3475TIP3   OH231983   2.890   1.828   1.168 -0.3819  0.2913  0.3175
 3475TIP3    H131984   2.904   1.796   1.257 -0.9992  0.6551  0.5493
 3475TIP3    H231985   2.873   1.922   1.179 -1.2519  0.1915 -0.0993
 3476TIP3   OH231986   2.176   2.791   7.340  0.0247 -0.2649 -0.2797
 3476TIP3    H131987   2.131   2.708   7.321 -4.8035  1.6888  1.0132
 3476TIP3    H231988   2.203   2.783   7.431  3.4392 -1.7487 -1.2806
 3477TIP3   OH231989   5.499   5.897   8.430  0.3116  0.3343  0.0602
 3477TIP3    H131990   5.520   5.907   8.523 -0.5136  1.0902  0.1742
 3477TIP3    H231991   5.554   5.962   8.386 -0.6263  1.2453  0.2079
 3478TIP3   OH231992   4.579   5.408   7.366  0.0145 -0.0559 -0.4746
 3478TIP3    H131993   4.541   5.422   7.280 -0.1012 -0.4854 -0.4931
 3478TIP3    H231994   4.611   5.495   7.392 -0.0727  0.1022 -0.8862
 3479TIP3   OH231995   5.221   3.427   1.732 -0.0181 -0.2286 -0.3105
 3479TIP3    H131996   5.244   3.500   1.674 -0.4539  0.7112  0.6578
 3479TIP3    H231997   5.298   3.370   1.731  0.8932  0.9651  0.0100
 3480TIP3   OH231998   3.061   3.233   7.639  0.0974 -0.4149 -0.3649
 3480TIP3    H131999   3.077   3.326   7.624 -0.0646 -0.7533 -3.1318
 3480TIP3    H232000   3.040   3.227   7.733 -0.8487  2.4415 -0.2946
 3481TIP3   OH232001   5.974   1.898   7.495  0.6753 -0.3013  0.2031
 3481TIP3    H132002   6.013   1.884   7.409 -0.5855 -2.3990 -0.1122
 3481TIP3    H232003   6.033   1.959   7.539  0.6646  1.9158 -2.5661
 3482TIP3   OH232004   2.130   1.162   1.633 -0.2890 -0.4638  0.0602
 3482TIP3    H132005   2.133   1.126   1.721  2.2307  0.6692  0.5282
 3482TIP3    H232006   2.074   1.239   1.640  1.0595  0.4681  1.0772
 3483TIP3   OH232007   1.718   5.906   1.030 -0.1339 -0.0729 -0.0760
 3483TIP3    H132008   1.780   5.954   1.084  1.5726  1.8150 -3.4064
 3483TIP3    H232009   1.634   5.949   1.047  0.1962 -0.0154  1.5553
 3484TIP3   OH232010   2.402   3.234   1.579 -0.8243 -0.3533  0.0988
 3484TIP3    H132011   2.399   3.248   1.673 -0.0814 -0.7056  0.1786
 3484TIP3    H232012   2.339   3.297   1.543 -1.4596 -0.5406  0.8584
 3485TIP3   OH232013   5.036   4.833   6.626 -0.0398  0.2169  0.0933
 3485TIP3    H132014   5.066   4.895   6.692 -1.2313  0.7776  0.1215
 3485TIP3    H232015   4.969   4.781   6.670 -0.1195 -0.0931 -0.3793
 3486TIP3   OH232016   1.516   5.298   1.798 -0.2820  0.1172 -0.2953
 3486TIP3    H132017   1.612   5.292   1.791  0.0447  2.7252  0.8415
 3486TIP3    H232018   1.496   5.260   1.884 -0.4535 -1.4043 -0.9668
 3487TIP3   OH232019   4.293   5.568   7.463 -0.4837 -0.2044  0.2233
 3487TIP3    H132020   4.271   5.597   7.551  2.0629 -0.6936  1.1116
 3487TIP3    H232021   4.329   5.480   7.475  0.3040 -0.1160 -1.2326
 3488TIP3   OH232022   1.606   4.560   2.181  0.5430  0.8958  0.2341
 3488TIP3    H132023   1.572   4.591   2.097 -0.5402  0.5418  0.5309
 3488TIP3    H232024   1.547   4.597   2.246  1.2035  0.9248  0.8312
 3489TIP3   OH232025   1.470   0.853   1.034 -0.0965 -0.2823 -0.6596
 3489TIP3    H132026   1.399   0.865   1.097 -0.9160 -0.1394 -1.5873
 3489TIP3    H232027   1.519   0.936   1.036  0.9185 -0.8758  0.9973
 3490TIP3   OH232028   6.494   0.160   0.745 -0.4084 -0.0062  0.6095
 3490TIP3    H132029   6.472   0.110   0.824  0.6691  0.1449  1.0206
 3490TIP3    H232030   6.477   0.099   0.673 -2.1979  0.1237  0.8796
 3491TIP3   OH232031   4.637   2.129   1.431  0.3809 -0.1947  0.4406
 3491TIP3    H132032   4.635   2.149   1.525  0.8103  1.2338  0.1679
 3491TIP3    H232033   4.557   2.078   1.416 -0.5958  1.0004  1.2992
 3492TIP3   OH232034   5.653   3.492   8.392 -0.1870 -0.1486  0.0996
 3492TIP3    H132035   5.677   3.463   8.304  0.9164  0.5608  0.1476
 3492TIP3    H232036   5.712   3.565   8.410 -1.0747  0.3516  1.0427
 3493TIP3   OH232037   1.805   2.168   8.234  0.0700  0.4444  0.0219
 3493TIP3    H132038   1.895   2.199   8.242  0.7737 -1.3362 -0.6471
 3493TIP3    H232039   1.756   2.245   8.203  1.0966  1.7571  1.4749
 3494TIP3   OH232040   5.023   0.421   2.459  0.3613 -0.0636 -0.6518
 3494TIP3    H132041   5.020   0.443   2.552  2.1722 -1.3268 -0.2400
 3494TIP3    H232042   5.105   0.460   2.428 -0.0633  0.0681 -1.6649
 3495TIP3   OH232043   3.280   0.709   2.062 -0.0465  0.3624 -0.4028
 3495TIP3    H132044   3.282   0.613   2.063 -0.4507  0.3015 -2.2244
 3495TIP3    H232045   3.329   0.733   1.983 -0.1568  1.6516 -0.0963
 3496TIP3   OH232046   4.669   0.187   0.255  0.5274  0.1354  0.0115
 3496TIP3    H132047   4.582   0.221   0.275  0.3632  1.1614 -2.1843
 3496TIP3    H232048   4.685   0.213   0.164  1.4913 -3.4839 -1.0188
 3497TIP3   OH232049   4.337   6.357   1.278 -0.5275 -0.0928  0.0853
 3497TIP3    H132050   4.262   6.377   1.222  0.5695 -0.7068 -1.6824
 3497TIP3    H232051   4.346   6.435   1.333 -1.7408  0.4770 -0.4716
 3498TIP3   OH232052   6.742   2.372   1.158  0.4423  0.4212  0.6514
 3498TIP3    H132053   6.764   2.313   1.230  2.0620  1.1718  0.8055
 3498TIP3    H232054   6.716   2.454   1.200  2.1430  1.1141  0.4017
 3499TIP3   OH232055   3.701   0.021   8.153 -0.2216  0.1216  0.8830
 3499TIP3    H132056   3.776   0.068   8.117  0.4732 -1.0393  0.7385
 3499TIP3    H232057   3.722  -0.072   8.139 -1.6550 -0.2363  0.8977
 3500TIP3   OH232058   3.228   1.103   0.411  0.3912 -0.0910 -0.1367
 3500TIP3    H132059   3.253   1.101   0.319 -0.4035 -0.3736 -0.3599
 3500TIP3    H232060   3.142   1.061   0.413  1.1413 -1.6438  0.9771
 3501TIP3   OH232061   0.341   4.391   0.927  0.2506 -0.2032 -0.2169
 3501TIP3    H132062   0.344   4.369   0.834  0.4487  2.6117 -0.9604
 3501TIP3    H232063   0.431   4.416   0.948  0.1308 -0.4852  0.6525
 3502TIP3   OH232064   5.141   4.715   2.106  0.2582 -0.5392 -0.3914
 3502TIP3    H132065   5.195   4.662   2.048  0.8421 -1.5571  1.0255
 3502TIP3    H232066   5.203   4.759   2.164 -0.3001  0.6340 -0.6467
 3503TIP3   OH232067   3.827   2.487   2.121  0.0659 -0.2533  0.3405
 3503TIP3    H132068   3.753   2.507   2.178  1.0458  1.3053  1.1113
 3503TIP3    H232069   3.829   2.559   2.058  1.5635  0.3284  1.0047
 3504TIP3   OH232070   2.426   5.454   6.892  0.2342  0.1515 -0.1490
 3504TIP3    H132071   2.372   5.504   6.954  1.1509 -0.5350  1.2537
 3504TIP3    H232072   2.504   5.508   6.879  1.5825 -1.1146  1.9592
 3505TIP3   OH232073   3.076   0.855   0.267  0.0516  0.8154  0.0432
 3505TIP3    H132074   2.984   0.828   0.278  0.2027  0.6247  0.9375
 3505TIP3    H232075   3.119   0.826   0.348  1.2302 -0.4325 -0.9844
 3506TIP3   OH232076   4.783   2.568   7.641  0.6442 -0.5292 -0.3840
 3506TIP3    H132077   4.694   2.546   7.669  1.2869 -1.8094  0.7474
 3506TIP3    H232078   4.821   2.615   7.715  0.9039  0.0557 -0.8800
 3507TIP3   OH232079   6.633   2.296   8.045  0.2545  0.0648 -0.1686
 3507TIP3    H132080   6.688   2.328   8.116 -2.1656 -0.5937  2.1709
 3507TIP3    H232081   6.658   2.204   8.034  0.5898  0.1505 -0.1269
 3508TIP3   OH232082   2.329   1.738   1.821  0.0782 -0.4477  0.2432
 3508TIP3    H132083   2.271   1.806   1.785  1.0668 -0.1955 -0.9831
 3508TIP3    H232084   2.414   1.782   1.828  0.9002 -1.7004 -1.2232
 3509TIP3   OH232085   0.244   1.950   8.444 -0.0505 -0.0934 -0.5516
 3509TIP3    H132086   0.294   1.870   8.434  0.5842  0.1628  0.4737
 3509TIP3    H232087   0.276   2.008   8.375 -0.5964 -0.7446 -1.3718
 3510TIP3   OH232088   6.512   2.308   8.476  0.0310 -0.3624 -0.3969
 3510TIP3    H132089   6.481   2.381   8.423 -2.1701 -1.8841 -1.3416
 3510TIP3    H232090   6.570   2.259   8.417  1.7788  0.6971  0.3402
 3511TIP3   OH232091   2.914   1.705   8.237 -0.4727  0.2458  0.2368
 3511TIP3    H132092   2.889   1.688   8.146  0.4799 -0.3154  0.0617
 3511TIP3    H232093   2.942   1.619   8.270 -0.5542  0.4971  0.9775
 3512TIP3   OH232094   0.101   0.725   0.184  0.0357  0.0479 -0.4188
 3512TIP3    H132095   0.112   0.760   0.096  0.5929 -1.4867 -0.9915
 3512TIP3    H232096   0.094   0.631   0.172 -0.4948 -0.1436  1.1389
 3513TIP3   OH232097   4.406   6.545   2.528  0.9516 -0.4083  0.3060
 3513TIP3    H132098   4.494   6.581   2.517  1.0652 -0.6743  0.3493
 3513TIP3    H232099   4.348   6.613   2.493  1.0956  0.3089  1.3808
 3514TIP3   OH232100   1.584   4.867   7.487 -0.4798  0.7909 -0.0938
 3514TIP3    H132101   1.548   4.779   7.485  0.3290  0.4418  0.2603
 3514TIP3    H232102   1.508   4.924   7.474 -1.0194  0.0532 -0.2564
 3515TIP3   OH232103   4.844   4.553   7.646  0.1710  0.1025 -0.3733
 3515TIP3    H132104   4.768   4.529   7.700 -0.2695 -3.5028 -2.3382
 3515TIP3    H232105   4.917   4.558   7.708 -0.7335 -1.5933  0.9105
 3516TIP3   OH232106   3.909   1.395   1.073 -0.5348  0.1024 -0.0179
 3516TIP3    H132107   3.823   1.436   1.068  0.2233  1.9944  1.2521
 3516TIP3    H232108   3.924   1.384   1.167  0.8814  0.4694 -0.1830
 3517TIP3   OH232109   0.321   1.747   6.998 -0.6160  0.2233 -0.6910
 3517TIP3    H132110   0.342   1.741   6.904  2.0805  0.5963 -0.2062
 3517TIP3    H232111   0.302   1.656   7.023  0.1098 -0.1192 -1.3209
 3518TIP3   OH232112   1.240   3.254   0.497 -0.5338 -0.0803  0.8652
 3518TIP3    H132113   1.252   3.160   0.491 -0.9779 -0.0456 -1.3255
 3518TIP3    H232114   1.273   3.288   0.414  0.8808  1.8699  2.1200
 3519TIP3   OH232115   6.309   4.874   7.678  0.1452  0.3147  0.7612
 3519TIP3    H132116   6.368   4.823   7.733  0.0713 -0.7842 -0.1529
 3519TIP3    H232117   6.229   4.881   7.730  0.8119  1.2061  1.7050
 3520TIP3   OH232118   2.902   6.545   6.596 -0.3414 -0.0701 -0.0344
 3520TIP3    H132119   2.865   6.502   6.519  0.3230 -0.9323  0.1046
 3520TIP3    H232120   2.995   6.553   6.575 -0.5415  1.9331 -0.3262
 3521TIP3   OH232121   1.142   2.946   7.369  0.3876 -0.2953  0.0977
 3521TIP3    H132122   1.116   2.856   7.391  0.1344 -0.6406 -1.5110
 3521TIP3    H232123   1.081   2.973   7.301  0.4444  1.1255  0.5864
 3522TIP3   OH232124   4.650   2.849   7.716 -0.0527 -0.6892 -0.3537
 3522TIP3    H132125   4.567   2.805   7.699 -0.5969 -0.0050  0.4294
 3522TIP3    H232126   4.661   2.909   7.643 -2.9770  3.1281  1.9230
 3523TIP3   OH232127   2.547   2.685   1.192 -0.6325  0.0456 -0.3359
 3523TIP3    H132128   2.585   2.616   1.137  2.8640  0.8834  0.7541
 3523TIP3    H232129   2.476   2.722   1.139  0.6060 -1.1344 -3.0066
 3524TIP3   OH232130   5.937   6.365   0.995 -0.6445  0.5795 -0.2025
 3524TIP3    H132131   5.964   6.413   1.074  0.4167 -0.1480 -0.0878
 3524TIP3    H232132   5.917   6.277   1.027  0.6599  0.0189 -0.8376
 3525TIP3   OH232133   4.950   0.016   7.251 -0.4037  0.2562  0.4651
 3525TIP3    H132134   4.962  -0.078   7.266  1.5612  0.7723  2.7180
 3525TIP3    H232135   4.870   0.038   7.298 -0.7599 -0.2614  0.1036
 3526TIP3   OH232136   6.221   4.720   7.946  0.1848 -0.1853 -0.1892
 3526TIP3    H132137   6.266   4.679   7.872 -0.9468 -0.4516 -0.7553
 3526TIP3    H232138   6.128   4.699   7.932  0.0002 -0.6394  1.5700
 3527TIP3   OH232139   3.583   6.698   0.233  0.3507  0.1274 -0.2369
 3527TIP3    H132140   3.629   6.782   0.235  1.5223 -0.4635  2.5680
 3527TIP3    H232141   3.493   6.719   0.258  0.3045  0.7127 -0.8912
 3528TIP3   OH232142   1.835   0.250   1.784  0.1840 -0.1997 -0.5220
 3528TIP3    H132143   1.826   0.305   1.862 -1.2511 -1.3060  0.1543
 3528TIP3    H232144   1.929   0.246   1.767  0.7147 -1.3591  2.2242
 3529TIP3   OH232145   3.748   5.399   7.030 -0.2151  0.0417 -0.2408
 3529TIP3    H132146   3.738   5.460   6.957 -0.1428 -1.5868 -1.6843
 3529TIP3    H232147   3.666   5.407   7.079  0.4128  2.3752  0.5311
 3530TIP3   OH232148   6.306   4.001   2.553  0.2487 -0.9804  0.1872
 3530TIP3    H132149   6.265   4.064   2.495  3.1298  0.5213 -0.4213
 3530TIP3    H232150   6.263   4.013   2.637 -0.6640  0.3451 -0.4388
 3531TIP3   OH232151   5.348   0.683   1.344 -0.4868 -0.0543 -0.1891
 3531TIP3    H132152   5.319   0.743   1.275 -1.9620 -0.0870  0.3845
 3531TIP3    H232153   5.338   0.732   1.425  0.7782 -0.1901  0.0785
 3532TIP3   OH232154   2.821   1.987   1.734  0.4044 -0.0089 -0.5595
 3532TIP3    H132155   2.855   1.906   1.695 -0.6683 -0.8752  0.2356
 3532TIP3    H232156   2.726   1.977   1.731  0.2406  1.3538 -0.6737
 3533TIP3   OH232157   4.346   4.223   7.737 -0.3499  0.0466  0.1966
 3533TIP3    H132158   4.403   4.155   7.701 -1.3014 -0.5692 -0.1728
 3533TIP3    H232159   4.361   4.299   7.681 -0.8506 -0.5141 -0.7258
 3534TIP3   OH232160   1.291   4.136   7.734  0.3472 -0.1200 -0.0140
 3534TIP3    H132161   1.291   4.139   7.638  1.9912  0.5647 -0.0328
 3534TIP3    H232162   1.369   4.086   7.757 -1.2264 -2.2699  1.0019
 3535TIP3   OH232163   2.938   0.222   0.310 -0.4344 -0.2925 -0.1122
 3535TIP3    H132164   3.027   0.186   0.309 -0.8960 -1.6037  1.6317
 3535TIP3    H232165   2.950   0.313   0.283  1.4752 -0.3752  0.2488
 3536TIP3   OH232166   2.186   4.717   0.937  0.2056 -0.2935 -0.3165
 3536TIP3    H132167   2.140   4.740   1.018  0.5894  0.3236 -0.2624
 3536TIP3    H232168   2.213   4.626   0.948 -2.5489 -1.3106 -1.0742
 3537TIP3   OH232169   0.320   4.015   7.725 -0.0789 -0.3381  0.6154
 3537TIP3    H132170   0.237   4.040   7.765  1.0821  2.6009  1.4696
 3537TIP3    H232171   0.313   4.044   7.634  0.4900  1.3393  1.0696
 3538TIP3   OH232172   2.900   1.224   8.228 -0.2300 -0.1794 -0.3157
 3538TIP3    H132173   2.852   1.162   8.284 -0.5173  0.5236  0.2339
 3538TIP3    H232174   2.840   1.242   8.156 -1.0308  1.0914  0.6330
 3539TIP3   OH232175   5.888   4.968   7.632 -0.2451 -0.0762 -0.2116
 3539TIP3    H132176   5.822   5.026   7.592 -0.1655 -0.2386 -0.5813
 3539TIP3    H232177   5.913   4.908   7.562  0.4067  0.0755 -0.1125
 3540TIP3   OH232178   5.794   2.285   0.883  0.3324  0.5886 -0.3814
 3540TIP3    H132179   5.720   2.284   0.944  0.2957  2.5881 -0.3282
 3540TIP3    H232180   5.757   2.317   0.801  0.8780  0.2813 -0.7559
 3541TIP3   OH232181   4.868   2.526   8.393  0.1849  0.0711  0.0377
 3541TIP3    H132182   4.897   2.555   8.480 -1.8961 -0.4490  0.9742
 3541TIP3    H232183   4.813   2.450   8.410  0.0937 -0.3272 -1.8005
 3542TIP3   OH232184   0.009   3.903   0.312 -0.2401  0.0118 -0.0084
 3542TIP3    H132185  -0.077   3.875   0.343  0.2092 -0.8376  0.5332
 3542TIP3    H232186   0.007   3.886   0.218 -0.7368  0.2082 -0.0374
 3543TIP3   OH232187   4.322   4.769   0.474  0.3258  0.2576  0.2086
 3543TIP3    H132188   4.334   4.862   0.455  1.4770 -0.0270 -0.5046
 3543TIP3    H232189   4.410   4.735   0.488 -0.1073 -0.6685  0.7801
 3544TIP3   OH232190   6.278   5.565   7.679 -0.1156 -0.3608 -0.8267
 3544TIP3    H132191   6.238   5.477   7.676  1.0269 -0.8872 -1.0607
 3544TIP3    H232192   6.364   5.551   7.717 -0.1157  0.7550 -0.3886
 3545TIP3   OH232193   6.803   1.135   0.116  0.5125  0.9705  0.0308
 3545TIP3    H132194   6.783   1.159   0.025  0.1216  3.7421  0.7447
 3545TIP3    H232195   6.898   1.140   0.121  0.5379  0.7909 -0.2212
 3546TIP3   OH232196   1.844   5.135   7.172  0.4347  0.9768  0.2278
 3546TIP3    H132197   1.874   5.088   7.094 -0.6876 -0.8581  0.8450
 3546TIP3    H232198   1.756   5.163   7.150 -0.2994 -0.4864  1.1774
 3547TIP3   OH232199   3.728   6.079   7.381  0.0380 -0.0198 -0.6259
 3547TIP3    H132200   3.702   6.033   7.302 -0.2422  1.9852 -1.7854
 3547TIP3    H232201   3.690   6.167   7.371  0.4736  0.4709  1.4763
 3548TIP3   OH232202   2.904   2.528   8.374  0.4512 -0.0397 -0.2550
 3548TIP3    H132203   2.870   2.462   8.313 -0.6919 -0.8776  1.2445
 3548TIP3    H232204   2.964   2.580   8.320 -1.1601 -0.1919 -2.3433
 3549TIP3   OH232205   1.633   1.120   8.035  0.1175  0.0018  0.2509
 3549TIP3    H132206   1.581   1.061   8.090 -0.0972  0.5974  0.7025
 3549TIP3    H232207   1.616   1.091   7.945  0.2150 -0.7787  0.4751
 3550TIP3   OH232208   6.185   6.331   6.704 -0.2848  0.0629  0.0088
 3550TIP3    H132209   6.227   6.285   6.631  0.7368  0.5864  0.2502
 3550TIP3    H232210   6.135   6.401   6.663 -0.3941 -0.1595 -0.2416
 3551TIP3   OH232211   6.601   3.257   1.095 -0.1155  0.0501 -0.7599
 3551TIP3    H132212   6.554   3.334   1.061 -0.4990 -0.0954 -0.5738
 3551TIP3    H232213   6.581   3.187   1.033  0.9272  0.2958 -1.3996
 3552TIP3   OH232214   5.294   4.180   0.702  0.0536  0.1750 -0.3053
 3552TIP3    H132215   5.344   4.214   0.627  1.8416 -1.5177  0.0339
 3552TIP3    H232216   5.221   4.241   0.712  1.5517  2.2795 -1.4255
 3553TIP3   OH232217   6.756   0.793   8.397  0.1469 -0.7208 -0.2958
 3553TIP3    H132218   6.761   0.830   8.309  1.6245 -2.2007 -0.8863
 3553TIP3    H232219   6.696   0.719   8.388 -0.5809 -0.2152  0.2300
 3554TIP3   OH232220   2.674   5.966   0.402 -0.2562  0.2290  0.0305
 3554TIP3    H132221   2.681   5.931   0.313 -0.8824  1.4819 -0.5420
 3554TIP3    H232222   2.664   5.889   0.458  0.2370 -0.5781 -0.9750
 3555TIP3   OH232223   1.504   3.169   7.442 -0.5815  0.1736  0.9552
 3555TIP3    H132224   1.448   3.110   7.392 -1.4154  0.5730  1.3944
 3555TIP3    H232225   1.554   3.218   7.377  1.3690 -2.1259  0.5696
 3556TIP3   OH232226   3.850   4.312   1.206 -0.0217 -0.3763 -0.1707
 3556TIP3    H132227   3.783   4.313   1.274 -1.3068 -1.5250 -1.3620
 3556TIP3    H232228   3.803   4.337   1.126  1.0828 -0.6725 -0.9343
 3557TIP3   OH232229   6.870   3.627   0.788  0.0861 -0.3910  0.4330
 3557TIP3    H132230   6.802   3.593   0.847 -1.3376  2.5030  0.6320
 3557TIP3    H232231   6.938   3.660   0.846 -0.1994  0.2927  0.3837
 3558TIP3   OH232232   3.340   4.413   2.088 -0.1053  0.4873 -0.0709
 3558TIP3    H132233   3.289   4.458   2.155  0.7998  0.2198  0.8211
 3558TIP3    H232234   3.405   4.362   2.136 -0.5092 -1.0757 -1.0812
 3559TIP3   OH232235   4.954   1.274   0.855 -0.0587  0.1842 -0.2442
 3559TIP3    H132236   4.944   1.278   0.951  2.1641 -2.1795  0.1988
 3559TIP3    H232237   4.998   1.356   0.833  0.4666  0.2547  0.9626
 3560TIP3   OH232238   6.670   1.311   7.107 -0.6024 -0.0169  0.1995
 3560TIP3    H132239   6.703   1.400   7.092 -0.3380 -0.0277  0.7155
 3560TIP3    H232240   6.632   1.314   7.195 -0.5663 -0.4229  0.2293
 3561TIP3   OH232241   1.471   4.350   7.909  0.2115 -0.5357  0.2433
 3561TIP3    H132242   1.459   4.255   7.914  0.5593 -0.5868  0.1232
 3561TIP3    H232243   1.560   4.365   7.939 -0.1823 -0.1408  1.2768
 3562TIP3   OH232244   1.260   1.511   2.444 -0.4370  0.2810 -0.4204
 3562TIP3    H132245   1.248   1.422   2.413 -0.8936 -0.3449  1.4263
 3562TIP3    H232246   1.348   1.513   2.480 -0.7754  0.2828  0.4252
 3563TIP3   OH232247   2.077   1.935   8.057 -0.2679  0.2795  0.4003
 3563TIP3    H132248   2.025   1.855   8.047 -0.2000  0.0947  1.4220
 3563TIP3    H232249   2.137   1.916   8.128  0.2607  0.9881  0.1550
 3564TIP3   OH232250   5.971   3.146   6.374 -0.4165  0.2593 -0.1868
 3564TIP3    H132251   5.928   3.231   6.371 -0.0727  0.4418 -0.0724
 3564TIP3    H232252   5.924   3.097   6.441 -0.2965  0.5425  0.1118
 3565TIP3   OH232253   1.071   6.598   2.183  0.3570  0.2809  0.2708
 3565TIP3    H132254   1.022   6.518   2.201 -2.8352  2.4250  2.3133
 3565TIP3    H232255   1.056   6.616   2.090  0.2764 -0.9399  0.0420
 3566TIP3   OH232256   4.684   3.085   0.716  0.0308 -0.1816  0.0165
 3566TIP3    H132257   4.739   3.163   0.722  1.5446 -0.9512 -2.4549
 3566TIP3    H232258   4.596   3.118   0.696  0.5887  0.8970 -0.6924
 3567TIP3   OH232259   6.459   3.869   1.286  0.2692 -0.0035  0.2568
 3567TIP3    H132260   6.495   3.781   1.277 -0.2529 -0.3120  1.0414
 3567TIP3    H232261   6.503   3.921   1.218  2.0993 -0.3714  1.1288
 3568TIP3   OH232262   5.141   5.877   8.040 -0.4505  0.8370  0.4376
 3568TIP3    H132263   5.207   5.880   7.971 -1.8723  1.3758 -0.9516
 3568TIP3    H232264   5.062   5.843   7.997 -1.4033  1.2631  1.7733
 3569TIP3   OH232265   3.276   4.491   2.344  0.0217  0.0503 -0.1934
 3569TIP3    H132266   3.291   4.440   2.424 -0.5661  0.8151  0.4165
 3569TIP3    H232267   3.185   4.520   2.351  0.6271  2.0164 -0.0374
 3570TIP3   OH232268   6.376   3.581   0.143 -0.2617 -0.2868 -0.6696
 3570TIP3    H132269   6.469   3.578   0.165 -0.6423 -2.0294  1.0393
 3570TIP3    H232270   6.346   3.666   0.174  0.3645 -0.5719  0.8073
 3571TIP3   OH232271   2.735   1.300   7.970 -0.0797  0.3916  0.2014
 3571TIP3    H132272   2.707   1.380   8.015 -0.4534 -1.0643  2.7760
 3571TIP3    H232273   2.727   1.321   7.877  0.5861  3.5809  0.7405
 3572TIP3   OH232274   5.193   0.200   2.025 -0.4050  0.4084  0.4351
 3572TIP3    H132275   5.123   0.233   2.081 -0.8541  1.3785 -0.6703
 3572TIP3    H232276   5.190   0.105   2.037 -0.8400  0.5471  1.6254
 3573TIP3   OH232277   5.670   5.213   7.814  0.3171 -0.2600  0.7593
 3573TIP3    H132278   5.647   5.122   7.798  1.4275 -0.7841  1.9905
 3573TIP3    H232279   5.687   5.249   7.727 -2.2217 -0.5975  0.0468
 3574TIP3   OH232280   0.902   6.599   0.939  0.1564 -0.3970 -0.7230
 3574TIP3    H132281   0.878   6.633   1.025 -0.3297 -0.4592 -0.8292
 3574TIP3    H232282   0.845   6.647   0.878  0.6378 -0.2094 -1.0245
 3575TIP3   OH232283   3.512   4.113   7.933  0.0392  0.2315  0.4641
 3575TIP3    H132284   3.474   4.167   7.863  1.4362 -1.3464 -1.6081
 3575TIP3    H232285   3.437   4.068   7.971 -0.5087 -1.2937 -2.1925
 3576TIP3   OH232286   3.185   5.388   0.165  0.0374 -0.1069  0.4918
 3576TIP3    H132287   3.180   5.466   0.219 -0.2603 -1.1595  2.0333
 3576TIP3    H232288   3.259   5.338   0.199  0.8639 -0.0586 -1.1261
 3577TIP3   OH232289   0.764   2.821   1.647 -0.4488  0.2420 -0.1983
 3577TIP3    H132290   0.796   2.906   1.616  0.3326  0.2989  0.7015
 3577TIP3    H232291   0.702   2.843   1.717 -2.0027  0.1098 -1.4677
 3578TIP3   OH232292   0.441   6.586   7.592 -0.0625 -0.4211  0.0877
 3578TIP3    H132293   0.503   6.645   7.635  0.2985 -0.5807 -0.2077
 3578TIP3    H232294   0.496   6.517   7.555 -0.2812  0.1427 -1.3250
 3579TIP3   OH232295   0.328   0.538   8.457  0.4049 -0.3611 -0.1957
 3579TIP3    H132296   0.382   0.588   8.396  0.4041  0.8959  0.8095
 3579TIP3    H232297   0.256   0.504   8.403  0.3045  0.8767 -0.8778
 3580TIP3   OH232298   3.147   3.558   1.543 -0.3428 -0.5224  0.0979
 3580TIP3    H132299   3.083   3.595   1.604  0.6501 -0.3573  1.0716
 3580TIP3    H232300   3.156   3.467   1.571  2.4506  0.2975  2.3441
 3581TIP3   OH232301   3.554   1.655   1.472  0.0486 -0.3186 -0.3781
 3581TIP3    H132302   3.644   1.627   1.460 -0.4169 -2.5277  0.6602
 3581TIP3    H232303   3.556   1.709   1.551  0.5231  0.0057 -0.6093
 3582TIP3   OH232304   6.127   6.479   1.211  0.0024 -0.6881 -0.2105
 3582TIP3    H132305   6.177   6.404   1.179 -0.7487 -0.9359 -0.8559
 3582TIP3    H232306   6.154   6.489   1.302  0.0630 -1.7870 -0.0912
 3583TIP3   OH232307   3.361   1.320   0.499  0.0703 -0.1061  0.2350
 3583TIP3    H132308   3.293   1.357   0.556  0.5824  1.1657  0.0648
 3583TIP3    H232309   3.324   1.238   0.467 -0.7357 -0.2208  1.4018
 3584TIP3   OH232310   1.771   0.845   7.484 -0.2136  0.6244  0.3139
 3584TIP3    H132311   1.725   0.827   7.402  2.2104  1.9435 -1.4866
 3584TIP3    H232312   1.708   0.893   7.537 -1.9546 -0.5108 -0.6510
 3585TIP3   OH232313   2.624   5.244   7.507 -0.4299  0.5362 -0.0170
 3585TIP3    H132314   2.675   5.236   7.587 -0.5652 -0.2644 -0.0042
 3585TIP3    H232315   2.562   5.315   7.524 -0.9240 -0.0824  0.8402
 3586TIP3   OH232316   2.211   4.307   7.228 -0.7292  0.1850  0.6564
 3586TIP3    H132317   2.125   4.331   7.194 -1.1440 -0.3728  1.2641
 3586TIP3    H232318   2.273   4.341   7.164 -1.3929  0.7644  0.3047
 3587TIP3   OH232319   0.528   5.106   8.271 -0.1858 -0.4882 -0.2197
 3587TIP3    H132320   0.500   5.152   8.193  0.0430  1.2868  0.6876
 3587TIP3    H232321   0.453   5.110   8.330 -0.5528 -2.2950 -0.5120
 3588TIP3   OH232322   6.308   6.279   0.835  0.7950  0.3195  0.6422
 3588TIP3    H132323   6.320   6.186   0.853 -1.1528 -0.4213 -1.4303
 3588TIP3    H232324   6.214   6.288   0.817  1.5148  1.7501 -3.6054
 3589TIP3   OH232325   1.579   3.033   7.797 -0.3554  0.1180  0.3076
 3589TIP3    H132326   1.498   3.011   7.751 -0.6836 -0.5690  1.1760
 3589TIP3    H232327   1.647   2.986   7.750 -0.4696  0.5919 -0.3462
 3590TIP3   OH232328   0.421   2.237   7.703  0.2560  0.5340 -0.4831
 3590TIP3    H132329   0.341   2.188   7.687  0.8878 -1.3370  1.6404
 3590TIP3    H232330   0.393   2.308   7.762  0.2220 -0.4653  0.7387
 3591TIP3   OH232331   3.515   1.764   1.724  0.2686 -0.4536  0.0452
 3591TIP3    H132332   3.605   1.790   1.745  1.3674 -0.1409 -4.1403
 3591TIP3    H232333   3.508   1.674   1.755  2.0778 -0.5269  0.3551
 3592TIP3   OH232334   2.494   0.633   1.600  0.1571 -0.3443 -0.1547
 3592TIP3    H132335   2.431   0.676   1.658  1.3802 -0.4728  1.3534
 3592TIP3    H232336   2.537   0.568   1.656  1.5320 -0.3359 -1.1570
 3593TIP3   OH232337   3.071   6.474   7.495  0.2920  0.2438 -0.3313
 3593TIP3    H132338   3.166   6.484   7.501  0.4498 -0.9515 -0.6046
 3593TIP3    H232339   3.054   6.387   7.531 -0.8176  0.8449  0.6775
 3594TIP3   OH232340   2.047   2.221   1.708 -0.0754  0.2497  0.3363
 3594TIP3    H132341   2.007   2.272   1.779  1.1990  0.8540  0.6466
 3594TIP3    H232342   2.083   2.287   1.648  0.1990 -0.2738 -0.0880
 3595TIP3   OH232343   2.869   0.011   2.032 -0.1531 -0.2921 -0.1771
 3595TIP3    H132344   2.832  -0.047   1.965  0.3526 -2.1576  1.0819
 3595TIP3    H232345   2.825  -0.014   2.113  0.4295  0.7784  0.4923
 3596TIP3   OH232346   3.061   2.588   7.724  0.2276 -0.1631 -0.2851
 3596TIP3    H132347   3.058   2.683   7.709  3.7093  0.0695 -0.3884
 3596TIP3    H232348   3.005   2.574   7.800  0.5174  2.1648  0.4467
 3597TIP3   OH232349   0.730   4.760   0.657  0.1068  0.2719  0.6042
 3597TIP3    H132350   0.648   4.714   0.643  1.5809 -2.2692 -0.3800
 3597TIP3    H232351   0.735   4.823   0.585 -0.1965 -0.7697 -0.3457
 3598TIP3   OH232352   6.420   1.820   6.700 -0.7043  0.1943  0.2435
 3598TIP3    H132353   6.378   1.822   6.785 -2.3169  2.2349 -0.5119
 3598TIP3    H232354   6.481   1.746   6.704 -0.1609  0.7141  3.3960
 3599TIP3   OH232355   5.217   6.304   0.320 -0.4290 -0.4094  0.2338
 3599TIP3    H132356   5.264   6.382   0.291 -2.7988  0.6353 -1.0816
 3599TIP3    H232357   5.223   6.244   0.246 -1.6302 -0.0203 -0.1992
 3600TIP3   OH232358   3.063   4.094   0.179 -0.2243 -0.5263 -0.1452
 3600TIP3    H132359   3.137   4.092   0.118 -0.2826 -1.3122 -0.2092
 3600TIP3    H232360   3.054   4.186   0.203  1.7629 -0.5889  1.0873
 3601TIP3   OH232361   2.355   1.188   1.495 -0.4502  0.7588  0.5679
 3601TIP3    H132362   2.304   1.205   1.416 -1.1242 -1.8028  0.3789
 3601TIP3    H232363   2.290   1.174   1.563  0.0696  0.1695  0.9496
 3602TIP3   OH232364   2.198   4.764   1.220  0.5709 -0.1982 -0.3420
 3602TIP3    H132365   2.235   4.842   1.179  1.1696  0.5997  1.6042
 3602TIP3    H232366   2.273   4.717   1.255  0.0003  0.2314  1.6011
 3603TIP3   OH232367   5.478   1.993   0.436 -0.3599  0.0999 -0.1419
 3603TIP3    H132368   5.401   2.025   0.485  0.3976  1.4644  0.2228
 3603TIP3    H232369   5.550   2.046   0.470  0.3200  0.5729 -2.2248
 3604TIP3   OH232370   5.158   0.372   0.090 -0.0047 -0.3867  0.1874
 3604TIP3    H132371   5.124   0.434   0.155 -0.1765  1.2422 -1.3608
 3604TIP3    H232372   5.081   0.346   0.039  0.6026  1.3016 -1.6942
 3605TIP3   OH232373   1.695   3.121   0.448 -0.2957  0.5335  0.2750
 3605TIP3    H132374   1.754   3.122   0.372 -0.8612  1.3809 -0.1671
 3605TIP3    H232375   1.679   3.214   0.467 -2.5156  0.3478 -0.4325
 3606TIP3   OH232376   6.181   3.860   0.027  0.1911  0.2903 -0.1277
 3606TIP3    H132377   6.185   3.781  -0.028 -1.2081  1.0090 -1.3097
 3606TIP3    H232378   6.137   3.831   0.107 -2.0224  0.2191 -1.3011
 3607TIP3   OH232379   5.361   5.906   2.582 -0.0111 -0.0229  0.2411
 3607TIP3    H132380   5.390   5.957   2.658 -0.3048  0.6402 -0.0909
 3607TIP3    H232381   5.389   5.957   2.506  0.7303 -0.9271 -0.1210
 3608TIP3   OH232382   3.605   5.110   0.874  0.2891 -0.5851  0.2993
 3608TIP3    H132383   3.647   5.067   0.799 -0.6001  0.0232 -0.5747
 3608TIP3    H232384   3.601   5.042   0.942  1.2906 -1.0843 -0.1276
 3609TIP3   OH232385   1.233   2.666   2.526 -0.2761  0.4416  0.4342
 3609TIP3    H132386   1.268   2.608   2.593 -0.0950 -0.4090 -0.3673
 3609TIP3    H232387   1.310   2.710   2.490 -0.0221 -1.0767 -1.0025
 3610TIP3   OH232388   5.326   1.034   0.710 -0.7137  0.0457 -0.0395
 3610TIP3    H132389   5.413   0.998   0.692 -0.2711  0.9586  0.2124
 3610TIP3    H232390   5.320   1.112   0.655 -0.7322  0.8885  1.1266
 3611TIP3   OH232391   1.328   3.876   2.610 -0.2131 -0.0348  0.3754
 3611TIP3    H132392   1.272   3.951   2.588 -1.0120 -1.0693 -1.3236
 3611TIP3    H232393   1.417   3.906   2.593 -0.6834 -0.2462 -2.9976
 3612TIP3   OH232394   3.996   0.513   7.281 -0.0504  0.1080  0.5119
 3612TIP3    H132395   4.031   0.579   7.340 -2.8716  1.4314  0.8982
 3612TIP3    H232396   3.961   0.562   7.206  0.1050 -1.1965 -0.4667
 3613TIP3   OH232397   2.726   2.936   0.875  0.2153  0.4532  0.0671
 3613TIP3    H132398   2.766   2.849   0.872 -2.6001 -0.9434 -2.3677
 3613TIP3    H232399   2.634   2.920   0.895 -0.8436  2.5964 -2.5113
 3614TIP3   OH232400   2.640   2.780   0.520  0.3073 -0.1563  0.5982
 3614TIP3    H132401   2.690   2.700   0.539  0.4757 -0.8008 -2.1421
 3614TIP3    H232402   2.562   2.749   0.473 -0.6646  1.1786  1.2458
 3615TIP3   OH232403   2.011   6.056   1.713 -0.1238  0.1712  0.4842
 3615TIP3    H132404   1.992   6.066   1.806  1.6007 -2.1285  1.1697
 3615TIP3    H232405   2.089   6.110   1.699 -0.6861  0.9289  0.2320
 3616TIP3   OH232406   5.001   1.816   0.878 -0.2555 -0.6471  0.2274
 3616TIP3    H132407   4.922   1.815   0.824 -0.2853  0.2373  0.2370
 3616TIP3    H232408   5.072   1.793   0.818 -0.7124 -3.2710  0.5988
 3617TIP3   OH232409   6.121   5.841   1.540 -0.0040  0.0585  0.0240
 3617TIP3    H132410   6.204   5.852   1.493  1.2220 -0.2624  2.0046
 3617TIP3    H232411   6.141   5.868   1.629 -1.5880 -1.6305  0.9469
 3618TIP3   OH232412   4.981   1.277   7.935  0.4835 -0.5906  0.2329
 3618TIP3    H132413   4.981   1.209   7.867  0.3054  1.1552 -1.6154
 3618TIP3    H232414   4.980   1.359   7.886  1.8760  0.7943  2.3614
 3619TIP3   OH232415   3.270   0.093   1.610  0.0084 -0.2356  0.0172
 3619TIP3    H132416   3.179   0.064   1.611  0.6545 -2.4226  0.1703
 3619TIP3    H232417   3.279   0.147   1.689 -1.3682  0.8618 -0.5303
 3620TIP3   OH232418   3.497   5.766   0.863  0.3074  0.1776 -0.0285
 3620TIP3    H132419   3.492   5.740   0.955 -0.4188 -2.2680 -0.6823
 3620TIP3    H232420   3.577   5.724   0.831 -1.0937 -1.7184 -1.2188
 3621TIP3   OH232421   3.577   0.672   1.113  0.1611  0.3054 -0.9692
 3621TIP3    H132422   3.558   0.741   1.050 -0.4559 -0.9414 -2.1968
 3621TIP3    H232423   3.502   0.671   1.172  0.6285  1.3120 -0.3363
 3622TIP3   OH232424   4.447   1.092   8.256  0.2788 -0.0931 -0.1428
 3622TIP3    H132425   4.504   1.096   8.179 -0.2970 -0.0268 -0.5784
 3622TIP3    H232426   4.441   1.183   8.286 -1.7665  0.3901 -1.7541
 3623TIP3   OH232427   3.575   6.064   1.896 -0.0423 -0.3522 -0.3253
 3623TIP3    H132428   3.664   6.055   1.864 -0.0450 -0.4803 -0.3002
 3623TIP3    H232429   3.540   6.140   1.850  0.7743  1.0405  1.2530
 3624TIP3   OH232430   3.302   0.303   7.571 -0.0844 -0.0379 -0.3420
 3624TIP3    H132431   3.214   0.323   7.537 -0.1777 -0.5554 -0.4101
 3624TIP3    H232432   3.355   0.290   7.492 -0.4994 -2.1255 -0.3419
 3625TIP3   OH232433   6.547   5.035   7.176  0.1382 -0.3451 -0.3139
 3625TIP3    H132434   6.638   5.060   7.163  0.2539 -0.4913  0.1897
 3625TIP3    H232435   6.548   4.979   7.253 -0.5791  0.9152  0.6609
 3626TIP3   OH232436   0.363   5.753   7.481  0.2479  0.5156  0.4418
 3626TIP3    H132437   0.301   5.823   7.500  0.9318  1.2253  0.1046
 3626TIP3    H232438   0.329   5.712   7.402  0.3343  1.0736  0.1072
 3627TIP3   OH232439   4.476   1.577   2.195  0.6546  0.0026 -0.2267
 3627TIP3    H132440   4.551   1.569   2.253 -1.1552  0.9238  2.4268
 3627TIP3    H232441   4.438   1.489   2.192 -0.6637  0.3985  2.1889
 3628TIP3   OH232442   3.770   0.481   1.090  0.3687 -0.2863 -0.0878
 3628TIP3    H132443   3.843   0.517   1.040  0.3988  1.4905  1.1413
 3628TIP3    H232444   3.701   0.547   1.084  0.0622 -0.4175  1.4576
 3629TIP3   OH232445   3.510   5.382   7.180 -0.1918  0.0153 -0.1173
 3629TIP3    H132446   3.431   5.334   7.204 -0.5536  0.5492 -0.2429
 3629TIP3    H232447   3.490   5.473   7.199  1.0822 -0.0242  1.6934
 3630TIP3   OH232448   1.630   4.647   8.083  0.5085  0.1912 -0.3053
 3630TIP3    H132449   1.637   4.647   7.987 -0.5002 -0.6132 -0.3976
 3630TIP3    H232450   1.679   4.724   8.110  1.6671 -0.1237 -1.3998
 3631TIP3   OH232451   3.362   3.111   2.539 -0.1791  0.6455 -0.1760
 3631TIP3    H132452   3.297   3.121   2.609  0.7357 -0.7372  0.9290
 3631TIP3    H232453   3.444   3.141   2.578  0.4156 -0.4832 -0.5098
 3632TIP3   OH232454   6.310   4.421   2.646  0.1654  0.2177  0.2510
 3632TIP3    H132455   6.282   4.353   2.584  0.0731  0.6034 -0.1377
 3632TIP3    H232456   6.389   4.385   2.686 -0.9202 -0.9341  1.4539
 3633TIP3   OH232457   2.453   2.021   8.176 -0.6017 -0.1323  0.5754
 3633TIP3    H132458   2.385   1.992   8.236 -0.3912 -0.8062  0.4978
 3633TIP3    H232459   2.416   2.099   8.134 -1.9497 -1.3244 -0.5536
 3634TIP3   OH232460   3.314   2.477   6.934  0.3102  0.2416 -0.4671
 3634TIP3    H132461   3.407   2.484   6.910 -0.2126  1.2882 -2.3855
 3634TIP3    H232462   3.289   2.390   6.904  0.5192  0.2168 -0.5768
 3635TIP3   OH232463   6.752   6.932   2.858 -0.6522 -0.1544  0.3224
 3635TIP3    H132464   6.660   6.912   2.843 -0.5097 -0.7807  0.2489
 3635TIP3    H232465   6.797   6.848   2.847  0.1063  0.4015 -1.0382
 3636TIP3   OH232466   1.979   6.298   0.146 -0.1076  0.1163  0.1701
 3636TIP3    H132467   2.021   6.373   0.104 -0.8847  0.8629  0.6986
 3636TIP3    H232468   2.022   6.291   0.231  0.6152 -0.6392 -0.2372
 3637TIP3   OH232469   5.427   4.496   7.180  0.2824  0.3129 -0.4811
 3637TIP3    H132470   5.492   4.433   7.211 -0.2268 -0.1764 -0.3871
 3637TIP3    H232471   5.389   4.532   7.260 -0.7790 -0.6850 -0.5051
 3638TIP3   OH232472   1.140   4.494   7.214 -0.8675 -0.1139  0.2200
 3638TIP3    H132473   1.099   4.539   7.140 -0.7738 -0.2330  0.0946
 3638TIP3    H232474   1.174   4.413   7.177  0.2106  0.3551  0.1325
 3639TIP3   OH232475   5.791   1.083   0.509 -0.1809  0.4137  0.3946
 3639TIP3    H132476   5.884   1.099   0.498 -0.0337  0.5478  1.7409
 3639TIP3    H232477   5.753   1.169   0.527 -0.8768  0.6638 -1.9345
 3640TIP3   OH232478   4.186   3.543   0.419 -0.0175  0.9915 -0.6549
 3640TIP3    H132479   4.142   3.625   0.441 -1.2911  0.3296 -0.6381
 3640TIP3    H232480   4.135   3.507   0.346 -2.0035 -1.6946  1.8345
 3641TIP3   OH232481   0.923   3.255   7.914 -0.2393  0.4062  0.1870
 3641TIP3    H132482   0.840   3.248   7.868 -0.3031  0.1180  0.3471
 3641TIP3    H232483   0.943   3.349   7.913 -0.7447  0.5208  0.4632
 3642TIP3   OH232484   5.657   3.358   1.876 -0.2547  0.4408  0.4704
 3642TIP3    H132485   5.571   3.399   1.883 -1.2187 -1.4220  0.0705
 3642TIP3    H232486   5.677   3.360   1.782 -1.1777 -1.5992  0.1807
 3643TIP3   OH232487   5.346   5.251   1.702 -0.1042  0.0224  0.5578
 3643TIP3    H132488   5.277   5.204   1.749  0.4406 -0.1265  1.2281
 3643TIP3    H232489   5.385   5.308   1.768 -1.1001  1.8521 -0.3547
 3644TIP3   OH232490   4.297   1.709   7.602 -0.4297  0.7157 -0.1492
 3644TIP3    H132491   4.211   1.747   7.622 -0.4274  1.1179 -0.8992
 3644TIP3    H232492   4.293   1.622   7.642 -2.2733 -0.4282 -2.5362
 3645TIP3   OH232493   4.999   5.045   7.443  0.2497 -0.3994 -0.0863
 3645TIP3    H132494   4.927   5.104   7.420 -1.3533 -1.6688  1.4798
 3645TIP3    H232495   4.991   5.033   7.538  1.8020 -1.5270 -0.0633
 3646TIP3   OH232496   3.352   2.003   1.250 -0.3476 -0.1316  0.3258
 3646TIP3    H132497   3.271   1.988   1.299  0.5692 -1.2214  1.5781
 3646TIP3    H232498   3.410   2.046   1.312  0.8048 -1.4297  0.1905
 3647TIP3   OH232499   0.935   4.965   7.546  0.1306 -0.4580  0.1483
 3647TIP3    H132500   0.923   5.047   7.497  0.8362  0.0005  0.7194
 3647TIP3    H232501   0.989   4.990   7.621 -1.1654 -1.0926  1.3307
 3648TIP3   OH232502   2.349   5.714   8.355  0.1418 -0.0237 -0.1880
 3648TIP3    H132503   2.428   5.707   8.409 -0.4788 -2.3638  0.5387
 3648TIP3    H232504   2.277   5.697   8.415 -0.9667  2.0391 -0.8510
 3649TIP3   OH232505   0.346   1.469   1.761 -0.3050  0.1546 -0.3539
 3649TIP3    H132506   0.432   1.426   1.767 -0.0561  0.6082 -0.6285
 3649TIP3    H232507   0.291   1.420   1.821  0.3584  0.3607  0.4449
 3650TIP3   OH232508   4.365   5.132   1.490  0.6238 -0.1927  0.3278
 3650TIP3    H132509   4.378   5.038   1.490 -1.5955 -0.5929 -1.3225
 3650TIP3    H232510   4.294   5.146   1.426  1.6865  2.6967 -0.3653
 3651TIP3   OH232511   2.121   4.300   1.620  0.0253 -0.0084 -0.1557
 3651TIP3    H132512   2.050   4.352   1.658  1.2195  1.2249  0.4742
 3651TIP3    H232513   2.166   4.360   1.561  1.3982 -0.3258  0.5326
 3652TIP3   OH232514   1.635   4.689   8.374 -0.0934 -0.3741 -0.3977
 3652TIP3    H132515   1.693   4.746   8.324  0.2546  0.7199  1.1581
 3652TIP3    H232516   1.551   4.736   8.375  0.2365  0.2599  1.0209
 3653TIP3   OH232517   6.928   6.880   6.925  0.1715  0.0854  0.6457
 3653TIP3    H132518   6.856   6.873   6.862 -0.5248 -0.2270  1.4520
 3653TIP3    H232519   7.001   6.917   6.875 -0.3705 -0.1404 -0.3289
 3654TIP3   OH232520   6.139   0.964   0.217 -0.0896 -0.0669  0.1776
 3654TIP3    H132521   6.222   0.991   0.255 -0.1658 -0.0231  0.3157
 3654TIP3    H232522   6.073   0.997   0.278 -0.1215 -2.2433  1.4441
 3655TIP3   OH232523   4.700   4.791   7.888  0.6293 -0.5873 -0.4815
 3655TIP3    H132524   4.666   4.775   7.801 -0.0248 -0.6731 -0.2110
 3655TIP3    H232525   4.645   4.739   7.946 -1.2208  2.1225  0.3649
 3656TIP3   OH232526   3.234   6.465   6.702 -0.5194 -0.4467  0.2782
 3656TIP3    H132527   3.202   6.417   6.779 -0.5715 -0.0511  0.5064
 3656TIP3    H232528   3.251   6.397   6.637  2.0211 -1.0664  1.4830
 3657TIP3   OH232529   5.468   2.394   6.436  0.0162  0.3325 -0.7546
 3657TIP3    H132530   5.388   2.408   6.386  0.5254  0.2378 -1.6224
 3657TIP3    H232531   5.439   2.388   6.527 -1.0062 -0.1064 -1.0932
 3658TIP3   OH232532   5.569   2.240   7.824  0.4360 -1.0284 -0.1977
 3658TIP3    H132533   5.608   2.304   7.884 -0.7390  0.2881 -0.7787
 3658TIP3    H232534   5.605   2.263   7.738 -2.8963  1.5206 -1.1208
 3659TIP3   OH232535   6.009   6.237   6.445  0.5909 -0.2818  0.4358
 3659TIP3    H132536   6.103   6.240   6.465  0.5856  1.6485  0.3882
 3659TIP3    H232537   5.966   6.238   6.530  0.6151 -0.6450  0.4512
 3660TIP3   OH232538   3.751   1.280   2.006  0.2441 -0.1516  0.3608
 3660TIP3    H132539   3.721   1.371   2.009 -0.8343 -0.5112  1.4096
 3660TIP3    H232540   3.698   1.240   1.936 -1.1501 -0.5585  1.5921
 3661TIP3   OH232541   0.450   6.649   7.944  0.8985  0.5877  0.6460
 3661TIP3    H132542   0.543   6.629   7.933  0.8274  1.3586 -2.2532
 3661TIP3    H232543   0.405   6.582   7.892  0.0113  1.6064  0.0576
 3662TIP3   OH232544   6.348   0.238   1.145  0.0487  0.3435 -0.3824
 3662TIP3    H132545   6.426   0.197   1.107 -0.5109 -0.0695 -1.1082
 3662TIP3    H232546   6.276   0.183   1.116 -0.5731  1.0482 -0.1898
 3663TIP3   OH232547   1.983   6.311   0.774 -0.1634 -0.9197 -0.5953
 3663TIP3    H132548   1.959   6.221   0.797  0.2593 -1.1014 -0.8682
 3663TIP3    H232549   1.941   6.325   0.689 -0.0756 -0.9217 -0.6387
 3664TIP3   OH232550   4.422   0.106   6.623 -0.0012 -0.4119  0.3756
 3664TIP3    H132551   4.390   0.035   6.679 -1.1163 -0.0699  0.2042
 3664TIP3    H232552   4.477   0.063   6.558  2.2051 -0.7090  2.3185
 3665TIP3   OH232553   1.696   1.701   7.910  0.0415 -0.3443 -0.3221
 3665TIP3    H132554   1.763   1.662   7.853  1.2200 -1.1102  1.5057
 3665TIP3    H232555   1.728   1.789   7.929  0.9180 -0.9369  1.0813
 3666TIP3   OH232556   5.034   4.069   1.765 -0.7422 -0.0918 -0.3626
 3666TIP3    H132557   4.957   4.013   1.776 -0.5858 -0.0789  0.8701
 3666TIP3    H232558   5.105   4.022   1.808 -0.0572 -0.0583 -1.4138
 3667TIP3   OH232559   0.785   1.072   0.127  0.3929  0.6361  0.0006
 3667TIP3    H132560   0.876   1.042   0.132  1.0464  2.3857 -0.2901
 3667TIP3    H232561   0.753   1.068   0.217  0.6215 -0.3818  0.0392
 3668TIP3   OH232562   3.338   2.435   7.588 -0.0701 -0.0472  0.4759
 3668TIP3    H132563   3.273   2.365   7.581  1.7515 -1.7383 -0.3321
 3668TIP3    H232564   3.400   2.405   7.654  0.5018  1.0250  0.4640
 3669TIP3   OH232565   2.511   0.390   1.105 -0.1572 -0.1761  0.1870
 3669TIP3    H132566   2.454   0.435   1.043 -0.7737  0.4050  1.1463
 3669TIP3    H232567   2.506   0.443   1.185 -1.1967 -2.1250  1.4936
 3670TIP3   OH232568   2.257   1.225   0.657  0.2230 -0.5558  0.1853
 3670TIP3    H132569   2.314   1.269   0.593 -0.1879 -0.4956 -0.1421
 3670TIP3    H232570   2.269   1.275   0.738 -2.0351  1.6925 -0.7590
 3671TIP3   OH232571   4.456   0.031   8.411 -0.1240  0.0624  0.0834
 3671TIP3    H132572   4.551   0.038   8.418 -0.1036  0.1961 -0.2858
 3671TIP3    H232573   4.440  -0.060   8.389  0.0668  0.4666 -1.9606
 3672TIP3   OH232574   3.699   1.157   7.867  0.2566  0.5364  0.6153
 3672TIP3    H132575   3.671   1.241   7.831  2.4273  0.3902 -1.6586
 3672TIP3    H232576   3.777   1.177   7.918  0.6746 -0.0459  0.2228
 3673TIP3   OH232577   0.189   5.978   2.131  0.0499 -0.1625 -0.2836
 3673TIP3    H132578   0.229   6.065   2.127  0.6558 -0.4600 -0.8856
 3673TIP3    H232579   0.233   5.928   2.062  1.2911 -1.5982  1.4722
 3674TIP3   OH232580   4.903   2.902   0.607  0.5554  0.6832  0.0793
 3674TIP3    H132581   4.815   2.938   0.594  0.3377  0.3350  0.5309
 3674TIP3    H232582   4.919   2.912   0.701  0.8236  0.3578  0.0703
 3675TIP3   OH232583   3.872   5.782   6.962  0.0646 -0.3318  0.4402
 3675TIP3    H132584   3.814   5.706   6.959 -1.8828  1.0981 -0.4045
 3675TIP3    H232585   3.829   5.843   7.022  0.9585  0.5981  0.1684
 3676TIP3   OH232586   2.698   6.272   1.489 -0.1717  0.1904 -0.2695
 3676TIP3    H132587   2.792   6.291   1.495 -0.1426  0.0365 -0.2590
 3676TIP3    H232588   2.656   6.352   1.521 -0.0303 -0.2440  1.0433
 3677TIP3   OH232589   2.012   6.899   8.242  0.0013  0.3836 -0.4730
 3677TIP3    H132590   2.085   6.907   8.181  0.9751 -0.8445  0.4774
 3677TIP3    H232591   2.000   6.804   8.253  0.8187  0.5080  2.3004
 3678TIP3   OH232592   0.830   6.267   1.035  0.0632  0.0555  0.1621
 3678TIP3    H132593   0.924   6.262   1.052 -0.1888  0.0842  1.7133
 3678TIP3    H232594   0.806   6.178   1.011  0.2296 -0.3226  1.3291
 3679TIP3   OH232595   4.449   5.481   0.724 -0.1091  0.4772 -0.5183
 3679TIP3    H132596   4.538   5.510   0.744  0.1528  0.6307 -1.7717
 3679TIP3    H232597   4.453   5.386   0.732  0.1873  0.4809 -0.5928
 3680TIP3   OH232598   0.791   4.043   2.431  0.6227  0.1995 -0.5882
 3680TIP3    H132599   0.845   4.119   2.452  2.7081 -1.2212 -0.5270
 3680TIP3    H232600   0.833   3.970   2.476 -1.4062 -1.0005 -0.5235
 3681TIP3   OH232601   0.515   3.355   1.575  0.0182  0.0231 -0.1125
 3681TIP3    H132602   0.555   3.418   1.515 -0.9531  0.3951 -0.4002
 3681TIP3    H232603   0.579   3.284   1.582 -0.0444 -0.2713 -2.0055
 3682TIP3   OH232604   6.867   0.426   6.679  0.3446  0.4252  0.2043
 3682TIP3    H132605   6.796   0.370   6.649 -0.9875  1.4159  1.3348
 3682TIP3    H232606   6.942   0.368   6.690 -0.6449 -0.8928  0.1744
 3683TIP3   OH232607   1.164   3.848   0.694  0.0896 -0.4872  0.1657
 3683TIP3    H132608   1.173   3.764   0.649 -1.0672  0.2996 -1.6391
 3683TIP3    H232609   1.213   3.837   0.776  0.3219 -2.7519 -0.2258
 3684TIP3   OH232610   0.939   0.090   6.690 -0.5301  0.6024  0.0311
 3684TIP3    H132611   0.889   0.048   6.621 -2.6952  1.5031  0.9619
 3684TIP3    H232612   0.971   0.171   6.651 -0.5253  0.4224 -0.3346
 3685TIP3   OH232613   0.468   2.364   7.198  0.0932 -0.1644  0.0091
 3685TIP3    H132614   0.470   2.362   7.294 -0.3641  2.2300  0.1366
 3685TIP3    H232615   0.503   2.280   7.171  0.5460 -0.7626  2.2848
 3686TIP3   OH232616   3.463   6.831   0.005  0.0587 -0.4485 -0.0054
 3686TIP3    H132617   3.369   6.820  -0.008  0.1468 -0.1590 -1.0104
 3686TIP3    H232618   3.479   6.800   0.094 -0.6655 -2.4366 -0.5114
 3687TIP3   OH232619   0.783   3.917   1.602  0.0347  0.3134  0.7177
 3687TIP3    H132620   0.736   3.894   1.522  1.5970 -3.8841  0.7413
 3687TIP3    H232621   0.715   3.920   1.669 -1.0976  2.3584 -0.4238
 3688TIP3   OH232622   0.687   0.628   0.823  0.3111 -0.0842  0.1885
 3688TIP3    H132623   0.652   0.554   0.773  1.1254 -0.0085 -0.5258
 3688TIP3    H232624   0.673   0.704   0.766  2.4505 -0.1811 -0.5661
 3689TIP3   OH232625   0.700   4.481   0.557 -0.3480 -0.6365 -0.3088
 3689TIP3    H132626   0.792   4.496   0.578  0.0371 -0.9029 -1.6969
 3689TIP3    H232627   0.670   4.420   0.624 -0.4692  1.9220  2.1668
 3690TIP3   OH232628   6.542   0.123   2.158 -0.0210 -0.1296 -0.2354
 3690TIP3    H132629   6.521   0.207   2.198 -0.2613 -0.3849  0.1760
 3690TIP3    H232630   6.533   0.059   2.229 -1.9166 -0.7893 -1.0122
 3691TIP3   OH232631   4.541   3.830   7.122 -0.0965  0.0146 -0.0005
 3691TIP3    H132632   4.525   3.909   7.071 -1.9820 -0.3412 -0.0409
 3691TIP3    H232633   4.635   3.830   7.139  0.2106  1.2966 -1.5537
 3692TIP3   OH232634   5.537   3.713   7.491  0.2118 -0.0983 -0.2358
 3692TIP3    H132635   5.595   3.654   7.443  0.2088 -0.7799  0.5806
 3692TIP3    H232636   5.595   3.764   7.547  0.3073  1.3132 -1.5539
 3693TIP3   OH232637   4.860   0.157   0.494  0.0410 -0.3011  0.0727
 3693TIP3    H132638   4.927   0.225   0.490  0.6912 -0.9037  0.5153
 3693TIP3    H232639   4.813   0.165   0.412  0.7116  0.0870 -0.2809
 3694TIP3   OH232640   3.309   6.342   8.331 -0.0613  0.0817 -0.5979
 3694TIP3    H132641   3.387   6.321   8.280  1.2486  1.6331  0.6636
 3694TIP3    H232642   3.254   6.393   8.270  0.6869  0.4218 -1.0004
 3695TIP3   OH232643   4.450   2.982   1.403  0.0727  0.2833 -0.1299
 3695TIP3    H132644   4.355   2.978   1.417 -0.0815  0.8493 -0.9020
 3695TIP3    H232645   4.486   3.002   1.489 -0.7142  2.3575 -0.2193
 3696TIP3   OH232646   5.320   6.835   0.032  0.1668 -0.0651  0.5681
 3696TIP3    H132647   5.285   6.909   0.082  0.4803  0.2145  0.3790
 3696TIP3    H232648   5.278   6.758   0.070 -1.6394  0.3498 -0.4650
 3697TIP3   OH232649   6.819   5.213   0.578 -0.3902  0.4581  0.1593
 3697TIP3    H132650   6.890   5.181   0.524 -0.2878  1.4065 -0.3041
 3697TIP3    H232651   6.859   5.279   0.634 -1.0436  1.7058 -0.7790
 3698TIP3   OH232652   4.070   6.939   2.306 -0.0156 -0.4072  0.3298
 3698TIP3    H132653   4.129   7.010   2.330 -0.9934  0.4363  0.2819
 3698TIP3    H232654   4.008   6.934   2.379 -2.1434  1.2228 -1.2337
 3699TIP3   OH232655   2.729   1.896   0.300 -0.2898 -0.3398  0.3049
 3699TIP3    H132656   2.772   1.975   0.267  1.1448 -1.5226 -0.7791
 3699TIP3    H232657   2.693   1.922   0.385 -2.1144  2.1716 -1.0990
 3700TIP3   OH232658   3.087   5.475   1.809  0.4309  0.0855 -0.1724
 3700TIP3    H132659   3.012   5.530   1.791  1.1503  0.9094 -0.7384
 3700TIP3    H232660   3.160   5.536   1.822  0.9282 -0.6742  0.7785
 3701TIP3   OH232661   0.598   1.944   7.866  0.0506 -0.3249  0.2037
 3701TIP3    H132662   0.664   1.883   7.833 -0.0868  0.1721 -1.0481
 3701TIP3    H232663   0.629   2.030   7.840  0.0304  0.1275  1.5880
 3702TIP3   OH232664   3.170   0.128   8.462 -0.1199  0.0467 -0.0621
 3702TIP3    H132665   3.106   0.167   8.402  1.0630  1.9352 -0.1680
 3702TIP3    H232666   3.240   0.097   8.405  1.0631  1.9490  0.2655
 3703TIP3   OH232667   0.689   3.160   7.033 -0.1644  0.0665  0.2666
 3703TIP3    H132668   0.626   3.225   7.002 -0.0116  0.3726  0.5917
 3703TIP3    H232669   0.756   3.156   6.964 -1.3716 -1.4841 -0.8955
 3704TIP3   OH232670   4.794   2.407   0.838  0.3779  0.2558 -0.0627
 3704TIP3    H132671   4.881   2.438   0.862  1.2274 -0.2356 -2.2486
 3704TIP3    H232672   4.808   2.316   0.810 -0.9962 -0.1120  0.3751
 3705TIP3   OH232673   1.536   3.994   2.482 -0.8181 -0.0125 -0.4762
 3705TIP3    H132674   1.522   4.079   2.441  1.1253 -0.5918 -2.5018
 3705TIP3    H232675   1.623   4.001   2.523 -1.1234 -0.6781  0.3225
 3706TIP3   OH232676   5.219   1.529   0.472 -1.0101  0.2415  0.1682
 3706TIP3    H132677   5.195   1.457   0.414 -0.5755  0.7506 -0.6790
 3706TIP3    H232678   5.255   1.596   0.413 -1.7263  1.2952  0.8892
 3707TIP3   OH232679   6.423   0.151   0.037  0.1859 -0.0029  0.1573
 3707TIP3    H132680   6.363   0.197  -0.021  0.5199 -2.5736 -2.4172
 3707TIP3    H232681   6.381   0.156   0.123 -2.0270  1.0901 -0.8995
 3708TIP3   OH232682   3.799   1.676   1.163 -0.0551 -0.0236 -0.0025
 3708TIP3    H132683   3.743   1.737   1.115 -0.4454 -0.7460 -0.4828
 3708TIP3    H232684   3.888   1.703   1.140 -0.2059  0.8039  0.3519
 3709TIP3   OH232685   1.380   6.432   0.995  0.1406 -0.1299 -0.1020
 3709TIP3    H132686   1.463   6.480   0.988  1.1238 -1.4549  1.6488
 3709TIP3    H232687   1.313   6.500   0.992  1.3311  1.0735 -0.6310
 3710TIP3   OH232688   3.181   5.964   7.800  0.4952 -0.3497 -0.5132
 3710TIP3    H132689   3.102   6.018   7.805  0.6764  0.0076 -1.2782
 3710TIP3    H232690   3.254   6.026   7.808  0.7168 -0.7615  0.9387
 3711TIP3   OH232691   0.184   3.103   8.147 -0.0781 -0.4740 -0.2315
 3711TIP3    H132692   0.278   3.109   8.163 -0.2462 -1.3127  1.2400
 3711TIP3    H232693   0.144   3.158   8.215 -0.6499  0.1278 -1.0383
 3712TIP3   OH232694   3.462   4.502   7.825  0.6251  0.6574 -0.1258
 3712TIP3    H132695   3.506   4.586   7.806  1.7877 -0.2663 -1.8069
 3712TIP3    H232696   3.534   4.443   7.848 -0.2856  0.3304  2.0777
 3713TIP3   OH232697   1.768   2.308   7.288  0.0529  0.3492 -0.4733
 3713TIP3    H132698   1.826   2.258   7.231  0.1448  0.5666 -0.5727
 3713TIP3    H232699   1.796   2.399   7.277  0.6494  0.3150  0.5567
 3714TIP3   OH232700   6.705   2.275   0.512 -0.1791 -0.6978 -0.5788
 3714TIP3    H132701   6.756   2.247   0.588  0.1155 -0.7376 -0.7862
 3714TIP3    H232702   6.626   2.315   0.548  1.3677  2.1923 -0.1311
 3715TIP3   OH232703   1.765   3.735   7.356 -0.8171 -0.2182  0.3090
 3715TIP3    H132704   1.826   3.669   7.325 -1.3891 -0.8540  0.5097
 3715TIP3    H232705   1.806   3.771   7.435 -1.4457 -1.8493  1.4533
 3716TIP3   OH232706   6.287   3.363   8.491 -0.5531  0.2638 -0.3383
 3716TIP3    H132707   6.275   3.336   8.582 -1.0198 -0.5472 -0.6353
 3716TIP3    H232708   6.244   3.449   8.486  0.9435  1.1078  0.6050
 3717TIP3   OH232709   6.450   0.416   1.340 -0.0679  0.2408 -0.0419
 3717TIP3    H132710   6.544   0.397   1.342  0.3637  1.8222 -2.0459
 3717TIP3    H232711   6.415   0.356   1.275 -0.2118  0.5052 -0.2087
 3718TIP3   OH232712   3.747   2.287   1.650  0.5020 -0.0797  0.7569
 3718TIP3    H132713   3.798   2.211   1.622 -1.8134 -0.3149 -3.6918
 3718TIP3    H232714   3.665   2.249   1.683 -0.5275  0.3423 -1.1765
 3719TIP3   OH232715   1.046   1.128   8.494 -0.1371 -0.6059 -0.1421
 3719TIP3    H132716   1.115   1.067   8.518  0.3755 -1.1293 -2.6437
 3719TIP3    H232717   0.967   1.075   8.488  0.0463 -0.8034 -1.0147
 3720TIP3   OH232718   4.008   5.348   8.442 -0.1231 -0.4906 -0.1868
 3720TIP3    H132719   4.102   5.338   8.458  0.2802  0.0949 -1.9436
 3720TIP3    H232720   4.002   5.416   8.374 -1.8183 -0.4801 -0.0823
 3721TIP3   OH232721   1.183   6.330   8.057  0.2967 -0.4622 -0.2101
 3721TIP3    H132722   1.089   6.330   8.035  0.2494  0.4119 -0.0470
 3721TIP3    H232723   1.221   6.265   7.999 -0.1868  0.1989 -1.3187
 3722TIP3   OH232724   4.665   0.556   2.919  0.3973 -0.5075 -0.3587
 3722TIP3    H132725   4.699   0.645   2.908 -0.0107 -0.3868 -0.6679
 3722TIP3    H232726   4.591   0.551   2.859  0.8712 -1.3011 -0.8910
 3723TIP3   OH232727   3.702   2.563   1.354  0.1460 -0.1972  0.2984
 3723TIP3    H132728   3.697   2.568   1.449 -1.6804 -2.1505  0.3870
 3723TIP3    H232729   3.775   2.621   1.330  1.3960 -0.5569  2.9350
 3724TIP3   OH232730   3.522   0.869   0.941 -0.2016 -0.4109 -0.2654
 3724TIP3    H132731   3.433   0.900   0.926  0.1428  0.1403 -1.2543
 3724TIP3    H232732   3.578   0.936   0.901  0.6688 -0.6172  0.5684
 3725TIP3   OH232733   4.009   3.536   0.935 -0.2170  0.4015  0.6617
 3725TIP3    H132734   4.023   3.630   0.935 -1.2851  0.5803  0.9574
 3725TIP3    H232735   4.089   3.499   0.971 -0.5877  1.3385  2.5526
 3726TIP3   OH232736   3.673   6.517   1.841  0.0928  0.1299  0.2454
 3726TIP3    H132737   3.750   6.462   1.853  0.2351 -0.0424 -1.2795
 3726TIP3    H232738   3.635   6.488   1.759 -0.8837  1.0704  0.3392
 3727TIP3   OH232739   1.908   1.399   2.021 -0.6771  0.0200 -0.5968
 3727TIP3    H132740   1.886   1.335   2.089 -0.9648 -0.5925 -1.2547
 3727TIP3    H232741   1.956   1.348   1.956 -0.0888  0.6808 -0.6832
 3728TIP3   OH232742   1.849   3.204   6.744  0.0904 -0.4518  0.9466
 3728TIP3    H132743   1.826   3.227   6.834 -1.8352  0.0415  0.3789
 3728TIP3    H232744   1.891   3.282   6.709  0.4981 -0.5106  1.3040
 3729TIP3   OH232745   4.763   5.024   8.037  0.0589  0.2972  0.4458
 3729TIP3    H132746   4.755   4.964   7.963 -0.5253 -0.4736  1.1033
 3729TIP3    H232747   4.673   5.051   8.056  0.2476  0.8268  0.6046
 3730TIP3   OH232748   1.446   1.843   8.379 -0.0176  0.2646 -0.1183
 3730TIP3    H132749   1.412   1.759   8.349 -0.1147  0.4003 -0.3894
 3730TIP3    H232750   1.369   1.901   8.381  0.2681  0.7076 -1.1966
 3731TIP3   OH232751   4.525   1.117   7.770 -0.0549  0.5136  0.3168
 3731TIP3    H132752   4.593   1.151   7.828 -0.2605 -0.5134  1.1888
 3731TIP3    H232753   4.449   1.104   7.827 -0.2745 -0.4774 -0.1777
 3732TIP3   OH232754   6.909   4.570   2.393  0.3143  0.2201 -0.0467
 3732TIP3    H132755   6.896   4.657   2.357 -0.3178 -0.2483 -0.9959
 3732TIP3    H232756   7.001   4.550   2.375  0.5103  0.7602  0.3470
 3733TIP3   OH232757   2.494   0.476   8.243  0.6795 -0.4253  0.0470
 3733TIP3    H132758   2.474   0.468   8.337  0.5647  1.3256  0.2003
 3733TIP3    H232759   2.408   0.475   8.200  0.6996 -0.6341  0.0102
 3734TIP3   OH232760   3.550   6.038   1.430  0.0881 -0.6553  0.0266
 3734TIP3    H132761   3.540   6.030   1.336 -0.7602  0.7116 -0.0324
 3734TIP3    H232762   3.546   5.948   1.463 -0.2077 -1.0986 -1.1703
 3735TIP3   OH232763   2.199   2.888   2.100  0.1345 -1.0244 -0.2636
 3735TIP3    H132764   2.238   2.809   2.061 -1.9834 -2.3245  0.1324
 3735TIP3    H232765   2.110   2.863   2.122 -0.3456  1.2606  0.6713
 3736TIP3   OH232766   5.755   0.558   2.305  0.0161 -0.5393  0.4415
 3736TIP3    H132767   5.754   0.644   2.346 -0.2201 -0.5003  0.3550
 3736TIP3    H232768   5.824   0.563   2.239 -0.4519 -0.1966 -0.0305
 3737TIP3   OH232769   6.872   0.548   7.665 -0.4169  0.1026 -0.1390
 3737TIP3    H132770   6.816   0.590   7.600  1.2636  0.3369 -1.5106
 3737TIP3    H232771   6.847   0.588   7.748 -3.6482 -1.2449 -0.3213
 3738TIP3   OH232772   5.052   4.343   6.625 -0.5391  0.1942 -0.7482
 3738TIP3    H132773   5.133   4.390   6.605  0.5354 -0.1677  2.2368
 3738TIP3    H232774   4.992   4.411   6.657  0.0132 -0.0254  0.8204
 3739TIP3   OH232775   5.267   1.633   8.093  0.4538  0.0949 -0.3850
 3739TIP3    H132776   5.199   1.667   8.035 -0.8459  1.6022  1.8488
 3739TIP3    H232777   5.297   1.553   8.050  0.0523  1.3983 -3.3928
 3740TIP3   OH232778   3.581   6.465   8.386 -0.3278 -0.4621 -0.2854
 3740TIP3    H132779   3.487   6.477   8.374 -0.3255  1.5362  1.0841
 3740TIP3    H232780   3.619   6.550   8.362  0.8014 -0.3361  1.7350
 3741TIP3   OH232781   4.023   1.994   2.390 -0.0503 -0.3323 -0.0760
 3741TIP3    H132782   4.047   2.080   2.424 -0.6414  1.0748 -2.9571
 3741TIP3    H232783   3.937   1.976   2.428 -1.4101  1.8982 -1.8549
 3742TIP3   OH232784   6.411   1.624   1.632  0.9493  1.1511 -0.2507
 3742TIP3    H132785   6.375   1.573   1.560  0.3949 -0.8715  1.3578
 3742TIP3    H232786   6.336   1.673   1.667  1.1869  2.0124 -0.9024
 3743TIP3   OH232787   2.487   2.136   2.599  0.1682 -0.0683  0.0514
 3743TIP3    H132788   2.436   2.075   2.546 -0.0407  0.7422 -0.7003
 3743TIP3    H232789   2.574   2.135   2.561  0.3373 -0.3791  0.4432
 3744TIP3   OH232790   5.654   2.771   0.677  0.2047  0.1718 -0.2604
 3744TIP3    H132791   5.728   2.711   0.671  0.4380  0.4482 -0.1468
 3744TIP3    H232792   5.661   2.826   0.599 -0.4731 -0.4707 -0.7905
 3745TIP3   OH232793   6.901   0.157   1.503  0.6981  0.2796 -0.1876
 3745TIP3    H132794   6.981   0.174   1.453  1.1300  0.5444  0.5680
 3745TIP3    H232795   6.886   0.063   1.493  2.7360 -0.3764  1.9288
 3746TIP3   OH232796   5.482   6.893   7.247  0.6694  0.2122  0.0585
 3746TIP3    H132797   5.395   6.927   7.267 -0.0403 -1.5035  0.0897
 3746TIP3    H232798   5.528   6.965   7.204 -2.1817 -0.0302 -3.9235
 3747TIP3   OH232799   6.430   4.666   1.769  0.0298 -0.1013  0.7762
 3747TIP3    H132800   6.406   4.749   1.729  1.2167 -0.4576 -0.7858
 3747TIP3    H232801   6.470   4.690   1.853 -0.6812  0.8098  0.8600
 3748TIP3   OH232802   3.730   2.605   0.711 -0.2031 -0.4128 -0.0513
 3748TIP3    H132803   3.724   2.630   0.804 -1.1944  0.5408 -0.3521
 3748TIP3    H232804   3.646   2.631   0.674  0.2888 -0.5392 -1.2925
 3749TIP3   OH232805   1.608   1.357   6.811  0.1910  0.4180  0.8349
 3749TIP3    H132806   1.560   1.429   6.852  1.2053  1.1094  0.8541
 3749TIP3    H232807   1.563   1.343   6.728 -2.2884 -1.4365  2.3590
 3750TIP3   OH232808   6.315   4.772   1.422 -0.1564  0.1136 -0.1570
 3750TIP3    H132809   6.251   4.744   1.488  0.2959 -1.0641 -0.2057
 3750TIP3    H232810   6.317   4.868   1.430 -3.0416  0.3442 -1.1909
 3751TIP3   OH232811   6.104   0.315   7.043 -0.0843  0.1831 -0.2422
 3751TIP3    H132812   6.095   0.398   7.090  1.1285  0.1355  0.1271
 3751TIP3    H232813   6.018   0.274   7.049 -1.1911  2.1409 -1.8902
 3752TIP3   OH232814   4.298   2.692   7.051  0.9375 -0.3290  0.1666
 3752TIP3    H132815   4.343   2.608   7.046  1.3729 -0.0523 -0.8285
 3752TIP3    H232816   4.367   2.755   7.070  0.6792 -0.1418  0.4894
 3753TIP3   OH232817   0.072   4.505   8.092 -0.3906 -0.8403  0.8883
 3753TIP3    H132818   0.149   4.486   8.037 -0.5190  0.3339  0.2756
 3753TIP3    H232819  -0.003   4.487   8.035 -0.5440 -0.6938  1.0423
 3754TIP3   OH232820   3.703   1.659   0.760  0.0136 -0.1920  0.1714
 3754TIP3    H132821   3.747   1.575   0.747  0.5223  0.1833 -0.6427
 3754TIP3    H232822   3.612   1.642   0.735  0.2252 -0.3772 -0.4884
 3755TIP3   OH232823   2.219   4.424   0.973  0.2493 -0.0106 -0.3075
 3755TIP3    H132824   2.238   4.391   1.060  0.4245  0.3607 -0.2009
 3755TIP3    H232825   2.263   4.362   0.914 -1.0755 -1.0852 -0.2082
 3756TIP3   OH232826   6.392   3.241   2.475  0.1279 -0.5495  0.3783
 3756TIP3    H132827   6.476   3.233   2.520 -0.7358 -1.5562  1.9204
 3756TIP3    H232828   6.385   3.334   2.454  1.4106 -0.3673  0.6643
 3757TIP3   OH232829   4.763   5.655   2.489 -0.3802 -1.1065 -0.5219
 3757TIP3    H132830   4.720   5.731   2.449  0.2457 -1.2466 -1.4742
 3757TIP3    H232831   4.775   5.680   2.581 -0.7134 -0.2983 -0.6905
 3758TIP3   OH232832   6.910   5.720   6.522  0.0111  0.0878  0.1373
 3758TIP3    H132833   6.965   5.781   6.474 -0.6920  0.4117 -0.2725
 3758TIP3    H232834   6.823   5.729   6.483 -0.7626  0.8739  1.9169
 3759TIP3   OH232835   0.055   4.138   1.590 -0.5186  0.3577  0.2056
 3759TIP3    H132836   0.084   4.115   1.502 -3.8283 -1.0857 -0.7006
 3759TIP3    H232837   0.116   4.095   1.649  1.1633  0.5014 -1.3696
 3760TIP3   OH232838   6.530   2.848   2.211  0.2144  0.5278 -0.1325
 3760TIP3    H132839   6.582   2.870   2.133  0.2571 -0.6080 -0.4478
 3760TIP3    H232840   6.551   2.756   2.228 -0.3314  0.5680  0.8135
 3761TIP3   OH232841   0.776   6.760   0.742  0.5892 -0.0192  0.0249
 3761TIP3    H132842   0.699   6.815   0.758 -0.9739 -2.0073 -0.1921
 3761TIP3    H232843   0.764   6.727   0.653  1.3723 -0.8764  0.2246
 3762TIP3   OH232844   3.421   4.399   1.291 -0.2696  0.2393 -0.1519
 3762TIP3    H132845   3.373   4.344   1.230  0.3620 -0.1423 -0.3155
 3762TIP3    H232846   3.358   4.420   1.360 -1.4988  2.0210 -1.7161
 3763TIP3   OH232847   5.998   2.270   0.321  0.1464  0.2940  0.3558
 3763TIP3    H132848   5.905   2.260   0.342  0.0883  0.8781  0.3882
 3763TIP3    H232849   6.002   2.250   0.227 -0.3051  1.9437 -0.0492
 3764TIP3   OH232850   0.213   4.322   8.283 -0.0773  0.5447 -0.0557
 3764TIP3    H132851   0.187   4.296   8.371 -1.6909 -2.3652 -1.2307
 3764TIP3    H232852   0.138   4.372   8.250  0.2941  1.1530 -0.0026
 3765TIP3   OH232853   3.623   1.901   2.751  0.0264 -0.0273 -0.0514
 3765TIP3    H132854   3.692   1.964   2.731 -0.9108  0.8579 -0.5755
 3765TIP3    H232855   3.548   1.930   2.699 -1.3571  0.1993  1.9390
 3766TIP3   OH232856   2.887   0.512   1.137 -0.4097 -0.5182 -0.6654
 3766TIP3    H132857   2.862   0.579   1.074  0.7637  0.8519  0.2559
 3766TIP3    H232858   2.807   0.494   1.186 -0.4334  1.3493  0.0529
 3767TIP3   OH232859   0.557   6.564   0.052 -0.3756  0.3401 -0.5719
 3767TIP3    H132860   0.513   6.513   0.120 -1.0277  1.0967 -0.4052
 3767TIP3    H232861   0.638   6.594   0.093 -1.3967  1.9319  0.3680
 3768TIP3   OH232862   6.770   5.706   2.169 -0.5021  0.1957 -0.2032
 3768TIP3    H132863   6.696   5.760   2.141  0.8162  2.2079 -0.0056
 3768TIP3    H232864   6.822   5.764   2.224  1.4775 -1.0051 -0.7398
 3769TIP3   OH232865   6.734   3.018   1.462 -0.0835 -0.1427  0.5235
 3769TIP3    H132866   6.707   2.944   1.516  0.2248 -0.4921  0.2004
 3769TIP3    H232867   6.666   3.084   1.476 -0.8076 -0.7985  0.1681
 3770TIP3   OH232868   2.482   5.624   0.963  0.4408 -0.0405 -0.5209
 3770TIP3    H132869   2.414   5.663   0.909  2.6164  0.5151 -3.1078
 3770TIP3    H232870   2.537   5.575   0.901  2.5573 -0.1872  1.3361
 3771TIP3   OH232871   0.041   0.476   1.848  0.2600 -0.0691  0.1438
 3771TIP3    H132872   0.021   0.562   1.810  0.8239 -0.2404 -0.5512
 3771TIP3    H232873  -0.044   0.432   1.854  0.3023 -0.5903 -2.2780
 3772TIP3   OH232874   4.935   0.685   0.534 -0.9725  0.2681  0.1023
 3772TIP3    H132875   4.909   0.771   0.501  1.4500  1.6672  1.5847
 3772TIP3    H232876   4.939   0.696   0.629 -1.2714 -1.7292  0.4025
 3773TIP3   OH232877   0.311   5.237   7.066 -0.9786 -0.2115 -0.5486
 3773TIP3    H132878   0.238   5.298   7.049 -0.7835 -0.7496 -4.1647
 3773TIP3    H232879   0.389   5.292   7.065 -1.1253  0.1066  1.4851
 3774TIP3   OH232880   5.037   4.778   8.213  0.5248 -0.0667 -0.4246
 3774TIP3    H132881   5.103   4.725   8.258 -0.0919 -1.1894 -0.7931
 3774TIP3    H232882   5.066   4.780   8.122  0.4528  0.0681 -0.4441
 3775TIP3   OH232883   0.330   5.460   6.788  0.3750  0.3186 -0.0266
 3775TIP3    H132884   0.396   5.391   6.793  2.2630  2.1117  2.3001
 3775TIP3    H232885   0.365   5.522   6.723 -0.8661 -0.3864 -1.4330
 3776TIP3   OH232886   2.741   2.549   2.220  0.5453  0.0950 -0.1005
 3776TIP3    H132887   2.761   2.569   2.312 -1.1466 -0.8069  0.5188
 3776TIP3    H232888   2.664   2.492   2.225  1.4277 -1.3475 -2.0348
 3777TIP3   OH232889   0.403   5.469   8.525 -0.0506 -0.2313  0.3535
 3777TIP3    H132890   0.396   5.564   8.526  1.1909 -0.1167  1.6045
 3777TIP3    H232891   0.318   5.438   8.491 -0.9202  1.2661  1.0890
 3778TIP3   OH232892   4.960   1.567   8.201  0.4222 -0.1652  0.2106
 3778TIP3    H132893   5.054   1.586   8.205  0.5151 -0.1626 -1.4189
 3778TIP3    H232894   4.932   1.605   8.118 -1.2355  0.6959  1.1367
 3779TIP3   OH232895   3.229   1.396   7.208  0.0351 -0.1621  0.7144
 3779TIP3    H132896   3.189   1.432   7.129  0.9895  0.2313  0.4008
 3779TIP3    H232897   3.176   1.431   7.280 -2.8794 -3.0535  0.2030
 3780TIP3   OH232898   0.762   1.046   0.893 -0.0653 -0.0107  0.0628
 3780TIP3    H132899   0.838   1.046   0.952 -0.1822  0.5858  0.2225
 3780TIP3    H232900   0.715   1.125   0.916 -0.5667 -0.2136 -0.2632
 3781TIP3   OH232901   1.889   3.809   0.414 -0.4005 -0.1237  0.5375
 3781TIP3    H132902   1.937   3.833   0.493 -1.0094  0.2050  0.8207
 3781TIP3    H232903   1.834   3.885   0.396  1.6450  0.9315 -1.7498
 3782TIP3   OH232904   2.131   0.124   0.380  0.2503 -0.0917  0.4034
 3782TIP3    H132905   2.158   0.032   0.381 -2.8122 -1.1293  1.4180
 3782TIP3    H232906   2.067   0.129   0.309  0.2151  1.2167  0.5071
 3783TIP3   OH232907   5.742   4.484   7.071 -0.1107 -0.3162 -0.0358
 3783TIP3    H132908   5.703   4.397   7.077 -0.8248  0.0547  0.9470
 3783TIP3    H232909   5.818   4.480   7.129  1.4792 -1.0884 -2.0727
 3784TIP3   OH232910   3.376   4.330   7.369  0.1835  0.4192 -0.3181
 3784TIP3    H132911   3.466   4.347   7.396  0.6203 -0.7358 -0.9858
 3784TIP3    H232912   3.384   4.288   7.283 -0.8269 -1.9525  0.6430
 3785TIP3   OH232913   3.913   2.040   1.579  1.0888  0.2891  0.6105
 3785TIP3    H132914   3.902   1.945   1.585 -0.8578  0.5127  1.2426
 3785TIP3    H232915   3.935   2.056   1.487  2.0748 -0.8090  0.6344
 3786TIP3   OH232916   3.456   1.455   1.119  0.0376 -0.8250  0.3324
 3786TIP3    H132917   3.434   1.440   1.210 -2.2801 -0.1423 -0.0540
 3786TIP3    H232918   3.482   1.547   1.115 -0.1559 -0.7742  0.2477
 3787TIP3   OH232919   5.020   0.088   0.894  0.1817 -0.7397 -0.1978
 3787TIP3    H132920   4.938   0.066   0.940  0.7169 -1.3172  0.5113
 3787TIP3    H232921   5.021   0.030   0.819  0.9038 -2.2066  0.9009
 3788TIP3   OH232922   6.138   3.179   7.561 -0.2458  0.0127 -0.5896
 3788TIP3    H132923   6.063   3.136   7.519  0.2219  0.7087 -2.2326
 3788TIP3    H232924   6.100   3.231   7.631 -1.2363 -0.1439 -0.9888
 3789TIP3   OH232925   4.754   4.409   0.569  0.1585  0.4859  0.2547
 3789TIP3    H132926   4.830   4.422   0.512 -0.1999  1.5498 -0.0221
 3789TIP3    H232927   4.705   4.491   0.561 -0.2039  0.4221  1.6596
 3790TIP3   OH232928   4.016   3.625   1.228  0.2261  0.4812 -0.1065
 3790TIP3    H132929   4.038   3.533   1.234 -1.1722  0.2255  2.5649
 3790TIP3    H232930   3.926   3.626   1.194  1.0585  1.0585 -2.4918
 3791TIP3   OH232931   0.592   1.558   0.965 -0.3016 -0.0857 -0.6933
 3791TIP3    H132932   0.532   1.512   1.023  0.5677 -2.0868 -1.2841
 3791TIP3    H232933   0.677   1.552   1.008 -0.0685  0.5017 -1.0513
 3792TIP3   OH232934   0.205   1.853   7.333 -0.2905  0.1097 -0.2462
 3792TIP3    H132935   0.167   1.929   7.376 -0.4993  0.7008 -1.4266
 3792TIP3    H232936   0.285   1.887   7.291 -1.5889  0.2920 -2.7766
 3793TIP3   OH232937   0.864   0.367   0.685  0.4228  0.1156 -0.0873
 3793TIP3    H132938   0.876   0.370   0.590  0.1961 -1.2234 -0.1916
 3793TIP3    H232939   0.952   0.374   0.721  0.5210  0.5118 -0.4073
 3794TIP3   OH232940   4.044   4.464   0.399  0.8497 -0.3944  0.3037
 3794TIP3    H132941   4.098   4.386   0.392  0.9515 -0.2081 -1.8503
 3794TIP3    H232942   3.954   4.433   0.389  0.6475 -0.5137  2.2142
 3795TIP3   OH232943   1.507   3.269   8.125  0.3842  0.2679  0.0287
 3795TIP3    H132944   1.426   3.307   8.158  0.7260  0.1788  1.0062
 3795TIP3    H232945   1.485   3.177   8.107  0.6306 -0.1881  1.8078
 3796TIP3   OH232946   6.330   5.512   7.267  0.2774  0.6544  0.2031
 3796TIP3    H132947   6.273   5.532   7.341 -1.6903 -0.3948 -0.9690
 3796TIP3    H232948   6.288   5.554   7.192  2.2020  1.6538 -0.4013
 3797TIP3   OH232949   1.143   2.072   1.307  0.2027  0.5921 -0.0685
 3797TIP3    H132950   1.146   2.084   1.212  0.7271  2.2483  0.1267
 3797TIP3    H232951   1.208   2.004   1.325  0.9564  1.1038 -0.7883
 3798TIP3   OH232952   6.217   5.773   7.853 -0.9166 -0.4407  0.0471
 3798TIP3    H132953   6.235   5.753   7.761 -2.8829  1.1669 -0.7790
 3798TIP3    H232954   6.303   5.793   7.891 -0.2032  0.3376 -1.8452
 3799TIP3   OH232955   0.293   5.706   8.291 -0.1767  1.0688 -0.5322
 3799TIP3    H132956   0.283   5.774   8.359 -2.3780  0.4628 -0.1690
 3799TIP3    H232957   0.214   5.713   8.238  0.7218  0.3938 -2.0324
 3800TIP3   OH232958   4.089   2.507   7.845 -0.1180 -0.0645 -0.2855
 3800TIP3    H132959   4.058   2.421   7.873 -0.1176 -0.0737 -0.3135
 3800TIP3    H232960   4.168   2.522   7.896 -1.6316  1.1687  1.8475
 3801TIP3   OH232961   3.555   1.611   8.266  0.5886  0.1039 -0.0588
 3801TIP3    H132962   3.541   1.610   8.361  1.3514 -0.4026  0.0505
 3801TIP3    H232963   3.592   1.697   8.248  2.1745 -0.4570  0.3706
 3802TIP3   OH232964   5.925   0.905   0.701  0.2171  0.0820  0.3615
 3802TIP3    H132965   6.000   0.960   0.726 -0.5377  0.8669  0.9314
 3802TIP3    H232966   5.884   0.952   0.629  0.0630 -0.1775  0.2778
 3803TIP3   OH232967   6.829   2.114   6.395 -0.1321  0.0961  0.6820
 3803TIP3    H132968   6.920   2.092   6.413 -0.4136 -0.9985  0.7828
 3803TIP3    H232969   6.778   2.052   6.447 -0.9391  0.7307  0.6652
 3804TIP3   OH232970   2.717   3.214   2.682  0.0877 -0.1521  0.2850
 3804TIP3    H132971   2.791   3.171   2.724  0.5164  0.2788 -0.0182
 3804TIP3    H232972   2.672   3.144   2.635  0.8708 -0.2523 -0.3364
 3805TIP3   OH232973   1.883   0.400   8.500  0.1987 -0.1323  0.4405
 3805TIP3    H132974   1.928   0.440   8.426 -1.1427 -1.0021 -0.8914
 3805TIP3    H232975   1.883   0.306   8.481 -0.3954 -0.3464  1.4223
 3806TIP3   OH232976   4.272   0.548   2.242 -0.1368  0.2322 -0.1603
 3806TIP3    H132977   4.292   0.505   2.326 -2.1569 -1.6856 -0.5769
 3806TIP3    H232978   4.185   0.586   2.255 -1.3144 -1.7287 -1.9296
 3807TIP3   OH232979   6.584   0.891   6.288  0.4056 -0.4540 -0.1386
 3807TIP3    H132980   6.556   0.981   6.300  1.2359  0.5700 -4.3868
 3807TIP3    H232981   6.504   0.839   6.294 -0.0795  0.4524  2.3880
 3808TIP3   OH232982   3.517   1.185   1.497 -0.4389  0.4627  0.5951
 3808TIP3    H132983   3.493   1.100   1.458 -0.5087  0.7884 -0.0910
 3808TIP3    H232984   3.463   1.249   1.451 -0.8221  0.8295  1.5279
 3809TIP3   OH232985   0.759   6.907   2.605  0.3424  0.7373  0.2228
 3809TIP3    H132986   0.715   6.956   2.674  0.6281  1.3117  0.0056
 3809TIP3    H232987   0.848   6.893   2.638 -0.1206 -0.8670  0.8814
 3810TIP3   OH232988   3.188   3.214   2.725 -0.4800 -0.2945  0.0355
 3810TIP3    H132989   3.257   3.280   2.721  0.4632 -1.2178  0.4939
 3810TIP3    H232990   3.109   3.262   2.748 -0.4482  1.1063 -2.4790
 3811TIP3   OH232991   4.905   0.554   7.628 -0.2445  0.0968  0.6140
 3811TIP3    H132992   4.878   0.642   7.654  0.7460 -0.3628  3.4428
 3811TIP3    H232993   4.880   0.498   7.701 -0.1840 -1.8811 -0.8043
 3812TIP3   OH232994   6.531   4.414   2.442 -0.0447  0.0629  0.0727
 3812TIP3    H132995   6.481   4.335   2.458  0.9055 -0.4966  0.3960
 3812TIP3    H232996   6.521   4.466   2.523  1.6091 -1.0195  1.0288
 3813TIP3   OH232997   0.730   0.794   6.945 -0.2420  0.0975 -0.1157
 3813TIP3    H132998   0.815   0.752   6.956  0.3330  1.4037  0.5191
 3813TIP3    H232999   0.681   0.770   7.024 -0.4923 -0.6560 -0.4825
 3814TIP3   OH233000   0.369   0.990   7.716 -0.0359 -0.2678 -0.3895
 3814TIP3    H133001   0.407   1.051   7.780  0.1613 -1.7861  1.0065
 3814TIP3    H233002   0.441   0.929   7.696 -0.2042 -0.0271 -1.8208
 3815TIP3   OH233003   1.598   5.636   7.810  0.1128  0.3682 -0.0144
 3815TIP3    H133004   1.547   5.591   7.877 -0.6663  0.8738 -0.2510
 3815TIP3    H233005   1.669   5.575   7.789 -0.8455 -0.7166 -0.2519
 3816TIP3   OH233006   2.226   3.570   1.126 -0.2343  0.0579 -0.9170
 3816TIP3    H133007   2.272   3.577   1.210 -1.2378 -1.1140 -0.2362
 3816TIP3    H233008   2.150   3.628   1.135 -0.3586 -0.0898 -1.0024
 3817TIP3   OH233009   4.667   0.147   8.038  0.7185  0.2888  0.1024
 3817TIP3    H133010   4.579   0.183   8.026  0.5991 -0.3047 -0.9227
 3817TIP3    H233011   4.653   0.053   8.043  1.0150  0.3072  2.8458
 3818TIP3   OH233012   5.849   5.198   7.296  0.5356  0.5418  0.4336
 3818TIP3    H133013   5.784   5.149   7.246  0.7948  0.0141  0.6023
 3818TIP3    H233014   5.908   5.235   7.231  2.8642 -2.8663  0.3294
 3819TIP3   OH233015   3.057   3.269   1.520 -0.2620  0.0796  0.2781
 3819TIP3    H133016   2.992   3.199   1.521  0.8525 -0.9942  1.4764
 3819TIP3    H233017   3.008   3.348   1.544 -1.2458 -0.5695  0.4620
 3820TIP3   OH233018   6.451   5.962   8.476  0.6313 -0.6238  0.1840
 3820TIP3    H133019   6.355   5.954   8.479  0.4505  0.7740 -0.5760
 3820TIP3    H233020   6.471   5.969   8.383  1.0128  3.0083  0.3851
 3821TIP3   OH233021   4.768   1.865   7.747 -0.9174 -0.3956  0.3991
 3821TIP3    H133022   4.749   1.933   7.682 -2.9236  0.3303  1.6534
 3821TIP3    H233023   4.809   1.795   7.697  1.0492  1.5804 -1.0119
 3822TIP3   OH233024   2.776   5.259   2.274 -0.1409  0.1627 -0.5774
 3822TIP3    H133025   2.779   5.307   2.357  0.8277  0.3153 -0.6988
 3822TIP3    H233026   2.685   5.228   2.269  0.0042 -0.6391  0.9917
 3823TIP3   OH233027   5.250   4.637   6.621  0.0339 -0.4247  0.0899
 3823TIP3    H133028   5.182   4.704   6.609 -0.6606 -1.2187 -0.4755
 3823TIP3    H233029   5.330   4.678   6.585 -0.1924  0.4071  0.5091
 3824TIP3   OH233030   2.770   0.401   8.254  0.3831 -0.3680 -0.5689
 3824TIP3    H133031   2.797   0.477   8.203  0.0498  0.4812  0.4927
 3824TIP3    H233032   2.676   0.413   8.267  0.6574  0.0651  1.2336
 3825TIP3   OH233033   1.758   6.039   7.073 -0.0349 -0.5443 -0.3174
 3825TIP3    H133034   1.799   5.958   7.043 -0.2994 -1.1319  0.8420
 3825TIP3    H233035   1.667   6.031   7.045 -0.2400 -1.0116  0.4480
 3826TIP3   OH233036   6.929   3.174   8.337  0.0987  0.5318  0.3648
 3826TIP3    H133037   6.905   3.264   8.318  2.1687  1.2994  1.0247
 3826TIP3    H233038   6.994   3.181   8.408 -0.3065 -1.5334  1.0118
 3827TIP3   OH233039   6.843   4.534   7.766 -0.0514 -0.4742 -0.4625
 3827TIP3    H133040   6.767   4.494   7.809  0.0335 -0.1411 -0.0018
 3827TIP3    H233041   6.838   4.626   7.791  1.4162 -0.7323  0.9004
 3828TIP3   OH233042   0.133   1.628   0.385  0.2029 -0.3527  0.2373
 3828TIP3    H133043   0.164   1.649   0.297 -0.0553  1.5480  0.5682
 3828TIP3    H233044   0.158   1.703   0.438 -1.6015 -0.4443  1.3126
 3829TIP3   OH233045   3.519   1.571   0.027 -0.4481  0.0191  0.7740
 3829TIP3    H133046   3.581   1.500   0.014  1.1797  1.3397  0.9094
 3829TIP3    H233047   3.498   1.569   0.120 -0.1881 -0.1022  0.8283
 3830TIP3   OH233048   1.888   2.572   0.128 -0.1730  0.1525 -0.1709
 3830TIP3    H133049   1.794   2.553   0.135 -0.3000  0.7757 -0.1475
 3830TIP3    H233050   1.930   2.486   0.131 -0.5511 -0.0216  2.8083
 3831TIP3   OH233051   1.460   6.303   7.196  0.4743 -0.0818  0.1050
 3831TIP3    H133052   1.412   6.316   7.114  1.2497  0.2445 -0.3094
 3831TIP3    H233053   1.405   6.344   7.263  0.6377  1.1715 -0.5019
 3832TIP3   OH233054   2.272   5.531   1.331 -0.0073  0.5446  0.0205
 3832TIP3    H133055   2.355   5.553   1.289  0.4633  1.4106  1.3612
 3832TIP3    H233056   2.283   5.440   1.359 -0.8948 -0.6217 -2.9672
 3833TIP3   OH233057   6.099   5.473   6.854 -0.4310  0.5527  0.3956
 3833TIP3    H133058   6.084   5.379   6.843 -2.7998  0.7205  1.5842
 3833TIP3    H233059   6.162   5.494   6.786 -1.3360 -1.5469 -1.2437
 3834TIP3   OH233060   6.133   4.434   8.111 -0.0997 -0.1368  0.6602
 3834TIP3    H133061   6.101   4.399   8.028  0.7360  1.6504 -0.4951
 3834TIP3    H233062   6.086   4.516   8.122  2.5487  1.6477 -0.1612
 3835TIP3   OH233063   2.627   4.514   8.194 -0.4819  0.1707 -0.2787
 3835TIP3    H133064   2.611   4.517   8.100  2.5567 -0.6249 -0.9285
 3835TIP3    H233065   2.663   4.426   8.210  0.2456  0.7170  1.3750
 3836TIP3   OH233066   1.447   4.477   8.204 -0.6177  0.0681 -0.5547
 3836TIP3    H133067   1.489   4.393   8.223 -0.5622  0.5588  1.7719
 3836TIP3    H233068   1.518   4.533   8.173 -0.2996 -0.2346 -0.3760
 3837TIP3   OH233069   3.117   1.192   1.720  0.0529 -0.0988 -0.0122
 3837TIP3    H133070   3.021   1.189   1.722  0.0014 -1.0416 -1.8658
 3837TIP3    H233071   3.140   1.162   1.632  2.2139 -3.5547  1.5249
 3838TIP3   OH233072   2.431   0.956   0.734 -0.0883 -0.6092  0.0905
 3838TIP3    H133073   2.506   0.973   0.678 -0.9198  0.4320 -0.7755
 3838TIP3    H233074   2.359   1.002   0.691 -0.5364  1.2505  2.6023
 3839TIP3   OH233075   5.787   6.780   0.920 -0.1073  0.2148  0.4440
 3839TIP3    H133076   5.795   6.875   0.918  0.1891  0.1966  0.5912
 3839TIP3    H233077   5.697   6.762   0.893  0.3985  0.4450 -1.4956
 3840TIP3   OH233078   6.084   0.820   7.670  0.2744 -0.3643 -0.2261
 3840TIP3    H133079   6.047   0.795   7.585 -0.0199  0.3033 -0.2968
 3840TIP3    H233080   6.066   0.745   7.727  0.3442 -0.7552 -0.7118
 3841TIP3   OH233081   2.612   0.219   7.094 -0.2090  0.3566 -0.0012
 3841TIP3    H133082   2.582   0.226   7.184 -2.0191 -2.4355 -0.2763
 3841TIP3    H233083   2.657   0.134   7.090 -1.4813 -0.2879 -2.0164
 3842TIP3   OH233084   3.633   3.339   1.145  0.3606 -0.0753 -0.1737
 3842TIP3    H133085   3.539   3.346   1.128  0.7165 -0.7508 -2.7769
 3842TIP3    H233086   3.665   3.280   1.077  2.2221 -2.3876  2.4916
 3843TIP3   OH233087   4.052   3.595   7.714 -0.4757 -0.4782 -0.4559
 3843TIP3    H133088   4.057   3.533   7.787  0.1895  0.2255  0.1017
 3843TIP3    H233089   4.051   3.681   7.755 -0.9328 -0.0937 -1.2518
 3844TIP3   OH233090   1.472   2.136   1.155 -0.1094 -0.3447  0.1737
 3844TIP3    H133091   1.487   2.070   1.087  2.0350 -1.3023  1.4918
 3844TIP3    H233092   1.558   2.173   1.172 -0.9272  1.2597  1.0298
 3845TIP3   OH233093   0.759   5.841   0.520 -0.3479 -0.4847 -0.3157
 3845TIP3    H133094   0.692   5.859   0.586  0.9164  0.9331  0.6390
 3845TIP3    H233095   0.834   5.810   0.570  1.5214  2.9946 -0.6966
 3846TIP3   OH233096   3.207   5.379   0.614  0.6582  0.7033  0.7736
 3846TIP3    H133097   3.225   5.387   0.708  2.4727 -0.1834  0.5571
 3846TIP3    H233098   3.294   5.384   0.574 -0.0432  0.4898 -0.8167
 3847TIP3   OH233099   1.986   2.791   1.294 -0.2509 -0.0050 -0.0843
 3847TIP3    H133100   1.914   2.837   1.336 -1.1349 -1.6100  0.2173
 3847TIP3    H233101   1.984   2.702   1.330 -0.2412 -1.0830 -2.5008
 3848TIP3   OH233102   4.500   1.731   0.090  0.0650  0.1179  0.3806
 3848TIP3    H133103   4.556   1.762   0.019  1.5763  0.4966  1.6929
 3848TIP3    H233104   4.443   1.805   0.110  0.4145  0.4045  0.3234
 3849TIP3   OH233105   6.140   2.960   0.920 -0.4663 -0.4984 -0.2150
 3849TIP3    H133106   6.120   3.033   0.861  0.7379 -1.2534 -1.6485
 3849TIP3    H233107   6.132   2.882   0.864  1.6261 -1.1709  0.3407
 3850TIP3   OH233108   0.947   3.062   8.488 -0.1686 -0.2969 -0.1946
 3850TIP3    H133109   0.964   3.151   8.459 -0.3027  0.7211  2.5115
 3850TIP3    H233110   1.031   3.031   8.521  0.1500 -1.6619 -2.1370
 3851TIP3   OH233111   2.213   6.174   7.565 -0.2062 -0.0412 -0.1568
 3851TIP3    H133112   2.270   6.250   7.565  0.5610 -0.5873  1.2588
 3851TIP3    H233113   2.208   6.147   7.656 -2.3170 -0.3427 -0.2982
 3852TIP3   OH233114   4.902   1.916   1.804  0.3581 -0.5237 -0.5537
 3852TIP3    H133115   4.851   1.929   1.884 -0.5098 -1.8323 -0.8751
 3852TIP3    H233116   4.955   1.995   1.797  0.2365 -0.2593  1.1540
 3853TIP3   OH233117   5.073   6.190   1.753  0.4270 -0.0841  0.0281
 3853TIP3    H133118   5.024   6.216   1.675  0.0997 -2.3499 -0.6190
 3853TIP3    H233119   5.005   6.162   1.815  0.7398  0.5917  0.6817
 3854TIP3   OH233120   0.028   0.635   7.996  0.4852 -0.1878 -0.5828
 3854TIP3    H133121  -0.007   0.547   7.983 -0.3212 -0.1012  0.8294
 3854TIP3    H233122  -0.048   0.692   7.998  0.8251  0.2637  0.5639
 3855TIP3   OH233123   0.097   4.939   7.335 -0.0458 -0.1893  0.1979
 3855TIP3    H133124   0.139   4.874   7.279 -0.8288 -0.6431  0.1146
 3855TIP3    H233125   0.161   4.959   7.403  0.7966  0.1333 -0.6814
 3856TIP3   OH233126   2.710   5.566   0.509 -0.5041 -0.5706 -0.5192
 3856TIP3    H133127   2.641   5.508   0.540  0.4304 -1.5348 -0.1517
 3856TIP3    H233128   2.791   5.518   0.529  0.3091  0.9338 -0.0540
 3857TIP3   OH233129   5.518   5.946   0.173 -0.4926 -0.5851  0.3724
 3857TIP3    H133130   5.541   6.037   0.189 -0.8105 -0.3204 -0.6282
 3857TIP3    H233131   5.452   5.925   0.240 -0.1679 -0.1896  0.8147
 3858TIP3   OH233132   6.155   3.050   0.526  0.5469 -0.6258  0.0317
 3858TIP3    H133133   6.149   3.136   0.484 -1.6723 -0.5804  0.3121
 3858TIP3    H233134   6.152   2.987   0.454  0.5609 -0.4893 -0.0864
 3859TIP3   OH233135   2.837   3.401   8.465 -0.4210  0.2207 -0.6595
 3859TIP3    H133136   2.784   3.362   8.534 -0.4679  0.9189 -0.2921
 3859TIP3    H233137   2.815   3.351   8.386 -0.7057 -0.2847 -0.2665
 3860TIP3   OH233138   0.546   5.448   7.380  0.3584 -0.3354 -0.5263
 3860TIP3    H133139   0.632   5.435   7.340  0.1882 -2.2053 -0.3529
 3860TIP3    H233140   0.503   5.512   7.324  1.5539 -0.0011 -1.0912
 3861TIP3   OH233141   0.588   3.947   1.791 -0.2700  0.1379  0.2284
 3861TIP3    H133142   0.602   4.029   1.839  1.4482  0.0138  0.0051
 3861TIP3    H233143   0.607   3.879   1.855  1.7973 -0.0293 -0.4978
 3862TIP3   OH233144   6.137   1.314   0.714 -0.7701 -0.2035 -0.0199
 3862TIP3    H133145   6.077   1.389   0.708  1.9949  2.1930  0.1141
 3862TIP3    H233146   6.136   1.290   0.807 -1.8260 -0.5199 -0.0967
 3863TIP3   OH233147   6.236   2.522   7.623 -0.1391 -0.4614 -0.2446
 3863TIP3    H133148   6.153   2.503   7.580 -0.1292  0.7566 -0.8485
 3863TIP3    H233149   6.303   2.495   7.560 -0.1240  2.0699 -1.4525
 3864TIP3   OH233150   5.266   0.172   7.019 -0.5193  0.0685 -0.1484
 3864TIP3    H133151   5.352   0.200   7.052 -0.1178 -1.9511  0.6566
 3864TIP3    H233152   5.232   0.249   6.973  1.2451  1.2643  0.4352
 3865TIP3   OH233153   2.058   5.616   7.509 -0.2051  0.4794  0.2227
 3865TIP3    H133154   2.016   5.685   7.458  0.7447  0.0053 -1.2589
 3865TIP3    H233155   2.130   5.586   7.454  0.0187 -1.0101  1.2734
 3866TIP3   OH233156   4.632   0.938   1.810 -0.5848  0.3261  1.4163
 3866TIP3    H133157   4.589   0.854   1.824  0.9687 -0.2220  3.2916
 3866TIP3    H233158   4.715   0.917   1.768 -1.3944  1.2386 -0.7670
 3867TIP3   OH233159   3.517   5.500   1.736 -0.3290  0.1194 -0.8815
 3867TIP3    H133160   3.579   5.571   1.751 -0.2764  0.0695 -0.8647
 3867TIP3    H233161   3.571   5.422   1.722 -0.3741 -0.5043  1.8674
 3868TIP3   OH233162   5.819   4.505   7.754 -0.4601 -0.0283 -0.2880
 3868TIP3    H133163   5.852   4.444   7.820 -0.6329  0.5318  0.3341
 3868TIP3    H233164   5.896   4.558   7.730 -0.5783  0.3259  0.0979
 3869TIP3   OH233165   2.032   6.704   7.648 -0.4147 -0.1096  0.0680
 3869TIP3    H133166   2.111   6.700   7.594 -0.2664 -1.2757  0.3372
 3869TIP3    H233167   1.989   6.620   7.634 -1.1567  0.1695  0.5984
 3870TIP3   OH233168   1.801   1.026   0.523  0.4079 -0.3479 -0.0152
 3870TIP3    H133169   1.827   0.938   0.552  0.0040 -0.1226  1.0720
 3870TIP3    H233170   1.857   1.085   0.573  0.3744  0.0338 -0.4204
 3871TIP3   OH233171   1.511   1.982   0.947  0.2944 -0.5725  0.5197
 3871TIP3    H133172   1.588   2.008   0.896  0.5768 -0.1779  1.1392
 3871TIP3    H233173   1.441   2.039   0.914 -0.2282 -2.1728 -1.3566
 3872TIP3   OH233174   6.404   6.594   7.673  0.2370  0.5012  0.7066
 3872TIP3    H133175   6.386   6.509   7.711  0.7633  0.0911  0.0729
 3872TIP3    H233176   6.335   6.607   7.608  0.1660  0.5447  0.7920
 3873TIP3   OH233177   3.656   5.657   1.041  0.2336 -0.2121 -0.1658
 3873TIP3    H133178   3.707   5.714   1.100  0.7085 -0.7468 -0.0504
 3873TIP3    H233179   3.581   5.629   1.093 -0.0499  0.3710 -0.2498
 3874TIP3   OH233180   0.446   4.669   0.153  0.1290  0.3737 -0.6759
 3874TIP3    H133181   0.536   4.691   0.132 -0.0136  0.1565 -1.5754
 3874TIP3    H233182   0.393   4.724   0.095 -0.2641 -0.9403 -1.6032
 3875TIP3   OH233183   6.298   0.578   0.011  0.4501  0.2500 -0.8500
 3875TIP3    H133184   6.204   0.595   0.008  0.1912 -1.0454 -0.5783
 3875TIP3    H233185   6.306   0.483   0.003  1.6892  0.2529  0.0335
 3876TIP3   OH233186   4.639   6.078   8.447 -0.0621  0.9200  0.3832
 3876TIP3    H133187   4.551   6.041   8.441  0.1451 -0.3516  3.3927
 3876TIP3    H233188   4.695   6.004   8.472  1.5069  2.0790  0.4934
 3877TIP3   OH233189   6.881   3.014   1.091 -0.1199  0.3190  0.0104
 3877TIP3    H133190   6.953   3.024   1.153  0.8415  0.4109 -1.0908
 3877TIP3    H233191   6.897   3.081   1.024  0.3118 -1.3698 -1.6744
 3878TIP3   OH233192   6.512   4.718   6.661  0.2489  0.2123 -0.2564
 3878TIP3    H133193   6.541   4.677   6.580  0.9795  1.5206 -0.6896
 3878TIP3    H233194   6.587   4.771   6.690  0.3475 -0.9387  1.7914
 3879TIP3   OH233195   0.505   1.489   6.815  0.9882  0.3647  0.0978
 3879TIP3    H133196   0.482   1.426   6.746 -1.0722 -0.1771  1.1896
 3879TIP3    H233197   0.455   1.568   6.793  0.1236  0.1073  1.0469
 3880TIP3   OH233198   4.415   5.472   8.344 -0.2164  0.1330  0.4554
 3880TIP3    H133199   4.359   5.445   8.417 -1.6078 -1.5858 -1.1491
 3880TIP3    H233200   4.485   5.407   8.343  0.2647  0.6369  0.7294
 3881TIP3   OH233201   6.846   1.676   1.341  0.1105 -0.1569 -1.0160
 3881TIP3    H133202   6.895   1.756   1.325  0.9385 -0.3384  0.3623
 3881TIP3    H233203   6.833   1.675   1.436  0.9506 -2.0837 -0.8606
 3882TIP3   OH233204   4.516   0.012   1.261  0.5235 -0.2180 -0.0750
 3882TIP3    H133205   4.442   0.032   1.318 -0.4924 -1.0622 -1.0472
 3882TIP3    H233206   4.587  -0.011   1.321  0.5716  2.2889  0.9350
 3883TIP3   OH233207   5.709   1.467   8.346 -0.7641  0.6155  0.8532
 3883TIP3    H133208   5.674   1.418   8.420  0.1516  2.2440  2.4439
 3883TIP3    H233209   5.765   1.533   8.386 -0.3138  1.6136 -1.3101
 3884TIP3   OH233210   5.458   0.103   2.430  0.4640  0.4033 -0.2653
 3884TIP3    H133211   5.380   0.134   2.383  1.9816  1.2427 -2.4180
 3884TIP3    H233212   5.510   0.182   2.445  0.3000  0.0887  2.5037
 3885TIP3   OH233213   1.699   6.674   7.827 -0.0872 -0.0981  0.0783
 3885TIP3    H133214   1.672   6.739   7.892 -0.8174 -0.5076  0.2005
 3885TIP3    H233215   1.756   6.614   7.875 -1.4555 -1.0066  0.6540
 3886TIP3   OH233216   3.609   0.025   2.392 -0.1956  0.1035  0.1584
 3886TIP3    H133217   3.637  -0.066   2.400 -1.4890 -0.2483  0.9903
 3886TIP3    H233218   3.616   0.045   2.299  2.5024 -0.0227  0.2737
 3887TIP3   OH233219   4.258   5.951   0.610 -0.2189  0.6630 -0.0284
 3887TIP3    H133220   4.316   5.895   0.559 -1.8772 -0.3955 -0.8148
 3887TIP3    H233221   4.176   5.952   0.561 -1.5345  0.4589  2.0704
 3888TIP3   OH233222   0.138   3.313   3.029  0.1167  0.2256  0.1017
 3888TIP3    H133223   0.089   3.383   2.987  0.9024  0.4741 -0.4141
 3888TIP3    H233224   0.108   3.233   2.984 -1.6782  0.0385  1.5023
 3889TIP3   OH233225   2.309   3.562   1.606  0.0012 -0.2386  0.7805
 3889TIP3    H133226   2.370   3.551   1.533 -0.9630 -1.2273  0.1011
 3889TIP3    H233227   2.255   3.638   1.581  1.8406  1.5918  2.0586
 3890TIP3   OH233228   3.635   0.691   1.634 -0.0532 -0.2501 -0.7849
 3890TIP3    H133229   3.612   0.652   1.718 -1.1958 -0.1485 -1.0300
 3890TIP3    H233230   3.634   0.785   1.650 -0.3685 -0.2272 -0.9359
 3891TIP3   OH233231   5.117   6.876   2.064 -0.1146  0.4491 -0.3280
 3891TIP3    H133232   5.190   6.815   2.066 -0.2372  0.2370 -1.5781
 3891TIP3    H233233   5.040   6.821   2.050 -0.5505  0.6605  1.0755
 3892TIP3   OH233234   3.577   6.377   0.153  0.1455 -0.2577  0.0903
 3892TIP3    H133235   3.616   6.299   0.115 -0.3636 -0.1506 -0.6789
 3892TIP3    H233236   3.562   6.435   0.079 -0.3969  0.1650  0.5207
 3893TIP3   OH233237   6.340   4.099   1.714 -0.1970  0.3011  0.5140
 3893TIP3    H133238   6.327   4.037   1.643 -0.8954  0.6882  0.2903
 3893TIP3    H233239   6.252   4.130   1.735 -0.3834 -1.9003  3.4884
 3894TIP3   OH233240   4.059   6.126   8.495 -0.3868 -0.0965  0.0954
 3894TIP3    H133241   4.153   6.125   8.514 -0.6392 -3.0987  1.7645
 3894TIP3    H233242   4.034   6.219   8.500  2.0718  0.5548  1.8340
 3895TIP3   OH233243   3.882   3.312   2.114  0.5244 -0.4017 -0.3899
 3895TIP3    H133244   3.918   3.289   2.029  0.8263  0.2108 -0.4290
 3895TIP3    H233245   3.948   3.285   2.177  0.3610 -0.7272 -0.3542
 3896TIP3   OH233246   3.643   4.526   1.502  0.6197  0.1246  0.4195
 3896TIP3    H133247   3.556   4.567   1.505  0.7901  0.4112  3.1187
 3896TIP3    H233248   3.636   4.463   1.430 -1.5053  0.8053 -0.0515
 3897TIP3   OH233249   5.159   0.500   1.078  0.4665 -0.1700  0.3509
 3897TIP3    H133250   5.113   0.584   1.086  1.7139  0.6394 -0.4402
 3897TIP3    H233251   5.175   0.473   1.169 -0.1221  0.3573  0.6218
 3898TIP3   OH233252   3.933   1.778   0.316 -0.3987 -0.5836  0.4586
 3898TIP3    H133253   3.975   1.712   0.372 -0.7054 -1.7411 -0.6441
 3898TIP3    H233254   3.920   1.853   0.374  1.3009 -0.9359  1.3658
 3899TIP3   OH233255   6.126   2.365   7.287 -0.2649 -0.1162 -0.6019
 3899TIP3    H133256   6.190   2.429   7.253 -0.1644 -0.0481 -0.2826
 3899TIP3    H233257   6.072   2.344   7.211 -1.7451  2.0532 -0.2465
 3900TIP3   OH233258   4.936   6.894   6.481 -0.3193 -0.2083  0.1536
 3900TIP3    H133259   4.875   6.831   6.519 -1.1091 -0.2980 -1.1891
 3900TIP3    H233260   4.981   6.844   6.413 -0.9014  0.6362 -0.8797
 3901TIP3   OH233261   4.765   2.853   7.044 -0.1830  0.2307 -0.6007
 3901TIP3    H133262   4.753   2.947   7.060  0.7217  0.4967 -1.4108
 3901TIP3    H233263   4.851   2.846   7.002 -0.2145 -0.9713 -0.5118
 3902TIP3   OH233264   1.565   5.893   0.339  0.3057  0.0455  0.1302
 3902TIP3    H133265   1.486   5.853   0.375 -0.2470  0.7785 -0.2413
 3902TIP3    H233266   1.557   5.881   0.244  1.2555 -0.9679  0.1528
 3903TIP3   OH233267   3.553   3.009   0.929  0.6774  0.3001  0.1816
 3903TIP3    H133268   3.611   3.085   0.937 -0.1969  1.0620 -0.5721
 3903TIP3    H233269   3.597   2.941   0.981  3.1266  0.2944 -1.7012
 3904TIP3   OH233270   2.534   3.991   1.344 -0.1052  0.1317  0.0568
 3904TIP3    H133271   2.609   3.992   1.285  0.5915  3.1456  0.8267
 3904TIP3    H233272   2.564   4.038   1.421 -2.0649 -0.7504  1.4291
 3905TIP3   OH233273   5.714   0.341   7.194 -0.5592  0.3137 -0.0256
 3905TIP3    H133274   5.772   0.269   7.219  0.7315  1.3433  0.0290
 3905TIP3    H233275   5.718   0.401   7.267  1.8525  2.5155 -1.7876
 3906TIP3   OH233276   3.529   2.369   0.246 -0.0237  0.2025  0.1582
 3906TIP3    H133277   3.584   2.361   0.324 -1.0271 -1.0747  0.7823
 3906TIP3    H233278   3.555   2.296   0.190 -0.4432  0.1363  0.0424
 3907TIP3   OH233279   2.908   2.237   1.590 -0.6933  0.1276  0.7751
 3907TIP3    H133280   2.861   2.167   1.635  0.2038  0.7822  2.8814
 3907TIP3    H233281   2.850   2.313   1.596 -2.0957 -0.5359 -2.3571
 3908TIP3   OH233282   4.735   1.088   0.926 -0.1856  0.0008  0.3735
 3908TIP3    H133283   4.822   1.116   0.898  0.3558  0.7770  2.6545
 3908TIP3    H233284   4.752   1.020   0.991 -1.2683  0.5275  1.2256
 3909TIP3   OH233285   1.065   6.308   1.295  0.1311  0.1738  0.4682
 3909TIP3    H133286   0.971   6.297   1.310  0.4925 -1.2467  2.0139
 3909TIP3    H233287   1.085   6.396   1.327 -0.6402  0.4162  0.3003
 3910TIP3   OH233288   1.758   4.336   2.175 -0.0956 -0.3374  0.0652
 3910TIP3    H133289   1.712   4.413   2.141 -1.1998 -0.9945  0.0084
 3910TIP3    H233290   1.851   4.357   2.164 -0.3789  0.6936 -0.5884
 3911TIP3   OH233291   6.666   5.454   0.991 -0.6700  0.1685  0.1575
 3911TIP3    H133292   6.742   5.396   0.997 -0.3421  0.5456 -0.2839
 3911TIP3    H233293   6.599   5.411   1.044  0.1935  0.3670  1.4566
 3912TIP3   OH233294   4.195   0.749   1.453 -0.4616 -0.3905 -0.0212
 3912TIP3    H133295   4.190   0.839   1.421 -0.0799 -0.4067 -0.1317
 3912TIP3    H233296   4.113   0.736   1.501 -0.7492 -0.1569 -0.4478
 3913TIP3   OH233297   2.255   1.616   8.402  0.4695 -0.4077 -0.2371
 3913TIP3    H133298   2.211   1.621   8.487  1.2483 -0.4276  0.1739
 3913TIP3    H233299   2.187   1.585   8.343 -0.6055  1.4117 -0.0276
 3914TIP3   OH233300   6.066   6.119   1.451  0.0570  0.1022 -0.9468
 3914TIP3    H133301   6.148   6.151   1.488  0.0108  0.9100 -1.5162
 3914TIP3    H233302   6.068   6.024   1.466  1.2724  0.0583 -1.2880
 3915TIP3   OH233303   0.226   3.791   1.187  0.7791 -0.2276 -0.4973
 3915TIP3    H133304   0.217   3.876   1.231  0.8850 -1.2668  1.6839
 3915TIP3    H233305   0.320   3.775   1.185  0.6999 -0.7804  0.1184
 3916TIP3   OH233306   4.183   6.804   0.768  0.6724  0.0434  0.3989
 3916TIP3    H133307   4.123   6.735   0.742 -0.1899  0.1246  2.0254
 3916TIP3    H233308   4.127   6.878   0.791  1.5387  1.0502 -0.5987
 3917TIP3   OH233309   1.774   2.100   1.637  0.3039 -0.0927  0.1373
 3917TIP3    H133310   1.802   2.171   1.581 -0.9401  0.6263  0.3905
 3917TIP3    H233311   1.729   2.143   1.710 -0.2254 -1.1137  0.4372
 3918TIP3   OH233312   5.644   5.581   2.050 -0.5745  0.2760  0.2853
 3918TIP3    H133313   5.619   5.543   2.134 -0.3796  1.6002  0.9711
 3918TIP3    H233314   5.646   5.676   2.065  1.3823  0.4550 -0.6628
 3919TIP3   OH233315   4.848   3.919   0.725  0.0487 -0.2583 -0.0971
 3919TIP3    H133316   4.785   3.876   0.783 -0.2982 -1.7288 -1.4978
 3919TIP3    H233317   4.802   3.997   0.694  0.8032  1.4811  2.7241
 3920TIP3   OH233318   2.776   5.653   2.356  0.2856  0.5073  0.9368
 3920TIP3    H133319   2.812   5.583   2.410  2.1834 -0.5690 -1.5210
 3920TIP3    H233320   2.727   5.608   2.287 -0.7562  1.7472  0.8171
 3921TIP3   OH233321   1.348   1.425   1.252  0.1165 -0.4876 -0.3962
 3921TIP3    H133322   1.349   1.520   1.259  0.8987 -0.5457  0.5172
 3921TIP3    H233323   1.387   1.407   1.166 -1.4282  0.0366 -1.2424
 3922TIP3   OH233324   3.090   3.168   0.657 -0.1906 -0.1372  0.0591
 3922TIP3    H133325   3.116   3.172   0.565 -0.4558 -0.8680 -0.0469
 3922TIP3    H233326   2.995   3.158   0.656 -0.2116 -0.0223  0.4212
 3923TIP3   OH233327   4.078   1.487   0.260 -0.1195  0.7568  0.4102
 3923TIP3    H133328   4.085   1.511   0.352 -0.2148 -0.2452  0.6804
 3923TIP3    H233329   4.167   1.500   0.226 -0.5297  3.2846  0.0715
 3924TIP3   OH233330   4.803   6.151   1.822 -0.3458  0.2553 -0.4779
 3924TIP3    H133331   4.809   6.221   1.886 -2.0741 -0.7677  0.8955
 3924TIP3    H233332   4.800   6.070   1.874 -0.5317 -0.6971 -1.9035
 3925TIP3   OH233333   3.069   5.429   7.721 -0.1866 -0.3684  0.1683
 3925TIP3    H133334   3.118   5.497   7.767  0.5138 -0.7555  0.0059
 3925TIP3    H233335   2.983   5.468   7.705  0.4026  0.6990 -0.4725
 3926TIP3   OH233336   3.213   3.979   0.675 -0.2118 -0.6519 -0.0459
 3926TIP3    H133337   3.234   3.886   0.673  0.8482 -0.4542 -2.3282
 3926TIP3    H233338   3.118   3.982   0.675 -0.3021 -1.8114 -1.7391
 3927TIP3   OH233339   3.575   5.397   2.549 -0.1564  0.3220  0.1952
 3927TIP3    H133340   3.655   5.448   2.534 -0.3528  0.3955 -0.6468
 3927TIP3    H233341   3.541   5.430   2.632  1.4026 -0.6595  1.2839
 3928TIP3   OH233342   6.090   1.249   6.864 -0.2981  0.2914  0.3840
 3928TIP3    H133343   6.102   1.291   6.949 -1.5863  0.0944  0.6831
 3928TIP3    H233344   6.157   1.288   6.808  1.9169 -1.0265  1.9638
 3929TIP3   OH233345   6.697   3.406   8.296 -0.7669  0.2036  0.2793
 3929TIP3    H133346   6.697   3.500   8.281 -3.6408  0.0812 -1.0122
 3929TIP3    H233347   6.645   3.394   8.375  1.6499 -0.2259  1.9160
 3930TIP3   OH233348   6.780   6.820   7.790 -0.4079  0.0277 -0.6266
 3930TIP3    H133349   6.744   6.763   7.722 -1.1163  1.2663 -1.3259
 3930TIP3    H233350   6.718   6.813   7.863 -0.3009 -0.3501 -0.5660
 3931TIP3   OH233351   4.010   3.770   0.473 -0.4635  0.0266 -0.1545
 3931TIP3    H133352   3.942   3.703   0.475 -2.7951  2.2204 -0.4625
 3931TIP3    H233353   4.014   3.803   0.563  0.7896 -0.5833  0.0367
 3932TIP3   OH233354   0.820   6.794   6.857  0.0724 -0.2568  0.1640
 3932TIP3    H133355   0.812   6.884   6.824  0.7197 -0.1137  0.3714
 3932TIP3    H233356   0.913   6.786   6.880 -0.5067 -0.0043  2.9351
 3933TIP3   OH233357   6.325   1.541   6.893  0.2860 -0.3600 -0.0331
 3933TIP3    H133358   6.329   1.492   6.810  2.5255 -0.4471  0.0841
 3933TIP3    H233359   6.258   1.608   6.877  2.2569  1.1490 -2.7823
 3934TIP3   OH233360   5.269   0.378   8.194 -0.8029  0.3785 -0.2695
 3934TIP3    H133361   5.243   0.349   8.107 -0.1507  0.1065 -0.3792
 3934TIP3    H233362   5.222   0.460   8.207 -0.8460  0.4599 -0.9068
 3935TIP3   OH233363   0.305   3.722   7.754 -0.2796  0.0841  0.2406
 3935TIP3    H133364   0.335   3.813   7.755 -0.5503  0.1718  0.2227
 3935TIP3    H233365   0.228   3.722   7.698 -0.2289 -0.1739  0.1704
 3936TIP3   OH233366   1.368   5.405   7.302  0.0895  0.5798  0.4948
 3936TIP3    H133367   1.281   5.394   7.340 -0.6146  3.0487 -0.2492
 3936TIP3    H233368   1.352   5.445   7.217  1.9658  1.3750  0.4711
 3937TIP3   OH233369   1.791   5.298   1.768 -0.3535  0.1625 -0.0272
 3937TIP3    H133370   1.847   5.278   1.843  0.2485 -0.1972 -0.5618
 3937TIP3    H233371   1.786   5.393   1.766  2.2501  0.3601 -1.3810
 3938TIP3   OH233372   0.549   4.923   0.404  0.0113  0.0638 -0.0727
 3938TIP3    H133373   0.593   4.853   0.355 -2.0126 -0.2665 -1.5846
 3938TIP3    H233374   0.593   5.003   0.376  0.5036 -0.3610 -0.5319
 3939TIP3   OH233375   0.920   1.772   2.758  0.2423 -0.6061  0.3641
 3939TIP3    H133376   0.941   1.812   2.842 -1.7685  0.7602  0.3077
 3939TIP3    H233377   0.859   1.834   2.717 -1.8845 -3.0155 -0.4063
 3940TIP3   OH233378   3.931   4.069   7.515  0.2980 -0.7706 -0.5754
 3940TIP3    H133379   3.879   4.035   7.442  0.8926 -0.2822 -1.2373
 3940TIP3    H233380   4.020   4.075   7.480  0.3483  0.7433 -0.2305
 3941TIP3   OH233381   2.269   0.246   2.560  0.5073 -0.0938 -0.3515
 3941TIP3    H133382   2.285   0.155   2.536  2.3502  0.4671 -1.5136
 3941TIP3    H233383   2.212   0.279   2.491  1.1173  0.0189 -0.8118
 3942TIP3   OH233384   1.588   3.971   1.654 -0.0177 -0.5505  0.6244
 3942TIP3    H133385   1.545   4.023   1.722  0.9497  1.2899 -0.1079
 3942TIP3    H233386   1.517   3.941   1.597 -0.4751  1.7066 -0.0768
 3943TIP3   OH233387   5.454   1.184   7.178 -0.1715  0.1487 -0.4789
 3943TIP3    H133388   5.505   1.253   7.221 -1.7063  1.6047 -0.9132
 3943TIP3    H233389   5.482   1.187   7.087 -0.9333  0.8891 -0.6995
 3944TIP3   OH233390   1.930   5.708   2.683 -0.3353  0.4234  0.3443
 3944TIP3    H133391   1.908   5.637   2.622 -0.3744  0.7389 -0.0160
 3944TIP3    H233392   2.014   5.742   2.651 -0.1857  0.3642  0.6734
 3945TIP3   OH233393   5.187   1.319   1.854 -0.5601  0.3879  0.3215
 3945TIP3    H133394   5.193   1.402   1.807 -0.3081 -0.8591 -1.9728
 3945TIP3    H233395   5.276   1.301   1.883 -0.3683  0.2680 -0.3459
 3946TIP3   OH233396   6.407   6.048   1.866 -0.6097 -0.5331 -0.1038
 3946TIP3    H133397   6.450   6.128   1.837 -0.6088 -0.2868  0.5541
 3946TIP3    H233398   6.453   6.024   1.946 -2.3517  0.3419  1.2344
 3947TIP3   OH233399   3.978   6.605   8.340  0.2230 -0.0093  0.0371
 3947TIP3    H133400   3.978   6.697   8.365  0.6772  0.0399 -0.1326
 3947TIP3    H233401   4.039   6.600   8.266 -0.8489 -0.2011 -0.8580
 3948TIP3   OH233402   6.423   3.465   1.005 -0.2126 -0.2952 -0.3850
 3948TIP3    H133403   6.442   3.528   0.937  0.4806 -0.8227 -0.6893
 3948TIP3    H233404   6.345   3.418   0.974  0.3793 -0.8571 -1.0504
 3949TIP3   OH233405   6.693   1.953   6.784 -0.0559  0.6582 -0.4987
 3949TIP3    H133406   6.762   1.904   6.828  1.0360  1.5220 -1.1902
 3949TIP3    H233407   6.721   2.045   6.789 -0.9740  0.9930 -1.0972
 3950TIP3   OH233408   0.614   1.279   8.216  0.2468 -0.0275 -0.1241
 3950TIP3    H133409   0.616   1.220   8.291  0.4203  0.3275  0.1534
 3950TIP3    H233410   0.523   1.275   8.185 -0.4604  1.6427  1.5706
 3951TIP3   OH233411   5.865   5.671   0.540 -0.7336  0.6509 -0.5641
 3951TIP3    H133412   5.954   5.665   0.506 -1.3913  0.5960 -2.3860
 3951TIP3    H233413   5.870   5.738   0.609  0.4914  1.4395 -1.3862
 3952TIP3   OH233414   4.210   5.333   0.915 -0.2601 -0.4288 -0.6405
 3952TIP3    H133415   4.248   5.265   0.858  1.1316  0.6760 -1.0839
 3952TIP3    H233416   4.167   5.393   0.855  1.8267  1.1320 -0.6816
 3953TIP3   OH233417   5.727   3.148   0.594 -0.6355 -0.3262 -0.3149
 3953TIP3    H133418   5.729   3.217   0.528  2.6531 -0.7894 -0.8755
 3953TIP3    H233419   5.736   3.067   0.544  0.9779 -0.7406  0.5760
 3954TIP3   OH233420   6.598   2.856   7.005  0.7011  0.2356 -0.3989
 3954TIP3    H133421   6.674   2.905   6.974 -0.3913  1.0003 -2.0045
 3954TIP3    H233422   6.554   2.827   6.925 -0.1287 -1.1272  0.5009
 3955TIP3   OH233423   3.124   2.978   1.280 -0.3146  0.6324 -0.0335
 3955TIP3    H133424   3.059   2.929   1.331 -1.9326  3.4406  0.8028
 3955TIP3    H233425   3.073   3.042   1.230  1.7352  2.8690  0.5368
 3956TIP3   OH233426   0.479   5.736   1.405  0.5359  0.2667 -0.3175
 3956TIP3    H133427   0.489   5.827   1.432  0.6782 -0.1955  1.2756
 3956TIP3    H233428   0.444   5.741   1.316  0.9539  1.8692 -0.4201
 3957TIP3   OH233429   6.929   6.413   2.058  0.3818 -0.3934 -0.8180
 3957TIP3    H133430   6.838   6.388   2.038  0.6058 -0.4143 -1.8851
 3957TIP3    H233431   6.921   6.486   2.119 -0.3734  0.0370 -1.4152
 3958TIP3   OH233432   4.497   3.329   8.375 -0.2988  0.0862 -0.0771
 3958TIP3    H133433   4.586   3.326   8.408 -0.5168 -0.0406  0.5089
 3958TIP3    H233434   4.492   3.411   8.326  0.8554 -1.0440 -2.2263
 3959TIP3   OH233435   4.676   6.536   8.097 -0.5257 -0.0044 -0.4204
 3959TIP3    H133436   4.674   6.485   8.178 -3.5005  0.6248  0.0042
 3959TIP3    H233437   4.638   6.477   8.031 -2.0666  0.9011 -0.3741
 3960TIP3   OH233438   2.085   1.491   8.216 -0.9255  0.2829 -0.1456
 3960TIP3    H133439   2.044   1.421   8.165  3.4029  0.0793 -4.0285
 3960TIP3    H233440   2.061   1.571   8.169  1.5387  0.2979 -1.5400
 3961TIP3   OH233441   0.651   2.074   0.233 -0.0840  0.3649 -0.2772
 3961TIP3    H133442   0.602   2.084   0.315 -0.2662 -0.2691 -0.3029
 3961TIP3    H233443   0.737   2.110   0.252 -0.3506  0.8746 -0.0232
 3962TIP3   OH233444   1.954   4.515   7.184  0.5558  0.0506  0.1446
 3962TIP3    H133445   1.876   4.502   7.238  0.4508 -0.8136 -0.1998
 3962TIP3    H233446   1.921   4.529   7.096  0.7834 -0.1294  0.0308
 3963TIP3   OH233447   3.435   2.956   1.296 -0.6472  0.4122 -0.1916
 3963TIP3    H133448   3.441   3.040   1.342  0.9992  0.3262 -0.1964
 3963TIP3    H233449   3.341   2.935   1.296 -0.7857  0.8200  2.3296
 3964TIP3   OH233450   2.489   5.561   7.947  0.7202  0.2079  0.0366
 3964TIP3    H133451   2.548   5.599   7.882 -1.4348  0.1115 -2.1145
 3964TIP3    H233452   2.499   5.617   8.024  2.1250  1.3714 -0.9370
 3965TIP3   OH233453   3.514   0.422   6.577 -0.4149 -0.1034  0.0593
 3965TIP3    H133454   3.553   0.474   6.647  1.4025 -0.6457 -0.4894
 3965TIP3    H233455   3.487   0.487   6.512 -0.8218  0.3149  0.6371
 3966TIP3   OH233456   2.413   3.348   1.128  0.1512 -0.2675 -0.8957
 3966TIP3    H133457   2.350   3.418   1.113  0.2028  0.5505  2.0040
 3966TIP3    H233458   2.498   3.393   1.132  0.1115 -0.2653  1.7003
 3967TIP3   OH233459   3.546   5.508   2.797 -0.1479  0.4006 -0.2098
 3967TIP3    H133460   3.566   5.440   2.862  0.7072  1.8719  1.1442
 3967TIP3    H233461   3.456   5.534   2.816  0.0416  0.7048  0.3025
 3968TIP3   OH233462   6.831   2.528   6.043  0.4238  0.1999  0.0668
 3968TIP3    H133463   6.770   2.573   5.984  0.2293 -0.6233 -0.3658
 3968TIP3    H233464   6.841   2.589   6.116 -0.4280  0.6285 -0.1512
 3969TIP3   OH233465   2.211   5.735   7.185  0.2776 -0.3965 -0.0082
 3969TIP3    H133466   2.144   5.783   7.233  0.0721 -0.9455  0.2629
 3969TIP3    H233467   2.292   5.748   7.235  0.2531 -0.2020 -0.0222
 3970TIP3   OH233468   0.240   1.687   0.124 -0.2048  0.6027 -0.8676
 3970TIP3    H133469   0.169   1.687   0.059  1.4942  2.2005 -2.8384
 3970TIP3    H233470   0.314   1.727   0.079  1.0984  1.7421  2.0763
 3971TIP3   OH233471   2.545   6.324   7.416 -0.0213  0.4305 -0.0133
 3971TIP3    H133472   2.561   6.409   7.458 -0.7571  0.1973  0.7642
 3971TIP3    H233473   2.570   6.260   7.483  0.5864  0.0190 -0.6157
 3972TIP3   OH233474   0.322   3.914   7.027 -0.3042 -0.8044  0.0449
 3972TIP3    H133475   0.245   3.951   6.982  0.3757  2.0709  0.9953
 3972TIP3    H233476   0.293   3.903   7.118  0.1022 -0.6496  0.1952
 3973TIP3   OH233477   6.802   6.209   0.087  0.3896 -0.0261  0.5643
 3973TIP3    H133478   6.817   6.115   0.086  0.5022 -0.0069  0.1211
 3973TIP3    H233479   6.707   6.219   0.092  0.3709 -0.1648  0.4814
 3974TIP3   OH233480   6.479   1.998   1.041 -0.3667 -0.5522 -0.4498
 3974TIP3    H133481   6.410   2.063   1.056  0.6668  0.9701 -1.9665
 3974TIP3    H233482   6.460   1.964   0.953 -0.7361 -2.1499  0.2222
 3975TIP3   OH233483   0.861   3.638   0.921 -0.0459  0.2970  0.6149
 3975TIP3    H133484   0.813   3.574   0.974 -0.0089 -0.0952  0.1864
 3975TIP3    H233485   0.850   3.607   0.831 -1.2808  1.7013  0.2314
 3976TIP3   OH233486   6.560   5.468   7.429 -0.2350 -0.2605 -0.4421
 3976TIP3    H133487   6.470   5.495   7.409 -0.2965  1.0201  1.3720
 3976TIP3    H233488   6.553   5.374   7.446 -1.3031 -0.1236 -0.0156
 3977TIP3   OH233489   0.561   2.416   1.587 -0.3427 -0.7569 -0.1475
 3977TIP3    H133490   0.646   2.422   1.630  0.1820  0.2476 -1.2656
 3977TIP3    H233491   0.532   2.507   1.578 -1.4243 -1.0735 -0.0030
 3978TIP3   OH233492   6.372   4.253   2.159 -0.5714  0.3210 -0.2929
 3978TIP3    H133493   6.301   4.245   2.223 -0.3607  2.7348  0.3071
 3978TIP3    H233494   6.327   4.258   2.075 -0.9247 -1.1052 -0.2266
 3979TIP3   OH233495   1.301   5.938   2.119  0.1681  0.3028  0.2873
 3979TIP3    H133496   1.375   5.959   2.176  0.2803  0.0722  0.2253
 3979TIP3    H233497   1.238   6.008   2.135  1.2476  1.6932 -1.1707
 3980TIP3   OH233498   5.561   1.610   7.885  1.5127 -0.6246  0.0986
 3980TIP3    H133499   5.537   1.573   7.799 -3.0453  0.4720  0.6331
 3980TIP3    H233500   5.546   1.538   7.946 -2.0958  0.3022  0.5413
 3981TIP3   OH233501   5.791   5.492   1.602  0.8381  0.1035  0.4647
 3981TIP3    H133502   5.788   5.502   1.506  2.4817  0.8812  0.4711
 3981TIP3    H233503   5.713   5.440   1.622  0.5498 -0.2367 -1.3164
 3982TIP3   OH233504   1.765   0.180   0.417  0.0416 -0.5780 -0.5559
 3982TIP3    H133505   1.718   0.261   0.437 -0.3054 -0.7151 -0.8062
 3982TIP3    H233506   1.838   0.208   0.362  0.8006 -0.2436  0.5886
 3983TIP3   OH233507   0.893   5.575   7.010 -0.6136  0.1664 -0.4840
 3983TIP3    H133508   0.948   5.519   6.955 -0.2464  1.6938 -1.7450
 3983TIP3    H233509   0.954   5.635   7.051 -0.9634 -0.5585  1.1698
 3984TIP3   OH233510   6.921   2.818   0.031  0.3738 -0.8703  0.3047
 3984TIP3    H133511   6.994   2.854  -0.020 -0.5984  0.7133 -0.0424
 3984TIP3    H233512   6.949   2.825   0.122  0.1524  1.0739  0.2730
 3985TIP3   OH233513   4.562   6.710   7.066 -0.2205  0.0979  0.5102
 3985TIP3    H133514   4.609   6.678   7.143  0.4983  0.7252  0.3513
 3985TIP3    H233515   4.518   6.789   7.097 -1.3858 -0.6238  0.7195
 3986TIP3   OH233516   5.396   1.779   6.652  0.0483 -0.1203  0.5333
 3986TIP3    H133517   5.469   1.828   6.691  0.1781  0.0570  0.0698
 3986TIP3    H233518   5.326   1.843   6.642 -0.0130 -0.1841  0.5490
 3987TIP3   OH233519   3.040   5.327   8.107  0.1679  0.1052  0.3443
 3987TIP3    H133520   3.017   5.249   8.158 -0.2260  0.1354  0.2193
 3987TIP3    H233521   3.136   5.330   8.109  0.1484  0.4660  1.6280
 3988TIP3   OH233522   4.625   0.320   7.377  0.3562 -0.0338 -0.7513
 3988TIP3    H133523   4.574   0.367   7.311 -0.9517 -0.6293 -0.1992
 3988TIP3    H233524   4.711   0.363   7.376  0.4039 -0.0630 -2.8479
 3989TIP3   OH233525   6.401   0.743   8.247 -0.4192 -0.3495 -0.2563
 3989TIP3    H133526   6.326   0.688   8.271 -1.3181  0.8308 -0.2059
 3989TIP3    H233527   6.470   0.719   8.309 -1.6837  0.4793  1.5646
 3990TIP3   OH233528   0.753   5.867   0.806  0.0073  0.0847 -0.1453
 3990TIP3    H133529   0.846   5.864   0.829 -0.4643 -1.0331  1.7642
 3990TIP3    H233530   0.721   5.948   0.846 -0.2261 -0.4750  0.8184
 3991TIP3   OH233531   4.712   1.046   7.583 -0.6424  0.1654 -0.1122
 3991TIP3    H133532   4.635   1.053   7.639 -0.5742 -0.5646  0.0736
 3991TIP3    H233533   4.676   1.034   7.495 -0.7432  0.5392 -0.1241
 3992TIP3   OH233534   0.051   1.059   7.509  0.0687  0.2932  0.1882
 3992TIP3    H133535   0.068   1.013   7.428  0.7571 -1.3247  1.1977
 3992TIP3    H233536   0.114   1.132   7.509 -1.1613  1.4220 -1.5106
 3993TIP3   OH233537   3.097   6.150   1.178 -0.2256 -0.6371  0.6567
 3993TIP3    H133538   3.071   6.120   1.092  1.4684 -1.5756  0.4316
 3993TIP3    H233539   3.087   6.245   1.174 -1.5963 -0.7843 -0.0366
 3994TIP3   OH233540   6.119   3.317   0.406  0.9035 -0.1775  0.2678
 3994TIP3    H133541   6.175   3.382   0.448  0.6929  0.4585 -0.4223
 3994TIP3    H233542   6.030   3.341   0.434  0.6434  0.9132 -1.3551
 3995TIP3   OH233543   0.706   4.087   0.570  0.2435 -0.2561 -0.0988
 3995TIP3    H133544   0.763   4.152   0.610 -0.2381  0.3456 -0.3749
 3995TIP3    H233545   0.750   4.003   0.586 -0.8165 -0.2939  3.2986
 3996TIP3   OH233546   0.899   4.897   0.982 -0.0117  0.3389  0.9010
 3996TIP3    H133547   0.986   4.911   1.019 -0.4862  4.4196  0.8632
 3996TIP3    H233548   0.907   4.926   0.891 -1.1314 -0.5161  0.5005
 3997TIP3   OH233549   1.741   2.043   0.791  0.6887 -0.2777  0.2080
 3997TIP3    H133550   1.825   2.034   0.836  0.1467  1.6552  1.7750
 3997TIP3    H233551   1.764   2.058   0.699  1.8805 -2.9144 -0.0142
 3998TIP3   OH233552   0.935   3.579   1.961 -0.0183 -0.4119 -0.3346
 3998TIP3    H133553   0.854   3.628   1.974 -0.4978 -1.2410 -0.1635
 3998TIP3    H233554   0.995   3.642   1.921  0.1226  0.9905  1.8897
 3999TIP3   OH233555   2.842   4.989   8.291 -0.1052 -0.3338  0.3404
 3999TIP3    H133556   2.781   4.921   8.264 -1.4145  1.1975 -0.7811
 3999TIP3    H233557   2.928   4.946   8.291 -0.7179 -1.6820 -1.5301
 4000TIP3   OH233558   0.957   0.675   7.007  0.1193 -0.7042  0.0715
 4000TIP3    H133559   1.041   0.718   7.021 -0.2373 -0.2216  0.8111
 4000TIP3    H233560   0.975   0.582   7.021 -0.0368 -0.3768  3.4187
 4001TIP3   OH233561   5.962   4.018   7.021 -0.0442 -0.2431 -0.0023
 4001TIP3    H133562   5.877   3.981   7.048  0.0354  0.1858  0.8758
 4001TIP3    H233563   5.948   4.113   7.022  0.6105 -0.1414  0.7637
 4002TIP3   OH233564   1.568   4.535   2.489  0.3572 -0.1709 -0.4500
 4002TIP3    H133565   1.562   4.562   2.581 -1.8821 -0.5771 -0.4050
 4002TIP3    H233566   1.528   4.608   2.441  2.6084  0.5964 -1.2910
 4003TIP3   OH233567   6.429   0.472   6.541 -0.1995 -0.4308 -0.4929
 4003TIP3    H133568   6.385   0.413   6.602  0.9416 -0.5690  0.2431
 4003TIP3    H233569   6.475   0.414   6.480 -0.7313 -0.2915 -1.0322
 4004TIP3   OH233570   5.327   2.705   0.882 -0.8418 -0.2392 -0.1881
 4004TIP3    H133571   5.391   2.774   0.901 -1.0374 -0.1562  0.1669
 4004TIP3    H233572   5.282   2.735   0.803 -0.3582 -0.3553 -0.5097
 4005TIP3   OH233573   0.419   4.689   0.752 -0.0811  0.2684  0.0093
 4005TIP3    H133574   0.385   4.614   0.703 -0.1523  0.5981 -0.4512
 4005TIP3    H233575   0.388   4.676   0.841  0.7809 -0.8082  0.1777
 4006TIP3   OH233576   6.866   0.723   0.622 -0.1398  0.1429  0.2034
 4006TIP3    H133577   6.857   0.769   0.539  1.7831 -0.3698 -0.3482
 4006TIP3    H233578   6.961   0.715   0.635 -0.4012 -0.7321  1.9158
 4007TIP3   OH233579   0.318   4.827   7.793  0.9276  0.0951  0.0078
 4007TIP3    H133580   0.267   4.746   7.803 -0.9948  1.1077 -0.9354
 4007TIP3    H233581   0.364   4.815   7.710  1.5857 -0.4873  0.4456
 4008TIP3   OH233582   4.226   5.659   0.760  0.4837 -0.9112 -0.7103
 4008TIP3    H133583   4.276   5.739   0.775  0.9386 -1.1566 -0.9136
 4008TIP3    H233584   4.290   5.588   0.766  0.2324 -1.2017 -1.3200
 4009TIP3   OH233585   5.440   6.008   6.873  0.2991  0.4852  0.4975
 4009TIP3    H133586   5.501   6.053   6.931  0.7586  0.8577 -0.2551
 4009TIP3    H233587   5.472   5.918   6.869 -0.9068 -0.0770  2.3985
 4010TIP3   OH233588   2.336   5.209   1.922 -0.6300 -0.1854 -0.6095
 4010TIP3    H133589   2.258   5.230   1.871 -1.8926  1.0102  1.6407
 4010TIP3    H233590   2.394   5.284   1.909  0.0057 -0.8629 -1.9111
 4011TIP3   OH233591   2.727   1.952   8.453 -0.3342 -0.3341  0.4401
 4011TIP3    H133592   2.738   1.992   8.367  1.5748 -0.6709  0.4864
 4011TIP3    H233593   2.816   1.938   8.484 -0.9942 -0.8904  2.1667
 4012TIP3   OH233594   1.161   4.802   1.674  0.0723 -0.1245  0.1015
 4012TIP3    H133595   1.231   4.798   1.609  0.9015  0.1703  0.9482
 4012TIP3    H233596   1.157   4.713   1.710 -0.9144 -0.4920 -0.8684
 4013TIP3   OH233597   4.443   6.047   6.347 -0.6210  0.2493  0.3603
 4013TIP3    H133598   4.460   6.137   6.318 -1.5612  0.4213  0.3336
 4013TIP3    H233599   4.530   6.010   6.360 -0.1946  0.7165 -1.0094
 4014TIP3   OH233600   5.553   5.724   7.364 -0.3045 -0.1431 -0.1424
 4014TIP3    H133601   5.575   5.631   7.373 -0.7482 -0.5093 -2.1731
 4014TIP3    H233602   5.634   5.765   7.334 -0.5261 -0.2208 -0.8882
 4015TIP3   OH233603   0.985   3.467   1.693  0.7786  0.3364 -0.4806
 4015TIP3    H133604   0.952   3.507   1.773  0.6881  1.6590 -1.1555
 4015TIP3    H233605   0.914   3.409   1.664  0.5975  0.2676  0.0876
 4016TIP3   OH233606   0.795   5.446   7.222  0.0186 -0.0905 -0.6725
 4016TIP3    H133607   0.829   5.483   7.141  0.3000  0.3381 -0.3642
 4016TIP3    H233608   0.849   5.369   7.238  0.7623  0.5075 -0.2610
 4017TIP3   OH233609   2.234   4.866   0.604  0.3004 -0.0722 -0.0997
 4017TIP3    H133610   2.262   4.775   0.611 -0.9283 -0.3539  2.6692
 4017TIP3    H233611   2.139   4.862   0.603  0.2118  1.1743  0.6393
 4018TIP3   OH233612   2.656   2.864   1.493 -0.3420  0.5601 -0.4025
 4018TIP3    H133613   2.585   2.925   1.474 -0.1164  1.4464  1.3716
 4018TIP3    H233614   2.635   2.827   1.579 -0.0284 -1.2463 -1.0552
 4019TIP3   OH233615   1.620   3.467   1.846 -0.0475 -0.3395  0.0680
 4019TIP3    H133616   1.687   3.450   1.913 -0.7580 -1.1253  0.5927
 4019TIP3    H233617   1.565   3.535   1.884  0.0234 -0.2171 -0.0507
 4020TIP3   OH233618   4.817   3.779   0.323 -0.1813  0.0279  0.4442
 4020TIP3    H133619   4.805   3.701   0.377  0.7736 -0.5093 -0.0743
 4020TIP3    H233620   4.752   3.770   0.253 -0.4833  0.0104  0.7259
 4021TIP3   OH233621   2.415   3.391   7.368 -0.5293  0.1731  0.1419
 4021TIP3    H133622   2.403   3.306   7.409 -0.9176 -0.3222 -0.9583
 4021TIP3    H233623   2.358   3.389   7.291  0.6209  0.8225 -0.7663
 4022TIP3   OH233624   3.795   5.048   2.040 -0.4166  0.2663  0.0152
 4022TIP3    H133625   3.763   5.138   2.044  0.1242  0.4280  1.7284
 4022TIP3    H233626   3.718   4.997   2.014 -0.7635  1.1940 -0.8535
 4023TIP3   OH233627   2.620   3.409   7.799 -0.2716 -0.6806 -0.1161
 4023TIP3    H133628   2.633   3.499   7.827  1.1573 -1.4345  1.8731
 4023TIP3    H233629   2.687   3.395   7.732 -1.5181  0.1499 -1.5877
 4024TIP3   OH233630   4.111   4.031   7.114  0.2275 -0.0397 -0.0298
 4024TIP3    H133631   4.048   4.097   7.084 -0.0885  0.7131  2.0805
 4024TIP3    H233632   4.169   4.016   7.039  0.1678  2.4734 -0.6593
 4025TIP3   OH233633   5.174   5.052   0.062 -0.7900 -0.2305  0.7668
 4025TIP3    H133634   5.190   5.027   0.153 -0.5228 -0.0097  0.7816
 4025TIP3    H233635   5.080   5.042   0.050 -1.0650  1.1386  1.5030
 4026TIP3   OH233636   6.867   2.473   6.423  0.0576 -0.0299  0.0033
 4026TIP3    H133637   6.935   2.481   6.357  0.4246 -0.2824  0.3512
 4026TIP3    H233638   6.803   2.412   6.386  0.1557 -0.0038 -0.2058
 4027TIP3   OH233639   5.077   6.233   0.530 -0.3320 -0.0375 -0.1859
 4027TIP3    H133640   5.118   6.266   0.451  2.1878  0.7819  1.3609
 4027TIP3    H233641   5.007   6.296   0.549  0.5900  1.1189 -0.4965
 4028TIP3   OH233642   4.509   6.225   7.171  0.7188 -0.0295 -0.3673
 4028TIP3    H133643   4.594   6.185   7.149  0.4478 -0.6467 -0.3176
 4028TIP3    H233644   4.491   6.284   7.098  0.2767 -1.3461 -1.3671
 4029TIP3   OH233645   4.184   0.799   1.856 -0.4607  0.2453 -0.1555
 4029TIP3    H133646   4.155   0.861   1.788  1.0866  0.3913 -0.7302
 4029TIP3    H233647   4.128   0.818   1.931 -1.3961  0.9290 -0.9949
 4030TIP3   OH233648   3.571   0.371   1.239  0.2256  0.1595 -0.7777
 4030TIP3    H133649   3.644   0.400   1.184  0.2712 -0.6923 -1.1825
 4030TIP3    H233650   3.501   0.351   1.177  0.6588 -1.9517 -0.6749
 4031TIP3   OH233651   4.030   4.523   1.176  0.3190 -0.7104  0.5506
 4031TIP3    H133652   3.960   4.463   1.203 -0.4070  0.1062  0.5526
 4031TIP3    H233653   4.066   4.485   1.097 -1.1247 -0.4130 -0.2838
 4032TIP3   OH233654   1.472   0.663   2.242  0.1748 -0.2670 -0.3127
 4032TIP3    H133655   1.465   0.758   2.243  0.8379 -0.1706 -1.7495
 4032TIP3    H233656   1.496   0.642   2.152  1.0549 -1.7187  0.2227
 4033TIP3   OH233657   0.496   3.729   1.145  0.2474  0.3617  0.2421
 4033TIP3    H133658   0.563   3.662   1.136 -0.1787 -0.0376  0.0031
 4033TIP3    H233659   0.519   3.795   1.080 -1.0325 -1.0042 -1.6844
 4034TIP3   OH233660   3.555   1.361   0.881  0.3451  0.2107  0.4573
 4034TIP3    H133661   3.583   1.416   0.808  0.3921  0.1253  0.4109
 4034TIP3    H233662   3.521   1.423   0.946 -0.7722  0.2187 -0.0989
 4035TIP3   OH233663   1.821   3.451   7.558 -0.0385 -0.1627 -0.4100
 4035TIP3    H133664   1.908   3.427   7.589  0.2723  0.3395 -0.8580
 4035TIP3    H233665   1.769   3.372   7.567  0.7586 -0.7960 -1.1453
 4036TIP3   OH233666   3.299   6.661   7.264  0.4709 -0.6709  0.1816
 4036TIP3    H133667   3.341   6.601   7.326  0.9768  0.0094  0.5091
 4036TIP3    H233668   3.337   6.638   7.180 -1.2511 -2.5560 -0.1620
 4037TIP3   OH233669   0.211   3.876   0.471 -0.1903 -0.1252 -0.3613
 4037TIP3    H133670   0.143   3.893   0.406  0.5369 -2.2892 -1.7838
 4037TIP3    H233671   0.264   3.806   0.433  0.7361 -0.9606  2.2367
 4038TIP3   OH233672   0.054   1.180   0.303  0.5834  0.5797 -0.2244
 4038TIP3    H133673   0.040   1.274   0.307 -1.2957  0.4339 -1.6769
 4038TIP3    H233674  -0.027   1.142   0.337  1.0344 -0.5107 -0.3041
 4039TIP3   OH233675   0.485   2.450   1.281 -0.3786 -0.0665 -0.3055
 4039TIP3    H133676   0.578   2.473   1.272 -0.5392  0.8076  0.1374
 4039TIP3    H233677   0.455   2.501   1.356 -1.4053  0.2668 -0.9198
 4040TIP3   OH233678   2.428   0.629   7.320 -0.2515 -0.2985 -0.1129
 4040TIP3    H133679   2.478   0.565   7.269 -0.8017 -0.1836 -0.8175
 4040TIP3    H233680   2.491   0.665   7.383  0.2203 -1.0678 -0.1349
 4041TIP3   OH233681   4.454   2.963   2.050 -0.2306 -0.2413  0.1565
 4041TIP3    H133682   4.541   2.932   2.025  0.7765  1.7976  0.9088
 4041TIP3    H233683   4.419   2.895   2.107  1.3084 -0.6424  0.6582
 4042TIP3   OH233684   4.593   0.505   1.978 -0.0394 -0.3874  0.8674
 4042TIP3    H133685   4.685   0.479   1.973  0.8060  2.5031 -1.4219
 4042TIP3    H233686   4.584   0.575   1.913 -2.8394  2.5140  3.9654
 4043TIP3   OH233687   1.454   1.826   8.044 -0.2676 -0.1328 -0.2971
 4043TIP3    H133688   1.445   1.921   8.047  0.9208 -0.0269  1.3475
 4043TIP3    H233689   1.515   1.810   7.972 -1.9051  0.1748 -1.8069
 4044TIP3   OH233690   6.724   3.656   7.661  0.1340  0.2229  0.3932
 4044TIP3    H133691   6.726   3.724   7.729 -0.7171 -0.3837  1.0422
 4044TIP3    H233692   6.777   3.585   7.697  0.2249  0.1562  0.1299
 4045TIP3   OH233693   1.038   3.535   8.306  0.1793  0.5693 -0.0074
 4045TIP3    H133694   0.981   3.582   8.367  0.0563  1.0329 -0.4756
 4045TIP3    H233695   1.037   3.588   8.226 -1.9920 -1.4698 -1.4856
 4046TIP3   OH233696   0.400   3.986   8.228  0.1129 -0.0962  0.7874
 4046TIP3    H133697   0.318   3.950   8.263  0.9579 -2.1322  0.7831
 4046TIP3    H233698   0.396   3.967   8.134  1.3203 -1.8446  1.0381
 4047TIP3   OH233699   4.847   5.874   7.156 -0.7021  0.0606  0.0549
 4047TIP3    H133700   4.939   5.848   7.162 -1.1890 -1.8917 -0.3625
 4047TIP3    H233701   4.815   5.871   7.246 -0.5368  0.0255  0.1125
 4048TIP3   OH233702   3.918   6.912   2.535  0.0698  0.1849 -0.7163
 4048TIP3    H133703   3.886   6.825   2.511  1.5590 -0.2076 -1.4552
 4048TIP3    H233704   3.974   6.896   2.612 -0.1744  0.5968 -0.4506
 4049TIP3   OH233705   2.999   6.407   1.134 -0.9395 -0.4526  0.1694
 4049TIP3    H133706   3.037   6.461   1.203  0.3935 -1.9485  0.6877
 4049TIP3    H233707   2.970   6.469   1.068  1.8899  0.8703  0.0325
 4050TIP3   OH233708   5.731   3.784   1.725 -0.1757 -0.7156  0.7835
 4050TIP3    H133709   5.821   3.816   1.724  1.1848 -4.1516 -0.5929
 4050TIP3    H233710   5.688   3.832   1.653  1.0322 -0.2173  0.3615
 4051TIP3   OH233711   2.182   1.239   1.231 -0.7764 -0.3287  0.1731
 4051TIP3    H133712   2.192   1.208   1.141 -0.2537  1.5335 -0.4601
 4051TIP3    H233713   2.141   1.325   1.222  2.4014  1.5138  1.3740
 4052TIP3   OH233714   0.316   0.720   7.555 -0.3522  0.2304 -0.4067
 4052TIP3    H133715   0.311   0.767   7.638  1.3832  0.2855 -0.3082
 4052TIP3    H233716   0.406   0.690   7.550 -0.9349 -1.5274 -1.3301
 4053TIP3   OH233717   0.357   6.226   1.881 -0.2794  0.5141 -0.8816
 4053TIP3    H133718   0.414   6.278   1.824  0.6542  0.1462 -0.2979
 4053TIP3    H233719   0.340   6.146   1.831  1.0794 -0.1008 -0.4041
 4054TIP3   OH233720   1.220   1.520   7.806  0.0835 -0.2318  0.4782
 4054TIP3    H133721   1.262   1.548   7.725 -0.0372  0.0990  0.5290
 4054TIP3    H233722   1.135   1.487   7.778  0.3186 -0.7654  0.3921
 4055TIP3   OH233723   2.701   6.676   2.393  0.3656 -0.0492  0.5255
 4055TIP3    H133724   2.701   6.760   2.347 -0.8763  0.1914  0.9099
 4055TIP3    H233725   2.700   6.700   2.486  0.7096 -0.4980  0.6473
 4056TIP3   OH233726   3.516   1.505   0.644 -0.0041 -0.1067  0.3311
 4056TIP3    H133727   3.425   1.518   0.670 -0.1937  0.3914 -0.5117
 4056TIP3    H233728   3.513   1.436   0.578  0.2401 -0.1865  0.4019
 4057TIP3   OH233729   0.447   6.605   0.779  0.2398  0.3548  0.1084
 4057TIP3    H133730   0.445   6.673   0.847  2.6371  1.4165 -0.7415
 4057TIP3    H233731   0.514   6.544   0.810 -0.3838 -0.4790 -0.1669
 4058TIP3   OH233732   6.624   0.959   7.507  0.6209  0.2702  0.2009
 4058TIP3    H133733   6.647   0.998   7.423  0.1818  1.5144  0.6290
 4058TIP3    H233734   6.532   0.932   7.497 -0.6519  3.6569  1.3111
 4059TIP3   OH233735   1.296   5.262   6.710  0.1462 -0.4838  0.1822
 4059TIP3    H133736   1.297   5.311   6.628  2.6795  1.5660  1.2717
 4059TIP3    H233737   1.354   5.188   6.696  1.1211  0.2482  0.2989
 4060TIP3   OH233738   3.729   3.841   2.642  0.5689 -0.1001  0.4642
 4060TIP3    H133739   3.668   3.792   2.586 -1.9996  2.6484  0.5939
 4060TIP3    H233740   3.716   3.804   2.730  0.0988 -0.4405  0.2555
 4061TIP3   OH233741   5.166   1.732   0.657 -0.0610  0.2596  0.2666
 4061TIP3    H133742   5.256   1.710   0.681 -0.1829 -0.9792 -0.3243
 4061TIP3    H233743   5.139   1.662   0.597 -0.6128  1.8803 -1.4834
 4062TIP3   OH233744   1.804   5.797   7.700 -0.5668 -0.1407  0.7036
 4062TIP3    H133745   1.740   5.778   7.768 -0.0639 -2.4068  0.6106
 4062TIP3    H233746   1.755   5.794   7.618 -0.6979  0.1440  0.7687
 4063TIP3   OH233747   6.408   6.301   1.748 -0.1292 -0.4790  0.7468
 4063TIP3    H133748   6.479   6.362   1.726 -0.6120 -0.3765 -0.6741
 4063TIP3    H233749   6.334   6.358   1.770 -0.4435 -0.5222 -0.1249
 4064TIP3   OH233750   2.563   2.280   0.923  0.3786 -0.4081  0.4570
 4064TIP3    H133751   2.495   2.317   0.867  0.2868 -0.5894  0.4451
 4064TIP3    H233752   2.626   2.350   0.935 -0.0598 -0.0771  0.8714
 4065TIP3   OH233753   3.447   1.690   2.416  0.3452  0.3285 -0.2459
 4065TIP3    H133754   3.373   1.733   2.373 -0.5431 -1.2065 -0.3182
 4065TIP3    H233755   3.496   1.649   2.344  0.0747 -0.4207 -0.0081
 4066TIP3   OH233756   0.306   0.690   3.019  0.0536 -0.4507  0.3023
 4066TIP3    H133757   0.393   0.717   3.046 -0.3597  0.1914  1.0518
 4066TIP3    H233758   0.320   0.619   2.956  1.0973 -0.5667  0.6570
 4067TIP3   OH233759   4.658   1.722   7.379  0.0169  0.1700  1.1672
 4067TIP3    H133760   4.687   1.688   7.464  0.8629  0.8329  1.1547
 4067TIP3    H233761   4.577   1.675   7.361 -1.2827  1.4486  3.2737
 4068TIP3   OH233762   2.073   2.904   0.254  0.1475 -0.0635  0.6930
 4068TIP3    H133763   2.019   2.947   0.187  2.2894 -2.8731 -3.2627
 4068TIP3    H233764   2.121   2.976   0.296 -0.9278  1.8430 -1.1650
 4069TIP3   OH233765   0.026   4.148   0.052  0.4499 -0.8266 -0.0856
 4069TIP3    H133766   0.015   4.053   0.048 -0.0491 -0.7737  0.0552
 4069TIP3    H233767  -0.061   4.184   0.035  0.5975 -0.3974  0.0476
 4070TIP3   OH233768   2.026   0.592   0.873 -0.1156 -0.1372  0.2747
 4070TIP3    H133769   2.087   0.641   0.817 -0.6373  1.6539  1.2207
 4070TIP3    H233770   1.943   0.593   0.825 -0.3118  0.5597  0.6153
 4071TIP3   OH233771   5.928   3.266   7.202 -0.4245 -0.2429  0.4036
 4071TIP3    H133772   5.835   3.283   7.185 -0.5525 -3.1612 -3.1079
 4071TIP3    H233773   5.974   3.340   7.163 -1.1914  0.8923  1.5815
 4072TIP3   OH233774   2.131   6.041   1.265  0.2233 -0.0259 -0.5382
 4072TIP3    H133775   2.210   6.063   1.216  1.3601  0.5878  1.4327
 4072TIP3    H233776   2.136   5.946   1.277 -1.2668 -0.5839 -3.4322
 4073TIP3   OH233777   1.444   6.688   1.633 -0.2523 -0.5152  0.5177
 4073TIP3    H133778   1.514   6.626   1.613 -1.6882 -1.6541 -1.4203
 4073TIP3    H233779   1.459   6.762   1.576 -0.1267 -0.3487  0.7649
 4074TIP3   OH233780   6.865   1.807   0.089  0.3593  0.0027  0.6166
 4074TIP3    H133781   6.931   1.811   0.020 -0.0608  0.2752  0.2246
 4074TIP3    H233782   6.785   1.836   0.047 -0.5168 -2.3896  0.4990
 4075TIP3   OH233783   3.623   3.013   7.095  0.2873 -0.4647 -0.6304
 4075TIP3    H133784   3.687   2.987   7.161  0.7676  2.0133 -0.0128
 4075TIP3    H233785   3.538   2.996   7.137  0.5877  0.0452  0.2163
 4076TIP3   OH233786   6.683   0.062   8.199  0.6511  0.4738 -0.6582
 4076TIP3    H133787   6.696   0.095   8.110  2.4656 -0.8017 -0.9194
 4076TIP3    H233788   6.753  -0.002   8.212 -1.6945 -2.1024  0.3739
 4077TIP3   OH233789   4.819   6.716   6.657  0.9053  0.1970  0.1988
 4077TIP3    H133790   4.724   6.706   6.654  0.6981  1.0511  2.0812
 4077TIP3    H233791   4.852   6.626   6.657  0.0843 -0.1138 -0.3001
 4078TIP3   OH233792   6.179   5.783   2.638  0.1219  0.4206 -0.2630
 4078TIP3    H133793   6.091   5.769   2.674  0.4164 -1.3749 -0.1461
 4078TIP3    H233794   6.164   5.832   2.557 -1.1017 -0.5666 -0.6775
 4079TIP3   OH233795   1.658   1.470   0.989  0.3969 -0.0531  0.0579
 4079TIP3    H133796   1.654   1.554   0.942  0.0512  0.6800  1.3516
 4079TIP3    H233797   1.568   1.437   0.988  0.7350 -1.0460 -1.5006
 4080TIP3   OH233798   5.217   1.302   7.307  0.1297 -0.4027 -0.1128
 4080TIP3    H133799   5.305   1.298   7.269 -0.5442 -0.8157 -1.7048
 4080TIP3    H233800   5.187   1.211   7.307  0.1533 -0.4431  1.5964
 4081TIP3   OH233801   3.423   0.652   8.498 -0.4547  0.0649 -0.2390
 4081TIP3    H133802   3.411   0.734   8.451  0.6412  0.0591 -0.5440
 4081TIP3    H233803   3.510   0.621   8.473  0.7643  0.7144  2.7295
 4082TIP3   OH233804   3.566   1.686   2.150  0.0762 -0.0123 -0.2623
 4082TIP3    H133805   3.594   1.776   2.137 -0.4394  0.2830  0.6063
 4082TIP3    H233806   3.631   1.633   2.102  0.4873  0.7973 -0.6128
 4083TIP3   OH233807   2.761   1.998   7.494  0.2901  0.1145 -0.2469
 4083TIP3    H133808   2.785   2.085   7.460  0.2470  0.2479  0.0632
 4083TIP3    H233809   2.782   1.938   7.422 -2.8848  0.7132 -1.8473
 4084TIP3   OH233810   5.263   6.359   1.570 -0.4352 -0.0288 -0.1176
 4084TIP3    H133811   5.263   6.264   1.558  0.5813  0.1653 -2.1631
 4084TIP3    H233812   5.230   6.372   1.658  1.4105 -2.3976  1.0614
 4085TIP3   OH233813   5.642   5.851   2.108  1.0390 -0.0321  0.3810
 4085TIP3    H133814   5.728   5.866   2.070 -0.2142 -0.5250 -3.0830
 4085TIP3    H233815   5.593   5.931   2.090  0.2542 -0.4553  0.5481
 4086TIP3   OH233816   3.124   0.501   0.300 -0.1763  0.1613  0.0810
 4086TIP3    H133817   3.169   0.455   0.229 -2.0577 -0.6829 -0.6289
 4086TIP3    H233818   3.188   0.505   0.371  1.8854  1.2937 -1.7038
 4087TIP3   OH233819   1.083   4.004   0.136 -0.2447  0.1487 -0.0425
 4087TIP3    H133820   0.994   4.022   0.105 -1.9561 -3.5077  2.0491
 4087TIP3    H233821   1.108   4.083   0.182 -2.5421  1.2025 -0.4165
 4088TIP3   OH233822   5.824   6.576   8.181 -0.2719 -0.6665 -0.4809
 4088TIP3    H133823   5.769   6.632   8.236 -0.6210 -2.4250  1.0345
 4088TIP3    H233824   5.906   6.625   8.174 -1.4604  1.3204 -1.5659
 4089TIP3   OH233825   2.977   1.596   0.034  0.0156 -0.5372 -0.2160
 4089TIP3    H133826   2.999   1.560  -0.053  0.6649  0.9965 -0.7208
 4089TIP3    H233827   3.054   1.578   0.087  0.3695  0.1472 -0.4882
 4090TIP3   OH233828   3.265   6.381   3.007 -0.1754  0.2484  0.4441
 4090TIP3    H133829   3.177   6.362   2.976 -0.1499 -1.0300  1.0891
 4090TIP3    H233830   3.321   6.368   2.930 -0.5469  1.1909  0.0009
 4091TIP3   OH233831   2.369   3.969   6.918  0.0250 -0.0336  0.0547
 4091TIP3    H133832   2.420   4.049   6.924  0.2773 -0.1371 -0.6211
 4091TIP3    H233833   2.427   3.906   6.875  0.2683 -0.9509  1.6800
 4092TIP3   OH233834   4.384   1.469   0.485 -0.1313 -0.3744  0.0068
 4092TIP3    H133835   4.348   1.473   0.396 -1.4234  1.0150  0.5395
 4092TIP3    H233836   4.473   1.503   0.476 -0.5982  0.7499 -0.6233
 4093TIP3   OH233837   1.330   2.777   8.349  0.3324  0.0349  0.0204
 4093TIP3    H133838   1.305   2.697   8.396 -1.5493 -0.2474 -1.3525
 4093TIP3    H233839   1.411   2.754   8.303 -0.0757 -1.0235 -0.1961
 4094TIP3   OH233840   1.758   6.101   0.369 -0.3825  0.2926  0.1672
 4094TIP3    H133841   1.708   6.172   0.328 -0.9071 -0.5723 -0.7353
 4094TIP3    H233842   1.714   6.021   0.341  0.9578 -0.4596  0.1120
 4095TIP3   OH233843   4.351   2.645   0.359  0.3937 -0.3009  0.0619
 4095TIP3    H133844   4.308   2.569   0.398  1.6219 -1.7624 -1.2633
 4095TIP3    H233845   4.423   2.665   0.419 -2.4556  2.7948  2.8352
 4096TIP3   OH233846   1.557   1.119   1.315  0.3329 -0.3843  0.3841
 4096TIP3    H133847   1.479   1.171   1.293  1.6863  1.4548 -0.4380
 4096TIP3    H233848   1.591   1.090   1.230  1.6552  0.6359  0.5195
 4097TIP3   OH233849   1.481   3.589   7.370  0.5543 -0.3367 -0.0985
 4097TIP3    H133850   1.459   3.666   7.318 -1.4294 -0.3930  0.5916
 4097TIP3    H233851   1.577   3.585   7.367  0.6724  1.7581 -0.6960
 4098TIP3   OH233852   1.746   5.631   2.337  0.0322 -0.6002 -0.4985
 4098TIP3    H133853   1.730   5.726   2.343 -0.3278 -0.7408  2.1695
 4098TIP3    H233854   1.660   5.593   2.320 -0.0821 -0.5265 -0.0927
 4099TIP3   OH233855   4.706   2.263   0.369 -0.3492  0.2366 -0.4363
 4099TIP3    H133856   4.724   2.350   0.405 -0.0635  0.2418 -0.5864
 4099TIP3    H233857   4.789   2.216   0.378 -0.8297 -0.4178  0.7540
 4100TIP3   OH233858   3.749   2.582   7.552  0.9606  0.1943 -1.0031
 4100TIP3    H133859   3.790   2.585   7.465  0.6646 -0.8571 -1.1914
 4100TIP3    H233860   3.754   2.490   7.578  0.5281  0.3987 -0.1487
 4101TIP3   OH233861   3.758   6.214   1.419 -0.0784 -0.2600  0.1855
 4101TIP3    H133862   3.679   6.167   1.447 -0.9671  1.1419  0.1130
 4101TIP3    H233863   3.830   6.165   1.459 -1.1670  0.4638  3.2904
 4102TIP3   OH233864   6.686   0.609   7.455  0.1292 -0.1369 -0.5881
 4102TIP3    H133865   6.692   0.686   7.398  0.1730 -0.3068 -0.8124
 4102TIP3    H233866   6.597   0.575   7.440  0.8717 -1.4887 -2.2487
 4103TIP3   OH233867   1.064   6.764   8.068 -0.7027 -0.1047 -0.6119
 4103TIP3    H133868   1.064   6.859   8.082 -0.8240 -0.3557  1.3928
 4103TIP3    H233869   1.023   6.753   7.982  0.6897  1.7086 -1.5951
 4104TIP3   OH233870   0.069   2.419   1.090  0.2646 -0.1389 -0.0481
 4104TIP3    H133871   0.098   2.337   1.131 -0.1306 -0.2670 -0.0221
 4104TIP3    H233872  -0.026   2.412   1.086  0.3200 -0.5929 -1.9220
 4105TIP3   OH233873   1.638   6.295   0.247 -0.1571  0.0929  0.0834
 4105TIP3    H133874   1.574   6.312   0.316 -0.1432 -1.0530  0.4026
 4105TIP3    H233875   1.685   6.378   0.237  0.6300  0.0009  2.2963
 4106TIP3   OH233876   0.710   0.887   0.671  0.1206  0.1657 -0.1064
 4106TIP3    H133877   0.707   0.907   0.764 -0.8356 -0.2606 -0.0344
 4106TIP3    H233878   0.624   0.911   0.638  0.6306  0.8177 -0.9947
 4107TIP3   OH233879   5.896   3.469   0.928 -0.0313 -0.0262  0.0558
 4107TIP3    H133880   5.885   3.479   0.833 -0.3324  0.3877  0.1274
 4107TIP3    H233881   5.820   3.417   0.955  0.6922 -1.1890 -0.0919
 4108TIP3   OH233882   3.497   0.648   0.769  0.5059 -0.6268  0.3306
 4108TIP3    H133883   3.578   0.649   0.718  0.3686 -0.5240  0.1110
 4108TIP3    H233884   3.511   0.712   0.838 -0.0594  0.7607 -0.7795
 4109TIP3   OH233885   0.071   3.187   0.917 -0.0289  0.1249 -0.3137
 4109TIP3    H133886   0.046   3.234   0.837 -1.0811 -0.0817 -0.1204
 4109TIP3    H233887   0.089   3.256   0.981  0.8732  0.2926 -0.7307
 4110TIP3   OH233888   3.477   6.871   0.802  0.3863  0.4273 -0.0642
 4110TIP3    H133889   3.503   6.783   0.777  2.6263  0.6488  1.2194
 4110TIP3    H233890   3.523   6.928   0.740 -0.2270  0.7319 -0.2456
 4111TIP3   OH233891   0.425   3.606   1.720 -0.2740  0.4937 -0.2183
 4111TIP3    H133892   0.460   3.540   1.661 -1.4189 -0.0792 -0.2951
 4111TIP3    H233893   0.391   3.556   1.794 -1.8185  0.8964 -0.6068
 4112TIP3   OH233894   4.727   2.290   8.415  0.5387 -0.4465  0.4639
 4112TIP3    H133895   4.639   2.274   8.382 -0.2450  1.0017  1.7031
 4112TIP3    H233896   4.783   2.233   8.363 -0.9068 -0.1207 -1.5792
 4113TIP3   OH233897   6.225   2.456   2.337  0.2832 -0.4881  1.0712
 4113TIP3    H133898   6.289   2.423   2.275  0.0290 -1.1607  1.1572
 4113TIP3    H233899   6.248   2.548   2.349 -1.6920  0.6856 -2.6460
 4114TIP3   OH233900   0.218   3.624   0.324 -0.1942 -0.1700 -0.1128
 4114TIP3    H133901   0.299   3.572   0.328 -0.8330 -1.1810  0.0092
 4114TIP3    H233902   0.163   3.587   0.392 -0.7332  0.5850 -0.1281
 4115TIP3   OH233903   6.649   3.996   2.269 -0.3139 -0.4444  0.3413
 4115TIP3    H133904   6.682   3.907   2.253 -2.5653 -1.2676 -0.1185
 4115TIP3    H233905   6.679   4.046   2.193  0.7743 -0.8399  0.4852
 4116TIP3   OH233906   4.228   4.947   1.301  0.2557  0.0360 -0.7585
 4116TIP3    H133907   4.200   5.017   1.242  1.4229  0.0254 -1.3480
 4116TIP3    H233908   4.156   4.938   1.363 -1.3225 -0.3942 -2.5472
 4117TIP3   OH233909   6.608   0.056   1.413 -0.4817  0.1813  0.2698
 4117TIP3    H133910   6.653   0.039   1.495  1.7643  0.5915 -0.8054
 4117TIP3    H233911   6.560   0.138   1.429  0.0918  0.3675  1.1208
 4118TIP3   OH233912   6.387   6.338   8.016 -0.3680 -0.0846  0.1292
 4118TIP3    H133913   6.355   6.249   7.998 -1.2216  0.2925 -0.2382
 4118TIP3    H233914   6.411   6.373   7.931 -0.4910  0.2143  0.2159
 4119TIP3   OH233915   3.843   0.397   8.392 -0.3582  0.1385 -0.1105
 4119TIP3    H133916   3.756   0.409   8.355 -0.1728  1.8119 -0.0820
 4119TIP3    H233917   3.901   0.445   8.333  0.6825 -1.5747 -0.5575
 4120TIP3   OH233918   6.296   0.631   2.198  0.0177  0.1552 -0.2058
 4120TIP3    H133919   6.299   0.547   2.153 -1.1595 -0.8377  1.4630
 4120TIP3    H233920   6.204   0.656   2.198  0.1472  0.6881  0.6411
 4121TIP3   OH233921   1.368   1.922   1.319  0.1443 -0.6485 -0.2635
 4121TIP3    H133922   1.455   1.932   1.358  0.7816 -1.7533 -1.3225
 4121TIP3    H233923   1.361   1.992   1.254  0.1226 -0.3849  0.0226
 4122TIP3   OH233924   0.226   2.901   1.889  0.7643 -0.1106  0.0937
 4122TIP3    H133925   0.228   2.971   1.954  1.7644 -0.9726  1.0392
 4122TIP3    H233926   0.281   2.832   1.926 -1.3215 -2.0001 -0.1308
 4123TIP3   OH233927   2.273   4.603   7.965  0.9089 -0.3620 -0.4155
 4123TIP3    H133928   2.369   4.605   7.962  0.9371  0.8582  0.7795
 4123TIP3    H233929   2.253   4.538   8.033  1.0025  1.7544  1.7733
 4124TIP3   OH233930   6.418   1.852   6.411 -0.7747 -0.9571 -0.2894
 4124TIP3    H133931   6.436   1.838   6.504  0.8015 -0.0554 -0.4212
 4124TIP3    H233932   6.323   1.866   6.406 -0.7445  0.0639  1.3334
 4125TIP3   OH233933   4.413   6.918   7.198 -0.3775 -1.3568 -0.2983
 4125TIP3    H133934   4.330   6.888   7.162 -0.1381 -2.8300  0.3320
 4125TIP3    H233935   4.403   6.908   7.293  0.1251 -0.4853 -0.1458
 4126TIP3   OH233936   3.215   1.832   6.632 -0.5866 -0.4509  0.5198
 4126TIP3    H133937   3.176   1.905   6.680  1.9171 -0.3651  2.6761
 4126TIP3    H233938   3.239   1.769   6.700  1.5387 -1.1502 -0.7936
 4127TIP3   OH233939   4.705   6.215   0.307  0.2299  0.1563  0.6200
 4127TIP3    H133940   4.800   6.222   0.309  0.4568 -2.1013  0.6258
 4127TIP3    H233941   4.675   6.299   0.273  2.2301  0.7803  0.2824
 4128TIP3   OH233942   6.034   2.068   1.996  0.0698 -0.0047  0.1060
 4128TIP3    H133943   5.969   2.110   1.939  0.7845 -0.1867 -0.8686
 4128TIP3    H233944   6.017   2.104   2.083 -0.7068  0.6774 -0.3165
 4129TIP3   OH233945   0.727   1.890   7.118 -0.4503  0.3979 -0.2706
 4129TIP3    H133946   0.709   1.811   7.068  1.1627  0.8700 -1.7172
 4129TIP3    H233947   0.737   1.860   7.208 -2.3253 -0.6408 -0.3656
 4130TIP3   OH233948   1.523   6.642   1.219  0.3014 -0.4884 -0.1348
 4130TIP3    H133949   1.565   6.611   1.139  0.1528 -0.8740 -0.0680
 4130TIP3    H233950   1.455   6.702   1.189  1.7561  1.1926 -0.1816
 4131TIP3   OH233951   5.524   0.187   7.101  0.1028 -0.7150 -0.2070
 4131TIP3    H133952   5.567   0.124   7.045  0.9551 -1.8591  1.6458
 4131TIP3    H233953   5.594   0.245   7.131  0.4139 -2.3042  2.4540
 4132TIP3   OH233954   5.709   4.408   8.432 -0.2088  0.4938 -0.2327
 4132TIP3    H133955   5.620   4.424   8.463  0.1945 -0.5501  1.6025
 4132TIP3    H233956   5.761   4.481   8.466 -0.2363  0.7410 -0.7164
 4133TIP3   OH233957   1.768   5.294   1.455 -0.1479 -0.0935  0.1862
 4133TIP3    H133958   1.854   5.295   1.412 -0.6983 -3.0072 -1.2071
 4133TIP3    H233959   1.787   5.319   1.545  1.9920  0.3807 -0.3171
 4134TIP3   OH233960   0.882   2.048   1.739  0.1764 -0.5966 -0.1315
 4134TIP3    H133961   0.855   2.060   1.831  0.8066 -2.5193  0.3631
 4134TIP3    H233962   0.800   2.033   1.692 -0.0572 -0.8920  0.3622
 4135TIP3   OH233963   2.401   0.470   2.627  0.4463 -0.0965 -0.0264
 4135TIP3    H133964   2.350   0.550   2.631  0.7678  0.0748  0.7401
 4135TIP3    H233965   2.337   0.399   2.636  0.2092  0.0776 -0.3191
 4136TIP3   OH233966   2.893   4.612   1.179 -0.1585 -0.4546  0.2755
 4136TIP3    H133967   2.967   4.661   1.216  0.1879 -2.1099  1.9043
 4136TIP3    H233968   2.910   4.612   1.085  1.1654  0.3831  0.4807
 4137TIP3   OH233969   6.749   2.605   6.814  0.2777 -0.0321  0.7317
 4137TIP3    H133970   6.692   2.682   6.808 -0.4829 -0.6306 -0.0546
 4137TIP3    H233971   6.808   2.624   6.887 -0.2419  1.0636  0.8860
 4138TIP3   OH233972   5.928   0.155   0.685 -0.0340 -0.5827 -0.3732
 4138TIP3    H133973   5.922   0.228   0.623  0.1047  0.5459  0.9019
 4138TIP3    H233974   5.884   0.186   0.764 -0.7986 -2.2387 -0.0988
 4139TIP3   OH233975   5.292   6.531   8.310 -0.2307  0.2104 -0.3033
 4139TIP3    H133976   5.253   6.600   8.364 -1.6153 -0.5614 -0.2499
 4139TIP3    H233977   5.364   6.497   8.362 -0.6689  0.4264  0.4644
 4140TIP3   OH233978   1.440   5.194   7.790  0.7141  0.5059  0.2175
 4140TIP3    H133979   1.370   5.246   7.750 -2.5008 -3.3296  0.1822
 4140TIP3    H233980   1.401   5.160   7.871  2.2440 -2.2843 -0.0825
 4141TIP3   OH233981   1.751   3.889   8.245  0.1040  0.8281 -0.0824
 4141TIP3    H133982   1.735   3.976   8.211 -0.3030  0.0747 -1.9332
 4141TIP3    H233983   1.666   3.846   8.244  0.3581  0.2822  0.4517
 4142TIP3   OH233984   6.288   5.597   6.726 -0.1181 -0.0265 -0.2086
 4142TIP3    H133985   6.372   5.553   6.735 -0.2477 -0.6151 -1.6400
 4142TIP3    H233986   6.309   5.691   6.728  0.4620 -0.1640  0.2527
 4143TIP3   OH233987   1.136   2.520   8.100 -0.0396  0.3645 -0.0979
 4143TIP3    H133988   1.181   2.447   8.057 -0.8253  0.7170 -1.6186
 4143TIP3    H233989   1.205   2.567   8.147  0.8413 -0.1606 -0.8254
 4144TIP3   OH233990   5.488   5.823   1.868  0.3135 -0.3421  0.2702
 4144TIP3    H133991   5.513   5.913   1.847 -1.0273 -0.1103 -0.4040
 4144TIP3    H233992   5.572   5.777   1.877  1.0100  0.8024 -0.0958
 4145TIP3   OH233993   6.320   4.055   7.366 -0.2579  0.5151 -0.3927
 4145TIP3    H133994   6.279   4.073   7.451 -1.1852  1.1129 -0.9521
 4145TIP3    H233995   6.269   4.106   7.303 -0.2042 -0.6796 -1.4574
 4146TIP3   OH233996   2.782   6.939   2.286  0.4889  0.2952  0.4573
 4146TIP3    H133997   2.709   6.978   2.336  1.2323  0.2081  1.6511
 4146TIP3    H233998   2.857   6.945   2.345  1.0220 -1.3882 -0.0046
 4147TIP3   OH233999   3.017   3.189   0.031 -0.4639 -0.0095  0.4112
 4147TIP3    H134000   2.985   3.173   0.120  0.2228 -1.8010  0.3747
 4147TIP3    H234001   3.011   3.284   0.021 -2.0137  0.1056  1.8018
 4148TIP3   OH234002   2.249   3.340   1.382 -0.2212 -0.1593 -0.4483
 4148TIP3    H134003   2.299   3.364   1.304  1.6398 -1.4940  0.2771
 4148TIP3    H234004   2.159   3.332   1.350  0.6634 -2.0412 -2.8153
 4149TIP3   OH234005   5.096   6.786   8.212  0.0806  0.3135  0.0168
 4149TIP3    H134006   5.089   6.697   8.176 -0.8686  0.7983 -1.0608
 4149TIP3    H234007   5.167   6.826   8.161  0.6944  0.1128  0.6880
 4150TIP3   OH234008   3.213   6.142   8.136  0.9587 -0.1271  0.0598
 4150TIP3    H134009   3.302   6.177   8.128  0.5451  0.8971 -0.2166
 4150TIP3    H234010   3.219   6.079   8.207  1.9285 -0.1450 -0.0184
 4151TIP3   OH234011   0.035   2.403   7.637  0.0946  0.2180  0.5109
 4151TIP3    H134012  -0.022   2.411   7.713 -1.7777 -1.2885 -0.6389
 4151TIP3    H234013   0.062   2.311   7.637  0.0244  0.1827 -0.6636
 4152TIP3   OH234014   1.924   4.845   0.503  0.0876 -0.3353  0.0992
 4152TIP3    H134015   1.921   4.777   0.435  0.4293 -2.8733  2.4314
 4152TIP3    H234016   1.835   4.878   0.508  0.3855  1.0847 -2.6011
 4153TIP3   OH234017   6.042   0.618   7.879  0.5188 -0.3814 -0.3691
 4153TIP3    H134018   6.036   0.538   7.932  0.0610 -1.1774 -1.5962
 4153TIP3    H234019   6.039   0.689   7.943  1.1404 -1.3407  0.7619
 4154TIP3   OH234020   2.381   4.532   1.230 -0.4628 -0.6012  0.6497
 4154TIP3    H134021   2.434   4.526   1.309 -0.1928 -0.9862  0.4422
 4154TIP3    H234022   2.444   4.530   1.158 -0.7760 -1.3732  0.3898
 4155TIP3   OH234023   3.288   1.691   6.852 -0.1685  0.0401  0.1228
 4155TIP3    H134024   3.308   1.598   6.864 -1.3225 -0.1955  0.3837
 4155TIP3    H234025   3.373   1.733   6.841  0.4683 -0.8592  1.3475
 4156TIP3   OH234026   4.268   3.250   2.226  0.7422 -0.2941  0.3957
 4156TIP3    H134027   4.182   3.255   2.267  0.9060 -0.4333  0.7529
 4156TIP3    H234028   4.312   3.176   2.267  1.6040  0.6876  1.3233
 4157TIP3   OH234029   4.319   5.299   8.007 -0.3144 -0.0859 -0.2739
 4157TIP3    H134030   4.272   5.302   7.924 -0.5606 -0.6640 -0.1627
 4157TIP3    H234031   4.305   5.385   8.046 -0.8368 -0.0723 -0.4854
 4158TIP3   OH234032   6.461   1.462   7.678  0.7465 -0.3188 -0.0081
 4158TIP3    H134033   6.433   1.463   7.586  1.3222 -1.5134 -0.2161
 4158TIP3    H234034   6.506   1.378   7.689  1.4437  0.1738  1.1496
 4159TIP3   OH234035   5.908   4.274   2.437  0.0781 -0.1819  0.0288
 4159TIP3    H134036   5.856   4.251   2.514 -0.1755  1.2834  0.3344
 4159TIP3    H234037   5.853   4.250   2.362 -0.2640 -0.3267  0.3242
 4160TIP3   OH234038   1.064   6.028   7.026 -1.0708 -0.5716 -0.0737
 4160TIP3    H134039   1.086   6.096   7.089 -0.9407 -0.0606 -0.6617
 4160TIP3    H234040   0.974   6.046   7.000 -0.5348  0.3445 -1.4093
 4161TIP3   OH234041   5.782   1.339   7.266 -0.2131 -0.3887  0.2643
 4161TIP3    H134042   5.695   1.372   7.286  0.2519  0.7449  0.5119
 4161TIP3    H234043   5.837   1.417   7.264  0.2120 -0.6196 -3.2260
 4162TIP3   OH234044   2.695   3.620   1.640 -0.1770 -0.1637  0.3015
 4162TIP3    H134045   2.659   3.589   1.724  0.8349 -2.0096  0.1082
 4162TIP3    H234046   2.779   3.659   1.663  0.3389 -1.1316  0.1283
 4163TIP3   OH234047   5.081   1.465   1.496  0.2630  0.0668 -0.2065
 4163TIP3    H134048   5.045   1.542   1.452  1.4614  0.0153 -1.3506
 4163TIP3    H234049   5.121   1.500   1.576  0.6293  0.6281 -0.6247
 4164TIP3   OH234050   3.796   5.395   7.973 -0.2272 -0.0171 -0.2436
 4164TIP3    H134051   3.825   5.486   7.973  0.0646 -0.0820 -1.6277
 4164TIP3    H234052   3.875   5.345   7.953 -0.6978 -0.4327 -1.1027
 4165TIP3   OH234053   5.607   6.237   0.142  0.4492 -0.5647 -0.5574
 4165TIP3    H134054   5.666   6.291   0.195  0.6951 -0.6693 -0.7197
 4165TIP3    H234055   5.622   6.266   0.052 -0.8120  0.4157 -0.4768
 4166TIP3   OH234056   0.650   4.004   0.065 -0.4794  0.1956  0.2269
 4166TIP3    H134057   0.716   4.030   0.130 -0.7218 -1.3027  1.1316
 4166TIP3    H234058   0.664   4.062  -0.009  0.5628  1.2056  1.1833
 4167TIP3   OH234059   2.155   2.394   0.360  0.7874  0.2024  0.1301
 4167TIP3    H134060   2.219   2.414   0.429  1.2297  1.0114 -0.4888
 4167TIP3    H234061   2.120   2.480   0.335  2.0911  0.1754 -2.0062
 4168TIP3   OH234062   0.800   0.229   2.065 -0.0388 -0.2535  0.4411
 4168TIP3    H134063   0.708   0.219   2.089  0.2036 -1.2738  0.9537
 4168TIP3    H234064   0.846   0.160   2.113  1.4986  2.2682  2.9215
 4169TIP3   OH234065   1.752   3.079   0.167  0.9627  0.3233  0.2285
 4169TIP3    H134066   1.669   3.062   0.122  0.4856 -0.5529  1.4057
 4169TIP3    H234067   1.817   3.031   0.116  0.4841 -0.3592  0.2489
 4170TIP3   OH234068   6.779   2.357   6.987  0.1163  0.3445  0.4544
 4170TIP3    H134069   6.745   2.328   7.071 -0.0013  0.8574  0.5897
 4170TIP3    H234070   6.737   2.300   6.923 -0.0799  0.1940  0.7179
 4171TIP3   OH234071   1.726   0.909   2.199  0.0378  0.2616 -0.0834
 4171TIP3    H134072   1.799   0.967   2.179  1.3651 -0.9405  1.0841
 4171TIP3    H234073   1.696   0.938   2.285  0.0429 -0.1296  0.0516
 4172TIP3   OH234074   4.523   2.185   1.907  0.3563 -0.0163  0.7276
 4172TIP3    H134075   4.511   2.093   1.929  1.2406 -0.4243 -0.4006
 4172TIP3    H234076   4.476   2.233   1.976 -0.4243 -1.3042  1.1134
 4173TIP3   OH234077   1.373   6.567   8.486  0.3650 -0.2297 -0.3108
 4173TIP3    H134078   1.336   6.497   8.432 -0.1315  1.1409 -1.8250
 4173TIP3    H234079   1.308   6.580   8.555  0.7796 -1.6665  0.4129
 4174TIP3   OH234080   6.052   5.362   2.760  0.2100 -0.0155 -0.0425
 4174TIP3    H134081   6.118   5.309   2.805 -1.0297 -0.4225  1.3466
 4174TIP3    H234082   6.098   5.394   2.682  1.2917 -2.3658 -0.4629
 4175TIP3   OH234083   0.883   3.844   0.507 -0.6902  0.2964 -0.5109
 4175TIP3    H134084   0.949   3.855   0.438 -0.0427  0.8395  0.1664
 4175TIP3    H234085   0.799   3.852   0.462 -0.3077 -0.8329 -1.4641
 4176TIP3   OH234086   0.204   2.810   7.013  0.3723  0.2383  0.4377
 4176TIP3    H134087   0.224   2.750   7.086  0.9946  1.3279  1.1837
 4176TIP3    H234088   0.282   2.864   7.004  0.2999  0.1175 -1.0642
 4177TIP3   OH234089   0.343   3.794   1.559  0.3691 -0.2416  0.2919
 4177TIP3    H134090   0.366   3.732   1.489  0.8169  1.1039 -0.8006
 4177TIP3    H234091   0.369   3.750   1.640  1.8704 -0.9587 -0.5345
 4178TIP3   OH234092   4.949   3.719   1.274 -0.0774 -0.0520  0.1614
 4178TIP3    H134093   4.941   3.718   1.369 -1.3983  1.4253  0.1068
 4178TIP3    H234094   5.041   3.743   1.258  0.1889 -0.4487  1.0458
 4179TIP3   OH234095   5.937   6.441   1.748  0.0065  0.0776 -0.4327
 4179TIP3    H134096   5.885   6.362   1.765  0.8417 -0.1599  1.3147
 4179TIP3    H234097   5.962   6.435   1.656 -0.9966 -1.0453 -0.6546
 4180TIP3   OH234098   5.659   3.943   1.515 -0.1283  0.4961  0.6635
 4180TIP3    H134099   5.747   3.960   1.482  0.6861 -0.6956  2.0954
 4180TIP3    H234100   5.613   4.026   1.506  0.9705  1.0046 -0.5652
 4181TIP3   OH234101   4.363   4.462   1.188  0.0660 -0.2731  0.3045
 4181TIP3    H134102   4.304   4.411   1.244  0.0463 -0.6185 -0.0299
 4181TIP3    H234103   4.400   4.528   1.247 -0.6454 -0.0543  0.5210
 4182TIP3   OH234104   4.310   0.825   8.261 -0.2986  0.8170 -0.1817
 4182TIP3    H134105   4.374   0.889   8.230  4.4802 -3.1271  0.3199
 4182TIP3    H234106   4.330   0.814   8.354 -0.7286 -1.5487 -0.3092
 4183TIP3   OH234107   6.348   3.193   7.788 -0.1132  0.0721  0.2549
 4183TIP3    H134108   6.363   3.103   7.818 -0.0523  0.8652  2.8934
 4183TIP3    H234109   6.286   3.184   7.716 -0.5945 -2.0667  0.8582
 4184TIP3   OH234110   1.263   0.003   2.094 -0.0424 -0.1574 -0.2223
 4184TIP3    H134111   1.313  -0.059   2.040 -1.4886 -0.7140 -0.9983
 4184TIP3    H234112   1.245   0.076   2.035  1.2684  0.8274  0.5595
 4185TIP3   OH234113   4.805   3.070   0.330 -0.2526  0.1064  0.5221
 4185TIP3    H134114   4.797   3.016   0.251  0.7072  1.0131 -0.2339
 4185TIP3    H234115   4.895   3.057   0.359 -0.1679  0.8808  0.6309
 4186TIP3   OH234116   4.793   3.420   8.484  0.6371  0.1291 -0.7205
 4186TIP3    H134117   4.794   3.337   8.532  0.5177 -0.2233 -1.3146
 4186TIP3    H234118   4.884   3.431   8.455  1.2181  1.4244  1.3733
 4187TIP3   OH234119   2.467   2.466   7.896 -0.4048  0.4833 -0.2499
 4187TIP3    H134120   2.383   2.472   7.850  0.3445  0.6694 -1.6754
 4187TIP3    H234121   2.510   2.550   7.877 -0.0154  0.5063  0.6987
 4188TIP3   OH234122   6.028   6.666   0.826 -0.3605  0.2314 -0.2819
 4188TIP3    H134123   6.073   6.750   0.818 -0.4313  0.4118  1.0978
 4188TIP3    H234124   5.940   6.688   0.857 -0.2953 -0.3565  0.3527
 4189TIP3   OH234125   5.519   4.963   1.423 -0.4791 -0.3209 -0.3528
 4189TIP3    H134126   5.578   4.892   1.447  0.7580  0.4639 -0.9702
 4189TIP3    H234127   5.528   4.970   1.328 -1.7923 -0.3619 -0.4998
 4190TIP3   OH234128   3.864   4.129   7.793 -0.3054  0.6514  0.5639
 4190TIP3    H134129   3.925   4.189   7.751  0.9382 -0.2839  0.9693
 4190TIP3    H234130   3.843   4.065   7.726 -1.6678  1.5133  0.1179
 4191TIP3   OH234131   4.405   5.598   1.854  0.7979 -0.1126  0.1495
 4191TIP3    H134132   4.460   5.597   1.775 -2.4070  1.2674 -2.3182
 4191TIP3    H234133   4.389   5.691   1.871 -0.4398 -0.4565  1.0103
 4192TIP3   OH234134   2.331   5.936   8.203  0.1373  0.4486 -0.7967
 4192TIP3    H134135   2.348   5.850   8.241  1.5551  0.2279 -1.8272
 4192TIP3    H234136   2.307   5.917   8.112  0.6629  1.1408 -1.0879
 4193TIP3   OH234137   5.344   3.130   0.202  1.0237 -1.1692 -0.2349
 4193TIP3    H134138   5.315   3.062   0.141  1.9065  0.7494 -2.9850
 4193TIP3    H234139   5.412   3.177   0.154 -2.2129  4.1938 -0.3166
 4194TIP3   OH234140   1.762   0.845   8.431 -0.2370 -0.0270 -0.2254
 4194TIP3    H134141   1.699   0.911   8.458 -0.3823  0.8458 -2.5081
 4194TIP3    H234142   1.711   0.764   8.424 -0.5996  0.1705  0.1384
 4195TIP3   OH234143   4.988   5.823   7.791  0.2037  0.7469  0.3587
 4195TIP3    H134144   5.075   5.840   7.756 -0.1952  0.2344 -0.9553
 4195TIP3    H234145   4.937   5.901   7.767 -0.8159 -0.7191 -2.9175
 4196TIP3   OH234146   5.552   6.748   7.982  0.6823  0.4279 -0.6563
 4196TIP3    H134147   5.603   6.803   8.043  1.9726  0.3107 -1.6042
 4196TIP3    H234148   5.617   6.712   7.922 -0.1029 -2.2846 -0.0047
 4197TIP3   OH234149   5.814   0.124   0.939 -0.8337  0.8706 -0.8360
 4197TIP3    H134150   5.872   0.199   0.954 -0.9350  0.9118 -0.6423
 4197TIP3    H234151   5.747   0.133   1.006  0.1019 -0.3620  0.3041
 4198TIP3   OH234152   2.043   2.640   0.342 -0.0015  0.2941  0.1913
 4198TIP3    H134153   2.054   2.735   0.347 -1.0908  0.5932 -1.7484
 4198TIP3    H234154   1.984   2.627   0.267 -0.2432 -1.8911  0.6881
 4199TIP3   OH234155   6.563   0.726   2.167  0.2921  0.0418 -0.3238
 4199TIP3    H134156   6.596   0.777   2.093 -0.9931  0.2632 -0.7784
 4199TIP3    H234157   6.472   0.707   2.144 -0.2123  0.3188  1.3026
 4200TIP3   OH234158   4.274   4.494   0.038 -0.2233 -0.4120  0.1181
 4200TIP3    H134159   4.321   4.489  -0.045  0.8164 -0.5328  0.6983
 4200TIP3    H234160   4.284   4.584   0.066  1.5956 -0.9385  1.3124
 4201TIP3   OH234161   3.170   1.424   8.042 -0.2469 -0.1343 -0.3655
 4201TIP3    H134162   3.116   1.500   8.022 -1.3257 -0.3720  1.3969
 4201TIP3    H234163   3.107   1.355   8.064  0.7473 -0.6933  0.8180
 4202TIP3   OH234164   5.410   6.269   0.534 -0.7058  0.0957 -0.2993
 4202TIP3    H134165   5.336   6.293   0.478 -0.0636 -0.3311 -1.3810
 4202TIP3    H234166   5.406   6.173   0.538  0.7014 -0.0737 -1.7504
 4203TIP3   OH234167   0.481   2.990   2.035 -0.2481  0.4315  0.1422
 4203TIP3    H134168   0.573   3.015   2.041 -0.3946  1.3117 -0.9557
 4203TIP3    H234169   0.464   2.939   2.114  1.3853 -0.4329 -0.0302
 4204TIP3   OH234170   3.255   6.273   7.645 -0.3986  0.5236 -0.1215
 4204TIP3    H134171   3.342   6.297   7.678 -0.2500  0.6073 -0.5627
 4204TIP3    H234172   3.266   6.269   7.550 -1.2391  2.0062 -0.3129
 4205TIP3   OH234173   5.364   3.472   7.393  0.3804 -0.1411  0.1482
 4205TIP3    H134174   5.409   3.546   7.433 -1.2542  0.3109  1.2673
 4205TIP3    H234175   5.323   3.508   7.314 -4.0987  1.4969  2.8582
 4206TIP3   OH234176   6.929   6.794   0.485 -0.0837 -0.3864 -0.0971
 4206TIP3    H134177   6.971   6.708   0.473 -0.4769 -0.3297 -2.6273
 4206TIP3    H234178   6.950   6.820   0.574  0.7005 -2.7675  0.4815
 4207TIP3   OH234179   4.457   1.109   1.684 -0.3949 -0.5737  0.2795
 4207TIP3    H134180   4.370   1.068   1.681 -1.4541  1.5208  0.8149
 4207TIP3    H234181   4.517   1.036   1.699 -2.0164 -2.1221 -0.4530
 4208TIP3   OH234182   4.113   4.730   1.939  0.3072  0.5919 -0.0549
 4208TIP3    H134183   4.139   4.806   1.990 -0.0967 -0.1041  1.2385
 4208TIP3    H234184   4.119   4.759   1.847 -0.0218  2.2263  0.4067
 4209TIP3   OH234185   5.014   5.457   0.157 -0.0825 -0.1073 -0.8446
 4209TIP3    H134186   5.100   5.454   0.114  0.4077  2.2403 -0.1925
 4209TIP3    H234187   5.029   5.510   0.235 -2.1114  0.1892 -0.6120
 4210TIP3   OH234188   6.906   4.396   1.579 -0.0057  0.0071  0.3010
 4210TIP3    H134189   6.954   4.314   1.586  1.5749  0.6574 -1.8274
 4210TIP3    H234190   6.971   4.464   1.595 -0.3467  0.8894 -1.6922
 4211TIP3   OH234191   0.382   6.059   7.154 -0.1525  0.1524 -0.4496
 4211TIP3    H134192   0.304   6.006   7.139  0.9821 -1.8593  0.3593
 4211TIP3    H234193   0.430   6.056   7.071 -0.8371  1.2796 -0.9050
 4212TIP3   OH234194   2.125   1.674   0.141 -0.7376 -0.0876 -0.0199
 4212TIP3    H134195   2.062   1.604   0.156  0.6673 -1.3605  0.2394
 4212TIP3    H234196   2.072   1.750   0.119 -2.4505 -0.6156  1.9610
 4213TIP3   OH234197   0.171   1.318   1.906 -0.1156  0.5705  0.0644
 4213TIP3    H134198   0.184   1.233   1.949 -1.0903  0.8466  0.9445
 4213TIP3    H234199   0.083   1.313   1.869  0.4968  0.5508 -1.4709
 4214TIP3   OH234200   3.586   6.115   0.330 -0.2097  0.6586 -0.1888
 4214TIP3    H134201   3.643   6.093   0.256  0.0254  0.2596  0.1078
 4214TIP3    H234202   3.625   6.193   0.368 -1.2947  1.9006 -1.5133
 4215TIP3   OH234203   4.196   5.045   7.520  0.0334 -0.1677  0.3621
 4215TIP3    H134204   4.129   5.113   7.527  0.1608 -0.0898  0.8652
 4215TIP3    H234205   4.161   4.983   7.456 -0.6453 -0.2815  0.8427
 4216TIP3   OH234206   5.865   3.707   0.441 -0.0350 -0.0537  0.0783
 4216TIP3    H134207   5.891   3.690   0.532 -1.5944  0.5363  0.6864
 4216TIP3    H234208   5.769   3.704   0.443 -0.2008  2.2193 -1.0500
 4217TIP3   OH234209   0.935   1.935   2.088  0.2244  0.8599 -0.5972
 4217TIP3    H134210   0.851   1.975   2.067 -0.5121 -1.0546 -1.5776
 4217TIP3    H234211   0.986   2.005   2.129 -1.9579  1.9694  0.3727
 4218TIP3   OH234212   4.149   5.132   2.034 -0.2139  0.1200  0.2519
 4218TIP3    H134213   4.164   5.156   1.943 -1.4704 -1.0321 -0.2860
 4218TIP3    H234214   4.054   5.128   2.043 -0.1061 -0.0579  1.5386
 4219TIP3   OH234215   0.536   3.203   0.944 -0.4146 -0.0593  0.5460
 4219TIP3    H134216   0.519   3.133   0.880  0.4538  0.3125 -0.1107
 4219TIP3    H234217   0.454   3.252   0.948 -0.9228 -0.9139  0.7621
 4220TIP3   OH234218   2.850   3.387   1.635 -0.0296  0.3957  0.7248
 4220TIP3    H134219   2.783   3.326   1.606  0.4768  0.7960 -1.4623
 4220TIP3    H234220   2.803   3.470   1.647 -0.3631  0.0693  1.7693
 4221TIP3   OH234221   3.663   1.245   1.747  0.4070  0.0559  0.2829
 4221TIP3    H134222   3.591   1.228   1.687  0.3360 -0.3366  0.4793
 4221TIP3    H234223   3.725   1.299   1.696  0.4927 -0.5238 -0.2372
 4222TIP3   OH234224   4.243   6.626   1.476 -0.4056 -0.2774  0.2691
 4222TIP3    H134225   4.335   6.654   1.472  0.6756 -3.5010 -2.1316
 4222TIP3    H234226   4.195   6.694   1.429  0.6972  1.3999  1.4388
 4223TIP3   OH234227   6.892   2.219   5.979 -0.2408  0.1025 -0.1645
 4223TIP3    H134228   6.880   2.308   5.945 -2.3720  0.9815  2.5416
 4223TIP3    H234229   6.961   2.228   6.045 -2.8240  0.6518  2.6460
 4224TIP3   OH234230   3.781   0.806   8.213 -0.4578 -0.3821  0.6565
 4224TIP3    H134231   3.738   0.882   8.175 -0.0699 -0.7024 -0.4589
 4224TIP3    H234232   3.872   0.832   8.223 -0.0616 -1.0626 -0.8471
 4225TIP3   OH234233   3.090   0.973   6.931 -0.2072  0.0447  0.4403
 4225TIP3    H134234   3.016   0.914   6.945  0.0258  0.0256  1.6925
 4225TIP3    H234235   3.056   1.060   6.951 -0.5156  0.3638 -1.2880
 4226TIP3   OH234236   0.225   5.915   0.757 -0.1375  0.4353  0.0028
 4226TIP3    H134237   0.175   5.970   0.697 -0.1774  1.0080  0.5534
 4226TIP3    H234238   0.160   5.883   0.819 -0.1383 -0.3499 -0.3869
 4227TIP3   OH234239   2.218   5.034   1.632 -0.6942  0.1272 -0.0048
 4227TIP3    H134240   2.152   4.984   1.584 -1.1633  3.7306 -3.6932
 4227TIP3    H234241   2.168   5.104   1.676  0.3649  1.2094 -0.4642
 4228TIP3   OH234242   6.788   2.579   8.450 -0.0662 -0.0532 -0.0569
 4228TIP3    H134243   6.836   2.661   8.459  0.1479 -0.2415  0.6199
 4228TIP3    H234244   6.774   2.550   8.540 -2.4790  0.5748 -0.1800
 4229TIP3   OH234245   6.747   3.095   0.729  0.0887  0.3536 -0.4717
 4229TIP3    H134246   6.730   3.040   0.805 -0.2732 -0.3609 -1.0539
 4229TIP3    H234247   6.832   3.136   0.747  0.1042  0.0317  0.2167
 4230TIP3   OH234248   1.010   4.972   1.468 -0.2897  0.2173 -0.1904
 4230TIP3    H134249   1.005   5.035   1.395 -1.0638 -0.1127 -0.4344
 4230TIP3    H234250   1.025   4.888   1.425  1.1480  0.2704  0.1603
 4231TIP3   OH234251   1.296   4.474   6.515 -0.4165 -0.1551 -0.0811
 4231TIP3    H134252   1.237   4.511   6.581 -0.8069 -1.8656  0.5848
 4231TIP3    H234253   1.266   4.383   6.505  0.2995 -0.2271 -1.8604
 4232TIP3   OH234254   5.035   5.125   8.031  0.1888  0.1328  0.2768
 4232TIP3    H134255   5.028   5.212   7.993 -1.9695  0.2928  0.8993
 4232TIP3    H234256   4.952   5.111   8.075  1.5679 -1.0745  2.7378
 4233TIP3   OH234257   1.136   2.421   7.125  0.2607 -0.0796  0.2473
 4233TIP3    H134258   1.199   2.490   7.147 -1.3015  1.1117  1.1991
 4233TIP3    H234259   1.103   2.447   7.038  1.4193 -0.9845 -0.4816
 4234TIP3   OH234260   0.756   3.656   1.668  0.3300 -0.5821  0.3212
 4234TIP3    H134261   0.700   3.704   1.729 -0.1084 -1.0503  0.2959
 4234TIP3    H234262   0.841   3.700   1.673 -0.0404  0.1267  0.3653
 4235TIP3   OH234263   4.033   0.476   0.303 -0.1988  0.2236  0.0495
 4235TIP3    H134264   4.021   0.382   0.316 -0.4446  0.3687  0.9739
 4235TIP3    H234265   3.945   0.512   0.310 -0.2532  0.4205 -1.3805
 4236TIP3   OH234266   5.318   1.066   1.888 -0.0126 -0.0742  0.2686
 4236TIP3    H134267   5.357   0.980   1.872 -1.7633 -0.8705 -0.0498
 4236TIP3    H234268   5.332   1.082   1.981 -1.9079 -1.9770  0.9669
 4237TIP3   OH234269   4.002   4.849   0.818  0.4994 -0.1752  0.5692
 4237TIP3    H134270   4.034   4.800   0.743  1.7639  3.4549 -1.5473
 4237TIP3    H234271   4.064   4.830   0.888  1.2511 -1.1050 -0.3230
 4238TIP3   OH234272   0.789   4.517   7.520 -0.5614  0.1876 -0.1838
 4238TIP3    H134273   0.711   4.461   7.516 -0.4445 -0.0010  0.1318
 4238TIP3    H234274   0.766   4.584   7.585 -0.4393  0.0998 -0.0509
 4239TIP3   OH234275   5.374   0.197   1.280 -0.2981  0.0526 -0.8648
 4239TIP3    H134276   5.335   0.278   1.313 -0.5641 -0.1270 -0.7377
 4239TIP3    H234277   5.364   0.134   1.351 -0.5306 -0.2289 -1.1424
 4240TIP3   OH234278   4.901   1.603   1.123  0.0130 -0.0346  0.1729
 4240TIP3    H134279   4.910   1.641   1.210  0.2471 -0.9891  0.5816
 4240TIP3    H234280   4.827   1.649   1.084 -1.0469 -0.5926  1.4359
 4241TIP3   OH234281   5.890   1.333   6.684 -0.5589  0.1913  0.3253
 4241TIP3    H134282   5.964   1.313   6.741  1.0389  1.7130 -1.0892
 4241TIP3    H234283   5.890   1.428   6.677 -0.6282  0.0738 -2.2394
 4242TIP3   OH234284   4.279   0.895   0.778 -0.0945 -0.1137  0.5320
 4242TIP3    H134285   4.359   0.933   0.814  0.6723 -2.5434  1.6618
 4242TIP3    H234286   4.262   0.819   0.833 -2.3342 -0.5617 -0.6444
 4243TIP3   OH234287   4.113   5.632   7.019  0.7866 -0.6141  0.2707
 4243TIP3    H134288   4.029   5.650   7.060  1.1803  0.5814  0.6070
 4243TIP3    H234289   4.178   5.661   7.083  1.4457 -1.0423 -0.1835
 4244TIP3   OH234290   4.183   4.257   1.289 -0.3503  0.5004 -0.0935
 4244TIP3    H134291   4.097   4.276   1.251 -1.3815 -0.4669  1.6510
 4244TIP3    H234292   4.190   4.162   1.287  0.3989  0.5368  0.3806
 4245TIP3   OH234293   1.749   1.277   1.403  0.2363 -0.1415  0.5341
 4245TIP3    H134294   1.673   1.218   1.403 -0.3260  0.5475 -0.2595
 4245TIP3    H234295   1.823   1.222   1.426 -0.4000 -0.9900  0.5782
 4246TIP3   OH234296   3.451   5.800   0.476 -0.1607 -0.1454 -0.0039
 4246TIP3    H134297   3.427   5.710   0.455 -0.3665  0.0689 -0.7458
 4246TIP3    H234298   3.423   5.813   0.566  1.3989 -1.3488  0.7057
 4247TIP3   OH234299   0.967   3.154   1.516  0.1001 -0.6908 -0.6415
 4247TIP3    H134300   0.877   3.130   1.538 -0.2338 -0.3475 -1.5811
 4247TIP3    H234301   0.980   3.119   1.428  0.4991  0.2232 -0.9578
 4248TIP3   OH234302   2.300   0.817   0.956  0.9215  0.7187  0.5242
 4248TIP3    H134303   2.343   0.871   0.889  0.5927 -0.0955 -0.3587
 4248TIP3    H234304   2.282   0.734   0.912 -1.6236  1.0351  0.8036
 4249TIP3   OH234305   3.886   5.580   0.931  0.2179 -0.7035  0.5613
 4249TIP3    H134306   3.863   5.510   0.870  0.0354 -0.3496  0.2202
 4249TIP3    H234307   3.805   5.601   0.977 -0.0827  0.2537 -0.3457
 4250TIP3   OH234308   3.526   4.844   8.175 -0.9563  0.0674  0.3725
 4250TIP3    H134309   3.617   4.818   8.158 -0.6704 -0.7745  2.8365
 4250TIP3    H234310   3.508   4.912   8.110  1.2616 -0.0821 -0.4835
 4251TIP3   OH234311   4.116   6.407   1.139 -0.0931  0.2809  0.0510
 4251TIP3    H134312   4.112   6.330   1.082 -1.2596 -0.3307  0.9157
 4251TIP3    H234313   4.105   6.481   1.080 -2.2852 -0.3747 -0.4521
 4252TIP3   OH234314   1.175   6.861   1.556 -0.2897 -0.1913  0.1837
 4252TIP3    H134315   1.121   6.879   1.633 -2.2403 -1.3605 -0.8261
 4252TIP3    H234316   1.239   6.931   1.555 -0.5733  0.1909  2.5327
 4253TIP3   OH234317   4.469   3.669   1.451 -1.1489 -0.0122  0.4789
 4253TIP3    H134318   4.473   3.674   1.356  1.2539  0.2005  0.5177
 4253TIP3    H234319   4.456   3.576   1.470  2.4769 -0.7941 -0.1261
 4254TIP3   OH234320   0.614   2.145   7.088 -0.0815  0.0156  0.4175
 4254TIP3    H134321   0.623   2.050   7.078  0.5676  0.1515 -0.3551
 4254TIP3    H234322   0.587   2.176   7.002  2.5894  0.8652 -0.2009
 4255TIP3   OH234323   1.384   4.808   7.862 -0.7361  0.4269  0.3385
 4255TIP3    H134324   1.465   4.858   7.854 -0.1399 -0.7728 -1.9564
 4255TIP3    H234325   1.397   4.732   7.807 -2.7662 -0.7505  1.3522
 4256TIP3   OH234326   3.494   0.342   0.696  0.6263  0.4852  0.0022
 4256TIP3    H134327   3.453   0.369   0.778 -1.1001 -0.4007 -0.5079
 4256TIP3    H234328   3.439   0.270   0.665  1.0233  1.0193 -2.1007
 4257TIP3   OH234329   2.039   3.110   7.432  0.0762 -0.2231  0.1035
 4257TIP3    H134330   2.031   3.019   7.460 -1.4317 -0.1193  0.1228
 4257TIP3    H234331   2.045   3.106   7.337 -0.5630 -0.3236  0.0649
 4258TIP3   OH234332   6.170   0.155   8.133 -0.2625 -0.3521  0.2785
 4258TIP3    H134333   6.252   0.204   8.121 -0.3414 -0.0215  1.0505
 4258TIP3    H234334   6.148   0.124   8.045 -0.2256  1.0368 -0.2533
 4259TIP3   OH234335   4.018   6.586   7.287  0.1551  0.0817 -0.2205
 4259TIP3    H134336   4.111   6.607   7.290  0.0827  0.6382 -1.2938
 4259TIP3    H234337   3.992   6.606   7.197 -1.3072  1.3185  0.4378
 4260TIP3   OH234338   3.608   2.270   7.345  0.5568 -0.0250 -0.4582
 4260TIP3    H134339   3.567   2.308   7.267 -1.3675  1.1892  1.0492
 4260TIP3    H234340   3.588   2.177   7.341  2.0559 -0.3193 -2.2855
 4261TIP3   OH234341   2.501   2.115   0.014 -0.1104  0.0617 -0.0775
 4261TIP3    H134342   2.437   2.056  -0.025  0.9734 -0.6488 -0.8610
 4261TIP3    H234343   2.583   2.065   0.013  0.4261  0.8775  1.0467
 4262TIP3   OH234344   6.930   6.324   2.378  0.0114  0.1883  0.1793
 4262TIP3    H134345   6.882   6.407   2.378  0.0425  0.2159 -0.6334
 4262TIP3    H234346   7.022   6.350   2.370 -0.0249  0.0681 -0.7696
 4263TIP3   OH234347   3.897   6.819   0.377 -0.0156 -0.6240 -0.3140
 4263TIP3    H134348   3.858   6.800   0.462 -0.0237 -2.3866 -0.6629
 4263TIP3    H234349   3.991   6.817   0.392  0.0036  1.4103  0.0845
 4264TIP3   OH234350   3.423   0.600   1.345 -0.5392  0.0673  0.0606
 4264TIP3    H134351   3.373   0.540   1.290  0.8315 -0.8403 -0.2514
 4264TIP3    H234352   3.360   0.666   1.373 -1.8331 -0.8978 -0.5055
 4265TIP3   OH234353   6.325   4.689   0.386 -0.6407 -0.0292 -0.3958
 4265TIP3    H134354   6.394   4.625   0.374  1.1829  1.8479 -0.4517
 4265TIP3    H234355   6.261   4.671   0.317 -0.4074 -2.0073 -0.1281
 4266TIP3   OH234356   5.658   6.210   1.069  0.3714 -0.5173  0.2173
 4266TIP3    H134357   5.689   6.187   1.156  0.6904  0.8880  0.4965
 4266TIP3    H234358   5.566   6.232   1.081  0.7992  1.2411  0.5281
 4267TIP3   OH234359   2.616   6.825   0.793 -0.1174  0.1479 -0.6534
 4267TIP3    H134360   2.652   6.746   0.752 -0.8552 -1.2185  1.1613
 4267TIP3    H234361   2.679   6.894   0.774  1.6856 -1.3842 -0.4877
 4268TIP3   OH234362   0.509   4.038   7.924  0.8699 -0.0938  0.0045
 4268TIP3    H134363   0.471   4.124   7.945  1.2190  0.1215 -0.2250
 4268TIP3    H234364   0.468   4.014   7.841  1.1582  0.1000 -0.2002
 4269TIP3   OH234365   1.080   2.996   2.466 -0.1520  0.0186 -0.5033
 4269TIP3    H134366   1.117   3.017   2.381 -0.1913  2.0662 -0.0548
 4269TIP3    H234367   1.156   2.974   2.520  0.1155  0.9832 -0.4699
 4270TIP3   OH234368   3.653   6.499   7.336 -0.0915 -0.0408 -0.2836
 4270TIP3    H134369   3.601   6.537   7.407  0.5335 -2.2042  1.4481
 4270TIP3    H234370   3.655   6.566   7.268 -1.9664  1.5432  1.1383
 4271TIP3   OH234371   2.423   5.877   1.746 -0.0208 -0.1816 -0.5734
 4271TIP3    H134372   2.348   5.904   1.694 -0.9199 -1.1732  0.1543
 4271TIP3    H234373   2.399   5.901   1.836  0.6123 -0.3362 -0.3596
 4272TIP3   OH234374   6.214   0.284   0.653 -0.5594 -0.8644  0.5297
 4272TIP3    H134375   6.264   0.339   0.714 -0.7080  0.1339 -0.2212
 4272TIP3    H234376   6.124   0.290   0.683 -0.6391 -0.3364  0.2017
 4273TIP3   OH234377   5.768   2.503   1.140  0.1547  0.5982 -0.1527
 4273TIP3    H134378   5.845   2.558   1.153 -0.3946  1.0308  1.4481
 4273TIP3    H234379   5.717   2.549   1.073 -0.3690  2.1512  1.2605
 4274TIP3   OH234380   6.927   1.436   2.236  0.7725 -0.2517  0.0995
 4274TIP3    H134381   6.859   1.477   2.289 -0.0500 -1.4650  0.0246
 4274TIP3    H234382   6.988   1.508   2.215 -0.8530  1.0484 -0.4513
 4275TIP3   OH234383   4.957   5.695   2.977 -0.5609  0.3219  0.5256
 4275TIP3    H134384   5.042   5.679   2.935 -1.4631  0.4667 -1.4788
 4275TIP3    H234385   4.979   5.713   3.068  1.5869  0.5871  0.0272
 4276TIP3   OH234386   4.839   6.161   7.194 -0.0725  0.0082  0.3326
 4276TIP3    H134387   4.805   6.114   7.118  1.8802  0.4352 -0.8826
 4276TIP3    H234388   4.879   6.094   7.248  1.3998  0.0522 -0.6614
 4277TIP3   OH234389   0.492   2.249   7.448 -0.2263  0.3457  0.3809
 4277TIP3    H134390   0.475   2.275   7.538  1.7163  0.8555  0.6415
 4277TIP3    H234391   0.442   2.168   7.436 -0.4734  0.2492  1.9195
 4278TIP3   OH234392   2.177   2.884   6.983 -0.0081  0.4550 -0.2619
 4278TIP3    H134393   2.133   2.914   6.904 -2.1255  0.1980  0.7414
 4278TIP3    H234394   2.141   2.939   7.053  0.7523 -0.2603  0.7267
 4279TIP3   OH234395   0.442   6.386   7.008 -0.0293  0.0414 -0.6699
 4279TIP3    H134396   0.515   6.336   6.971  0.4909 -0.7075  1.2198
 4279TIP3    H234397   0.479   6.425   7.088 -1.5553  0.0060  0.0843
 4280TIP3   OH234398   2.702   1.644   6.296  0.2054 -0.3497  0.9248
 4280TIP3    H134399   2.734   1.734   6.302  0.7721 -0.5491  0.9418
 4280TIP3    H234400   2.612   1.652   6.264  0.7806  0.1326 -0.6555
 4281TIP3   OH234401   6.853   0.318   2.209  0.2018 -0.0487  0.3884
 4281TIP3    H134402   6.917   0.376   2.167  0.9664 -0.1901  1.3303
 4281TIP3    H234403   6.791   0.377   2.250  1.8447  0.2102  2.6988
 4282TIP3   OH234404   5.124   3.850   1.517 -0.0269  0.2014 -0.0559
 4282TIP3    H134405   5.171   3.928   1.548  1.8372 -0.8081 -0.2160
 4282TIP3    H234406   5.190   3.781   1.516 -1.6560 -1.4355  0.1645
 4283TIP3   OH234407   3.405   1.412   1.390  0.7094 -0.1334 -0.4526
 4283TIP3    H134408   3.445   1.485   1.438 -0.7998 -1.3229  2.9494
 4283TIP3    H234409   3.313   1.438   1.379  0.7436 -0.4531 -1.5789
 4284TIP3   OH234410   3.260   4.760   7.790 -0.0954 -0.1139  0.2600
 4284TIP3    H134411   3.239   4.853   7.782 -2.9653 -0.6583  0.3567
 4284TIP3    H234412   3.355   4.755   7.776  0.4477  3.0077  1.9629
 4285TIP3   OH234413   0.550   2.217   1.766 -0.0993 -0.2528 -0.1556
 4285TIP3    H134414   0.559   2.137   1.713 -1.3362  0.5031 -1.5720
 4285TIP3    H234415   0.532   2.286   1.702  1.7896  1.3714  0.9405
 4286TIP3   OH234416   3.916   1.417   7.698  0.1306 -0.5063 -0.1045
 4286TIP3    H134417   3.838   1.473   7.706  1.0977  1.3351 -2.2294
 4286TIP3    H234418   3.963   1.430   7.780 -0.8472 -0.1257  0.4220
 4287TIP3   OH234419   5.804   1.761   6.972  0.2122  0.3848 -0.1143
 4287TIP3    H134420   5.839   1.820   7.038  0.7755  0.6200 -0.6203
 4287TIP3    H234421   5.846   1.677   6.990  0.4764  0.4845 -0.2589
 4288TIP3   OH234422   3.384   5.013   6.577  0.2333 -0.1498  0.2568
 4288TIP3    H134423   3.429   5.042   6.656  0.4097  0.1068  0.0604
 4288TIP3    H234424   3.430   5.056   6.505  1.0373 -1.5547 -0.1087
 4289TIP3   OH234425   4.362   6.782   2.062 -0.0059 -0.2474 -0.0775
 4289TIP3    H134426   4.400   6.809   2.146  2.7562  0.7110 -1.5349
 4289TIP3    H234427   4.327   6.863   2.025 -1.5192 -0.7298  0.2262
 4290TIP3   OH234428   4.018   2.270   8.017  0.2610  0.0710  0.2353
 4290TIP3    H134429   4.080   2.197   8.019 -0.3517 -0.4463  1.0835
 4290TIP3    H234430   4.034   2.317   8.099 -0.8661 -0.4203  0.7615
 4291TIP3   OH234431   4.971   3.442   7.199 -0.4033  0.2621 -0.0724
 4291TIP3    H134432   4.982   3.351   7.170 -0.0093  0.3316 -0.1496
 4291TIP3    H234433   4.918   3.435   7.278 -2.2823  0.1390 -1.2750
 4292TIP3   OH234434   1.084   4.089   1.170 -0.4318 -0.0576  0.0814
 4292TIP3    H134435   1.063   4.149   1.241 -1.6794 -0.2256 -0.1205
 4292TIP3    H234436   1.002   4.077   1.123  0.1298 -0.7693 -0.7709
 4293TIP3   OH234437   3.124   4.064   1.523 -0.2693  0.0875  0.2665
 4293TIP3    H134438   3.037   4.080   1.560  1.1020  1.2138  3.4013
 4293TIP3    H234439   3.179   4.132   1.561  2.3593 -1.6829 -0.0970
 4294TIP3   OH234440   0.847   3.729   8.406 -0.2099 -0.3311 -0.1994
 4294TIP3    H134441   0.881   3.818   8.400  1.8365 -1.0219  0.3319
 4294TIP3    H234442   0.753   3.740   8.415  0.1252  1.8389  1.3652
 4295TIP3   OH234443   2.376   0.794   1.914 -0.3893 -1.0055 -0.1249
 4295TIP3    H134444   2.354   0.701   1.919 -0.1172 -1.0068  1.1942
 4295TIP3    H234445   2.338   0.832   1.993 -0.4343  0.0063 -0.6195
 4296TIP3   OH234446   3.895   5.630   2.222  0.2006  0.4761 -0.5932
 4296TIP3    H134447   3.906   5.544   2.181 -0.4135  0.3841 -0.5729
 4296TIP3    H234448   3.970   5.638   2.281 -1.1574 -1.2452  1.5249
 4297TIP3   OH234449   5.455   5.951   7.227 -0.1253 -0.1280  0.5076
 4297TIP3    H134450   5.544   5.982   7.209 -0.1356  0.4394  1.3763
 4297TIP3    H234451   5.452   5.863   7.190  1.0868 -0.5036  1.2637
 4298TIP3   OH234452   6.438   2.374   0.604 -0.1449  0.3539  0.6393
 4298TIP3    H134453   6.472   2.457   0.639 -0.1155  1.2419 -1.3875
 4298TIP3    H234454   6.434   2.316   0.680  1.0640  1.8090  1.8704
 4299TIP3   OH234455   2.594   3.428   6.547  0.4346 -0.8639  0.1985
 4299TIP3    H134456   2.539   3.365   6.501  1.5931 -2.0161  0.3231
 4299TIP3    H234457   2.589   3.402   6.639  2.1241 -1.7851  0.0719
 4300TIP3   OH234458   4.321   6.559   0.785 -0.2539 -0.6353  0.1376
 4300TIP3    H134459   4.259   6.631   0.796 -0.6419 -0.6456 -1.7251
 4300TIP3    H234460   4.345   6.561   0.693  2.4373 -0.7518  0.7486
 4301TIP3   OH234461   6.528   0.273   7.602 -0.5274 -0.0402 -0.1534
 4301TIP3    H134462   6.614   0.232   7.596 -0.3319  0.4882 -1.1509
 4301TIP3    H234463   6.486   0.229   7.676  1.9093  2.1713  2.8073
 4302TIP3   OH234464   4.014   0.992   0.302 -0.2062 -0.4905  0.1536
 4302TIP3    H134465   3.983   0.994   0.392 -0.1918 -0.5942  0.1603
 4302TIP3    H234466   3.944   0.947   0.253 -0.8005  0.6543 -0.1068
 4303TIP3   OH234467   2.557   5.069   1.267  0.1225  0.2198 -0.0418
 4303TIP3    H134468   2.519   5.048   1.352 -1.6416  0.0861 -0.8152
 4303TIP3    H234469   2.652   5.062   1.281 -0.1187  0.1650  1.8781
 4304TIP3   OH234470   1.976   6.704   1.257  0.1746 -0.6607 -0.2302
 4304TIP3    H134471   2.026   6.671   1.182 -0.5268  1.1821 -1.5964
 4304TIP3    H234472   2.038   6.699   1.330  1.0964 -1.9221 -1.0420
 4305TIP3   OH234473   4.060   2.706   6.658 -0.0384  0.2015 -0.0842
 4305TIP3    H134474   4.107   2.766   6.601  1.6819 -1.2674 -0.3146
 4305TIP3    H234475   3.972   2.701   6.621 -0.1327  2.2906 -0.2235
 4306TIP3   OH234476   0.360   4.254   8.013 -0.8596 -0.1444  0.0424
 4306TIP3    H134477   0.331   4.321   7.951  0.0847  0.0617 -0.1930
 4306TIP3    H234478   0.377   4.303   8.093 -0.1568 -0.0938 -0.1340
 4307TIP3   OH234479   5.911   1.614   6.717 -0.1922 -0.2073  0.4064
 4307TIP3    H134480   5.862   1.673   6.775  1.1438 -0.7151  2.1341
 4307TIP3    H234481   5.984   1.668   6.685  0.9964 -0.8376  1.9400
 4308TIP3   OH234482   2.005   6.110   6.442  0.4246  0.1002  0.2425
 4308TIP3    H134483   1.975   6.201   6.445  0.0799  0.0390 -0.8068
 4308TIP3    H234484   2.036   6.092   6.530  2.3139  1.8459  0.0276
 4309TIP3   OH234485   0.144   5.041   7.751  0.3699 -0.0045 -0.5922
 4309TIP3    H134486   0.216   4.978   7.739  0.4075 -0.4373  1.5018
 4309TIP3    H234487   0.132   5.045   7.846 -0.0097  2.7639 -0.6873
 4310TIP3   OH234488   4.751   6.705   1.106 -0.2333  0.3677 -0.9874
 4310TIP3    H134489   4.806   6.748   1.171  0.0502  1.1020 -1.6876
 4310TIP3    H234490   4.748   6.613   1.133 -3.1841  1.1984  2.2219
 4311TIP3   OH234491   2.513   4.721   0.850  0.3385 -0.2078  0.0900
 4311TIP3    H134492   2.420   4.741   0.840  0.5255 -0.0175 -1.6666
 4311TIP3    H234493   2.515   4.627   0.870 -0.2165 -0.3891 -0.6459
 4312TIP3   OH234494   6.803   6.483   7.447 -0.3083  0.6435 -0.2501
 4312TIP3    H134495   6.821   6.558   7.390 -1.1212  1.1451  0.1254
 4312TIP3    H234496   6.733   6.514   7.505 -0.9152 -0.5240 -0.3300
 4313TIP3   OH234497   4.003   4.782   7.126 -0.6464  0.2147  0.0615
 4313TIP3    H134498   4.004   4.695   7.087  2.0805  0.1576  0.0688
 4313TIP3    H234499   4.057   4.835   7.068 -0.0682  1.2199  1.4667
 4314TIP3   OH234500   6.738   2.905   2.036  0.5075 -0.1475 -0.6376
 4314TIP3    H134501   6.767   2.995   2.048 -0.5409  0.1435 -0.1609
 4314TIP3    H234502   6.756   2.886   1.944 -0.2738  0.9353 -1.0344
 4315TIP3   OH234503   6.676   5.741   6.375  0.0609 -0.2904 -0.2913
 4315TIP3    H134504   6.650   5.649   6.364 -0.1276 -0.2651 -0.0586
 4315TIP3    H234505   6.600   5.783   6.415 -0.6778  0.4502 -2.3797
 4316TIP3   OH234506   1.992   4.404   8.061  0.1213  0.0725  0.4478
 4316TIP3    H134507   2.002   4.320   8.017 -1.5886 -0.9477  1.8570
 4316TIP3    H234508   2.029   4.390   8.148  2.9107  1.8721 -0.3131
 4317TIP3   OH234509   5.896   1.029   6.954  0.8499 -0.0757  0.3112
 4317TIP3    H134510   5.884   1.015   7.048  1.4252 -0.6060  0.3105
 4317TIP3    H234511   5.941   1.113   6.948  0.5833  0.0811  0.4974
 4318TIP3   OH234512   4.941   5.583   1.372 -0.6374 -0.0570  0.4766
 4318TIP3    H134513   4.937   5.607   1.465  2.7179 -0.3167  0.8132
 4318TIP3    H234514   4.956   5.666   1.327  2.0650 -0.3320  0.7127
 4319TIP3   OH234515   6.923   3.882   0.047 -0.3237 -0.0083 -0.2694
 4319TIP3    H134516   6.876   3.807   0.013  1.2711 -0.4747 -1.6030
 4319TIP3    H234517   6.999   3.891  -0.011  1.5323  0.3471  2.0479
 4320TIP3   OH234518   2.699   2.504   0.333 -0.6155  0.0059  0.2114
 4320TIP3    H134519   2.716   2.414   0.363 -2.0907 -0.7409 -1.0657
 4320TIP3    H234520   2.621   2.530   0.381  0.7591  1.3308  1.8881
 4321TIP3   OH234521   0.263   2.656   8.267 -0.0683 -0.4719  0.3342
 4321TIP3    H134522   0.347   2.700   8.259  0.4842 -1.1706  1.9842
 4321TIP3    H234523   0.207   2.720   8.312 -0.7860  0.4013 -1.6887
 4322TIP3   OH234524   3.036   4.608   2.333  0.1896 -0.1952  0.8363
 4322TIP3    H134525   2.970   4.621   2.401  0.6118  1.3754  0.9977
 4322TIP3    H234526   3.048   4.695   2.295  2.3404 -0.3683  1.0030
 4323TIP3   OH234527   3.383   3.579   1.268  0.3768  0.0160 -0.2845
 4323TIP3    H134528   3.365   3.524   1.192  0.1714  0.9313 -0.9143
 4323TIP3    H234529   3.355   3.667   1.242  0.5197  0.3919  0.7658
 4324TIP3   OH234530   1.250   2.964   0.355 -0.0732  0.2223  0.0576
 4324TIP3    H134531   1.270   2.911   0.277 -0.9588  2.5654 -1.8783
 4324TIP3    H234532   1.323   2.946   0.415  1.2447 -0.8251 -1.7454
 4325TIP3   OH234533   0.201   0.655   0.709 -0.7015 -0.0114  0.1195
 4325TIP3    H134534   0.245   0.571   0.721 -1.3662 -0.4310 -0.2722
 4325TIP3    H234535   0.234   0.710   0.780 -1.5138 -1.1380  1.4239
 4326TIP3   OH234536   2.738   1.404   7.721  0.3470  0.2514  0.3832
 4326TIP3    H134537   2.751   1.487   7.675 -1.3196 -0.7551 -2.1371
 4326TIP3    H234538   2.651   1.375   7.695  1.0180 -2.4891  0.8047
 4327TIP3   OH234539   6.753   4.906   1.092 -0.6841 -0.3423  0.1433
 4327TIP3    H134540   6.808   4.870   1.162 -0.1962  0.0146 -0.0453
 4327TIP3    H234541   6.769   5.001   1.096 -0.3644 -0.3514 -0.6760
 4328TIP3   OH234542   1.133   1.367   8.076  0.0657  0.0654  0.0983
 4328TIP3    H134543   1.205   1.313   8.108  0.3612 -0.0414 -0.7310
 4328TIP3    H234544   1.175   1.435   8.023 -0.5024 -0.6402 -1.2893
 4329TIP3   OH234545   4.391   1.331   8.427  0.3289 -0.2094  0.2361
 4329TIP3    H134546   4.487   1.330   8.425  0.3466  0.5061  0.4382
 4329TIP3    H234547   4.369   1.421   8.452 -0.4248  0.1174 -1.4834
 4330TIP3   OH234548   4.748   2.222   7.761 -0.3627  0.6118  0.5607
 4330TIP3    H134549   4.827   2.192   7.717 -0.9999 -1.7267  0.8387
 4330TIP3    H234550   4.762   2.315   7.777  1.2953  0.7837 -1.5132
 4331TIP3   OH234551   1.285   1.242   1.586  0.3675 -0.0548  0.0131
 4331TIP3    H134552   1.234   1.208   1.513  0.2784  0.0736  0.0147
 4331TIP3    H234553   1.227   1.306   1.628  0.0051 -0.9047  0.8507
 4332TIP3   OH234554   2.665   1.444   1.945 -0.1287  0.0892  0.8684
 4332TIP3    H134555   2.585   1.410   1.905 -0.1372  1.1465 -0.0791
 4332TIP3    H234556   2.643   1.457   2.037 -1.0509  0.3599  0.6140
 4333TIP3   OH234557   5.248   3.991   1.047  0.1288 -0.2559  0.2979
 4333TIP3    H134558   5.290   4.070   1.083 -0.9733  0.3567  0.2888
 4333TIP3    H234559   5.192   4.025   0.977  0.4565 -1.1782 -0.4228
 4334TIP3   OH234560   3.454   4.693   2.273  0.1713 -0.0925  0.4831
 4334TIP3    H134561   3.483   4.655   2.190 -1.1558  1.5176 -0.7889
 4334TIP3    H234562   3.412   4.620   2.319  1.0094 -1.0323 -0.1900
 4335TIP3   OH234563   5.263   5.089   6.808 -0.0328  0.0995  0.7770
 4335TIP3    H134564   5.305   5.003   6.817  0.4824  0.0653 -1.2700
 4335TIP3    H234565   5.335   5.152   6.819 -0.4300  0.3193  2.3949
 4336TIP3   OH234566   5.211   1.570   1.732  0.7490  0.3260 -0.3898
 4336TIP3    H134567   5.140   1.625   1.699  0.6611  1.1782  1.1322
 4336TIP3    H234568   5.278   1.632   1.762  1.7726 -0.4505 -0.9844
 4337TIP3   OH234569   5.513   6.150   2.406 -0.4574 -0.3465  0.8743
 4337TIP3    H134570   5.499   6.192   2.490 -0.3345 -0.7671  1.1102
 4337TIP3    H234571   5.581   6.084   2.423  0.8523  0.7249  0.0801
 4338TIP3   OH234572   5.364   3.454   8.356 -0.2888 -0.0682  0.2004
 4338TIP3    H134573   5.305   3.480   8.285 -0.4630 -1.4878 -0.2116
 4338TIP3    H234574   5.452   3.476   8.323 -0.4677  0.6750  0.1965
 4339TIP3   OH234575   0.366   6.352   0.479 -0.5232 -0.2214 -0.1923
 4339TIP3    H134576   0.300   6.354   0.548 -1.2232 -1.6165 -0.7827
 4339TIP3    H234577   0.441   6.307   0.519 -0.4908  0.0236  0.0230
 4340TIP3   OH234578   6.166   2.383   1.449  0.6619 -0.1326 -0.3347
 4340TIP3    H134579   6.155   2.333   1.529  1.0155 -0.2876 -0.3841
 4340TIP3    H234580   6.238   2.443   1.467 -0.6966  1.4103  0.2410
 4341TIP3   OH234581   5.909   1.786   2.011  0.3288  0.1726 -0.0800
 4341TIP3    H134582   5.922   1.877   2.039  0.1590  0.1531  0.0620
 4341TIP3    H234583   5.852   1.793   1.935  0.3994  0.1902 -0.1325
 4342TIP3   OH234584   6.421   4.624   7.779 -0.1000 -0.4606  0.3416
 4342TIP3    H134585   6.502   4.580   7.805 -0.1621 -0.1022  1.1693
 4342TIP3    H234586   6.390   4.573   7.704  0.2359 -1.3601  0.7915
 4343TIP3   OH234587   2.863   1.490   2.263  0.2622  0.1830  0.1091
 4343TIP3    H134588   2.932   1.551   2.289  0.2079 -0.1747  1.1395
 4343TIP3    H234589   2.791   1.506   2.325  0.6136 -1.5744  1.0413
 4344TIP3   OH234590   6.161   1.594   0.148 -0.6859 -0.2364  0.4764
 4344TIP3    H134591   6.218   1.523   0.176 -1.2514 -0.1850  1.8218
 4344TIP3    H234592   6.090   1.551   0.100 -0.6888 -0.5180  0.7314
 4345TIP3   OH234593   0.818   2.312   7.128  0.4859  0.3480  0.2190
 4345TIP3    H134594   0.876   2.271   7.192 -0.7300  0.5833  1.4996
 4345TIP3    H234595   0.742   2.254   7.123  0.6525  0.2028 -1.2116
 4346TIP3   OH234596   0.268   5.785   1.215  0.3424 -0.2777 -0.0716
 4346TIP3    H134597   0.278   5.751   1.127 -1.8671  1.2114 -0.9948
 4346TIP3    H234598   0.173   5.797   1.225  0.7449  2.3854  1.3673
 4347TIP3   OH234599   2.078   1.022   1.023  0.1945 -0.2194 -0.2950
 4347TIP3    H134600   2.142   0.955   1.046  0.4601  0.2700  0.4238
 4347TIP3    H234601   2.130   1.094   0.988 -0.0637 -0.2433 -0.7480
 4348TIP3   OH234602   0.998   3.605   6.686 -0.2816 -0.1264 -0.5294
 4348TIP3    H134603   1.082   3.582   6.648 -0.1532 -0.3390 -0.1283
 4348TIP3    H234604   0.974   3.528   6.739 -0.7598 -0.0978 -0.6993
 4349TIP3   OH234605   2.355   6.662   0.608  0.1376 -0.0901 -0.3579
 4349TIP3    H134606   2.427   6.696   0.661  0.3217  1.3041 -1.4213
 4349TIP3    H234607   2.284   6.646   0.670  0.0420  2.3147  0.2637
 4350TIP3   OH234608   4.278   3.415   7.813  0.4676  0.2189 -0.1872
 4350TIP3    H134609   4.226   3.336   7.800  0.5812 -0.0127  0.6815
 4350TIP3    H234610   4.274   3.431   7.907  1.0016  0.8666 -0.2640
 4351TIP3   OH234611   2.060   5.335   8.038  0.0495 -0.3418  0.0726
 4351TIP3    H134612   2.050   5.369   8.127  0.1597  1.0034 -0.4023
 4351TIP3    H234613   2.153   5.346   8.019 -0.0771 -0.0827 -0.4095
 4352TIP3   OH234614   2.739   0.828   0.222 -0.8664  0.0128 -0.5349
 4352TIP3    H134615   2.676   0.888   0.262 -1.1830  0.2601 -1.3742
 4352TIP3    H234616   2.684   0.759   0.184 -0.8147  1.1575 -2.8616
 4353TIP3   OH234617   5.090   4.145   8.049 -0.2323 -0.2419  0.5227
 4353TIP3    H134618   5.036   4.149   7.971  0.6230  2.5229 -0.0141
 4353TIP3    H234619   5.117   4.053   8.054 -2.7134 -1.1309 -0.6802
 4354TIP3   OH234620   3.664   1.373   2.283 -0.0790 -0.1875 -0.0066
 4354TIP3    H134621   3.703   1.406   2.202  0.4555 -0.9202 -0.0584
 4354TIP3    H234622   3.577   1.343   2.257 -0.1727  0.2141 -0.1665
 4355TIP3   OH234623   4.606   3.009   2.562 -0.2074 -0.0507  0.1422
 4355TIP3    H134624   4.626   3.103   2.565 -0.6276  0.0185  2.0463
 4355TIP3    H234625   4.660   2.971   2.630 -2.0529 -0.7495  1.2796
 4356TIP3   OH234626   0.981   5.730   0.632 -0.4449  0.1115 -0.2518
 4356TIP3    H134627   1.028   5.703   0.553 -0.9808  0.7047 -0.7795
 4356TIP3    H234628   0.965   5.648   0.679 -1.6933 -0.4908 -1.6248
 4357TIP3   OH234629   2.351   1.630   1.104  0.1276 -0.1532 -0.2460
 4357TIP3    H134630   2.327   1.670   1.188 -0.8811  0.7511 -0.9468
 4357TIP3    H234631   2.427   1.680   1.074  1.2154 -1.2062  0.6332
 4358TIP3   OH234632   3.023   6.357   2.888 -0.3144 -0.2655  0.6272
 4358TIP3    H134633   3.008   6.268   2.857 -1.0286  0.1430 -0.2380
 4358TIP3    H234634   2.938   6.386   2.922 -0.1365  0.1493  0.7261
 4359TIP3   OH234635   5.428   2.851   7.846 -0.0404  0.3926 -0.4755
 4359TIP3    H134636   5.456   2.912   7.779  0.9484 -0.3275 -0.7380
 4359TIP3    H234637   5.507   2.803   7.871 -0.5307  0.1297  0.6732
 4360TIP3   OH234638   3.844   5.112   1.734  0.0128 -0.1465 -0.7278
 4360TIP3    H134639   3.837   5.020   1.760 -0.1822  0.4062  1.3769
 4360TIP3    H234640   3.759   5.150   1.756  0.7462  0.9483  0.3644
 4361TIP3   OH234641   6.663   2.128   8.344  0.5211  0.4076  0.0192
 4361TIP3    H134642   6.696   2.127   8.254 -1.8136  0.3181 -0.9051
 4361TIP3    H234643   6.719   2.065   8.391  2.6430  1.4320 -0.9797
 4362TIP3   OH234644   4.142   1.725   1.705 -0.0394 -0.2961  0.4157
 4362TIP3    H134645   4.188   1.793   1.755  2.0592 -1.5233  0.2569
 4362TIP3    H234646   4.200   1.650   1.708 -2.4321 -2.2599  0.8610
 4363TIP3   OH234647   6.739   0.135   7.940 -0.2629 -0.2987 -0.3805
 4363TIP3    H134648   6.647   0.133   7.914 -0.3845 -1.0105  0.0549
 4363TIP3    H234649   6.784   0.084   7.872 -0.2835 -0.4665 -0.2691
 4364TIP3   OH234650   6.848   4.835   1.338  0.1148 -0.0882 -0.5726
 4364TIP3    H134651   6.907   4.858   1.411 -1.1360  0.3870  0.3192
 4364TIP3    H234652   6.790   4.769   1.375 -1.1874  0.8888 -0.8132
 4365TIP3   OH234653   6.504   2.995   8.297 -0.0588  0.2601  0.1940
 4365TIP3    H134654   6.594   2.970   8.316  0.3568  2.3654  1.2340
 4365TIP3    H234655   6.458   2.911   8.285  1.6562 -0.9054  1.3679
 4366TIP3   OH234656   3.943   3.298   1.837 -0.5412  0.7072  0.9662
 4366TIP3    H134657   3.951   3.347   1.755 -1.2768  0.5011  0.7649
 4366TIP3    H234658   3.850   3.275   1.843 -0.4830  0.6529  1.8214
 4367TIP3   OH234659   6.573   1.449   0.444  0.0825 -0.0021  0.3988
 4367TIP3    H134660   6.574   1.544   0.433 -0.5706 -0.1941 -1.8157
 4367TIP3    H234661   6.571   1.414   0.354  0.8806 -2.1250  1.1410
 4368TIP3   OH234662   4.010   5.221   2.638  0.0015 -0.0304  0.4243
 4368TIP3    H134663   4.090   5.170   2.620  1.6453  2.0218  1.4217
 4368TIP3    H234664   4.030   5.309   2.605 -2.4404  0.2275 -0.5863
 4369TIP3   OH234665   4.920   4.187   7.791  0.5140 -0.1717 -0.2379
 4369TIP3    H134666   4.897   4.176   7.698 -0.8835  2.1503 -0.2306
 4369TIP3    H234667   4.837   4.179   7.837  0.8837  0.7181  0.6035
 4370TIP3   OH234668   1.780   0.005   7.536  0.5817 -0.4509 -0.1322
 4370TIP3    H134669   1.833   0.064   7.590  0.4241 -0.5212  0.0958
 4370TIP3    H234670   1.793   0.038   7.446  0.2351  0.1343  0.0231
 4371TIP3   OH234671   5.613   1.635   1.655  0.3331  0.4282 -0.3222
 4371TIP3    H134672   5.639   1.689   1.730  1.9340 -0.2295 -0.3642
 4371TIP3    H234673   5.658   1.551   1.670 -0.1892 -0.0723 -1.4730
 4372TIP3   OH234674   0.622   4.792   1.853  0.3903  0.8348  0.1782
 4372TIP3    H134675   0.616   4.859   1.920  0.7489  0.3022  0.7488
 4372TIP3    H234676   0.541   4.801   1.803 -1.2684 -0.5512  2.3967
 4373TIP3   OH234677   2.370   1.110   1.959 -0.0225  0.2020 -0.3368
 4373TIP3    H134678   2.313   1.182   1.931  0.7290  1.1270  0.4588
 4373TIP3    H234679   2.314   1.056   2.014  0.1849  1.8845  1.6517
 4374TIP3   OH234680   6.120   6.926   0.743 -0.3231  0.0874  0.4137
 4374TIP3    H134681   6.067   6.998   0.708 -0.0623 -0.0794 -0.3496
 4374TIP3    H234682   6.185   6.908   0.674 -0.4211 -0.9099  0.5621
 4375TIP3   OH234683   6.787   3.415   0.085  0.2879 -0.0406  0.3055
 4375TIP3    H134684   6.834   3.332   0.086  0.9641  0.3001 -0.9392
 4375TIP3    H234685   6.695   3.390   0.074  0.4428 -0.6421  0.3320
 4376TIP3   OH234686   0.160   6.565   0.466  0.3576  0.0862 -0.1547
 4376TIP3    H134687   0.180   6.525   0.551  2.1559 -1.2502 -1.1472
 4376TIP3    H234688   0.206   6.511   0.402 -1.2262  0.8470 -2.0578
 4377TIP3   OH234689   2.246   1.290   8.029  0.2579 -0.3532 -0.7868
 4377TIP3    H134690   2.252   1.221   7.963  1.6025 -1.8833  0.8246
 4377TIP3    H234691   2.190   1.253   8.098 -1.2933  1.2802 -1.0790
 4378TIP3   OH234692   0.371   0.186   0.136 -0.1736 -0.8815  0.1460
 4378TIP3    H134693   0.310   0.187   0.063 -2.5427  1.1628  1.9775
 4378TIP3    H234694   0.424   0.107   0.122  0.4310  0.0513 -4.3635
 4379TIP3   OH234695   3.108   1.916   6.370 -0.4560  0.3527 -0.4699
 4379TIP3    H134696   3.078   1.839   6.321  2.9693 -0.5990 -1.3534
 4379TIP3    H234697   3.175   1.882   6.429 -1.1937  2.2307  1.5922
 4380TIP3   OH234698   3.139   0.493   1.278 -0.7033 -0.2387  0.0486
 4380TIP3    H134699   3.110   0.482   1.369 -2.1925 -1.9549 -0.5890
 4380TIP3    H234700   3.058   0.502   1.228  0.1075  2.5059 -0.9686
 4381TIP3   OH234701   4.688   0.254   8.498 -0.7636 -0.2092 -0.0657
 4381TIP3    H134702   4.602   0.274   8.463 -0.5029  0.2675 -0.4461
 4381TIP3    H234703   4.747   0.262   8.423  0.0416  2.4167  0.7559
 4382TIP3   OH234704   1.269   0.602   7.931 -0.4291 -0.4780  0.6779
 4382TIP3    H134705   1.298   0.647   7.852 -0.3941 -0.4095  0.7293
 4382TIP3    H234706   1.278   0.509   7.911  2.3984 -0.4848  1.6279
 4383TIP3   OH234707   0.433   5.413   7.781  0.2297  0.8542  0.1841
 4383TIP3    H134708   0.429   5.362   7.700  0.0500 -0.4497  0.9717
 4383TIP3    H234709   0.510   5.469   7.770  1.1655 -0.4494 -0.2837
 4384TIP3   OH234710   1.942   0.224   0.199 -0.3671  0.0353  0.4302
 4384TIP3    H134711   1.955   0.256   0.110 -2.8686  1.5437  0.5082
 4384TIP3    H234712   1.911   0.134   0.189 -0.0728 -0.0004 -0.1818
 4385TIP3   OH234713   1.293   3.846   8.175 -0.2194  0.3005  0.0481
 4385TIP3    H134714   1.302   3.762   8.130  0.4684  0.4395 -0.0878
 4385TIP3    H234715   1.220   3.890   8.130  0.6525  0.5716 -1.1619
 4386TIP3   OH234716   0.487   3.904   0.566  0.1766  0.3779  0.0511
 4386TIP3    H134717   0.540   3.983   0.567 -2.7897  2.5834 -1.6591
 4386TIP3    H234718   0.507   3.862   0.482  1.3435 -0.4459  0.7184
 4387TIP3   OH234719   5.268   1.908   1.627  0.3222 -0.4661  0.1627
 4387TIP3    H134720   5.353   1.943   1.601 -0.3504  0.7238 -0.4754
 4387TIP3    H234721   5.263   1.925   1.721 -0.2688  1.8519 -0.2307
 4388TIP3   OH234722   3.167   5.954   0.369  0.5028 -0.4352  0.2594
 4388TIP3    H134723   3.139   5.863   0.371 -3.2143  0.5535  1.2039
 4388TIP3    H234724   3.128   5.989   0.289 -0.9663  1.0087  1.5380
 4389TIP3   OH234725   6.394   5.860   7.657  0.8921  0.3352 -0.3796
 4389TIP3    H134726   6.352   5.945   7.652  0.3860  0.1921  1.0208
 4389TIP3    H234727   6.438   5.860   7.742 -1.0769 -1.6420  0.7388
 4390TIP3   OH234728   2.321   3.099   7.409 -0.4042 -0.3575  0.6776
 4390TIP3    H134729   2.253   3.138   7.465 -0.7520 -1.3881  0.9916
 4390TIP3    H234730   2.272   3.052   7.341  0.0120  0.1098  0.0466
 4391TIP3   OH234731   0.221   2.069   0.675  0.2716  0.2264  0.2665
 4391TIP3    H134732   0.249   2.114   0.595  0.0049 -0.9946 -0.5399
 4391TIP3    H234733   0.202   2.140   0.737  1.2194  1.1757 -0.4912
 4392TIP3   OH234734   2.353   5.688   2.861  0.3593 -0.4094  0.5640
 4392TIP3    H134735   2.432   5.639   2.838 -0.3612 -0.8833 -1.0786
 4392TIP3    H234736   2.283   5.623   2.857 -0.3345  0.3327  0.3644
 4393TIP3   OH234737   2.373   0.143   0.068 -0.5613  0.5055 -0.2033
 4393TIP3    H134738   2.433   0.082   0.026 -1.0779  0.0496 -0.2880
 4393TIP3    H234739   2.386   0.128   0.162 -1.5849 -0.6324 -0.2314
 4394TIP3   OH234740   5.128   1.941   7.639 -0.0626 -0.0478 -0.3914
 4394TIP3    H134741   5.161   1.862   7.595 -0.7848 -0.7330  0.2752
 4394TIP3    H234742   5.163   1.936   7.727 -1.4875 -0.5412  0.1851
 4395TIP3   OH234743   6.003   6.666   7.251  0.0512 -0.6813  0.2590
 4395TIP3    H134744   5.974   6.575   7.257  2.9136 -1.7196 -0.0681
 4395TIP3    H234745   6.034   6.688   7.339 -1.1260  0.2096  0.4782
 4396TIP3   OH234746   4.715   2.717   2.529  0.6499  0.3308  0.0030
 4396TIP3    H134747   4.705   2.758   2.443 -0.5994 -1.6993 -0.9083
 4396TIP3    H234748   4.626   2.712   2.564  0.6829 -1.7616 -0.0741
 4397TIP3   OH234749   2.967   0.955   2.456  0.4696  0.2103  0.0068
 4397TIP3    H134750   3.019   0.975   2.534 -0.3356 -0.3351  0.7057
 4397TIP3    H234751   3.031   0.923   2.392  0.8835 -1.6613  1.2612
 4398TIP3   OH234752   3.820   3.028   1.313 -0.2330 -0.0763  0.3322
 4398TIP3    H134753   3.914   3.031   1.292 -0.6840  1.2861 -1.8382
 4398TIP3    H234754   3.817   3.017   1.408  2.1052 -0.7864  0.3943
 4399TIP3   OH234755   5.127   5.010   7.766 -0.3006 -0.1810  0.9675
 4399TIP3    H134756   5.045   4.960   7.762 -1.7801  2.1294 -0.1873
 4399TIP3    H234757   5.130   5.044   7.856 -1.1178  0.4257  0.7838
 4400TIP3   OH234758   6.167   5.254   7.660  0.3296  0.2986 -0.2892
 4400TIP3    H134759   6.126   5.283   7.578 -0.5583 -0.8579 -0.2875
 4400TIP3    H234760   6.190   5.163   7.644  1.3385  0.4228  0.3322
 4401TIP3   OH234761   1.826   0.479   0.487  0.4998  0.0386  0.9699
 4401TIP3    H134762   1.744   0.509   0.448  0.7515 -0.4158  0.0500
 4401TIP3    H234763   1.816   0.496   0.581 -0.2110  0.9813  0.7415
 4402TIP3   OH234764   5.712   6.487   1.293 -0.0873  0.9648 -0.7712
 4402TIP3    H134765   5.707   6.393   1.273 -2.0260  0.8834 -0.1194
 4402TIP3    H234766   5.773   6.522   1.229  1.6397 -0.9286 -0.2601
 4403TIP3   OH234767   5.290   5.719   7.349  0.0438  0.2114  0.2531
 4403TIP3    H134768   5.383   5.740   7.359 -0.0967  2.1969 -1.8572
 4403TIP3    H234769   5.283   5.628   7.379  2.4249  0.3585  1.5236
 4404TIP3   OH234770   5.159   1.187   2.272 -0.8817  0.0031  0.8912
 4404TIP3    H134771   5.170   1.247   2.346 -0.5933 -0.8023  1.5248
 4404TIP3    H234772   5.064   1.174   2.266 -0.8412 -1.3916  2.3740
 4405TIP3   OH234773   1.898   0.526   7.445 -0.1630  0.2567 -0.5051
 4405TIP3    H134774   1.926   0.582   7.518 -0.4153  1.0253 -0.9837
 4405TIP3    H234775   1.859   0.587   7.382  0.6215 -0.3040 -1.5656
 4406TIP3   OH234776   4.156   3.918   8.197 -0.6274 -0.8229  0.0009
 4406TIP3    H134777   4.172   3.826   8.175  2.8354  0.1183 -2.0301
 4406TIP3    H234778   4.208   3.934   8.275  0.3930 -0.1645 -0.7884
 4407TIP3   OH234779   2.595   6.272   7.838 -0.2696  0.2643  0.7661
 4407TIP3    H134780   2.641   6.256   7.920 -0.2306  0.0651  0.7062
 4407TIP3    H234781   2.615   6.196   7.783 -0.3828  0.3432  0.6114
 4408TIP3   OH234782   6.015   2.560   8.231  0.7700 -0.1345 -0.0001
 4408TIP3    H134783   5.963   2.480   8.237  0.7126 -0.0579  0.6277
 4408TIP3    H234784   6.064   2.551   8.150  1.7391 -1.3960  0.6932
 4409TIP3   OH234785   4.329   2.366   1.617 -0.0747  0.4902 -0.3600
 4409TIP3    H134786   4.310   2.425   1.689 -0.4866  0.6953 -0.6306
 4409TIP3    H234787   4.419   2.386   1.591  0.5156 -0.4219  0.8786
 4410TIP3   OH234788   0.201   5.017   6.876 -0.7401  0.2441  0.0121
 4410TIP3    H134789   0.238   5.104   6.891  1.0792 -0.5657  0.4888
 4410TIP3    H234790   0.109   5.025   6.902 -0.4589  1.8639  0.6103
 4411TIP3   OH234791   1.132   2.023   0.596 -0.0954  0.3338  0.2354
 4411TIP3    H134792   1.190   2.081   0.546  1.1058 -1.9240 -1.1433
 4411TIP3    H234793   1.085   1.973   0.529 -0.5356 -0.8138  1.3733
 4412TIP3   OH234794   6.652   2.602   7.689 -0.3401 -0.7575  0.0184
 4412TIP3    H134795   6.732   2.634   7.647 -1.3283  0.7939 -0.7895
 4412TIP3    H234796   6.611   2.547   7.624 -0.7199 -0.2311 -0.1961
 4413TIP3   OH234797   0.975   6.940   7.866  0.7292  0.4531 -0.4346
 4413TIP3    H134798   0.888   6.978   7.853  0.9608  0.5206 -1.9590
 4413TIP3    H234799   1.036   7.014   7.853  1.0743  0.0725 -1.0280
 4414TIP3   OH234800   2.859   5.003   1.966  0.2815  0.1546 -0.0877
 4414TIP3    H134801   2.851   5.093   1.933  1.9095  0.3118 -0.1438
 4414TIP3    H234802   2.951   4.980   1.950  0.3423 -0.8821  1.5289
 4415TIP3   OH234803   0.602   3.971   7.065 -0.1412 -0.2426  0.1426
 4415TIP3    H134804   0.583   4.063   7.081 -1.8699 -1.0064  3.1657
 4415TIP3    H234805   0.523   3.937   7.023  0.4075 -0.4433 -0.7612
 4416TIP3   OH234806   0.981   6.276   0.313 -0.4259  0.0568 -0.2744
 4416TIP3    H134807   0.934   6.214   0.369 -1.0250 -0.2492 -1.0944
 4416TIP3    H234808   0.941   6.265   0.227  1.3785 -0.4695 -1.1032
 4417TIP3   OH234809   0.150   3.505   1.746 -0.5253 -0.3013 -0.2344
 4417TIP3    H134810   0.129   3.435   1.807  1.7524  0.1439  1.1436
 4417TIP3    H234811   0.196   3.462   1.674 -0.1934 -0.3771  0.0236
 4418TIP3   OH234812   6.837   3.621   7.058  0.4653 -0.3810 -0.1991
 4418TIP3    H134813   6.769   3.558   7.034 -1.5934  1.7026 -0.1647
 4418TIP3    H234814   6.806   3.661   7.139  2.4859 -0.3858  0.6332
 4419TIP3   OH234815   4.280   0.798   7.742 -0.0396  0.1600  0.4652
 4419TIP3    H134816   4.348   0.834   7.798  0.2522  0.0358  0.1982
 4419TIP3    H234817   4.240   0.728   7.793  0.4579 -0.1862  0.3939
 4420TIP3   OH234818   0.909   0.230   1.510 -0.3195  0.0531  0.3635
 4420TIP3    H134819   0.929   0.315   1.548 -0.6204 -0.3257  1.4211
 4420TIP3    H234820   0.993   0.195   1.481  0.0104  0.1240  1.2066
 4421TIP3   OH234821   1.424   4.823   1.667 -0.2151 -0.1114  0.4035
 4421TIP3    H134822   1.398   4.760   1.734 -1.1264 -0.4115 -0.2155
 4421TIP3    H234823   1.468   4.893   1.716 -1.6580  0.1232  1.4484
 4422TIP3   OH234824   6.555   3.316   0.020 -0.3706 -0.3455 -0.5707
 4422TIP3    H134825   6.550   3.267   0.102 -1.5994  0.4376 -0.1384
 4422TIP3    H234826   6.464   3.342   0.003  0.1344  1.1186 -1.1734
 4423TIP3   OH234827   4.239   1.994   6.544 -0.4200 -0.0477 -0.1615
 4423TIP3    H134828   4.299   1.920   6.537 -0.6505 -0.3209  0.6397
 4423TIP3    H234829   4.295   2.068   6.564 -0.1108  0.1439 -1.6137
 4424TIP3   OH234830   5.817   4.102   2.199  0.0799  0.1812 -0.3960
 4424TIP3    H134831   5.842   4.183   2.156 -2.1000  0.2672 -1.7018
 4424TIP3    H234832   5.725   4.115   2.223 -0.4254 -1.9702 -0.9196
 4425TIP3   OH234833   3.400   6.737   2.769  0.0041  0.1659 -0.0443
 4425TIP3    H134834   3.429   6.822   2.736 -0.1623  0.2321 -0.0232
 4425TIP3    H234835   3.441   6.673   2.712  1.5326  0.1840  0.9884
 4426TIP3   OH234836   3.204   3.699   0.690  0.4199 -0.3186 -0.3347
 4426TIP3    H134837   3.212   3.605   0.675 -1.9463 -0.5299 -0.6546
 4426TIP3    H234838   3.179   3.706   0.782 -0.6309 -0.0985 -0.6308
 4427TIP3   OH234839   3.099   5.682   0.822  0.6257 -0.3285  0.0783
 4427TIP3    H134840   3.148   5.749   0.774  1.6109  0.1934  1.7366
 4427TIP3    H234841   3.149   5.602   0.810  0.5512 -0.3290 -0.2346
 4428TIP3   OH234842   6.823   1.720   7.400  0.8159 -0.2991 -0.0383
 4428TIP3    H134843   6.879   1.733   7.323  1.6528 -1.4338  0.3385
 4428TIP3    H234844   6.749   1.667   7.367  1.0879 -0.6413 -0.1075
 4429TIP3   OH234845   1.271   4.819   2.009 -0.3196  0.1823  0.0873
 4429TIP3    H134846   1.240   4.764   2.081 -3.2158  1.1106 -0.3008
 4429TIP3    H234847   1.337   4.766   1.965 -2.4038 -2.7580  0.1561
 4430TIP3   OH234848   4.286   5.843   1.524  0.3528 -0.1155 -0.5934
 4430TIP3    H134849   4.314   5.905   1.591 -1.5190  2.4612 -1.9927
 4430TIP3    H234850   4.316   5.881   1.441 -0.6835 -1.1613 -1.4951
 4431TIP3   OH234851   3.787   6.691   1.256  0.1009 -0.7186 -0.0804
 4431TIP3    H134852   3.803   6.624   1.323  1.7474  2.1352  2.6319
 4431TIP3    H234853   3.703   6.730   1.280 -0.3160 -1.0436 -0.9790
 4432TIP3   OH234854   0.003   1.877   0.760 -0.2943 -0.0185  0.3175
 4432TIP3    H134855   0.087   1.922   0.756  0.3280 -1.0138  1.4982
 4432TIP3    H234856   0.004   1.816   0.686 -0.6820  1.0833 -0.6289
 4433TIP3   OH234857   6.804   2.231   0.086 -0.5226  0.5470  0.5603
 4433TIP3    H134858   6.749   2.299   0.124  1.6658  1.5070  2.2320
 4433TIP3    H234859   6.864   2.278   0.028  1.3695  0.1870  2.1335
 4434TIP3   OH234860   1.589   3.471   1.092 -0.1481  0.2543 -0.0634
 4434TIP3    H134861   1.684   3.475   1.083  0.1588  3.1377  2.7660
 4434TIP3    H234862   1.555   3.522   1.019  0.5873  0.8561  0.0162
 4435TIP3   OH234863   0.315   5.091   1.235 -0.0349 -0.2548 -0.4058
 4435TIP3    H134864   0.378   5.151   1.197  0.9088 -0.3972  0.8620
 4435TIP3    H234865   0.301   5.024   1.168  1.7958 -0.6641 -0.4358
 4436TIP3   OH234866   3.317   2.588   8.164 -0.4307 -0.5403  0.0739
 4436TIP3    H134867   3.274   2.552   8.086 -1.9702  0.1580  0.5573
 4436TIP3    H234868   3.317   2.515   8.226 -0.4568 -0.6891 -0.0974
 4437TIP3   OH234869   3.529   5.071   7.249  0.0563  0.0640  0.8783
 4437TIP3    H134870   3.447   5.103   7.210  0.9902  2.2339  0.5786
 4437TIP3    H234871   3.566   5.014   7.182  0.4681  1.8568 -0.5103
 4438TIP3   OH234872   5.233   1.172   8.032 -0.0359 -0.2258  1.0296
 4438TIP3    H134873   5.228   1.140   8.122 -1.3662 -1.4060  0.5778
 4438TIP3    H234874   5.149   1.214   8.016  0.8618  1.5781  0.8753
 4439TIP3   OH234875   5.068   3.410   8.446 -0.1441  0.0299  0.6825
 4439TIP3    H134876   5.112   3.324   8.442  1.9718  1.0204  1.1407
 4439TIP3    H234877   5.112   3.462   8.379 -1.0931  0.9108  0.7229
 4440TIP3   OH234878   3.303   2.807   8.370  0.1368 -0.4752  0.5615
 4440TIP3    H134879   3.332   2.718   8.353  2.8536  0.4957 -0.4214
 4440TIP3    H234880   3.334   2.826   8.459  2.5164  0.4744 -0.3915
 4441TIP3   OH234881   1.131   1.937   1.702  0.3049  0.0290  0.3352
 4441TIP3    H134882   1.159   1.935   1.793 -2.0969 -0.4984  1.1481
 4441TIP3    H234883   1.039   1.964   1.706  0.3765  0.8155 -2.0127
 4442TIP3   OH234884   4.013   3.491   7.990  0.2587 -0.8932  0.0855
 4442TIP3    H134885   3.925   3.493   7.952  0.7708  2.5679 -1.3372
 4442TIP3    H234886   4.002   3.446   8.073 -3.1286  0.3765  0.4992
 4443TIP3   OH234887   6.930   3.473   2.851  0.0995  0.0769  0.1479
 4443TIP3    H134888   6.846   3.519   2.853  0.2459  0.3152  1.5210
 4443TIP3    H234889   6.912   3.392   2.803 -0.5590  0.7794 -0.8175
 4444TIP3   OH234890   3.926   1.257   8.008  0.0062  1.2223 -0.5830
 4444TIP3    H134891   4.019   1.236   8.016 -0.2050  0.1497 -0.8266
 4444TIP3    H234892   3.891   1.248   8.097 -0.0908  0.4276 -0.6899
 4445TIP3   OH234893   6.943   6.929   6.522 -0.1077  0.6579 -0.3105
 4445TIP3    H134894   6.922   7.005   6.575  0.8084  1.5590 -1.2022
 4445TIP3    H234895   7.010   6.959   6.461  0.8924 -1.0820 -0.1449
 4446TIP3   OH234896   4.172   2.819   0.318 -0.7105  0.1150 -0.1002
 4446TIP3    H134897   4.245   2.759   0.335 -1.8235 -0.8499  1.5381
 4446TIP3    H234898   4.109   2.767   0.269 -0.4882  0.8328 -1.1784
 4447TIP3   OH234899   5.359   5.678   0.532  1.1691 -0.2407  0.3941
 4447TIP3    H134900   5.408   5.705   0.610  1.8888 -1.7091  0.4839
 4447TIP3    H234901   5.422   5.687   0.460  1.2352 -1.0806  0.3418
 4448TIP3   OH234902   4.043   3.094   0.262  0.0701 -0.2135  0.4573
 4448TIP3    H134903   4.090   3.147   0.198  2.4996  0.3993  2.5678
 4448TIP3    H234904   4.101   3.019   0.278  1.5093  1.4591  4.4871
 4449TIP3   OH234905   0.336   0.918   8.057 -0.4884 -0.1313 -0.3173
 4449TIP3    H134906   0.256   0.970   8.054  0.1585  0.8765 -0.8818
 4449TIP3    H234907   0.402   0.973   8.015  0.7647 -0.4879  1.0820
 4450TIP3   OH234908   2.426   5.346   1.063 -0.4167 -0.1336  0.2786
 4450TIP3    H134909   2.438   5.430   1.018  0.1649 -0.2575  0.1958
 4450TIP3    H234910   2.363   5.299   1.008 -0.9709  0.3644  0.4869
 4451TIP3   OH234911   1.292   2.894   1.101  0.2071 -0.1800  0.0570
 4451TIP3    H134912   1.314   2.918   1.191 -1.0795  1.9516 -0.1243
 4451TIP3    H234913   1.198   2.881   1.102  0.1884 -0.2036 -0.9630
 4452TIP3   OH234914   3.373   5.673   7.574 -0.3972  0.3884  0.0908
 4452TIP3    H134915   3.463   5.643   7.562 -0.5363  0.9111 -2.9536
 4452TIP3    H234916   3.320   5.607   7.530 -1.4232  0.8429  0.6203
 4453TIP3   OH234917   1.160   0.223   1.395  0.2994  0.6168  0.9924
 4453TIP3    H134918   1.120   0.294   1.343  0.9970 -1.4294 -2.6721
 4453TIP3    H234919   1.243   0.260   1.425  0.2012  1.6955  0.0296
 4454TIP3   OH234920   1.996   0.799   7.286 -0.1760 -0.3194 -0.8319
 4454TIP3    H134921   1.913   0.753   7.273 -0.3875 -0.1419 -0.1682
 4454TIP3    H234922   1.975   0.868   7.349  0.3183  0.1844 -1.2127
 4455TIP3   OH234923   6.330   1.718   7.192  0.5292  0.0561 -0.3348
 4455TIP3    H134924   6.389   1.693   7.120 -0.0363  0.5687 -0.9883
 4455TIP3    H234925   6.337   1.646   7.255  1.2535 -0.2622 -0.7656
 4456TIP3   OH234926   1.332   1.823   6.261  0.3544 -0.5271  0.1080
 4456TIP3    H134927   1.392   1.890   6.295  0.9501 -1.5173  1.0983
 4456TIP3    H234928   1.302   1.857   6.177  2.2667  0.0459 -0.3957
 4457TIP3   OH234929   6.021   4.477   7.206  0.5835  0.2534 -0.5143
 4457TIP3    H134930   6.012   4.416   7.133 -0.5814  0.2221 -0.3663
 4457TIP3    H234931   6.081   4.433   7.266  1.2688  0.1202 -1.2810
 4458TIP3   OH234932   1.974   2.494   0.772 -0.0501 -0.5704  0.5040
 4458TIP3    H134933   1.918   2.474   0.697 -1.3953  2.0024  0.7305
 4458TIP3    H234934   2.020   2.412   0.789  0.7103 -1.1912 -3.4170
 4459TIP3   OH234935   0.477   5.347   0.680 -0.1075  0.4975  0.1177
 4459TIP3    H134936   0.513   5.350   0.592  1.0496 -0.0464  0.5466
 4459TIP3    H234937   0.440   5.259   0.688 -2.0629  1.2133 -0.4910
 4460TIP3   OH234938   4.624   0.209   1.079 -0.1594 -0.2085 -0.2783
 4460TIP3    H134939   4.675   0.169   1.009 -3.0562 -0.2157 -2.5689
 4460TIP3    H234940   4.585   0.134   1.125 -0.1818 -0.1381 -0.1829
 4461TIP3   OH234941   4.061   3.450   0.210  0.7210  0.6716 -0.0213
 4461TIP3    H134942   4.097   3.363   0.189 -0.2611  0.1592  0.3639
 4461TIP3    H234943   4.004   3.470   0.135 -2.6248 -1.0645  1.8331
 4462TIP3   OH234944   0.183   4.758   7.126 -0.0523  0.6064 -0.5070
 4462TIP3    H134945   0.265   4.723   7.091 -0.2587 -0.4205 -0.0145
 4462TIP3    H234946   0.122   4.684   7.121 -0.7376  1.1378 -0.1614
 4463TIP3   OH234947   6.595   4.418   7.827  0.4314 -0.4342  0.0005
 4463TIP3    H134948   6.551   4.372   7.898 -0.7914 -0.6552 -0.8661
 4463TIP3    H234949   6.592   4.357   7.753 -0.4500  0.6789 -0.9190
 4464TIP3   OH234950   1.284   2.272   0.292  1.1428  0.3556 -0.5192
 4464TIP3    H134951   1.285   2.208   0.221  1.5385 -1.0590  0.7086
 4464TIP3    H234952   1.194   2.304   0.295  0.7149 -0.8166 -0.5806
 4465TIP3   OH234953   3.136   5.444   1.287 -0.1993  0.2764 -0.1507
 4465TIP3    H134954   3.122   5.535   1.313  1.6973  0.0731  1.9419
 4465TIP3    H234955   3.205   5.413   1.346 -2.9775 -3.5067  1.5084
 4466TIP3   OH234956   4.262   2.555   8.423  0.7510  0.0759 -0.0560
 4466TIP3    H134957   4.296   2.535   8.510  0.5524  1.0438  0.2595
 4466TIP3    H234958   4.175   2.515   8.422  0.3078  0.9879  0.6077
 4467TIP3   OH234959   1.859   5.209   0.072  0.1782 -0.0294 -0.1470
 4467TIP3    H134960   1.861   5.299   0.041 -0.5867  0.1618  0.3237
 4467TIP3    H234961   1.926   5.163   0.020  1.6946  1.1495  0.6925
 4468TIP3   OH234962   2.733   2.227   8.369 -0.0343 -0.3205 -0.5624
 4468TIP3    H134963   2.671   2.255   8.436  0.9388 -2.0449  1.1507
 4468TIP3    H234964   2.686   2.238   8.287 -2.1502 -0.3417  0.5782
 4469TIP3   OH234965   0.676   0.950   1.248 -0.2376  0.7494  0.3963
 4469TIP3    H134966   0.699   1.029   1.198 -0.2056  0.8446  0.5595
 4469TIP3    H234967   0.625   0.983   1.322  1.4678  0.8592  1.5998
 4470TIP3   OH234968   4.133   4.797   1.050  0.0561 -0.8678  0.0988
 4470TIP3    H134969   4.079   4.814   1.126 -1.6794 -2.7100 -0.6363
 4470TIP3    H234970   4.171   4.711   1.065 -0.7976 -1.5357 -1.3401
 4471TIP3   OH234971   4.224   5.638   0.155 -0.4154  0.1553 -0.1824
 4471TIP3    H134972   4.219   5.659   0.249  1.3600 -0.7483  0.1441
 4471TIP3    H234973   4.293   5.693   0.121 -0.8109  0.2196 -0.9077
 4472TIP3   OH234974   1.954   0.232   7.587  0.2358 -0.0323  0.4527
 4472TIP3    H134975   2.046   0.257   7.597  0.1198  0.4067  0.4088
 4472TIP3    H234976   1.911   0.309   7.551 -0.2148 -0.1288  0.7705
 4473TIP3   OH234977   1.727   2.761   0.591  0.0240 -0.2278  0.8026
 4473TIP3    H134978   1.770   2.810   0.661  0.1180 -0.4908  0.9308
 4473TIP3    H234979   1.645   2.730   0.630 -1.1040  1.6808  0.0593
 4474TIP3   OH234980   5.521   2.928   0.898  0.3083 -0.5888 -0.4754
 4474TIP3    H134981   5.613   2.928   0.872  0.5449 -3.1706  0.1703
 4474TIP3    H234982   5.518   2.987   0.973  1.4122 -0.4267 -0.5430
 4475TIP3   OH234983   0.650   1.106   0.402  0.1564 -0.0075 -0.4748
 4475TIP3    H134984   0.573   1.070   0.446  1.6865 -2.0575  0.7351
 4475TIP3    H234985   0.713   1.120   0.473  0.9014  1.6750 -1.4151
 4476TIP3   OH234986   1.009   3.442   2.210  0.3256  0.3167  0.4147
 4476TIP3    H134987   1.100   3.470   2.199  0.7311 -1.6721 -2.6953
 4476TIP3    H234988   0.962   3.487   2.139 -0.4903 -0.9441  0.1314
 4477TIP3   OH234989   6.805   6.223   6.993  0.3210  0.1023 -0.3137
 4477TIP3    H134990   6.785   6.148   7.049  1.2223 -1.7362 -2.3051
 4477TIP3    H234991   6.901   6.230   6.995  0.5486 -1.1198 -2.8302
 4478TIP3   OH234992   5.896   6.193   2.123 -0.1068  0.5161 -0.0666
 4478TIP3    H134993   5.862   6.283   2.128 -1.2209  0.1588 -0.8207
 4478TIP3    H234994   5.894   6.162   2.213 -2.3227  0.3486 -0.1117
 4479TIP3   OH234995   5.239   5.658   6.978  0.5043 -0.1673  0.3773
 4479TIP3    H134996   5.256   5.677   6.886  0.4900 -2.1603 -0.1027
 4479TIP3    H234997   5.311   5.698   7.026 -0.0678  1.8249 -0.3649
 4480TIP3   OH234998   4.563   4.894   0.250 -0.3079  0.2911  0.3384
 4480TIP3    H134999   4.598   4.979   0.276  0.1080  0.3461 -0.3765
 4480TIP3    H235000   4.591   4.834   0.320 -0.9473  0.8099  1.0505
 4481TIP3   OH235001   6.265   2.033   8.039 -0.4928 -0.2538  0.1857
 4481TIP3    H135002   6.332   1.970   8.067  0.6690  0.7241 -0.2671
 4481TIP3    H235003   6.297   2.118   8.071 -1.9250  0.1380  0.6261
 4482TIP3   OH235004   5.549   0.931   0.584  0.3156 -0.0111 -0.2771
 4482TIP3    H135005   5.512   0.882   0.510 -1.3876 -0.7444  0.9796
 4482TIP3    H235006   5.619   0.984   0.546 -2.0537  1.5236 -2.8815
 4483TIP3   OH235007   1.207   4.319   1.697 -0.5084  0.6484  0.0420
 4483TIP3    H135008   1.154   4.270   1.760 -1.4559  1.8765  0.2284
 4483TIP3    H235009   1.195   4.411   1.722  1.7716  0.9850  0.1432
 4484TIP3   OH235010   1.292   0.807   0.326  0.1587  0.4899 -0.9420
 4484TIP3    H135011   1.232   0.779   0.257 -1.2416  1.0352  0.0170
 4484TIP3    H235012   1.379   0.781   0.294 -0.5210  0.0983 -2.5690
 4485TIP3   OH235013   5.858   1.010   7.710  0.3638 -0.2607 -0.6032
 4485TIP3    H135014   5.844   1.068   7.634 -0.4085 -0.1194 -0.3574
 4485TIP3    H235015   5.949   0.981   7.700  0.0537 -0.8618 -2.0074
 4486TIP3   OH235016   2.448   0.539   2.345 -0.0430  0.0331  0.1306
 4486TIP3    H135017   2.511   0.565   2.413 -1.4756  1.1712  1.0902
 4486TIP3    H235018   2.381   0.607   2.348 -1.5473 -1.3696 -0.5750
 4487TIP3   OH235019   4.964   4.479   0.068  0.2619 -0.0428  0.4788
 4487TIP3    H135020   4.895   4.544   0.078  0.4235  0.2603 -0.3778
 4487TIP3    H235021   4.918   4.395   0.073  0.1166  0.0975  2.0814
 4488TIP3   OH235022   4.425   3.964   8.524  0.4279 -0.3919 -0.2817
 4488TIP3    H135023   4.424   4.039   8.583 -2.6786 -0.7189  0.2600
 4488TIP3    H235024   4.428   4.002   8.437 -3.3302  0.6773 -0.1275
 4489TIP3   OH235025   3.533   6.608   2.575  0.3255  0.0591 -0.0661
 4489TIP3    H135026   3.481   6.660   2.514  0.8685 -0.5939 -1.1012
 4489TIP3    H235027   3.624   6.623   2.548  0.5258 -0.8446  0.0903
 4490TIP3   OH235028   1.718   2.384   8.018  0.9817 -0.3284  0.0619
 4490TIP3    H135029   1.769   2.463   8.000 -1.2961  1.0279 -0.9315
 4490TIP3    H235030   1.734   2.327   7.943 -1.3644  1.4761 -1.9832
 4491TIP3   OH235031   5.047   2.604   7.150  0.4116 -0.6751  0.4817
 4491TIP3    H135032   5.132   2.615   7.192  1.1937 -0.3121 -1.1075
 4491TIP3    H235033   5.001   2.686   7.169  1.4090  0.2160 -0.7436
 4492TIP3   OH235034   2.764   1.752   2.057 -0.0703  0.1347  0.3832
 4492TIP3    H135035   2.692   1.699   2.092  1.2372 -1.5550  0.6797
 4492TIP3    H235036   2.806   1.789   2.134 -1.5664  2.5390  0.1344
 4493TIP3   OH235037   0.582   4.361   1.466  0.1600 -0.0665 -0.0334
 4493TIP3    H135038   0.552   4.403   1.385  1.8813  1.5784  0.1077
 4493TIP3    H235039   0.672   4.333   1.447  0.8811  1.0416  1.4934
 4494TIP3   OH235040   6.066   5.640   8.011  0.0396  1.1068  0.1100
 4494TIP3    H135041   6.035   5.561   7.968 -0.5629  0.6664  1.2860
 4494TIP3    H235042   6.109   5.690   7.942 -0.8048  0.4057 -0.9654
 4495TIP3   OH235043   3.141   1.152   8.148  0.0759 -0.3675 -0.5176
 4495TIP3    H135044   3.061   1.173   8.197  0.8297 -0.0778  0.6282
 4495TIP3    H235045   3.120   1.072   8.100 -0.9520 -0.2022 -0.3579
 4496TIP3   OH235046   4.332   6.903   7.695  0.1745 -0.3470  0.2377
 4496TIP3    H135047   4.400   6.871   7.754  1.0246  0.2824 -0.3885
 4496TIP3    H235048   4.322   6.995   7.716  0.1139 -0.2386 -0.2523
 4497TIP3   OH235049   5.240   4.954   8.092  0.1258  0.1246 -0.1784
 4497TIP3    H135050   5.241   4.934   8.185  0.4611 -0.2472 -0.2563
 4497TIP3    H235051   5.162   5.007   8.079  0.9044  1.5058  0.5912
 4498TIP3   OH235052   4.513   2.666   1.699 -0.2101 -0.6184  0.4409
 4498TIP3    H135053   4.559   2.589   1.667  1.8980  0.2153  1.2916
 4498TIP3    H235054   4.515   2.658   1.794 -0.7327  0.0550  0.5201
 4499TIP3   OH235055   5.552   6.355   0.741  0.3807  0.6520  0.5132
 4499TIP3    H135056   5.486   6.327   0.676  0.7385  0.1859  0.3427
 4499TIP3    H235057   5.504   6.356   0.824  0.3128 -0.3396  0.4992
 4500TIP3   OH235058   5.420   0.544   7.270 -0.4411 -0.5091  0.0443
 4500TIP3    H135059   5.438   0.551   7.363 -1.9116  3.9980  0.2318
 4500TIP3    H235060   5.351   0.478   7.263  1.1296 -2.4580  1.7664
 4501TIP3   OH235061   0.959   4.122   2.137  0.4012  0.5277  0.1705
 4501TIP3    H135062   0.925   4.090   2.221 -0.4184 -0.0056 -0.3523
 4501TIP3    H235063   1.027   4.185   2.161  0.2177  0.3367  1.2336
 4502TIP3   OH235064   6.112   4.547   2.069  0.1708 -0.6337 -0.0179
 4502TIP3    H135065   6.128   4.610   1.998 -1.6361  0.5180  0.5382
 4502TIP3    H235066   6.173   4.573   2.137  1.0754 -0.9932 -0.6638
 4503TIP3   OH235067   3.230   1.098   0.814 -0.6673 -0.9031 -0.1585
 4503TIP3    H135068   3.143   1.064   0.791 -0.9480 -0.6762  0.5289
 4503TIP3    H235069   3.226   1.190   0.789 -1.3136 -0.4076  1.5913
 4504TIP3   OH235070   6.424   5.438   2.495  0.2107  0.5325 -0.5630
 4504TIP3    H135071   6.478   5.459   2.571  0.8490 -3.3028  0.2708
 4504TIP3    H235072   6.479   5.459   2.420  0.5139  2.1045  0.0643
 4505TIP3   OH235073   6.152   0.035   1.733  0.0163 -0.3803  0.1340
 4505TIP3    H135074   6.065   0.023   1.693 -0.0487  0.2043  0.0850
 4505TIP3    H235075   6.213   0.020   1.661 -0.0706 -0.1727  0.0140
 4506TIP3   OH235076   4.800   4.335   7.471 -0.0799  0.3070 -0.4565
 4506TIP3    H135077   4.835   4.374   7.390 -0.1444 -0.1054 -0.6884
 4506TIP3    H235078   4.808   4.404   7.536  2.1591 -0.0746 -0.2361
 4507TIP3   OH235079   4.809   1.969   8.027 -0.0205 -0.7039  0.1892
 4507TIP3    H135080   4.828   1.998   7.938  0.3686  1.2475  0.8649
 4507TIP3    H235081   4.730   1.916   8.018 -0.6768  0.4262 -1.1876
 4508TIP3   OH235082   4.859   3.337   0.770 -0.1541 -0.2986  0.1235
 4508TIP3    H135083   4.953   3.345   0.758 -0.6062  2.7578 -2.9750
 4508TIP3    H235084   4.831   3.423   0.801 -1.8775 -1.4894  2.1693
 4509TIP3   OH235085   1.417   4.652   7.436  0.0497 -0.1968 -0.0282
 4509TIP3    H135086   1.387   4.682   7.350 -1.7869 -1.3940  0.1659
 4509TIP3    H235087   1.341   4.661   7.493  1.2171  0.4840  1.4744
 4510TIP3   OH235088   2.904   0.369   7.018  0.2644  0.1965 -0.2065
 4510TIP3    H135089   2.999   0.364   7.008  0.5300  2.0266  0.8999
 4510TIP3    H235090   2.886   0.462   7.032 -1.6230 -0.1899  0.2481
 4511TIP3   OH235091   2.015   3.965   0.614 -0.0765 -0.0415  0.0882
 4511TIP3    H135092   1.989   3.912   0.689  0.8516 -1.8533 -0.8307
 4511TIP3    H235093   1.974   4.050   0.630  0.0309 -0.3972  2.5957
 4512TIP3   OH235094   5.810   4.318   0.949  0.7268  0.0074 -0.3678
 4512TIP3    H135095   5.826   4.413   0.948  0.9117 -0.0248 -1.0251
 4512TIP3    H235096   5.893   4.280   0.921  0.3893 -0.3066 -0.9492
 4513TIP3   OH235097   5.032   2.867   7.023 -0.2330  1.0178 -0.3839
 4513TIP3    H135098   5.027   2.924   7.099 -0.4965  0.6118 -0.0962
 4513TIP3    H235099   5.117   2.888   6.984 -0.5238  1.9472 -0.5578
 4514TIP3   OH235100   1.428   1.532   6.949  0.0971  0.8063  0.6541
 4514TIP3    H135101   1.351   1.583   6.922 -1.5062 -1.8787 -0.2972
 4514TIP3    H235102   1.392   1.459   6.999  2.2564  0.5258  1.9161
 4515TIP3   OH235103   5.483   0.804   0.355 -0.1156 -0.3522 -0.5319
 4515TIP3    H135104   5.564   0.815   0.306  0.3088 -0.2715  0.1730
 4515TIP3    H235105   5.449   0.719   0.325 -0.3373  0.1014 -1.6126
 4516TIP3   OH235106   6.524   2.202   0.807  0.5143  0.4500  0.2862
 4516TIP3    H135107   6.557   2.126   0.856  1.4347  0.5780 -0.1218
 4516TIP3    H235108   6.571   2.276   0.845 -1.0996  0.9765  1.3639
 4517TIP3   OH235109   1.867   6.285   0.537 -0.4017 -0.1590 -0.3053
 4517TIP3    H135110   1.811   6.229   0.483 -0.3649  0.4170 -0.9395
 4517TIP3    H235111   1.944   6.301   0.483 -0.5382  0.7445 -0.2485
 4518TIP3   OH235112   6.235   4.855   0.986  0.2298  0.0374  0.3929
 4518TIP3    H135113   6.233   4.900   0.902 -1.8973 -0.1332  0.2794
 4518TIP3    H235114   6.327   4.854   1.012  0.8424  0.6626 -1.6162
 4519TIP3   OH235115   3.909   5.248   1.039  0.4233  0.2952 -0.2009
 4519TIP3    H135116   3.925   5.165   1.084 -3.6262  0.6555  2.4759
 4519TIP3    H235117   3.863   5.223   0.958 -0.1057 -0.1505  0.2256
 4520TIP3   OH235118   2.423   5.030   7.891 -0.3545  0.1153  0.5721
 4520TIP3    H135119   2.446   4.961   7.829 -0.3642  0.0446  0.6469
 4520TIP3    H235120   2.357   4.990   7.948  0.5019 -0.1994  1.3581
 4521TIP3   OH235121   3.233   5.051   2.014  0.4218  0.5394  0.2845
 4521TIP3    H135122   3.297   5.047   2.085 -0.9753 -3.0953  1.5515
 4521TIP3    H235123   3.152   5.080   2.057  0.4484  2.2886 -0.7417
 4522TIP3   OH235124   5.254   6.420   8.063  0.0527  0.2027 -0.1954
 4522TIP3    H135125   5.255   6.455   8.152  2.8444  0.2351 -0.1564
 4522TIP3    H235126   5.345   6.399   8.044 -0.6527 -1.1147 -2.5683
 4523TIP3   OH235127   0.459   4.152   1.584  0.3052  0.0250  0.2429
 4523TIP3    H135128   0.486   4.235   1.543 -0.0427 -0.2798 -0.6441
 4523TIP3    H235129   0.525   4.135   1.651  1.5844 -0.0324 -0.9829
 4524TIP3   OH235130   0.471   1.628   7.267  0.4300 -0.3122  0.4132
 4524TIP3    H135131   0.546   1.607   7.212 -0.4453  0.4675 -1.1623
 4524TIP3    H235132   0.405   1.562   7.245  0.0395  0.0523  0.4605
 4525TIP3   OH235133   1.859   6.916   1.130  0.1366  0.5827  0.0022
 4525TIP3    H135134   1.887   6.842   1.184 -0.4682 -0.5057 -1.1174
 4525TIP3    H235135   1.940   6.957   1.101  0.4777  0.5306  0.8607
 4526TIP3   OH235136   4.200   4.018   2.091 -0.6780 -0.6585 -0.7443
 4526TIP3    H135137   4.279   3.965   2.095  0.4998  0.9901 -1.1443
 4526TIP3    H235138   4.192   4.043   1.999  0.3045  1.9395 -0.2139
 4527TIP3   OH235139   6.372   6.841   8.143  0.8035 -0.8983  0.2899
 4527TIP3    H135140   6.368   6.893   8.224 -0.1478 -0.4439 -0.0354
 4527TIP3    H235141   6.379   6.751   8.174  3.9724 -0.5710  0.8720
 4528TIP3   OH235142   3.302   1.511   8.288 -0.7002 -0.5099  0.3496
 4528TIP3    H135143   3.386   1.556   8.294 -0.1901 -1.3441 -0.3556
 4528TIP3    H235144   3.294   1.486   8.196 -1.0316 -1.7058  0.6802
 4529TIP3   OH235145   4.327   2.141   0.880  0.2973  0.1168 -0.0901
 4529TIP3    H135146   4.355   2.197   0.808  0.6282  1.3352  0.9485
 4529TIP3    H235147   4.369   2.178   0.957  2.0697 -2.6958  0.4329
 4530TIP3   OH235148   3.313   3.286   6.608  0.2305 -0.1103 -0.6367
 4530TIP3    H135149   3.318   3.206   6.660  1.0608 -0.6559 -1.5248
 4530TIP3    H235150   3.383   3.277   6.543  1.3472  2.0339  0.2053
 4531TIP3   OH235151   5.778   6.590   0.585  0.3311 -0.0012  0.7834
 4531TIP3    H135152   5.710   6.600   0.518  0.9789 -0.3185  0.0650
 4531TIP3    H235153   5.808   6.679   0.602 -0.6038  0.1960  1.4779
 4532TIP3   OH235154   1.889   1.507   0.117 -0.5470 -0.1912  0.2229
 4532TIP3    H135155   1.846   1.533   0.035  0.2581 -1.0152 -0.4864
 4532TIP3    H235156   1.829   1.536   0.186 -0.0048  2.9476 -0.4888
 4533TIP3   OH235157   0.617   2.802   7.796  0.3026  0.2320 -0.1323
 4533TIP3    H135158   0.699   2.778   7.754  1.5130  1.0525  1.6534
 4533TIP3    H235159   0.579   2.718   7.824  1.6437 -0.0304  0.9731
 4534TIP3   OH235160   3.081   2.244   2.240  0.0235 -0.3139  0.4889
 4534TIP3    H135161   3.001   2.253   2.188  0.3457 -0.4591 -0.0409
 4534TIP3    H235162   3.057   2.185   2.312 -0.4978  0.0962  0.6610
 4535TIP3   OH235163   0.559   5.804   6.712 -0.3600  0.1685 -0.0357
 4535TIP3    H135164   0.562   5.872   6.779  1.1217 -1.0770  1.2271
 4535TIP3    H235165   0.561   5.722   6.760  0.4055 -0.7800 -1.5939
 4536TIP3   OH235166   2.535   0.261   7.386  0.4409 -0.0721  0.0212
 4536TIP3    H135167   2.592   0.246   7.461 -1.4674 -2.8434  1.0605
 4536TIP3    H235168   2.446   0.257   7.421 -0.5273 -1.1500 -2.2877
 4537TIP3   OH235169   6.845   0.005   2.340  0.1378  0.1916  0.1412
 4537TIP3    H135170   6.924  -0.050   2.350 -0.0933 -0.1384  0.1707
 4537TIP3    H235171   6.785  -0.028   2.407  1.0105  2.3175  2.1079
 4538TIP3   OH235172   3.372   5.909   0.116  0.1095 -0.2439 -0.0084
 4538TIP3    H135173   3.396   5.963   0.041 -0.0525 -0.1926 -0.0232
 4538TIP3    H235174   3.283   5.880   0.097 -0.0193 -0.0389  0.2733
 4539TIP3   OH235175   1.395   3.465   7.604  0.4884  0.0308  0.1195
 4539TIP3    H135176   1.453   3.482   7.530 -0.2794  1.7404 -0.1539
 4539TIP3    H235177   1.307   3.466   7.566  0.1285  0.1852  0.9350
 4540TIP3   OH235178   0.143   4.451   2.153  0.1553  0.0157  0.2633
 4540TIP3    H135179   0.144   4.537   2.109 -0.3941  0.1713  0.5510
 4540TIP3    H235180   0.126   4.389   2.083 -0.8328  0.2741  0.2620
 4541TIP3   OH235181   1.641   6.532   0.954 -0.4693  0.6389  0.3647
 4541TIP3    H135182   1.703   6.477   0.906 -0.0022  1.0327  0.5098
 4541TIP3    H235183   1.654   6.620   0.920 -1.7579  0.5601 -0.4189
 4542TIP3   OH235184   2.287   1.473   7.037  0.1835 -0.0702  0.5049
 4542TIP3    H135185   2.243   1.448   6.956  0.0385  2.3368 -0.2335
 4542TIP3    H235186   2.380   1.464   7.018  0.2028  1.7681 -0.4418
 4543TIP3   OH235187   1.787   4.852   0.903  0.0093 -0.5524  0.8601
 4543TIP3    H135188   1.879   4.849   0.876 -0.7708  1.4121 -2.5125
 4543TIP3    H235189   1.755   4.762   0.889  0.7464 -0.5857 -0.8072
 4544TIP3   OH235190   6.542   6.206   0.084  0.1823 -0.1232 -0.0350
 4544TIP3    H135191   6.487   6.276   0.049  0.2169 -0.2983 -0.4551
 4544TIP3    H235192   6.501   6.126   0.053 -1.5919 -0.4886  2.9146
 4545TIP3   OH235193   3.061   4.970   0.703  0.3329 -0.4323  0.4643
 4545TIP3    H135194   3.068   4.894   0.760  0.8321 -0.0386  0.9336
 4545TIP3    H235195   2.970   4.998   0.710  0.6411  0.2735  1.9334
 4546TIP3   OH235196   2.495   3.137   8.500  0.3354  0.0255 -0.0685
 4546TIP3    H135197   2.491   3.042   8.492 -1.0606  0.0741 -0.2502
 4546TIP3    H235198   2.403   3.165   8.493  0.6981  1.3561  0.2804
 4547TIP3   OH235199   6.116   3.770   6.979  0.1655  0.3554 -0.1668
 4547TIP3    H135200   6.190   3.830   6.984  0.7961 -0.4000 -0.1458
 4547TIP3    H235201   6.044   3.816   7.023  0.4516  1.3348 -0.7168
 4548TIP3   OH235202   6.782   6.857   1.735  0.5634  0.5820  0.3542
 4548TIP3    H135203   6.835   6.862   1.655  0.9652  0.7771  0.6308
 4548TIP3    H235204   6.844   6.870   1.806  0.6508 -1.9127  0.8468
 4549TIP3   OH235205   0.273   1.162   1.372 -0.2511  0.5068  0.5889
 4549TIP3    H135206   0.291   1.105   1.297  0.0594  1.7487 -0.3154
 4549TIP3    H235207   0.177   1.165   1.377 -0.2729  0.2748  0.3712
 4550TIP3   OH235208   1.755   1.889   6.776  0.4290 -0.7536 -0.9192
 4550TIP3    H135209   1.670   1.853   6.800  0.6954 -0.0007  1.3485
 4550TIP3    H235210   1.738   1.980   6.754  0.6906 -0.4797 -0.0205
 4551TIP3   OH235211   2.962   1.298   0.234  1.1574 -0.0466 -0.3926
 4551TIP3    H135212   2.922   1.353   0.166  1.9132 -1.7389 -2.3168
 4551TIP3    H235213   3.051   1.283   0.203  1.5589 -0.8155  1.0448
 4552TIP3   OH235214   4.655   1.161   1.987  0.2050 -0.2890 -0.0038
 4552TIP3    H135215   4.637   1.083   1.934 -2.1585  0.4234 -0.3863
 4552TIP3    H235216   4.684   1.127   2.071  1.2493 -1.5126 -0.8156
 4553TIP3   OH235217   0.764   1.385   0.441 -0.2955 -0.5558  0.2901
 4553TIP3    H135218   0.770   1.301   0.487  1.6218 -0.0521  1.0604
 4553TIP3    H235219   0.779   1.451   0.509  1.9999  0.2347 -0.8794
 4554TIP3   OH235220   3.560   0.580   7.212 -0.6230  0.9100  0.1364
 4554TIP3    H135221   3.508   0.571   7.292 -0.1380  3.5311  0.8447
 4554TIP3    H235222   3.497   0.608   7.145 -0.7290  0.4604  0.0458
 4555TIP3   OH235223   0.781   4.209   6.984  0.3181 -0.0602  0.2651
 4555TIP3    H135224   0.821   4.292   6.958 -0.5387  0.5211  0.7675
 4555TIP3    H235225   0.700   4.205   6.933 -0.2700  0.0243  1.1825
 4556TIP3   OH235226   1.118   0.082   8.176  0.4170  0.0302  0.3976
 4556TIP3    H135227   1.076   0.088   8.262  0.7757  1.4408  0.4961
 4556TIP3    H235228   1.212   0.085   8.195  0.5674 -1.6420  0.0758
 4557TIP3   OH235229   0.277   6.060   7.842 -0.7508  0.1282 -0.2049
 4557TIP3    H135230   0.297   5.969   7.861 -1.1537  0.0599 -0.1097
 4557TIP3    H235231   0.307   6.108   7.920  0.6763  0.2439 -0.7859
 4558TIP3   OH235232   4.904   3.446   1.205 -0.0831  0.4073 -0.4198
 4558TIP3    H135233   4.927   3.539   1.211  0.4037  0.2017  1.1276
 4558TIP3    H235234   4.820   3.439   1.250  1.0295 -0.2654  1.6956
 4559TIP3   OH235235   0.160   5.929   7.489 -0.2941 -0.0672 -0.1521
 4559TIP3    H135236   0.150   6.006   7.432 -0.4867  1.1370  1.4423
 4559TIP3    H235237   0.085   5.874   7.468 -0.2337  0.2213 -1.2175
 4560TIP3   OH235238   4.989   3.268   6.937 -0.2669 -0.0583  0.0865
 4560TIP3    H135239   5.072   3.229   6.908  0.1900  0.3941  0.7661
 4560TIP3    H235240   4.939   3.281   6.856  0.3159 -0.3536 -0.3281
 4561TIP3   OH235241   6.845   4.033   8.257 -0.2704  0.1905  0.2938
 4561TIP3    H135242   6.783   4.009   8.326 -0.6317  0.3423  0.0219
 4561TIP3    H235243   6.861   4.127   8.271 -0.6788  0.3180 -0.0971
 4562TIP3   OH235244   6.321   2.707   2.318  0.2214  0.1299  0.2762
 4562TIP3    H135245   6.400   2.751   2.287  0.0278 -0.1243 -0.6010
 4562TIP3    H235246   6.278   2.771   2.375  0.7305  0.5012  0.2463
 4563TIP3   OH235247   1.572   1.105   6.891  0.5555  0.3480 -0.6016
 4563TIP3    H135248   1.606   1.180   6.842  2.7120 -0.6434 -0.7311
 4563TIP3    H235249   1.523   1.055   6.826 -2.4029  2.4022 -0.1532
 4564TIP3   OH235250   6.290   0.067   0.489 -0.3848  0.4460  0.5401
 4564TIP3    H135251   6.282   0.129   0.562 -0.4524  0.8373  0.2016
 4564TIP3    H235252   6.267   0.118   0.412  1.1978  0.4622  0.0524
 4565TIP3   OH235253   0.602   3.468   1.136 -0.7574 -0.3894 -0.4808
 4565TIP3    H135254   0.536   3.406   1.103 -0.5197 -0.3799 -0.9729
 4565TIP3    H235255   0.670   3.412   1.174 -1.4870 -0.3882  0.9163
 4566TIP3   OH235256   3.485   6.191   1.647 -0.2848  0.0194  0.9525
 4566TIP3    H135257   3.500   6.130   1.575  1.5195  2.1035 -0.5391
 4566TIP3    H235258   3.391   6.211   1.642 -0.0837  0.6652 -1.3354
 4567TIP3   OH235259   3.625   5.724   7.255 -0.9945  0.0477  0.3010
 4567TIP3    H135260   3.537   5.688   7.240 -1.0646  0.5831 -0.6497
 4567TIP3    H235261   3.618   5.817   7.234 -0.4031  0.2850  1.0878
 4568TIP3   OH235262   0.194   0.799   1.574  0.1469  0.0381  0.8564
 4568TIP3    H135263   0.208   0.893   1.560  0.3748  0.0958  1.4206
 4568TIP3    H235264   0.198   0.760   1.487  0.4380  0.5038  0.6600
 4569TIP3   OH235265   1.971   3.248   8.051 -0.5491 -0.2143  0.4898
 4569TIP3    H135266   1.891   3.203   8.025  0.5747 -3.0557  1.5448
 4569TIP3    H235267   1.987   3.220   8.141  0.8683  1.4574  0.8257
 4570TIP3   OH235268   5.679   1.222   1.943 -0.7652 -0.2312  0.1863
 4570TIP3    H135269   5.768   1.196   1.921 -0.8528  0.1939 -0.7289
 4570TIP3    H235270   5.652   1.161   2.011  0.0281 -0.7170  0.0736
 4571TIP3   OH235271   4.443   1.626   8.227 -0.4480  0.8342  0.5800
 4571TIP3    H135272   4.366   1.682   8.216 -0.7309  0.2575 -0.5232
 4571TIP3    H235273   4.515   1.677   8.191 -0.5432  0.8593  0.4252
 4572TIP3   OH235274   1.975   0.993   0.772  0.4027 -0.8120  0.2684
 4572TIP3    H135275   1.974   0.991   0.868  0.4526 -2.8591  0.2695
 4572TIP3    H235276   1.902   0.937   0.746  0.8239 -0.8500 -0.8828
 4573TIP3   OH235277   4.526   0.382   7.646  0.1905  0.6721 -0.6721
 4573TIP3    H135278   4.566   0.366   7.561  2.2201  2.1772 -0.0970
 4573TIP3    H235279   4.594   0.360   7.710 -0.8378  0.7773  0.5182
 4574TIP3   OH235280   4.893   0.231   1.112  0.1146 -0.3353 -0.1764
 4574TIP3    H135281   4.898   0.300   1.047 -0.3735 -2.5309 -2.7193
 4574TIP3    H235282   4.808   0.244   1.155  1.1967  2.1784  1.4093
 4575TIP3   OH235283   2.406   4.377   7.591  0.0603  0.2910 -0.2167
 4575TIP3    H135284   2.490   4.422   7.601  0.6650 -1.0940  1.5873
 4575TIP3    H235285   2.341   4.441   7.621  0.6129  0.8819 -0.2485
 4576TIP3   OH235286   1.177   6.645   0.542 -0.3692  0.7111  0.0996
 4576TIP3    H135287   1.143   6.556   0.544  0.3654  0.3745 -1.0755
 4576TIP3    H235288   1.272   6.634   0.537 -0.3266  1.4770 -1.9384
 4577TIP3   OH235289   5.766   5.428   0.954 -0.1302 -0.3513 -0.3239
 4577TIP3    H135290   5.760   5.390   1.042 -0.4258  0.7560  0.1610
 4577TIP3    H235291   5.675   5.436   0.925 -0.0747 -0.0922 -0.4376
 4578TIP3   OH235292   6.562   0.094   1.055  0.0905 -0.2566  0.8120
 4578TIP3    H135293   6.539   0.014   1.008  1.3176  0.4948 -1.1928
 4578TIP3    H235294   6.642   0.072   1.103  1.9544  0.3851 -1.8128
 4579TIP3   OH235295   5.856   6.867   0.563 -0.0809  0.2332 -0.0469
 4579TIP3    H135296   5.895   6.946   0.602 -0.2785  0.7587 -0.8952
 4579TIP3    H235297   5.763   6.886   0.559  0.1754  1.4644 -3.4752
 4580TIP3   OH235298   0.452   4.440   1.258  0.1608  0.4497  0.2258
 4580TIP3    H135299   0.400   4.453   1.337 -0.1619  1.5669 -0.1594
 4580TIP3    H235300   0.403   4.484   1.189  0.0063 -1.2283 -0.7860
 4581TIP3   OH235301   3.509   4.425   7.081 -0.6735 -0.2283  0.3328
 4581TIP3    H135302   3.470   4.338   7.068 -0.0604 -0.5359  0.4999
 4581TIP3    H235303   3.600   4.407   7.102 -0.1169  0.5126 -1.2615
 4582TIP3   OH235304   1.223   0.940   1.221 -0.1193 -0.1142 -0.2832
 4582TIP3    H135305   1.209   1.032   1.244 -1.2060 -0.3778  0.1811
 4582TIP3    H235306   1.237   0.897   1.305 -0.9827 -0.5907 -0.3791
 4583TIP3   OH235307   2.108   6.336   0.393 -0.1139  0.2977 -0.7851
 4583TIP3    H135308   2.129   6.249   0.426 -1.1872 -0.3001 -1.6040
 4583TIP3    H235309   2.188   6.366   0.350  0.1064 -0.5107 -0.9507
 4584TIP3   OH235310   3.363   5.536   1.434  0.8170  0.1821  0.4380
 4584TIP3    H135311   3.411   5.491   1.363  1.2567  0.9414  0.2377
 4584TIP3    H235312   3.357   5.472   1.504  1.3650 -0.2168  0.1241
 4585TIP3   OH235313   2.862   1.438   1.484 -0.2296 -0.1888 -0.1890
 4585TIP3    H135314   2.869   1.437   1.579  0.6608 -0.1348 -0.2482
 4585TIP3    H235315   2.768   1.430   1.467 -0.7120  2.3042  0.7479
 4586TIP3   OH235316   4.529   5.847   0.907  0.5944 -0.5580 -0.6380
 4586TIP3    H135317   4.572   5.766   0.934  0.2555  0.1984  2.5114
 4586TIP3    H235318   4.599   5.911   0.903  0.5498 -0.5326 -1.0673
 4587TIP3   OH235319   1.198   0.524   2.195 -0.1711  0.0278 -0.1091
 4587TIP3    H135320   1.277   0.470   2.199 -0.0709  0.0596 -1.2321
 4587TIP3    H235321   1.221   0.604   2.243  0.1846 -0.3102  0.2956
 4588TIP3   OH235322   4.333   5.720   7.222 -0.2918  0.0469  0.7267
 4588TIP3    H135323   4.388   5.657   7.175 -0.4013 -0.3191  1.0846
 4588TIP3    H235324   4.319   5.680   7.308  0.0949  0.8085  1.1576
 4589TIP3   OH235325   6.284   2.098   0.692  0.2454  0.1949  0.0896
 4589TIP3    H135326   6.351   2.158   0.725  0.7390 -0.6203  0.6185
 4589TIP3    H235327   6.315   2.073   0.605 -0.5695  1.6088 -0.6302
 4590TIP3   OH235328   5.304   0.998   6.924 -0.2352 -0.1534  0.1587
 4590TIP3    H135329   5.307   0.914   6.970 -0.9907  0.9061  2.2956
 4590TIP3    H235330   5.222   0.995   6.874 -1.6401  0.2269  2.2855
 4591TIP3   OH235331   3.483   1.252   7.285  0.1677 -0.0316 -0.3966
 4591TIP3    H135332   3.430   1.197   7.343  1.7373 -0.0415  1.1137
 4591TIP3    H235333   3.421   1.314   7.247 -1.0148 -0.4554  0.7790
 4592TIP3   OH235334   2.656   4.095   7.706  0.2507 -0.5779  0.3731
 4592TIP3    H135335   2.687   4.178   7.742  0.2597  0.6631 -2.2989
 4592TIP3    H235336   2.562   4.095   7.724  0.1974  0.1599  0.1168
 4593TIP3   OH235337   5.078   6.379   0.824 -0.1038 -0.6988 -0.4025
 4593TIP3    H135338   5.033   6.392   0.741  1.6060 -1.0045 -1.4332
 4593TIP3    H235339   5.121   6.462   0.842 -0.0750 -0.7833 -0.0622
 4594TIP3   OH235340   5.710   0.817   0.104 -0.1662  0.2872 -0.3703
 4594TIP3    H135341   5.736   0.745   0.047  0.8622  1.2243 -1.1251
 4594TIP3    H235342   5.706   0.778   0.191 -0.9439 -0.9706 -0.9451
 4595TIP3   OH235343   3.043   5.134   2.227 -0.4652 -0.4826  0.4568
 4595TIP3    H135344   3.054   5.160   2.318 -0.5559 -1.2127  0.6816
 4595TIP3    H235345   2.949   5.148   2.209  0.0736  2.7343 -0.5185
 4596TIP3   OH235346   3.648   0.856   7.810 -0.0037 -0.0537 -0.3627
 4596TIP3    H135347   3.584   0.921   7.839  0.3559  0.4267 -0.6124
 4596TIP3    H235348   3.705   0.905   7.750  1.1498 -0.2270  0.5537
 4597TIP3   OH235349   5.523   1.739   8.522 -0.3133  0.1112  0.6988
 4597TIP3    H135350   5.529   1.816   8.578 -1.3594  0.1729  0.7501
 4597TIP3    H235351   5.600   1.687   8.543  2.1570  2.5464 -1.5077
 4598TIP3   OH235352   5.994   5.968   0.062 -0.3286 -0.0534 -0.4847
 4598TIP3    H135353   5.999   5.913  -0.016  0.3341 -0.8555  0.0987
 4598TIP3    H235354   6.072   6.024   0.057 -0.2772 -0.1164 -0.3839
 4599TIP3   OH235355   2.367   2.458   0.167  0.2476  0.4299  0.0779
 4599TIP3    H135356   2.397   2.400   0.096  1.4663 -0.6490  1.4154
 4599TIP3    H235357   2.307   2.404   0.218 -0.1153  0.9837  0.2315
 4600TIP3   OH235358   3.966   5.478   6.790  0.5865 -0.5205 -0.4640
 4600TIP3    H135359   4.035   5.467   6.725  0.8203 -0.6728 -0.1917
 4600TIP3    H235360   3.963   5.572   6.807 -0.1713 -0.3538 -1.4442
 4601TIP3   OH235361   2.381   3.228   0.530 -0.5489 -0.5322  0.4658
 4601TIP3    H135362   2.403   3.251   0.621  0.8303  1.0494 -0.2112
 4601TIP3    H235363   2.382   3.312   0.484 -3.5771 -0.9690 -0.6098
 4602TIP3   OH235364   5.558   5.207   0.577  0.1302 -0.5399  0.0662
 4602TIP3    H135365   5.595   5.293   0.597 -0.6492 -0.5253  1.5864
 4602TIP3    H235366   5.624   5.165   0.523  0.7029  0.8615 -0.3765
 4603TIP3   OH235367   4.778   5.817   0.602 -0.3599 -0.4854  0.4390
 4603TIP3    H135368   4.872   5.813   0.616 -0.5234 -1.1032  1.3965
 4603TIP3    H235369   4.746   5.881   0.666 -0.6223 -0.4336  0.2617
 4604TIP3   OH235370   2.214   1.576   0.434  0.3454 -0.1281  0.0712
 4604TIP3    H135371   2.123   1.550   0.418  1.0191 -2.1587 -0.7533
 4604TIP3    H235372   2.231   1.644   0.368 -0.7265  0.6890  0.6104
 4605TIP3   OH235373   5.297   0.958   1.247 -0.1496 -0.0636  0.4743
 4605TIP3    H135374   5.228   0.997   1.300  0.3288 -0.6095  1.5155
 4605TIP3    H235375   5.302   1.014   1.169 -1.2560  0.4034  0.7219
 4606TIP3   OH235376   2.380   3.643   0.880 -0.1752  0.2531 -0.1363
 4606TIP3    H135377   2.302   3.613   0.926  0.7110  0.7555  1.7861
 4606TIP3    H235378   2.442   3.666   0.949  1.1532  1.2857 -1.5897
 4607TIP3   OH235379   4.747   0.651   1.805 -0.3765 -0.3349  0.1699
 4607TIP3    H135380   4.771   0.604   1.726  1.9302  0.4509  0.3415
 4607TIP3    H235381   4.826   0.700   1.830 -1.1423 -0.2186  2.7046
 4608TIP3   OH235382   6.229   1.651   8.354 -0.5801  0.0956  0.0279
 4608TIP3    H135383   6.160   1.602   8.399 -0.8182  0.5804  0.2028
 4608TIP3    H235384   6.182   1.707   8.293 -0.4633  1.4333  1.0984
 4609TIP3   OH235385   1.287   1.541   0.023  0.1763  0.0752  0.1493
 4609TIP3    H135386   1.322   1.559   0.110 -0.2148 -2.6834  0.9644
 4609TIP3    H235387   1.343   1.593  -0.036  1.0887  1.2215  1.9163
 4610TIP3   OH235388   6.654   4.551   7.542 -0.4282 -0.1122 -0.4263
 4610TIP3    H135389   6.668   4.641   7.569 -1.0867 -0.1749  0.1413
 4610TIP3    H235390   6.737   4.524   7.503 -0.1843  0.6881 -0.4670
 4611TIP3   OH235391   0.615   3.898   0.976  0.5929 -0.1445  0.2156
 4611TIP3    H135392   0.580   3.985   0.997 -0.5365 -0.2443 -1.0675
 4611TIP3    H235393   0.681   3.915   0.908  2.4439 -0.0511  1.9622
 4612TIP3   OH235394   3.990   4.094   8.427 -0.2019 -0.1324 -0.4714
 4612TIP3    H135395   3.926   4.060   8.365 -0.0482 -1.0852 -0.1221
 4612TIP3    H235396   4.058   4.132   8.373 -1.5929  1.9743 -0.8468
 4613TIP3   OH235397   0.369   5.908   6.538 -0.6458  0.4224 -0.2227
 4613TIP3    H135398   0.432   5.944   6.475  0.0961  0.0006  0.2480
 4613TIP3    H235399   0.420   5.841   6.586 -1.2147  0.6599  0.7424
 4614TIP3   OH235400   4.063   1.054   7.806 -0.2005 -0.1121 -0.2841
 4614TIP3    H135401   4.047   0.963   7.830  1.0903 -0.6602 -1.3865
 4614TIP3    H235402   3.994   1.103   7.852 -0.2220 -1.4885  1.2490
 4615TIP3   OH235403   3.849   2.754   6.493 -0.6569 -0.3301 -0.0639
 4615TIP3    H135404   3.802   2.688   6.545  0.1138 -1.8748 -1.2394
 4615TIP3    H235405   3.801   2.757   6.410 -1.0806  1.1180  0.2120
 4616TIP3   OH235406   0.139   6.249   0.006 -1.1163 -0.3082 -0.1689
 4616TIP3    H135407   0.143   6.266   0.100 -1.1315  0.3339 -0.2794
 4616TIP3    H235408   0.045   6.244  -0.014 -1.1163 -0.3027 -0.1706
 4617TIP3   OH235409   5.908   6.928   1.173 -0.1344 -0.0806  0.1622
 4617TIP3    H135410   5.920   6.946   1.080  0.0551 -0.2561  0.1530
 4617TIP3    H235411   5.943   7.005   1.218 -1.2049  0.4879  0.0555
 4618TIP3   OH235412   3.885   1.414   0.731  0.1039  0.3023 -0.2060
 4618TIP3    H135413   3.951   1.358   0.691 -0.9961 -0.6091 -0.8332
 4618TIP3    H235414   3.920   1.434   0.818  0.4172 -1.6484  0.1797
 4619TIP3   OH235415   2.745   0.331   7.845  0.2486 -0.3834 -0.6381
 4619TIP3    H135416   2.810   0.399   7.863 -2.5390  1.9279  1.7452
 4619TIP3    H235417   2.764   0.262   7.908  1.6562 -0.7499 -1.4406
 4620TIP3   OH235418   1.070   3.333   0.002 -0.3853  0.3813 -0.1725
 4620TIP3    H135419   1.150   3.348   0.053 -1.6002  1.5682  1.4905
 4620TIP3    H235420   1.050   3.417  -0.038 -1.5191  0.4576  0.5195
 4621TIP3   OH235421   4.974   1.251   1.634  0.5510  0.1362 -0.2671
 4621TIP3    H135422   4.908   1.221   1.572  2.0540 -0.9928 -1.4014
 4621TIP3    H235423   5.018   1.324   1.589 -0.1736  1.1853  0.6623
 4622TIP3   OH235424   5.499   3.228   7.466  0.3794 -0.3047 -0.2282
 4622TIP3    H135425   5.470   3.161   7.529 -0.1205 -1.6068 -1.7620
 4622TIP3    H235426   5.448   3.305   7.488  1.3156 -0.2198  1.9082
 4623TIP3   OH235427   0.826   6.631   0.178  0.2232  0.2378  0.1108
 4623TIP3    H135428   0.900   6.596   0.227  1.1385  0.8097 -0.8222
 4623TIP3    H235429   0.835   6.726   0.185 -0.3025  0.3136 -0.1913
 4624TIP3   OH235430   6.804   5.587   8.339 -0.0952  0.2321 -0.1547
 4624TIP3    H135431   6.713   5.610   8.357 -0.1820 -0.3449  0.1841
 4624TIP3    H235432   6.802   5.493   8.323  0.5689  0.0459  0.7730
 4625TIP3   OH235433   2.939   2.981   1.869  0.9163  0.2026  0.2053
 4625TIP3    H135434   2.853   2.981   1.912  0.0082  0.0548 -1.5244
 4625TIP3    H235435   2.960   3.074   1.859  0.9411  0.2399  0.5800
 4626TIP3   OH235436   2.945   3.451   7.092  0.2140 -0.4096  0.2152
 4626TIP3    H135437   2.882   3.398   7.141 -1.9807  0.1075 -1.8437
 4626TIP3    H235438   2.905   3.537   7.087  0.6981 -0.2429 -1.7689
 4627TIP3   OH235439   5.796   0.285   0.242 -0.5634 -0.1487  0.1495
 4627TIP3    H135440   5.735   0.294   0.316  2.3252  1.5447  2.5328
 4627TIP3    H235441   5.772   0.356   0.183 -1.8965 -0.5070  0.2295
 4628TIP3   OH235442   6.221   3.696   2.046  0.0269  0.2066  0.1555
 4628TIP3    H135443   6.313   3.724   2.054 -0.2692  1.1531  0.3282
 4628TIP3    H235444   6.222   3.604   2.072  0.8758  0.2946  0.4677
 4629TIP3   OH235445   2.756   3.036   2.103 -0.1293 -0.1148  0.0650
 4629TIP3    H135446   2.789   3.064   2.189  1.4009 -0.8099 -0.2636
 4629TIP3    H235447   2.691   2.968   2.124 -0.0385 -0.0198  0.6816
 4630TIP3   OH235448   3.100   6.666   7.767 -0.1563 -0.4498  0.2570
 4630TIP3    H135449   3.116   6.632   7.854  1.1088  2.5600  1.3478
 4630TIP3    H235450   3.179   6.716   7.745 -1.1093  0.2521 -1.8888
 4631TIP3   OH235451   4.459   3.596   8.313 -0.0583  0.3358  0.0876
 4631TIP3    H135452   4.523   3.651   8.268  0.0453  0.6291  0.5841
 4631TIP3    H235453   4.429   3.650   8.386 -0.8296  0.1811 -0.1093
 4632TIP3   OH235454   1.484   1.889   0.277  0.1777  0.4540 -0.4664
 4632TIP3    H135455   1.533   1.965   0.246 -1.3463  2.0968  0.8950
 4632TIP3    H235456   1.461   1.911   0.367 -0.1452 -1.7523  0.0471
 4633TIP3   OH235457   2.295   3.682   8.375  0.5890  0.1632  0.6189
 4633TIP3    H135458   2.299   3.639   8.461  0.0983 -0.4960  0.3219
 4633TIP3    H235459   2.385   3.682   8.345  0.9725  1.5655  1.6875
 4634TIP3   OH235460   2.103   3.378   0.706  0.1418  0.1836 -0.3463
 4634TIP3    H135461   2.181   3.348   0.753  0.1246  0.7451  0.0577
 4634TIP3    H235462   2.039   3.396   0.776 -0.1864  0.1786 -0.6442
 4635TIP3   OH235463   5.315   5.593   1.682 -0.1687 -0.1143 -0.6299
 4635TIP3    H135464   5.369   5.529   1.729 -1.6005  0.2545  1.7074
 4635TIP3    H235465   5.308   5.559   1.594  1.1445 -1.8720 -0.1148
 4636TIP3   OH235466   5.422   4.618   0.388 -0.3099 -0.0421 -0.1759
 4636TIP3    H135467   5.384   4.706   0.385 -1.0587 -0.3925 -1.0188
 4636TIP3    H235468   5.350   4.559   0.368  0.4751 -0.7717 -0.9359
 4637TIP3   OH235469   3.342   4.782   7.315  0.2884  0.7305  0.2065
 4637TIP3    H135470   3.301   4.858   7.357 -0.7541  0.8164 -0.9106
 4637TIP3    H235471   3.328   4.796   7.221 -0.6872 -1.2338  0.0106
 4638TIP3   OH235472   6.094   5.876   7.288 -0.1894  0.2070  0.2849
 4638TIP3    H135473   6.089   5.886   7.193  1.9985 -0.6990  0.0253
 4638TIP3    H235474   6.126   5.787   7.302  1.0574  0.8317  1.7860
 4639TIP3   OH235475   5.202   6.771   7.008  0.0933  0.2403  0.3756
 4639TIP3    H135476   5.187   6.848   7.064 -1.7269 -0.3690  0.7695
 4639TIP3    H235477   5.134   6.709   7.033  1.4010 -1.4540 -0.0788
 4640TIP3   OH235478   6.470   0.465   0.392  0.3386  0.5699  0.4057
 4640TIP3    H135479   6.445   0.539   0.336 -0.4216 -0.0555 -0.0991
 4640TIP3    H235480   6.389   0.441   0.438 -0.0186 -1.3868 -1.1369
 4641TIP3   OH235481   5.887   4.192   8.411  0.0631 -0.2717  0.1370
 4641TIP3    H135482   5.927   4.171   8.495 -0.2701  0.7551  0.5680
 4641TIP3    H235483   5.814   4.250   8.433 -0.3466 -0.4119 -0.8147
 4642TIP3   OH235484   0.916   3.792   7.848  0.2425 -0.3426 -0.6414
 4642TIP3    H135485   1.004   3.829   7.857  0.6019 -1.1233 -0.8450
 4642TIP3    H235486   0.878   3.837   7.772 -0.4686  1.7537  0.8599
 4643TIP3   OH235487   4.381   6.192   0.574  0.4797 -0.3823  0.0071
 4643TIP3    H135488   4.352   6.202   0.483  1.3992 -1.6414 -0.4672
 4643TIP3    H235489   4.352   6.104   0.599 -1.1224  0.5116  1.5048
 4644TIP3   OH235490   1.273   3.421   0.917 -0.3799  0.1741 -0.5182
 4644TIP3    H135491   1.285   3.326   0.919 -3.3821 -0.3150 -1.3477
 4644TIP3    H235492   1.227   3.440   0.999  0.7881  1.0571 -0.0442
 4645TIP3   OH235493   6.248   3.896   8.195  0.2557 -0.2282  0.2245
 4645TIP3    H135494   6.175   3.948   8.226  1.0044  0.4093  0.9588
 4645TIP3    H235495   6.213   3.807   8.189 -0.3202 -0.1241  1.5542
 4646TIP3   OH235496   3.592   1.252   0.269  0.5049 -0.0672 -0.2180
 4646TIP3    H135497   3.616   1.307   0.194  1.5917  1.2575  1.0500
 4646TIP3    H235498   3.514   1.294   0.305 -0.8378 -1.4782 -1.3458
 4647TIP3   OH235499   6.454   0.271   8.018 -0.0018 -0.6104  0.4660
 4647TIP3    H135500   6.496   0.343   7.972  0.2811  0.2874  2.0493
 4647TIP3    H235501   6.429   0.209   7.949  2.0577 -0.2127 -0.7082
 4648TIP3   OH235502   0.511   2.789   8.102 -0.2602  0.6346 -0.4950
 4648TIP3    H135503   0.592   2.791   8.152 -1.5325  0.2179  1.7111
 4648TIP3    H235504   0.518   2.712   8.047  0.6329  0.3089  0.0617
 4649TIP3   OH235505   5.583   5.394   1.369  0.1662  0.3759 -0.1389
 4649TIP3    H135506   5.508   5.413   1.313  0.1444  0.6748 -0.0146
 4649TIP3    H235507   5.545   5.365   1.452  0.1957 -2.2269 -0.9487
 4650TIP3   OH235508   1.244   0.628   1.167  0.0385 -0.1776 -1.0618
 4650TIP3    H135509   1.333   0.593   1.166  0.0266 -0.5170  2.0219
 4650TIP3    H235510   1.251   0.710   1.217 -1.3077  0.0705 -1.2414
 4651TIP3   OH235511   2.180   1.527   7.907 -0.0585  0.3110 -0.3828
 4651TIP3    H135512   2.177   1.436   7.938 -0.7195  1.2370  2.6045
 4651TIP3    H235513   2.246   1.569   7.962  0.5794  1.5603 -2.0341
 4652TIP3   OH235514   2.184   5.792   2.345 -0.4867  0.2306 -0.0981
 4652TIP3    H135515   2.184   5.775   2.439 -0.3733 -0.5578 -0.2279
 4652TIP3    H235516   2.156   5.883   2.336 -0.1678  0.4174  0.7147
 4653TIP3   OH235517   5.870   1.094   6.536  0.2297 -0.4169 -0.2021
 4653TIP3    H135518   5.900   1.135   6.455  1.5950  0.5720  0.7530
 4653TIP3    H235519   5.867   1.165   6.599  0.3125 -1.3597  0.9000
 4654TIP3   OH235520   3.039   3.323   6.854 -0.4005 -0.1661  0.1882
 4654TIP3    H135521   3.015   3.353   6.942  1.9620  2.4072  0.0739
 4654TIP3    H235522   3.134   3.315   6.856 -0.3927 -1.3853 -1.8095
 4655TIP3   OH235523   5.718   3.139   0.172 -0.4722  0.1612 -0.0025
 4655TIP3    H135524   5.666   3.108   0.098  1.4525  1.3223 -1.9720
 4655TIP3    H235525   5.775   3.066   0.194 -1.4172 -0.3760  0.7586
 4656TIP3   OH235526   3.822   1.537   1.391  0.1817  0.1154 -0.0078
 4656TIP3    H135527   3.794   1.587   1.314  0.1342 -0.7155 -0.5580
 4656TIP3    H235528   3.876   1.467   1.354  0.3243 -0.1731  0.7437
 4657TIP3   OH235529   4.380   4.876   7.029 -0.4021 -0.4334  0.0424
 4657TIP3    H135530   4.308   4.850   6.972 -1.6879  1.9598  0.4612
 4657TIP3    H235531   4.430   4.939   6.978 -0.6788  0.5786  0.9839
 4658TIP3   OH235532   5.744   4.125   1.835  0.1157  0.5341  0.3738
 4658TIP3    H135533   5.792   4.208   1.829  0.2092  0.4855  0.4428
 4658TIP3    H235534   5.810   4.058   1.818  0.3109  0.4091  1.5156
 4659TIP3   OH235535   0.291   0.765   0.949 -0.3223  0.6242  0.6311
 4659TIP3    H135536   0.325   0.710   1.020 -0.8176 -2.1983 -1.1587
 4659TIP3    H235537   0.348   0.842   0.949  2.7815 -1.4904  1.0871
 4660TIP3   OH235538   5.709   1.366   6.872 -0.0847 -0.2611  0.2621
 4660TIP3    H135539   5.740   1.347   6.783 -0.2357 -2.3296  0.6075
 4660TIP3    H235540   5.686   1.281   6.908 -1.9925  0.7435  1.5876
 4661TIP3   OH235541   6.941   4.735   8.279 -0.0985 -0.4682  0.8181
 4661TIP3    H135542   6.982   4.669   8.223 -1.9332 -0.0607 -1.1437
 4661TIP3    H235543   6.890   4.684   8.343  0.6443 -0.9272  1.0614
 4662TIP3   OH235544   1.444   1.580   8.318  0.1801 -0.2352 -0.6939
 4662TIP3    H135545   1.473   1.583   8.227 -3.4951 -0.1608 -2.0654
 4662TIP3    H235546   1.463   1.492   8.347 -1.5448 -1.4140 -2.8085
 4663TIP3   OH235547   6.590   3.927   7.415 -0.5096  0.7178 -0.3558
 4663TIP3    H135548   6.520   3.949   7.354  0.5880  1.2003 -1.4729
 4663TIP3    H235549   6.577   3.987   7.489 -2.0851 -0.1417  0.1179
 4664TIP3   OH235550   2.065   3.569   7.993 -0.2108 -0.1143 -0.6704
 4664TIP3    H135551   2.150   3.560   8.037  0.2447  1.2798 -1.1882
 4664TIP3    H235552   2.033   3.480   7.984  1.7559 -0.7920 -1.5174
 4665TIP3   OH235553   6.936   2.099   1.864 -0.0326 -0.3122 -0.5722
 4665TIP3    H135554   6.989   2.178   1.877  0.0323 -0.2398 -1.2333
 4665TIP3    H235555   6.893   2.085   1.948  2.5546 -1.5357  0.6757
 4666TIP3   OH235556   6.498   2.123   7.816 -0.1818  0.4548  0.4244
 4666TIP3    H135557   6.426   2.144   7.876 -0.2450 -0.7865  0.8158
 4666TIP3    H235558   6.456   2.073   7.746  0.2556 -0.1472  0.5782
 4667TIP3   OH235559   6.327   2.661   8.106  0.4589  0.0827 -0.1943
 4667TIP3    H135560   6.270   2.593   8.071  0.6236  0.7077 -1.7468
 4667TIP3    H235561   6.339   2.723   8.034  0.5115  1.6401  1.0802
 4668TIP3   OH235562   5.168   5.307   2.229  0.2643  0.3269 -0.0852
 4668TIP3    H135563   5.091   5.294   2.173  0.0845  1.1339 -0.0381
 4668TIP3    H235564   5.132   5.328   2.315  0.5412 -0.7763  0.3107
 4669TIP3   OH235565   5.166   2.291   7.274  0.2633  0.2491 -0.4396
 4669TIP3    H135566   5.239   2.270   7.332 -0.2187 -0.5877 -0.0978
 4669TIP3    H235567   5.127   2.205   7.254 -1.2712  0.7415  0.2789
 4670TIP3   OH235568   4.526   5.389   0.999 -0.0697  0.1291  0.3746
 4670TIP3    H135569   4.562   5.303   0.978 -2.2135 -0.4058 -1.4369
 4670TIP3    H235570   4.431   5.376   1.001 -0.3727  2.0673  2.0087
 4671TIP3   OH235571   1.733   5.710   7.246 -0.2385  0.0909  0.3651
 4671TIP3    H135572   1.726   5.616   7.260 -0.1286 -0.3897 -2.2720
 4671TIP3    H235573   1.675   5.748   7.312 -0.9603 -1.8688  0.9387
 4672TIP3   OH235574   1.455   3.429   0.566  0.1618 -0.1268 -0.4210
 4672TIP3    H135575   1.404   3.355   0.534  0.6450  0.2691 -2.2528
 4672TIP3    H235576   1.408   3.507   0.533  1.5995  0.2497 -1.6938
 4673TIP3   OH235577   0.228   5.556   1.369  0.1062 -0.4118 -0.3079
 4673TIP3    H135578   0.267   5.642   1.355  0.7636 -0.0306  3.0077
 4673TIP3    H235579   0.299   5.495   1.349 -0.0463 -0.1891 -1.6569
 4674TIP3   OH235580   4.796   3.921   2.574  0.3532  0.1800 -0.1755
 4674TIP3    H135581   4.758   4.001   2.537  1.9592  1.0595 -0.0344
 4674TIP3    H235582   4.770   3.852   2.514  0.0398  1.0278 -1.0408
 4675TIP3   OH235583   6.177   2.548   0.139 -0.1645  0.1878 -0.5343
 4675TIP3    H135584   6.248   2.525   0.198 -0.9709 -1.0324  0.0089
 4675TIP3    H235585   6.178   2.480   0.072 -1.8073 -0.8388  0.3944
 4676TIP3   OH235586   2.346   2.441   1.299  0.0973 -0.4514 -0.6718
 4676TIP3    H135587   2.359   2.532   1.324 -0.5296 -0.6607  0.4946
 4676TIP3    H235588   2.401   2.392   1.361 -1.2749 -0.9676  0.1919
 4677TIP3   OH235589   4.088   5.922   1.130  0.2505  0.2620 -0.6443
 4677TIP3    H135590   4.134   5.928   1.046  1.0096 -0.3560 -0.2771
 4677TIP3    H235591   4.156   5.927   1.196 -0.4189  1.5506 -0.0203
 4678TIP3   OH235592   4.418   2.587   1.407  0.4126 -0.1053  0.3174
 4678TIP3    H135593   4.430   2.635   1.325 -0.6388 -0.0497  0.1850
 4678TIP3    H235594   4.402   2.497   1.380  0.1277 -0.0984  0.4568
 4679TIP3   OH235595   4.869   3.960   8.353 -0.4817  0.6156  0.8077
 4679TIP3    H135596   4.957   3.936   8.323 -0.8134  0.8827 -0.4424
 4679TIP3    H235597   4.839   3.883   8.402 -0.6610 -0.6980 -1.2334
 4680TIP3   OH235598   1.328   1.319   0.539 -0.1791 -0.2675 -0.4637
 4680TIP3    H135599   1.396   1.273   0.489 -2.1973 -3.4788 -0.4845
 4680TIP3    H235600   1.367   1.333   0.625  1.2243 -0.0721 -1.0963
 4681TIP3   OH235601   5.872   4.588   0.874  0.0897  0.0245 -0.0829
 4681TIP3    H135602   5.852   4.656   0.938  0.0223 -0.0767  0.0047
 4681TIP3    H235603   5.954   4.616   0.834 -1.1414  1.4412 -1.8015
 4682TIP3   OH235604   3.860   1.406   1.671  0.2059 -0.5172  0.0544
 4682TIP3    H135605   3.875   1.443   1.584  0.2267  0.5403  0.4931
 4682TIP3    H235606   3.917   1.457   1.729 -1.2172  0.1043  0.9794
 4683TIP3   OH235607   3.556   4.127   8.514 -0.4127  0.8395  0.3459
 4683TIP3    H135608   3.571   4.116   8.420  1.2224  2.0409  0.4271
 4683TIP3    H235609   3.641   4.110   8.555 -1.1614  0.0421  1.6602
 4684TIP3   OH235610   5.688   2.872   0.014  0.5647  0.5328 -0.6017
 4684TIP3    H135611   5.654   2.783   0.024  1.2859  0.3215  0.0934
 4684TIP3    H235612   5.764   2.862  -0.042  1.4248  0.5049  0.5442
 4685TIP3   OH235613   2.737   6.242   8.081 -0.0196  0.1132  0.0837
 4685TIP3    H135614   2.829   6.242   8.108 -0.1611  0.0283  0.5780
 4685TIP3    H235615   2.702   6.159   8.115 -0.7802  1.0432  1.6940
 4686TIP3   OH235616   6.725   5.321   1.235  0.2942 -0.1902 -0.7059
 4686TIP3    H135617   6.634   5.292   1.242  1.0715 -2.7115 -0.1235
 4686TIP3    H235618   6.755   5.331   1.325  0.2079  2.1370 -0.8863
 4687TIP3   OH235619   5.492   3.224   7.947 -0.1702 -0.3369 -0.1736
 4687TIP3    H135620   5.517   3.206   8.038  0.6229  0.9315 -0.1151
 4687TIP3    H235621   5.400   3.251   7.953  0.5485  2.2724  0.6657
 4688TIP3   OH235622   1.408   2.849   1.392  0.3170 -0.4254  0.7654
 4688TIP3    H135623   1.382   2.763   1.359  1.1384  0.3833 -2.3461
 4688TIP3    H235624   1.486   2.872   1.341  2.1783  0.8000  3.8586
 4689TIP3   OH235625   0.898   6.768   7.204 -0.0959 -0.5505 -0.3318
 4689TIP3    H135626   0.834   6.831   7.170 -0.3113 -0.4118  0.3158
 4689TIP3    H235627   0.916   6.711   7.129  0.2974  0.4191 -1.0037
 4690TIP3   OH235628   1.667   3.764   7.057 -0.3522 -1.0874 -0.3047
 4690TIP3    H135629   1.581   3.723   7.043 -0.8048 -0.0100 -0.8111
 4690TIP3    H235630   1.693   3.795   6.970  0.1506 -0.6655 -0.0071
 4691TIP3   OH235631   4.096   0.211   0.357  0.2917 -0.3933 -0.0214
 4691TIP3    H135632   4.134   0.125   0.337  2.3156 -0.0477  1.9636
 4691TIP3    H235633   4.064   0.202   0.446 -2.4586  0.0365 -0.8680
 4692TIP3   OH235634   5.363   0.414   8.464 -0.0126 -0.1008 -0.1354
 4692TIP3    H135635   5.289   0.395   8.522  0.4800 -3.1388 -0.3384
 4692TIP3    H235636   5.330   0.390   8.377  1.0951 -1.3571 -0.2431
 4693TIP3   OH235637   5.408   2.932   1.827 -0.2451 -0.0372  0.3895
 4693TIP3    H135638   5.456   2.888   1.756 -1.7901  0.7510 -1.2238
 4693TIP3    H235639   5.338   2.871   1.850 -1.1870  0.6970 -0.4605
 4694TIP3   OH235640   0.812   3.061   7.615 -0.0125  0.6047  0.0401
 4694TIP3    H135641   0.789   3.135   7.671 -0.6318 -1.6978  3.1094
 4694TIP3    H235642   0.731   3.038   7.570  0.0803  1.5124 -0.6015
 4695TIP3   OH235643   6.005   0.355   0.889  0.4679  0.3566 -0.3841
 4695TIP3    H135644   6.043   0.338   0.975 -0.3908  0.8186  0.1026
 4695TIP3    H235645   6.046   0.436   0.859 -0.4211  1.0943  0.3339
 4696TIP3   OH235646   3.254   3.212   1.359 -0.1968  0.3585  0.3651
 4696TIP3    H135647   3.192   3.248   1.422  1.3685  1.4858  1.3321
 4696TIP3    H235648   3.219   3.126   1.338 -2.5971  1.2978  0.0969
 4697TIP3   OH235649   3.483   0.934   7.165 -0.5421 -0.1456  1.0918
 4697TIP3    H135650   3.573   0.903   7.160  0.1360  1.8474 -2.3736
 4697TIP3    H235651   3.436   0.881   7.100 -1.5192 -0.1589  1.7936
 4698TIP3   OH235652   1.488   2.290   0.025  0.2938 -0.3287  0.7788
 4698TIP3    H135653   1.421   2.264   0.088  1.4042 -1.6820  1.4640
 4698TIP3    H235654   1.462   2.249  -0.057  0.2056 -0.7330  1.0088
 4699TIP3   OH235655   6.290   1.325   0.249 -0.6479  0.5974 -0.2674
 4699TIP3    H135656   6.263   1.261   0.183 -0.3522  1.3306 -1.1274
 4699TIP3    H235657   6.382   1.305   0.267 -0.8690  0.0763  0.3161
 4700TIP3   OH235658   3.143   0.510   8.441  0.4595  0.4372  0.2887
 4700TIP3    H135659   3.195   0.578   8.484 -0.7117  1.3796  0.2700
 4700TIP3    H235660   3.168   0.429   8.485  2.1648  0.7990  0.0504
 4701TIP3   OH235661   2.264   6.517   1.460 -0.3670 -0.3921 -0.5579
 4701TIP3    H135662   2.272   6.612   1.447  0.0685 -0.5882 -1.9705
 4701TIP3    H235663   2.269   6.504   1.554  0.8911  0.8812 -0.4230
 4702TIP3   OH235664   5.509   0.779   8.184  0.6211  0.0902 -0.7431
 4702TIP3    H135665   5.585   0.742   8.227  0.8400 -0.3618 -1.5148
 4702TIP3    H235666   5.486   0.856   8.238  2.3492  0.9583 -1.1919
 4703TIP3   OH235667   6.140   2.018   1.586 -0.8245 -0.0394 -0.1039
 4703TIP3    H135668   6.098   2.094   1.627 -1.3498 -0.7340  0.6907
 4703TIP3    H235669   6.232   2.043   1.577 -0.7427  0.2498  1.2917
 4704TIP3   OH235670   5.379   0.674   7.966 -0.4238 -0.6859  0.3318
 4704TIP3    H135671   5.317   0.740   7.933  0.2920  1.2099  2.4886
 4704TIP3    H235672   5.414   0.713   8.046  1.8212 -2.7345  0.4425
 4705TIP3   OH235673   0.165   6.376   0.962  0.4179 -0.2737 -0.4351
 4705TIP3    H135674   0.106   6.447   0.936  0.1257 -0.5394 -0.4966
 4705TIP3    H235675   0.114   6.324   1.024  0.1663 -1.1731 -1.3651
 4706TIP3   OH235676   5.436   4.777   1.120 -0.1125  1.0687  0.0251
 4706TIP3    H135677   5.480   4.860   1.101 -0.1530  0.9265 -0.7306
 4706TIP3    H235678   5.504   4.711   1.109  0.1902  1.0688  1.6627
 4707TIP3   OH235679   0.695   1.753   7.376 -0.1157 -0.4542 -0.1013
 4707TIP3    H135680   0.601   1.738   7.390 -0.5520  0.9006 -1.3108
 4707TIP3    H235681   0.722   1.809   7.449  0.0086 -1.6823  0.8135
 4708TIP3   OH235682   2.229   2.557   8.293 -0.1949  0.6582 -0.1225
 4708TIP3    H135683   2.152   2.523   8.247 -0.1026  1.2257 -0.7113
 4708TIP3    H235684   2.197   2.580   8.380 -0.9072  1.6972 -0.6334
 4709TIP3   OH235685   4.172   0.324   8.406  0.5056  0.0230  0.0679
 4709TIP3    H135686   4.100   0.281   8.453  1.6275 -2.5704 -0.4314
 4709TIP3    H235687   4.153   0.308   8.314 -0.2783  2.7764 -0.3172
 4710TIP3   OH235688   0.635   3.793   0.355 -0.4226  0.0341 -0.3942
 4710TIP3    H135689   0.614   3.812   0.263 -0.0161 -0.9873 -0.7069
 4710TIP3    H235690   0.688   3.713   0.352 -0.4504 -0.0429  0.7377
 4711TIP3   OH235691   4.339   2.390   2.124 -0.3480  0.2550 -0.1839
 4711TIP3    H135692   4.345   2.485   2.116 -0.3618  0.1769 -1.1854
 4711TIP3    H235693   4.245   2.371   2.128 -0.3879  0.1836 -1.3412
 4712TIP3   OH235694   3.821   4.743   1.482  0.0195 -0.1489  0.2707
 4712TIP3    H135695   3.835   4.754   1.388 -2.2485  2.2709  0.0827
 4712TIP3    H235696   3.773   4.660   1.489 -0.0253 -0.2259 -0.7253
 4713TIP3   OH235697   0.938   2.599   0.651  0.1530  0.0077 -0.0173
 4713TIP3    H135698   0.964   2.654   0.577  0.9993 -0.8849 -0.4049
 4713TIP3    H235699   0.855   2.637   0.681  0.8857  1.6991 -0.0277
 4714TIP3   OH235700   4.700   5.130   1.016  0.3370 -0.3783  0.4138
 4714TIP3    H135701   4.651   5.132   1.098 -1.0692 -0.1534 -0.3901
 4714TIP3    H235702   4.789   5.106   1.041  0.3117  1.1885  2.1634
 4715TIP3   OH235703   4.180   1.826   7.899 -0.2717  0.1486 -0.8810
 4715TIP3    H135704   4.119   1.798   7.968 -0.0284  3.9252  1.1383
 4715TIP3    H235705   4.127   1.828   7.820 -1.3910 -1.4617 -0.2285
 4716TIP3   OH235706   3.775   0.875   1.901  0.1452 -0.4145 -0.7895
 4716TIP3    H135707   3.798   0.937   1.833 -0.2573 -0.5126 -1.0186
 4716TIP3    H235708   3.854   0.867   1.955 -0.3693  1.7426  0.3908
 4717TIP3   OH235709   2.309   3.528   7.803  0.1993 -0.2705 -0.5427
 4717TIP3    H135710   2.350   3.472   7.868 -1.2714 -0.6348  0.1209
 4717TIP3    H235711   2.287   3.470   7.731 -0.4797 -0.3811 -0.2545
 4718TIP3   OH235712   0.037   1.495   1.035  0.5176  0.1584  0.4363
 4718TIP3    H135713   0.039   1.566   1.099 -0.4305 -0.8041  1.5711
 4718TIP3    H235714  -0.022   1.526   0.966 -1.9173 -0.4528  2.1340
 4719TIP3   OH235715   3.100   1.270   2.000 -0.3259 -0.3540 -0.2072
 4719TIP3    H135716   3.135   1.342   2.053 -1.5282 -1.3756  2.1114
 4719TIP3    H235717   3.162   1.262   1.927  1.4201  1.1493  1.0198
 4720TIP3   OH235718   3.541   3.196   6.485 -0.1720 -0.1514 -0.1957
 4720TIP3    H135719   3.563   3.103   6.472 -0.9642 -1.0745  3.7638
 4720TIP3    H235720   3.626   3.241   6.483  0.5972 -1.4720  0.8574
 4721TIP3   OH235721   4.301   4.667   2.369  0.3543  0.6000 -0.5408
 4721TIP3    H135722   4.335   4.731   2.432  1.2475 -0.6007  0.2531
 4721TIP3    H235723   4.216   4.642   2.403 -0.1413  1.5824 -1.0285
 4722TIP3   OH235724   1.200   2.680   0.783  0.6406 -0.0138 -0.1392
 4722TIP3    H135725   1.199   2.623   0.860 -0.7198 -1.1748 -0.9624
 4722TIP3    H235726   1.114   2.667   0.742  0.5102  2.1919 -0.7084
 4723TIP3   OH235727   1.177   0.397   8.352 -0.0063  0.1171  0.5564
 4723TIP3    H135728   1.246   0.432   8.409 -0.2814 -0.1270  1.0377
 4723TIP3    H235729   1.223   0.335   8.294  0.2800  0.4036  0.4712
 4724TIP3   OH235730   1.125   0.180   1.923  0.0732 -0.4417 -0.0590
 4724TIP3    H135731   1.065   0.254   1.915  2.9614  1.9959 -1.2028
 4724TIP3    H235732   1.102   0.122   1.851 -2.0126 -0.5407  0.6279
 4725TIP3   OH235733   6.446   1.740   0.207 -0.0175 -0.6198  0.0476
 4725TIP3    H135734   6.355   1.712   0.202  0.1242 -0.9458 -0.8749
 4725TIP3    H235735   6.473   1.752   0.115  0.4924  0.6825  0.3402
 4726TIP3   OH235736   5.314   0.298   7.614  0.4237 -0.4093 -0.4430
 4726TIP3    H135737   5.358   0.216   7.638  1.2933  0.0803 -0.3155
 4726TIP3    H235738   5.252   0.314   7.685  0.3455 -0.8833 -0.4003
 4727TIP3   OH235739   6.837   2.425   7.889 -0.3498  0.0505  0.9653
 4727TIP3    H135740   6.806   2.515   7.882 -0.2529  0.0316  0.2044
 4727TIP3    H235741   6.761   2.375   7.919 -1.1824 -0.0571 -1.2111
 4728TIP3   OH235742   4.338   4.381   1.591  0.3713  1.0738  0.0501
 4728TIP3    H135743   4.250   4.371   1.554  0.3598  1.1757  0.0506
 4728TIP3    H235744   4.323   4.416   1.679  0.2104 -1.9406  1.3565
 4729TIP3   OH235745   1.925   3.355   1.223  0.2007 -0.1204  0.1676
 4729TIP3    H135746   1.867   3.301   1.278 -0.5693  0.0536 -0.4503
 4729TIP3    H235747   1.912   3.444   1.256  1.2060 -0.2459  0.9560
 4730TIP3   OH235748   1.484   4.405   7.528 -0.3427 -0.6337  0.3779
 4730TIP3    H135749   1.501   4.350   7.452  1.5831  0.5086 -0.1048
 4730TIP3    H235750   1.477   4.494   7.492 -0.8130 -0.2460  1.3900
 4731TIP3   OH235751   4.915   2.460   1.681 -0.2027 -0.2802  0.8045
 4731TIP3    H135752   4.900   2.493   1.770  0.2357 -0.9978  1.1485
 4731TIP3    H235753   5.007   2.436   1.679 -0.1404 -0.0185  0.0629
 4732TIP3   OH235754   0.371   1.748   1.832  0.3586  0.2671  0.1204
 4732TIP3    H135755   0.326   1.740   1.917 -0.6242  0.8313 -0.3213
 4732TIP3    H235756   0.346   1.669   1.785 -1.2929  1.1606 -0.6029
 4733TIP3   OH235757   2.894   4.649   1.513  0.3258 -0.0909 -0.4430
 4733TIP3    H135758   2.884   4.575   1.453  0.4005 -0.6512  0.2290
 4733TIP3    H235759   2.979   4.686   1.492  1.2957 -1.5486  0.6775
 4734TIP3   OH235760   6.727   6.284   1.725 -0.4083  0.3486  0.0491
 4734TIP3    H135761   6.815   6.319   1.737 -0.3304 -0.4485  2.0039
 4734TIP3    H235762   6.741   6.193   1.698 -0.6322  0.2166  0.3793
 4735TIP3   OH235763   3.278   0.385   2.818  0.5678  0.4046 -0.5068
 4735TIP3    H135764   3.263   0.342   2.902 -0.2403  1.2093 -0.2321
 4735TIP3    H235765   3.351   0.445   2.835 -0.1717  1.2168 -0.1306
 4736TIP3   OH235766   4.880   6.698   8.441  0.5683  0.1281  0.3720
 4736TIP3    H135767   4.965   6.661   8.417  0.7159  0.8310 -0.2540
 4736TIP3    H235768   4.852   6.745   8.363  1.0465  2.5003  1.5292
 4737TIP3   OH235769   2.762   5.841   8.446  0.5220 -0.3105 -0.2230
 4737TIP3    H135770   2.686   5.800   8.487  1.3071 -0.2331  1.3853
 4737TIP3    H235771   2.782   5.785   8.371 -2.3265  0.8114 -1.9740
 4738TIP3   OH235772   3.262   2.790   0.410 -0.2396 -0.0351 -0.0306
 4738TIP3    H135773   3.238   2.699   0.393  0.0474  0.0540 -0.9764
 4738TIP3    H235774   3.356   2.794   0.393 -0.2608  0.4451 -0.0462
 4739TIP3   OH235775   4.784   5.561   0.693  0.0794 -0.0778  0.1173
 4739TIP3    H135776   4.768   5.640   0.640  0.8511  0.5141  0.7539
 4739TIP3    H235777   4.787   5.490   0.628 -3.8591 -0.1657 -0.2420
 4740TIP3   OH235778   1.876   4.190   6.712 -0.3574  0.5385 -0.3650
 4740TIP3    H135779   1.874   4.286   6.721  0.3516  0.8350 -2.6015
 4740TIP3    H235780   1.963   4.171   6.677 -0.2271 -1.0278  0.7262
 4741TIP3   OH235781   4.650   6.485   1.345 -0.4721 -0.1073  0.0949
 4741TIP3    H135782   4.658   6.419   1.277 -0.5284  0.5984 -0.6174
 4741TIP3    H235783   4.734   6.483   1.391  0.3534  0.8093 -1.3134
 4742TIP3   OH235784   5.383   2.714   1.593  0.1228 -0.3328 -0.0294
 4742TIP3    H135785   5.299   2.758   1.606  0.7379  0.6462  0.8200
 4742TIP3    H235786   5.420   2.755   1.515 -0.0294 -0.5144 -0.1978
 4743TIP3   OH235787   5.975   5.152   1.846  0.2415 -0.4418 -0.2113
 4743TIP3    H135788   5.997   5.104   1.766  1.2993  0.0290 -0.2232
 4743TIP3    H235789   5.964   5.243   1.817  1.4709 -0.1131  0.2767
 4744TIP3   OH235790   4.757   3.981   2.258 -0.2910  0.0203  0.2475
 4744TIP3    H135791   4.725   4.044   2.323  2.2606  0.9176  0.7340
 4744TIP3    H235792   4.771   3.900   2.307  3.2296  1.1561  1.3414
 4745TIP3   OH235793   4.370   6.731   8.386 -0.4514 -0.7249 -0.6867
 4745TIP3    H135794   4.365   6.656   8.328 -1.6256 -1.9115  0.8761
 4745TIP3    H235795   4.280   6.747   8.414  0.2940 -2.5303  3.5729
 4746TIP3   OH235796   6.488   0.957   2.744 -0.4373  0.3652  0.1749
 4746TIP3    H135797   6.512   1.044   2.712 -1.4265  0.7790  0.5368
 4746TIP3    H235798   6.559   0.900   2.714  0.0379  1.2301 -0.3714
 4747TIP3   OH235799   3.008   6.132   7.964  0.3490  0.4310  0.3888
 4747TIP3    H135800   2.972   6.220   7.967 -0.4267  0.1409 -0.0830
 4747TIP3    H235801   3.069   6.128   8.038 -1.0810  0.7407  1.6505
 4748TIP3   OH235802   4.974   4.323   1.609  0.1605 -0.0088 -0.4289
 4748TIP3    H135803   5.060   4.316   1.568  0.3430  0.3190 -0.0994
 4748TIP3    H235804   4.966   4.243   1.661 -0.6165 -1.0789 -2.1187
 4749TIP3   OH235805   6.361   0.618   7.742 -0.1062  0.8068  0.4860
 4749TIP3    H135806   6.308   0.693   7.771 -1.6847 -0.1018  0.0829
 4749TIP3    H235807   6.310   0.541   7.768  0.1271 -0.0765 -1.5046
 4750TIP3   OH235808   0.025   0.347   7.039 -0.1615 -0.0404  0.2312
 4750TIP3    H135809   0.048   0.428   7.086 -0.3649 -0.4657  1.0868
 4750TIP3    H235810   0.070   0.354   6.955  1.0354  0.2858  0.8726
 4751TIP3   OH235811   5.795   5.279   0.095 -0.7369  0.0817  0.2190
 4751TIP3    H135812   5.729   5.324   0.147 -1.0327  0.1349 -0.1961
 4751TIP3    H235813   5.784   5.315   0.007 -0.6786 -0.4817 -0.0193
 4752TIP3   OH235814   6.117   4.682   0.801 -0.6251  0.1398  0.1089
 4752TIP3    H135815   6.162   4.704   0.883  0.5629  1.8807 -0.9505
 4752TIP3    H235816   6.180   4.629   0.753 -1.1050 -0.4030  0.0742
 4753TIP3   OH235817   4.623   2.418   1.691  0.0718  0.1908  0.0653
 4753TIP3    H135818   4.714   2.391   1.689 -0.0765 -0.4127  0.9396
 4753TIP3    H235819   4.582   2.360   1.755 -0.9931  0.2520 -0.5399
 4754TIP3   OH235820   2.676   3.090   1.212  0.5877 -0.7436 -0.0624
 4754TIP3    H135821   2.696   2.997   1.197 -4.1205 -2.3477  1.6134
 4754TIP3    H235822   2.650   3.094   1.305  2.4191  2.7542  0.4437
 4755TIP3   OH235823   5.597   0.325   2.310 -0.1386 -0.1269 -0.2930
 4755TIP3    H135824   5.642   0.409   2.315 -1.8704  1.0116 -2.2958
 4755TIP3    H235825   5.667   0.260   2.300  1.2050  1.0836  0.7807
 4756TIP3   OH235826   2.467   1.313   7.640 -0.4826  0.1987  0.6574
 4756TIP3    H135827   2.396   1.369   7.610 -1.1413 -0.0953  1.6009
 4756TIP3    H235828   2.479   1.250   7.569 -0.9162  0.4827  0.3228
 4757TIP3   OH235829   1.982   6.570   0.407  0.0817  0.2975  0.0378
 4757TIP3    H135830   2.046   6.639   0.426  0.6247  0.1353 -1.1288
 4757TIP3    H235831   2.027   6.489   0.432  0.3214  0.1890 -0.7220
 4758TIP3   OH235832   0.769   1.174   2.924 -0.1392  0.5802  0.7297
 4758TIP3    H135833   0.729   1.221   2.851  1.4341  0.8267 -0.0072
 4758TIP3    H235834   0.776   1.084   2.894  1.8999  0.9518 -0.1024
 4759TIP3   OH235835   2.170   6.796   0.362  0.0028 -0.1139 -0.0658
 4759TIP3    H135836   2.149   6.749   0.281  0.9722 -0.5084 -0.0999
 4759TIP3    H235837   2.265   6.788   0.371 -0.1153 -0.3771  1.2830
 4760TIP3   OH235838   0.276   5.694   0.948 -0.4988  0.4842 -0.0157
 4760TIP3    H135839   0.252   5.616   0.898 -0.5854  1.7037 -1.9972
 4760TIP3    H235840   0.293   5.761   0.881  0.3461  1.9539  1.5842
 4761TIP3   OH235841   2.306   1.410   0.075 -0.0936 -0.3478  0.0527
 4761TIP3    H135842   2.345   1.473   0.014 -0.0930 -0.9592 -0.5789
 4761TIP3    H235843   2.350   1.427   0.158  0.0174  0.3838 -0.1469
 4762TIP3   OH235844   4.805   0.808   8.240  0.1142  0.0170 -0.1910
 4762TIP3    H135845   4.739   0.825   8.307  1.0769 -0.2632  0.8660
 4762TIP3    H235846   4.781   0.864   8.167 -0.6951  0.6948  0.5752
 4763TIP3   OH235847   2.876   4.744   7.737  0.4358  0.3246  0.3115
 4763TIP3    H135848   2.930   4.786   7.670  0.5539 -1.4781 -0.7662
 4763TIP3    H235849   2.925   4.666   7.762 -0.4545  0.0442  1.2514
 4764TIP3   OH235850   3.913   2.968   0.958 -0.2864  0.0910  0.3597
 4764TIP3    H135851   3.901   2.895   0.897 -0.0897  0.5186 -0.2027
 4764TIP3    H235852   3.898   2.930   1.044 -2.4414 -0.1232 -0.0494
 4765TIP3   OH235853   6.234   5.252   1.844 -0.2219 -0.4198 -0.4387
 4765TIP3    H135854   6.150   5.209   1.825 -0.5859  0.4032 -0.7467
 4765TIP3    H235855   6.213   5.316   1.912 -0.2369  1.0171 -1.7393
 4766TIP3   OH235856   4.142   6.864   1.396  0.3119 -0.7767 -0.4278
 4766TIP3    H135857   4.227   6.896   1.427  0.6793 -1.5026 -0.6504
 4766TIP3    H235858   4.148   6.869   1.301 -0.8537  1.5523 -0.4514
 4767TIP3   OH235859   3.884   6.829   0.082 -0.2377 -0.1471 -0.2186
 4767TIP3    H135860   3.825   6.898   0.053  1.0094  0.9500 -0.2331
 4767TIP3    H235861   3.880   6.833   0.178  0.8933  0.9527 -0.1808
 4768TIP3   OH235862   0.681   4.826   8.092  1.0407  0.6255 -0.6077
 4768TIP3    H135863   0.713   4.854   8.006  0.1427 -0.1990 -1.2317
 4768TIP3    H235864   0.594   4.863   8.099  1.0503  0.5624 -0.1097
 4769TIP3   OH235865   5.223   5.578   7.803 -0.3133 -0.0725 -1.1577
 4769TIP3    H135866   5.285   5.642   7.837 -1.0339 -0.0750  0.2086
 4769TIP3    H235867   5.192   5.617   7.721 -0.5546  1.2243 -0.4767
 4770TIP3   OH235868   2.281   0.844   1.651 -0.0016  0.4617 -0.4010
 4770TIP3    H135869   2.322   0.858   1.736  1.6328  0.1008 -1.0823
 4770TIP3    H235870   2.212   0.779   1.668 -0.3064  1.0595  0.7762
 4771TIP3   OH235871   0.035   3.109   2.904 -0.4505 -0.3538  0.2412
 4771TIP3    H135872   0.024   3.014   2.911 -3.8971  0.0351  2.1449
 4771TIP3    H235873  -0.044   3.139   2.858 -1.3088  1.8541  2.8811
 4772TIP3   OH235874   3.036   6.050   0.924  0.3450  0.1953 -0.2801
 4772TIP3    H135875   2.943   6.033   0.914  0.3971  0.6160 -1.7893
 4772TIP3    H235876   3.065   6.077   0.836  1.8587  0.1727  0.1793
 4773TIP3   OH235877   3.546   4.982   2.685  0.0851 -0.4664  0.0935
 4773TIP3    H135878   3.604   5.057   2.699  1.8263 -1.4335 -1.4855
 4773TIP3    H235879   3.495   4.976   2.765  2.2079  0.4302  1.5970
 4774TIP3   OH235880   3.385   0.282   7.299  0.2800  0.0316  0.3297
 4774TIP3    H135881   3.432   0.242   7.226  0.0910  0.1537  0.1384
 4774TIP3    H235882   3.292   0.272   7.276  0.2303  0.6576  0.2340
 4775TIP3   OH235883   0.011   5.736   8.166 -0.2127  0.0165  0.1737
 4775TIP3    H135884  -0.033   5.690   8.237  0.7205  0.0496  0.7931
 4775TIP3    H235885   0.010   5.828   8.192  1.5494 -0.1429  0.9721
 4776TIP3   OH235886   3.617   0.946   1.607  0.0504 -0.4487  0.3921
 4776TIP3    H135887   3.536   0.988   1.637 -1.5830 -1.5268 -2.1612
 4776TIP3    H235888   3.658   1.010   1.550 -0.7235 -1.0632 -0.8820
 4777TIP3   OH235889   1.801   2.614   8.209 -0.3176 -0.5022  0.0291
 4777TIP3    H135890   1.858   2.557   8.156 -0.3644  0.0880 -0.6759
 4777TIP3    H235891   1.727   2.559   8.232 -0.3146 -0.7684 -0.5670
 4778TIP3   OH235892   3.248   0.340   0.107  0.0113 -0.1822 -0.1869
 4778TIP3    H135893   3.342   0.356   0.113  0.2837 -1.9205  0.8224
 4778TIP3    H235894   3.241   0.261   0.053 -0.9031  0.1591 -0.5803
 4779TIP3   OH235895   6.096   5.706   8.429  0.0142 -0.6204 -0.4873
 4779TIP3    H135896   6.170   5.766   8.434  1.0982 -1.8303 -1.4789
 4779TIP3    H235897   6.037   5.747   8.365  1.0174 -0.8753 -1.6073
 4780TIP3   OH235898   4.139   6.862   6.582  1.0677  0.6239 -0.6087
 4780TIP3    H135899   4.100   6.804   6.647  0.4431 -0.0689 -1.5836
 4780TIP3    H235900   4.202   6.808   6.535  1.1308  0.9724 -0.9320
 4781TIP3   OH235901   2.362   3.594   6.808 -0.2980 -0.2335 -0.6317
 4781TIP3    H135902   2.374   3.549   6.892 -0.1302  0.1992 -0.4239
 4781TIP3    H235903   2.408   3.677   6.818 -1.7724  0.5961 -0.5303
 4782TIP3   OH235904   3.655   5.773   2.063 -0.0742 -0.8606  0.2863
 4782TIP3    H135905   3.586   5.824   2.104 -0.4535 -1.2646  0.1543
 4782TIP3    H235906   3.732   5.787   2.119 -0.2140 -0.2897  0.3458
 4783TIP3   OH235907   3.556   5.222   8.336  0.4627 -0.4170 -0.3365
 4783TIP3    H135908   3.472   5.255   8.302 -0.2646 -0.3361  1.4121
 4783TIP3    H235909   3.542   5.128   8.346 -0.5807 -0.0612  2.7548
 4784TIP3   OH235910   1.003   4.494   1.582  0.6658 -0.8925 -0.5862
 4784TIP3    H135911   1.012   4.557   1.654 -1.5075  0.2524 -1.2119
 4784TIP3    H235912   1.088   4.495   1.538  0.5915  2.1068 -0.8886
 4785TIP3   OH235913   4.844   5.582   7.820 -0.2392 -0.7672 -0.1278
 4785TIP3    H135914   4.787   5.591   7.896  0.6034 -1.5691  0.6274
 4785TIP3    H235915   4.884   5.668   7.809  0.1269 -0.8182  0.7531
 4786TIP3   OH235916   1.157   0.923   1.892 -0.0883  0.5772 -0.4382
 4786TIP3    H135917   1.088   0.881   1.839 -0.4225  1.9795 -1.1677
 4786TIP3    H235918   1.230   0.935   1.831 -0.0069  1.0624 -0.2492
 4787TIP3   OH235919   1.823   6.644   8.385 -0.4254 -0.2962 -0.3623
 4787TIP3    H135920   1.774   6.578   8.436 -2.3740 -0.6143 -2.5019
 4787TIP3    H235921   1.790   6.728   8.418  0.7938 -0.3527  1.1512
 4788TIP3   OH235922   5.054   2.236   1.522  0.6180  0.4465  0.5008
 4788TIP3    H135923   4.977   2.264   1.472  0.8588  1.5659  0.7451
 4788TIP3    H235924   5.093   2.317   1.555  1.8546 -0.1106  0.4638
 4789TIP3   OH235925   5.942   3.686   1.299 -0.9641  0.3606 -0.2468
 4789TIP3    H135926   5.984   3.687   1.385 -1.2215  0.3959 -0.1210
 4789TIP3    H235927   5.969   3.602   1.261 -0.1793  0.7120 -0.4697
 4790TIP3   OH235928   4.818   6.152   6.476  0.1351  0.2716  0.0523
 4790TIP3    H135929   4.755   6.201   6.528  1.7540  1.7551  0.7100
 4790TIP3    H235930   4.897   6.208   6.474  1.1188 -1.0664 -1.5152
 4791TIP3   OH235931   6.475   4.743   8.085 -0.6816 -0.6254  0.2962
 4791TIP3    H135932   6.397   4.751   8.031 -1.3071 -2.2270  0.9121
 4791TIP3    H235933   6.501   4.651   8.077  0.6500 -0.3137  0.7699
 4792TIP3   OH235934   3.849   5.759   1.203  0.2340  0.1106  0.4568
 4792TIP3    H135935   3.943   5.765   1.186  0.7258 -1.8879  2.1879
 4792TIP3    H235936   3.839   5.778   1.296 -0.8730 -1.2614  0.6523
 4793TIP3   OH235937   2.352   0.186   1.603 -1.1220 -0.2411  0.3122
 4793TIP3    H135938   2.357   0.246   1.678 -0.1929  0.2721 -0.1470
 4793TIP3    H235939   2.342   0.099   1.642 -2.4309  0.1856  0.9895
 4794TIP3   OH235940   1.027   5.764   7.131 -0.4372  0.0589 -0.2535
 4794TIP3    H135941   1.086   5.829   7.093  1.1536 -0.9688  0.3886
 4794TIP3    H235942   1.079   5.719   7.197 -1.3840 -2.1060 -0.8843
 4795TIP3   OH235943   0.049   6.710   7.170 -0.2721  0.3261  0.4864
 4795TIP3    H135944   0.012   6.762   7.099 -1.5959 -0.2164  0.7485
 4795TIP3    H235945   0.023   6.757   7.249  1.4773  1.1131  0.6395
 4796TIP3   OH235946   2.429   0.433   8.526 -0.2410  0.2451  0.3020
 4796TIP3    H135947   2.365   0.462   8.591  2.0213  0.1604  2.7264
 4796TIP3    H235948   2.438   0.339   8.540  0.7897  0.3416  0.4189
 4797TIP3   OH235949   5.418   5.144   0.849 -0.0023 -0.0312 -0.3606
 4797TIP3    H135950   5.485   5.165   0.784  0.6325  0.2591  0.3715
 4797TIP3    H235951   5.390   5.229   0.884  1.0665 -0.2419  1.1218
 4798TIP3   OH235952   6.656   2.265   7.659  0.5188  0.2180 -0.3874
 4798TIP3    H135953   6.618   2.222   7.735  1.8237 -0.2371  0.0246
 4798TIP3    H235954   6.583   2.315   7.621 -0.4116 -0.4135  0.5182
 4799TIP3   OH235955   2.373   2.879   7.181 -0.0869 -0.1083  0.1033
 4799TIP3    H135956   2.370   2.855   7.089  0.1365 -0.1551  0.1087
 4799TIP3    H235957   2.310   2.819   7.223 -0.2828 -0.0015 -0.0343
 4800TIP3   OH235958   1.077   2.666   1.928 -0.5065  0.1096  0.5398
 4800TIP3    H135959   1.041   2.700   1.846 -1.6842  1.1696  1.4486
 4800TIP3    H235960   1.159   2.712   1.940 -0.6104  0.3736  0.2451
 4801TIP3   OH235961   2.215   2.897   8.413 -0.2778 -0.3269 -0.0432
 4801TIP3    H135962   2.309   2.885   8.423 -0.0424  0.8539 -0.7015
 4801TIP3    H235963   2.177   2.856   8.491  0.8351 -0.0738  0.6468
 4802TIP3   OH235964   2.164   5.662   8.110 -0.0619 -0.1148  0.7721
 4802TIP3    H135965   2.151   5.594   8.175 -2.4268  0.4193  0.9467
 4802TIP3    H235966   2.206   5.734   8.158 -0.7188 -0.1665  1.4384
 4803TIP3   OH235967   3.395   3.413   2.741 -0.0363  0.0300 -0.0720
 4803TIP3    H135968   3.488   3.433   2.729 -0.1116 -0.0455 -0.8773
 4803TIP3    H235969   3.350   3.493   2.712 -0.2005  0.4847  1.3752
 4804TIP3   OH235970   4.866   2.111   8.248 -0.7976  0.0552 -0.1531
 4804TIP3    H135971   4.957   2.139   8.233 -0.6365 -0.5309 -0.2883
 4804TIP3    H235972   4.843   2.064   8.168 -0.5611 -1.4930  0.6496
 4805TIP3   OH235973   0.325   0.043   7.518 -0.1168 -0.1868  0.4532
 4805TIP3    H135974   0.336  -0.021   7.588  0.1358 -1.7377 -0.9608
 4805TIP3    H235975   0.414   0.055   7.483 -0.5039 -0.8132 -0.7759
 4806TIP3   OH235976   4.392   3.685   0.280  1.3272  0.3967  0.1604
 4806TIP3    H135977   4.328   3.632   0.326 -0.4018  0.9672 -1.4473
 4806TIP3    H235978   4.384   3.772   0.319  0.8758  0.5413 -0.2428
 4807TIP3   OH235979   2.794   4.737   7.455  0.2862  0.2616  0.0647
 4807TIP3    H135980   2.857   4.732   7.384 -0.9232  0.5301 -1.0606
 4807TIP3    H235981   2.729   4.801   7.426 -0.3115  0.2601  1.3360
 4808TIP3   OH235982   1.294   5.737   0.122  0.0363 -0.2001 -0.0218
 4808TIP3    H135983   1.205   5.718   0.093 -0.4344 -0.1468  1.3317
 4808TIP3    H235984   1.283   5.785   0.204  1.3168 -0.1327  0.1323
 4809TIP3   OH235985   4.006   6.232   2.426  0.6888  0.1764  0.1189
 4809TIP3    H135986   4.003   6.169   2.497  1.1267  1.5846  1.4472
 4809TIP3    H235987   3.918   6.231   2.388 -0.6006  1.6999  2.8148
 4810TIP3   OH235988   0.245   6.446   0.695 -0.4586 -0.1451  0.3340
 4810TIP3    H135989   0.221   6.383   0.764  0.5494 -0.7187  0.1917
 4810TIP3    H235990   0.319   6.494   0.732 -0.3561  0.0245 -0.0862
 4811TIP3   OH235991   5.530   1.877   8.023  0.6717 -0.4936 -0.0808
 4811TIP3    H135992   5.518   1.869   8.117 -0.1293 -0.7671 -0.1927
 4811TIP3    H235993   5.517   1.788   7.989 -2.2147  0.0863 -0.7467
 4812TIP3   OH235994   2.229   1.599   0.713 -0.6956 -0.4199  0.1109
 4812TIP3    H135995   2.224   1.590   0.617 -0.9670  0.7049 -0.0028
 4812TIP3    H235996   2.291   1.532   0.740 -1.8136 -1.8297 -0.6711
 4813TIP3   OH235997   1.298   1.556   0.981  0.1480  0.8503 -0.0300
 4813TIP3    H135998   1.275   1.611   0.906  1.1536  0.1198 -0.9043
 4813TIP3    H235999   1.375   1.599   1.019  1.5230 -0.3888 -1.2794
 4814TIP3   OH236000   1.007   0.304   6.479  0.5053  0.5062  0.1963
 4814TIP3    H136001   1.006   0.353   6.561  0.4380  0.8314  0.0014
 4814TIP3    H236002   1.075   0.346   6.426  0.9919 -0.1006  0.3240
 4815TIP3   OH236003   2.809   3.308   0.250 -0.0846  0.2521  0.5767
 4815TIP3    H136004   2.760   3.236   0.290 -0.6469  0.1563 -0.2761
 4815TIP3    H236005   2.749   3.383   0.254 -1.2774 -0.3971 -2.5266
 4816TIP3   OH236006   0.524   1.923   0.500  0.6805 -0.1678 -0.0831
 4816TIP3    H136007   0.573   1.875   0.567  0.3977 -0.4913 -0.1078
 4816TIP3    H236008   0.504   1.858   0.433 -0.8295 -0.3252  0.4903
 4817TIP3   OH236009   1.735   5.364   2.159  0.2645  0.4114 -0.1759
 4817TIP3    H136010   1.775   5.343   2.243 -1.9777  0.9350  1.1029
 4817TIP3    H236011   1.661   5.421   2.181 -1.9706 -1.4808 -2.2232
 4818TIP3   OH236012   2.130   3.840   8.230 -0.9009 -0.1558  0.6416
 4818TIP3    H136013   2.148   3.931   8.253 -0.7142 -0.2271  0.7805
 4818TIP3    H236014   2.198   3.790   8.275  0.2116 -0.2112 -0.9935
 4819TIP3   OH236015   0.826   1.764   7.893 -0.1212  0.1762 -0.9221
 4819TIP3    H136016   0.790   1.677   7.905  1.4388 -0.3983 -0.0545
 4819TIP3    H236017   0.915   1.749   7.860  0.1304  1.4338 -0.8818
 4820TIP3   OH236018   3.394   2.969   2.306  0.1755  0.5576  0.4455
 4820TIP3    H136019   3.367   2.979   2.397  0.3795 -0.2705  0.6112
 4820TIP3    H236020   3.452   2.892   2.307  0.5772  0.8384 -0.2973
 4821TIP3   OH236021   6.844   5.443   7.855 -0.4109 -0.3214  0.0399
 4821TIP3    H136022   6.767   5.492   7.883 -0.6228  0.7306 -2.1248
 4821TIP3    H236023   6.918   5.499   7.879 -0.4436 -0.4238  0.3827
 4822TIP3   OH236024   6.704   4.241   0.041  0.2759 -0.2511 -0.3926
 4822TIP3    H136025   6.712   4.153   0.078 -0.4614 -0.0099  0.3615
 4822TIP3    H236026   6.618   4.242   0.000 -0.3696  0.5992  0.9337
 4823TIP3   OH236027   4.536   6.642   6.680  0.6873 -0.0287  0.0157
 4823TIP3    H136028   4.486   6.560   6.677  0.4575  0.1348 -1.7846
 4823TIP3    H236029   4.471   6.709   6.699 -0.2672  0.3981 -3.8138
 4824TIP3   OH236030   0.927   5.752   1.894  0.4443  0.5359  0.3687
 4824TIP3    H136031   0.849   5.698   1.908 -0.7077  2.3804  1.4271
 4824TIP3    H236032   0.966   5.760   1.982  0.5488  1.4960  0.2364
 4825TIP3   OH236033   1.269   5.926   1.837 -0.4094  0.1644  0.2869
 4825TIP3    H136034   1.355   5.919   1.796 -0.3067  1.3119  0.2752
 4825TIP3    H236035   1.287   5.928   1.931 -0.5304 -0.8848  0.3444
 4826TIP3   OH236036   3.042   6.544   8.299 -0.5173 -0.1232 -0.7740
 4826TIP3    H136037   3.008   6.461   8.267 -1.6241 -0.2651  0.6489
 4826TIP3    H236038   2.964   6.595   8.320  0.1449  1.3722 -1.7935
 4827TIP3   OH236039   2.081   4.385   7.547 -0.2659  0.3504  0.2529
 4827TIP3    H136040   2.121   4.399   7.633  0.1092 -1.2005  0.3471
 4827TIP3    H236041   2.120   4.453   7.491  1.6160 -0.3783  0.6380
 4828TIP3   OH236042   3.644   2.242   2.284  0.0588 -0.4277  0.1034
 4828TIP3    H136043   3.666   2.235   2.191 -1.4680  0.3213 -0.3460
 4828TIP3    H236044   3.649   2.336   2.303 -1.0577 -0.4104  0.3862
 4829TIP3   OH236045   3.029   0.958   1.948 -0.5581  0.7107 -0.7018
 4829TIP3    H136046   3.051   1.048   1.926  1.3541  0.3772 -0.2910
 4829TIP3    H236047   3.007   0.917   1.864 -0.2693  1.2590 -1.0484
 4830TIP3   OH236048   5.785   4.937   6.948 -0.4709  0.0953  0.3023
 4830TIP3    H136049   5.746   4.989   7.018 -0.7043  1.5882 -0.8877
 4830TIP3    H236050   5.797   4.998   6.876  2.5241 -0.6570  0.0029
 4831TIP3   OH236051   1.829   3.581   1.382 -0.2292  0.3136  0.0558
 4831TIP3    H136052   1.736   3.587   1.403 -0.1494  1.2561  0.1782
 4831TIP3    H236053   1.873   3.588   1.467 -0.0462 -0.4490  0.0326
 4832TIP3   OH236054   3.448   3.476   8.244 -0.8493 -0.3089 -0.1457
 4832TIP3    H136055   3.499   3.429   8.178 -1.0730  1.0872 -1.3801
 4832TIP3    H236056   3.491   3.456   8.327  0.1790 -1.1585 -0.8630
 4833TIP3   OH236057   3.880   5.832   2.567  0.3639 -0.0895 -0.4581
 4833TIP3    H136058   3.907   5.916   2.604 -1.5029  0.1212  0.5353
 4833TIP3    H236059   3.960   5.778   2.570  0.5473  0.0568  3.4946
 4834TIP3   OH236060   0.767   5.359   2.304  0.0610  0.0842 -0.2758
 4834TIP3    H136061   0.833   5.338   2.370  0.3325 -1.5491 -1.0278
 4834TIP3    H236062   0.685   5.329   2.342  0.2514 -1.0935 -0.7439
 4835TIP3   OH236063   3.569   6.059   2.187  0.1323 -0.1030 -0.4710
 4835TIP3    H136064   3.485   6.100   2.209  1.7259  3.2598  0.0033
 4835TIP3    H236065   3.577   6.070   2.093  0.1705 -0.1777 -0.4765
 4836TIP3   OH236066   6.821   3.784   2.213  0.3029  0.3865  0.0960
 4836TIP3    H136067   6.899   3.751   2.258  0.4348  0.5312 -0.0268
 4836TIP3    H236068   6.820   3.736   2.130 -0.7279 -0.9467  0.8289
 4837TIP3   OH236069   1.460   1.274   2.215 -0.4513 -0.8497 -0.1333
 4837TIP3    H136070   1.382   1.257   2.269 -2.7599  3.1342 -1.6994
 4837TIP3    H236071   1.525   1.305   2.278 -1.5550 -0.4352  0.8585
 4838TIP3   OH236072   4.925   0.642   8.415 -0.5069 -0.0695 -0.5407
 4838TIP3    H136073   4.893   0.719   8.367 -0.1814 -0.4742 -1.4223
 4838TIP3    H236074   4.846   0.602   8.450 -0.7145  0.4606 -0.3894
 4839TIP3   OH236075   0.141   5.660   7.283  0.5177 -0.0339  0.2911
 4839TIP3    H136076   0.076   5.644   7.352 -1.5812  2.4101 -0.9755
 4839TIP3    H236077   0.129   5.587   7.222 -0.7393  0.1344  0.3152
 4840TIP3   OH236078   1.215   5.568   1.579 -0.1739 -0.1862  0.0286
 4840TIP3    H136079   1.299   5.607   1.551 -0.3547 -0.9670 -1.7471
 4840TIP3    H236080   1.166   5.642   1.616  1.5125  0.1638  1.7329
 4841TIP3   OH236081   2.336   0.559   6.922 -0.5147 -0.2187  0.0973
 4841TIP3    H136082   2.278   0.620   6.967  0.0985  0.4683 -0.0274
 4841TIP3    H236083   2.403   0.538   6.987 -0.1838 -0.0020 -0.1715
 4842TIP3   OH236084   2.218   5.049   0.106 -0.1941 -0.1633  0.0253
 4842TIP3    H136085   2.297   5.102   0.110 -1.4745  1.8890 -0.6799
 4842TIP3    H236086   2.188   5.044   0.196 -1.0659  1.9892 -0.0893
 4843TIP3   OH236087   0.050   1.144   2.221 -0.3364  0.0912 -0.0912
 4843TIP3    H136088  -0.014   1.211   2.195  0.5411  1.1993  0.4891
 4843TIP3    H236089   0.029   1.125   2.313  1.0767  1.6294  0.6110
 4844TIP3   OH236090   1.180   1.351   7.428 -0.2913  0.2123 -0.0332
 4844TIP3    H136091   1.178   1.420   7.362  0.0068  0.2982  0.0444
 4844TIP3    H236092   1.171   1.270   7.377 -0.0145  0.2750 -0.1869
 4845TIP3   OH236093   1.029   5.362   1.624 -0.3304  0.3315 -0.1949
 4845TIP3    H136094   0.980   5.347   1.543  1.0245  0.5039 -1.0979
 4845TIP3    H236095   1.094   5.428   1.601  3.6798 -3.2847 -0.6814
 4846TIP3   OH236096   6.115   5.608   1.732 -0.0575  0.3858  0.6862
 4846TIP3    H136097   6.073   5.692   1.711 -1.2613 -0.1391  0.8595
 4846TIP3    H236098   6.208   5.624   1.722 -0.2346  1.8773  1.1968
 4847TIP3   OH236099   3.005   4.040   8.209 -0.6714 -0.2034  0.1832
 4847TIP3    H136100   2.952   4.006   8.137 -0.1533 -1.8741  0.5478
 4847TIP3    H236101   2.968   4.126   8.227 -0.8784  0.2125 -1.9956
 4848TIP3   OH236102   1.064   5.149   8.260  0.3662  0.4834 -0.5557
 4848TIP3    H136103   1.080   5.113   8.347 -0.4236 -2.0771 -1.3515
 4848TIP3    H236104   0.975   5.184   8.264 -1.0215 -2.5759 -1.0323
 4849TIP3   OH236105   2.521   5.832   2.041  0.1894  0.0184 -0.2959
 4849TIP3    H136106   2.470   5.884   2.103 -1.1908  1.6704 -2.6311
 4849TIP3    H236107   2.602   5.881   2.029  1.4065 -1.3810  1.6380
 4850TIP3   OH236108   1.717   1.507   8.162  0.4866  0.3120  0.2716
 4850TIP3    H136109   1.741   1.418   8.136 -0.0034 -0.1874  1.4493
 4850TIP3    H236110   1.646   1.531   8.102 -0.1500 -0.5411  0.6534
 4851TIP3   OH236111   6.543   1.830   2.611 -0.1807 -0.0846  0.1620
 4851TIP3    H136112   6.618   1.776   2.585 -0.6229 -0.0711 -1.2122
 4851TIP3    H236113   6.469   1.770   2.609 -0.1663 -0.2286  2.0350
 4852TIP3   OH236114   2.491   2.412   6.638  0.2117  0.0895 -0.4750
 4852TIP3    H136115   2.567   2.471   6.638 -0.1702  0.7179 -3.2547
 4852TIP3    H236116   2.526   2.327   6.663  1.6265  0.6040 -0.6320
 4853TIP3   OH236117   4.825   4.870   0.700 -0.1094  0.1755 -0.0505
 4853TIP3    H136118   4.755   4.821   0.656 -1.0990  1.8545 -0.4108
 4853TIP3    H236119   4.808   4.857   0.794 -0.8971  0.5539 -0.1360
 4854TIP3   OH236120   4.923   3.965   7.099 -0.1844  0.4808  0.1389
 4854TIP3    H136121   4.870   3.936   7.025  0.4168  0.2778 -0.2171
 4854TIP3    H236122   4.894   3.911   7.172 -0.7292  0.6312  0.0396
 4855TIP3   OH236123   0.944   4.466   7.786 -0.1228  0.6671 -0.0742
 4855TIP3    H136124   0.936   4.476   7.691 -2.6347 -0.2741 -0.0490
 4855TIP3    H236125   0.882   4.395   7.808 -0.3775  1.5343  2.3757
 4856TIP3   OH236126   0.787   0.918   1.808 -0.3649  0.5979 -0.2920
 4856TIP3    H136127   0.844   0.866   1.751 -1.1773 -0.3562 -0.2559
 4856TIP3    H236128   0.699   0.890   1.786 -0.6890 -0.1541  1.7504
 4857TIP3   OH236129   0.581   6.298   7.299 -0.1634 -0.0169 -0.5386
 4857TIP3    H136130   0.626   6.224   7.258 -1.2231 -0.7927 -0.3349
 4857TIP3    H236131   0.495   6.264   7.322 -0.0741  0.7942  1.1071
 4858TIP3   OH236132   0.606   0.679   0.221 -0.0846 -0.2921  0.4115
 4858TIP3    H136133   0.588   0.758   0.170  2.9200  0.2238 -0.0384
 4858TIP3    H236134   0.567   0.696   0.307 -0.1973  1.3172  0.0636
 4859TIP3   OH236135   6.343   4.456   0.180 -0.0063 -0.2138  0.7616
 4859TIP3    H136136   6.311   4.366   0.179  0.7075 -0.4758  0.7121
 4859TIP3    H236137   6.405   4.461   0.106  0.1108  0.2582  0.8832
 4860TIP3   OH236138   6.000   5.400   7.846 -0.4542 -0.3211 -0.0374
 4860TIP3    H136139   6.063   5.377   7.778 -1.0371 -0.0316 -0.6935
 4860TIP3    H236140   5.971   5.315   7.881  0.7871 -0.4420  0.7537
 4861TIP3   OH236141   2.684   6.560   1.296  0.2490  0.0386 -0.3217
 4861TIP3    H136142   2.678   6.612   1.377 -0.0141 -0.5851  0.0674
 4861TIP3    H236143   2.695   6.470   1.327  0.2145 -0.1954 -0.9866
 4862TIP3   OH236144   5.213   2.935   7.440 -0.2194  0.6160 -0.0470
 4862TIP3    H136145   5.278   2.869   7.466  0.5026  0.5516 -1.8757
 4862TIP3    H236146   5.178   2.967   7.523  2.2253  0.7109  1.0452
 4863TIP3   OH236147   1.778   3.848   0.773  0.2531 -0.1040 -0.5915
 4863TIP3    H136148   1.777   3.920   0.836  2.3624 -0.2154 -0.3698
 4863TIP3    H236149   1.718   3.876   0.704  0.3154  1.4393 -0.0500
 4864TIP3   OH236150   2.585   3.921   0.391  0.6186  0.4844  0.1214
 4864TIP3    H136151   2.609   3.918   0.484 -2.2308  1.5658  0.9955
 4864TIP3    H236152   2.646   3.985   0.353  1.4411  0.4873  1.3700
 4865TIP3   OH236153   5.921   6.699   1.837 -0.3273  0.5252 -0.5228
 4865TIP3    H136154   5.941   6.729   1.749 -0.1489 -0.9097 -0.9997
 4865TIP3    H236155   5.913   6.604   1.829  0.1098  0.3171  1.0823
 4866TIP3   OH236156   5.189   0.118   0.482 -0.2490  0.2872 -0.6390
 4866TIP3    H136157   5.183   0.214   0.484  2.4379  0.5445 -0.9476
 4866TIP3    H236158   5.228   0.098   0.397 -0.7155 -1.0919 -0.5531
 4867TIP3   OH236159   3.156   0.253   6.958 -1.0320 -0.3418  0.2571
 4867TIP3    H136160   3.187   0.166   6.932 -1.6220  0.3541 -3.4403
 4867TIP3    H236161   3.236   0.305   6.967 -0.7432 -0.1837 -2.4410
 4868TIP3   OH236162   0.686   2.288   2.489 -0.7516 -0.1803 -0.6271
 4868TIP3    H136163   0.700   2.305   2.582 -0.7394 -0.2878 -0.6097
 4868TIP3    H236164   0.769   2.250   2.459 -1.0008 -0.8164 -0.5244
 4869TIP3   OH236165   2.910   2.385   6.686 -0.3195 -0.4238 -0.4057
 4869TIP3    H136166   2.902   2.290   6.689  1.0157 -0.5494 -0.3334
 4869TIP3    H236167   2.908   2.406   6.592  1.6303 -0.7661 -0.5577
 4870TIP3   OH236168   2.646   3.284   1.434 -0.8767  0.5251  0.4372
 4870TIP3    H136169   2.706   3.217   1.466 -1.6738 -0.9244 -0.9761
 4870TIP3    H236170   2.571   3.280   1.494 -1.1752 -0.2805  0.0253
 4871TIP3   OH236171   2.835   0.545   8.512  0.1502 -0.3731 -0.1102
 4871TIP3    H136172   2.841   0.477   8.445  0.6085 -1.1648  0.7022
 4871TIP3    H236173   2.925   0.557   8.543 -0.0104  0.1758  0.1698
 4872TIP3   OH236174   6.452   1.559   0.877 -0.1861  0.6618  0.2925
 4872TIP3    H136175   6.437   1.479   0.826  1.1886  0.3917  0.2822
 4872TIP3    H236176   6.400   1.547   0.956  1.2177 -0.9582  1.0127
 4873TIP3   OH236177   6.605   2.308   7.247  0.3250 -0.2476  0.2436
 4873TIP3    H136178   6.525   2.270   7.211  0.2771  1.3995 -1.5262
 4873TIP3    H236179   6.670   2.238   7.241 -0.2759 -0.7309 -0.9776
 4874TIP3   OH236180   6.520   4.913   0.907  0.9062  0.0955  0.0225
 4874TIP3    H136181   6.495   4.831   0.864 -0.2320 -0.9178  2.4452
 4874TIP3    H236182   6.559   4.886   0.990  0.2454  2.0120  1.0070
 4875TIP3   OH236183   5.055   2.127   2.476  0.3730  0.2704 -0.1432
 4875TIP3    H136184   5.138   2.084   2.494  0.2109 -0.4428 -0.9984
 4875TIP3    H236185   5.057   2.146   2.382 -0.8401 -0.7218 -0.4073
 4876TIP3   OH236186   4.484   3.718   1.173  0.0953  0.3653  0.7461
 4876TIP3    H136187   4.459   3.810   1.185  0.9702  0.7591 -0.2852
 4876TIP3    H236188   4.575   3.722   1.144 -0.2788 -0.7569 -0.6913
 4877TIP3   OH236189   0.113   5.127   0.439 -0.4138 -1.1701  0.0975
 4877TIP3    H136190   0.089   5.057   0.378 -0.7853 -1.9405  1.1080
 4877TIP3    H236191   0.164   5.084   0.507  1.1572 -0.0901 -0.3332
 4878TIP3   OH236192   4.957   6.600   7.759 -0.6229  0.2844  0.2840
 4878TIP3    H136193   4.952   6.694   7.738  0.1510  0.2449 -0.0878
 4878TIP3    H236194   4.868   6.568   7.743 -0.8405  0.9066  0.1962
 4879TIP3   OH236195   0.661   6.344   7.925  0.9451 -0.0057 -0.1567
 4879TIP3    H136196   0.653   6.253   7.955 -0.7211  0.0263 -0.4145
 4879TIP3    H236197   0.572   6.371   7.905  1.1894  2.1987  1.3285
 4880TIP3   OH236198   6.740   2.047   8.086  0.4200  0.5311  0.2986
 4880TIP3    H136199   6.827   2.009   8.095  0.2360  0.2578  1.0422
 4880TIP3    H236200   6.690   1.982   8.036 -0.4408 -1.2120  3.1835
 4881TIP3   OH236201   4.741   6.002   0.800 -0.0161 -0.1709  0.6052
 4881TIP3    H136202   4.701   6.064   0.740 -0.7599  0.7096  1.9609
 4881TIP3    H236203   4.834   6.025   0.800  0.5814 -1.9780 -2.2593
 4882TIP3   OH236204   1.039   0.682   2.388 -0.0401  0.0170  0.0042
 4882TIP3    H136205   0.978   0.736   2.437  0.0647 -0.5913  0.8326
 4882TIP3    H236206   1.084   0.742   2.329 -0.4612  0.6902  0.3676
 4883TIP3   OH236207   1.092   6.792   0.782 -0.3041 -0.0958  0.4527
 4883TIP3    H136208   1.114   6.745   0.701  0.4396  0.3841  0.3697
 4883TIP3    H236209   0.997   6.781   0.790 -0.9616  2.3909 -2.1533
 4884TIP3   OH236210   1.460   5.535   8.031  0.1654  0.3403 -0.1531
 4884TIP3    H136211   1.401   5.460   8.030 -1.2856  1.4430 -0.8535
 4884TIP3    H236212   1.428   5.591   8.102 -1.1694  2.0601 -1.9915
 4885TIP3   OH236213   0.161   6.273   1.650 -0.1347  0.0627  0.2076
 4885TIP3    H136214   0.234   6.212   1.644  0.8501  1.3107 -1.3744
 4885TIP3    H236215   0.109   6.242   1.724  1.8897 -0.9727  1.2592
 4886TIP3   OH236216   2.280   1.169   7.785  0.6777 -0.3909 -0.1461
 4886TIP3    H136217   2.351   1.229   7.764  0.8214 -0.0676  1.1858
 4886TIP3    H236218   2.314   1.082   7.762  0.9123 -0.0875 -0.9654
 4887TIP3   OH236219   2.804   0.930   2.833 -0.1203 -0.6988  0.4842
 4887TIP3    H136220   2.807   0.847   2.786 -0.8467 -0.7884  0.5821
 4887TIP3    H236221   2.727   0.974   2.797  0.3019 -0.0325  0.3777
 4888TIP3   OH236222   6.042   3.533   7.114 -0.2166  0.6334 -0.0334
 4888TIP3    H136223   6.062   3.609   7.060 -0.2276  1.1072  0.6210
 4888TIP3    H236224   6.114   3.527   7.176 -1.0581  1.1322  1.0161
 4889TIP3   OH236225   5.028   2.140   6.934 -0.3218 -0.4593  0.5143
 4889TIP3    H136226   4.990   2.072   6.879  1.1244  0.7397 -2.1678
 4889TIP3    H236227   4.993   2.222   6.899  0.2000  0.3435  1.7896
 4890TIP3   OH236228   2.717   0.926   0.952  0.1714 -0.2460 -0.4133
 4890TIP3    H136229   2.670   0.845   0.934  1.4981 -1.9270  2.8818
 4890TIP3    H236230   2.809   0.904   0.941  0.5407  0.9783  0.0450
 4891TIP3   OH236231   3.504   1.499   1.799  0.1454 -0.1380 -0.1405
 4891TIP3    H136232   3.471   1.490   1.888  0.9883  0.3336  0.2251
 4891TIP3    H236233   3.581   1.443   1.796  0.1397 -0.1303 -0.5762
 4892TIP3   OH236234   4.248   1.823   8.221 -0.2731 -0.7835  0.3602
 4892TIP3    H136235   4.237   1.875   8.300  0.5586 -1.2244  0.7732
 4892TIP3    H236236   4.159   1.807   8.191 -0.6127 -0.8354  1.3562
 4893TIP3   OH236237   1.174   3.818   2.338  0.1958 -0.0565 -0.2899
 4893TIP3    H136238   1.202   3.895   2.388  0.2084 -0.5881  0.5409
 4893TIP3    H236239   1.180   3.745   2.400 -0.4384 -0.6252 -0.8748
 4894TIP3   OH236240   3.676   1.534   2.517 -0.1091  0.1093  0.3118
 4894TIP3    H136241   3.675   1.481   2.437  1.3580  2.0164 -1.0895
 4894TIP3    H236242   3.600   1.591   2.508 -0.0609  0.1826  0.3660
 4895TIP3   OH236243   0.215   2.146   7.378  0.2207 -0.7768  0.0014
 4895TIP3    H136244   0.200   2.234   7.343 -1.9665 -0.6778  1.0158
 4895TIP3    H236245   0.267   2.102   7.310 -0.6533  0.5718 -1.6268
 4896TIP3   OH236246   4.566   0.104   1.713 -0.2280 -0.3602 -0.7375
 4896TIP3    H136247   4.487   0.134   1.758 -0.9149 -1.3939 -1.2189
 4896TIP3    H236248   4.627   0.080   1.784 -0.4160  0.2554 -0.3653
 4897TIP3   OH236249   1.269   5.617   8.292  0.2529  0.2627  0.1350
 4897TIP3    H136250   1.254   5.709   8.309  0.0261  0.3076 -0.2884
 4897TIP3    H236251   1.182   5.579   8.284  0.3366  0.2644 -0.9688
 4898TIP3   OH236252   0.973   0.329   7.413 -0.9615 -0.0200  0.4661
 4898TIP3    H136253   0.896   0.277   7.388 -0.9473  0.4265 -0.5640
 4898TIP3    H236254   0.966   0.409   7.361 -0.3099  0.4580  1.0882
 4899TIP3   OH236255   3.449   1.363   7.557  0.3119  0.3025  0.4655
 4899TIP3    H136256   3.358   1.337   7.572 -0.0851  0.0895 -1.9711
 4899TIP3    H236257   3.443   1.454   7.530  0.8098  0.2394  0.1449
 4900TIP3   OH236258   4.655   1.034   8.106  0.6622 -0.3414 -0.1191
 4900TIP3    H136259   4.685   1.125   8.104  1.3915 -0.5775 -1.2183
 4900TIP3    H236260   4.704   0.992   8.035  0.8066 -1.7435  0.7744
 4901TIP3   OH236261   4.396   6.728   1.116  0.2382 -0.2854  0.4450
 4901TIP3    H136262   4.303   6.737   1.138 -0.0838 -0.3171 -0.8176
 4901TIP3    H236263   4.437   6.809   1.147  0.1068 -0.9371  2.4508
 4902TIP3   OH236264   1.751   4.874   8.211  0.0356  0.6869 -0.0802
 4902TIP3    H136265   1.823   4.929   8.179 -0.2225  0.0403 -1.8721
 4902TIP3    H236266   1.673   4.928   8.199 -0.1005  0.3191 -0.8511
 4903TIP3   OH236267   6.838   0.244   1.789  0.0334  0.2284 -0.6640
 4903TIP3    H136268   6.746   0.261   1.805  0.1102 -0.7174  0.9148
 4903TIP3    H236269   6.841   0.205   1.702 -1.2764 -1.4653  0.0080
 4904TIP3   OH236270   1.669   2.160   7.579  0.3791 -0.2053 -0.1855
 4904TIP3    H136271   1.728   2.093   7.543  0.4572 -0.2050 -0.0596
 4904TIP3    H236272   1.582   2.127   7.558  0.4099 -0.4917  0.1262
 4905TIP3   OH236273   4.519   1.426   7.615 -0.2538 -0.2861 -0.5301
 4905TIP3    H136274   4.516   1.449   7.707  1.7370 -1.4729 -0.1300
 4905TIP3    H236275   4.471   1.343   7.609 -1.5398  0.4382 -0.8413
 4906TIP3   OH236276   6.524   2.145   1.856  0.7390  0.3269  0.1651
 4906TIP3    H136277   6.564   2.173   1.938 -0.8885  0.4297  0.9771
 4906TIP3    H236278   6.555   2.208   1.791  0.2287  1.6644  1.1771
 4907TIP3   OH236279   0.834   6.441   0.605  0.1325 -0.1723 -0.9802
 4907TIP3    H136280   0.853   6.456   0.513  0.6877 -2.2150 -1.2362
 4907TIP3    H236281   0.751   6.393   0.605  0.5746 -0.9661 -0.4892
 4908TIP3   OH236282   0.055   1.733   7.140 -0.4265  0.2256  0.0105
 4908TIP3    H136283   0.125   1.738   7.205  1.7497 -0.4539 -2.1491
 4908TIP3    H236284   0.058   1.816   7.094 -0.3149 -0.2249 -0.8064
 4909TIP3   OH236285   0.293   1.224   7.573  0.6181  0.2565  0.1706
 4909TIP3    H136286   0.242   1.290   7.619  0.5139  0.0973  0.2855
 4909TIP3    H236287   0.328   1.168   7.642  1.8597  1.0037  0.1665
 4910TIP3   OH236288   6.546   6.221   2.417  0.0882 -0.5534  0.3457
 4910TIP3    H136289   6.458   6.251   2.439  0.1826  1.3347 -1.5219
 4910TIP3    H236290   6.536   6.181   2.331  0.7469 -2.1493  0.9822
 4911TIP3   OH236291   4.485   6.454   0.546 -0.0424 -0.3714 -0.9149
 4911TIP3    H136292   4.565   6.451   0.598 -0.5277 -0.6855 -0.1606
 4911TIP3    H236293   4.455   6.363   0.544 -3.0152  0.2451  3.0857
 4912TIP3   OH236294   3.101   1.950   1.441 -0.1106 -0.7446 -0.0661
 4912TIP3    H136295   3.111   1.976   1.533  0.4876 -2.6886  0.4780
 4912TIP3    H236296   3.007   1.959   1.425 -0.1555  0.0911  0.5845
 4913TIP3   OH236297   1.067   2.168   7.186 -0.5362  0.3870  0.2207
 4913TIP3    H136298   1.114   2.249   7.170 -0.1402 -0.0122 -0.7140
 4913TIP3    H236299   1.110   2.130   7.263  0.3322  0.2896 -0.3034
 4914TIP3   OH236300   5.098   2.657   7.739 -0.4211  0.0167 -0.0119
 4914TIP3    H136301   5.072   2.611   7.659 -0.0936 -0.0776 -0.0670
 4914TIP3    H236302   5.177   2.611   7.768  1.3826  2.0051 -1.4055
 4915TIP3   OH236303   6.757   6.896   1.196  0.6712 -0.1544  0.3027
 4915TIP3    H136304   6.721   6.934   1.276 -0.8850  0.3205 -0.5887
 4915TIP3    H236305   6.690   6.835   1.165  0.8250  0.3215 -1.0888
 4916TIP3   OH236306   0.468   4.758   1.193  0.3033 -0.0181  0.0320
 4916TIP3    H136307   0.513   4.677   1.168  0.0794 -0.1343  0.0034
 4916TIP3    H236308   0.517   4.827   1.148  0.7072 -0.1021  0.3298
 4917TIP3   OH236309   6.594   5.214   8.286 -0.3750  0.0064  0.0954
 4917TIP3    H136310   6.591   5.152   8.213  0.6673 -0.6124  0.5558
 4917TIP3    H236311   6.570   5.163   8.363  2.4373 -0.4174  0.8128
 4918TIP3   OH236312   2.292   2.113   0.207 -0.5943  0.1682 -0.0289
 4918TIP3    H136313   2.367   2.128   0.150 -0.4511 -2.4936 -0.7051
 4918TIP3    H236314   2.326   2.056   0.277 -2.1028 -1.9346 -0.8939
 4919TIP3   OH236315   3.185   0.193   0.671 -0.5853 -0.1610 -0.7745
 4919TIP3    H136316   3.209   0.141   0.595 -0.4321 -0.5229 -0.4833
 4919TIP3    H236317   3.182   0.130   0.743 -0.3480  0.2392 -0.4084
 4920TIP3   OH236318   1.235   0.937   0.001  0.5096  0.1585 -0.5852
 4920TIP3    H136319   1.327   0.963   0.001  1.1133 -1.8145 -0.0521
 4920TIP3    H236320   1.225   0.887  -0.081  0.3862 -1.0504  0.1398
 4921TIP3   OH236321   1.548   6.613   7.313  0.4238  0.2531  0.2533
 4921TIP3    H136322   1.605   6.549   7.273  1.4043  1.0328  0.3562
 4921TIP3    H236323   1.584   6.626   7.401  1.8224  2.7582 -0.5834
 4922TIP3   OH236324   4.489   2.174   1.132 -0.7129 -0.1661  0.0355
 4922TIP3    H136325   4.532   2.113   1.072 -1.9399 -0.2239 -0.8163
 4922TIP3    H236326   4.453   2.118   1.201  0.0422 -0.1721  0.4370
 4923TIP3   OH236327   4.250   0.711   6.998 -0.0491 -0.0297  0.3785
 4923TIP3    H136328   4.209   0.684   7.080 -0.2936 -2.5973 -0.4908
 4923TIP3    H236329   4.343   0.714   7.017 -0.0802 -0.9046  0.7129
 4924TIP3   OH236330   0.571   3.403   0.266 -0.0156  0.1851  0.0118
 4924TIP3    H136331   0.661   3.436   0.260 -0.0278  0.4075  0.9278
 4924TIP3    H236332   0.523   3.454   0.201  0.2661  0.9609  0.4038
 4925TIP3   OH236333   4.918   3.162   6.520 -0.1081 -0.1678  0.1040
 4925TIP3    H136334   4.968   3.230   6.476 -0.2518  0.4383  0.8581
 4925TIP3    H236335   4.885   3.204   6.600 -1.8323 -0.5260 -0.3724
 4926TIP3   OH236336   0.622   2.870   6.500 -0.5334 -0.2090 -0.4288
 4926TIP3    H136337   0.587   2.802   6.558 -0.8353  0.6753  0.4400
 4926TIP3    H236338   0.634   2.946   6.556  0.6012  0.2153 -1.2092
 4927TIP3   OH236339   6.480   4.384   1.189 -0.0697 -0.3681  0.4432
 4927TIP3    H136340   6.498   4.475   1.213  0.1443 -0.2144 -0.2784
 4927TIP3    H236341   6.398   4.363   1.235 -1.6466  1.0741 -1.5103
 4928TIP3   OH236342   1.785   3.457   7.298 -0.0648 -0.3993 -0.1023
 4928TIP3    H136343   1.795   3.456   7.393 -2.2377  2.1383  0.2704
 4928TIP3    H236344   1.714   3.396   7.280 -0.3875 -0.0661  0.0354
 4929TIP3   OH236345   1.489   6.290   0.500 -0.5521  0.2772 -0.0522
 4929TIP3    H136346   1.524   6.318   0.584  0.9705  0.4048 -0.7073
 4929TIP3    H236347   1.486   6.194   0.505 -0.2327  0.2741  0.0506
 4930TIP3   OH236348   6.069   2.718   0.781 -0.0905 -0.0433  0.5727
 4930TIP3    H136349   6.024   2.656   0.838 -2.5250 -0.7393 -1.8953
 4930TIP3    H236350   6.118   2.664   0.719  0.9381  0.6270  0.7757
 4931TIP3   OH236351   4.527   1.424   1.567 -0.0545  0.7856  0.4561
 4931TIP3    H136352   4.564   1.356   1.623 -3.1124 -0.7681  0.8016
 4931TIP3    H236353   4.602   1.461   1.521  2.2782  0.3114  3.5729
 4932TIP3   OH236354   0.113   0.609   7.149 -0.6136  0.3225 -0.1727
 4932TIP3    H136355   0.082   0.687   7.103  0.9473  0.7407 -0.5584
 4932TIP3    H236356   0.131   0.639   7.238  1.3290  0.7918 -0.6762
 4933TIP3   OH236357   6.380   2.216   7.101 -0.0219  0.3037 -0.3136
 4933TIP3    H136358   6.366   2.142   7.042 -1.8754 -0.3325  0.8635
 4933TIP3    H236359   6.384   2.176   7.188 -0.6364  1.5393  0.2961
 4934TIP3   OH236360   6.321   2.806   0.604  0.0109 -0.2148  0.1691
 4934TIP3    H136361   6.381   2.821   0.531 -0.2039  0.7322  0.1795
 4934TIP3    H236362   6.246   2.862   0.586  0.1407  0.3712  1.3154
 4935TIP3   OH236363   0.594   0.837   7.698 -0.7199 -0.0613  0.2450
 4935TIP3    H136364   0.680   0.870   7.672 -0.0664 -0.4019  1.8699
 4935TIP3    H236365   0.592   0.747   7.666 -0.6425  0.0843 -0.1683
 4936TIP3   OH236366   4.515   6.698   1.423  0.3538 -0.4814 -0.2956
 4936TIP3    H136367   4.584   6.755   1.457  1.6914 -2.2813  0.1409
 4936TIP3    H236368   4.562   6.626   1.381 -1.1163 -3.2809  2.4974
 4937TIP3   OH236369   4.014   0.915   6.903  0.6388 -0.4709 -0.4836
 4937TIP3    H136370   4.020   1.010   6.902 -1.1660 -0.3149  0.4546
 4937TIP3    H236371   4.077   0.887   6.970 -0.2670  0.2232  0.6908
 4938TIP3   OH236372   6.537   0.294   8.274  0.1763 -0.3136  0.2466
 4938TIP3    H136373   6.494   0.287   8.189 -0.1762 -2.3240  0.5280
 4938TIP3    H236374   6.607   0.228   8.271  1.1007  0.6088  0.9966
 4939TIP3   OH236375   6.554   1.577   7.012 -0.2120  0.1209  0.1248
 4939TIP3    H136376   6.465   1.558   6.983 -0.2295 -0.9456  0.8301
 4939TIP3    H236377   6.601   1.598   6.931 -0.6735 -1.0508 -0.4676
 4940TIP3   OH236378   1.581   4.340   1.930  0.3883 -0.3015  0.1813
 4940TIP3    H136379   1.670   4.351   1.897  0.6753 -1.3193  0.6111
 4940TIP3    H236380   1.546   4.430   1.934  1.4917  0.1333  0.3142
 4941TIP3   OH236381   2.560   3.318   8.285 -0.0596  0.4906 -0.0143
 4941TIP3    H136382   2.555   3.241   8.342  0.0410  0.6902  0.2677
 4941TIP3    H236383   2.586   3.283   8.200 -1.5562  0.0166 -0.3069
 4942TIP3   OH236384   6.241   1.905   2.342 -0.0606  0.0101  0.0861
 4942TIP3    H136385   6.197   1.865   2.416  1.6824  0.3823  1.3998
 4942TIP3    H236386   6.210   1.995   2.341  0.6728  0.2883  1.0407
 4943TIP3   OH236387   4.475   3.386   7.590  0.1241  0.1520  0.0869
 4943TIP3    H136388   4.414   3.429   7.650 -1.6746 -0.3223 -1.2994
 4943TIP3    H236389   4.443   3.409   7.502  1.5244 -0.7134 -0.6960
 4944TIP3   OH236390   5.653   4.579   7.555 -0.1733  0.3776  0.0785
 4944TIP3    H136391   5.726   4.557   7.612  1.1419  2.1960 -0.7867
 4944TIP3    H236392   5.603   4.646   7.603  0.1402  0.8969 -0.3027
 4945TIP3   OH236393   6.923   6.596   2.277 -0.2428  0.4010  0.2985
 4945TIP3    H136394   6.828   6.601   2.286 -0.4132 -1.0265 -0.4655
 4945TIP3    H236395   6.954   6.682   2.305 -1.8547  1.4143 -0.8489
 4946TIP3   OH236396   6.467   4.354   8.109  0.4178 -0.2463  0.3401
 4946TIP3    H136397   6.372   4.366   8.103  0.5045 -0.0998 -1.4145
 4946TIP3    H236398   6.481   4.317   8.196 -1.2502 -0.2995  0.6266
 4947TIP3   OH236399   5.946   4.316   1.786  0.1642  0.0279  0.2783
 4947TIP3    H136400   5.936   4.283   1.696  0.0785 -0.3828  0.4381
 4947TIP3    H236401   5.917   4.407   1.781 -0.7479 -0.2653  0.0866
 4948TIP3   OH236402   3.247   5.063   0.050  0.1288 -0.4432  0.2949
 4948TIP3    H136403   3.328   5.045   0.003  0.4033 -0.6990  0.8593
 4948TIP3    H236404   3.182   5.081  -0.019  0.6334 -0.3496 -0.1573
 4949TIP3   OH236405   5.808   1.917   8.043 -0.1097  0.6174 -0.0472
 4949TIP3    H136406   5.772   1.828   8.043  0.3398  0.4166  1.0205
 4949TIP3    H236407   5.793   1.949   8.133 -0.4008  1.6800 -0.4542
 4950TIP3   OH236408   4.527   5.639   1.568  0.7200 -0.1441 -0.2783
 4950TIP3    H136409   4.568   5.554   1.587 -1.3288 -0.9726  0.7383
 4950TIP3    H236410   4.565   5.698   1.633  1.3663 -0.5461 -0.2766
 4951TIP3   OH236411   5.325   3.597   1.032 -0.6805  0.6463  0.2192
 4951TIP3    H136412   5.279   3.678   1.054 -1.8077 -0.2988  1.5061
 4951TIP3    H236413   5.360   3.566   1.116  0.8009  0.4054 -0.4503
 4952TIP3   OH236414   4.122   6.696   7.676 -0.2385 -0.3454 -0.5344
 4952TIP3    H136415   4.188   6.764   7.691  0.0258 -1.0112  1.7188
 4952TIP3    H236416   4.154   6.648   7.600  1.4043 -0.0905 -0.0379
 4953TIP3   OH236417   2.653   4.517   7.621  0.1770 -0.5042  0.3926
 4953TIP3    H136418   2.701   4.600   7.630  0.6198 -0.7689  0.5456
 4953TIP3    H236419   2.672   4.489   7.532 -0.9796  0.1598 -0.0808
 4954TIP3   OH236420   3.130   3.078   2.117 -0.0782 -0.0797  0.0173
 4954TIP3    H136421   3.219   3.094   2.087  0.0984 -1.5422 -0.3635
 4954TIP3    H236422   3.087   3.036   2.042 -0.5322 -1.0579  0.7993
 4955TIP3   OH236423   6.029   5.337   8.178 -0.1086  0.4939 -0.0703
 4955TIP3    H136424   6.023   5.330   8.083  1.1361 -0.4804 -0.1042
 4955TIP3    H236425   5.961   5.278   8.211  0.5046 -0.4039 -0.3742
 4956TIP3   OH236426   2.421   3.083   2.165 -0.0274  0.3736 -0.3172
 4956TIP3    H136427   2.351   3.026   2.133  0.7119  0.8272 -2.9613
 4956TIP3    H236428   2.472   3.027   2.224 -1.5452 -0.4786  0.2708
 4957TIP3   OH236429   6.220   6.686   0.322 -0.3806 -0.0360 -0.0484
 4957TIP3    H136430   6.250   6.777   0.322  1.5243 -0.6095  0.7480
 4957TIP3    H236431   6.293   6.636   0.284 -0.8936 -1.3592  0.6236
 4958TIP3   OH236432   6.804   0.209   0.927 -0.3493 -0.4524 -0.3356
 4958TIP3    H136433   6.813   0.148   0.854 -0.7845  1.4224 -2.0183
 4958TIP3    H236434   6.709   0.216   0.941 -0.2528 -1.7804  1.3318
 4959TIP3   OH236435   3.188   1.444   0.153  0.0060  0.2186 -0.2560
 4959TIP3    H136436   3.249   1.380   0.118  0.0858  0.4993 -0.6341
 4959TIP3    H236437   3.243   1.502   0.206 -0.2689 -0.8243  1.2253
 4960TIP3   OH236438   2.877   4.141   0.959  0.7652  0.0631  0.5590
 4960TIP3    H136439   2.900   4.128   0.867  0.5653  1.9586  0.1891
 4960TIP3    H236440   2.788   4.107   0.967  0.0260  1.6385 -0.4729
 4961TIP3   OH236441   6.510   4.295   0.558 -0.8820  0.7077 -0.0212
 4961TIP3    H136442   6.430   4.243   0.561 -1.3932  1.3263 -1.7139
 4961TIP3    H236443   6.550   4.273   0.473 -1.9355  4.1271 -1.5954
 4962TIP3   OH236444   6.928   6.832   7.413  0.0712 -0.1395 -0.7219
 4962TIP3    H136445   6.980   6.912   7.409 -0.6590  0.2928 -1.8126
 4962TIP3    H236446   6.976   6.776   7.475  0.4723  1.2023  0.2214
 4963TIP3   OH236447   5.702   0.473   7.440  0.5008 -0.0218  0.2969
 4963TIP3    H136448   5.617   0.469   7.484  0.1825 -0.5548 -0.3383
 4963TIP3    H236449   5.766   0.451   7.508  0.0256 -0.7475  0.5211
 4964TIP3   OH236450   0.110   0.125   2.575  0.4904 -0.2815  0.1660
 4964TIP3    H136451   0.037   0.064   2.569  0.1811 -0.0106  1.0322
 4964TIP3    H236452   0.187   0.069   2.590  0.1518 -0.4504  1.3552
 4965TIP3   OH236453   5.783   3.899   0.753 -0.1470  0.7010  0.4519
 4965TIP3    H136454   5.730   3.939   0.822  2.0044  1.1565  1.9233
 4965TIP3    H236455   5.788   3.966   0.685 -1.7773  0.4812  0.0785
 4966TIP3   OH236456   1.853   3.854   1.623 -0.2243  0.5362 -0.2391
 4966TIP3    H136457   1.840   3.760   1.635 -0.7939  0.3920 -1.8461
 4966TIP3    H236458   1.766   3.892   1.630 -0.0309  0.9328  0.1257
 4967TIP3   OH236459   0.210   2.203   7.081  0.3544 -0.0096  0.3223
 4967TIP3    H136460   0.251   2.290   7.078  0.9363 -0.2755  0.5042
 4967TIP3    H236461   0.117   2.221   7.094  0.5922  0.5697  1.3093
 4968TIP3   OH236462   3.250   1.506   7.738  0.5994  0.0508  0.2412
 4968TIP3    H136463   3.262   1.485   7.831  0.2150 -0.4292  0.1880
 4968TIP3    H236464   3.241   1.601   7.737 -1.5728 -0.0689  0.9905
 4969TIP3   OH236465   3.662   3.456   2.618  0.0489  0.5641 -0.4436
 4969TIP3    H136466   3.734   3.416   2.568 -1.8525 -0.5023 -2.5172
 4969TIP3    H236467   3.638   3.533   2.567 -1.1355  0.1470 -0.5415
 4970TIP3   OH236468   1.576   0.865   0.484 -0.1617 -0.3407  0.1606
 4970TIP3    H136469   1.621   0.936   0.530  0.7994 -0.7069 -0.1903
 4970TIP3    H236470   1.488   0.862   0.523 -0.3680  1.3196 -0.1244
 4971TIP3   OH236471   0.283   1.323   2.235  0.0422 -0.1018  0.2638
 4971TIP3    H136472   0.302   1.336   2.328  0.5511 -1.5455  0.3849
 4971TIP3    H236473   0.189   1.304   2.232  0.0531 -0.1936  0.4931
 4972TIP3   OH236474   6.485   6.478   1.498  0.8271 -0.1131  0.0583
 4972TIP3    H136475   6.552   6.541   1.525  0.5931 -0.6037  1.8793
 4972TIP3    H236476   6.530   6.421   1.435  1.5200  0.7896 -0.3015
 4973TIP3   OH236477   1.127   0.378   7.860  0.7072  0.5247 -0.1543
 4973TIP3    H136478   1.040   0.340   7.875  0.4770  1.3591  0.7348
 4973TIP3    H236479   1.126   0.403   7.768  0.2781 -0.1552 -0.3405
 4974TIP3   OH236480   6.473   6.802   0.554  0.2803 -0.2167  0.0930
 4974TIP3    H136481   6.560   6.820   0.519  0.9894  1.2491  2.3379
 4974TIP3    H236482   6.418   6.872   0.519  0.3435 -0.3016 -0.1775
 4975TIP3   OH236483   5.400   1.153   0.087  0.7722 -0.0237 -0.0342
 4975TIP3    H136484   5.405   1.082   0.024  0.2261  0.1177 -0.2381
 4975TIP3    H236485   5.312   1.146   0.125  0.6199  0.6992 -0.2443
 4976TIP3   OH236486   3.293   3.787   1.457 -0.5307 -0.1627 -0.3079
 4976TIP3    H136487   3.252   3.702   1.476 -0.9356  0.5757  2.7234
 4976TIP3    H236488   3.235   3.829   1.394 -0.3585 -2.0630 -1.8143
 4977TIP3   OH236489   2.140   0.067   1.154 -0.1513 -0.2197  0.7704
 4977TIP3    H136490   2.218   0.011   1.155 -1.3269 -1.9138  1.4908
 4977TIP3    H236491   2.127   0.092   1.246  0.5304  1.5688  0.4299
 4978TIP3   OH236492   6.413   5.119   0.303 -0.2142  0.6273 -0.0403
 4978TIP3    H136493   6.397   5.062   0.227 -0.0379  2.1325 -1.2474
 4978TIP3    H236494   6.359   5.081   0.373  2.2601 -2.9020  0.2107
 4979TIP3   OH236495   2.548   2.874   2.302  0.8306 -1.2854 -0.6819
 4979TIP3    H136496   2.491   2.815   2.351 -1.3779  1.7223  0.6862
 4979TIP3    H236497   2.625   2.885   2.359 -0.1324 -0.5455  0.5267
 4980TIP3   OH236498   6.354   4.927   1.694 -0.0890 -0.1554  0.0565
 4980TIP3    H136499   6.259   4.917   1.688 -0.0691 -0.9925  0.8640
 4980TIP3    H236500   6.369   4.969   1.778  0.2101  1.0961 -0.5974
 4981TIP3   OH236501   6.192   4.312   1.941  0.2906 -0.3965  0.4639
 4981TIP3    H136502   6.132   4.325   1.867 -0.1399 -0.8196  0.7312
 4981TIP3    H236503   6.173   4.384   2.001  1.3837  0.5624 -0.3113
 4982TIP3   OH236504   6.853   3.663   1.279 -0.1307 -0.2192  0.0613
 4982TIP3    H136505   6.916   3.733   1.264 -0.4404 -0.1150 -0.8188
 4982TIP3    H236506   6.888   3.615   1.354  1.4070 -0.6256 -0.8782
 4983TIP3   OH236507   0.528   5.235   6.745 -0.8465 -0.0097 -0.0030
 4983TIP3    H136508   0.587   5.160   6.743 -2.1326 -1.0467 -0.5667
 4983TIP3    H236509   0.582   5.308   6.714  0.7962 -0.3734  1.8048
 4984TIP3   OH236510   5.130   0.765   2.640 -0.0168  0.1340 -0.0925
 4984TIP3    H136511   5.138   0.830   2.710  0.5130  0.0929 -0.1106
 4984TIP3    H236512   5.201   0.786   2.580 -1.0815  0.8086 -1.1548
 4985TIP3   OH236513   1.388   2.505   7.780  0.5131  0.5781  0.1020
 4985TIP3    H136514   1.484   2.495   7.780  0.3349 -2.3866 -1.8221
 4985TIP3    H236515   1.369   2.556   7.702  0.4734 -1.0893 -1.0375
 4986TIP3   OH236516   5.986   3.734   7.369  0.0333  0.1876  0.0747
 4986TIP3    H136517   6.045   3.685   7.312 -1.4539 -1.1815 -0.3759
 4986TIP3    H236518   5.943   3.666   7.422 -0.5827  1.2111  0.9197
 4987TIP3   OH236519   4.524   5.138   1.225  0.0036 -0.3048 -0.3824
 4987TIP3    H136520   4.520   5.164   1.317  0.0052  0.7464 -0.6690
 4987TIP3    H236521   4.437   5.102   1.208 -0.3871  0.5634 -0.2690
 4988TIP3   OH236522   6.827   0.910   8.160  0.7974 -0.0949  0.8634
 4988TIP3    H136523   6.788   0.870   8.082  0.0763  0.6680  0.8185
 4988TIP3    H236524   6.895   0.968   8.126  0.8859 -0.2092  0.8439
 4989TIP3   OH236525   3.530   4.059   1.139 -0.5706  0.0660  0.2399
 4989TIP3    H136526   3.499   4.116   1.210  0.4848 -1.0542  1.6857
 4989TIP3    H236527   3.620   4.037   1.165 -0.7612 -1.8043 -0.5493
 4990TIP3   OH236528   4.082   3.848   8.527 -0.0430  0.5439  0.0899
 4990TIP3    H136529   4.071   3.835   8.621 -2.0849  0.6577 -0.0879
 4990TIP3    H236530   4.051   3.937   8.512 -0.4125  0.2698 -0.7929
 4991TIP3   OH236531   3.442   4.786   1.314 -0.6981 -0.1908  0.8179
 4991TIP3    H136532   3.432   4.763   1.406 -0.0516 -0.6922  0.7661
 4991TIP3    H236533   3.422   4.880   1.310  0.2852  0.0711  1.6428
 4992TIP3   OH236534   5.866   4.279   7.367 -0.2643  0.1221  0.1370
 4992TIP3    H136535   5.955   4.295   7.399 -0.4113 -0.2690  0.7597
 4992TIP3    H236536   5.868   4.189   7.337  0.0063  0.6313 -1.4549
 4993TIP3   OH236537   0.635   1.500   2.018 -0.2008  0.4445  0.1847
 4993TIP3    H136538   0.668   1.586   2.045 -0.6881 -0.0620  2.5581
 4993TIP3    H236539   0.669   1.489   1.929  2.8804  1.5640  1.1001
 4994TIP3   OH236540   1.570   0.958   1.536  0.1178 -0.1553 -1.0054
 4994TIP3    H136541   1.594   1.011   1.460  1.3764  1.2749  0.3203
 4994TIP3    H236542   1.642   0.896   1.545  0.9920  0.9668  0.1221
 4995TIP3   OH236543   0.157   3.299   0.459 -0.0816 -0.2525 -0.1065
 4995TIP3    H136544   0.219   3.372   0.469 -0.8750  0.6719 -1.6044
 4995TIP3    H236545   0.206   3.222   0.488  1.2433  0.6634  0.1941
 4996TIP3   OH236546   5.652   3.630   1.272 -0.5937 -0.1289 -0.1270
 4996TIP3    H136547   5.747   3.637   1.282 -0.1723 -2.2668 -1.8552
 4996TIP3    H236548   5.624   3.719   1.250  1.1868  0.2900 -0.8884
 4997TIP3   OH236549   0.195   4.893   1.449 -0.0070 -0.6263  0.5813
 4997TIP3    H136550   0.135   4.845   1.392 -0.0861  0.8771 -0.6828
 4997TIP3    H236551   0.265   4.924   1.390  1.1658 -0.9909  1.7343
 4998TIP3   OH236552   6.621   3.285   1.632  0.2222  0.0152 -0.2030
 4998TIP3    H136553   6.663   3.233   1.700 -0.8216 -1.5415 -0.6869
 4998TIP3    H236554   6.562   3.343   1.680  0.4010 -0.1987  0.2886
 4999TIP3   OH236555   6.621   4.587   1.001  0.7339  0.2697 -0.4286
 4999TIP3    H136556   6.560   4.585   0.927 -0.6882 -0.6774  0.7157
 4999TIP3    H236557   6.610   4.503   1.044  1.7805  0.6665  0.6822
 5000TIP3   OH236558   2.908   2.438   0.686 -0.4566 -0.2993  0.4549
 5000TIP3    H136559   2.956   2.509   0.644  0.2918 -0.8316  0.4063
 5000TIP3    H236560   2.916   2.364   0.626 -0.2247 -0.7735  1.0522
 5001TIP3   OH236561   1.731   5.086   0.379 -0.1411 -0.0060 -0.0901
 5001TIP3    H136562   1.722   5.003   0.332 -0.5156  0.5025 -0.9400
 5001TIP3    H236563   1.761   5.149   0.313 -2.4574  1.1515 -0.1529
 5002TIP3   OH236564   3.677   3.299   1.855 -0.4200  0.1397 -0.5665
 5002TIP3    H136565   3.609   3.357   1.888 -0.7313  0.2716 -1.4163
 5002TIP3    H236566   3.637   3.212   1.854  0.0013 -0.0797  0.5754
 5003TIP3   OH236567   5.531   4.318   8.150  0.1117  0.4620  0.8909
 5003TIP3    H136568   5.513   4.268   8.070  0.7828  0.1082  0.9450
 5003TIP3    H236569   5.521   4.254   8.221  1.7526  0.1719  0.9026
 5004TIP3   OH236570   6.342   0.012   7.460  0.1792  0.6837 -1.1020
 5004TIP3    H136571   6.340   0.093   7.409  0.9229  0.3991 -1.5998
 5004TIP3    H236572   6.429  -0.025   7.442  0.8684  1.0636  1.1457
 5005TIP3   OH236573   6.786   6.305   1.137 -0.3777 -0.1411 -0.0503
 5005TIP3    H136574   6.873   6.290   1.175 -0.5135 -1.2801 -0.1413
 5005TIP3    H236575   6.785   6.251   1.058 -1.0943  0.0283 -0.1645
 5006TIP3   OH236576   5.951   1.885   6.134  0.5025 -0.0106  0.3374
 5006TIP3    H136577   6.017   1.937   6.088  0.2572  0.1343  0.1435
 5006TIP3    H236578   5.995   1.804   6.157  0.4671 -0.3224 -0.6663
 5007TIP3   OH236579   2.262   4.332   2.288 -0.9537  0.8076 -0.5221
 5007TIP3    H136580   2.296   4.421   2.279 -0.6791  1.1597  2.7454
 5007TIP3    H236581   2.339   4.279   2.308 -0.9504 -0.4843 -3.4021
 5008TIP3   OH236582   5.586   3.994   0.510  0.0721 -0.1301 -0.4103
 5008TIP3    H136583   5.528   4.070   0.518  1.0939  0.6151  0.0376
 5008TIP3    H236584   5.659   4.012   0.569  0.3121 -1.4909 -0.2536
 5009TIP3   OH236585   4.777   4.047   0.357  0.2641 -0.1248 -0.0691
 5009TIP3    H136586   4.753   4.083   0.442 -1.3901  0.3911 -0.7153
 5009TIP3    H236587   4.804   3.957   0.375 -0.0400 -0.0078  0.9950
 5010TIP3   OH236588   1.463   3.647   1.963  0.4351  0.3183  0.1642
 5010TIP3    H136589   1.432   3.714   1.902  2.6509  0.0692 -1.3482
 5010TIP3    H236590   1.534   3.689   2.011 -0.3552  0.0519  1.6369
 5011TIP3   OH236591   3.163   2.041   1.701 -0.5474 -0.2748  0.2844
 5011TIP3    H136592   3.078   2.056   1.742 -0.0477 -0.0774  1.2872
 5011TIP3    H236593   3.223   2.099   1.748  0.3148 -1.0968  0.2349
 5012TIP3   OH236594   0.969   5.283   1.201 -0.0386  0.0801 -0.5509
 5012TIP3    H136595   1.061   5.304   1.219  0.1402 -1.2757  0.2877
 5012TIP3    H236596   0.922   5.313   1.279 -0.2441  0.3713 -0.7870
 5013TIP3   OH236597   0.426   0.199   1.577 -0.3634 -0.7108  0.0246
 5013TIP3    H136598   0.490   0.159   1.637  1.0090 -1.7758 -1.9992
 5013TIP3    H236599   0.362   0.241   1.634  1.0205 -1.3802  2.2050
 5014TIP3   OH236600   2.710   0.002   1.659  0.7743 -0.2578 -0.5751
 5014TIP3    H136601   2.654   0.074   1.630 -0.1195 -1.4934 -2.0384
 5014TIP3    H236602   2.676  -0.022   1.745  0.4179  0.3670 -0.5355
 5015TIP3   OH236603   5.920   1.952   0.064 -0.8172 -0.6585 -0.0574
 5015TIP3    H136604   5.857   1.907   0.121 -0.4286 -1.4143 -0.2197
 5015TIP3    H236605   5.873   1.964  -0.019 -1.0201 -0.4901  0.0787
 5016TIP3   OH236606   5.561   6.202   7.080 -0.4877  0.5078  0.0442
 5016TIP3    H136607   5.540   6.211   7.173 -1.0807  0.7072 -0.1047
 5016TIP3    H236608   5.487   6.241   7.035 -0.8565 -0.8244 -0.5409
 5017TIP3   OH236609   5.205   0.020   1.139 -0.4083  0.0877  0.1489
 5017TIP3    H136610   5.135   0.074   1.101  0.9029  0.9288 -1.1978
 5017TIP3    H236611   5.259   0.082   1.188 -0.0817 -0.3845  0.3957
 5018TIP3   OH236612   0.958   4.298   1.910 -0.0427  0.7453  0.2752
 5018TIP3    H136613   0.936   4.254   1.992 -1.3510  0.7138 -0.0670
 5018TIP3    H236614   0.905   4.378   1.910 -0.6647  0.3636 -0.8707
 5019TIP3   OH236615   6.799   5.049   6.687 -0.4013 -0.4908 -0.4317
 5019TIP3    H136616   6.832   5.045   6.597  0.0877  0.6391 -0.3082
 5019TIP3    H236617   6.744   5.127   6.689 -1.3783 -1.1772 -0.0564
 5020TIP3   OH236618   5.021   1.531   7.766  0.3004 -0.0815  0.1011
 5020TIP3    H136619   4.964   1.499   7.696  0.9254  1.3219 -1.1136
 5020TIP3    H236620   5.093   1.575   7.720  0.7433  0.8823  1.6311
 5021TIP3   OH236621   0.598   4.911   0.029 -0.1898  0.3293 -0.9342
 5021TIP3    H136622   0.596   4.858  -0.051 -1.3368  2.7480 -2.6322
 5021TIP3    H236623   0.684   4.953   0.028 -0.5506  1.0717 -1.4226
 5022TIP3   OH236624   4.938   2.970   2.480  0.2628  0.5704  0.3411
 5022TIP3    H136625   5.006   2.920   2.435 -0.9632 -0.6363 -0.2545
 5022TIP3    H236626   4.967   3.061   2.474  1.6031  0.1267 -0.2557
 5023TIP3   OH236627   4.695   4.086   7.914 -0.1878 -0.0244  0.0563
 5023TIP3    H136628   4.735   4.009   7.956 -0.5117  0.3400  1.0734
 5023TIP3    H236629   4.609   4.054   7.885  0.0958 -0.3193 -0.4672
 5024TIP3   OH236630   2.169   6.668   1.043  0.7396 -0.4058  0.0483
 5024TIP3    H136631   2.256   6.708   1.047  0.0609  1.0887  0.6998
 5024TIP3    H236632   2.148   6.665   0.950  0.1903  2.2758  0.0204
 5025TIP3   OH236633   5.322   3.277   1.063  0.1330  0.3571 -0.0684
 5025TIP3    H136634   5.243   3.224   1.054  0.1437  0.3440 -0.0877
 5025TIP3    H236635   5.346   3.300   0.973 -0.6470  1.5585  0.0099
 5026TIP3   OH236636   3.245   3.778   0.320 -0.0762 -0.6055 -0.1370
 5026TIP3    H136637   3.262   3.800   0.412 -0.8822 -2.1916  0.4245
 5026TIP3    H236638   3.201   3.856   0.285  0.1034 -0.0336  0.8593
 5027TIP3   OH236639   1.438   4.649   1.109  0.1140 -0.2533  1.2273
 5027TIP3    H136640   1.398   4.723   1.155 -1.2865 -0.4858  0.4355
 5027TIP3    H236641   1.523   4.681   1.080 -1.9559  2.4703 -2.5511
 5028TIP3   OH236642   5.027   0.649   7.042 -0.4066  0.6327 -0.7481
 5028TIP3    H136643   5.047   0.638   6.949 -1.9272 -1.7117 -0.8828
 5028TIP3    H236644   4.939   0.686   7.044 -0.2627  0.9585 -0.2160
 5029TIP3   OH236645   0.336   6.665   8.375 -0.0278  0.0027  0.0912
 5029TIP3    H136646   0.359   6.590   8.430  1.0485 -0.6066 -1.1443
 5029TIP3    H236647   0.342   6.632   8.285 -0.8667  1.2172 -0.4457
 5030TIP3   OH236648   1.876   4.556   8.400 -0.2086  0.2747  0.2038
 5030TIP3    H136649   1.802   4.611   8.373  0.2935 -0.3242 -2.7188
 5030TIP3    H236650   1.843   4.506   8.474 -1.4360  2.7875  1.4672
 5031TIP3   OH236651   1.261   3.913   0.337 -0.5171 -0.4506  0.2191
 5031TIP3    H136652   1.233   3.939   0.249 -1.6569 -1.9976  0.0792
 5031TIP3    H236653   1.218   3.976   0.395 -0.5911 -0.0490 -0.2579
 5032TIP3   OH236654   5.998   0.600   0.106 -0.5685  0.4225 -0.0043
 5032TIP3    H136655   6.006   0.550   0.187 -0.4658 -0.0118 -0.2824
 5032TIP3    H236656   5.922   0.563   0.062 -1.2297  1.3249  0.3594
 5033TIP3   OH236657   6.458   2.709   0.045  0.3606 -0.3723 -0.4822
 5033TIP3    H136658   6.385   2.718  -0.016 -0.5601  1.4998  0.7959
 5033TIP3    H236659   6.514   2.641   0.006 -1.9243 -1.7405 -1.6127
 5034TIP3   OH236660   3.961   0.083   7.603 -0.0365 -0.2148 -0.5015
 5034TIP3    H136661   3.968   0.000   7.555 -0.6453  0.6776 -2.2116
 5034TIP3    H236662   3.981   0.150   7.538  3.0950  0.9734  1.4235
 5035TIP3   OH236663   3.676   2.666   0.972  0.3577 -0.2331 -0.8438
 5035TIP3    H136664   3.674   2.742   1.031 -0.1856 -0.2361 -0.8529
 5035TIP3    H236665   3.744   2.610   1.008  1.6994  0.8503 -1.5735
 5036TIP3   OH236666   3.054   3.116   6.445  0.1758 -0.2765  0.4439
 5036TIP3    H136667   3.075   3.112   6.538  1.1694 -4.4332  0.2353
 5036TIP3    H236668   3.095   3.038   6.408 -1.6705  0.2641 -3.1847
 5037TIP3   OH236669   5.940   6.690   2.148  0.2041  0.7482 -0.4385
 5037TIP3    H136670   5.960   6.706   2.056  1.9025 -1.9422 -0.6612
 5037TIP3    H236671   5.999   6.748   2.196 -0.3364  1.7992 -1.0013
 5038TIP3   OH236672   1.515   3.631   1.314 -0.0284 -0.0048  0.2963
 5038TIP3    H136673   1.544   3.557   1.261  0.8176 -0.2858  1.1333
 5038TIP3    H236674   1.554   3.707   1.271  1.4753 -0.3186  1.0348
 5039TIP3   OH236675   1.967   4.213   7.858  0.4521 -0.1065 -0.4024
 5039TIP3    H136676   1.991   4.125   7.828  1.3813  0.0745 -0.2142
 5039TIP3    H236677   1.897   4.240   7.798  0.9181 -0.5383 -1.1525
 5040TIP3   OH236678   3.717   4.982   7.674 -0.2172 -0.1470  0.2850
 5040TIP3    H136679   3.806   4.967   7.705  0.1640  0.2915 -0.5545
 5040TIP3    H236680   3.664   4.914   7.717  0.6309 -0.8119  0.3036
 5041TIP3   OH236681   3.839   0.485   6.217  0.3035  0.0068  0.2552
 5041TIP3    H136682   3.836   0.555   6.282 -1.5575 -0.4603  0.7329
 5041TIP3    H236683   3.887   0.523   6.143 -0.1190  1.5755  0.7473
 5042TIP3   OH236684   5.543   5.032   1.085  0.0613 -0.6465 -0.2645
 5042TIP3    H136685   5.505   5.081   1.012 -1.3922  1.6851  1.8921
 5042TIP3    H236686   5.626   5.077   1.103  0.0547 -0.7423  0.0099
 5043TIP3   OH236687   4.127   6.822   1.132 -0.3745 -0.3341 -1.0510
 5043TIP3    H136688   4.133   6.885   1.061 -2.2726  0.2717 -0.7134
 5043TIP3    H236689   4.061   6.759   1.104 -1.0698 -0.1525  0.0933
 5044TIP3   OH236690   2.208   6.194   6.282  0.5836 -1.0815 -0.2639
 5044TIP3    H136691   2.209   6.283   6.317 -1.4972 -0.4668 -1.5931
 5044TIP3    H236692   2.167   6.142   6.350  1.3715 -0.9611  0.3209
 5045TIP3   OH236693   5.401   6.436   0.154  0.1714 -0.5485  0.1522
 5045TIP3    H136694   5.467   6.367   0.151  1.5060  0.6731  0.2995
 5045TIP3    H236695   5.451   6.517   0.150 -1.4039  0.4217 -0.7608
 5046TIP3   OH236696   2.817   4.723   0.118 -0.4571  0.2405 -0.1667
 5046TIP3    H136697   2.834   4.816   0.103  3.5576 -0.4915 -1.4749
 5046TIP3    H236698   2.852   4.706   0.206  1.0354 -0.3840 -0.8448
 5047TIP3   OH236699   3.070   3.368   8.120 -0.0589 -0.1357 -0.1158
 5047TIP3    H136700   3.006   3.314   8.167  0.0805 -0.9895 -0.8799
 5047TIP3    H236701   3.153   3.352   8.165 -0.5221  1.7608  1.5227
 5048TIP3   OH236702   2.029   6.937   2.373  0.2121 -0.1412 -0.2165
 5048TIP3    H136703   2.118   6.962   2.398  0.1859  0.2257 -0.4780
 5048TIP3    H236704   1.975   7.012   2.397 -0.0237 -0.3480 -0.0935
 5049TIP3   OH236705   6.940   1.835   1.061 -0.0768  0.0844 -0.1234
 5049TIP3    H136706   7.031   1.806   1.058  0.1287  0.6251  0.7831
 5049TIP3    H236707   6.928   1.884   0.980  0.7767  1.0018  0.2909
 5050TIP3   OH236708   6.366   2.873   1.643 -0.2048 -0.4666  0.2096
 5050TIP3    H136709   6.434   2.913   1.697  1.1383  0.9329 -2.3601
 5050TIP3    H236710   6.395   2.782   1.632  2.3081  0.5029 -2.2162
 5051TIP3   OH236711   4.793   3.616   2.000 -0.1717  0.2015  1.0224
 5051TIP3    H136712   4.745   3.609   2.082  0.2404 -0.2622  1.2304
 5051TIP3    H236713   4.734   3.579   1.934  0.5096 -1.9224  1.5246
 5052TIP3   OH236714   4.852   1.617   7.553  0.3558  0.9445  0.7252
 5052TIP3    H136715   4.920   1.585   7.493  0.2846  0.8231  0.7083
 5052TIP3    H236716   4.820   1.538   7.596 -0.2310  0.9268  0.2529
 5053TIP3   OH236717   5.599   1.933   0.803 -0.0790  0.0104  0.2338
 5053TIP3    H136718   5.683   1.899   0.834  0.7175  2.3771  0.8478
 5053TIP3    H236719   5.623   1.996   0.734 -1.3566  0.6811  0.3792
 5054TIP3   OH236720   4.063   6.356   7.870 -0.4862 -0.7172  0.0636
 5054TIP3    H136721   4.135   6.417   7.863  0.6127 -2.1011 -1.6008
 5054TIP3    H236722   4.028   6.350   7.781 -3.6576  0.9866  1.0469
 5055TIP3   OH236723   6.239   3.292   7.191  0.4169 -0.1505  0.6649
 5055TIP3    H136724   6.156   3.331   7.219  0.8160  1.9190 -0.7871
 5055TIP3    H236725   6.278   3.258   7.272 -0.7745  0.9900  1.7629
 5056TIP3   OH236726   3.828   2.780   8.278 -0.1540 -0.4630 -0.1772
 5056TIP3    H136727   3.771   2.856   8.266  0.9005  0.2033 -1.1175
 5056TIP3    H236728   3.784   2.728   8.346 -1.1990  0.6728  0.0541
 5057TIP3   OH236729   3.373   2.108   7.842 -0.0710  0.0332 -0.8471
 5057TIP3    H136730   3.311   2.139   7.775  0.8442  0.4920 -1.5028
 5057TIP3    H236731   3.323   2.109   7.923 -0.9328  0.3737 -1.3657
 5058TIP3   OH236732   0.191   5.237   6.601  0.3123 -0.2664  0.2211
 5058TIP3    H136733   0.114   5.293   6.607  0.2216 -0.4452  0.7835
 5058TIP3    H236734   0.261   5.287   6.643  0.2636 -0.5080  0.6029
 5059TIP3   OH236735   4.242   1.017   6.584  0.2889 -0.2925 -0.3712
 5059TIP3    H136736   4.305   1.087   6.603  0.1568 -0.1172 -0.5735
 5059TIP3    H236737   4.257   0.952   6.653  1.7609 -0.9802 -1.2846
 5060TIP3   OH236738   1.241   0.543   7.246  0.2044  0.4317 -0.0888
 5060TIP3    H136739   1.232   0.492   7.166 -0.4847 -0.8079  0.7527
 5060TIP3    H236740   1.152   0.551   7.280  0.4611  1.1325  0.4446
 5061TIP3   OH236741   6.465   2.408   7.505  0.2941  0.4052 -0.0540
 5061TIP3    H136742   6.412   2.328   7.493  0.6427  0.0884  0.4746
 5061TIP3    H236743   6.494   2.431   7.416 -0.9674  0.7583 -0.3957
 5062TIP3   OH236744   0.544   2.287   0.821  0.1644 -0.3366  0.1781
 5062TIP3    H136745   0.529   2.299   0.727  0.1442  0.1102  0.2356
 5062TIP3    H236746   0.479   2.343   0.863 -1.0396 -1.9423  0.4919
 5063TIP3   OH236747   6.666   1.335   2.019 -0.3884  0.0746 -0.0105
 5063TIP3    H136748   6.640   1.262   2.076  0.0872  0.2276  0.4142
 5063TIP3    H236749   6.726   1.387   2.073  1.0515 -0.4370 -1.0583
 5064TIP3   OH236750   5.342   5.208   8.160 -0.4334  0.1228  0.4610
 5064TIP3    H136751   5.418   5.159   8.128  0.1371  1.9694 -1.1908
 5064TIP3    H236752   5.267   5.158   8.127  0.1248  0.2019 -1.0185
 5065TIP3   OH236753   5.447   1.495   1.418  0.1283 -0.4234  0.6880
 5065TIP3    H136754   5.489   1.568   1.464 -0.3415  0.0823  0.3251
 5065TIP3    H236755   5.357   1.494   1.452  0.1799 -0.9456  0.8191
 5066TIP3   OH236756   2.570   3.790   0.711 -0.3628  0.1770  0.7561
 5066TIP3    H136757   2.521   3.734   0.771  2.1860  0.7160  3.6099
 5066TIP3    H236758   2.519   3.871   0.707 -1.5582 -0.5627  0.6201
 5067TIP3   OH236759   5.912   0.620   6.924  0.2829  0.2949  0.2962
 5067TIP3    H136760   5.858   0.553   6.883  1.8586 -0.6729 -0.3061
 5067TIP3    H236761   5.886   0.702   6.882  0.4871 -0.4008 -1.2652
 5068TIP3   OH236762   0.927   4.305   7.321  0.1457  0.8691  0.5194
 5068TIP3    H136763   0.997   4.258   7.276  0.4704 -0.1275  1.9919
 5068TIP3    H236764   0.847   4.257   7.297 -0.1595  2.3025 -1.5599
 5069TIP3   OH236765   5.015   2.373   7.939 -0.0133 -0.2916  0.1898
 5069TIP3    H136766   4.944   2.335   7.991 -0.3887 -1.7417 -1.2732
 5069TIP3    H236767   5.060   2.432   7.998 -0.5803 -1.6623  2.0805
 5070TIP3   OH236768   3.371   1.795   7.631 -0.1488  0.1863 -0.1633
 5070TIP3    H136769   3.392   1.747   7.550 -1.4556 -0.3020 -0.2374
 5070TIP3    H236770   3.292   1.845   7.609  0.7826  1.8845  0.1269
 5071TIP3   OH236771   0.963   0.143   2.695  0.0719 -0.1909 -0.7453
 5071TIP3    H136772   0.955   0.237   2.681  1.6925  0.1398  0.2399
 5071TIP3    H236773   1.049   0.121   2.660 -0.1359 -1.2478 -0.6321
 5072TIP3   OH236774   4.914   5.437   7.621  0.5460  0.1891 -0.5617
 5072TIP3    H136775   4.862   5.469   7.694 -0.6928 -1.2800 -0.7549
 5072TIP3    H236776   4.907   5.506   7.555 -1.0944  0.0835 -0.5423
 5073TIP3   OH236777   1.407   6.649   7.742  1.1783 -0.1585 -0.3480
 5073TIP3    H136778   1.381   6.617   7.829  1.3474  0.4146 -0.0860
 5073TIP3    H236779   1.502   6.639   7.742  1.2081  0.1461 -0.3502
 5074TIP3   OH236780   4.666   4.972   2.854 -0.7782 -0.3020  0.1950
 5074TIP3    H136781   4.637   4.911   2.786  0.8069  0.0264 -0.8184
 5074TIP3    H236782   4.625   4.939   2.934 -0.3935 -2.4072 -0.4145
 5075TIP3   OH236783   4.413   3.985   7.974  0.1080  0.0224 -0.2477
 5075TIP3    H136784   4.370   4.068   7.951  2.0083  1.1735  0.0679
 5075TIP3    H236785   4.355   3.917   7.940 -1.7160  1.4580 -0.1787
 5076TIP3   OH236786   6.879   1.564   0.774  0.4914  0.4435 -0.2144
 5076TIP3    H136787   6.856   1.612   0.695  0.7689  2.3042  0.7552
 5076TIP3    H236788   6.963   1.523   0.754 -0.2718 -0.5690 -1.4358
 5077TIP3   OH236789   1.771   2.622   7.250  0.4152 -0.2980 -0.0717
 5077TIP3    H136790   1.746   2.683   7.319  0.9815 -1.0694  0.8241
 5077TIP3    H236791   1.847   2.664   7.208 -1.0257  1.0680 -1.4879
 5078TIP3   OH236792   4.912   6.665   2.072 -0.4310  0.7567  0.1709
 5078TIP3    H136793   4.891   6.660   1.979  1.2752  0.4349 -0.2378
 5078TIP3    H236794   4.830   6.689   2.115 -1.4558  0.0128 -1.3137
 5079TIP3   OH236795   0.431   1.714   0.341  0.2415 -0.0139 -0.1081
 5079TIP3    H136796   0.447   1.652   0.412 -2.5650  0.5565  1.1981
 5079TIP3    H236797   0.391   1.662   0.271 -0.6283  0.0157  0.3490
 5080TIP3   OH236798   2.025   1.996   7.780  0.0913 -0.6822  0.0723
 5080TIP3    H136799   1.987   1.910   7.764  0.5877 -0.3849 -3.5972
 5080TIP3    H236800   2.069   1.988   7.865 -1.9052 -3.2141  1.0131
 5081TIP3   OH236801   0.441   1.065   1.809 -0.1753  0.3161  0.7123
 5081TIP3    H136802   0.349   1.053   1.829 -0.1607  0.8929  1.1428
 5081TIP3    H236803   0.463   1.150   1.845  0.1809  0.8341 -0.6493
 5082TIP3   OH236804   6.543   0.665   1.840 -0.6082  0.2040  0.5484
 5082TIP3    H136805   6.476   0.610   1.879  0.1526 -1.5581 -0.4908
 5082TIP3    H236806   6.573   0.616   1.763  0.4893  1.8400 -0.1408
 5083TIP3   OH236807   6.546   1.172   2.207 -0.3081 -0.3215 -0.1364
 5083TIP3    H136808   6.488   1.196   2.280 -0.9656 -0.0800 -0.7258
 5083TIP3    H236809   6.601   1.101   2.242 -0.7363 -0.3276  0.5384
 5084TIP3   OH236810   4.225   4.753   6.868 -0.2185  0.1975 -0.2114
 5084TIP3    H136811   4.275   4.719   6.794  1.1838 -0.3937  0.9630
 5084TIP3    H236812   4.142   4.783   6.829 -0.0740 -1.3006 -1.8074
 5085TIP3   OH236813   1.492   0.974   7.545 -0.2718 -0.0812 -0.2818
 5085TIP3    H136814   1.403   1.002   7.567  0.3742  0.5960  1.6564
 5085TIP3    H236815   1.486   0.878   7.542 -0.9464 -0.0794  0.4808
 5086TIP3   OH236816   3.868   5.630   1.891 -0.0640 -0.0334 -0.2324
 5086TIP3    H136817   3.962   5.627   1.909 -0.4181  0.4254  2.1468
 5086TIP3    H236818   3.837   5.707   1.939 -1.6293 -0.0291 -1.1793
 5087TIP3   OH236819   3.413   4.707   1.604  0.0225 -0.4500 -0.7595
 5087TIP3    H136820   3.404   4.626   1.654 -0.8074 -0.6877 -1.2685
 5087TIP3    H236821   3.473   4.760   1.656  1.5131 -1.8325 -0.9983
 5088TIP3   OH236822   1.885   1.418   6.590 -0.6272 -0.2859  0.5636
 5088TIP3    H136823   1.810   1.441   6.535 -0.7092 -1.0768  0.3347
 5088TIP3    H236824   1.856   1.341   6.640  0.1196 -0.7564  0.2830
 5089TIP3   OH236825   2.522   2.690   7.368  0.1222 -0.0250  0.2845
 5089TIP3    H136826   2.446   2.654   7.321 -0.3014  0.5023  0.5436
 5089TIP3    H236827   2.598   2.655   7.322 -0.2828 -0.4106 -0.1014
 5090TIP3   OH236828   6.739   0.808   0.850  0.2233  0.3494  0.0703
 5090TIP3    H136829   6.770   0.748   0.782  0.0925  0.3084  0.0458
 5090TIP3    H236830   6.667   0.855   0.808 -1.3931 -1.2891  0.8988
 5091TIP3   OH236831   1.106   3.732   1.028 -0.4219  0.6588 -0.2253
 5091TIP3    H136832   1.099   3.644   1.065 -1.0249  1.1297  0.8328
 5091TIP3    H236833   1.024   3.745   0.979  0.0865  0.2864 -1.2049
 5092TIP3   OH236834   3.663   3.431   7.169 -0.0295 -0.2864  0.2469
 5092TIP3    H136835   3.681   3.370   7.098  1.9452  1.8319 -1.2315
 5092TIP3    H236836   3.570   3.455   7.158 -0.1036 -1.0061 -0.7738
 5093TIP3   OH236837   1.252   4.387   8.503  0.1446  0.2758  0.0138
 5093TIP3    H136838   1.257   4.480   8.481 -0.1635 -0.0752 -1.6988
 5093TIP3    H236839   1.170   4.357   8.463 -0.1165 -0.5932  1.1535
 5094TIP3   OH236840   6.137   4.164   7.197 -0.0715  0.2302  0.6441
 5094TIP3    H136841   6.111   4.209   7.117 -1.7299  1.3199  1.7436
 5094TIP3    H236842   6.101   4.075   7.187 -2.1886  0.9848  1.0496
 5095TIP3   OH236843   3.952   6.477   1.387 -0.1371  0.3410 -0.2732
 5095TIP3    H136844   3.967   6.467   1.293  2.9119 -0.8441  0.2356
 5095TIP3    H236845   3.904   6.399   1.412  0.1740  0.0291 -0.6379
 5096TIP3   OH236846   0.081   4.073   6.591 -0.0549 -0.0804 -0.0811
 5096TIP3    H136847   0.053   3.987   6.623  0.2123 -0.8130 -1.7127
 5096TIP3    H236848   0.005   4.106   6.543  0.3233 -0.0787 -0.6978
 5097TIP3   OH236849   0.162   3.146   0.008  0.2458 -0.0395 -0.1705
 5097TIP3    H136850   0.243   3.097   0.018 -1.0408 -2.2753 -0.0864
 5097TIP3    H236851   0.109   3.121   0.084 -0.6380  1.1646 -0.3582
 5098TIP3   OH236852   4.660   3.677   0.655  0.1020  0.3067 -0.5803
 5098TIP3    H136853   4.735   3.686   0.714  1.0858 -0.2933 -1.7000
 5098TIP3    H236854   4.693   3.625   0.582 -1.6905 -0.8521 -0.6276
 5099TIP3   OH236855   2.822   5.711   8.210 -0.2845  0.4253 -0.0061
 5099TIP3    H136856   2.802   5.624   8.175  0.4182 -0.5380  1.8566
 5099TIP3    H236857   2.906   5.734   8.170 -0.1631 -0.0314 -0.0184
 5100TIP3   OH236858   5.721   6.412   8.462  0.0464 -0.1268  0.3951
 5100TIP3    H136859   5.678   6.475   8.405 -0.2344 -1.0794 -0.4835
 5100TIP3    H236860   5.734   6.459   8.544 -1.3125  0.6695  0.1940
 5101TIP3   OH236861   2.331   6.084   8.440 -0.4714  0.1117 -0.1817
 5101TIP3    H136862   2.358   6.030   8.366 -0.9892 -1.5851  0.8038
 5101TIP3    H236863   2.251   6.128   8.410 -0.4357 -0.2080 -0.7583
 5102TIP3   OH236864   3.577   2.133   8.076 -0.4789 -0.2953 -0.2775
 5102TIP3    H136865   3.592   2.074   8.002 -0.2021 -0.5947  0.0104
 5102TIP3    H236866   3.630   2.210   8.057  1.5804 -1.3587  0.7549
 5103TIP3   OH236867   3.004   2.886   0.341 -0.2872  0.1202 -0.4070
 5103TIP3    H136868   3.097   2.873   0.360  0.0224  2.4542  0.0397
 5103TIP3    H236869   2.997   2.875   0.246  0.6541  0.8976 -0.5852
 5104TIP3   OH236870   4.618   0.922   8.429  0.0830  0.1731  0.4096
 5104TIP3    H136871   4.573   0.862   8.490  1.0138  1.1384  2.1140
 5104TIP3    H236872   4.547   0.966   8.383 -0.6995  0.0045  1.4039
 5105TIP3   OH236873   2.614   1.020   7.921  0.3191  0.1122  0.6469
 5105TIP3    H136874   2.678   0.959   7.884 -0.1857  0.1651 -0.3344
 5105TIP3    H236875   2.665   1.097   7.945  1.0399 -0.8090  2.2820
 5106TIP3   OH236876   2.840   1.922   6.272  0.0412  1.1068 -0.5243
 5106TIP3    H136877   2.935   1.909   6.275 -0.2611 -1.5796  0.5039
 5106TIP3    H236878   2.824   1.997   6.330  1.4729  0.9958  0.0444
 5107TIP3   OH236879   3.913   5.986   8.106  0.3208  0.2888 -0.1014
 5107TIP3    H136880   3.883   6.003   8.017 -0.8919  0.1941  0.2811
 5107TIP3    H236881   3.905   6.071   8.150 -0.1493  0.0803  0.2184
 5108TIP3   OH236882   1.686   4.854   0.241  0.5866 -0.3601  0.3098
 5108TIP3    H136883   1.777   4.825   0.233  0.4997 -0.0179 -3.5619
 5108TIP3    H236884   1.635   4.775   0.223  0.1813  0.0012 -0.1298
 5109TIP3   OH236885   3.764   3.520   0.769 -0.1709 -0.5394 -0.1127
 5109TIP3    H136886   3.694   3.570   0.811  0.5365  1.2690 -0.9601
 5109TIP3    H236887   3.840   3.535   0.825  0.4255  0.6905 -1.2138
 5110TIP3   OH236888   6.786   2.431   8.206 -0.3260  0.0729  0.0214
 5110TIP3    H136889   6.795   2.418   8.300 -1.3655 -1.1386 -0.0284
 5110TIP3    H236890   6.761   2.523   8.197  0.4694  0.3852  0.8693
 5111TIP3   OH236891   6.285   6.915   7.094 -1.1219 -0.4812 -0.0091
 5111TIP3    H136892   6.286   6.896   7.188  0.1480  0.9782  0.3138
 5111TIP3    H236893   6.294   6.830   7.052  0.4181 -0.9883  1.2526
 5112TIP3   OH236894   2.812   3.140   6.535 -0.4491  0.1542 -0.1198
 5112TIP3    H136895   2.780   3.051   6.521 -0.2416  0.3775 -2.5551
 5112TIP3    H236896   2.898   3.142   6.491  0.1816  1.1908  1.0923
 5113TIP3   OH236897   2.054   2.276   0.892  0.1443  0.0066  0.1480
 5113TIP3    H136898   2.034   2.183   0.890 -1.3942  0.3139 -0.4557
 5113TIP3    H236899   2.115   2.287   0.964  0.6218 -1.5152 -0.0041
 5114TIP3   OH236900   6.082   0.426   0.336  0.0554  0.3204 -0.2250
 5114TIP3    H136901   6.101   0.518   0.356 -1.4011  0.7185 -0.5191
 5114TIP3    H236902   6.026   0.398   0.409 -0.2032 -0.0731 -0.5763
 5115TIP3   OH236903   2.387   4.600   0.367  0.9790 -0.5515  0.1766
 5115TIP3    H136904   2.395   4.584   0.461 -0.3687  1.0355  0.6100
 5115TIP3    H236905   2.434   4.683   0.354 -0.3075  0.1412 -0.2050
 5116TIP3   OH236906   6.393   2.709   1.940  0.3823 -0.0767 -0.6154
 5116TIP3    H136907   6.328   2.779   1.933  1.1979  0.6789 -0.7511
 5116TIP3    H236908   6.413   2.704   2.034 -1.1453 -1.5175 -0.3206
 5117TIP3   OH236909   5.225   4.440   0.302  0.6527  0.1972 -0.3957
 5117TIP3    H136910   5.225   4.458   0.208 -1.7208 -1.1368 -0.7403
 5117TIP3    H236911   5.238   4.346   0.309  0.7155  0.2621  0.6269
 5118TIP3   OH236912   3.207   0.726   0.860 -0.1812 -0.0416  0.4891
 5118TIP3    H136913   3.194   0.632   0.856 -0.3768  0.0033  0.0830
 5118TIP3    H236914   3.272   0.744   0.792 -0.7557  0.2259  0.0075
 5119TIP3   OH236915   1.791   2.989   7.612  0.0178  0.0329 -0.1960
 5119TIP3    H136916   1.762   3.080   7.616  0.4447  0.2253 -1.2371
 5119TIP3    H236917   1.862   2.983   7.676 -0.8733  0.0904  0.8186
 5120TIP3   OH236918   0.343   2.569   0.360 -0.5053 -0.0491 -0.0694
 5120TIP3    H136919   0.314   2.509   0.291  0.1804 -2.2195  1.4174
 5120TIP3    H236920   0.438   2.567   0.355 -0.2415 -2.9549  2.9402
 5121TIP3   OH236921   4.800   1.997   2.440  0.3850  0.3373  0.3083
 5121TIP3    H136922   4.761   2.079   2.408  1.4641  0.2838 -1.2883
 5121TIP3    H236923   4.894   2.015   2.443  0.6439 -0.8677 -0.1812
 5122TIP3   OH236924   0.295   4.543   1.463 -0.7916  0.1381  0.2145
 5122TIP3    H136925   0.255   4.535   1.549 -2.4014  2.4015 -0.2141
 5122TIP3    H236926   0.376   4.593   1.479 -0.2021 -0.9110  0.5865
 5123TIP3   OH236927   3.822   3.156   2.888  0.2005 -0.2830 -0.0548
 5123TIP3    H136928   3.789   3.067   2.878  0.3770 -0.5727  1.6843
 5123TIP3    H236929   3.902   3.157   2.837 -1.0223 -0.3773 -2.0803
 5124TIP3   OH236930   0.046   0.693   1.099 -0.3014  0.1880  0.4087
 5124TIP3    H136931   0.004   0.618   1.057  0.5195 -0.5040  0.7975
 5124TIP3    H236932   0.120   0.714   1.042 -1.1936  1.4737 -0.3336
 5125TIP3   OH236933   3.413   0.919   1.255  0.3126 -0.0135 -0.3420
 5125TIP3    H136934   3.486   0.912   1.194  0.1460 -1.9427 -0.4010
 5125TIP3    H236935   3.342   0.870   1.213 -1.3360  2.4441 -0.6526
 5126TIP3   OH236936   5.744   0.720   7.337 -0.0192  0.0897 -0.7496
 5126TIP3    H136937   5.794   0.753   7.411 -0.5737 -0.5099 -0.0908
 5126TIP3    H236938   5.719   0.631   7.363 -0.7623  0.1007 -1.3925
 5127TIP3   OH236939   0.158   5.514   7.531 -0.3612  0.2534 -0.3005
 5127TIP3    H136940   0.092   5.582   7.546 -2.5169 -1.2395 -2.2616
 5127TIP3    H236941   0.241   5.556   7.554 -1.9370  2.1614  2.5418
 5128TIP3   OH236942   4.276   3.279   7.121 -0.0239 -0.4025 -0.1056
 5128TIP3    H136943   4.193   3.232   7.110  0.0371 -0.7455  0.8111
 5128TIP3    H236944   4.331   3.218   7.171  1.1943 -0.6535 -1.6942
 5129TIP3   OH236945   3.467   3.802   7.977 -0.5338 -0.2318  0.2650
 5129TIP3    H136946   3.418   3.880   8.003 -3.1931 -1.7488  0.1974
 5129TIP3    H236947   3.508   3.772   8.058  1.9680  2.0428 -0.0134
 5130TIP3   OH236948   4.822   2.009   1.194 -0.1648  0.5437  0.0929
 5130TIP3    H136949   4.784   2.040   1.277  0.6232  1.4344  0.1451
 5130TIP3    H236950   4.750   1.967   1.148 -0.3889 -0.8926  1.6770
 5131TIP3   OH236951   0.943   1.726   1.819 -0.1881  0.3133 -0.3338
 5131TIP3    H136952   0.928   1.732   1.725  0.6555  0.5831 -0.4653
 5131TIP3    H236953   0.873   1.777   1.859 -1.4312 -1.0363 -0.7311
 5132TIP3   OH236954   5.221   5.170   1.947  0.5682  0.5817  0.0032
 5132TIP3    H136955   5.234   5.232   2.018  0.0202 -0.4090  0.9937
 5132TIP3    H236956   5.304   5.122   1.941 -0.0286 -0.6787  1.3319
 5133TIP3   OH236957   5.377   5.428   7.062 -0.5615 -0.1814 -0.4046
 5133TIP3    H136958   5.305   5.491   7.064 -0.6154 -0.2561  0.4673
 5133TIP3    H236959   5.452   5.476   7.097 -0.1780 -0.1024 -1.3131
 5134TIP3   OH236960   3.845   0.499   2.507 -0.5219 -0.1351  0.3206
 5134TIP3    H136961   3.756   0.532   2.499 -0.7485 -0.8222  0.0085
 5134TIP3    H236962   3.840   0.407   2.483  0.2292 -0.2429  0.5348
 5135TIP3   OH236963   6.217   5.454   1.074  0.1097  0.1503  0.4199
 5135TIP3    H136964   6.269   5.529   1.044  0.4390 -0.6961 -1.2174
 5135TIP3    H236965   6.276   5.405   1.131  0.7407 -0.1719 -0.4864
 5136TIP3   OH236966   0.874   1.766   1.550  0.1908  0.0826 -0.0977
 5136TIP3    H136967   0.872   1.843   1.493  0.7222  0.1200 -0.0702
 5136TIP3    H236968   0.923   1.700   1.500  3.2914  1.0232  1.3970
 5137TIP3   OH236969   0.245   2.201   0.422 -0.2740 -0.3048 -0.2531
 5137TIP3    H136970   0.265   2.139   0.352 -1.4561 -0.7107 -0.2414
 5137TIP3    H236971   0.167   2.248   0.391 -0.4755 -0.1006  0.5481
 5138TIP3   OH236972   6.839   3.538   7.381  0.0477  0.9972 -0.0816
 5138TIP3    H136973   6.812   3.461   7.332 -1.4920  1.6615 -0.3380
 5138TIP3    H236974   6.782   3.540   7.457  1.0597  1.0940  0.6932
 5139TIP3   OH236975   2.528   2.008   7.662  0.0712  0.7560  0.3063
 5139TIP3    H136976   2.530   2.085   7.719  0.1786  1.9429 -1.2361
 5139TIP3    H236977   2.603   2.020   7.604 -0.8169  0.2806 -0.9694
 5140TIP3   OH236978   2.180   3.467   7.523  0.1871  0.3000  0.1839
 5140TIP3    H136979   2.139   3.381   7.531 -1.5505  1.0167 -0.5433
 5140TIP3    H236980   2.258   3.452   7.470  0.4073 -0.9582  0.8229
 5141TIP3   OH236981   6.685   2.385   0.896 -0.2645  0.2670  0.0420
 5141TIP3    H136982   6.703   2.474   0.867 -3.0914  0.3264 -1.9677
 5141TIP3    H236983   6.681   2.391   0.992 -0.7333  2.3778 -0.0733
 5142TIP3   OH236984   0.981   3.273   8.220  0.0207  0.4183  0.1627
 5142TIP3    H136985   1.011   3.355   8.260  0.1602 -0.3945  1.8344
 5142TIP3    H236986   0.887   3.270   8.238 -0.1385  0.5774 -0.6081
 5143TIP3   OH236987   6.394   1.904   0.470 -0.5463 -0.0667 -0.2423
 5143TIP3    H136988   6.366   1.843   0.538  0.2169 -1.8703 -1.4899
 5143TIP3    H236989   6.487   1.919   0.488 -0.4955 -0.0546 -0.5122
 5144TIP3   OH236990   2.537   3.672   1.119 -0.0869 -0.4567  0.3476
 5144TIP3    H136991   2.499   3.727   1.188 -3.3730 -1.9174 -0.1153
 5144TIP3    H236992   2.592   3.609   1.166 -0.0294  0.3036  1.3367
 5145TIP3   OH236993   2.923   4.054   7.660 -0.1138 -0.1151 -0.5611
 5145TIP3    H136994   2.829   4.051   7.676 -0.3135 -0.0223 -1.6361
 5145TIP3    H236995   2.952   4.135   7.701 -0.9918  1.2537 -2.5068
 5146TIP3   OH236996   3.276   4.026   8.055 -0.0919  0.0988  0.0047
 5146TIP3    H136997   3.242   4.116   8.053 -0.6516 -0.1060  0.0575
 5146TIP3    H236998   3.202   3.973   8.027 -0.0058 -0.4204  0.7543
 5147TIP3   OH236999   5.413   5.249   2.470  0.1538 -0.3384  0.6714
 5147TIP3    H137000   5.468   5.259   2.392 -0.2591  1.4372  0.5528
 5147TIP3    H237001   5.329   5.218   2.436  0.6785 -1.8687  0.7129
 5148TIP3   OH237002   5.006   6.037   8.207 -0.4279  0.2713 -0.6339
 5148TIP3    H137003   5.068   5.987   8.155 -1.5286 -0.4853 -1.2619
 5148TIP3    H237004   5.011   6.126   8.173 -0.5143 -0.0365 -1.4705
 5149TIP3   OH237005   0.255   1.206   0.808 -0.0407  0.4099 -0.3793
 5149TIP3    H137006   0.286   1.200   0.717  1.2041  1.2585 -0.0470
 5149TIP3    H237007   0.202   1.127   0.821  3.2703 -2.0667 -0.5573
 5150TIP3   OH237008   5.858   4.162   7.688 -0.7012  0.3145 -0.5498
 5150TIP3    H137009   5.858   4.254   7.664  1.0433  0.2057 -1.0878
 5150TIP3    H237010   5.875   4.115   7.606  1.3236 -0.2916  0.1533
 5151TIP3   OH237011   6.220   0.373   7.800  0.4991 -0.0894  0.2114
 5151TIP3    H137012   6.168   0.312   7.748  0.0853  0.7981 -0.4238
 5151TIP3    H237013   6.171   0.382   7.882 -0.8280  1.3516 -0.6767
 5152TIP3   OH237014   5.528   1.408   7.326  0.7425 -0.1823  0.2454
 5152TIP3    H137015   5.488   1.356   7.396 -1.9865 -0.0815 -1.0956
 5152TIP3    H237016   5.465   1.478   7.310  1.1840 -0.2971 -2.3804
 5153TIP3   OH237017   6.370   4.463   0.744 -0.4102  0.1598 -0.0867
 5153TIP3    H137018   6.331   4.415   0.817 -1.8528 -0.4534 -1.2082
 5153TIP3    H237019   6.431   4.401   0.704 -0.1085  0.2729  0.1934
 5154TIP3   OH237020   1.625   6.533   0.030  0.1492  0.3602 -0.2300
 5154TIP3    H137021   1.652   6.544   0.121  0.6301 -1.8341 -0.0349
 5154TIP3    H237022   1.532   6.552   0.030 -0.0322 -0.3958  0.9270
 5155TIP3   OH237023   4.528   1.056   1.302  0.0605 -0.2430 -0.2103
 5155TIP3    H137024   4.458   1.118   1.281 -0.6994 -0.8477  0.4619
 5155TIP3    H237025   4.486   0.970   1.299  0.7064 -0.5930  0.4890
 5156TIP3   OH237026   5.017   3.379   0.483 -0.1990 -0.2294 -0.2047
 5156TIP3    H137027   5.039   3.303   0.536 -0.4405  0.3354  0.7270
 5156TIP3    H237028   5.052   3.359   0.396 -1.8693 -2.2013 -0.4891
 5157TIP3   OH237029   0.514   5.269   1.158  0.1941  0.0046  0.5110
 5157TIP3    H137030   0.502   5.280   1.064 -2.0404  0.9156  0.8426
 5157TIP3    H237031   0.605   5.243   1.167  0.8981  1.3793 -1.7780
 5158TIP3   OH237032   3.305   0.170   2.231  0.5104  0.2357 -0.3687
 5158TIP3    H137033   3.268   0.178   2.319  1.3526  0.6011 -0.0419
 5158TIP3    H237034   3.330   0.078   2.224 -0.0987  0.0690 -0.4556
 5159TIP3   OH237035   1.249   4.225   7.430 -0.2382  0.3680 -0.3684
 5159TIP3    H137036   1.192   4.203   7.356  0.8367 -1.9130 -0.6069
 5159TIP3    H237037   1.331   4.253   7.389  0.1973 -0.4387 -0.0679
 5160TIP3   OH237038   0.417   0.557   7.303 -0.5739 -0.4953  0.2009
 5160TIP3    H137039   0.443   0.649   7.296 -3.4990  0.3574 -1.0529
 5160TIP3    H237040   0.493   0.508   7.270  0.4606  1.5689 -0.6706
 5161TIP3   OH237041   4.881   4.003   1.105  1.0816  0.7674  0.0129
 5161TIP3    H137042   4.922   4.042   1.028  1.0811  0.0574 -0.3570
 5161TIP3    H237043   4.939   4.027   1.177  1.2689  1.1470 -0.2557
 5162TIP3   OH237044   6.350   3.407   7.944  0.1154 -0.1454  0.3069
 5162TIP3    H137045   6.431   3.457   7.951  2.2272 -3.2379 -0.1641
 5162TIP3    H237046   6.360   3.355   7.865 -1.9839 -1.2282  0.6840
 5163TIP3   OH237047   2.240   0.942   7.360 -0.7385  0.3991  0.1602
 5163TIP3    H137048   2.216   1.022   7.312  2.4148  0.2370 -2.0525
 5163TIP3    H237049   2.263   0.973   7.448 -4.2828  1.0865  0.9784
 5164TIP3   OH237050   0.351   1.421   7.150 -0.3372 -0.2711  0.0406
 5164TIP3    H137051   0.263   1.382   7.153 -0.4908 -0.0032 -0.5901
 5164TIP3    H237052   0.410   1.346   7.154 -0.5621 -0.3812  1.6460
 5165TIP3   OH237053   5.812   4.408   8.165  0.1951 -0.4153 -0.1700
 5165TIP3    H137054   5.722   4.384   8.144 -0.3075  0.6780  0.6593
 5165TIP3    H237055   5.819   4.394   8.259 -0.0263  2.2430  0.3148
 5166TIP3   OH237056   1.080   4.722   1.309 -0.5400  0.1896 -0.9465
 5166TIP3    H137057   1.137   4.687   1.377 -1.9148  0.3999  0.3714
 5166TIP3    H237058   1.060   4.646   1.253 -1.2466 -0.5484  0.2571
 5167TIP3   OH237059   6.331   4.121   1.156 -0.1585  0.1687 -0.0072
 5167TIP3    H137060   6.291   4.077   1.231 -0.8392 -0.7118 -0.8697
 5167TIP3    H237061   6.372   4.051   1.106  0.5599  0.7885 -0.3070
 5168TIP3   OH237062   3.520   6.068   7.836 -0.3837  0.7658 -0.4640
 5168TIP3    H137063   3.543   6.064   7.929 -0.6500  0.7087 -0.3975
 5168TIP3    H237064   3.521   6.162   7.815  1.4945  0.6867 -0.8818
 5169TIP3   OH237065   6.431   5.562   1.493 -0.2629 -0.5344 -0.7958
 5169TIP3    H137066   6.459   5.526   1.577  1.7622 -1.4950 -1.8232
 5169TIP3    H237067   6.434   5.657   1.505  0.5832 -0.6538  0.0530
 5170TIP3   OH237068   4.703   6.862   1.500  0.2079 -0.1478  0.1243
 5170TIP3    H137069   4.785   6.863   1.548  0.1906  0.3025  0.1480
 5170TIP3    H237070   4.693   6.951   1.467 -1.3054  0.3873  1.8930
 5171TIP3   OH237071   4.017   3.562   8.452  0.1085  0.5197 -0.5197
 5171TIP3    H137072   4.099   3.513   8.445  0.3507 -0.1153  3.8944
 5171TIP3    H237073   4.043   3.651   8.477 -0.5066  1.0754 -1.7926
 5172TIP3   OH237074   5.813   2.892   1.689 -0.1410 -0.0704  0.0391
 5172TIP3    H137075   5.785   2.979   1.661  0.1717  0.3384  0.9368
 5172TIP3    H237076   5.906   2.889   1.669 -0.1419 -0.1813  0.0523
 5173TIP3   OH237077   2.726   4.976   7.952 -0.1963  0.2346  0.2213
 5173TIP3    H137078   2.686   4.958   7.866  0.2368  0.5319 -0.0455
 5173TIP3    H237079   2.812   5.013   7.931 -0.1566  0.4634  0.7867
 5174TIP3   OH237080   5.892   5.130   8.288 -0.1581 -0.6415 -0.0913
 5174TIP3    H137081   5.892   5.053   8.231 -1.8004 -0.8580  0.1552
 5174TIP3    H237082   5.937   5.100   8.368  0.5701 -0.8708 -0.5805
 5175TIP3   OH237083   2.108   5.080   7.254 -0.6863 -0.5268  0.5494
 5175TIP3    H137084   2.013   5.086   7.247 -0.8037 -0.8867  1.6919
 5175TIP3    H237085   2.130   4.998   7.210 -0.6398  0.6471 -1.7422
 5176TIP3   OH237086   0.483   0.769   7.097 -0.0307 -0.0680  0.2510
 5176TIP3    H137087   0.519   0.804   7.178 -0.2419  0.6318  0.0559
 5176TIP3    H237088   0.446   0.846   7.053 -2.6377 -0.8693  0.8771
 5177TIP3   OH237089   0.707   6.272   0.197 -0.0509  0.0582  0.4296
 5177TIP3    H137090   0.684   6.301   0.109  0.7532  1.0936  0.5530
 5177TIP3    H237091   0.677   6.181   0.201  1.6711 -0.6589 -1.6010
 5178TIP3   OH237092   5.220   2.046   1.383 -0.1308 -0.2029  0.2318
 5178TIP3    H137093   5.145   2.091   1.422 -0.3859  0.1575 -0.6520
 5178TIP3    H237094   5.244   1.980   1.447 -0.4902  0.4235  1.0366
 5179TIP3   OH237095   2.085   0.838   8.198 -0.6031 -0.6901  0.3467
 5179TIP3    H137096   2.023   0.767   8.216 -3.5275  1.7685  0.8852
 5179TIP3    H237097   2.076   0.855   8.105 -1.8145  0.4769  0.6377
 5180TIP3   OH237098   1.567   0.079   0.850  0.1655  0.1630 -0.2231
 5180TIP3    H137099   1.542   0.171   0.855 -0.5204  0.0098 -0.6897
 5180TIP3    H237100   1.632   0.076   0.780 -0.2197  0.2097 -0.5855
 5181TIP3   OH237101   6.441   6.105   1.258  0.3956 -0.3348  0.2656
 5181TIP3    H137102   6.364   6.073   1.305  0.9775 -0.7314  0.9563
 5181TIP3    H237103   6.504   6.128   1.326  0.3897  1.3256 -0.2368
 5182TIP3   OH237104   2.693   2.611   0.075  0.3448  0.1191  0.4056
 5182TIP3    H137105   2.612   2.659   0.092  0.3410  0.1355  0.3415
 5182TIP3    H237106   2.709   2.562   0.156 -0.4283 -0.8984 -0.0362
 5183TIP3   OH237107   3.353   3.905   1.713 -0.6456  0.2499 -0.2759
 5183TIP3    H137108   3.442   3.873   1.723 -0.0439  2.0471  0.4662
 5183TIP3    H237109   3.327   3.879   1.624 -0.0116 -1.6709  0.0477
 5184TIP3   OH237110   5.390   0.188   7.978  0.2404 -0.1460  0.0289
 5184TIP3    H137111   5.404   0.153   7.890 -0.0712  0.0659 -0.1011
 5184TIP3    H237112   5.461   0.251   7.990  3.2358 -3.4276  1.6678
 5185TIP3   OH237113   0.278   2.460   7.022 -0.0033 -0.2081 -0.1808
 5185TIP3    H137114   0.336   2.498   6.956  0.6667 -0.1800  0.4058
 5185TIP3    H237115   0.338   2.421   7.087 -0.6333 -0.0557  0.5075
 5186TIP3   OH237116   1.060   1.797   7.750  0.1940  0.2205  0.7266
 5186TIP3    H137117   1.112   1.839   7.818  0.8060 -1.1409  1.1481
 5186TIP3    H237118   1.125   1.754   7.694 -0.4257 -0.6903  0.6920
 5187TIP3   OH237119   0.128   2.699   1.697 -0.2620  0.0599  0.3976
 5187TIP3    H137120   0.147   2.770   1.758 -1.8601 -0.3591  1.4587
 5187TIP3    H237121   0.149   2.620   1.746 -1.4860 -0.2794  0.4108
 5188TIP3   OH237122   0.423   0.186   8.212 -0.3060  0.1399 -0.1535
 5188TIP3    H137123   0.422   0.142   8.127  1.7117  0.5699 -0.4616
 5188TIP3    H237124   0.378   0.126   8.271 -3.1912  0.5289 -1.7919
 5189TIP3   OH237125   4.538   4.081   7.546 -0.0383  0.4710 -0.0073
 5189TIP3    H137126   4.478   4.029   7.492 -1.5555  0.2472  1.7721
 5189TIP3    H237127   4.619   4.085   7.496 -0.9390 -0.8334 -1.6634
 5190TIP3   OH237128   2.917   4.489   8.151  0.2873 -0.9259  0.1245
 5190TIP3    H137129   2.854   4.490   8.079  0.7947 -1.8368 -0.3542
 5190TIP3    H237130   2.892   4.564   8.205 -1.1372 -1.1971 -0.1021
 5191TIP3   OH237131   0.983   1.557   7.194  0.0059  0.2288  0.0192
 5191TIP3    H137132   0.977   1.615   7.118  1.0372 -1.1082 -1.1440
 5191TIP3    H237133   1.051   1.493   7.169 -0.9443 -1.3462  1.3251
 5192TIP3   OH237134   3.355   5.904   2.009  0.5240 -0.1858 -0.4754
 5192TIP3    H137135   3.424   5.954   1.967  1.0353  1.9496  2.5714
 5192TIP3    H237136   3.274   5.947   1.982  0.9132  1.9891  1.4624
 5193TIP3   OH237137   0.429   4.234   8.471  0.3174 -0.3934  0.7192
 5193TIP3    H137138   0.370   4.172   8.429 -0.6388  0.1428  1.2289
 5193TIP3    H237139   0.371   4.299   8.512  1.2824  0.9004  0.1157
 5194TIP3   OH237140   2.910   5.359   0.569 -0.7199 -0.1007  0.3075
 5194TIP3    H137141   2.884   5.282   0.519 -1.5035  0.6677 -0.5006
 5194TIP3    H237142   3.004   5.347   0.584 -0.7323 -0.9732 -0.2238
 5195TIP3   OH237143   0.860   1.230   7.506 -0.0952 -0.1492 -0.0159
 5195TIP3    H137144   0.833   1.319   7.480 -0.5786 -0.1086  0.5865
 5195TIP3    H237145   0.951   1.224   7.479 -0.6553 -0.2605 -2.0865
 5196TIP3   OH237146   4.696   2.850   1.974  0.7438 -0.4663 -0.2582
 5196TIP3    H137147   4.771   2.808   2.017 -0.7100 -1.2895  1.6284
 5196TIP3    H237148   4.735   2.906   1.908  2.9799 -1.6128 -0.0247
 5197TIP3   OH237149   1.581   3.536   7.862 -0.1272 -0.4592  0.3200
 5197TIP3    H137150   1.485   3.532   7.861 -0.1845 -0.4623 -2.7596
 5197TIP3    H237151   1.608   3.486   7.785  2.3233  0.4226  0.5091
 5198TIP3   OH237152   4.351   4.964   7.717  0.6232 -0.3123 -0.3700
 5198TIP3    H137153   4.288   4.984   7.648  1.7347  1.5515 -0.9058
 5198TIP3    H237154   4.416   5.034   7.711  2.4858 -1.8768  0.4859
 5199TIP3   OH237155   3.003   3.265   1.834 -0.1840  0.1726 -0.4947
 5199TIP3    H137156   2.934   3.294   1.774 -0.0046  0.1758 -0.7000
 5199TIP3    H237157   3.082   3.266   1.781 -0.1943 -0.8301 -0.5408
 5200TIP3   OH237158   2.049   6.737   0.129 -0.8210  0.0820 -0.1473
 5200TIP3    H137159   2.097   6.790   0.066 -1.3050  0.8559  0.1170
 5200TIP3    H237160   2.053   6.648   0.094 -0.4448  0.3749 -0.8722
 5201TIP3   OH237161   3.318   5.008   2.834  0.2507 -0.5215  0.2106
 5201TIP3    H137162   3.297   5.088   2.882  2.9196  0.7681 -0.5881
 5201TIP3    H237163   3.271   5.016   2.751  1.5117  0.8813 -0.3918
 5202TIP3   OH237164   6.450   4.328   8.370  0.3296  0.5457 -0.1186
 5202TIP3    H137165   6.359   4.300   8.382  0.6196  0.4692  2.4924
 5202TIP3    H237166   6.446   4.423   8.370  0.2394  0.5442  0.1162
 5203TIP3   OH237167   6.606   0.002   7.378  0.5231  0.0310  0.0612
 5203TIP3    H137168   6.637  -0.073   7.327 -1.7485  0.1664 -1.6653
 5203TIP3    H237169   6.636   0.079   7.330 -0.6186  0.1694 -0.4546
 5204TIP3   OH237170   6.868   3.146   0.174 -0.1589  0.2319  0.2624
 5204TIP3    H137171   6.795   3.094   0.141  0.5752 -0.1403 -0.8550
 5204TIP3    H237172   6.860   3.143   0.269 -1.4060 -0.0572  0.1591
 5205TIP3   OH237173   5.024   4.316   1.215  0.2692  0.3460  0.5763
 5205TIP3    H137174   4.940   4.358   1.237  0.0015  0.2113 -0.1546
 5205TIP3    H237175   5.047   4.353   1.130  0.9814  0.4139  0.7919
 5206TIP3   OH237176   6.084   2.805   1.641  0.0841 -0.6754  0.3017
 5206TIP3    H137177   6.112   2.738   1.703 -1.2354 -1.3490  0.2217
 5206TIP3    H237178   6.165   2.843   1.607  0.9075  0.7555  3.4625
 5207TIP3   OH237179   1.122   0.062   7.372 -1.0527 -0.1200  0.6974
 5207TIP3    H137180   1.082   0.148   7.355  0.4158  0.2686 -1.1442
 5207TIP3    H237181   1.067   0.000   7.324 -0.2626  0.2481 -0.7389
 5208TIP3   OH237182   0.209   0.369   7.296  0.3466 -0.2808 -0.2757
 5208TIP3    H137183   0.119   0.393   7.316  0.1184 -0.7896 -0.6885
 5208TIP3    H237184   0.262   0.438   7.338 -0.1111 -1.2167  1.9636
 5209TIP3   OH237185   2.491   2.735   0.194  0.0655 -0.5037  0.5386
 5209TIP3    H137186   2.481   2.820   0.236  1.1533 -0.0147 -0.1349
 5209TIP3    H237187   2.464   2.672   0.260  0.6756  0.3024  1.5875
 5210TIP3   OH237188   0.622   6.079   8.001  0.2903 -0.3487  0.2881
 5210TIP3    H137189   0.665   6.050   8.082  2.0562 -0.7428 -0.7415
 5210TIP3    H237190   0.546   6.020   7.992  1.0963 -1.4938  0.7293
 5211TIP3   OH237191   2.487   2.570   8.226  0.0805  0.1570 -0.2350
 5211TIP3    H137192   2.398   2.536   8.243  0.3366 -0.5968 -0.3448
 5211TIP3    H237193   2.479   2.620   8.145 -0.4358  0.8703  0.2458
 5212TIP3   OH237194   6.292   0.769   7.183 -0.2633 -0.3484  0.4468
 5212TIP3    H137195   6.338   0.821   7.117  0.0057 -0.0480  0.8762
 5212TIP3    H237196   6.269   0.830   7.252  0.7558 -0.9344  1.3312
 5213TIP3   OH237197   4.895   5.329   8.286 -0.4097 -0.1194  0.4462
 5213TIP3    H137198   4.974   5.290   8.323 -0.3361  2.6226  3.6596
 5213TIP3    H237199   4.926   5.379   8.210  0.5420 -0.8135  0.3605
 5214TIP3   OH237200   1.601   4.284   2.426  0.2708  0.6903  0.0751
 5214TIP3    H137201   1.598   4.374   2.459 -0.5502  0.8275 -0.3210
 5214TIP3    H237202   1.675   4.283   2.367 -0.0682  1.2895 -0.3821
 5215TIP3   OH237203   0.847   1.148   1.505 -0.1215  0.1291 -0.3757
 5215TIP3    H137204   0.757   1.144   1.473  0.1272 -1.1371 -0.9837
 5215TIP3    H237205   0.890   1.072   1.465  0.8090 -0.1896  1.1471
 5216TIP3   OH237206   1.553   2.126   7.280 -0.3853 -0.5667  0.5902
 5216TIP3    H137207   1.483   2.181   7.315 -1.2628 -0.3205 -1.4000
 5216TIP3    H237208   1.631   2.180   7.284 -0.0287 -1.1270  3.6277
 5217TIP3   OH237209   3.084   3.418   6.468 -0.3919 -0.4617 -0.4212
 5217TIP3    H137210   3.073   3.334   6.422  0.8736 -0.0019 -1.6399
 5217TIP3    H237211   3.160   3.404   6.524 -0.8248 -0.4420  0.1789
 5218TIP3   OH237212   0.656   3.881   1.346 -0.6405 -0.2895 -0.1291
 5218TIP3    H137213   0.697   3.946   1.289 -0.2477  0.0626  0.5361
 5218TIP3    H237214   0.563   3.885   1.324 -1.0455  2.2302  1.4895
 5219TIP3   OH237215   2.771   4.222   0.507 -0.3783  0.0582  0.1054
 5219TIP3    H137216   2.799   4.309   0.533 -0.0116 -0.7793  2.8021
 5219TIP3    H237217   2.683   4.235   0.471 -0.2890  1.5514  0.3844
 5220TIP3   OH237218   3.933   5.858   8.462  0.7479 -0.2018  0.0860
 5220TIP3    H137219   3.875   5.826   8.531  1.5723 -1.9512  0.0232
 5220TIP3    H237220   3.959   5.946   8.491  0.2213 -0.4756  1.4613
 5221TIP3   OH237221   5.953   1.362   7.687 -0.1977  0.8104 -0.0117
 5221TIP3    H137222   5.883   1.297   7.676  0.1110  0.3333  0.7481
 5221TIP3    H237223   6.022   1.333   7.627 -0.0587  0.4315  0.3287
 5222TIP3   OH237224   2.639   1.753   0.090 -0.1565  0.0384 -0.1894
 5222TIP3    H137225   2.679   1.790   0.169 -0.0050  0.1595 -0.3254
 5222TIP3    H237226   2.669   1.809   0.019  0.5683 -0.7096 -0.4809
 5223TIP3   OH237227   5.885   4.599   8.524 -0.5455 -0.2863  0.2148
 5223TIP3    H137228   5.859   4.671   8.582  1.1706  1.6851 -1.3207
 5223TIP3    H237229   5.976   4.581   8.546 -1.4414 -3.5750  1.9989
 5224TIP3   OH237230   2.619   2.248   7.313 -0.2862 -0.0259 -0.3151
 5224TIP3    H137231   2.680   2.314   7.279 -1.6240  1.2479 -0.3499
 5224TIP3    H237232   2.562   2.297   7.371 -1.1469 -1.2294 -0.1271
 5225TIP3   OH237233   6.711   1.209   6.436 -0.6101  0.2408 -0.1230
 5225TIP3    H137234   6.647   1.164   6.382  1.5231 -3.9241  0.3779
 5225TIP3    H237235   6.670   1.215   6.522 -2.4298  3.1602 -1.0533
 5226TIP3   OH237236   3.585   6.246   7.216  0.0120 -0.2303 -0.0201
 5226TIP3    H137237   3.613   6.334   7.238  2.2325 -0.2399 -2.3519
 5226TIP3    H237238   3.510   6.258   7.158 -0.1430  0.0888  0.2440
 5227TIP3   OH237239   1.720   2.617   6.741  0.0844  0.4375  0.3982
 5227TIP3    H137240   1.768   2.534   6.741  2.2632  1.6180 -0.8460
 5227TIP3    H237241   1.770   2.674   6.800 -0.7556  1.1978  0.3955
 5228TIP3   OH237242   4.329   1.938   1.794 -0.0422 -0.0428  0.5264
 5228TIP3    H137243   4.375   2.006   1.745 -2.2697  1.3705  0.2473
 5228TIP3    H237244   4.332   1.968   1.885 -1.0833  0.4949  0.3941
 5229TIP3   OH237245   3.400   6.650   2.287  0.1282 -0.0424 -0.0201
 5229TIP3    H137246   3.486   6.627   2.250 -0.9813 -0.7480 -2.3335
 5229TIP3    H237247   3.378   6.733   2.244  0.0942  0.7211  1.4097
 5230TIP3   OH237248   2.585   1.474   0.337 -0.1229  0.5312  0.1552
 5230TIP3    H137249   2.623   1.472   0.249  0.5263  0.6429  0.4206
 5230TIP3    H237250   2.544   1.560   0.344 -0.7783  0.2579 -0.2775
 5231TIP3   OH237251   4.044   3.856   7.794 -0.1531  0.5613 -0.0492
 5231TIP3    H137252   3.986   3.832   7.867  0.0874 -1.1721 -0.3928
 5231TIP3    H237253   4.064   3.948   7.810  0.3304  0.1186  2.4063
 5232TIP3   OH237254   0.738   4.488   1.906  0.4065  0.6406  0.1723
 5232TIP3    H137255   0.674   4.490   1.977  0.8449  0.0040  0.5930
 5232TIP3    H237256   0.685   4.485   1.826 -0.0897  0.3194  0.5050
 5233TIP3   OH237257   1.843   2.575   7.810 -0.9112  0.6146 -0.1026
 5233TIP3    H137258   1.828   2.503   7.749  1.4438  0.0191 -0.0487
 5233TIP3    H237259   1.934   2.566   7.837 -1.5601  1.4784  2.7186
 5234TIP3   OH237260   2.414   3.542   2.054  0.5690 -0.0701  0.3269
 5234TIP3    H137261   2.322   3.557   2.031  0.6037 -1.2970 -0.7515
 5234TIP3    H237262   2.422   3.575   2.143 -0.7828  0.5505  0.2529
 5235TIP3   OH237263   1.542   4.065   7.082  0.3770 -0.2917 -0.2691
 5235TIP3    H137264   1.554   4.103   6.995  1.2195  0.7378  0.2724
 5235TIP3    H237265   1.447   4.057   7.091  0.2350  0.4550 -0.9228
 5236TIP3   OH237266   4.946   1.101   1.949 -0.4823  0.0889  0.0323
 5236TIP3    H137267   4.878   1.033   1.946  0.0184 -0.3828 -0.6636
 5236TIP3    H237268   4.937   1.139   2.037 -2.0227  0.4257 -0.2343
 5237TIP3   OH237269   4.548   4.942   1.694 -0.4356  0.3357 -0.0721
 5237TIP3    H137270   4.469   4.889   1.692 -0.9489  1.1042 -2.1917
 5237TIP3    H237271   4.586   4.934   1.607  0.2340  2.2741 -0.0246
 5238TIP3   OH237272   1.822   6.273   8.295  0.1055  0.2897 -0.7107
 5238TIP3    H137273   1.773   6.233   8.223  0.2107 -1.3687  0.1095
 5238TIP3    H237274   1.757   6.285   8.364  0.6991 -1.4933  0.2112
 5239TIP3   OH237275   3.814   0.060   1.408 -0.5532  1.0078  0.0714
 5239TIP3    H137276   3.865  -0.019   1.426 -0.6433  0.9460  0.0576
 5239TIP3    H237277   3.743   0.030   1.351 -1.5153  0.7906  1.3435
 5240TIP3   OH237278   6.613   2.690   1.604 -0.4750 -0.0246  0.4349
 5240TIP3    H137279   6.694   2.726   1.567 -1.1216  1.5911  0.5095
 5240TIP3    H237280   6.642   2.632   1.675  0.6713 -1.1130 -0.8625
 5241TIP3   OH237281   1.328   6.737   0.282 -0.0413  0.1731  0.0583
 5241TIP3    H137282   1.234   6.754   0.274 -0.0311 -0.2237 -1.0495
 5241TIP3    H237283   1.343   6.734   0.377 -1.2757 -0.4478  0.2629
 5242TIP3   OH237284   3.234   2.173   0.892  0.4879 -0.2837  0.0788
 5242TIP3    H137285   3.306   2.150   0.833  0.1153 -0.2823 -0.3793
 5242TIP3    H237286   3.276   2.223   0.963  0.7328  1.0112 -0.9401
 5243TIP3   OH237287   6.728   6.017   1.676 -0.1691 -0.5189 -0.5049
 5243TIP3    H137288   6.699   5.947   1.734 -0.7455 -2.7112 -3.1827
 5243TIP3    H237289   6.810   5.985   1.638  1.1166  1.6097  0.2845
 5244TIP3   OH237290   4.975   3.177   7.245  0.6982 -0.1468 -0.1227
 5244TIP3    H137291   5.063   3.204   7.271  0.1212  0.3366  1.4398
 5244TIP3    H237292   4.945   3.121   7.316 -1.0358  1.3721  0.4119
 5245TIP3   OH237293   4.710   4.497   7.189 -0.1875 -0.3964 -0.6166
 5245TIP3    H137294   4.707   4.521   7.096  0.3848  1.2157 -0.2622
 5245TIP3    H237295   4.803   4.506   7.212 -0.3296 -0.7628  0.1114
 5246TIP3   OH237296   1.807   4.455   0.162 -0.2761 -0.0600  0.6194
 5246TIP3    H137297   1.740   4.388   0.175 -0.6191  0.1442 -0.0446
 5246TIP3    H237298   1.883   4.407   0.128 -0.0131 -0.3191  1.5567
 5247TIP3   OH237299   2.003   3.514   2.370 -0.4942 -0.4045 -0.4972
 5247TIP3    H137300   2.074   3.577   2.359 -0.6452 -0.1103  0.1369
 5247TIP3    H237301   1.923   3.566   2.361 -0.6240 -0.5933 -0.4509
 5248TIP3   OH237302   5.262   6.254   2.104 -0.0236  0.8200 -0.1690
 5248TIP3    H137303   5.332   6.314   2.078  0.5563  0.2434  0.0294
 5248TIP3    H237304   5.207   6.306   2.163  0.0219  1.3902 -0.6171
 5249TIP3   OH237305   4.257   6.327   0.353  0.4672  0.7415  0.4986
 5249TIP3    H137306   4.180   6.309   0.407 -0.7687  1.3646 -0.9749
 5249TIP3    H237307   4.250   6.420   0.332  0.5178  0.3792 -1.2678
 5250TIP3   OH237308   1.265   3.160   1.326 -0.1490 -0.1290 -0.3413
 5250TIP3    H137309   1.232   3.177   1.415  0.4616 -0.0867 -0.1195
 5250TIP3    H237310   1.186   3.153   1.273 -0.5156  0.2139  0.1404
 5251TIP3   OH237311   5.303   3.941   1.814  0.5245 -0.3101 -0.4140
 5251TIP3    H137312   5.331   4.029   1.792 -0.2815 -0.0919 -0.6198
 5251TIP3    H237313   5.383   3.889   1.814  0.9138  0.2763 -0.9696
 5252TIP3   OH237314   1.487   6.024   6.997 -0.6292 -0.3564  0.2622
 5252TIP3    H137315   1.456   6.052   6.911  1.2862  0.3614 -0.2497
 5252TIP3    H237316   1.492   5.929   6.992 -1.0330 -0.3507 -0.2410
 5253TIP3   OH237317   0.308   6.234   2.162 -0.6938  0.3590  0.4442
 5253TIP3    H137318   0.289   6.315   2.210  1.0531  0.4717  1.0204
 5253TIP3    H237319   0.317   6.262   2.071 -0.3936  0.7860  0.5987
 5254TIP3   OH237320   5.047   1.842   8.115  0.4927  0.0286 -0.2395
 5254TIP3    H137321   5.075   1.871   8.202 -1.5259 -0.2056  0.5220
 5254TIP3    H237322   4.974   1.899   8.092 -0.9301 -1.7842 -0.4567
 5255TIP3   OH237323   0.949   4.427   2.213  0.5138 -0.4388 -0.7976
 5255TIP3    H137324   0.857   4.439   2.235  0.9440  1.5734  0.1722
 5255TIP3    H237325   0.980   4.360   2.273  0.2223  0.6708  0.6460
 5256TIP3   OH237326   2.338   6.341   7.769  0.1948 -0.4916 -0.0202
 5256TIP3    H137327   2.278   6.278   7.810  0.0244 -1.3976 -1.5641
 5256TIP3    H237328   2.425   6.312   7.797  0.0236 -0.0771  1.0118
 5257TIP3   OH237329   0.063   2.352   8.451  0.4807  0.4075 -0.0093
 5257TIP3    H137330   0.152   2.384   8.436  0.2503  0.7464 -0.7428
 5257TIP3    H237331   0.047   2.292   8.378 -0.0448  0.6967 -0.1384
 5258TIP3   OH237332   6.793   6.058   7.596 -0.0696 -0.0961 -0.2583
 5258TIP3    H137333   6.876   6.096   7.567 -1.5372  1.8443 -2.2836
 5258TIP3    H237334   6.750   6.030   7.516 -1.7970 -0.0968  0.6096
 5259TIP3   OH237335   6.762   4.865   0.689 -0.0182 -0.2543  0.1612
 5259TIP3    H137336   6.786   4.806   0.760 -1.1703 -1.4059 -0.3561
 5259TIP3    H237337   6.685   4.911   0.722 -0.9733 -1.2782 -0.5288
 5260TIP3   OH237338   1.873   5.702   0.851 -0.4550 -0.2938 -0.1473
 5260TIP3    H137339   1.852   5.629   0.908 -1.6902  0.7332  0.7868
 5260TIP3    H237340   1.822   5.775   0.886 -0.3137  0.6796 -1.8398
 5261TIP3   OH237341   5.639   4.691   6.895  0.0397 -0.1782  0.6858
 5261TIP3    H137342   5.700   4.763   6.910  1.0110 -0.7935 -0.1681
 5261TIP3    H237343   5.649   4.634   6.971 -2.6645  1.8202  2.7206
 5262TIP3   OH237344   0.116   1.985   6.862  0.3142  0.2305 -0.3832
 5262TIP3    H137345   0.081   1.897   6.852  1.9981 -0.9254  2.5696
 5262TIP3    H237346   0.185   1.990   6.796  1.6283 -1.5678  0.7421
 5263TIP3   OH237347   1.609   6.935   2.212 -0.4051 -0.3706  0.1186
 5263TIP3    H137348   1.525   6.961   2.250 -1.4932 -0.4323 -2.0741
 5263TIP3    H237349   1.586   6.899   2.127  2.0292  1.6877 -1.5398
 5264TIP3   OH237350   1.050   4.979   6.834 -0.3859  0.4402  0.5741
 5264TIP3    H137351   1.142   4.966   6.858 -0.7282 -1.6166  0.9399
 5264TIP3    H237352   1.052   4.996   6.740  0.3617  0.1870  0.5350
 5265TIP3   OH237353   6.055   5.035   0.011 -0.0172 -0.1153  0.1703
 5265TIP3    H137354   6.148   5.016   0.005  0.1554  1.0447 -1.3305
 5265TIP3    H237355   6.045   5.082   0.094  0.7985  0.1031  0.1511
 5266TIP3   OH237356   5.914   2.650   7.112 -0.0482  0.1770 -0.2160
 5266TIP3    H137357   5.929   2.557   7.127 -1.1125  0.2226  1.4051
 5266TIP3    H237358   5.865   2.653   7.029  0.2260 -0.6781 -0.4162
 5267TIP3   OH237359   1.898   1.205   7.094 -0.1711  0.5636 -0.6477
 5267TIP3    H137360   1.875   1.262   7.167  0.0464  0.4037 -0.4526
 5267TIP3    H237361   1.918   1.264   7.022 -0.2772  0.7244 -0.5451
 5268TIP3   OH237362   4.983   4.480   7.281 -0.1881  0.0759  0.5345
 5268TIP3    H137363   5.037   4.517   7.212 -1.5887  1.5154  0.1495
 5268TIP3    H237364   5.044   4.460   7.352  0.8391  1.7579  0.1658
 5269TIP3   OH237365   5.084   3.104   1.071  0.5303  0.2622 -0.6653
 5269TIP3    H137366   5.004   3.133   1.113 -0.5792 -2.3882 -0.7621
 5269TIP3    H237367   5.056   3.066   0.987  1.5616 -2.3679  0.0765
 5270TIP3   OH237368   0.772   1.951   2.358 -0.4961 -0.7491  0.1483
 5270TIP3    H137369   0.828   2.028   2.366  1.7713 -2.4029  1.2530
 5270TIP3    H237370   0.737   1.937   2.446 -2.8311  0.2807 -0.5312
 5271TIP3   OH237371   5.873   4.357   2.100 -0.4738 -0.0671  0.9824
 5271TIP3    H137372   5.796   4.382   2.048 -0.0307  1.0380  0.8176
 5271TIP3    H237373   5.947   4.387   2.048  0.0428 -0.4622  1.4810
 5272TIP3   OH237374   6.051   1.715   7.178  0.2196 -0.5682  0.3750
 5272TIP3    H137375   6.006   1.649   7.230  0.4522 -0.9794  0.0651
 5272TIP3    H237376   6.142   1.712   7.209  0.1919 -0.2675  0.4846
 5273TIP3   OH237377   6.833   4.971   7.163 -0.1774 -0.4231  0.6911
 5273TIP3    H137378   6.868   5.027   7.094 -0.0041  1.0887  1.9677
 5273TIP3    H237379   6.907   4.955   7.221 -0.1031 -2.3787  0.1475
 5274TIP3   OH237380   6.531   2.344   1.628  0.4200 -0.3706  0.3372
 5274TIP3    H137381   6.604   2.358   1.567  1.8721 -0.9782  1.8469
 5274TIP3    H237382   6.544   2.411   1.695  0.5878 -1.5228  1.4904
 5275TIP3   OH237383   4.382   3.064   2.400 -0.2852  0.2976 -0.0494
 5275TIP3    H137384   4.474   3.053   2.427 -0.1082  2.5928  0.4722
 5275TIP3    H237385   4.345   2.976   2.405  1.9620 -0.7575 -0.6158
 5276TIP3   OH237386   6.475   4.290   1.457 -0.0354 -0.6581  0.3209
 5276TIP3    H137387   6.535   4.237   1.509  0.9857 -0.9919 -1.1337
 5276TIP3    H237388   6.532   4.340   1.399 -1.1100  0.2115 -0.0242
 5277TIP3   OH237389   2.281   2.276   1.099  0.4388  0.3779 -0.4258
 5277TIP3    H137390   2.371   2.243   1.090 -0.9805 -4.2321 -0.1486
 5277TIP3    H237391   2.280   2.320   1.184  1.9608 -1.7370  0.7956
 5278TIP3   OH237392   4.787   5.994   7.768  0.0003  0.6864 -0.2755
 5278TIP3    H137393   4.694   6.004   7.750 -0.0218 -0.0412 -0.5569
 5278TIP3    H237394   4.791   5.978   7.863 -0.2748 -0.7172 -0.4904
 5279TIP3   OH237395   1.010   0.041   1.731  0.6101  0.2531  0.4665
 5279TIP3    H137396   0.966   0.125   1.716  0.3186  0.4244  2.0552
 5279TIP3    H237397   0.938  -0.023   1.734  0.7977 -0.0051 -0.3584
 5280TIP3   OH237398   4.646   3.860   2.043 -0.0734  0.6495  0.1679
 5280TIP3    H137399   4.558   3.875   2.078 -0.6285 -0.5856 -0.6297
 5280TIP3    H237400   4.702   3.921   2.091 -1.2271  0.8556  1.2963
 5281TIP3   OH237401   4.584   3.561   7.338 -0.2976  0.0858  0.2017
 5281TIP3    H137402   4.489   3.574   7.331 -0.5318 -0.9867  1.1267
 5281TIP3    H237403   4.597   3.470   7.314  0.3171 -0.1607  1.3854
 5282TIP3   OH237404   1.082   5.589   0.396  0.2380 -0.0606 -0.0936
 5282TIP3    H137405   1.042   5.592   0.309  1.1869 -0.2054 -0.5403
 5282TIP3    H237406   1.085   5.496   0.418  0.2989 -0.0465 -0.0437
 5283TIP3   OH237407   6.657   6.453   0.675  0.4311  0.4760  0.3507
 5283TIP3    H137408   6.610   6.471   0.756 -1.3051 -1.6478 -0.0780
 5283TIP3    H237409   6.596   6.476   0.605  0.2905 -1.4450 -0.2425
 5284TIP3   OH237410   6.533   4.876   2.225 -0.7925  0.6314 -0.8401
 5284TIP3    H137411   6.575   4.957   2.256 -0.6985  0.7664 -1.3184
 5284TIP3    H237412   6.456   4.867   2.281  1.4161 -1.2537  2.2043
 5285TIP3   OH237413   3.684   2.752   6.276  0.6755  0.0282 -0.0411
 5285TIP3    H137414   3.628   2.721   6.204  0.1684  0.2687  0.2414
 5285TIP3    H237415   3.624   2.801   6.333  1.2597  0.6488  0.0538
 5286TIP3   OH237416   6.731   0.973   2.250 -0.2920  0.0438  0.2883
 5286TIP3    H137417   6.736   0.909   2.321  0.3326 -0.4805 -0.2181
 5286TIP3    H237418   6.798   0.945   2.188  1.2872  2.2672  0.9026
 5287TIP3   OH237419   3.941   3.162   8.357 -0.1288 -0.0976  0.2454
 5287TIP3    H137420   3.923   3.232   8.294 -1.7768 -0.8138 -0.1543
 5287TIP3    H237421   3.905   3.195   8.440 -1.8826 -0.8303 -0.1714
 5288TIP3   OH237422   1.500   0.920   8.223  1.2209  0.1050 -0.2721
 5288TIP3    H137423   1.476   0.829   8.204  0.4447  0.5392 -1.5278
 5288TIP3    H237424   1.489   0.929   8.318 -0.0819 -0.7395 -0.3146
 5289TIP3   OH237425   0.122   3.011   2.469 -0.1285 -0.2321  0.0172
 5289TIP3    H137426   0.143   2.957   2.545 -1.4062 -4.0524 -2.0471
 5289TIP3    H237427   0.037   3.050   2.490  1.1723  1.8412  1.8714
 5290TIP3   OH237428   4.542   2.468   0.749 -0.0205 -0.1209 -0.0291
 5290TIP3    H137429   4.554   2.556   0.714  0.5165 -0.2896 -0.2710
 5290TIP3    H237430   4.629   2.441   0.778 -0.0764 -0.7697 -0.4357
 5291TIP3   OH237431   5.307   6.059   7.477  0.1081 -0.3380 -0.2905
 5291TIP3    H137432   5.349   6.023   7.399 -3.2965 -1.9290 -1.5992
 5291TIP3    H237433   5.314   5.989   7.543  1.9423  0.5498  0.5333
 5292TIP3   OH237434   6.872   2.820   7.214 -0.0962  0.6783  1.0212
 5292TIP3    H137435   6.879   2.907   7.175 -0.4688  0.0973 -0.4046
 5292TIP3    H237436   6.948   2.812   7.271  1.9651  0.6136 -1.5553
 5293TIP3   OH237437   1.224   5.933   8.057 -0.2344  0.2373 -0.5848
 5293TIP3    H137438   1.173   5.870   8.005 -0.3342  0.1724 -0.4091
 5293TIP3    H237439   1.291   5.965   7.996  0.0033 -0.2612 -0.5930
 5294TIP3   OH237440   4.328   0.342   0.382 -0.1353 -0.1214  0.0616
 5294TIP3    H137441   4.361   0.307   0.465  0.6062  0.5812  0.0705
 5294TIP3    H237442   4.239   0.306   0.375  0.2300 -1.1679  0.5591
 5295TIP3   OH237443   5.319   2.820   6.992 -0.4972  0.0840 -0.4615
 5295TIP3    H137444   5.336   2.754   6.926 -0.6277  0.4125 -0.8280
 5295TIP3    H237445   5.353   2.783   7.073  2.2222  0.7885 -1.1775
 5296TIP3   OH237446   4.935   6.927   0.074  0.1511 -0.0085  0.0610
 5296TIP3    H137447   4.877   6.931   0.150  0.8434 -0.7191  0.6378
 5296TIP3    H237448   4.908   6.849   0.026  0.1831  0.0417 -0.0413
 5297TIP3   OH237449   1.294   2.647   7.376 -0.2511 -0.3722 -0.1354
 5297TIP3    H137450   1.269   2.647   7.283  1.9444 -0.2617 -0.7903
 5297TIP3    H237451   1.388   2.628   7.375 -0.3514 -1.2532  2.1440
 5298TIP3   OH237452   1.956   4.679   8.004 -0.0136  0.2145  0.1288
 5298TIP3    H137453   1.984   4.593   8.035  0.5566  0.2491 -0.2681
 5298TIP3    H237454   1.900   4.660   7.928 -1.8727  0.1045  1.4527
 5299TIP3   OH237455   0.534   1.735   2.585  0.3395  0.1143 -0.0292
 5299TIP3    H137456   0.565   1.731   2.494  0.8660 -0.5369  0.1636
 5299TIP3    H237457   0.539   1.644   2.615 -1.2380  0.0754  0.2027
 5300TIP3   OH237458   2.708   6.338   2.378  0.3027  0.8475  0.1121
 5300TIP3    H137459   2.632   6.355   2.433 -1.7240  0.0035 -2.2397
 5300TIP3    H237460   2.771   6.295   2.436 -0.4194  2.7764  2.4609
 5301TIP3   OH237461   6.582   3.146   0.229 -0.1866  0.2081  0.1180
 5301TIP3    H137462   6.588   3.133   0.324 -0.2210  1.0360  0.2443
 5301TIP3    H237463   6.546   3.064   0.196 -0.4604  0.0193  0.8531
 5302TIP3   OH237464   4.363   1.276   6.646 -0.3608 -0.4154 -0.6482
 5302TIP3    H137465   4.281   1.292   6.693 -0.0682  0.1822 -0.3387
 5302TIP3    H237466   4.374   1.354   6.591 -0.1639 -0.6402 -0.9250
 5303TIP3   OH237467   5.192   1.907   1.904  0.0325 -0.3510 -0.2094
 5303TIP3    H137468   5.179   1.902   1.999 -1.4382 -1.9960 -0.4383
 5303TIP3    H237469   5.148   1.987   1.877  0.0034 -0.1457  0.4276
 5304TIP3   OH237470   6.850   0.152   0.643  0.2616 -0.3005 -0.7519
 5304TIP3    H137471   6.774   0.164   0.586  0.4839 -0.5484 -1.1042
 5304TIP3    H237472   6.908   0.225   0.622 -0.4591  0.6843  0.4889
 5305TIP3   OH237473   6.937   1.210   0.613  0.2350  0.2441  0.1906
 5305TIP3    H137474   6.993   1.135   0.593  0.6342  0.2591  1.2021
 5305TIP3    H237475   6.996   1.285   0.610  0.3077  0.2454  1.3875
 5306TIP3   OH237476   0.043   3.469   2.071 -0.2699 -0.3116 -0.6979
 5306TIP3    H137477   0.059   3.541   2.010  2.1386 -1.4750 -1.5507
 5306TIP3    H237478   0.064   3.505   2.157  2.3865 -0.3046 -1.2632
 5307TIP3   OH237479   5.300   5.162   0.398 -0.1451 -0.2648 -0.1038
 5307TIP3    H137480   5.311   5.240   0.344 -0.7554 -0.8645 -1.1221
 5307TIP3    H237481   5.369   5.169   0.464  0.4531  0.6209 -0.7972
 5308TIP3   OH237482   3.041   3.853   6.528 -0.2198 -0.2748  0.3096
 5308TIP3    H137483   3.032   3.945   6.555  1.1879 -0.4902  1.6514
 5308TIP3    H237484   2.968   3.839   6.467 -1.6271  1.1852  1.5394
 5309TIP3   OH237485   6.300   1.058   7.558  0.4460  0.0377 -0.3054
 5309TIP3    H137486   6.283   0.967   7.585  2.8341 -0.5002 -0.3606
 5309TIP3    H237487   6.360   1.091   7.624 -0.1888  1.5256 -0.4458
 5310TIP3   OH237488   5.977   1.573   2.461  0.4289  0.0825 -0.3503
 5310TIP3    H137489   5.933   1.498   2.499 -0.7537  0.3080 -1.2327
 5310TIP3    H237490   5.949   1.575   2.369  1.5838  0.7543 -0.7175
 5311TIP3   OH237491   5.634   1.925   7.734 -0.4621 -0.2641  0.6323
 5311TIP3    H137492   5.622   1.923   7.639 -0.7456  2.5223  0.5240
 5311TIP3    H237493   5.656   1.835   7.757  1.7884 -0.6221 -2.3426
 5312TIP3   OH237494   2.992   5.738   2.048  0.4942  0.2168  0.3231
 5312TIP3    H137495   2.943   5.663   2.013 -0.1547  0.4588  0.6845
 5312TIP3    H237496   2.989   5.803   1.978  1.4252 -0.2371 -0.1592
 5313TIP3   OH237497   2.402   5.693   0.249 -0.5157  0.2009 -0.0809
 5313TIP3    H137498   2.492   5.721   0.261 -1.0104  2.0193 -0.3487
 5313TIP3    H237499   2.356   5.770   0.216 -1.7630 -1.2037 -1.9339
 5314TIP3   OH237500   1.222   3.628   8.028 -0.3626 -0.3541 -0.5762
 5314TIP3    H137501   1.240   3.555   7.969 -1.2109 -1.6332  0.6709
 5314TIP3    H237502   1.127   3.625   8.041 -0.2027 -0.0901  0.7922
 5315TIP3   OH237503   5.406   2.675   7.502  0.3309  0.6287 -0.0644
 5315TIP3    H137504   5.326   2.622   7.510  0.8006 -0.0434  0.2773
 5315TIP3    H237505   5.470   2.629   7.557  0.6996  1.6535  0.3782
 5316TIP3   OH237506   1.501   6.847   1.981  0.1404  0.6425 -0.4407
 5316TIP3    H137507   1.532   6.901   1.908  1.3098 -0.5789 -0.8891
 5316TIP3    H237508   1.443   6.783   1.940  0.5487  0.1506 -0.2619
 5317TIP3   OH237509   6.610   1.638   6.754 -0.1393  0.2561 -0.0810
 5317TIP3    H137510   6.682   1.700   6.741  1.5212 -1.3154  1.0204
 5317TIP3    H237511   6.623   1.572   6.687  1.3571 -1.6260  1.9217
 5318TIP3   OH237512   6.023   5.235   1.238 -0.2050 -0.4947  0.2013
 5318TIP3    H137513   6.024   5.294   1.313  1.1428 -0.5224  0.2320
 5318TIP3    H237514   6.113   5.239   1.203 -0.4430 -1.5259 -0.5796
 5319TIP3   OH237515   5.085   4.059   0.028 -0.2839 -0.3687 -0.1061
 5319TIP3    H137516   5.140   4.104  -0.035  2.0592 -0.4219  1.7556
 5319TIP3    H237517   5.043   3.989  -0.022 -0.3749  1.0131 -2.0489
 5320TIP3   OH237518   3.974   1.095   6.551  0.3940  0.1929  0.6971
 5320TIP3    H137519   4.056   1.058   6.585 -0.1648 -1.0188  0.7429
 5320TIP3    H237520   3.952   1.164   6.614  0.9635 -0.0002  1.1185
 5321TIP3   OH237521   5.370   4.792   0.140 -0.1412 -0.4857  0.2880
 5321TIP3    H137522   5.277   4.781   0.123 -0.1638 -0.3379  0.3158
 5321TIP3    H237523   5.376   4.801   0.235 -0.0646 -0.8159  0.3185
 5322TIP3   OH237524   3.957   0.565   2.732  0.0728 -0.0686 -0.1161
 5322TIP3    H137525   3.916   0.497   2.786  0.9785 -0.6109 -0.0868
 5322TIP3    H237526   3.925   0.548   2.644 -1.7153  1.0511  0.2687
 5323TIP3   OH237527   2.762   0.434   0.823 -0.3874 -0.4230 -0.0304
 5323TIP3    H137528   2.841   0.393   0.787 -1.0492 -0.0680 -2.0436
 5323TIP3    H237529   2.696   0.364   0.821 -0.6466 -0.1769 -0.3417
 5324TIP3   OH237530   3.756   3.312   6.953  0.6252 -0.0890  0.2425
 5324TIP3    H137531   3.803   3.240   6.911  1.5777  0.8801 -0.4377
 5324TIP3    H237532   3.670   3.313   6.911  0.7196 -0.6253  0.0322
 5325TIP3   OH237533   2.709   2.396   6.919 -0.4579 -0.3358  0.2768
 5325TIP3    H137534   2.637   2.359   6.869 -1.2744 -0.8495  1.7647
 5325TIP3    H237535   2.760   2.446   6.855 -3.2007  1.6891 -0.5263
 5326TIP3   OH237536   6.201   3.669   7.839 -0.0007 -0.6378 -0.1241
 5326TIP3    H137537   6.187   3.756   7.877 -0.6194 -0.7929  0.0072
 5326TIP3    H237538   6.130   3.616   7.874  0.6802 -1.3434  0.2221
 5327TIP3   OH237539   5.816   1.689   7.619 -0.0822 -0.4404 -0.6542
 5327TIP3    H137540   5.866   1.749   7.564 -0.3073  2.3520  1.9789
 5327TIP3    H237541   5.882   1.640   7.668  0.0944 -0.0834 -0.5330
 5328TIP3   OH237542   2.309   2.242   1.860  0.1239 -0.0988  0.3270
 5328TIP3    H137543   2.403   2.231   1.846  0.0107  1.2342 -1.8342
 5328TIP3    H237544   2.269   2.191   1.790 -0.7732 -0.0091  0.7648
 5329TIP3   OH237545   2.129   5.712   8.527  0.2838 -0.2143 -0.0136
 5329TIP3    H137546   2.086   5.764   8.459  2.0421  0.3833 -0.7330
 5329TIP3    H237547   2.100   5.750   8.610 -1.3993 -0.5557 -0.4116
 5330TIP3   OH237548   0.475   1.509   0.533 -0.0716 -1.1890  0.0184
 5330TIP3    H137549   0.545   1.457   0.493 -0.5380 -0.4064 -1.9813
 5330TIP3    H237550   0.402   1.449   0.542  0.1514 -1.4643 -0.0083
 5331TIP3   OH237551   5.391   1.386   7.960 -0.2310  0.4632  0.0540
 5331TIP3    H137552   5.414   1.380   7.868  1.5195 -0.3608  0.5020
 5331TIP3    H237553   5.344   1.305   7.979  1.3857 -0.4528  0.3545
 5332TIP3   OH237554   1.392   0.159   1.568 -0.3960 -0.5281  0.9382
 5332TIP3    H137555   1.437   0.171   1.484  0.8303  1.9957  1.8442
 5332TIP3    H237556   1.458   0.118   1.625 -0.3968 -0.0166  1.3168
 5333TIP3   OH237557   2.520   3.808   7.475  0.4312 -0.2846  0.4575
 5333TIP3    H137558   2.506   3.797   7.569  0.8417 -2.0797  0.3511
 5333TIP3    H237559   2.598   3.755   7.456  0.1420 -0.2508 -0.9456
 5334TIP3   OH237560   3.230   1.733   8.467 -0.5550  0.6191 -0.5182
 5334TIP3    H137561   3.203   1.705   8.380 -1.6056 -1.1313  0.3075
 5334TIP3    H237562   3.278   1.658   8.503 -0.5338  1.1283  0.5750
 5335TIP3   OH237563   5.969   0.680   0.551  0.0462 -0.2421  0.1398
 5335TIP3    H137564   6.064   0.682   0.537 -0.1778 -1.3670 -1.9950
 5335TIP3    H237565   5.952   0.754   0.609  2.3212 -0.5615  1.3604
 5336TIP3   OH237566   4.490   1.458   7.893 -0.5382  0.1728 -0.0490
 5336TIP3    H137567   4.424   1.437   7.960 -0.0270  0.1040  0.4436
 5336TIP3    H237568   4.494   1.554   7.894 -0.5143  0.1714  0.0352
 5337TIP3   OH237569   4.563   3.014   0.422 -0.4892 -0.1896 -0.8999
 5337TIP3    H137570   4.657   3.031   0.423 -0.4946 -0.1156  0.9925
 5337TIP3    H237571   4.529   3.072   0.353  0.4509  2.2178  0.5226
 5338TIP3   OH237572   0.139   0.914   6.774 -0.8297 -0.0464  0.4246
 5338TIP3    H137573   0.116   0.841   6.717 -2.6007  1.0719 -0.3971
 5338TIP3    H237574   0.171   0.982   6.714  1.0447 -0.1940  1.1953
 5339TIP3   OH237575   4.253   6.135   7.366  0.1197 -0.1760  1.0278
 5339TIP3    H137576   4.158   6.147   7.372 -0.1035 -0.3421 -1.2136
 5339TIP3    H237577   4.274   6.077   7.439 -1.2016  1.2087  2.6051
 5340TIP3   OH237578   5.885   1.520   7.933 -0.0302  0.0328 -0.2235
 5340TIP3    H137579   5.910   1.476   7.852 -0.2222  0.9356 -0.7833
 5340TIP3    H237580   5.789   1.523   7.930 -0.0517 -0.2116  0.1882
 5341TIP3   OH237581   1.729   4.553   0.916  0.1414 -0.5030  0.1031
 5341TIP3    H137582   1.697   4.557   0.826 -0.3555  1.8081  0.3144
 5341TIP3    H237583   1.815   4.512   0.909  0.1616 -0.2631 -1.4382
 5342TIP3   OH237584   0.570   3.799   8.411  0.4635  0.1144  0.3740
 5342TIP3    H137585   0.541   3.840   8.330  1.5384  1.2045  0.4980
 5342TIP3    H237586   0.581   3.872   8.472  0.4767 -0.5944  1.2379
 5343TIP3   OH237587   1.317   4.720   7.211 -0.0915  0.3487 -0.1916
 5343TIP3    H137588   1.241   4.665   7.230  0.2260 -0.3809 -0.9500
 5343TIP3    H237589   1.279   4.804   7.183 -0.5692  0.8338  1.7480
 5344TIP3   OH237590   2.818   5.013   0.083 -0.2027  0.2908 -0.1536
 5344TIP3    H137591   2.855   4.997  -0.003  2.0010 -0.4519  0.8663
 5344TIP3    H237592   2.850   5.100   0.108 -0.6440  0.4070  0.0281
 5345TIP3   OH237593   3.905   3.141   7.807  0.3239  0.2929  0.1428
 5345TIP3    H137594   3.850   3.182   7.740  0.2816 -2.5121 -1.6934
 5345TIP3    H237595   3.993   3.172   7.788  0.4230 -1.0257 -1.7633
 5346TIP3   OH237596   6.586   0.482   1.633  0.4602 -0.4381  0.4174
 5346TIP3    H137597   6.571   0.400   1.587 -0.4642  0.7938 -1.6145
 5346TIP3    H237598   6.668   0.515   1.597  0.8556 -0.4702  1.2632
 5347TIP3   OH237599   1.407   2.667   2.168  1.0372  0.1079 -0.3404
 5347TIP3    H137600   1.397   2.676   2.073 -2.7931 -1.2977 -0.2332
 5347TIP3    H237601   1.404   2.756   2.202  1.9572  0.5914 -1.4577
 5348TIP3   OH237602   1.259   6.674   7.193  0.0516  0.3529 -0.3961
 5348TIP3    H137603   1.341   6.627   7.206 -1.3196 -2.3496 -0.8470
 5348TIP3    H237604   1.196   6.627   7.248 -1.6446  0.9495 -1.7381
 5349TIP3   OH237605   1.041   2.602   1.219  0.0077 -0.2907  0.2314
 5349TIP3    H137606   1.021   2.692   1.194  1.7399 -0.2062 -1.0950
 5349TIP3    H237607   0.986   2.585   1.295 -1.4324  1.3788 -0.3705
 5350TIP3   OH237608   3.094   2.960   8.275 -0.1211  0.2731 -0.2039
 5350TIP3    H137609   3.167   2.905   8.304 -1.4095 -1.0396  0.7254
 5350TIP3    H237610   3.121   3.049   8.297  0.7117 -0.2986  1.2522
 5351TIP3   OH237611   6.468   4.693   2.041  0.3599  0.0503 -0.3524
 5351TIP3    H137612   6.493   4.753   2.111  0.5595  1.0348 -1.2480
 5351TIP3    H237613   6.479   4.606   2.079 -2.2517  0.5403  1.8142
 5352TIP3   OH237614   6.188   1.039   1.721  0.7544  0.2368 -0.0362
 5352TIP3    H137615   6.145   1.024   1.806  0.5735 -0.6710 -0.2773
 5352TIP3    H237616   6.268   1.087   1.743 -0.0180  1.3002  0.4941
 5353TIP3   OH237617   1.840   6.882   0.204 -0.3730 -0.5254 -0.0966
 5353TIP3    H137618   1.912   6.819   0.206  0.1594  0.0642 -0.0476
 5353TIP3    H237619   1.802   6.878   0.291  1.0935  0.8005  0.6631
 5354TIP3   OH237620   5.048   4.283   0.621  0.3668 -0.2602 -0.1666
 5354TIP3    H137621   5.089   4.216   0.567 -0.3297 -1.5535  0.8380
 5354TIP3    H237622   5.012   4.346   0.559  0.8940 -0.9035 -1.1501
 5355TIP3   OH237623   4.440   2.056   7.413 -0.3177  0.6488  0.4000
 5355TIP3    H137624   4.394   1.974   7.396  1.3016 -0.2661  0.2200
 5355TIP3    H237625   4.377   2.124   7.389 -0.7437 -0.5351 -2.2186
 5356TIP3   OH237626   1.388   1.484   7.311 -0.3042 -0.5280  0.5565
 5356TIP3    H137627   1.430   1.569   7.302 -0.8781 -0.1856  1.0816
 5356TIP3    H237628   1.452   1.431   7.359  0.1311 -0.4612  0.0610
 5357TIP3   OH237629   4.361   4.529   0.332  0.5703  0.2760 -0.1001
 5357TIP3    H137630   4.330   4.607   0.380 -1.0779 -0.0033 -0.6490
 5357TIP3    H237631   4.370   4.559   0.242 -1.1572 -0.4110 -0.5320
 5358TIP3   OH237632   0.555   5.407   7.085 -0.3616  0.8020  0.3942
 5358TIP3    H137633   0.641   5.429   7.122 -0.0662 -1.0130  0.8683
 5358TIP3    H237634   0.552   5.456   7.002  1.4069  0.4223  0.0690
 5359TIP3   OH237635   0.676   1.525   1.345  0.0210 -0.3609  0.3822
 5359TIP3    H137636   0.610   1.468   1.304  0.8550 -0.6884 -0.5381
 5359TIP3    H237637   0.634   1.611   1.348 -0.8579 -0.7849  0.8194
 5360TIP3   OH237638   0.941   2.703   7.944 -0.0658 -0.5655 -1.0050
 5360TIP3    H137639   1.002   2.639   7.979  2.7746  1.7934 -1.2308
 5360TIP3    H237640   0.883   2.723   8.017  0.1797 -2.0090 -0.3809
 5361TIP3   OH237641   0.922   5.630   0.939  0.2823  0.0316 -0.1551
 5361TIP3    H137642   0.930   5.660   1.029 -0.2494 -0.3247  0.0179
 5361TIP3    H237643   0.902   5.537   0.947 -0.7773  0.2120 -0.6145
 5362TIP3   OH237644   1.697   1.556   2.011  0.5784  0.4757  0.8865
 5362TIP3    H137645   1.768   1.493   1.995 -0.0949 -0.2451  0.7051
 5362TIP3    H237646   1.617   1.505   2.000  0.0301  1.2394  1.3022
 5363TIP3   OH237647   5.797   1.199   8.278 -0.1569 -0.8924 -0.1948
 5363TIP3    H137648   5.743   1.258   8.330  1.7420 -0.4593  1.4237
 5363TIP3    H237649   5.779   1.112   8.313 -0.0739 -0.7886  0.1084
 5364TIP3   OH237650   2.333   6.455   1.714  0.0258  0.4986 -0.3171
 5364TIP3    H137651   2.390   6.421   1.784  0.0369  0.9768 -0.0888
 5364TIP3    H237652   2.244   6.440   1.746 -0.0208  3.0830  1.0379
 5365TIP3   OH237653   6.704   1.702   0.295 -0.2428  0.3283  0.4033
 5365TIP3    H137654   6.755   1.736   0.221 -0.4231  1.3257  0.7201
 5365TIP3    H237655   6.613   1.722   0.274 -0.4657 -0.9090  0.1226
 5366TIP3   OH237656   5.872   5.068   2.410  0.0452  0.1467 -0.1106
 5366TIP3    H137657   5.965   5.059   2.433  0.2758  2.3170  0.0213
 5366TIP3    H237658   5.835   5.119   2.482 -0.3519  2.6233 -1.9425
 5367TIP3   OH237659   4.236   2.651   0.789 -0.0735 -0.5706 -0.5064
 5367TIP3    H137660   4.173   2.644   0.717 -0.1211  0.1275 -0.5382
 5367TIP3    H237661   4.228   2.568   0.836 -1.7344 -0.1233  0.0735
 5368TIP3   OH237662   3.217   6.255   1.633 -0.3620 -0.0382 -0.4638
 5368TIP3    H137663   3.201   6.310   1.711  0.9005 -2.2419  1.4727
 5368TIP3    H237664   3.146   6.191   1.634 -0.3666 -0.0510 -1.1935
 5369TIP3   OH237665   6.145   6.518   6.496 -0.5132 -0.1555  0.3967
 5369TIP3    H137666   6.098   6.525   6.413  1.7767 -2.2206 -1.2196
 5369TIP3    H237667   6.236   6.501   6.471  0.8007  1.7328  3.3496
 5370TIP3   OH237668   3.060   2.922   0.070  0.7503 -0.4253 -0.3788
 5370TIP3    H137669   3.151   2.896   0.055  1.4886  2.3789 -1.3834
 5370TIP3    H237670   3.061   3.017   0.065 -2.2839 -0.2945 -0.4865
 5371TIP3   OH237671   0.296   1.490   2.460  0.0266 -0.1190 -0.0366
 5371TIP3    H137672   0.267   1.576   2.433 -3.2896 -1.0342  0.1933
 5371TIP3    H237673   0.284   1.489   2.555  1.4541 -0.4105  0.1744
 5372TIP3   OH237674   0.057   4.224   0.455  0.1474  0.4796 -0.3567
 5372TIP3    H137675   0.135   4.181   0.419 -0.0449 -0.9600  0.8398
 5372TIP3    H237676   0.025   4.163   0.521 -1.6794  1.3164 -0.4242
 5373TIP3   OH237677   3.638   5.574   7.787 -0.5265 -0.4555  0.2696
 5373TIP3    H137678   3.620   5.557   7.694  1.5722  1.4004 -0.5511
 5373TIP3    H237679   3.656   5.487   7.824 -2.1337 -1.3097 -0.8405
 5374TIP3   OH237680   1.431   0.936   2.268  0.2392 -0.3248  0.0838
 5374TIP3    H137681   1.507   0.985   2.237  0.7364 -0.3386  1.2366
 5374TIP3    H237682   1.410   0.976   2.352 -0.4168 -0.9702  0.2321
 5375TIP3   OH237683   0.202   5.395   0.524  0.3922 -0.0240  0.0274
 5375TIP3    H137684   0.253   5.398   0.443  0.9789 -0.0758  0.3840
 5375TIP3    H237685   0.173   5.304   0.531 -0.2219  0.1290 -0.4575
 5376TIP3   OH237686   5.695   0.057   1.646 -0.5660  0.1016  0.3780
 5376TIP3    H137687   5.723   0.017   1.564  0.9125  2.2341 -0.2421
 5376TIP3    H237688   5.619   0.109   1.623  0.9932  2.2817 -0.1722
 5377TIP3   OH237689   6.163   5.490   1.401  0.1121  0.2367  0.1838
 5377TIP3    H137690   6.254   5.518   1.411  1.0155 -1.9606 -1.0492
 5377TIP3    H237691   6.132   5.537   1.324  0.5806  0.1574 -0.0584
 5378TIP3   OH237692   3.240   2.265   0.233 -0.3234  0.0971  0.4593
 5378TIP3    H137693   3.328   2.299   0.248 -0.8209  1.1859  1.0132
 5378TIP3    H237694   3.185   2.343   0.226 -1.2582 -0.5692  0.1594
 5379TIP3   OH237695   6.023   3.027   2.370  0.6716  0.5509 -0.1835
 5379TIP3    H137696   6.001   3.056   2.458  0.9648  1.9665 -0.5598
 5379TIP3    H237697   6.118   3.016   2.371  0.5905 -0.2306 -0.1092
 5380TIP3   OH237698   4.110   2.312   8.271 -0.1718 -0.7870  0.4902
 5380TIP3    H137699   4.041   2.316   8.337 -0.5740 -3.1502  0.3066
 5380TIP3    H237700   4.189   2.290   8.322 -0.4163 -2.2688  0.2727
 5381TIP3   OH237701   1.258   4.757   8.102 -0.1266 -0.0918  0.1688
 5381TIP3    H137702   1.222   4.672   8.128  4.3887 -2.1570  0.4956
 5381TIP3    H237703   1.287   4.744   8.012 -0.1065  1.4103 -0.0681
 5382TIP3   OH237704   6.820   3.389   7.645  0.2055 -0.3341  0.0251
 5382TIP3    H137705   6.801   3.318   7.706  1.7196 -1.0242 -0.2644
 5382TIP3    H237706   6.834   3.346   7.561  2.4000  0.1314  0.0987
 5383TIP3   OH237707   4.054   5.846   6.723 -0.1272  0.0250  0.2432
 5383TIP3    H137708   4.126   5.871   6.781  0.2355 -1.1826  0.3488
 5383TIP3    H237709   3.980   5.832   6.782  0.1039 -0.7005  0.3714
 5384TIP3   OH237710   6.115   3.012   8.426  0.1006 -0.4497 -0.1999
 5384TIP3    H137711   6.196   3.026   8.475 -0.9793  1.8112  1.1323
 5384TIP3    H237712   6.065   2.951   8.480 -0.2889  0.5241  0.5695
 5385TIP3   OH237713   0.662   5.344   1.891  0.3038 -0.8620 -0.1032
 5385TIP3    H137714   0.691   5.285   1.960  1.4528 -1.2199 -0.8720
 5385TIP3    H237715   0.577   5.310   1.863  0.4768 -1.5235  0.1803
 5386TIP3   OH237716   2.099   2.987   1.841  0.3994  0.1656 -0.2554
 5386TIP3    H137717   2.155   2.941   1.902  1.6685 -0.4009 -1.7769
 5386TIP3    H237718   2.041   3.040   1.896  1.1785 -0.6547  1.4120
 5387TIP3   OH237719   3.813   3.968   8.260  0.0168  0.0674  0.2315
 5387TIP3    H137720   3.722   3.994   8.247 -0.0679 -0.4208 -0.2018
 5387TIP3    H237721   3.853   3.976   8.173  0.2239 -0.3097  0.2863
 5388TIP3   OH237722   6.744   0.724   6.538  0.1917  0.4056 -0.4244
 5388TIP3    H137723   6.720   0.813   6.512 -0.1771  0.3028 -0.4367
 5388TIP3    H237724   6.671   0.669   6.509  0.0938  0.1916  0.2032
 5389TIP3   OH237725   0.299   1.613   0.794  0.0644  0.8844 -0.1320
 5389TIP3    H137726   0.303   1.557   0.871  3.5012 -0.1867 -0.9095
 5389TIP3    H237727   0.317   1.701   0.827  0.3597  0.6066  0.4567
 5390TIP3   OH237728   1.497   6.273   0.841 -0.5828  0.2496  0.2166
 5390TIP3    H137729   1.464   6.299   0.927 -0.9903 -0.4525  0.2721
 5390TIP3    H237730   1.536   6.354   0.806  0.5238  0.2937  1.4765
 5391TIP3   OH237731   2.649   2.263   0.578 -0.1326 -0.2339  0.4898
 5391TIP3    H137732   2.730   2.235   0.536 -0.1484  0.8962 -0.3203
 5391TIP3    H237733   2.642   2.207   0.655  1.3249 -0.4589  0.4848
 5392TIP3   OH237734   1.287   5.102   0.862 -0.2575  0.0526 -0.4899
 5392TIP3    H137735   1.264   5.073   0.773 -1.0922 -0.3452 -0.1491
 5392TIP3    H237736   1.383   5.103   0.862 -0.2165 -1.2899 -0.9784
 5393TIP3   OH237737   1.887   3.038   2.089  0.2042 -0.3230 -0.2029
 5393TIP3    H137738   1.860   3.077   2.006  0.5661 -2.4914 -1.4045
 5393TIP3    H237739   1.810   2.992   2.120  0.5201 -0.8111 -0.1358
 5394TIP3   OH237740   3.505   3.235   8.414  0.6404  0.2065 -0.2222
 5394TIP3    H137741   3.554   3.201   8.340  0.5959 -1.0430  0.3000
 5394TIP3    H237742   3.554   3.207   8.491 -0.4022 -0.3099  0.2782
 5395TIP3   OH237743   3.863   3.751   0.206 -0.1803  0.2099 -0.2644
 5395TIP3    H137744   3.785   3.737   0.259  0.8599  0.6184  1.4511
 5395TIP3    H237745   3.927   3.788   0.267  0.4168  2.7618 -2.2567
 5396TIP3   OH237746   5.557   1.808   7.277  0.1903  0.5710 -0.0804
 5396TIP3    H137747   5.481   1.858   7.250  0.7709  1.6493  0.2317
 5396TIP3    H237748   5.597   1.779   7.195 -1.9153 -2.2101 -0.2573
 5397TIP3   OH237749   3.663   0.060   0.658 -0.1222  0.2771 -1.0960
 5397TIP3    H137750   3.717   0.119   0.710 -0.2068 -0.7561  0.2057
 5397TIP3    H237751   3.720  -0.016   0.641 -1.3321 -1.2417  1.0560
 5398TIP3   OH237752   5.434   1.719   0.688 -0.2740  0.2960  0.1694
 5398TIP3    H137753   5.498   1.789   0.704  0.4974 -0.4620  0.4598
 5398TIP3    H237754   5.460   1.681   0.605 -0.2225 -0.1447  0.3842
 5399TIP3   OH237755   6.247   0.992   1.189 -0.2092  0.1939  0.2175
 5399TIP3    H137756   6.246   0.902   1.156 -1.1926  0.3453 -0.1948
 5399TIP3    H237757   6.157   1.022   1.180  0.2530  1.4964 -0.4028
 5400TIP3   OH237758   0.198   1.051   2.003  0.1681  0.0587 -0.5636
 5400TIP3    H137759   0.219   0.959   2.021 -0.5756 -0.0386 -0.1455
 5400TIP3    H237760   0.144   1.078   2.077  2.4210  1.5938  0.6627
 5401TIP3   OH237761   3.308   6.741   0.278  0.2960 -0.3157  0.0389
 5401TIP3    H137762   3.298   6.739   0.374  0.6627  0.0778  0.0862
 5401TIP3    H237763   3.244   6.806   0.249  0.1666 -0.4538  0.0151
 5402TIP3   OH237764   4.649   5.645   7.635  0.2172 -0.4331  0.4415
 5402TIP3    H137765   4.568   5.647   7.686  1.5835 -2.7957  2.9953
 5402TIP3    H237766   4.664   5.552   7.619  1.2316  0.1059 -2.1288
 5403TIP3   OH237767   2.855   1.925   2.276  0.2149  0.7149 -1.0773
 5403TIP3    H137768   2.812   2.006   2.247 -0.9970  0.1911 -0.7700
 5403TIP3    H237769   2.785   1.872   2.312  0.9350 -0.6634 -1.6410
 5404TIP3   OH237770   3.089   2.315   7.071  0.0066 -0.0025 -0.2878
 5404TIP3    H137771   3.075   2.335   7.164  1.5122 -1.2968  0.2637
 5404TIP3    H237772   3.067   2.396   7.026 -0.4750  0.7538  1.2180
 5405TIP3   OH237773   6.888   0.322   1.163 -0.2247  0.2838  0.3765
 5405TIP3    H137774   6.853   0.248   1.114 -0.9212 -0.2485  1.6325
 5405TIP3    H237775   6.929   0.377   1.096 -0.0805 -0.9950 -0.6441
 5406TIP3   OH237776   2.013   2.663   2.013  0.1974  0.1923  0.3533
 5406TIP3    H137777   2.008   2.683   2.106 -1.0062 -0.4168  0.4307
 5406TIP3    H237778   1.926   2.682   1.979  0.3445 -0.4931 -0.4507
 5407TIP3   OH237779   5.198   1.836   0.106 -0.2734  0.1021  0.1107
 5407TIP3    H137780   5.210   1.801   0.018 -1.4849 -3.0553  1.0712
 5407TIP3    H237781   5.202   1.931   0.095 -1.9016 -0.1108 -3.5775
 5408TIP3   OH237782   0.267   0.875   0.353  0.0510  0.4955  0.0255
 5408TIP3    H137783   0.210   0.820   0.300 -0.3234 -0.3529  1.2734
 5408TIP3    H237784   0.323   0.920   0.289 -1.4754  0.7687 -1.1775
 5409TIP3   OH237785   0.780   1.364   7.116 -0.1062  0.3079 -0.0364
 5409TIP3    H137786   0.737   1.374   7.201 -0.9135  3.5467 -0.6917
 5409TIP3    H237787   0.846   1.433   7.114  1.8443 -1.4616 -1.0328
 5410TIP3   OH237788   5.744   0.885   6.800 -0.0974  0.6970  0.3734
 5410TIP3    H137789   5.808   0.944   6.839  2.4950 -1.5148 -0.2488
 5410TIP3    H237790   5.675   0.943   6.766  1.6187  3.2222  0.9420
 5411TIP3   OH237791   6.528   3.043   1.810 -0.4458 -0.3649  0.0428
 5411TIP3    H137792   6.511   3.137   1.801  0.4367 -0.2751 -0.7833
 5411TIP3    H237793   6.525   3.027   1.905  0.9368  0.7955  0.3160
 5412TIP3   OH237794   5.987   0.449   6.683 -0.2287 -0.1964  0.3965
 5412TIP3    H137795   5.911   0.442   6.740 -0.2712 -0.0603  0.3546
 5412TIP3    H237796   5.952   0.442   6.594 -0.1918 -0.1435  0.3775
 5413TIP3   OH237797   1.453   0.239   1.297  0.1953  0.2701 -0.0570
 5413TIP3    H137798   1.504   0.178   1.243  1.7470  1.6098 -0.1918
 5413TIP3    H237799   1.517   0.303   1.327 -0.9416  0.5196  2.0275
 5414TIP3   OH237800   4.957   4.709   0.501 -0.4210 -0.3088 -0.3299
 5414TIP3    H137801   4.865   4.716   0.525 -0.2827  1.3048 -0.1286
 5414TIP3    H237802   5.004   4.754   0.571  0.7671 -2.9194  0.6961
 5415TIP3   OH237803   4.688   4.449   7.844 -0.0219  0.0149 -0.5381
 5415TIP3    H137804   4.672   4.495   7.926 -1.1584 -0.1498 -0.6529
 5415TIP3    H237805   4.739   4.372   7.869 -1.1117 -0.4985  0.1364
 5416TIP3   OH237806   4.135   3.453   1.957 -0.0808 -0.6038  0.4343
 5416TIP3    H137807   4.133   3.522   1.890 -2.2363  0.0204  1.0716
 5416TIP3    H237808   4.095   3.377   1.914 -2.4083  0.0924  1.2399
 5417TIP3   OH237809   4.127   1.638   7.025  0.3902  0.0641 -0.0445
 5417TIP3    H137810   4.199   1.659   6.966 -0.5513  1.4446 -0.7378
 5417TIP3    H237811   4.092   1.555   6.992  1.6876 -0.6733  0.3585
 5418TIP3   OH237812   3.536   0.448   2.010  0.2924  0.0971  0.3364
 5418TIP3    H137813   3.568   0.428   1.922 -0.5665 -1.4489  0.3295
 5418TIP3    H237814   3.602   0.411   2.068 -0.2870 -0.9896  0.3227
 5419TIP3   OH237815   0.093   5.230   7.525  0.8194  0.0340 -0.1369
 5419TIP3    H137816   0.148   5.181   7.587  1.0020 -0.0065 -0.3326
 5419TIP3    H237817   0.098   5.321   7.555 -0.8978 -0.2763  1.2850
 5420TIP3   OH237818   6.549   0.907   1.689 -0.2834 -0.2937  0.5321
 5420TIP3    H137819   6.529   0.856   1.767 -1.8828 -0.9045 -0.2213
 5420TIP3    H237820   6.629   0.868   1.655  1.4039  1.0630  2.7285
 5421TIP3   OH237821   5.754   5.074   0.922  0.0991 -0.3284  0.0386
 5421TIP3    H137822   5.802   5.131   0.863  0.0036  1.5621  1.6883
 5421TIP3    H237823   5.799   5.082   1.006 -1.6482 -0.3756  1.0416
 5422TIP3   OH237824   3.940   1.241   2.337 -0.2255 -0.5801  0.0168
 5422TIP3    H137825   3.984   1.217   2.419  1.9359 -0.1146 -0.9571
 5422TIP3    H237826   3.851   1.264   2.364  0.5384 -0.0378  2.3068
 5423TIP3   OH237827   1.590   3.204   0.922 -0.0677 -0.0058 -0.0197
 5423TIP3    H137828   1.571   3.220   1.015  0.0396  0.9736 -0.1500
 5423TIP3    H237829   1.503   3.190   0.883 -0.0111 -2.1957  0.4964
 5424TIP3   OH237830   6.608   5.012   7.811  0.4861 -0.4234 -0.3397
 5424TIP3    H137831   6.517   5.041   7.813 -0.3798 -2.9081 -0.8946
 5424TIP3    H237832   6.648   5.064   7.740 -0.2970  1.1065  0.2966
 5425TIP3   OH237833   3.659   2.304   1.001  0.5629  0.5936  0.1204
 5425TIP3    H137834   3.731   2.300   1.064  0.0445  1.1135  0.7547
 5425TIP3    H237835   3.688   2.368   0.936  1.2990 -0.2826 -0.4476
 5426TIP3   OH237836   0.800   5.965   0.165 -0.7088 -0.2077 -0.0270
 5426TIP3    H137837   0.775   5.917   0.086 -0.4946 -0.9767  0.3646
 5426TIP3    H237838   0.896   5.965   0.164 -0.6267  2.3628 -1.3011
 5427TIP3   OH237839   0.821   0.711   6.364  0.0838 -0.1641 -0.2809
 5427TIP3    H137840   0.832   0.748   6.276  1.7064  0.7290  0.2463
 5427TIP3    H237841   0.753   0.766   6.404 -0.1626 -0.1245 -0.7403
 5428TIP3   OH237842   6.788   4.788   7.491 -0.0969  0.1488 -0.3497
 5428TIP3    H137843   6.790   4.884   7.495 -0.8645  0.1726 -0.4199
 5428TIP3    H237844   6.876   4.761   7.517  0.2426  0.8869 -0.6978
 5429TIP3   OH237845   4.862   3.620   0.839  0.5033  0.0131 -0.4122
 5429TIP3    H137846   4.829   3.669   0.914  0.0563 -0.0466 -0.5655
 5429TIP3    H237847   4.941   3.577   0.871 -0.8564 -1.8043  0.7004
 5430TIP3   OH237848   1.251   2.324   1.198  0.2508 -0.2356 -0.0775
 5430TIP3    H137849   1.317   2.254   1.198 -0.5089 -0.9622 -0.3372
 5430TIP3    H237850   1.176   2.285   1.243  0.2778  0.8656  0.9690
 5431TIP3   OH237851   2.322   2.232   8.352  0.2580  0.5413 -0.2634
 5431TIP3    H137852   2.350   2.270   8.269  1.7929  0.4171  0.1631
 5431TIP3    H237853   2.403   2.225   8.403 -0.4243 -0.7800  0.6830
 5432TIP3   OH237854   6.272   6.293   2.514 -0.2375  0.1415  0.3258
 5432TIP3    H137855   6.256   6.284   2.608  1.2435  0.6297  0.6387
 5432TIP3    H237856   6.184   6.296   2.476 -0.8664 -0.1105  1.6789
 5433TIP3   OH237857   4.937   0.209   7.598 -0.0685  0.2845  0.4196
 5433TIP3    H137858   4.885   0.289   7.608 -1.3170 -0.6878  2.3645
 5433TIP3    H237859   5.007   0.217   7.663 -0.3169 -0.2584  0.7670
 5434TIP3   OH237860   6.811   3.323   1.256 -0.2994  0.1181 -0.2950
 5434TIP3    H137861   6.747   3.279   1.200  0.0826 -0.1175 -0.5427
 5434TIP3    H237862   6.758   3.383   1.309 -0.5457  1.2427 -1.7388
 5435TIP3   OH237863   6.030   4.985   1.573 -0.3878  0.2779 -0.3248
 5435TIP3    H137864   6.050   4.898   1.607 -2.6430  0.1623  0.9009
 5435TIP3    H237865   6.106   5.008   1.520  0.4576 -2.2565 -0.3570
 5436TIP3   OH237866   6.451   2.047   2.786 -0.4695  0.3860 -0.2694
 5436TIP3    H137867   6.479   1.994   2.712  1.0912  2.0036 -0.9328
 5436TIP3    H237868   6.364   2.079   2.761  0.3549  1.5593 -1.8496
 5437TIP3   OH237869   1.304   0.962   7.185 -0.0086  0.6791 -0.5362
 5437TIP3    H137870   1.299   0.897   7.256 -3.4623  1.4197  0.0601
 5437TIP3    H237871   1.277   0.913   7.107 -2.1313  1.1663 -0.1718
 5438TIP3   OH237872   0.208   0.447   7.686 -0.0286  0.6687 -0.4457
 5438TIP3    H137873   0.229   0.540   7.689 -1.1708  1.0287 -2.2616
 5438TIP3    H237874   0.114   0.444   7.672  0.0618 -0.7457 -0.9360
 5439TIP3   OH237875   2.085   0.985   0.327 -0.3029 -0.1015 -0.0218
 5439TIP3    H137876   2.141   0.970   0.403 -0.0343 -0.2571 -0.2464
 5439TIP3    H237877   2.083   1.081   0.317 -0.9155 -0.0452  0.6009
 5440TIP3   OH237878   5.014   2.585   2.272  0.0454 -0.2036 -0.5055
 5440TIP3    H137879   4.974   2.548   2.351 -2.1471  0.2369 -1.3248
 5440TIP3    H237880   5.086   2.525   2.251 -0.4852 -1.3565  0.7839
 5441TIP3   OH237881   6.264   5.031   1.408  0.4204  0.1174  0.5391
 5441TIP3    H137882   6.220   5.075   1.335 -1.0424 -0.5630  0.9878
 5441TIP3    H237883   6.315   5.101   1.450 -1.0339  1.1690  0.6232
 5442TIP3   OH237884   1.949   2.864   1.661  0.3665  0.0713 -0.6062
 5442TIP3    H137885   1.982   2.787   1.614 -1.6911 -1.0335 -0.3366
 5442TIP3    H237886   2.017   2.883   1.726  0.3634 -2.3423  0.2014
 5443TIP3   OH237887   2.695   5.215   8.210 -0.0600  0.2690 -0.1532
 5443TIP3    H137888   2.733   5.173   8.287 -2.3419  0.5293  1.2093
 5443TIP3    H237889   2.655   5.143   8.160  0.6864  0.2069 -0.6805
 5444TIP3   OH237890   2.160   2.880   7.611  0.2835  0.1210 -0.1791
 5444TIP3    H137891   2.199   2.820   7.674 -1.7428  0.4696  1.5149
 5444TIP3    H237892   2.071   2.893   7.642 -1.9899 -2.0792 -4.7832
 5445TIP3   OH237893   5.631   3.416   7.761  0.6337  0.2661 -0.4472
 5445TIP3    H137894   5.583   3.497   7.778  0.8134  0.0794  1.0639
 5445TIP3    H237895   5.599   3.355   7.827  2.2879 -0.1300  0.0382
 5446TIP3   OH237896   1.037   2.063   7.444 -0.6871  0.1829  0.7268
 5446TIP3    H137897   0.949   2.077   7.409 -0.3369 -0.2189 -0.3287
 5446TIP3    H237898   1.052   1.969   7.438  0.5399  0.4462 -0.9129
 5447TIP3   OH237899   1.474   3.962   2.064  0.1778 -0.7880  0.1673
 5447TIP3    H137900   1.380   3.943   2.068  0.2207 -1.1450 -0.3884
 5447TIP3    H237901   1.515   3.876   2.066  0.4156 -0.7380 -1.4223
 5448TIP3   OH237902   2.353   0.495   0.903 -0.0532 -0.1684 -0.5679
 5448TIP3    H137903   2.280   0.468   0.958 -1.9064  4.7389 -0.0759
 5448TIP3    H237904   2.327   0.470   0.814 -1.1791 -0.6636 -0.1128
 5449TIP3   OH237905   0.647   1.704   7.675 -0.2907 -0.7482  0.5386
 5449TIP3    H137906   0.568   1.716   7.622  0.2379 -0.0264 -0.1260
 5449TIP3    H237907   0.659   1.610   7.680 -0.6875 -0.8436 -0.1400
 5450TIP3   OH237908   6.940   2.287   0.338  0.5203  0.6660 -0.1477
 5450TIP3    H137909   6.853   2.291   0.379  0.7316 -0.1968  0.4083
 5450TIP3    H237910   6.946   2.198   0.304  1.7379  0.2283  1.0914
 5451TIP3   OH237911   3.699   4.590   0.694  0.2545 -0.1781  0.0747
 5451TIP3    H137912   3.774   4.612   0.748  1.0187  1.5984 -1.6190
 5451TIP3    H237913   3.625   4.635   0.736  0.7313  0.7378 -0.0674
 5452TIP3   OH237914   3.734   5.998   0.136 -0.1331  0.1201  0.0145
 5452TIP3    H137915   3.696   5.929   0.082 -0.0414 -0.3562  0.5377
 5452TIP3    H237916   3.723   6.078   0.085 -1.0173 -0.1469 -0.2405
 5453TIP3   OH237917   4.956   5.632   7.404 -0.2685 -0.4390  0.3316
 5453TIP3    H137918   4.865   5.662   7.402 -0.1427 -0.0351  0.4111
 5453TIP3    H237919   4.987   5.642   7.314 -0.3606 -0.7541  0.2667
 5454TIP3   OH237920   1.566   4.766   1.435  0.4253 -0.0102  0.1574
 5454TIP3    H137921   1.512   4.800   1.507 -0.6815 -0.9951 -0.1885
 5454TIP3    H237922   1.524   4.800   1.356 -1.0619 -2.5614 -0.2361
 5455TIP3   OH237923   2.420   4.309   7.047  0.1856 -0.4029 -0.4003
 5455TIP3    H137924   2.496   4.324   7.104 -0.0329  0.8499 -0.4042
 5455TIP3    H237925   2.456   4.261   6.972  1.2813  1.3636 -1.0685
 5456TIP3   OH237926   0.298   5.130   8.415 -0.0147 -0.8682 -0.5058
 5456TIP3    H137927   0.224   5.070   8.410 -0.1608 -0.6581 -0.9532
 5456TIP3    H237928   0.259   5.216   8.428 -0.0976 -0.2530 -3.9580
 5457TIP3   OH237929   1.795   0.498   0.759 -0.2559  0.1253  0.0702
 5457TIP3    H137930   1.769   0.544   0.838  1.4771 -0.3959  0.9920
 5457TIP3    H237931   1.813   0.408   0.788 -2.9629 -1.0666 -1.5616
 5458TIP3   OH237932   3.652   1.707   7.766  0.3365  0.0026  0.3905
 5458TIP3    H137933   3.657   1.714   7.671  1.5000  0.1091  0.4474
 5458TIP3    H237934   3.565   1.739   7.788 -0.0688 -0.3427 -0.6634
 5459TIP3   OH237935   4.260   4.290   0.378  0.0766  0.2302 -0.6696
 5459TIP3    H137936   4.328   4.243   0.330  1.2210  0.3933  0.7369
 5459TIP3    H237937   4.296   4.378   0.392  0.4318 -0.2052  1.6617
 5460TIP3   OH237938   0.056   6.732   1.092  0.0909  1.0776 -0.3317
 5460TIP3    H137939   0.135   6.770   1.130  0.7899 -1.9677  1.5533
 5460TIP3    H237940  -0.016   6.770   1.144  0.6957  0.5141  0.9576
 5461TIP3   OH237941   6.508   0.932   0.735 -0.5952 -0.1387  0.5383
 5461TIP3    H137942   6.576   0.999   0.729 -1.9693  1.3725  1.1344
 5461TIP3    H237943   6.455   0.959   0.810 -1.9829 -1.1536 -0.0514
 5462TIP3   OH237944   6.808   6.008   6.338  0.0568  0.1227  0.2469
 5462TIP3    H137945   6.742   5.949   6.374 -0.9629  1.7998  1.2617
 5462TIP3    H237946   6.886   5.953   6.329 -1.0813 -1.5982  0.2275
 5463TIP3   OH237947   2.688   6.420   0.165 -0.2286  0.1894 -0.0925
 5463TIP3    H137948   2.653   6.355   0.104  0.0132  2.4574 -2.8696
 5463TIP3    H237949   2.776   6.439   0.132  0.0901  1.1874  1.2500
 5464TIP3   OH237950   6.625   2.607   1.250 -0.2063  0.3314 -0.1482
 5464TIP3    H137951   6.665   2.694   1.249  2.0653 -0.6319 -0.3368
 5464TIP3    H237952   6.531   2.623   1.254  0.1169  2.7890 -0.9343
 5465TIP3   OH237953   2.034   3.849   0.894 -0.0203 -0.1655 -1.0627
 5465TIP3    H137954   1.951   3.802   0.906  0.4379 -1.1161 -1.4545
 5465TIP3    H237955   2.089   3.788   0.844  1.1018  0.2387 -0.3602
 5466TIP3   OH237956   5.945   0.162   1.396 -0.0873  0.0558  0.0179
 5466TIP3    H137957   5.881   0.112   1.445 -0.7222 -0.8089 -1.5957
 5466TIP3    H237958   5.974   0.231   1.456  1.2378 -2.4942  2.5471
 5467TIP3   OH237959   6.616   1.987   1.416 -0.2326  0.1564 -0.4711
 5467TIP3    H137960   6.642   1.937   1.339  1.5019  0.1722  0.0717
 5467TIP3    H237961   6.698   2.018   1.454 -0.9600 -0.6514  1.9115
 5468TIP3   OH237962   5.159   5.732   7.606  0.0636 -0.0523 -0.3305
 5468TIP3    H137963   5.218   5.740   7.531  0.0801  0.2776 -0.2859
 5468TIP3    H237964   5.074   5.709   7.568 -0.1249  0.9244 -0.5306
 5469TIP3   OH237965   5.948   5.457   0.366 -0.0231 -0.5687  0.2694
 5469TIP3    H137966   5.966   5.505   0.286 -0.0984 -0.8489  0.0830
 5469TIP3    H237967   5.865   5.412   0.349 -1.1157  0.9727  1.2280
 5470TIP3   OH237968   5.417   5.459   8.220  0.8548 -0.0473 -0.7645
 5470TIP3    H137969   5.376   5.376   8.195 -0.4767  0.0379  0.9613
 5470TIP3    H237970   5.355   5.526   8.192  0.7179  0.1988  0.0876
 5471TIP3   OH237971   4.350   3.297   0.737 -0.2683 -0.1013  0.1280
 5471TIP3    H137972   4.275   3.348   0.709 -0.6383 -0.1556  0.9850
 5471TIP3    H237973   4.312   3.222   0.784  0.3093 -0.1344  0.5628
 5472TIP3   OH237974   1.880   4.358   1.283  0.1309  0.0894  0.1282
 5472TIP3    H137975   1.973   4.378   1.296 -0.3787  1.5703  1.9608
 5472TIP3    H237976   1.846   4.343   1.371 -1.6442  0.9041 -0.3674
 5473TIP3   OH237977   5.303   3.302   6.634  0.0952 -0.4043 -0.3208
 5473TIP3    H137978   5.308   3.397   6.647 -0.3766 -0.3059 -0.8452
 5473TIP3    H237979   5.311   3.290   6.540  1.6221 -0.9900 -0.1503
 5474TIP3   OH237980   1.598   5.858   7.484 -0.0973  0.0195  0.1564
 5474TIP3    H137981   1.509   5.845   7.516  0.2886 -0.8756  0.8928
 5474TIP3    H237982   1.592   5.937   7.430 -1.1455  0.4837  0.9167
 5475TIP3   OH237983   1.626   6.249   8.492 -0.6694  0.1900 -0.2573
 5475TIP3    H137984   1.636   6.249   8.587  1.6522  1.1210 -0.4341
 5475TIP3    H237985   1.592   6.336   8.472  1.1890  0.9258 -0.4071
 5476TIP3   OH237986   4.012   2.471   8.493 -0.7385 -0.5125  0.0343
 5476TIP3    H137987   4.001   2.407   8.564 -3.4304  0.7270  0.8383
 5476TIP3    H237988   3.924   2.501   8.473  0.0677  0.1657 -3.0022
 5477TIP3   OH237989   1.697   1.610   6.700  0.5470  0.1304 -0.2429
 5477TIP3    H137990   1.697   1.536   6.639 -0.4253  0.2882 -0.4543
 5477TIP3    H237991   1.743   1.680   6.654 -0.5664  0.3938 -1.0033
 5478TIP3   OH237992   1.968   2.593   1.494 -0.4185  0.3163 -0.4473
 5478TIP3    H137993   2.005   2.538   1.425  1.5712  0.9635  0.0264
 5478TIP3    H237994   1.920   2.531   1.550 -2.3647 -0.1578 -2.5288
 5479TIP3   OH237995   3.068   0.106   7.565  0.5135 -0.1246 -0.4246
 5479TIP3    H137996   3.027   0.189   7.542  0.6857 -0.4104 -1.8552
 5479TIP3    H237997   3.112   0.077   7.485  4.0086  0.4136  1.1152
 5480TIP3   OH237998   1.009   3.965   8.345 -0.2946 -0.5851 -0.1720
 5480TIP3    H137999   0.998   4.056   8.373 -1.7608 -0.8725  0.2889
 5480TIP3    H238000   1.011   3.970   8.249 -2.2802 -0.1832 -0.2463
 5481TIP3   OH238001   5.388   6.680   7.643 -0.6847  0.3286  0.0889
 5481TIP3    H138002   5.333   6.648   7.714 -1.7170  0.0124 -0.8126
 5481TIP3    H238003   5.338   6.752   7.605 -1.7092 -1.4392 -2.2368
 5482TIP3   OH238004   3.674   0.056   0.234 -0.3511 -0.7527 -0.0106
 5482TIP3    H138005   3.609   0.091   0.295 -1.2895 -1.4048 -0.5952
 5482TIP3    H238006   3.753   0.107   0.250 -1.1919  0.5134  0.2813
 5483TIP3   OH238007   5.451   6.280   7.356 -0.1543  0.0347  0.6897
 5483TIP3    H138008   5.505   6.217   7.404  0.7203  0.0970 -0.1876
 5483TIP3    H238009   5.375   6.294   7.412  0.8009  0.0519  2.0243
 5484TIP3   OH238010   0.038   4.644   1.643  0.3715 -0.5554 -0.5971
 5484TIP3    H138011   0.019   4.624   1.734 -1.2060  3.5915  0.1923
 5484TIP3    H238012   0.063   4.736   1.642 -0.8396 -0.0617 -4.4655
 5485TIP3   OH238013   5.881   2.978   6.577  0.2220 -0.6875 -0.6950
 5485TIP3    H138014   5.882   2.909   6.644  1.3995  1.1320  1.2876
 5485TIP3    H238015   5.834   3.050   6.618  2.6005  1.1779 -0.9837
 5486TIP3   OH238016   6.547   1.454   1.283  0.7490 -0.1487  0.9660
 5486TIP3    H138017   6.585   1.447   1.371  0.5805 -2.2897  0.9371
 5486TIP3    H238018   6.454   1.439   1.296  0.7114 -0.4001  0.4390
 5487TIP3   OH238019   3.298   0.064   0.460  0.1720 -0.3488 -0.4355
 5487TIP3    H138020   3.359   0.128   0.424 -1.4910  1.0625 -0.8865
 5487TIP3    H238021   3.232   0.053   0.391 -0.9091 -0.6479  0.6180
 5488TIP3   OH238022   3.324   5.689   1.754  0.1282 -0.1551 -0.3506
 5488TIP3    H138023   3.389   5.626   1.723  0.3271 -0.2204  0.1931
 5488TIP3    H238024   3.369   5.741   1.820 -0.1220  0.3716 -0.5890
 5489TIP3   OH238025   3.652   6.286   2.632  0.0138  0.2525 -0.7998
 5489TIP3    H138026   3.692   6.357   2.683 -0.9879  0.5517 -0.3885
 5489TIP3    H238027   3.672   6.306   2.541  2.3413 -0.6026 -0.5276
 5490TIP3   OH238028   2.879   6.761   0.226  0.8795 -0.1998  0.4132
 5490TIP3    H138029   2.877   6.684   0.282  0.8226 -0.4031  0.1293
 5490TIP3    H238030   2.792   6.800   0.235 -0.3466 -2.1174 -2.1794
 5491TIP3   OH238031   4.172   2.163   0.405  0.4537  0.4258  0.2521
 5491TIP3    H138032   4.159   2.089   0.465  2.2613 -0.3902 -0.2832
 5491TIP3    H238033   4.263   2.156   0.378  0.0189  1.4869 -1.6671
 5492TIP3   OH238034   6.411   6.319   2.090 -0.9568  0.1314 -0.9275
 5492TIP3    H138035   6.451   6.236   2.117  2.3797  2.4329  2.2757
 5492TIP3    H238036   6.485   6.375   2.069 -3.0271  2.5384 -2.3379
 5493TIP3   OH238037   3.414   3.456   7.047 -0.4363  0.4606  0.6088
 5493TIP3    H138038   3.389   3.364   7.055  1.7212 -0.1986  0.4100
 5493TIP3    H238039   3.398   3.478   6.955 -0.4053  0.1027  0.5175
 5494TIP3   OH238040   0.188   1.062   7.088  0.0286 -0.1929 -0.0274
 5494TIP3    H138041   0.124   1.124   7.123 -1.6537 -1.0862 -1.3583
 5494TIP3    H238042   0.160   0.977   7.123  1.2426 -0.4706  0.3348
 5495TIP3   OH238043   3.902   6.339   1.918 -0.4052 -0.2282 -0.4016
 5495TIP3    H138044   3.962   6.294   1.859  0.5291  0.8606 -0.3204
 5495TIP3    H238045   3.932   6.315   2.006 -0.7714 -0.5532 -0.3666
 5496TIP3   OH238046   5.529   1.120   6.907  0.1616  0.2602  0.0683
 5496TIP3    H138047   5.529   1.136   6.812  0.4960 -1.2613 -0.2111
 5496TIP3    H238048   5.449   1.070   6.923  0.3794  0.0452  0.5032
 5497TIP3   OH238049   1.546   0.851   1.877 -0.6869  0.7328 -0.0668
 5497TIP3    H138050   1.578   0.920   1.935 -0.2972  0.6802 -0.2111
 5497TIP3    H238051   1.491   0.896   1.813  0.0528  1.0020 -0.5240
 5498TIP3   OH238052   0.953   0.762   1.659 -0.0691 -0.5657  0.5421
 5498TIP3    H138053   0.948   0.688   1.719 -1.9150 -0.9011  0.0469
 5498TIP3    H238054   0.978   0.723   1.575 -0.1055 -0.4864  0.4946
 5499TIP3   OH238055   2.069   3.680   7.102  0.2883  0.3803  0.0653
 5499TIP3    H138056   2.148   3.711   7.145  2.2933 -0.4883 -2.6994
 5499TIP3    H238057   2.062   3.588   7.129 -0.7436  0.8556  1.5312
 5500TIP3   OH238058   1.126   6.639   0.081 -0.5702  0.0089  0.4264
 5500TIP3    H138059   1.126   6.690   0.162  2.1199  0.2658  0.3745
 5500TIP3    H238060   1.078   6.693   0.018  0.8453  1.7987  0.7891
 5501TIP3   OH238061   2.189   6.653   7.904  0.5213  0.0055 -0.2836
 5501TIP3    H138062   2.131   6.679   7.832  1.5000  1.2731 -0.6557
 5501TIP3    H238063   2.224   6.568   7.876 -0.8811 -0.6404 -0.1897
 5502TIP3   OH238064   1.623   4.138   6.814 -0.0464  0.1129  0.1299
 5502TIP3    H138065   1.715   4.150   6.790  0.2468 -2.8245 -0.6755
 5502TIP3    H238066   1.574   4.154   6.734 -0.0264 -0.1668  0.0591
 5503TIP3   OH238067   1.797   2.029   0.511 -0.2162 -0.3389  0.5495
 5503TIP3    H138068   1.833   1.941   0.503 -0.3222 -0.2419 -1.1967
 5503TIP3    H238069   1.857   2.084   0.460 -0.0936  0.6338  1.6939
 5504TIP3   OH238070   5.615   1.031   7.342 -0.3262 -0.0665  0.8643
 5504TIP3    H138071   5.675   0.989   7.281  0.3876 -0.5511  1.8826
 5504TIP3    H238072   5.542   1.059   7.287 -0.6054 -2.1724  0.0303
 5505TIP3   OH238073   4.629   5.080   0.045  0.1977  0.0982 -0.0208
 5505TIP3    H138074   4.616   4.988   0.067  0.6185 -0.0802 -0.4943
 5505TIP3    H238075   4.566   5.127   0.098 -1.5257 -0.6219 -1.3435
 5506TIP3   OH238076   6.173   1.683   6.621  1.0430 -0.5817  0.2187
 5506TIP3    H138077   6.191   1.739   6.697 -3.4212  1.4822  0.0609
 5506TIP3    H238078   6.170   1.744   6.547  1.6907 -1.9909 -1.0060
 5507TIP3   OH238079   4.400   5.081   2.047  0.4921 -0.0364 -0.3728
 5507TIP3    H138080   4.405   4.987   2.066  0.7105 -0.1834 -1.1256
 5507TIP3    H238081   4.309   5.104   2.064  0.7049 -0.1262  0.9527
 5508TIP3   OH238082   1.366   0.238   7.977 -0.7298 -0.0591  0.0612
 5508TIP3    H138083   1.277   0.271   7.961 -0.3570  0.4011 -1.2388
 5508TIP3    H238084   1.409   0.246   7.892 -0.2193 -2.6898 -0.0122
 5509TIP3   OH238085   1.251   3.575   6.613  0.0651 -0.0934 -0.1213
 5509TIP3    H138086   1.317   3.508   6.631  0.3917 -0.4966 -2.4946
 5509TIP3    H238087   1.290   3.656   6.645  0.8978 -0.6068  0.2016
 5510TIP3   OH238088   3.332   1.067   7.511 -0.4582 -0.2943  0.0145
 5510TIP3    H138089   3.370   0.980   7.497  0.0648 -0.3388  1.5051
 5510TIP3    H238090   3.382   1.103   7.585 -1.3251  0.8664  0.0517
 5511TIP3   OH238091   3.053   3.809   1.312 -0.0916 -0.2294  0.6679
 5511TIP3    H138092   3.058   3.884   1.253 -0.3462 -1.5124 -1.0751
 5511TIP3    H238093   2.959   3.791   1.321  0.0026 -1.5713 -0.6389
 5512TIP3   OH238094   6.335   3.471   6.989 -0.3147  0.1282 -0.1429
 5512TIP3    H138095   6.286   3.434   6.916 -0.0464  1.2073 -0.8858
 5512TIP3    H238096   6.303   3.423   7.066 -0.5877 -1.0246 -0.9567
 5513TIP3   OH238097   0.942   1.357   1.243  0.3837  0.9078  0.1329
 5513TIP3    H138098   0.974   1.437   1.201 -1.3017  2.6034  1.8206
 5513TIP3    H238099   0.907   1.387   1.327 -1.9090 -1.3176  0.1007
 5514TIP3   OH238100   2.137   0.971   8.468  0.1913  0.1531  0.4955
 5514TIP3    H138101   2.186   1.052   8.451  1.2854 -0.6210 -0.1590
 5514TIP3    H238102   2.102   0.947   8.382 -1.9427  1.0269  1.0472
 5515TIP3   OH238103   2.657   1.005   7.394 -0.1814 -0.8260  0.2167
 5515TIP3    H138104   2.708   0.926   7.411 -0.9752 -1.8154 -1.7221
 5515TIP3    H238105   2.723   1.073   7.380  0.5084 -0.6979  3.4097
 5516TIP3   OH238106   0.094   4.788   6.780  0.3956 -0.4658  0.5397
 5516TIP3    H138107   0.147   4.817   6.854  0.9022 -1.1682  0.4668
 5516TIP3    H238108   0.135   4.706   6.753  0.2755 -0.1709 -0.5749
 5517TIP3   OH238109   6.920   0.165   8.324 -0.9563  0.5038 -0.9569
 5517TIP3    H138110   6.926   0.259   8.341 -1.8740  0.1836  1.5411
 5517TIP3    H238111   6.830   0.142   8.346 -0.1126 -1.3447  0.8916
 5518TIP3   OH238112   6.718   6.784   0.157  0.0561 -0.4610 -0.4215
 5518TIP3    H138113   6.705   6.819   0.245  1.5750 -0.4182 -0.1805
 5518TIP3    H238114   6.701   6.858   0.099  0.2768 -0.1378 -0.0821
 5519TIP3   OH238115   5.669   2.669   0.933 -0.2024  0.6669 -0.1064
 5519TIP3    H138116   5.653   2.688   0.840 -0.7246  1.7592  0.1919
 5519TIP3    H238117   5.743   2.725   0.956  2.1133 -1.9403 -0.6375
 5520TIP3   OH238118   5.822   4.361   6.819 -0.1213  0.4104 -0.4044
 5520TIP3    H138119   5.875   4.406   6.753 -1.9375 -1.4372 -3.3082
 5520TIP3    H238120   5.791   4.432   6.876  2.2930  1.9658 -0.8552
 5521TIP3   OH238121   6.188   2.150   2.663  0.5517  0.0632 -0.3588
 5521TIP3    H138122   6.193   2.156   2.568 -0.1334 -0.0653 -0.4083
 5521TIP3    H238123   6.127   2.220   2.688 -0.6964 -1.0474 -0.1832
 5522TIP3   OH238124   0.730   3.336   1.843 -0.6922 -0.1099  0.6529
 5522TIP3    H138125   0.707   3.425   1.870 -1.5752 -0.2644  0.4160
 5522TIP3    H238126   0.761   3.294   1.923 -1.0934  0.1448  0.9451
 5523TIP3   OH238127   5.984   5.967   0.357 -0.4828 -0.0896 -0.2068
 5523TIP3    H138128   5.996   5.980   0.263  1.3324  0.8866  0.1133
 5523TIP3    H238129   5.904   6.015   0.378 -0.6981 -0.0030 -1.1817
 5524TIP3   OH238130   6.737   3.677   8.264  0.0599 -0.1264  0.3602
 5524TIP3    H138131   6.814   3.681   8.207  0.6717  1.6525  1.2661
 5524TIP3    H238132   6.663   3.690   8.205  0.6465  1.0661 -0.1290
 5525TIP3   OH238133   3.591   1.014   0.493 -0.4567 -0.1971 -0.0254
 5525TIP3    H138134   3.564   1.103   0.471 -1.2023 -0.6448 -1.0025
 5525TIP3    H238135   3.521   0.980   0.548  0.0671 -0.0205  0.7609
 5526TIP3   OH238136   4.305   2.477   7.281 -0.3544 -0.3761 -0.3800
 5526TIP3    H138137   4.305   2.381   7.284 -0.9147 -0.4115 -1.1377
 5526TIP3    H238138   4.319   2.498   7.188 -0.5784  0.2710 -0.2729
 5527TIP3   OH238139   6.303   3.615   1.501  0.1549  0.1354 -0.4399
 5527TIP3    H138140   6.369   3.626   1.569  0.4736  0.1411 -0.7420
 5527TIP3    H238141   6.353   3.593   1.422 -0.0837  1.3501 -0.9683
 5528TIP3   OH238142   0.165   3.182   6.951  0.5131  0.3014  0.2887
 5528TIP3    H138143   0.126   3.181   6.863 -1.0790  0.9587  0.9308
 5528TIP3    H238144   0.256   3.208   6.937 -0.7167  4.9503 -0.9126
 5529TIP3   OH238145   2.365   0.024   7.202 -0.4213  0.7513  0.0772
 5529TIP3    H138146   2.428  -0.046   7.185 -1.0766 -0.0310  0.8234
 5529TIP3    H238147   2.394   0.062   7.286 -1.2936 -0.0392  0.7593
 5530TIP3   OH238148   0.606   6.537   6.322  0.5748  0.1603 -0.1048
 5530TIP3    H138149   0.520   6.568   6.294 -0.0876  0.2877  1.9420
 5530TIP3    H238150   0.640   6.607   6.378  0.7330 -1.1015  1.4369
 5531TIP3   OH238151   2.248   5.406   7.424 -0.2841  0.4876  0.0841
 5531TIP3    H138152   2.245   5.384   7.331 -1.1970  3.1564 -0.5919
 5531TIP3    H238153   2.193   5.339   7.466  1.8701 -2.0935 -0.8913
 5532TIP3   OH238154   4.735   1.507   0.121  0.3483 -0.0019 -0.0809
 5532TIP3    H138155   4.701   1.439   0.064  0.4589 -0.1583  0.0383
 5532TIP3    H238156   4.770   1.574   0.062  0.0956  0.0244 -0.1993
 5533TIP3   OH238157   0.388   2.656   2.046 -0.8244  0.3385  0.0186
 5533TIP3    H138158   0.311   2.631   2.096  0.9450 -3.7959  1.0255
 5533TIP3    H238159   0.440   2.709   2.106 -0.1214 -2.0717  1.6712
 5534TIP3   OH238160   5.155   0.860   0.489  0.1501 -0.1648  0.4361
 5534TIP3    H138161   5.145   0.944   0.533  1.3988  0.7357 -0.8942
 5534TIP3    H238162   5.076   0.853   0.434  1.0545  1.2887 -1.1737
 5535TIP3   OH238163   3.255   2.114   8.082 -0.0604 -0.2624  0.2041
 5535TIP3    H138164   3.230   2.200   8.115 -1.7333 -0.1865 -1.1689
 5535TIP3    H238165   3.211   2.052   8.140 -0.0309 -0.1868  0.3077
 5536TIP3   OH238166   4.007   5.886   7.580 -0.5616  0.3723  0.6473
 5536TIP3    H138167   4.044   5.803   7.611 -0.3986 -0.6672 -2.0349
 5536TIP3    H238168   3.914   5.880   7.600 -0.3417  0.1506  1.6566
 5537TIP3   OH238169   6.171   5.917   7.030 -0.1205 -0.6357  0.1171
 5537TIP3    H138170   6.242   5.981   7.037 -0.5455 -0.2190  0.7361
 5537TIP3    H238171   6.130   5.936   6.946  0.9765 -1.3952 -0.6145
 5538TIP3   OH238172   0.308   4.380   2.363 -0.6550  0.1435 -0.7445
 5538TIP3    H138173   0.251   4.382   2.286  0.1025  1.7288 -1.3093
 5538TIP3    H238174   0.306   4.470   2.396  0.8893  0.0473 -0.3226
 5539TIP3   OH238175   1.945   1.375   7.316 -0.4349  0.1276 -0.1792
 5539TIP3    H138176   2.007   1.306   7.295 -0.9291 -0.4594  0.2341
 5539TIP3    H238177   1.974   1.451   7.265  0.3136 -0.2818 -0.3746
 5540TIP3   OH238178   0.199   0.346   0.587 -0.0062 -0.1689 -0.4925
 5540TIP3    H138179   0.191   0.298   0.504  0.4061  2.6475 -2.2872
 5540TIP3    H238180   0.258   0.419   0.567  0.3601  0.4433  2.4079
 5541TIP3   OH238181   5.386   2.280   8.439  0.4030  0.3445  0.2218
 5541TIP3    H138182   5.463   2.224   8.442 -1.2614 -2.1475 -0.2107
 5541TIP3    H238183   5.369   2.292   8.345 -0.2394  0.0481  0.2910
 5542TIP3   OH238184   5.818   6.261   1.589 -0.3487  0.0027 -0.1689
 5542TIP3    H138185   5.725   6.247   1.571 -0.3649 -3.6976  1.6552
 5542TIP3    H238186   5.859   6.266   1.503 -2.2248  2.9917 -1.0507
 5543TIP3   OH238187   0.466   1.701   8.081 -0.5399  0.2442 -0.1431
 5543TIP3    H138188   0.440   1.769   8.018  0.6007 -0.5957 -1.6006
 5543TIP3    H238189   0.521   1.747   8.144 -0.7765  0.9078 -0.4088
 5544TIP3   OH238190   0.656   5.731   7.286  0.3073 -0.3535 -0.4173
 5544TIP3    H138191   0.565   5.706   7.268  0.3949 -0.5818 -0.5491
 5544TIP3    H238192   0.651   5.823   7.312 -0.0605 -0.5986  0.3977
 5545TIP3   OH238193   0.474   1.262   0.248  0.2402 -0.3707 -0.4317
 5545TIP3    H138194   0.527   1.334   0.213 -0.8720 -0.0621 -1.5736
 5545TIP3    H238195   0.536   1.207   0.296  1.5209  0.1580 -1.4321
 5546TIP3   OH238196   0.742   1.187   7.776  0.4261 -0.1751  0.2890
 5546TIP3    H138197   0.729   1.130   7.701  1.3591 -0.3374  0.2334
 5546TIP3    H238198   0.718   1.274   7.745 -2.1521 -0.6462  0.7089
 5547TIP3   OH238199   4.216   6.846   0.392 -0.3151  0.5673  0.1057
 5547TIP3    H138200   4.281   6.871   0.458 -1.1364 -0.2651  1.2793
 5547TIP3    H238201   4.238   6.756   0.370 -0.6201  0.5321 -0.0545
 5548TIP3   OH238202   6.016   3.708   1.043  0.1437 -0.1272 -0.4746
 5548TIP3    H138203   5.981   3.745   1.124 -0.2830 -0.1301 -0.6561
 5548TIP3    H238204   5.949   3.645   1.014  0.3309 -0.1882 -0.7843
 5549TIP3   OH238205   4.230   0.515   2.883  0.0582  0.5804  0.2373
 5549TIP3    H138206   4.221   0.603   2.918 -2.2345 -0.1544  1.7053
 5549TIP3    H238207   4.142   0.491   2.854  0.7809 -0.9573 -0.8098
 5550TIP3   OH238208   2.409   6.921   1.258  0.1155  0.5107  0.0891
 5550TIP3    H138209   2.461   6.892   1.183  1.5387  0.9651  0.8673
 5550TIP3    H238210   2.453   6.999   1.290 -0.4572  0.3344  1.3937
 5551TIP3   OH238211   3.471   0.289   6.865 -0.1258  0.2642  0.2436
 5551TIP3    H138212   3.430   0.369   6.899  2.0678  0.7066  2.1109
 5551TIP3    H238213   3.432   0.277   6.778 -3.0681  1.3894  1.2644
 5552TIP3   OH238214   1.171   2.037   1.041  0.2223 -0.0505 -0.1085
 5552TIP3    H138215   1.124   2.105   0.995 -0.1207 -0.4609 -0.3728
 5552TIP3    H238216   1.196   1.974   0.973  0.1348 -0.4140  0.1876
 5553TIP3   OH238217   6.862   2.931   6.920 -0.8353 -0.2382  0.8897
 5553TIP3    H138218   6.865   3.016   6.877 -0.6597 -0.7896 -0.2140
 5553TIP3    H238219   6.941   2.928   6.975 -0.0368 -0.2894 -0.2362
 5554TIP3   OH238220   6.161   2.809   7.502 -0.2856 -0.6247  0.1472
 5554TIP3    H138221   6.218   2.735   7.522 -0.4561 -0.5927  0.7958
 5554TIP3    H238222   6.129   2.838   7.588 -0.6563 -0.1514 -0.1449
 5555TIP3   OH238223   5.581   3.867   1.137  0.0994 -1.0801 -0.1531
 5555TIP3    H138224   5.547   3.864   1.048 -2.0212  1.5054  0.4386
 5555TIP3    H238225   5.606   3.958   1.151  1.3117 -1.6174  1.6046
 5556TIP3   OH238226   1.512   2.787   7.673  0.0554  0.1860  0.5452
 5556TIP3    H138227   1.466   2.864   7.639 -0.8342  0.8680  3.0987
 5556TIP3    H238228   1.546   2.744   7.595 -2.0169  1.5081 -1.2081
 5557TIP3   OH238229   0.252   2.873   1.196 -0.3655  0.1075  0.6284
 5557TIP3    H138230   0.173   2.822   1.215  0.0134 -0.8019 -0.1525
 5557TIP3    H238231   0.224   2.964   1.204 -1.8557 -0.1618 -0.9201
 5558TIP3   OH238232   6.037   4.081   8.188  0.2891 -0.2830  0.3827
 5558TIP3    H138233   6.056   4.116   8.102  0.4150 -0.9258  0.1385
 5558TIP3    H238234   5.945   4.101   8.203  0.5117  0.6593  0.5067
 5559TIP3   OH238235   0.848   2.391   6.872  0.1068 -0.2427  0.2845
 5559TIP3    H138236   0.928   2.443   6.863 -0.6259  1.2466  1.7898
 5559TIP3    H238237   0.835   2.384   6.967 -0.9441 -1.4340  0.0757
 5560TIP3   OH238238   2.971   3.820   0.634 -0.1861  0.1210 -0.2720
 5560TIP3    H138239   3.055   3.775   0.642 -0.7762 -0.9503  0.1155
 5560TIP3    H238240   2.918   3.763   0.578 -1.1222  0.0517  0.6436
 5561TIP3   OH238241   3.744   3.616   1.163 -0.2705  0.3140  0.1572
 5561TIP3    H138242   3.704   3.532   1.144 -2.7932  1.2325  1.0075
 5561TIP3    H238243   3.700   3.677   1.104  0.4018  1.2645  0.6150
 5562TIP3   OH238244   4.137   4.876   8.345 -0.3311  0.1175 -0.3312
 5562TIP3    H138245   4.168   4.867   8.435 -1.2285 -2.5578 -0.2009
 5562TIP3    H238246   4.086   4.956   8.344 -0.3438  0.1585  1.5570
 5563TIP3   OH238247   2.820   2.479   1.628 -0.4446 -0.3696 -0.4482
 5563TIP3    H138248   2.902   2.524   1.605 -0.8930 -0.1313 -1.6676
 5563TIP3    H238249   2.800   2.509   1.716  0.7565 -0.3972 -0.1431
 5564TIP3   OH238250   2.952   4.664   8.391 -0.7200  0.7071 -0.0907
 5564TIP3    H138251   2.905   4.652   8.474 -2.5443 -2.6162 -1.4159
 5564TIP3    H238252   3.042   4.638   8.411 -0.1261  3.6174  1.6137
 5565TIP3   OH238253   6.735   0.746   1.529  0.4666  0.3660 -0.2268
 5565TIP3    H138254   6.649   0.731   1.492  0.5062  0.3333 -0.3053
 5565TIP3    H238255   6.796   0.718   1.461  0.5410  0.9701 -0.4222
 5566TIP3   OH238256   1.852   1.339   1.160  0.2086 -0.9291 -0.5069
 5566TIP3    H138257   1.825   1.300   1.243  0.6827  0.9910  0.5953
 5566TIP3    H238258   1.769   1.354   1.113 -0.2154 -0.4324  0.3742
 5567TIP3   OH238259   1.365   5.050   7.523  0.1662  0.4136 -0.4758
 5567TIP3    H138260   1.318   5.044   7.607  0.9180 -0.3331 -0.1009
 5567TIP3    H238261   1.381   5.143   7.512  1.3758  0.4202  0.9674
 5568TIP3   OH238262   0.540   4.589   7.776  0.6927  0.2329 -0.0294
 5568TIP3    H138263   0.552   4.608   7.869  1.5550  0.2115 -0.1318
 5568TIP3    H238264   0.614   4.631   7.732  2.6168 -3.0658 -0.2858
 5569TIP3   OH238265   0.390   3.299   2.192  0.0500 -0.5403 -0.5949
 5569TIP3    H138266   0.337   3.321   2.268 -1.8797  0.6284 -2.1862
 5569TIP3    H238267   0.475   3.273   2.228 -0.0226  2.1897  1.8254
 5570TIP3   OH238268   2.218   6.271   0.997  0.2698 -0.0357  0.4194
 5570TIP3    H138269   2.294   6.300   0.947  0.6263  1.8066  1.8970
 5570TIP3    H238270   2.251   6.203   1.055  0.6855  0.3618  0.6547
 5571TIP3   OH238271   6.728   5.198   0.846  0.1313 -0.2669 -0.3135
 5571TIP3    H138272   6.798   5.174   0.906  3.0804  2.2888 -2.3922
 5571TIP3    H238273   6.759   5.170   0.760 -0.9016  1.7105 -1.4163
 5572TIP3   OH238274   2.070   6.172   8.410  0.0452  0.4766 -0.1794
 5572TIP3    H138275   2.036   6.146   8.496  0.4160 -1.2247 -0.5217
 5572TIP3    H238276   1.997   6.219   8.369 -0.5426  0.2653  0.5956
 5573TIP3   OH238277   6.835   5.290   8.385 -0.0118 -0.2628 -0.2496
 5573TIP3    H138278   6.841   5.217   8.447 -2.0067  0.9670  1.5445
 5573TIP3    H238279   6.763   5.267   8.327  1.7412 -1.3311 -2.1516
 5574TIP3   OH238280   4.523   2.236   0.160  0.0564 -0.0239 -0.2681
 5574TIP3    H138281   4.589   2.234   0.228 -0.6781  0.1109  0.4670
 5574TIP3    H238282   4.515   2.328   0.136  0.8383 -0.1542 -1.0744
 5575TIP3   OH238283   3.365   4.177   1.666 -0.7271  0.2855 -0.0063
 5575TIP3    H138284   3.437   4.180   1.603  1.2494  2.2843  2.1177
 5575TIP3    H238285   3.358   4.084   1.690  0.8505 -0.0225 -0.6067
 5576TIP3   OH238286   3.423   5.441   0.450  0.2576  0.0418  0.1064
 5576TIP3    H138287   3.400   5.383   0.377  2.3044  0.7941 -1.2494
 5576TIP3    H238288   3.517   5.425   0.464  0.0965  0.5638  2.0076
 5577TIP3   OH238289   4.345   6.231   7.891  0.0270 -0.4199 -0.5352
 5577TIP3    H138290   4.360   6.148   7.936 -0.6523 -0.0010  0.4776
 5577TIP3    H238291   4.266   6.216   7.840  0.8938 -0.9525 -1.7950
 5578TIP3   OH238292   3.017   1.690   0.333 -0.5595  0.4553  0.4139
 5578TIP3    H138293   3.093   1.747   0.316  1.4696 -2.4537 -1.1748
 5578TIP3    H238294   2.953   1.715   0.266  0.2420  0.9942 -0.1790
 5579TIP3   OH238295   6.580   6.651   2.053  0.0356 -0.1254 -0.3173
 5579TIP3    H138296   6.614   6.562   2.055 -0.3321 -0.2594  1.6277
 5579TIP3    H238297   6.488   6.642   2.079  0.0895  0.8557  0.2456
 5580TIP3   OH238298   5.210   5.620   2.908  0.1067 -0.2643  0.1838
 5580TIP3    H138299   5.238   5.542   2.955  1.1671  0.1422  0.2678
 5580TIP3    H238300   5.156   5.587   2.837  2.1330 -1.2916 -0.9839
 5581TIP3   OH238301   0.980   0.441   2.544 -0.2417  0.1004  0.5205
 5581TIP3    H138302   0.983   0.501   2.619  0.6793 -0.7744  1.2035
 5581TIP3    H238303   1.004   0.495   2.469 -0.0693  0.7334  1.0224
 5582TIP3   OH238304   0.228   2.812   0.521  0.4694  0.1037  0.0831
 5582TIP3    H138305   0.201   2.775   0.605 -0.2033 -0.1187 -0.2232
 5582TIP3    H238306   0.305   2.760   0.495  0.9251  0.4409  0.7469
 5583TIP3   OH238307   2.291   1.188   2.467  0.0964 -0.1944 -0.5274
 5583TIP3    H138308   2.370   1.242   2.466  0.0349 -0.0771  0.1266
 5583TIP3    H238309   2.302   1.132   2.544 -2.2616  2.6132  2.1411
 5584TIP3   OH238310   1.207   1.322   1.891 -0.4840 -0.1703 -0.4351
 5584TIP3    H138311   1.196   1.239   1.846  1.6088 -0.5616 -0.3560
 5584TIP3    H238312   1.171   1.387   1.831 -0.7156 -0.9816 -1.1931
 5585TIP3   OH238313   5.778   4.871   1.902  0.8773  0.0300  0.2705
 5585TIP3    H138314   5.821   4.868   1.988  0.0671  1.4406  0.7612
 5585TIP3    H238315   5.692   4.834   1.917  1.2382 -1.0621 -0.2847
 5586TIP3   OH238316   2.364   4.062   0.207 -0.1496 -0.2527 -0.2089
 5586TIP3    H138317   2.335   4.153   0.202 -1.4191 -0.5728  0.6934
 5586TIP3    H238318   2.440   4.064   0.266  1.6739  0.5686 -2.4333
 5587TIP3   OH238319   3.912   2.527   1.047  0.4063 -0.4529  0.6240
 5587TIP3    H138320   3.924   2.595   1.113 -2.2456  0.4288  0.2904
 5587TIP3    H238321   3.899   2.446   1.097  0.3202 -0.1420  1.1089
 5588TIP3   OH238322   3.540   3.323   6.803  0.3571  0.0101  0.0141
 5588TIP3    H138323   3.561   3.392   6.740 -1.7521 -0.7784 -1.6790
 5588TIP3    H238324   3.458   3.352   6.843  0.7515 -0.3579  1.1201
 5589TIP3   OH238325   2.193   2.997   1.306 -0.0529  0.1100  0.3719
 5589TIP3    H138326   2.177   3.062   1.238 -0.8930 -2.7851 -2.4378
 5589TIP3    H238327   2.117   2.940   1.304 -0.7189  0.4543  4.7158
 5590TIP3   OH238328   2.543   0.478   7.088 -0.2906 -0.0350 -0.2137
 5590TIP3    H138329   2.633   0.504   7.071  0.3372 -1.9138  0.0137
 5590TIP3    H238330   2.546   0.382   7.097 -1.7946  0.0652  2.8209
 5591TIP3   OH238331   4.391   1.565   1.217  0.2298 -0.4627  0.0413
 5591TIP3    H138332   4.327   1.536   1.152 -0.7544  1.5731  0.0114
 5591TIP3    H238333   4.337   1.599   1.289  1.2295  1.1707  0.0753
 5592TIP3   OH238334   4.244   3.110   1.946  0.4145  0.8344  0.3997
 5592TIP3    H138335   4.235   3.178   2.013  0.8442  0.1541  1.1667
 5592TIP3    H238336   4.283   3.036   1.993 -2.4615 -0.9333  0.2467
 5593TIP3   OH238337   6.742   3.950   8.000 -0.0019 -0.4025  0.0887
 5593TIP3    H138338   6.653   3.985   8.006  0.6823  1.5439 -0.3213
 5593TIP3    H238339   6.784   3.977   8.082  0.5487 -0.2477 -0.2371
 5594TIP3   OH238340   2.856   4.080   1.677  0.7655  0.1620  0.0558
 5594TIP3    H138341   2.912   4.066   1.753  1.3233  0.5813 -0.2693
 5594TIP3    H238342   2.804   4.157   1.700  2.8722  2.0189 -1.0384
 5595TIP3   OH238343   0.509   1.479   2.716  0.1444  0.0657 -0.3878
 5595TIP3    H138344   0.514   1.388   2.687  1.3805 -0.3277  1.0125
 5595TIP3    H238345   0.426   1.485   2.763  1.2234 -1.0790  1.8111
 5596TIP3   OH238346   0.216   3.866   8.022  0.4740  0.0254  0.0046
 5596TIP3    H138347   0.171   3.946   7.995 -2.0515 -1.0279  0.7118
 5596TIP3    H238348   0.266   3.839   7.945  3.0902  3.2404  0.3616
 5597TIP3   OH238349   2.871   0.108   6.845 -0.4600 -0.2554  0.3656
 5597TIP3    H138350   2.919   0.169   6.900  1.0867 -0.8416 -0.2794
 5597TIP3    H238351   2.833   0.162   6.776  1.0624  0.0005 -0.3159
 5598TIP3   OH238352   3.224   5.051   0.500 -0.3784  0.9089 -0.7937
 5598TIP3    H138353   3.168   5.005   0.562  0.4820 -2.1156 -2.0874
 5598TIP3    H238354   3.171   5.126   0.471 -1.9450  0.6854  1.2816
 5599TIP3   OH238355   3.377   0.183   6.623 -0.0575 -0.2820 -0.6664
 5599TIP3    H138356   3.417   0.268   6.605 -2.0818  0.7787 -0.4824
 5599TIP3    H238357   3.303   0.179   6.562 -0.0122 -1.9110 -0.6356
 5600TIP3   OH238358   0.640   3.069   6.684 -0.4327  0.3067 -0.0340
 5600TIP3    H138359   0.708   3.109   6.738  0.5196 -0.0836 -0.9071
 5600TIP3    H238360   0.566   3.129   6.689 -0.1459  0.5895  1.1832
 5601TIP3   OH238361   4.748   1.426   7.159 -0.8889 -0.0539  0.1125
 5601TIP3    H138362   4.822   1.377   7.195 -0.7571 -0.1720 -0.3090
 5601TIP3    H238363   4.694   1.448   7.235  1.3049  3.0789  0.9466
 5602TIP3   OH238364   4.549   6.000   0.225  0.0688  0.0521  0.1855
 5602TIP3    H138365   4.591   6.085   0.228  1.5654 -0.2618 -4.4648
 5602TIP3    H238366   4.617   5.938   0.253 -0.0683  0.1177  0.6835
 5603TIP3   OH238367   5.790   3.797   2.159 -0.2709 -0.2770 -0.1480
 5603TIP3    H138368   5.747   3.878   2.132 -0.8127 -0.2483  0.7522
 5603TIP3    H238369   5.731   3.728   2.130 -0.0290 -0.3297 -0.5179
 5604TIP3   OH238370   0.033   0.795   2.301 -0.1492 -0.0329  0.1747
 5604TIP3    H138371  -0.043   0.820   2.354 -0.9757 -1.4639 -0.2964
 5604TIP3    H238372   0.001   0.798   2.211  0.5205 -0.1373 -0.0743
 5605TIP3   OH238373   5.965   0.605   7.196 -0.1265 -0.0109  0.7000
 5605TIP3    H138374   5.972   0.606   7.100  2.5985 -0.6972  0.8089
 5605TIP3    H238375   5.882   0.649   7.214  0.1312  1.7635 -1.9030
 5606TIP3   OH238376   5.433   5.704   0.873 -0.3660 -0.1842 -0.0509
 5606TIP3    H138377   5.361   5.757   0.841 -1.7222 -0.9309  1.5953
 5606TIP3    H238378   5.501   5.767   0.898 -1.0331  0.6197 -0.2459
 5607TIP3   OH238379   0.521   1.769   1.326 -0.3706  0.6681  0.0156
 5607TIP3    H138380   0.515   1.855   1.368 -2.1330  0.6970 -0.2294
 5607TIP3    H238381   0.437   1.758   1.282  0.3560 -0.6024 -1.1152
 5608TIP3   OH238382   4.849   4.544   1.334  0.2842  0.7017  0.2297
 5608TIP3    H138383   4.812   4.530   1.422 -1.2991  0.3809 -0.4571
 5608TIP3    H238384   4.796   4.614   1.296  0.4845  0.3362 -0.7487
 5609TIP3   OH238385   5.214   3.803   1.232 -0.1225  0.2411  0.1599
 5609TIP3    H138386   5.294   3.818   1.282  0.9388 -0.2726 -1.3414
 5609TIP3    H238387   5.223   3.858   1.155 -1.0494 -0.1074 -0.2115
 5610TIP3   OH238388   2.865   2.378   0.121  0.2678  0.2151 -0.0329
 5610TIP3    H138389   2.878   2.422   0.036  1.6232  0.0958  0.0925
 5610TIP3    H238390   2.834   2.448   0.179 -2.3329 -0.0548 -1.0097
 5611TIP3   OH238391   2.667   6.297   0.711 -0.1274 -0.3087 -0.0557
 5611TIP3    H138392   2.687   6.324   0.622 -2.3028  0.8076 -0.2611
 5611TIP3    H238393   2.622   6.213   0.701  0.2257 -0.5112  0.0465
 5612TIP3   OH238394   0.640   1.981   1.640  0.0145  0.3314  0.2967
 5612TIP3    H138395   0.616   1.889   1.654  0.1298  0.2536 -0.0255
 5612TIP3    H238396   0.607   2.001   1.553  1.7052  0.0309 -0.4435
 5613TIP3   OH238397   4.536   5.501   6.482  0.0722  0.1903  0.4015
 5613TIP3    H138398   4.471   5.516   6.414 -0.8424 -3.5647  0.2323
 5613TIP3    H238399   4.618   5.488   6.435  0.1682  1.0556  0.3172
 5614TIP3   OH238400   4.893   1.467   2.509 -0.4766 -0.0482 -0.3938
 5614TIP3    H138401   4.984   1.463   2.481 -0.6609 -1.3733 -0.8724
 5614TIP3    H238402   4.888   1.546   2.563  1.0935 -0.3056  0.1876
 5615TIP3   OH238403   6.437   1.168   1.632 -0.3685  0.0962  0.3210
 5615TIP3    H138404   6.479   1.082   1.631  1.0267  0.7409  0.9910
 5615TIP3    H238405   6.420   1.187   1.540  2.7055  0.6648 -0.2320
 5616TIP3   OH238406   1.205   4.552   1.817  0.2731 -0.0401  0.7448
 5616TIP3    H138407   1.163   4.573   1.900  0.5618 -1.6164  1.3286
 5616TIP3    H238408   1.298   4.553   1.836  0.3119 -1.6506  0.8079
 5617TIP3   OH238409   6.497   4.700   0.748  0.4210 -0.1190 -0.0282
 5617TIP3    H138410   6.509   4.726   0.656  0.4433 -0.1389 -0.0310
 5617TIP3    H238411   6.436   4.627   0.745 -0.1232  0.3254  0.0297
 5618TIP3   OH238412   4.756   2.370   8.093 -0.0777  0.1731  0.1181
 5618TIP3    H138413   4.667   2.358   8.060  0.6007  0.4657 -1.9983
 5618TIP3    H238414   4.752   2.344   8.185 -2.0449 -1.0607 -0.2658
 5619TIP3   OH238415   6.433   1.166   1.339  0.5598 -0.4961  1.1580
 5619TIP3    H138416   6.375   1.095   1.312  1.3554 -2.2288  3.6361
 5619TIP3    H238417   6.454   1.212   1.258 -2.0137 -1.4927 -0.1951
 5620TIP3   OH238418   5.104   2.627   8.332 -0.2076 -0.5742  0.1495
 5620TIP3    H138419   5.080   2.701   8.389 -1.7511 -1.5019  0.7582
 5620TIP3    H238420   5.042   2.558   8.354 -0.4614 -1.1973 -2.2576
 5621TIP3   OH238421   5.401   2.586   7.998 -0.0908  0.2002 -0.0028
 5621TIP3    H138422   5.488   2.622   7.983  0.4581 -0.7025  0.8730
 5621TIP3    H238423   5.382   2.535   7.919  0.3761  0.0277 -0.0066
 5622TIP3   OH238424   0.085   2.224   7.906  0.0119 -0.3401  0.2547
 5622TIP3    H138425   0.029   2.301   7.912  0.0207 -0.4453  2.2187
 5622TIP3    H238426   0.048   2.173   7.834 -0.8833  0.7849 -0.1095
 5623TIP3   OH238427   0.398   2.217   2.580 -0.3702  0.0471  0.4843
 5623TIP3    H138428   0.438   2.283   2.523  0.7373 -0.7460  0.3094
 5623TIP3    H238429   0.325   2.263   2.622  0.9191  1.6640  1.0867
 5624TIP3   OH238430   2.469   3.032   1.422 -0.2591  0.1969 -0.4354
 5624TIP3    H138431   2.386   3.032   1.375  0.5862  0.2698 -2.0043
 5624TIP3    H238432   2.467   3.110   1.477 -1.5194 -0.2123  0.1328
 5625TIP3   OH238433   5.374   4.234   0.967  0.5360 -0.4048  0.0367
 5625TIP3    H138434   5.446   4.212   1.026 -0.1507 -2.4121  0.1983
 5625TIP3    H238435   5.403   4.201   0.881  0.6041  0.5241 -0.3054
 5626TIP3   OH238436   3.164   1.340   0.683  0.2261 -0.3414  0.1613
 5626TIP3    H138437   3.140   1.407   0.747 -0.0179 -0.6071  0.3512
 5626TIP3    H238438   3.111   1.360   0.606  0.4607 -0.0677  0.0725
 5627TIP3   OH238439   3.166   3.067   7.171  0.2167  0.5584 -0.8097
 5627TIP3    H138440   3.071   3.060   7.169  0.1854 -0.5799  1.6351
 5627TIP3    H238441   3.185   3.111   7.254  1.7640  3.5259 -2.5781
 5628TIP3   OH238442   5.035   2.506   6.584 -0.7281 -0.9008 -0.2870
 5628TIP3    H138443   4.962   2.565   6.565 -1.4321 -1.5822  0.2223
 5628TIP3    H238444   5.044   2.509   6.679  0.7470  0.1294 -0.4227
 5629TIP3   OH238445   2.337   0.865   1.402 -0.0924  0.2321  0.6872
 5629TIP3    H138446   2.319   0.848   1.494  1.2668 -1.2963  0.7062
 5629TIP3    H238447   2.408   0.928   1.403 -1.3548  1.7242  0.6302
 5630TIP3   OH238448   3.354   4.246   8.282 -0.4798  0.1475 -0.2548
 5630TIP3    H138449   3.272   4.272   8.240 -0.1947  0.6975 -0.4840
 5630TIP3    H238450   3.329   4.225   8.372 -1.1940 -1.6129 -0.8251
 5631TIP3   OH238451   4.134   4.505   2.069 -0.1296  0.3075 -0.3399
 5631TIP3    H138452   4.172   4.591   2.054  1.3959 -0.1655  0.5572
 5631TIP3    H238453   4.040   4.521   2.076 -0.0553  1.6321 -1.9075
 5632TIP3   OH238454   2.450   3.955   8.233  0.5826 -0.9883  0.2422
 5632TIP3    H138455   2.508   4.031   8.233  1.1799 -1.4309  0.0688
 5632TIP3    H238456   2.439   3.933   8.326 -1.3468  0.5827  0.4595
 5633TIP3   OH238457   1.977   0.383   8.086  0.2627  0.0841  0.0249
 5633TIP3    H138458   1.954   0.308   8.140  2.0858 -0.4485  0.1381
 5633TIP3    H238459   1.896   0.407   8.041 -0.5755 -1.3326  0.7312
 5634TIP3   OH238460   2.915   5.546   6.776 -0.3889 -0.9264  0.4397
 5634TIP3    H138461   2.930   5.638   6.795 -0.1988 -0.8566 -0.0406
 5634TIP3    H238462   2.948   5.500   6.853  2.3945 -0.7929 -0.5617
 5635TIP3   OH238463   5.147   1.243   7.021  0.0735  0.2603  0.3885
 5635TIP3    H138464   5.199   1.163   7.011 -2.6586 -1.4977 -1.0641
 5635TIP3    H238465   5.077   1.219   7.082 -0.9649  1.4301 -0.2934
 5636TIP3   OH238466   2.147   5.506   0.181 -0.4017  0.2145  0.4106
 5636TIP3    H138467   2.167   5.566   0.109 -0.0895  0.0846  0.3836
 5636TIP3    H238468   2.053   5.492   0.175 -1.1471  3.3883  2.5326
 5637TIP3   OH238469   1.942   5.989   7.899 -0.0697 -0.0931 -0.3105
 5637TIP3    H138470   1.912   5.944   7.819  2.0440 -1.1869 -0.5674
 5637TIP3    H238471   1.957   5.918   7.961  0.0249  0.5964  0.4662
 5638TIP3   OH238472   6.903   4.196   7.051 -0.2149 -0.4907 -0.5019
 5638TIP3    H138473   6.938   4.259   7.114  0.7234 -0.1787 -1.2995
 5638TIP3    H238474   6.834   4.245   7.005  0.7496  0.1161 -1.3641
 5639TIP3   OH238475   0.553   0.300   1.290 -0.1224  0.0459  0.1894
 5639TIP3    H138476   0.483   0.261   1.237  0.8886 -0.9557 -0.4404
 5639TIP3    H238477   0.585   0.373   1.238  0.3002 -0.4194 -0.2153
 5640TIP3   OH238478   3.489   2.692   0.603 -0.5994  0.1671 -0.0185
 5640TIP3    H138479   3.480   2.775   0.651 -1.8039  1.1768 -1.8919
 5640TIP3    H238480   3.413   2.641   0.630 -0.5234  0.1731  0.2096
 5641TIP3   OH238481   5.701   0.044   8.465 -0.2687 -0.4753  0.2500
 5641TIP3    H138482   5.634   0.046   8.398  0.8342 -0.1051 -0.8679
 5641TIP3    H238483   5.736  -0.045   8.461  0.6818 -0.0716 -0.5708
 5642TIP3   OH238484   1.745   6.893   8.037 -0.3510  0.0710 -0.2991
 5642TIP3    H138485   1.661   6.931   8.064  0.6761  1.1735  1.5697
 5642TIP3    H238486   1.767   6.938   7.956 -0.5367  1.4170  0.3678
 5643TIP3   OH238487   0.114   5.292   1.231 -0.7868  0.0963 -0.2394
 5643TIP3    H138488   0.108   5.346   1.310  0.9773 -0.7242  0.5081
 5643TIP3    H238489   0.174   5.222   1.255  0.0700  0.0097 -2.4450
 5644TIP3   OH238490   6.320   3.257   0.215  0.1987 -0.6440  0.2286
 5644TIP3    H138491   6.255   3.271   0.284 -0.1361 -2.7671  0.4117
 5644TIP3    H238492   6.400   3.234   0.262  0.4025 -0.5096 -0.0550
 5645TIP3   OH238493   2.030   2.770   1.027 -0.3492  0.0217  0.9314
 5645TIP3    H138494   2.123   2.788   1.012 -0.2754 -1.3866 -0.6546
 5645TIP3    H238495   2.019   2.774   1.122  1.5445 -0.6665  1.2225
 5646TIP3   OH238496   4.915   6.855   7.609 -0.9732 -0.2844 -0.1119
 5646TIP3    H138497   4.936   6.947   7.626  0.0884 -0.5112 -0.1207
 5646TIP3    H238498   4.821   6.849   7.624 -1.2242  0.9978 -0.9707
 5647TIP3   OH238499   4.878   0.705   2.769 -0.3794 -0.3193 -0.4797
 5647TIP3    H138500   4.961   0.728   2.728  0.8409 -0.9544  1.4781
 5647TIP3    H238501   4.814   0.765   2.731  1.2528  1.1511 -0.9978
 5648TIP3   OH238502   5.685   5.308   8.343  0.6585 -0.0592  0.0212
 5648TIP3    H138503   5.613   5.248   8.358 -0.9533  1.4015 -1.3967
 5648TIP3    H238504   5.761   5.252   8.328 -0.1558 -1.6343  1.5461
 5649TIP3   OH238505   1.068   6.800   0.303  0.2050 -0.2459 -0.2384
 5649TIP3    H138506   1.061   6.772   0.395 -0.3696 -2.7397 -0.9716
 5649TIP3    H238507   0.984   6.840   0.283 -0.1625 -0.9057 -0.0375
 5650TIP3   OH238508   4.780   0.836   7.282  0.0277  0.6627  0.7742
 5650TIP3    H138509   4.871   0.828   7.311  0.0458  1.8025  1.0695
 5650TIP3    H238510   4.785   0.824   7.187  0.5054  0.8385  0.7714
 5651TIP3   OH238511   0.603   6.239   0.584 -0.2325  0.6141  0.2190
 5651TIP3    H138512   0.686   6.192   0.571 -0.1913  0.9968 -1.0226
 5651TIP3    H238513   0.550   6.180   0.637  0.5258 -0.0027  0.3061
 5652TIP3   OH238514   4.631   0.529   8.375  0.7149 -0.7122  0.1049
 5652TIP3    H138515   4.568   0.457   8.367  0.4907 -0.3291 -2.8221
 5652TIP3    H238516   4.630   0.571   8.289  2.0132  1.8382  1.2217
 5653TIP3   OH238517   6.816   4.176   2.101 -0.3209  0.1767 -0.1974
 5653TIP3    H138518   6.889   4.118   2.082 -0.5638  0.0649 -0.8219
 5653TIP3    H238519   6.774   4.191   2.016 -2.3552 -1.5420  0.4181
 5654TIP3   OH238520   3.414   5.138   2.508 -0.8244  0.1663 -0.3006
 5654TIP3    H138521   3.456   5.096   2.583  0.3155 -0.2184 -1.1356
 5654TIP3    H238522   3.443   5.229   2.513  0.3088 -0.1483 -1.0018
 5655TIP3   OH238523   3.862   2.891   1.764 -0.3998  0.1802 -0.0886
 5655TIP3    H138524   3.941   2.943   1.746 -0.8767  0.4423 -1.6028
 5655TIP3    H238525   3.790   2.947   1.734 -1.2301  0.1517  1.7278
 5656TIP3   OH238526   5.667   6.284   0.489  0.0665 -0.5669 -0.2125
 5656TIP3    H138527   5.688   6.192   0.473 -1.2261 -1.3706  2.2484
 5656TIP3    H238528   5.574   6.283   0.512  0.7088  0.8631  2.8847
 5657TIP3   OH238529   5.107   2.145   1.773  0.7242 -0.3183  0.5407
 5657TIP3    H138530   5.103   2.221   1.831  0.5476 -0.1390  0.2889
 5657TIP3    H238531   5.091   2.179   1.686 -0.4116 -0.7899  0.5466
 5658TIP3   OH238532   6.616   1.249   1.025 -0.4142  0.1505 -0.0633
 5658TIP3    H138533   6.703   1.254   0.984 -1.1237  1.1628 -1.5507
 5658TIP3    H238534   6.596   1.340   1.049 -1.1544 -0.0388  0.0510
 5659TIP3   OH238535   0.739   5.165   0.396 -0.5434  0.8979 -0.1166
 5659TIP3    H138536   0.793   5.182   0.319  0.9854  0.9997  0.9324
 5659TIP3    H238537   0.666   5.227   0.387 -0.5421  0.7297 -1.5920
 5660TIP3   OH238538   4.347   5.294   7.469  0.2600  0.1195  0.2412
 5660TIP3    H138539   4.434   5.312   7.433 -0.3979  1.3532 -0.8132
 5660TIP3    H238540   4.341   5.199   7.470  0.7469  0.0149 -1.9463
 5661TIP3   OH238541   3.373   1.262   7.942 -0.1895 -0.3592  0.3032
 5661TIP3    H138542   3.282   1.283   7.963 -0.4376 -2.2736  1.3512
 5661TIP3    H238543   3.420   1.344   7.959 -1.7406  0.8381 -0.8043
 5662TIP3   OH238544   5.971   6.765   1.579  0.5355 -0.2462  0.1660
 5662TIP3    H138545   6.028   6.760   1.503  0.9880 -2.5003  0.5852
 5662TIP3    H238546   5.885   6.737   1.547  0.0736  1.3275 -0.0490
 5663TIP3   OH238547   5.210   3.924   0.423  0.0707  0.2740  0.2807
 5663TIP3    H138548   5.155   3.863   0.472  2.4346  0.2878  3.2620
 5663TIP3    H238549   5.263   3.868   0.367 -2.3940  0.2279 -2.2173
 5664TIP3   OH238550   4.132   3.975   1.223 -0.2499 -0.3533 -0.1469
 5664TIP3    H138551   4.079   3.956   1.301 -1.3608 -0.6343 -0.9419
 5664TIP3    H238552   4.095   3.919   1.155 -1.5466  2.2776 -1.7706
 5665TIP3   OH238553   1.979   5.038   8.100 -0.6197  0.1689 -0.0317
 5665TIP3    H138554   2.024   5.100   8.042 -0.3212 -0.6846 -0.7323
 5665TIP3    H238555   2.038   4.963   8.105 -0.9898 -0.0791  0.7891
 5666TIP3   OH238556   1.673   5.668   2.752 -0.2402  0.3829  0.0134
 5666TIP3    H138557   1.595   5.718   2.728  0.0252  0.6295 -0.3398
 5666TIP3    H238558   1.745   5.711   2.706  0.2723  0.7936  1.1742
 5667TIP3   OH238559   2.413   6.456   8.498 -0.5226  0.2567 -0.1021
 5667TIP3    H138560   2.486   6.395   8.488  1.7133  2.6166  0.4916
 5667TIP3    H238561   2.398   6.490   8.409 -2.3917 -1.6660 -0.6081
 5668TIP3   OH238562   6.683   2.852   6.525 -0.1232  0.1175 -0.1268
 5668TIP3    H138563   6.686   2.947   6.532 -2.0366  0.1300  1.5590
 5668TIP3    H238564   6.631   2.824   6.600 -0.1520 -2.2215 -0.9223
 5669TIP3   OH238565   4.396   0.475   0.134 -0.1919  0.0776  0.5386
 5669TIP3    H138566   4.446   0.404   0.092  1.0763  1.5389 -0.5486
 5669TIP3    H238567   4.364   0.437   0.216 -0.9700 -2.2511 -0.7481
 5670TIP3   OH238568   5.536   1.675   7.556  0.5296  0.3336  1.0621
 5670TIP3    H138569   5.544   1.684   7.461 -0.5946  0.4703  0.9713
 5670TIP3    H238570   5.624   1.653   7.585  1.3301  2.1364  0.2029
 5671TIP3   OH238571   5.291   5.722   2.221  0.1272 -0.4129 -0.0846
 5671TIP3    H138572   5.293   5.816   2.208 -0.8636 -0.4576 -0.6566
 5671TIP3    H238573   5.225   5.708   2.289  0.1433 -0.6990 -0.1239
 5672TIP3   OH238574   2.279   1.197   0.960  0.1203  0.0817  0.0544
 5672TIP3    H138575   2.345   1.152   1.011  0.7013  0.2311 -0.5583
 5672TIP3    H238576   2.323   1.276   0.927  0.2678 -0.7913 -2.0043
 5673TIP3   OH238577   2.957   1.643   1.364  0.1039  0.7147  0.0575
 5673TIP3    H138578   3.051   1.643   1.383 -0.0072 -1.2230  0.9120
 5673TIP3    H238579   2.925   1.560   1.401 -1.3193 -0.3932 -3.2744
 5674TIP3   OH238580   0.717   3.283   7.755 -0.3301  0.3218 -0.1174
 5674TIP3    H138581   0.731   3.377   7.742  1.4936  0.5913  2.9351
 5674TIP3    H238582   0.630   3.277   7.794 -0.2369  0.8025  0.1691
 5675TIP3   OH238583   6.180   0.979   0.793  0.1869 -0.2179  0.1496
 5675TIP3    H138584   6.236   0.988   0.716 -1.3678  2.0527 -0.8321
 5675TIP3    H238585   6.221   1.032   0.861 -0.5488  1.2346 -0.4897
 5676TIP3   OH238586   5.020   0.356   0.773  0.3736  0.0483  0.0156
 5676TIP3    H138587   4.968   0.294   0.824 -0.2083  0.6485  0.1717
 5676TIP3    H238588   5.046   0.423   0.836 -0.0905  0.6332 -0.3995
 5677TIP3   OH238589   1.516   0.711   2.543  0.2245  0.1425  0.1425
 5677TIP3    H138590   1.503   0.663   2.460 -0.6910 -0.1050  0.4212
 5677TIP3    H238591   1.428   0.724   2.577  0.2326  3.5185 -0.7244
 5678TIP3   OH238592   0.711   1.093   6.275  0.1416  0.2632  0.1724
 5678TIP3    H138593   0.656   1.170   6.262 -1.4831 -0.6139  1.4830
 5678TIP3    H238594   0.758   1.082   6.192 -0.6011  1.8650 -0.4832
 5679TIP3   OH238595   6.397   6.701   1.735 -0.1698 -0.0918  0.7656
 5679TIP3    H138596   6.374   6.724   1.645 -1.0224  3.1728  1.7153
 5679TIP3    H238597   6.486   6.667   1.728  0.1930  1.1021 -1.1831
 5680TIP3   OH238598   0.148   4.889   6.090  0.0176  0.1002 -0.3574
 5680TIP3    H138599   0.125   4.978   6.065  0.6204 -0.1385 -1.8241
 5680TIP3    H238600   0.243   4.891   6.101 -0.0768 -0.1417  0.5676
 5681TIP3   OH238601   6.796   3.915   1.017  0.2523 -0.4468 -0.1605
 5681TIP3    H138602   6.852   3.970   0.962 -0.8947  1.8109  0.7723
 5681TIP3    H238603   6.839   3.914   1.102 -1.5451  2.3422  0.9264
 5682TIP3   OH238604   6.019   5.997   6.305  0.4801  0.0059  0.1091
 5682TIP3    H138605   6.004   6.026   6.215 -1.3535 -0.3677  0.2553
 5682TIP3    H238606   5.997   6.073   6.359 -2.0522 -0.8329  0.3770
 5683TIP3   OH238607   2.686   6.619   0.607 -0.5611 -0.3597  0.0486
 5683TIP3    H138608   2.629   6.575   0.544  0.3019 -1.5701  0.0841
 5683TIP3    H238609   2.773   6.583   0.591 -0.1512 -0.0044  1.3180
 5684TIP3   OH238610   2.520   0.214   1.386  0.1489  0.2605 -0.4236
 5684TIP3    H138611   2.462   0.201   1.462 -1.1078 -2.7613 -1.7638
 5684TIP3    H238612   2.484   0.292   1.343 -0.7601  0.4738  0.6602
 5685TIP3   OH238613   0.168   4.797   1.183 -0.1691  0.1820  0.1272
 5685TIP3    H138614   0.170   4.777   1.089 -1.3854  1.5272 -0.2230
 5685TIP3    H238615   0.260   4.797   1.209  0.3247  1.4214 -1.4582
 5686TIP3   OH238616   3.984   2.576   0.589  0.4772  0.9800  0.5732
 5686TIP3    H138617   3.900   2.579   0.634 -0.2879  0.0486 -0.7283
 5686TIP3    H238618   3.992   2.661   0.546 -0.8096  0.3558 -0.9958
 5687TIP3   OH238619   5.767   3.848   8.148  0.5958  0.1203  0.0346
 5687TIP3    H138620   5.692   3.790   8.139  0.3771  0.4514 -0.2976
 5687TIP3    H238621   5.752   3.917   8.084  1.4848 -0.1373 -0.4784
 5688TIP3   OH238622   2.835   3.087   0.661  0.4088 -0.4857 -0.3455
 5688TIP3    H138623   2.811   3.068   0.570  0.4451  1.7522 -0.8654
 5688TIP3    H238624   2.785   3.023   0.712  0.3570 -1.7543 -1.9160
 5689TIP3   OH238625   1.763   4.776   1.722  0.7649  0.0338  0.3449
 5689TIP3    H138626   1.686   4.721   1.707  0.9208  0.1792 -1.0777
 5689TIP3    H238627   1.737   4.863   1.692  0.9508  0.4675  1.3887
 5690TIP3   OH238628   1.767   4.495   0.465  0.6207 -0.4407  0.2817
 5690TIP3    H138629   1.754   4.488   0.371  1.3693 -2.1005  0.2761
 5690TIP3    H238630   1.746   4.409   0.499 -0.0041  0.2388  1.7027
 5691TIP3   OH238631   1.821   1.862   7.556 -0.0367  0.2515  0.3920
 5691TIP3    H138632   1.775   1.784   7.586  2.5290 -1.3971  0.3145
 5691TIP3    H238633   1.841   1.845   7.464  0.1281  1.2448  0.2284
 5692TIP3   OH238634   1.241   6.131   1.168  0.6792  0.2123 -0.3933
 5692TIP3    H138635   1.205   6.206   1.215 -2.0470 -1.0609 -0.2969
 5692TIP3    H238636   1.219   6.148   1.076  1.0527  0.0310 -0.5193
 5693TIP3   OH238637   3.649   2.760   0.091  0.3303 -0.6777 -0.3376
 5693TIP3    H138638   3.691   2.753   0.177 -0.8142  0.9496  0.4094
 5693TIP3    H238639   3.693   2.833   0.048 -1.6097  1.0409  0.4500
 5694TIP3   OH238640   5.896   6.767   6.680 -0.3077  0.6465 -0.3924
 5694TIP3    H138641   5.829   6.831   6.655 -1.5473 -0.4999 -0.1150
 5694TIP3    H238642   5.851   6.708   6.741  1.3262  0.5811  0.7884
 5695TIP3   OH238643   5.001   6.094   0.765 -0.0889  0.0597 -0.3012
 5695TIP3    H138644   5.040   6.123   0.683 -0.6255  0.9609 -0.2600
 5695TIP3    H238645   5.033   6.157   0.830 -0.6975  0.1367 -0.0676
 5696TIP3   OH238646   2.355   2.721   1.387 -0.0258 -0.2905  0.1290
 5696TIP3    H138647   2.313   2.807   1.384 -0.0396 -0.2931  0.2437
 5696TIP3    H238648   2.443   2.735   1.352  0.3986  0.0174  1.2584
 5697TIP3   OH238649   1.369   4.435   1.260  0.3752  0.1795  0.3351
 5697TIP3    H138650   1.442   4.373   1.259  1.0544  0.9329  1.4560
 5697TIP3    H238651   1.401   4.510   1.210  0.1315  0.2683  0.3115
 5698TIP3   OH238652   3.756   0.337   1.467 -0.2174 -0.0513 -0.1506
 5698TIP3    H138653   3.798   0.264   1.422 -0.3540 -0.4907  0.4203
 5698TIP3    H238654   3.686   0.297   1.518  0.5195  0.3084  1.1807
 5699TIP3   OH238655   6.143   1.884   6.403  0.1843 -0.0353  0.1941
 5699TIP3    H138656   6.086   1.960   6.415 -0.0916 -0.0712 -0.7387
 5699TIP3    H238657   6.087   1.819   6.360  0.3956 -0.7991  1.0416
 5700TIP3   OH238658   6.901   6.650   8.372 -0.7555 -0.1194  0.0677
 5700TIP3    H138659   6.950   6.580   8.329  1.6040  2.2209 -1.3466
 5700TIP3    H238660   6.874   6.612   8.456 -1.7062 -3.4286 -1.5416
 5701TIP3   OH238661   0.012   5.237   8.057  0.1168 -0.3010 -0.0257
 5701TIP3    H138662   0.041   5.317   8.012  1.0784 -0.7157 -0.1601
 5701TIP3    H238663  -0.080   5.228   8.033 -0.6446  1.9265  1.6668
 5702TIP3   OH238664   5.855   1.754   6.402 -0.6793  0.3080 -0.1602
 5702TIP3    H138665   5.867   1.773   6.495 -2.5665 -0.0645  0.2167
 5702TIP3    H238666   5.858   1.659   6.397 -2.2062  0.2237 -0.1573
 5703TIP3   OH238667   0.225   0.276   1.756  0.4895  0.3574 -0.0382
 5703TIP3    H138668   0.173   0.354   1.776 -0.0266  0.3776 -1.4203
 5703TIP3    H238669   0.161   0.207   1.744  0.7955  0.2680 -1.2321
 5704TIP3   OH238670   0.075   3.403   1.108  0.1277  0.1025 -0.4976
 5704TIP3    H138671   0.006   3.371   1.165 -1.7071  0.7055 -2.2884
 5704TIP3    H238672   0.075   3.498   1.122  1.1563  0.0461  0.0365
 5705TIP3   OH238673   3.577   2.271   7.748 -0.7045 -0.7057  0.5674
 5705TIP3    H138674   3.503   2.217   7.777 -1.0613  0.1386  1.3017
 5705TIP3    H238675   3.630   2.283   7.826 -0.4341 -0.3113  0.3284
 5706TIP3   OH238676   5.003   2.609   6.864  0.0599 -0.1464  0.3194
 5706TIP3    H138677   5.049   2.602   6.948  1.2185  1.2702 -0.1566
 5706TIP3    H238678   4.984   2.702   6.854 -1.2700 -0.4648 -0.3867
 5707TIP3   OH238679   2.199   4.305   2.980 -0.2087 -0.8960 -0.2235
 5707TIP3    H138680   2.126   4.354   3.018  0.3833 -0.5745  0.5151
 5707TIP3    H238681   2.192   4.321   2.886 -1.4725 -1.3956 -0.2400
 5708TIP3   OH238682   6.538   3.552   6.441  0.5840 -0.2940 -0.2441
 5708TIP3    H138683   6.523   3.540   6.347  0.7127  0.7434 -0.4045
 5708TIP3    H238684   6.461   3.599   6.472  1.2030  0.6519 -0.1166
 5709TIP3   OH238685   2.952   0.290   0.611  0.1483  0.4718  0.2601
 5709TIP3    H138686   3.040   0.291   0.649  0.7631 -2.2414 -0.8666
 5709TIP3    H238687   2.961   0.240   0.530 -2.8541 -2.1592  1.3421
 5710TIP3   OH238688   6.227   4.044   0.392 -0.4704 -0.3776  0.2383
 5710TIP3    H138689   6.225   3.967   0.335  0.9584 -0.5974  0.4537
 5710TIP3    H238690   6.312   4.083   0.377 -1.0163  0.9390  0.4532
 5711TIP3   OH238691   2.071   0.664   6.593  0.4974 -0.1916 -0.0597
 5711TIP3    H138692   2.160   0.669   6.628  0.5222  0.8854 -0.2496
 5711TIP3    H238693   2.037   0.581   6.628  1.9533 -1.2061 -0.9198
 5712TIP3   OH238694   1.899   1.315   6.845 -0.2517 -0.0856  1.0028
 5712TIP3    H138695   1.806   1.338   6.847 -0.9478 -1.4771 -3.7018
 5712TIP3    H238696   1.902   1.230   6.802  3.2395 -0.0781  0.9532
 5713TIP3   OH238697   4.659   0.990   0.578 -0.4651  0.0110  0.0398
 5713TIP3    H138698   4.654   0.925   0.649 -2.0592 -0.3142 -0.3450
 5713TIP3    H238699   4.569   1.000   0.547  0.3045 -0.6534 -2.6798
 5714TIP3   OH238700   6.472   0.920   7.008 -0.0657  0.6677 -0.0092
 5714TIP3    H138701   6.554   0.960   7.037  0.4143  1.0243 -1.7197
 5714TIP3    H238702   6.434   0.985   6.949  0.1422 -0.8687 -1.9243
 5715TIP3   OH238703   6.098   1.612   7.703 -0.9170 -0.3129  0.5585
 5715TIP3    H138704   6.103   1.649   7.791  1.2033 -1.8204  1.1525
 5715TIP3    H238705   6.103   1.517   7.716  1.6672 -0.5394 -1.2093
 5716TIP3   OH238706   2.938   2.257   0.457 -0.2563  0.4155 -0.1088
 5716TIP3    H138707   2.899   2.228   0.374  1.2396 -0.9298 -0.3877
 5716TIP3    H238708   3.011   2.198   0.471  0.3988  1.5313  1.4690
 5717TIP3   OH238709   4.813   2.752   6.592  0.2363  0.3746  0.0863
 5717TIP3    H138710   4.858   2.816   6.646  1.1729 -0.0301 -0.1932
 5717TIP3    H238711   4.774   2.803   6.521  0.5348  0.6978  0.1509
 5718TIP3   OH238712   4.876   4.925   1.824  0.4801 -0.3365  0.1539
 5718TIP3    H138713   4.842   4.851   1.875  1.6389  0.7711  2.7093
 5718TIP3    H238714   4.843   5.003   1.868  0.2374  0.7364 -1.7958
 5719TIP3   OH238715   4.300   1.911   7.118  0.2527  0.8472 -0.7408
 5719TIP3    H138716   4.262   1.998   7.124  0.2879  0.8337 -0.2402
 5719TIP3    H238717   4.305   1.881   7.209  0.0120  0.2241 -0.9305
 5720TIP3   OH238718   1.008   4.985   0.743 -0.0985 -0.1255  0.3144
 5720TIP3    H138719   0.958   4.972   0.662 -0.5204 -1.1691  0.7267
 5720TIP3    H238720   1.013   5.081   0.753 -1.3100  0.0061 -0.1642
 5721TIP3   OH238721   4.316   0.578   8.182 -0.4194  0.9433 -0.4592
 5721TIP3    H138722   4.405   0.571   8.147  0.2735  0.3672  1.3028
 5721TIP3    H238723   4.314   0.663   8.226 -0.1193  0.1862  1.0659
 5722TIP3   OH238724   3.307   4.113   0.893  0.1400 -0.2846  0.1420
 5722TIP3    H138725   3.399   4.137   0.879  0.2714  0.1486  1.5398
 5722TIP3    H238726   3.274   4.093   0.806  1.0711  1.2941 -0.6214
 5723TIP3   OH238727   0.671   4.343   8.404 -0.4817 -0.1869  0.0721
 5723TIP3    H138728   0.594   4.296   8.435 -1.1378 -0.7358 -2.1840
 5723TIP3    H238729   0.703   4.291   8.330  1.1577  0.8422 -0.0049
 5724TIP3   OH238730   2.286   3.438   8.142  0.4844 -0.3188  0.4099
 5724TIP3    H138731   2.353   3.476   8.199  1.0814  2.1556 -1.7386
 5724TIP3    H238732   2.334   3.380   8.082  0.0037 -2.0616  1.6191
 5725TIP3   OH238733   3.844   2.318   7.163  0.5242 -0.6399 -0.5405
 5725TIP3    H138734   3.792   2.295   7.240 -0.8106  1.0302 -0.8819
 5725TIP3    H238735   3.897   2.392   7.191  0.6108 -0.5194 -1.0192
 5726TIP3   OH238736   0.547   3.648   0.805  0.2848 -0.1832 -0.0291
 5726TIP3    H138737   0.590   3.680   0.885 -0.2350 -1.3347  0.7442
 5726TIP3    H238738   0.562   3.717   0.740  0.8259  0.7303  1.0273
 5727TIP3   OH238739   5.944   5.439   1.829  0.7298  0.3985  0.2709
 5727TIP3    H138740   5.876   5.465   1.766  1.1509  0.1700 -0.2961
 5727TIP3    H238741   6.024   5.479   1.794  1.1279 -0.4719  0.1692
 5728TIP3   OH238742   1.991   5.885   8.371  0.3055 -0.0794 -0.2239
 5728TIP3    H138743   2.047   5.947   8.325 -0.2389  0.5422 -0.0649
 5728TIP3    H238744   1.966   5.930   8.451  0.4045 -0.7519  0.1946
 5729TIP3   OH238745   4.252   1.062   7.082  0.8760 -0.3411  0.1772
 5729TIP3    H138746   4.211   1.095   7.002  0.8493 -1.3204 -0.2240
 5729TIP3    H238747   4.189   1.080   7.151  0.5449 -0.2345 -0.1512
 5730TIP3   OH238748   5.603   5.513   7.182  0.4219  0.5811  0.5744
 5730TIP3    H138749   5.650   5.458   7.120 -0.9716  1.2996 -1.2061
 5730TIP3    H238750   5.670   5.541   7.245  1.4024 -2.0888  0.8363
 5731TIP3   OH238751   1.995   0.104   2.048 -0.1257 -0.1278 -0.3991
 5731TIP3    H138752   1.902   0.123   2.064 -0.6237 -1.4886 -1.4299
 5731TIP3    H238753   2.010   0.021   2.093  1.4654  1.5430  2.3872
 5732TIP3   OH238754   2.846   6.583   1.681  0.3565  0.3454  0.7789
 5732TIP3    H138755   2.770   6.553   1.632  0.0771  0.5188  1.1004
 5732TIP3    H238756   2.892   6.640   1.621  1.6979 -1.8187 -0.3797
 5733TIP3   OH238757   0.078   3.976   6.941  0.2490  0.1425 -0.0413
 5733TIP3    H138758   0.056   4.067   6.960 -0.9648 -0.1814  0.1777
 5733TIP3    H238759   0.018   3.950   6.872  0.8703 -0.3829 -0.3997
 5734TIP3   OH238760   3.112   5.824   8.494 -0.3013  0.0650 -0.0755
 5734TIP3    H138761   3.078   5.739   8.521 -0.0857 -0.0300 -0.1007
 5734TIP3    H238762   3.051   5.887   8.533 -0.5864 -0.1059 -0.2362
 5735TIP3   OH238763   4.415   0.279   8.024 -0.3224  0.0523 -0.3113
 5735TIP3    H138764   4.321   0.291   8.035 -0.4376  0.5522 -1.6869
 5735TIP3    H238765   4.454   0.356   8.066 -0.6236  0.6933 -1.1765
 5736TIP3   OH238766   0.105   3.536   0.068  0.2390  0.0261 -0.4683
 5736TIP3    H138767   0.033   3.476   0.083  0.8395 -0.1251  2.2983
 5736TIP3    H238768   0.085   3.612   0.122  2.4402 -0.3367  1.0049
 5737TIP3   OH238769   0.018   1.435   7.454  0.8010 -0.4406  0.4030
 5737TIP3    H138770  -0.031   1.516   7.464  3.5100  1.2924  0.6063
 5737TIP3    H238771   0.043   1.411   7.543  0.0051 -1.5610  0.3471
 5738TIP3   OH238772   6.102   4.231   0.552 -0.1711  0.4500 -0.0697
 5738TIP3    H138773   6.159   4.176   0.499 -1.3773 -1.8443  0.8576
 5738TIP3    H238774   6.140   4.319   0.547  0.9346 -0.1157 -2.9290
 5739TIP3   OH238775   1.661   6.151   7.305  0.7050  0.1009 -0.0431
 5739TIP3    H138776   1.592   6.211   7.279  0.5344  0.0151  0.2107
 5739TIP3    H238777   1.693   6.114   7.222  1.9623  1.7717 -0.3751
 5740TIP3   OH238778   0.661   1.397   6.467  0.2964 -0.1135  0.6864
 5740TIP3    H138779   0.589   1.376   6.527  0.8608 -2.7800  0.5833
 5740TIP3    H238780   0.640   1.347   6.387  1.9094 -0.4189  0.4220
 5741TIP3   OH238781   4.803   3.240   1.046 -0.3831  0.2413 -0.2261
 5741TIP3    H138782   4.829   3.307   1.109 -1.2305  2.2713 -1.9333
 5741TIP3    H238783   4.841   3.268   0.963  0.6649 -2.3357 -0.7149
 5742TIP3   OH238784   6.231   6.496   1.769  0.1673  0.0234 -0.6453
 5742TIP3    H138785   6.291   6.570   1.781 -0.6904  0.6216  0.0278
 5742TIP3    H238786   6.144   6.532   1.787 -0.2965 -1.0679 -0.6487
 5743TIP3   OH238787   6.874   5.710   7.463 -0.1891  0.1631 -0.1573
 5743TIP3    H138788   6.798   5.673   7.417 -0.5778 -0.9520  1.2817
 5743TIP3    H238789   6.853   5.699   7.556  1.7022 -0.1379  0.2834
 5744TIP3   OH238790   2.620   4.203   8.205  0.1875 -0.0130  0.4097
 5744TIP3    H138791   2.713   4.214   8.225  0.3726  0.2080 -0.5102
 5744TIP3    H238792   2.577   4.203   8.290  1.2424 -2.4361  1.0450
 5745TIP3   OH238793   1.628   0.757   7.806 -0.3464  0.1462 -0.4224
 5745TIP3    H138794   1.589   0.741   7.892  1.2897 -1.7650  0.0305
 5745TIP3    H238795   1.565   0.721   7.744 -0.9799  0.4449  0.0372
 5746TIP3   OH238796   5.455   1.346   0.378 -0.4240  0.4113  0.0299
 5746TIP3    H138797   5.467   1.251   0.381 -2.0575  0.2006  0.4913
 5746TIP3    H238798   5.389   1.360   0.310  1.6563  1.4765 -1.9488
 5747TIP3   OH238799   2.516   1.725   7.742 -0.3901  0.0728 -0.2029
 5747TIP3    H138800   2.475   1.805   7.708  0.3629  0.7019  0.3229
 5747TIP3    H238801   2.447   1.659   7.736 -1.3952  1.0252  0.3679
 5748TIP3   OH238802   3.261   0.702   2.928 -0.8959  0.6117 -0.2590
 5748TIP3    H138803   3.195   0.667   2.988 -0.3174  3.6908  2.4233
 5748TIP3    H238804   3.340   0.651   2.947 -1.3968 -0.2328 -0.3953
 5749TIP3   OH238805   4.300   6.475   8.296  0.0414 -0.0261 -0.1283
 5749TIP3    H138806   4.372   6.416   8.319  0.0591  0.7279  1.9218
 5749TIP3    H238807   4.229   6.417   8.271  1.8758 -0.8190 -4.4097
 5750TIP3   OH238808   3.931   3.986   8.012  0.8856  0.2152 -0.0802
 5750TIP3    H138809   4.012   4.026   8.043 -0.0722  1.0952  1.3740
 5750TIP3    H238810   3.899   4.046   7.945  2.0177 -0.7598 -1.5651
 5751TIP3   OH238811   4.668   6.797   7.721 -0.2976 -0.0033  0.2376
 5751TIP3    H138812   4.606   6.784   7.793  1.9574 -0.6130  2.1836
 5751TIP3    H238813   4.672   6.713   7.677 -1.1164  0.1494 -0.1386
 5752TIP3   OH238814   6.625   0.302   6.941 -0.4729 -0.5603 -0.2625
 5752TIP3    H138815   6.666   0.268   6.862 -1.1155  0.0912 -0.8914
 5752TIP3    H238816   6.533   0.280   6.932 -0.6438  0.0169  0.0393
 5753TIP3   OH238817   4.990   1.660   0.225  0.2191  0.2989 -0.1687
 5753TIP3    H138818   5.070   1.710   0.241 -0.4915  2.0858 -1.8270
 5753TIP3    H238819   5.007   1.614   0.142 -0.2127  0.1458 -0.1752
 5754TIP3   OH238820   1.490   0.560   1.104 -0.6036  0.4144  0.3202
 5754TIP3    H138821   1.549   0.632   1.083 -1.6743  1.9399  2.2128
 5754TIP3    H238822   1.529   0.519   1.181 -0.7192 -0.1824  0.0677
 5755TIP3   OH238823   2.846   2.489   1.333 -0.1337  0.8577  0.2965
 5755TIP3    H138824   2.915   2.448   1.281 -2.0623 -0.6797 -1.1763
 5755TIP3    H238825   2.893   2.535   1.403  2.4052  0.8043 -1.2719
 5756TIP3   OH238826   5.655   3.020   6.824  0.5973  0.1462 -0.0358
 5756TIP3    H138827   5.710   3.090   6.788  0.6571  1.9767  3.1996
 5756TIP3    H238828   5.712   2.975   6.887 -0.2906 -1.0228 -0.0319
 5757TIP3   OH238829   3.724   6.304   2.351 -0.3084 -0.7579  0.1759
 5757TIP3    H138830   3.776   6.383   2.365  0.7795 -1.5384  0.6616
 5757TIP3    H238831   3.683   6.317   2.266 -0.6270  0.5819  0.5115
 5758TIP3   OH238832   4.090   0.777   2.607 -0.2461  0.4053  0.5627
 5758TIP3    H138833   4.060   0.715   2.673 -0.9176  1.2756  1.0896
 5758TIP3    H238834   4.097   0.860   2.653  0.1921  0.8319 -0.2464
 5759TIP3   OH238835   5.033   2.175   0.666  0.1743 -0.3172  0.5392
 5759TIP3    H138836   5.004   2.261   0.635 -2.1686 -1.8511 -2.0314
 5759TIP3    H238837   4.975   2.156   0.740 -1.3445 -0.7773 -0.7006
 5760TIP3   OH238838   2.918   1.174   7.677  0.4012 -0.1830  0.2512
 5760TIP3    H138839   2.914   1.083   7.705 -0.4724 -0.6634 -1.3407
 5760TIP3    H238840   2.833   1.210   7.700 -0.2842 -0.5516 -1.5606
 5761TIP3   OH238841   4.531   4.309   0.732  0.6134 -0.4180 -0.1419
 5761TIP3    H138842   4.578   4.308   0.649 -1.3235 -2.5395 -1.3212
 5761TIP3    H238843   4.530   4.401   0.758  2.5456  0.0995 -1.6735
 5762TIP3   OH238844   0.663   3.037   1.101 -0.9572 -0.1527 -0.0211
 5762TIP3    H138845   0.607   3.114   1.087 -1.0030 -0.0342  0.7490
 5762TIP3    H238846   0.715   3.029   1.021 -1.0420  0.6054 -0.1552
 5763TIP3   OH238847   0.063   5.308   0.246  0.3321 -0.2136 -0.1334
 5763TIP3    H138848   0.059   5.240   0.314  0.6337 -0.0204  0.0781
 5763TIP3    H238849   0.152   5.342   0.251  0.8283 -1.1940 -1.6071
 5764TIP3   OH238850   6.435   2.331   2.153  0.0250  0.7727  0.0771
 5764TIP3    H138851   6.490   2.314   2.229 -1.3285 -0.1646  0.8817
 5764TIP3    H238852   6.464   2.266   2.088  1.9712  2.3169 -0.6974
 5765TIP3   OH238853   6.655   6.401   1.963 -0.0117  0.2951 -0.2444
 5765TIP3    H138854   6.655   6.305   1.972  0.3055  0.3690  0.5727
 5765TIP3    H238855   6.654   6.415   1.868  0.8358 -0.5230 -0.3949
 5766TIP3   OH238856   0.120   5.623   0.654  0.0767 -0.5256  0.5260
 5766TIP3    H138857   0.152   5.548   0.605 -1.3087 -0.8129  0.0421
 5766TIP3    H238858   0.166   5.698   0.616  0.1463 -0.9195 -0.1713
 5767TIP3   OH238859   0.839   5.465   0.178  0.8013  0.2668  0.1862
 5767TIP3    H138860   0.794   5.447   0.096  0.1442 -0.7788  0.7602
 5767TIP3    H238861   0.790   5.537   0.217 -0.5679 -0.9857  0.8994
 5768TIP3   OH238862   1.693   1.126   7.380 -0.1182 -0.4438  0.7261
 5768TIP3    H138863   1.639   1.114   7.302  0.0098 -0.0550  0.5745
 5768TIP3    H238864   1.646   1.079   7.449  0.1856 -1.4788  0.2384
 5769TIP3   OH238865   1.132   1.623   2.018  0.0907 -0.4510  0.0009
 5769TIP3    H138866   1.059   1.623   1.955 -1.2911  0.8033  1.5094
 5769TIP3    H238867   1.203   1.668   1.972 -0.2185 -1.2761 -1.3340
 5770TIP3   OH238868   1.002   4.754   7.362 -0.3865 -0.4700 -0.0960
 5770TIP3    H138869   1.004   4.828   7.422 -1.2648 -1.4932  1.2732
 5770TIP3    H238870   1.007   4.793   7.275 -1.5497  1.2534  0.5484
 5771TIP3   OH238871   2.390   3.792   7.235  0.0732 -0.1539  0.0734
 5771TIP3    H138872   2.449   3.752   7.172  0.8988 -0.0860  0.7769
 5771TIP3    H238873   2.444   3.805   7.313  0.1003  3.0622 -0.3488
 5772TIP3   OH238874   3.354   5.909   1.152  0.3586  0.3789 -0.0361
 5772TIP3    H138875   3.279   5.966   1.136 -0.4807 -0.4902  0.6974
 5772TIP3    H238876   3.429   5.969   1.157 -0.2046  1.2205 -1.1898
 5773TIP3   OH238877   5.639   4.594   1.080 -0.1446 -0.4949 -0.5034
 5773TIP3    H138878   5.688   4.676   1.074  0.8727 -0.9618  0.8531
 5773TIP3    H238879   5.624   4.568   0.989 -0.4377  1.1494 -0.9535
 5774TIP3   OH238880   1.185   0.629   1.945  0.0464 -0.4965  0.1973
 5774TIP3    H138881   1.094   0.614   1.920 -0.0297  1.3518 -0.7768
 5774TIP3    H238882   1.187   0.613   2.040 -1.1939 -0.9117  0.1624
 5775TIP3   OH238883   1.828   3.900   1.148  0.5673 -0.0472 -0.2197
 5775TIP3    H138884   1.831   3.965   1.078  1.9376  0.4727  0.2861
 5775TIP3    H238885   1.750   3.923   1.199  0.0021  0.0429 -1.1082
 5776TIP3   OH238886   1.833   4.958   7.405  0.0009  0.5056 -0.1373
 5776TIP3    H138887   1.822   5.044   7.364  0.5490  1.2008  1.1184
 5776TIP3    H238888   1.748   4.941   7.447  0.3343  1.1141  0.8208
 5777TIP3   OH238889   1.733   6.125   0.816  0.1885 -0.2036 -0.2989
 5777TIP3    H138890   1.664   6.192   0.816  0.0527 -0.3065  0.9833
 5777TIP3    H238891   1.696   6.054   0.869  1.4023 -0.1125  0.7249
 5778TIP3   OH238892   0.786   2.742   1.176 -0.1392 -0.2255  0.5090
 5778TIP3    H138893   0.780   2.693   1.258 -1.5528  0.9453  1.1451
 5778TIP3    H238894   0.695   2.750   1.146  0.3487 -0.7125 -1.2460
 5779TIP3   OH238895   2.371   2.182   6.836 -0.2524  0.0821 -0.1078
 5779TIP3    H138896   2.353   2.103   6.887 -0.1003  0.1270  0.0201
 5779TIP3    H238897   2.460   2.169   6.804 -0.1578  0.2829  0.0705
 5780TIP3   OH238898   1.509   6.068   6.296 -0.3565  0.4489  0.4603
 5780TIP3    H138899   1.537   6.102   6.211 -0.9800  0.3380  0.2074
 5780TIP3    H238900   1.590   6.057   6.345  0.1056 -0.3787 -0.4525
 5781TIP3   OH238901   1.742   2.669   1.968 -0.3286  0.4316 -0.1446
 5781TIP3    H138902   1.716   2.739   2.028 -1.8932  0.0045 -0.2865
 5781TIP3    H238903   1.665   2.613   1.962 -1.0525  1.5393 -4.1285
 5782TIP3   OH238904   0.144   4.124   1.317  0.5019 -0.2870  0.1586
 5782TIP3    H138905   0.060   4.077   1.319  0.4529 -0.2683 -0.9068
 5782TIP3    H238906   0.133   4.189   1.248  1.5059 -0.4957 -0.2120
 5783TIP3   OH238907   0.452   0.379   1.859  0.3180 -0.5663 -0.1441
 5783TIP3    H138908   0.475   0.331   1.939  1.0492 -1.0551 -0.6418
 5783TIP3    H238909   0.381   0.327   1.821  0.5209 -0.7760 -0.2349
 5784TIP3   OH238910   3.054   2.399   1.193 -0.5683  0.1533 -0.2179
 5784TIP3    H138911   3.049   2.338   1.120 -0.0982  0.8478 -0.8468
 5784TIP3    H238912   3.117   2.360   1.253 -0.6278 -0.2023 -0.3833
 5785TIP3   OH238913   1.350   1.225   7.875 -0.2214  0.9841 -0.3301
 5785TIP3    H138914   1.404   1.213   7.954 -0.7027  1.4957  0.0888
 5785TIP3    H238915   1.339   1.320   7.868 -0.7404  0.9061 -0.6275
 5786TIP3   OH238916   0.455   1.918   2.297 -0.4739  0.3553 -0.2208
 5786TIP3    H138917   0.447   1.872   2.213 -0.7285 -3.2487  1.5967
 5786TIP3    H238918   0.544   1.952   2.297 -0.8866  1.6985 -2.4378
 5787TIP3   OH238919   5.980   3.182   1.617 -0.1318 -0.1865  0.2782
 5787TIP3    H138920   6.034   3.240   1.563  0.0169  0.2393  0.8734
 5787TIP3    H238921   5.890   3.202   1.592 -0.0306 -0.7178 -0.5394
 5788TIP3   OH238922   3.404   4.378   0.374  0.1166 -0.3777  0.0372
 5788TIP3    H138923   3.428   4.293   0.411  2.1051 -0.8653 -2.1586
 5788TIP3    H238924   3.435   4.441   0.439  1.3005 -1.2511  0.3519
 5789TIP3   OH238925   0.685   2.746   1.967  0.1721  0.0263  0.0168
 5789TIP3    H138926   0.701   2.840   1.955  0.4084 -0.0000  0.1122
 5789TIP3    H238927   0.591   2.740   1.984  0.0373  0.1772 -0.6385
 5790TIP3   OH238928   0.919   4.587   0.660 -0.4952  0.0815  0.3659
 5790TIP3    H138929   0.943   4.564   0.750 -0.5710  0.4251  0.4762
 5790TIP3    H238930   0.859   4.661   0.669  0.2614  0.7614 -0.0008
 5791TIP3   OH238931   2.715   3.786   8.467 -0.4410 -0.1736  0.5099
 5791TIP3    H138932   2.631   3.784   8.513  0.3004 -0.6045  1.8862
 5791TIP3    H238933   2.734   3.880   8.457 -0.2954 -0.0684  1.6904
 5792TIP3   OH238934   6.740   3.301   7.174 -0.4603 -0.0422  0.4919
 5792TIP3    H138935   6.698   3.304   7.088  0.2629  0.2975  0.1403
 5792TIP3    H238936   6.668   3.315   7.236 -0.7794  1.2269 -0.1238
 5793TIP3   OH238937   0.886   4.138   0.972  0.0352  0.2141 -0.3171
 5793TIP3    H138938   0.898   4.207   0.906  2.2631 -0.0832 -0.3052
 5793TIP3    H238939   0.900   4.056   0.924  1.2770 -0.0253  0.4085
 5794TIP3   OH238940   6.517   6.715   6.403 -0.1777 -0.1074 -0.2553
 5794TIP3    H138941   6.494   6.632   6.444 -0.9360 -0.1228 -0.6974
 5794TIP3    H238942   6.561   6.690   6.322 -1.4685 -0.1017 -0.9838
 5795TIP3   OH238943   1.913   4.436   2.844 -0.3948 -0.1061  0.1197
 5795TIP3    H138944   1.908   4.376   2.770 -0.9786  0.3436 -0.2076
 5795TIP3    H238945   1.989   4.492   2.825 -0.7761  0.2635 -0.3333
 5796TIP3   OH238946   3.386   0.915   2.749  0.1091 -0.4539  0.2515
 5796TIP3    H138947   3.362   0.836   2.797  0.3530 -1.5363 -1.3448
 5796TIP3    H238948   3.441   0.884   2.677  2.0848  1.4210  0.8752
 5797TIP3   OH238949   5.705   6.272   7.626  0.4170 -0.8840 -0.1745
 5797TIP3    H138950   5.649   6.200   7.597  0.9934 -1.0161 -0.9945
 5797TIP3    H238951   5.668   6.298   7.711 -2.0294  0.2526 -1.4661
 5798TIP3   OH238952   0.578   5.916   6.995  0.3803  0.0176  0.0094
 5798TIP3    H138953   0.626   5.866   7.061  0.5556 -0.7115 -0.6616
 5798TIP3    H238954   0.493   5.872   6.988  0.3613  0.0920 -0.2476
 5799TIP3   OH238955   0.887   5.979   7.431 -0.4419  0.4499  0.4627
 5799TIP3    H138956   0.967   5.934   7.457 -0.6769  0.6382  1.5272
 5799TIP3    H238957   0.821   5.949   7.493 -1.0322  0.8664  0.0501
 5800TIP3   OH238958   4.330   6.097   1.837 -0.0285 -0.9996 -0.2888
 5800TIP3    H138959   4.372   6.042   1.903 -0.2177 -2.7327 -1.5380
 5800TIP3    H238960   4.294   6.170   1.886  2.1340 -0.8328  1.1715
 5801TIP3   OH238961   2.853   4.378   1.437  0.0305 -0.7159 -0.2775
 5801TIP3    H138962   2.903   4.355   1.515  1.1123  1.4141 -0.2797
 5801TIP3    H238963   2.881   4.313   1.371  0.2840 -1.5624  0.6341
 5802TIP3   OH238964   0.453   0.613   1.473 -0.3019 -0.5446 -0.0553
 5802TIP3    H138965   0.374   0.560   1.483  0.3302 -1.7340 -1.0202
 5802TIP3    H238966   0.521   0.565   1.520 -0.1339  0.4914  0.8086
 5803TIP3   OH238967   5.126   0.946   1.489  0.0966  0.4783  0.0391
 5803TIP3    H138968   5.170   0.871   1.529  1.6103  0.8186 -0.8827
 5803TIP3    H238969   5.172   1.022   1.526  0.6618  0.8285 -1.3266
 5804TIP3   OH238970   0.557   1.386   7.641 -1.1383  0.1114 -0.1383
 5804TIP3    H138971   0.472   1.399   7.599 -0.1243  1.2309 -2.0037
 5804TIP3    H238972   0.538   1.386   7.734 -2.9762  2.3413 -0.4197
 5805TIP3   OH238973   2.439   6.042   6.350  0.1149 -0.1976 -0.1808
 5805TIP3    H138974   2.469   6.105   6.416  0.5223  1.2921 -1.7002
 5805TIP3    H238975   2.366   6.087   6.306 -1.2029 -1.8088  0.2864
 5806TIP3   OH238976   3.020   6.091   1.644  0.0687 -0.6380  0.7398
 5806TIP3    H138977   2.998   6.069   1.553  1.3599 -0.4508  0.3724
 5806TIP3    H238978   3.025   6.006   1.688  1.5463 -0.8941  0.1332
 5807TIP3   OH238979   5.399   3.845   1.498  0.0949 -0.2473  0.0934
 5807TIP3    H138980   5.494   3.836   1.498  0.1058 -0.1244  0.0636
 5807TIP3    H238981   5.383   3.937   1.519 -0.0196 -0.2999  0.2410
 5808TIP3   OH238982   0.993   2.986   0.880 -0.2279 -0.2735 -0.0882
 5808TIP3    H138983   0.924   2.986   0.814  1.6404 -1.5951 -2.1847
 5808TIP3    H238984   1.074   2.998   0.830  1.3663 -2.2698  1.8143
 5809TIP3   OH238985   5.417   1.838   1.237 -0.3600 -0.0002 -0.1949
 5809TIP3    H138986   5.492   1.877   1.283 -1.1703 -0.2074  1.3637
 5809TIP3    H238987   5.452   1.757   1.198  0.1781 -0.2328  0.7404
 5810TIP3   OH238988   6.931   3.097   7.139 -0.4435 -0.1241 -0.1341
 5810TIP3    H138989   6.981   3.140   7.070  1.3614  0.8357  1.6462
 5810TIP3    H238990   6.860   3.157   7.159 -0.1394  0.2597 -0.2031
 5811TIP3   OH238991   1.043   6.097   7.802 -0.1020 -0.2931 -0.0019
 5811TIP3    H138992   0.972   6.135   7.751 -1.1678 -1.2990  0.6855
 5811TIP3    H238993   1.112   6.164   7.801 -0.1238 -0.1821 -2.5933
 5812TIP3   OH238994   4.730   4.226   1.484  0.3470  0.4476 -0.1756
 5812TIP3    H138995   4.814   4.269   1.500  1.4752 -1.5710 -0.4209
 5812TIP3    H238996   4.723   4.221   1.389  1.7366 -2.5160 -0.2436
 5813TIP3   OH238997   5.648   5.338   7.531  0.1012 -0.9279 -0.5937
 5813TIP3    H138998   5.671   5.267   7.471 -0.2194 -0.0468 -1.7992
 5813TIP3    H238999   5.709   5.408   7.509 -0.0281 -0.5865  0.1111
 5814TIP3   OH239000   0.621   4.151   1.947  0.4900  0.0565 -0.6973
 5814TIP3    H139001   0.606   4.114   2.035  1.3531  1.9891  0.3238
 5814TIP3    H239002   0.707   4.193   1.953  0.4320  0.4827 -2.4035
 5815TIP3   OH239003   6.689   1.407   8.425 -0.4368  0.2967 -1.1366
 5815TIP3    H139004   6.634   1.332   8.449  0.4086  0.0249  0.0301
 5815TIP3    H239005   6.779   1.374   8.431 -0.0772  1.2160 -1.2912
 5816TIP3   OH239006   2.991   2.114   1.909  0.2140  0.2752 -0.3144
 5816TIP3    H139007   2.994   2.081   1.999  0.4914  1.1135 -0.0034
 5816TIP3    H239008   2.925   2.059   1.866  0.0925 -0.1501  0.3918
 5817TIP3   OH239009   3.125   2.337   2.685  0.4644 -0.0299 -0.0209
 5817TIP3    H139010   3.133   2.427   2.715 -0.4200 -0.2742  1.0103
 5817TIP3    H239011   3.211   2.298   2.701 -0.0436 -0.2456  2.6247
 5818TIP3   OH239012   2.627   0.450   0.558 -0.5907 -0.1515  0.1011
 5818TIP3    H139013   2.640   0.394   0.482 -0.5110  0.2471 -0.1777
 5818TIP3    H239014   2.604   0.389   0.629 -0.4372 -0.5404 -0.1838
 5819TIP3   OH239015   4.820   6.592   1.833 -0.3300  0.6879 -0.1985
 5819TIP3    H139016   4.883   6.567   1.765  0.5302  0.9577  0.4701
 5819TIP3    H239017   4.737   6.603   1.787  0.2212  0.7964 -1.1921
 5820TIP3   OH239018   0.166   1.018   0.594 -0.2354 -0.1226  0.2951
 5820TIP3    H139019   0.186   0.954   0.526  0.5105 -0.1332  0.5117
 5820TIP3    H239020   0.129   0.967   0.666  2.3809 -0.6899  1.3549
 5821TIP3   OH239021   4.831   0.880   1.600 -0.1561 -0.3184  0.0350
 5821TIP3    H139022   4.858   0.821   1.530  0.7268  0.4019 -0.2575
 5821TIP3    H239023   4.913   0.905   1.643 -0.6819 -0.7289  1.3145
 5822TIP3   OH239024   2.174   1.520   1.452  0.3032  0.0913  0.3593
 5822TIP3    H139025   2.242   1.582   1.428 -0.9650  2.0285  1.5133
 5822TIP3    H239026   2.118   1.514   1.374 -1.6222  3.3590  1.3034
 5823TIP3   OH239027   3.419   2.918   7.346  0.7091 -0.2114 -0.8655
 5823TIP3    H139028   3.324   2.921   7.335  0.5729  1.3608  0.4204
 5823TIP3    H239029   3.433   2.853   7.415  0.4043  0.8437  0.2127
 5824TIP3   OH239030   0.818   5.239   8.296 -0.1864  0.1639  0.1535
 5824TIP3    H139031   0.759   5.166   8.315  1.9033 -2.1483 -1.6131
 5824TIP3    H239032   0.777   5.314   8.338 -3.0989 -1.7537  1.0508
 5825TIP3   OH239033   2.878   5.413   2.061 -0.5266 -0.5127 -0.4085
 5825TIP3    H139034   2.820   5.385   2.131 -0.3396  0.6203  0.2223
 5825TIP3    H239035   2.959   5.438   2.106  0.0442 -0.9676 -1.1591
 5826TIP3   OH239036   0.610   4.451   0.955  0.1495  0.0460 -0.8802
 5826TIP3    H139037   0.641   4.535   0.923  0.4356  0.0197 -0.6798
 5826TIP3    H239038   0.670   4.429   1.027 -0.6923  0.2691 -0.1016
 5827TIP3   OH239039   1.708   0.332   1.548  0.0074  0.0772 -0.2738
 5827TIP3    H139040   1.751   0.331   1.634 -0.4502 -1.9075 -0.0118
 5827TIP3    H239041   1.758   0.269   1.496 -1.0850 -0.4569 -0.7185
 5828TIP3   OH239042   1.167   0.695   0.118 -0.4642  0.0478 -0.1481
 5828TIP3    H139043   1.169   0.633   0.045 -1.1668  0.2976 -0.3888
 5828TIP3    H239044   1.191   0.779   0.078 -0.8245  0.1786 -0.0971
 5829TIP3   OH239045   3.663   1.484   6.487  0.1888  0.0463 -0.6209
 5829TIP3    H139046   3.711   1.401   6.489 -0.6095 -0.4254  1.4921
 5829TIP3    H239047   3.731   1.551   6.486  0.8498 -0.6136 -1.5389
 5830TIP3   OH239048   6.289   3.520   0.415 -0.3080 -0.0249  0.8145
 5830TIP3    H139049   6.270   3.608   0.447  1.0857 -0.1563  2.1263
 5830TIP3    H239050   6.294   3.529   0.320  2.8555  2.0251  1.0281
 5831TIP3   OH239051   5.665   1.804   1.856  0.0317 -0.2051 -0.2351
 5831TIP3    H139052   5.640   1.806   1.948 -0.3727 -1.8304 -0.2809
 5831TIP3    H239053   5.669   1.896   1.830  2.0251  0.4032  1.8926
 5832TIP3   OH239054   6.602   1.517   2.691 -0.7699  0.5914  0.0006
 5832TIP3    H139055   6.658   1.582   2.648 -0.9957 -0.0062 -1.2717
 5832TIP3    H239056   6.513   1.553   2.681 -0.8026  0.5627  0.1883
 5833TIP3   OH239057   4.474   4.437   7.335 -0.0297 -0.5398  1.0041
 5833TIP3    H139058   4.479   4.432   7.431  0.5031 -1.8828  0.9363
 5833TIP3    H239059   4.556   4.479   7.309 -0.4329  0.3531  1.1586
 5834TIP3   OH239060   1.858   0.996   1.213  0.3331 -0.2452 -0.3070
 5834TIP3    H139061   1.924   0.967   1.150  0.1842  0.9671 -1.0546
 5834TIP3    H239062   1.907   1.046   1.278  0.2453  0.1532 -0.5403
 5835TIP3   OH239063   3.046   5.819   8.069  0.0453 -0.2615  0.0961
 5835TIP3    H139064   3.069   5.888   8.008 -0.5900 -0.6203 -0.5649
 5835TIP3    H239065   3.120   5.759   8.067 -0.8080 -1.3528 -1.9287
 5836TIP3   OH239066   6.393   6.549   0.818 -0.6490 -0.0875  0.3486
 5836TIP3    H139067   6.358   6.465   0.846  0.2343 -0.4704  0.3413
 5836TIP3    H239068   6.376   6.553   0.724  0.3266 -0.7742  0.1347
 5837TIP3   OH239069   3.995   0.918   0.839  0.6865 -0.6842 -0.0610
 5837TIP3    H139070   3.981   1.004   0.879 -0.1037 -1.1801  0.7838
 5837TIP3    H239071   4.086   0.919   0.810  0.4063  0.8004 -0.9805
 5838TIP3   OH239072   2.583   1.906   1.945  0.1075  0.0413 -0.2667
 5838TIP3    H139073   2.568   1.936   2.035  2.1480  2.8464 -0.7150
 5838TIP3    H239074   2.668   1.863   1.948 -0.2821 -0.7739 -0.6845
 5839TIP3   OH239075   4.739   0.232   2.623  1.1990  0.4841  0.7433
 5839TIP3    H139076   4.785   0.153   2.649 -0.1068 -0.6773 -0.3109
 5839TIP3    H239077   4.649   0.203   2.604  0.8955  2.0490 -0.4914
 5840TIP3   OH239078   4.187   0.189   6.440 -0.0693 -0.6165  0.2370
 5840TIP3    H139079   4.193   0.100   6.475  0.4608 -1.1711 -1.1840
 5840TIP3    H239080   4.099   0.218   6.464  0.0478 -1.1858  1.4511
 5841TIP3   OH239081   5.911   6.080   7.671  0.0193 -0.1884  0.5358
 5841TIP3    H139082   5.828   6.122   7.650  0.3119  0.0076 -0.2433
 5841TIP3    H239083   5.888   5.988   7.685 -0.4601  0.0279  1.2224
 5842TIP3   OH239084   4.638   1.650   1.279 -0.0890 -0.0057  0.3213
 5842TIP3    H139085   4.552   1.618   1.253  0.1084 -0.4672  0.2351
 5842TIP3    H239086   4.625   1.682   1.369 -0.5039  0.5470  0.0713
 5843TIP3   OH239087   2.223   5.201   0.936  0.1318  0.2553 -0.4469
 5843TIP3    H139088   2.131   5.211   0.963  0.5414  2.5508  0.2839
 5843TIP3    H239089   2.227   5.242   0.850  0.6308  1.0131 -0.0746
 5844TIP3   OH239090   3.464   5.293   0.726  0.2826 -0.7309  0.1802
 5844TIP3    H139091   3.494   5.234   0.795  2.5036 -0.1622 -0.2312
 5844TIP3    H239092   3.513   5.266   0.648 -0.7709 -0.1343 -0.7161
 5845TIP3   OH239093   2.279   1.610   7.674  0.2708 -0.6061 -0.6771
 5845TIP3    H139094   2.226   1.606   7.595  0.4777 -3.2594 -0.7560
 5845TIP3    H239095   2.222   1.578   7.744  1.0104 -1.2587 -0.3455
 5846TIP3   OH239096   6.472   3.062   2.075 -0.3660  0.4709 -0.1399
 5846TIP3    H139097   6.491   3.006   2.150 -0.1628 -1.1848 -1.3767
 5846TIP3    H239098   6.507   3.148   2.099 -0.4787  0.0287  1.7159
 5847TIP3   OH239099   4.579   5.393   2.061 -0.1035 -0.1281  0.0755
 5847TIP3    H139100   4.614   5.342   1.988  0.8864  1.2774 -0.4865
 5847TIP3    H239101   4.519   5.455   2.021  0.0517  0.3155  0.5077
 5848TIP3   OH239102   6.917   5.907   0.964 -0.0455 -0.1592  0.3343
 5848TIP3    H139103   6.867   5.863   0.895 -1.9415 -2.4626  2.9476
 5848TIP3    H239104   6.925   5.842   1.034  1.2975  2.1640  2.5414
 5849TIP3   OH239105   1.148   3.809   1.370  0.2973 -0.0370 -0.6430
 5849TIP3    H139106   1.136   3.732   1.425 -0.7313  0.2565 -0.4365
 5849TIP3    H239107   1.063   3.821   1.327  0.6883  0.5213 -1.2676
 5850TIP3   OH239108   0.586   0.030   0.800  0.3124 -0.1819 -0.5997
 5850TIP3    H139109   0.508   0.005   0.849 -0.4692  0.6270 -1.4064
 5850TIP3    H239110   0.599   0.122   0.822  0.9199 -0.2513 -0.6489
 5851TIP3   OH239111   0.491   6.479   1.297  0.0877 -0.2616 -0.2520
 5851TIP3    H139112   0.543   6.477   1.378  0.9716 -1.0530 -0.8189
 5851TIP3    H239113   0.520   6.559   1.253  1.6894 -1.2558 -1.0858
 5852TIP3   OH239114   3.939   5.927   2.045  0.7192 -0.3132 -0.1259
 5852TIP3    H139115   4.018   5.980   2.057 -0.3015  1.3532 -0.3962
 5852TIP3    H239116   3.905   5.915   2.134  0.7529 -0.1800 -0.0944
 5853TIP3   OH239117   5.153   4.942   1.806  0.4615  0.3401 -0.2778
 5853TIP3    H139118   5.177   5.024   1.849  2.5155 -0.7231  0.7797
 5853TIP3    H239119   5.057   4.942   1.805  0.4100  2.6553 -0.1759
 5854TIP3   OH239120   3.812   2.237   8.383 -0.1282 -0.0950 -0.1057
 5854TIP3    H139121   3.834   2.154   8.343  0.2637 -1.5251  2.7983
 5854TIP3    H239122   3.762   2.284   8.316 -0.4955 -2.6982 -1.7905
 5855TIP3   OH239123   4.520   5.734   8.166 -0.6052  0.1409 -0.3055
 5855TIP3    H139124   4.471   5.659   8.200  0.3974  0.0902  1.0792
 5855TIP3    H239125   4.541   5.787   8.243 -1.0171  1.7099 -1.2119
 5856TIP3   OH239126   2.442   3.788   7.759 -0.1739 -0.4307 -0.1543
 5856TIP3    H139127   2.354   3.821   7.739  0.7724  0.4621 -3.5539
 5856TIP3    H239128   2.437   3.694   7.743 -0.3242 -0.2431 -1.2974
 5857TIP3   OH239129   0.308   1.409   0.996  0.1425  0.9558  0.0187
 5857TIP3    H139130   0.313   1.325   0.950  0.6895 -0.5717  2.6512
 5857TIP3    H239131   0.218   1.414   1.027  0.9306 -0.4823  2.8461
 5858TIP3   OH239132   6.449   5.587   0.454  0.1178  0.1177  0.0740
 5858TIP3    H139133   6.431   5.558   0.543 -0.7519  0.8787  0.1562
 5858TIP3    H239134   6.442   5.507   0.401  0.6116 -0.3316  0.6719
 5859TIP3   OH239135   3.861   5.575   7.223  0.4176  0.5518 -0.0733
 5859TIP3    H139136   3.838   5.515   7.153 -0.0253 -1.0119  1.3405
 5859TIP3    H239137   3.796   5.645   7.218  0.1316  0.2304 -0.9269
 5860TIP3   OH239138   5.949   3.930   1.753 -0.1314  0.2053  0.2866
 5860TIP3    H139139   5.998   4.004   1.788  1.2888 -1.5630  2.2785
 5860TIP3    H239140   5.992   3.910   1.669  0.5987  0.5547  0.5751
 5861TIP3   OH239141   6.619   5.366   0.082 -0.5714 -0.7443  0.1858
 5861TIP3    H139142   6.632   5.277   0.049  0.1898 -0.5198 -0.1437
 5861TIP3    H239143   6.565   5.409   0.016  0.2473 -0.5453 -0.3591
 5862TIP3   OH239144   1.942   2.852   7.165  0.0548 -0.3527 -0.5904
 5862TIP3    H139145   2.010   2.848   7.232 -0.0026 -0.3939 -0.5343
 5862TIP3    H239146   1.890   2.929   7.187  0.4777  0.0588 -1.0153
 5863TIP3   OH239147   1.232   5.315   7.672 -0.2889  0.4389  0.0100
 5863TIP3    H139148   1.155   5.271   7.709 -2.2954  1.1334 -2.9354
 5863TIP3    H239149   1.195   5.388   7.622  2.4975  1.9486 -0.0464
 5864TIP3   OH239150   2.061   3.419   7.212 -0.6919  0.1083 -0.7627
 5864TIP3    H139151   1.988   3.452   7.265 -0.4009 -0.8098  0.2533
 5864TIP3    H239152   2.039   3.327   7.196  0.1838 -0.1494 -0.5228
 5865TIP3   OH239153   5.746   0.260   7.939  0.6454 -0.3013  0.1518
 5865TIP3    H139154   5.683   0.313   7.988 -0.1920 -0.4117 -0.7663
 5865TIP3    H239155   5.709   0.255   7.850  3.1737  1.6936 -1.1250
 5866TIP3   OH239156   1.855   4.452   6.763 -0.3428  0.5719 -0.2684
 5866TIP3    H139157   1.844   4.519   6.697 -2.2684  0.3075 -0.2911
 5866TIP3    H239158   1.839   4.497   6.846  0.2284  0.5262 -0.1323
 5867TIP3   OH239159   5.446   2.589   0.614  0.8302 -0.3031  0.0879
 5867TIP3    H139160   5.364   2.637   0.605  1.3272  0.2624 -2.5637
 5867TIP3    H239161   5.510   2.657   0.637  0.6473 -0.6972  1.8802
 5868TIP3   OH239162   3.227   5.446   8.410  0.6894  0.9977  0.0274
 5868TIP3    H139163   3.320   5.468   8.417  1.3585 -1.7976  1.4790
 5868TIP3    H239164   3.208   5.397   8.489 -1.8681  0.8324 -0.6024
 5869TIP3   OH239165   6.323   1.395   1.802  0.1650  0.2647  0.6816
 5869TIP3    H139166   6.401   1.398   1.858 -0.0525  0.4085  0.9787
 5869TIP3    H239167   6.337   1.318   1.746  1.1996  1.1047 -0.2740
 5870TIP3   OH239168   3.521   1.865   0.261  0.4684  0.1784  0.3805
 5870TIP3    H139169   3.581   1.790   0.253  0.7443  0.4538 -0.2046
 5870TIP3    H239170   3.571   1.931   0.309  0.8668  0.6294 -0.6200
 5871TIP3   OH239171   6.003   3.203   1.089 -0.2823  0.6008 -0.1995
 5871TIP3    H139172   6.042   3.131   1.040  0.9881  1.8755 -1.1564
 5871TIP3    H239173   5.925   3.166   1.129 -1.2615 -0.5851 -2.9873
 5872TIP3   OH239174   4.676   6.672   0.449 -0.1909 -0.3617 -0.2009
 5872TIP3    H139175   4.688   6.704   0.538 -0.9593 -0.0811 -0.1926
 5872TIP3    H239176   4.598   6.618   0.453 -0.5895  0.1470 -0.8236
 5873TIP3   OH239177   3.166   4.989   8.325  0.3658 -0.3038  0.2120
 5873TIP3    H139178   3.180   5.042   8.246 -0.7992  0.5920  0.5860
 5873TIP3    H239179   3.254   4.968   8.355  0.8356  0.0272 -0.8698
 5874TIP3   OH239180   2.020   4.296   6.992  0.1803  0.3624  0.4343
 5874TIP3    H139181   2.075   4.351   6.936 -1.1596  0.7215 -0.5700
 5874TIP3    H239182   2.014   4.213   6.945  0.2767  0.1542  0.7888
 5875TIP3   OH239183   4.057   3.346   1.274  0.4120  0.2598 -0.4712
 5875TIP3    H139184   4.092   3.261   1.247 -0.2145 -0.9714  2.2791
 5875TIP3    H239185   3.963   3.340   1.260  0.4188  0.7105 -0.7426
 5876TIP3   OH239186   0.458   5.629   0.723 -0.4637  0.5634  0.5812
 5876TIP3    H139187   0.494   5.638   0.811 -1.3382 -0.3088  1.0538
 5876TIP3    H239188   0.455   5.534   0.709 -1.9634  0.6274  0.3205
 5877TIP3   OH239189   5.631   5.417   0.297  0.4968  0.4969 -0.2315
 5877TIP3    H139190   5.601   5.507   0.282  0.7196  0.9082  1.6248
 5877TIP3    H239191   5.565   5.379   0.355  1.2589 -0.0221  0.3011
 5878TIP3   OH239192   1.066   6.299   7.123 -0.2871  0.4444  0.1459
 5878TIP3    H139193   1.091   6.337   7.207 -2.0261  2.5160 -0.1860
 5878TIP3    H239194   1.146   6.304   7.070  1.0410 -1.5781  1.8195
 5879TIP3   OH239195   2.600   5.162   0.989 -0.3935 -0.3653 -0.4509
 5879TIP3    H139196   2.561   5.244   1.019 -0.1827 -0.7108  0.8137
 5879TIP3    H239197   2.636   5.122   1.068 -0.5642 -1.7196 -1.0337
 5880TIP3   OH239198   6.656   1.309   1.694 -0.8476  0.0187  0.3553
 5880TIP3    H139199   6.673   1.307   1.788 -2.0404  1.1641  0.6259
 5880TIP3    H239200   6.580   1.252   1.682 -2.7099  2.3115  0.6065
 5881TIP3   OH239201   1.015   2.181   1.516 -0.3846  0.5040 -0.1038
 5881TIP3    H139202   1.071   2.143   1.448  0.3539  2.0148 -0.3748
 5881TIP3    H239203   0.995   2.108   1.574  0.6336 -0.3846 -0.8316
 5882TIP3   OH239204   4.454   3.094   7.223 -0.1947 -0.3619  0.3009
 5882TIP3    H139205   4.547   3.119   7.231 -0.0465  0.1907 -2.2284
 5882TIP3    H239206   4.452   3.002   7.247  0.8809 -0.2153  1.0609
 5883TIP3   OH239207   1.523   5.287   6.409  0.0131 -0.4343  0.4449
 5883TIP3    H139208   1.586   5.337   6.460 -0.3158  0.3481  0.0904
 5883TIP3    H239209   1.536   5.196   6.438 -1.2273  0.1264  3.0642
 5884TIP3   OH239210   2.517   4.137   0.734  0.2413  0.0677  0.1431
 5884TIP3    H139211   2.461   4.191   0.789  1.6938 -0.1887  1.9742
 5884TIP3    H239212   2.463   4.115   0.658 -0.2652  4.5235 -1.0439
 5885TIP3   OH239213   5.612   4.258   1.512 -0.3132 -0.3651  0.0666
 5885TIP3    H139214   5.589   4.325   1.447 -0.1674  0.0279  0.4162
 5885TIP3    H239215   5.708   4.261   1.516  0.0927 -3.4351 -2.9209
 5886TIP3   OH239216   6.264   5.884   6.694 -0.6940 -0.0108 -0.4473
 5886TIP3    H139217   6.219   5.952   6.744 -1.9330 -0.8756 -0.3267
 5886TIP3    H239218   6.195   5.842   6.644 -0.0598 -1.5589 -0.0741
 5887TIP3   OH239219   6.877   3.234   7.415 -0.0730  0.0780 -0.9156
 5887TIP3    H139220   6.868   3.227   7.320  2.5366 -0.8176 -1.1895
 5887TIP3    H239221   6.832   3.158   7.450 -0.9183  0.3366 -1.4273
 5888TIP3   OH239222   1.864   2.865   8.094 -0.1259  0.1134  0.2722
 5888TIP3    H139223   1.797   2.918   8.051 -0.5194 -0.1429  0.5587
 5888TIP3    H239224   1.815   2.800   8.145  0.3340 -1.0776 -0.7387
 5889TIP3   OH239225   5.832   1.655   8.501  0.0086  0.2141  0.1952
 5889TIP3    H139226   5.908   1.709   8.478 -0.0419  0.6742  1.0751
 5889TIP3    H239227   5.867   1.589   8.561  0.4524 -1.9345 -2.2469
 5890TIP3   OH239228   6.132   3.846   1.558  0.2697 -0.4827 -0.1827
 5890TIP3    H139229   6.159   3.755   1.571  0.2559 -0.2988  1.2227
 5890TIP3    H239230   6.177   3.873   1.478  0.7271 -1.5402 -0.2967
 5891TIP3   OH239231   1.000   6.607   1.890 -0.7267  0.0653 -0.2283
 5891TIP3    H139232   1.066   6.560   1.839  0.3448  1.5201 -0.2301
 5891TIP3    H239233   0.975   6.681   1.834 -2.2255 -0.3405 -0.1406
 5892TIP3   OH239234   0.428   3.319   6.387 -0.3227 -0.2941 -0.6979
 5892TIP3    H139235   0.492   3.320   6.315  0.1409  0.9035 -0.2892
 5892TIP3    H239236   0.441   3.402   6.432 -2.2618  0.0260 -0.6555
 5893TIP3   OH239237   4.103   2.138   0.145  0.2182  0.5889  0.4665
 5893TIP3    H139238   4.018   2.095   0.155 -0.0753  0.7317 -1.1185
 5893TIP3    H239239   4.127   2.165   0.234 -1.5261  0.7826  0.9214
 5894TIP3   OH239240   6.747   6.532   6.737  0.4742 -0.2871 -0.2481
 5894TIP3    H139241   6.742   6.583   6.818 -1.1798  0.2148 -0.6323
 5894TIP3    H239242   6.826   6.565   6.693 -0.5458  2.0648 -0.5051
 5895TIP3   OH239243   5.782   4.053   7.924 -1.0803  0.2258  0.6045
 5895TIP3    H139244   5.818   4.077   7.839 -0.1197  0.2600  1.0072
 5895TIP3    H239245   5.694   4.022   7.905 -0.8570  0.1768 -0.4067
 5896TIP3   OH239246   4.024   6.298   2.150 -0.2760  0.1129 -0.4461
 5896TIP3    H139247   4.072   6.220   2.178 -0.9135 -1.5625 -3.5521
 5896TIP3    H239248   3.979   6.329   2.229 -0.8895 -3.3258  0.7021
 5897TIP3   OH239249   4.062   4.297   1.872  0.0449  0.5269  0.0285
 5897TIP3    H139250   4.123   4.336   1.935 -0.3723  1.7273 -0.2914
 5897TIP3    H239251   4.010   4.236   1.925  0.6423  0.4601  0.5603
 5898TIP3   OH239252   3.328   4.872   0.965  0.0152 -0.1533 -0.1317
 5898TIP3    H139253   3.271   4.838   1.034 -0.4765  1.9284  0.5586
 5898TIP3    H239254   3.328   4.967   0.978  0.9625  0.1937 -2.2064
 5899TIP3   OH239255   1.292   6.083   0.352  0.6120 -0.0919  0.1387
 5899TIP3    H139256   1.253   5.996   0.339 -0.5248  0.3313  0.6011
 5899TIP3    H239257   1.311   6.114   0.264 -0.5348 -0.1313 -0.1435
 5900TIP3   OH239258   3.405   6.134   8.474  0.0029 -0.2767 -0.2449
 5900TIP3    H139259   3.396   6.228   8.464 -1.3149 -0.2927  0.6100
 5900TIP3    H239260   3.368   6.098   8.393 -1.2508 -0.0963  0.2259
 5901TIP3   OH239261   5.877   4.901   2.191  0.1428 -0.1816  0.1100
 5901TIP3    H139262   5.972   4.892   2.191  0.0919 -0.7538 -0.3658
 5901TIP3    H239263   5.859   4.967   2.259  0.9511  0.8311 -0.6202
 5902TIP3   OH239264   1.458   2.574   2.678  0.1406  0.0292 -0.1123
 5902TIP3    H139265   1.457   2.651   2.622 -0.3169  0.0731 -0.0415
 5902TIP3    H239266   1.550   2.565   2.704  0.0700  1.0580  0.5841
 5903TIP3   OH239267   4.706   3.819   8.055  0.4449 -0.4051 -0.2450
 5903TIP3    H139268   4.742   3.733   8.077 -3.0781 -2.0400 -0.2851
 5903TIP3    H239269   4.655   3.804   7.975  1.1354  2.1713 -1.2704
 5904TIP3   OH239270   5.080   6.509   7.501  0.2912 -0.8038 -0.0926
 5904TIP3    H139271   5.032   6.548   7.574 -0.9050  0.1314 -1.3107
 5904TIP3    H239272   5.055   6.417   7.502  1.0539 -1.0197  1.2308
 5905TIP3   OH239273   1.584   3.897   0.577 -0.3769  0.7751  0.2390
 5905TIP3    H139274   1.526   3.941   0.638  0.5868  2.9537 -0.3189
 5905TIP3    H239275   1.530   3.828   0.538 -1.9335  1.3946  1.2202
 5906TIP3   OH239276   6.456   3.706   0.821  0.1744  0.7979 -0.0256
 5906TIP3    H139277   6.532   3.684   0.874  1.0688  0.5138 -1.3734
 5906TIP3    H239278   6.432   3.624   0.777 -0.2216  1.1379 -0.4615
 5907TIP3   OH239279   2.288   4.976   8.252  0.1204  0.7841  0.1970
 5907TIP3    H139280   2.244   4.948   8.172  1.9453 -1.3132 -0.1627
 5907TIP3    H239281   2.374   5.006   8.222  0.7248  0.2330  1.3324
 5908TIP3   OH239282   3.338   1.805   2.692 -0.3918  0.3906  0.1939
 5908TIP3    H139283   3.305   1.716   2.703  0.1174  0.2382  0.5181
 5908TIP3    H239284   3.353   1.814   2.598  0.7772 -0.3134  0.2913
 5909TIP3   OH239285   0.533   4.691   1.467  0.0075 -0.0741 -0.1620
 5909TIP3    H139286   0.625   4.666   1.475  0.4338  1.3260 -0.5022
 5909TIP3    H239287   0.521   4.711   1.374 -1.2177 -2.2981 -0.5596
 5910TIP3   OH239288   4.197   2.446   0.491 -0.4755 -0.1470 -0.2257
 5910TIP3    H139289   4.117   2.485   0.526 -0.3667  1.6458 -1.8447
 5910TIP3    H239290   4.168   2.360   0.458 -1.4541 -0.0494  0.3290
 5911TIP3   OH239291   1.609   2.929   1.215  0.5105 -0.1335 -0.3187
 5911TIP3    H139292   1.696   2.933   1.255  0.7464  1.1412 -0.9141
 5911TIP3    H239293   1.583   3.021   1.207  0.9484 -0.2102 -4.0670
 5912TIP3   OH239294   5.525   6.524   1.665 -0.4008  0.0239 -0.7620
 5912TIP3    H139295   5.504   6.617   1.665  0.7527  0.2998 -0.2154
 5912TIP3    H239296   5.450   6.482   1.623 -1.9188  0.9687  0.8844
 5913TIP3   OH239297   4.634   5.826   1.345 -0.3462  1.0264  0.1274
 5913TIP3    H139298   4.637   5.774   1.425  0.1239 -0.9994 -1.1426
 5913TIP3    H239299   4.726   5.836   1.320 -0.5485 -0.3768 -1.3564
 5914TIP3   OH239300   3.380   5.622   1.109 -0.8109 -0.4279 -0.1720
 5914TIP3    H139301   3.331   5.554   1.156 -0.4639 -0.8727 -0.4438
 5914TIP3    H239302   3.362   5.702   1.157 -1.1621 -0.7273  0.2041
 5915TIP3   OH239303   2.607   4.371   2.128 -0.1456  0.1540  0.3231
 5915TIP3    H139304   2.662   4.353   2.205  0.2932 -1.3873 -0.3081
 5915TIP3    H239305   2.667   4.411   2.065  0.7843 -2.9036 -0.9425
 5916TIP3   OH239306   1.022   0.438   1.220 -0.0097  0.6557  0.0772
 5916TIP3    H139307   0.982   0.478   1.297 -0.1620  1.8993 -0.6097
 5916TIP3    H239308   1.095   0.496   1.198  1.3196 -0.8049  0.4659
 5917TIP3   OH239309   3.650   2.211   0.077 -0.4065 -0.0692  0.3354
 5917TIP3    H139310   3.615   2.122   0.072 -0.7857  0.0605  0.6061
 5917TIP3    H239311   3.711   2.217   0.004  0.4234 -0.8944  0.9403
 5918TIP3   OH239312   2.941   5.870   2.282  0.5782 -0.1050 -0.3156
 5918TIP3    H139313   2.880   5.810   2.325 -0.5167  1.1382 -0.0796
 5918TIP3    H239314   2.958   5.830   2.197  1.8233 -1.9837  0.7195
 5919TIP3   OH239315   5.536   4.116   7.524 -0.2426  0.5680  0.1430
 5919TIP3    H139316   5.611   4.060   7.542 -0.7749 -0.5727 -1.0261
 5919TIP3    H239317   5.488   4.070   7.455 -0.4080  2.7111 -1.2804
 5920TIP3   OH239318   5.712   5.945   0.713  0.2064  0.3977 -0.0128
 5920TIP3    H139319   5.656   5.948   0.791  0.4631 -1.8648  0.3429
 5920TIP3    H239320   5.792   5.901   0.742  1.4134  1.8549 -0.9734
 5921TIP3   OH239321   3.763   0.621   6.479 -0.2718 -0.5660 -0.1302
 5921TIP3    H139322   3.825   0.688   6.507  1.1781 -1.1473 -1.7456
 5921TIP3    H239323   3.693   0.625   6.543  1.0539  0.6604  1.3313
 5922TIP3   OH239324   1.950   5.456   7.787 -0.4975 -0.0493 -0.5089
 5922TIP3    H139325   1.869   5.407   7.800 -1.0367  0.9923  0.2014
 5922TIP3    H239326   2.006   5.429   7.860 -0.9347  0.6440  0.0992
 5923TIP3   OH239327   5.874   6.181   0.759 -0.1528 -0.0609  0.6810
 5923TIP3    H139328   5.807   6.112   0.754 -0.0213 -0.1252 -0.6767
 5923TIP3    H239329   5.951   6.137   0.793 -0.9746  0.1763  2.9913
 5924TIP3   OH239330   5.758   1.443   1.753 -0.4623 -0.0675  0.4484
 5924TIP3    H139331   5.778   1.350   1.764 -1.7758 -0.4882 -0.4496
 5924TIP3    H239332   5.843   1.484   1.738  0.1418 -1.1209  0.8573
 5925TIP3   OH239333   2.514   2.932   7.466  0.5092  0.1772 -0.0012
 5925TIP3    H139334   2.439   2.990   7.454  0.1035 -0.7275 -2.3602
 5925TIP3    H239335   2.485   2.848   7.431  2.1968 -0.5397  0.2484
 5926TIP3   OH239336   0.337   3.272   3.226 -0.3177  0.0718 -0.3307
 5926TIP3    H139337   0.412   3.301   3.175  0.9624 -1.4467  0.5892
 5926TIP3    H239338   0.261   3.290   3.170  0.7882  0.8785 -1.6285
 5927TIP3   OH239339   3.249   1.081   7.155  0.6927 -0.1564  0.1439
 5927TIP3    H139340   3.247   1.176   7.147  0.2268 -0.0972  0.9095
 5927TIP3    H239341   3.342   1.059   7.164  0.7535  0.2833  0.6173
 5928TIP3   OH239342   6.875   5.638   1.085 -0.5142  0.2181 -0.0671
 5928TIP3    H139343   6.781   5.624   1.074 -0.7273  0.8532  0.8926
 5928TIP3    H239344   6.915   5.566   1.036 -1.5204 -1.1056  0.9879
 5929TIP3   OH239345   3.172   1.511   0.978 -0.0449 -0.0175  0.1019
 5929TIP3    H139346   3.243   1.574   0.970  0.1754 -0.4097 -1.1480
 5929TIP3    H239347   3.215   1.426   0.967 -0.3105 -0.4322  1.8993
 5930TIP3   OH239348   2.130   2.655   6.610 -0.1873 -0.7685  0.3495
 5930TIP3    H139349   2.157   2.628   6.522 -0.8762  3.6007 -1.4728
 5930TIP3    H239350   2.208   2.642   6.663  0.1653 -3.8304 -0.7111
 5931TIP3   OH239351   6.420   5.387   0.262 -0.1112  0.4486 -0.6205
 5931TIP3    H139352   6.404   5.293   0.254  0.3505  0.3601 -0.5450
 5931TIP3    H239353   6.493   5.404   0.202  0.1681  0.6592 -0.2252
 5932TIP3   OH239354   2.540   4.563   7.928  0.2276 -0.6859 -0.5263
 5932TIP3    H139355   2.608   4.631   7.930 -0.3515 -0.0099  3.1848
 5932TIP3    H239356   2.570   4.502   7.860  2.7918  1.2446 -1.3208
 5933TIP3   OH239357   2.683   0.891   1.203  0.4072  0.2951 -0.2660
 5933TIP3    H139358   2.722   0.904   1.117 -0.6759  1.4409 -0.6064
 5933TIP3    H239359   2.608   0.833   1.186  1.5866 -1.4634  0.3013
 5934TIP3   OH239360   6.824   4.653   2.055  0.2155  0.3246 -0.2375
 5934TIP3    H139361   6.855   4.688   2.138  2.3940 -0.3449 -0.6963
 5934TIP3    H239362   6.740   4.614   2.075  0.9761 -0.3791  1.8080
 5935TIP3   OH239363   5.008   0.165   1.348 -0.2989  0.1211 -0.1127
 5935TIP3    H139364   4.959   0.198   1.273 -0.1566  0.9614  0.1488
 5935TIP3    H239365   5.019   0.242   1.405  0.6913 -0.2118  0.1654
 5936TIP3   OH239366   1.702   6.614   7.016 -0.1686 -0.0887  0.6238
 5936TIP3    H139367   1.621   6.566   6.997  0.1235 -0.7653  1.0630
 5936TIP3    H239368   1.672   6.703   7.038 -0.8906 -0.5873  1.7499
 5937TIP3   OH239369   1.120   5.107   7.225  0.3246  0.7126 -0.4868
 5937TIP3    H139370   1.120   5.015   7.199 -0.3364 -0.0303  1.8896
 5937TIP3    H239371   1.209   5.137   7.203  0.3891 -0.2974 -1.7898
 5938TIP3   OH239372   1.651   4.620   0.673 -0.0968  0.4992  0.5814
 5938TIP3    H139373   1.687   4.580   0.594 -0.4569 -0.9698  1.1388
 5938TIP3    H239374   1.636   4.712   0.648 -1.3362 -0.1695 -1.4653
 5939TIP3   OH239375   2.978   0.228   8.287  0.3608  0.0281  0.0283
 5939TIP3    H139376   3.004   0.221   8.195  2.0200 -0.0674  0.4850
 5939TIP3    H239377   2.921   0.305   8.289 -0.2719 -0.3785 -1.1890
 5940TIP3   OH239378   4.524   1.255   0.171 -0.8748  0.4898  0.0767
 5940TIP3    H139379   4.468   1.209   0.109 -0.1847  0.4610 -0.5368
 5940TIP3    H239380   4.533   1.194   0.245  0.4033 -0.5853 -0.9220
 5941TIP3   OH239381   3.656   4.831   2.431 -0.3130 -0.0991 -0.6186
 5941TIP3    H139382   3.585   4.810   2.370 -0.4829 -1.1526 -0.0831
 5941TIP3    H239383   3.614   4.885   2.499  0.0484  1.7709 -1.8158
 5942TIP3   OH239384   3.124   3.188   7.389 -0.0849  0.2609 -0.0685
 5942TIP3    H139385   3.094   3.182   7.480  1.0509 -1.3320  0.2385
 5942TIP3    H239386   3.051   3.228   7.343 -0.4283  1.7666  1.6521
 5943TIP3   OH239387   5.767   5.247   1.194  0.1179 -0.2336  0.2903
 5943TIP3    H139388   5.860   5.234   1.214 -0.0456 -1.4606  0.3327
 5943TIP3    H239389   5.733   5.295   1.270  0.6873  0.1428  0.3153
 5944TIP3   OH239390   3.127   0.867   8.052 -0.1840 -0.4757  0.1801
 5944TIP3    H139391   3.120   0.804   8.124  0.5833  1.8143  2.4343
 5944TIP3    H239392   3.201   0.835   8.000 -1.3979 -2.7452 -0.2840
 5945TIP3   OH239393   5.600   5.119   8.124  0.6729 -0.4260 -0.4210
 5945TIP3    H139394   5.569   5.121   8.214  0.8075 -1.4265 -0.3519
 5945TIP3    H239395   5.654   5.041   8.117  1.1445 -0.0507 -1.2194
 5946TIP3   OH239396   5.734   0.878   6.466  0.0897  0.6937 -0.1853
 5946TIP3    H139397   5.785   0.951   6.503 -0.7102  1.5400 -0.6960
 5946TIP3    H239398   5.659   0.921   6.424 -0.7727 -0.4843  0.1010
 5947TIP3   OH239399   0.097   4.907   0.266  0.2131 -0.0899  0.1189
 5947TIP3    H139400   0.169   4.934   0.209 -1.0126 -0.4433 -1.6570
 5947TIP3    H239401   0.118   4.817   0.290  0.5637 -0.0524 -0.0338
 5948TIP3   OH239402   2.814   6.713   8.231  0.2615  0.0519 -0.2476
 5948TIP3    H139403   2.800   6.804   8.256 -2.0378 -0.4572  0.5611
 5948TIP3    H239404   2.785   6.708   8.140  0.0382  0.0529 -0.1764
 5949TIP3   OH239405   6.866   5.037   1.597  0.3604  0.8191 -0.3615
 5949TIP3    H139406   6.841   5.109   1.539  0.7789  2.5346  1.4677
 5949TIP3    H239407   6.957   5.056   1.620  0.1529  0.3098  0.9785
 5950TIP3   OH239408   3.142   0.005   0.232  0.0623 -0.4962 -0.5083
 5950TIP3    H139409   3.088  -0.074   0.225  2.1168 -2.1127  0.5371
 5950TIP3    H239410   3.126   0.053   0.150 -1.2655 -1.9821 -1.1745
 5951TIP3   OH239411   2.274   6.168   1.679  0.0288 -0.2009  0.0347
 5951TIP3    H139412   2.350   6.152   1.623  0.8147  1.3351  0.5763
 5951TIP3    H239413   2.273   6.264   1.691 -2.1186 -0.1502 -0.1212
 5952TIP3   OH239414   4.844   6.371   2.005 -0.0414 -0.1469  0.0455
 5952TIP3    H139415   4.843   6.457   1.964 -0.8567 -0.0273  0.2910
 5952TIP3    H239416   4.918   6.372   2.064 -0.5891  0.7230  0.7365
 5953TIP3   OH239417   6.573   5.533   7.967  0.1203 -0.1063  1.1284
 5953TIP3    H139418   6.523   5.497   8.040 -2.2668  1.6946  0.5190
 5953TIP3    H239419   6.557   5.472   7.895  0.1825 -0.4352  1.3941
 5954TIP3   OH239420   2.750   0.274   1.289  0.3344 -0.6458  0.3537
 5954TIP3    H139421   2.753   0.235   1.201 -0.9277 -1.0731  0.4896
 5954TIP3    H239422   2.666   0.247   1.325  0.1573  0.8104  1.1165
 5955TIP3   OH239423   4.052   4.667   1.667 -0.1479  0.3975 -0.0992
 5955TIP3    H139424   3.971   4.628   1.700  1.4072 -1.6096  1.6825
 5955TIP3    H239425   4.066   4.626   1.582 -0.4959 -0.0449  0.0516
 5956TIP3   OH239426   2.352   6.379   0.260 -0.1620  0.6845 -0.4241
 5956TIP3    H139427   2.413   6.306   0.276  0.4570  1.1611 -0.5656
 5956TIP3    H239428   2.362   6.397   0.166  0.1693  1.3758 -0.2577
 5957TIP3   OH239429   6.418   0.089   7.756  0.7140  0.4242 -0.2921
 5957TIP3    H139430   6.332   0.048   7.747  1.0644  0.1803 -3.4877
 5957TIP3    H239431   6.475   0.040   7.696  2.9139  1.1333  1.0879
 5958TIP3   OH239432   0.319   6.788   1.179 -0.1070  0.0421  0.3754
 5958TIP3    H139433   0.351   6.848   1.247  0.5932  0.1759 -0.0664
 5958TIP3    H239434   0.397   6.740   1.151 -0.5786 -0.7437  0.3857
 5959TIP3   OH239435   0.763   0.060   7.144 -0.1585  0.2657 -0.4978
 5959TIP3    H139436   0.736   0.095   7.228 -0.3643 -1.0104 -0.0157
 5959TIP3    H239437   0.728   0.121   7.080 -1.4492  0.3572  0.2669
 5960TIP3   OH239438   0.786   6.135   7.241  0.5950  0.0098  0.1777
 5960TIP3    H139439   0.818   6.065   7.299 -1.5930 -0.6646  0.6609
 5960TIP3    H239440   0.791   6.096   7.153 -1.3377 -1.1192  0.5158
 5961TIP3   OH239441   1.270   1.319   0.820  0.6133  0.6109  0.3253
 5961TIP3    H139442   1.205   1.342   0.754  0.3769 -1.5326 -0.2728
 5961TIP3    H239443   1.264   1.388   0.886  0.3378  2.4172 -1.5075
 5962TIP3   OH239444   6.239   1.445   1.012 -0.3931  0.0221 -0.0206
 5962TIP3    H139445   6.204   1.525   1.049  0.2780 -0.0535  0.8135
 5962TIP3    H239446   6.165   1.384   1.010 -0.9421  0.7072 -0.8213
 5963TIP3   OH239447   2.342   0.476   0.587 -0.0927 -0.3382  0.1850
 5963TIP3    H139448   2.436   0.479   0.566  0.0063  0.1578  0.6746
 5963TIP3    H239449   2.302   0.437   0.510 -0.2576  4.9216 -2.8113
 5964TIP3   OH239450   3.209   1.653   1.469 -0.4284  0.4541  0.4587
 5964TIP3    H139451   3.238   1.605   1.546 -2.2551 -0.7539  0.4428
 5964TIP3    H239452   3.238   1.743   1.486 -2.0217  0.5690  3.2975
 5965TIP3   OH239453   2.172   0.406   1.400  0.5776  0.0713  0.6191
 5965TIP3    H139454   2.126   0.484   1.434 -1.1027  0.8268 -2.8578
 5965TIP3    H239455   2.254   0.441   1.364  0.3178  0.0869  0.0263
 5966TIP3   OH239456   5.190   3.597   2.750  0.2254  0.2700 -0.5178
 5966TIP3    H139457   5.132   3.541   2.801 -1.0678  2.3098  0.3942
 5966TIP3    H239458   5.138   3.623   2.674  0.3377  1.2004 -0.2900
 5967TIP3   OH239459   6.671   2.856   6.219 -0.7619  0.2721  1.2741
 5967TIP3    H139460   6.681   2.843   6.313 -0.8861 -1.4969  1.0656
 5967TIP3    H239461   6.753   2.824   6.181  0.5652  3.6287  0.9039
 5968TIP3   OH239462   5.005   3.329   1.872  0.2310  0.1219  0.2737
 5968TIP3    H139463   5.032   3.349   1.961  1.2139 -2.2512  0.5900
 5968TIP3    H239464   5.060   3.384   1.817  0.8738  0.3122  1.0939
 5969TIP3   OH239465   6.873   2.037   1.561  0.0680  0.4280 -0.0657
 5969TIP3    H139466   6.858   2.108   1.624  1.2452  1.7082 -1.1440
 5969TIP3    H239467   6.901   1.963   1.614 -0.9763  0.8278  1.0777
 5970TIP3   OH239468   0.658   1.036   6.882 -1.0383 -0.2552 -0.1633
 5970TIP3    H139469   0.674   0.942   6.870 -2.0019 -0.3416 -0.8615
 5970TIP3    H239470   0.564   1.042   6.898 -0.8656  0.5349  0.6131
 5971TIP3   OH239471   3.013   6.251   0.511 -0.3300  0.7936  0.1511
 5971TIP3    H139472   3.107   6.269   0.518  0.6056 -2.2819 -2.2309
 5971TIP3    H239473   3.003   6.161   0.544 -2.7579  1.5245  1.6830
 5972TIP3   OH239474   6.532   0.866   0.072  0.1248 -0.7786  0.3767
 5972TIP3    H139475   6.613   0.823   0.047  1.4244  0.7469  1.7471
 5972TIP3    H239476   6.523   0.939   0.010 -0.6825 -1.4117 -0.2886
 5973TIP3   OH239477   0.516   3.635   7.020  0.1689 -0.5659 -0.2292
 5973TIP3    H139478   0.604   3.672   7.014 -0.2362  0.3704 -0.4510
 5973TIP3    H239479   0.527   3.544   6.992  1.0147 -0.3795 -0.5415
 5974TIP3   OH239480   5.167   0.652   7.536  0.3568 -0.0993 -0.0829
 5974TIP3    H139481   5.095   0.602   7.576  0.7639 -0.9061 -0.3294
 5974TIP3    H239482   5.135   0.674   7.448  0.8188 -1.4526 -0.6235
 5975TIP3   OH239483   4.953   0.071   6.983  0.0418  0.4461  0.1355
 5975TIP3    H139484   4.929   0.069   7.075  0.5090  0.7595  0.2679
 5975TIP3    H239485   4.952  -0.020   6.955  2.2377  0.0756  1.0673
 5976TIP3   OH239486   2.637   3.533   1.895  0.3657  0.6933  0.3567
 5976TIP3    H139487   2.568   3.587   1.934 -1.2957 -0.8558 -0.2870
 5976TIP3    H239488   2.629   3.448   1.940  1.8684  0.4727  0.2607
 5977TIP3   OH239489   2.889   6.343   0.863  0.5840  0.3265  0.2252
 5977TIP3    H139490   2.807   6.337   0.814  0.7221  0.1439  0.0148
 5977TIP3    H239491   2.882   6.274   0.930  1.0620 -0.4928 -0.5403
 5978TIP3   OH239492   5.099   0.356   7.776  0.0331 -0.1849  0.2867
 5978TIP3    H139493   5.051   0.303   7.840 -2.3914  0.9007 -0.5114
 5978TIP3    H239494   5.126   0.434   7.824  0.6059 -0.5761  0.6157
 5979TIP3   OH239495   3.953   5.222   7.801  0.5156 -0.2718  0.0774
 5979TIP3    H139496   3.882   5.257   7.747 -1.6373 -1.5236  1.9463
 5979TIP3    H239497   3.945   5.127   7.793  2.5936 -0.4547 -0.3594
 5980TIP3   OH239498   0.244   0.739   7.851  0.0055  0.2090  0.0780
 5980TIP3    H139499   0.299   0.782   7.916  0.7016 -2.4978  1.4572
 5980TIP3    H239500   0.177   0.694   7.903 -1.1994  0.3187 -1.3168
 5981TIP3   OH239501   3.860   3.538   0.520 -0.5447 -0.3142 -0.0246
 5981TIP3    H139502   3.882   3.453   0.483 -0.3654 -0.6211  0.7680
 5981TIP3    H239503   3.825   3.519   0.607  1.4937  0.4954  1.0695
 5982TIP3   OH239504   6.655   4.615   0.419 -0.5288 -0.1554 -0.2402
 5982TIP3    H139505   6.656   4.709   0.400 -3.8989  0.1002  0.1961
 5982TIP3    H239506   6.720   4.604   0.488  1.2065  1.5004 -1.5082
 5983TIP3   OH239507   5.990   5.569   0.921 -0.2829 -0.4877  0.3897
 5983TIP3    H139508   6.061   5.513   0.954 -0.0610 -0.6298 -0.3158
 5983TIP3    H239509   5.916   5.510   0.911 -0.7921 -0.1724  1.9788
 5984TIP3   OH239510   6.278   2.748   7.777 -0.7136  0.0216 -0.0678
 5984TIP3    H139511   6.264   2.668   7.726 -1.3295  0.9215 -1.3643
 5984TIP3    H239512   6.190   2.783   7.791 -0.4264  0.6560  0.1929
 5985TIP3   OH239513   4.817   6.049   1.536 -0.2181  0.3826 -0.2117
 5985TIP3    H139514   4.810   6.084   1.624 -1.7609  1.4756 -0.7207
 5985TIP3    H239515   4.728   6.053   1.501 -0.2209 -2.6076 -0.8925
 5986TIP3   OH239516   2.605   2.254   7.763 -0.3541 -0.1167 -0.2415
 5986TIP3    H139517   2.700   2.250   7.770 -0.2145 -0.3311 -1.7632
 5986TIP3    H239518   2.582   2.341   7.797  0.3079 -0.3095  0.7304
 5987TIP3   OH239519   0.715   2.529   7.689  0.3742  0.0701  0.3194
 5987TIP3    H139520   0.767   2.471   7.634  1.2383  0.7524  0.4005
 5987TIP3    H239521   0.779   2.580   7.739 -0.3769  0.3672  1.0092
 5988TIP3   OH239522   6.739   2.868   1.256 -0.0699  0.3843  0.6389
 5988TIP3    H139523   6.811   2.898   1.201  1.4726 -0.6798  1.9772
 5988TIP3    H239524   6.726   2.939   1.319 -0.1272  0.5194  0.4781
 5989TIP3   OH239525   5.871   6.081   2.363 -0.8016 -0.0201 -0.0063
 5989TIP3    H139526   5.924   6.027   2.421  1.6677 -0.7397 -2.7275
 5989TIP3    H239527   5.781   6.052   2.379  0.0260 -1.9347  1.5997
 5990TIP3   OH239528   6.898   5.598   1.386 -0.0449  0.0932  0.7012
 5990TIP3    H139529   6.858   5.580   1.301  0.1129  0.0551  0.6341
 5990TIP3    H239530   6.992   5.600   1.368  0.0692 -1.0484  1.0756
 5991TIP3   OH239531   3.397   1.227   1.976  0.5143 -0.0906  0.4273
 5991TIP3    H139532   3.394   1.188   2.064 -1.7423  1.0345  0.9182
 5991TIP3    H239533   3.438   1.312   1.989  3.1288 -1.1525 -0.2274
 5992TIP3   OH239534   0.452   6.851   0.170 -0.3758 -0.0466  0.8458
 5992TIP3    H139535   0.491   6.785   0.112  0.3673  1.3116 -0.2678
 5992TIP3    H239536   0.440   6.806   0.253 -1.3542 -2.0459 -0.2960
 5993TIP3   OH239537   1.292   0.674   1.670 -0.3096 -0.4286 -0.2112
 5993TIP3    H139538   1.262   0.667   1.761  0.1590  1.0943  0.1036
 5993TIP3    H239539   1.280   0.587   1.633 -0.4799 -1.0863  1.3267
 5994TIP3   OH239540   1.052   3.537   1.433  0.4048  0.6688  0.0451
 5994TIP3    H139541   1.036   3.509   1.523  1.1747  0.9488  0.2815
 5994TIP3    H239542   0.970   3.577   1.405 -0.8533 -1.9839 -0.4098
 5995TIP3   OH239543   3.723   3.760   7.263  0.2998 -0.1449  0.0270
 5995TIP3    H139544   3.684   3.733   7.346  1.3029 -0.2376  0.4821
 5995TIP3    H239545   3.694   3.851   7.252 -1.5726 -0.7617 -0.6005
 5996TIP3   OH239546   4.641   6.093   0.563 -0.2814  0.6872 -0.2359
 5996TIP3    H139547   4.668   6.126   0.477 -0.0025 -0.1264 -0.4738
 5996TIP3    H239548   4.566   6.146   0.587  0.2828  1.6344 -0.4999
 5997TIP3   OH239549   4.922   0.940   1.308 -0.3891 -0.4686  0.1163
 5997TIP3    H139550   4.987   0.926   1.377 -0.6087 -0.7782  0.2619
 5997TIP3    H239551   4.877   1.021   1.333 -0.5970 -0.6836  0.4381
 5998TIP3   OH239552   3.011   0.469   2.076 -0.3230  0.0766 -0.0014
 5998TIP3    H139553   2.986   0.379   2.099  0.9028 -0.1225  0.6711
 5998TIP3    H239554   3.107   0.466   2.072 -0.2850  1.2969 -0.2468
 5999TIP3   OH239555   2.482   3.696   0.255 -0.6130  0.3007 -0.3185
 5999TIP3    H139556   2.429   3.722   0.180  0.1081  0.8751 -0.6417
 5999TIP3    H239557   2.510   3.778   0.295  0.2499  0.0183 -0.3148
 6000TIP3   OH239558   2.082   6.716   1.839 -0.0948  0.2994  0.0642
 6000TIP3    H139559   2.105   6.770   1.764 -0.2247 -1.4108 -1.2572
 6000TIP3    H239560   2.027   6.647   1.804  1.7535 -1.9333  1.2493
 6001TIP3   OH239561   0.843   0.180   0.126  0.6485 -0.3185  0.1509
 6001TIP3    H139562   0.779   0.225   0.070  1.9669 -0.6098 -1.6888
 6001TIP3    H239563   0.831   0.219   0.212 -1.2389  0.4093 -0.3931
 6002TIP3   OH239564   3.139   3.754   0.965 -0.0636  0.3256 -0.0458
 6002TIP3    H139565   3.060   3.744   1.019 -0.0310  1.6818  0.2744
 6002TIP3    H239566   3.170   3.664   0.953 -2.1434 -0.3509 -0.9482
 6003TIP3   OH239567   4.792   3.695   8.474  0.9896  0.0539 -0.0834
 6003TIP3    H139568   4.743   3.738   8.544  1.1730  0.2707 -0.0863
 6003TIP3    H239569   4.771   3.602   8.484 -0.3375  0.2489 -0.7943
 6004TIP3   OH239570   6.753   1.082   1.194 -0.3347  0.3172 -0.2231
 6004TIP3    H139571   6.715   0.995   1.200  1.0492 -0.3491 -0.5713
 6004TIP3    H239572   6.682   1.138   1.161 -0.8754 -0.9471 -1.2785
 6005TIP3   OH239573   5.483   5.724   7.065  0.1888  0.1178 -0.4134
 6005TIP3    H139574   5.550   5.731   6.996  1.5808  1.3401  0.9848
 6005TIP3    H239575   5.520   5.663   7.128 -1.6470 -2.0088 -1.2837
 6006TIP3   OH239576   1.088   4.811   7.099  0.7365  0.3253 -0.1931
 6006TIP3    H139577   1.048   4.738   7.052 -0.6898 -0.3650  1.9372
 6006TIP3    H239578   1.117   4.871   7.030 -0.1026 -1.1913 -1.9489
 6007TIP3   OH239579   6.236   2.945   7.295 -0.0224 -0.5340  0.3875
 6007TIP3    H139580   6.326   2.946   7.328 -0.1389 -1.9388  0.8329
 6007TIP3    H239581   6.186   2.904   7.366 -1.2458  1.3693  0.6668
 6008TIP3   OH239582   5.294   3.298   7.087  0.4623  0.3860  0.1978
 6008TIP3    H139583   5.276   3.225   7.146 -0.2424 -0.2413 -0.7752
 6008TIP3    H239584   5.209   3.340   7.074  0.7089  0.8378  0.0258
 6009TIP3   OH239585   3.351   3.319   7.494  0.2723 -0.0660  0.2570
 6009TIP3    H139586   3.426   3.259   7.496 -0.5451 -1.1105  0.8921
 6009TIP3    H239587   3.275   3.262   7.499 -0.5276  1.0554  3.1341
 6010TIP3   OH239588   5.009   3.588   1.517 -0.3813  0.0823  0.1627
 6010TIP3    H139589   5.076   3.539   1.468  0.1173  0.1667  0.7449
 6010TIP3    H239590   5.024   3.564   1.608 -0.9483  0.3537  0.3316
 6011TIP3   OH239591   5.634   0.354   8.470  0.1344 -0.1128 -0.5242
 6011TIP3    H139592   5.654   0.261   8.459 -2.2556 -0.6765 -0.7833
 6011TIP3    H239593   5.540   0.360   8.450  0.0506  2.2202  0.3249
 6012TIP3   OH239594   0.262   2.247   2.169 -0.0130  0.2612 -0.3969
 6012TIP3    H139595   0.227   2.197   2.243  1.8210 -0.0911  0.3012
 6012TIP3    H239596   0.331   2.300   2.208 -1.1820  2.5754 -1.3177
 6013TIP3   OH239597   1.496   4.310   7.253 -0.1752 -0.1071  0.2612
 6013TIP3    H139598   1.555   4.241   7.224 -1.1664 -0.6119 -0.6172
 6013TIP3    H239599   1.418   4.300   7.198 -0.2772  1.8117 -0.0097
 6014TIP3   OH239600   0.573   6.481   8.329 -0.3238  0.3045 -0.4546
 6014TIP3    H139601   0.613   6.396   8.348 -1.4118 -0.4846 -1.4502
 6014TIP3    H239602   0.559   6.521   8.414  1.7467  0.2515 -0.0395
 6015TIP3   OH239603   6.477   0.213   1.595 -0.0836  0.5565 -0.5023
 6015TIP3    H139604   6.454   0.149   1.662  0.6299 -0.2584 -1.0170
 6015TIP3    H239605   6.396   0.227   1.546  0.0941 -1.1333 -1.3496
 6016TIP3   OH239606   5.583   1.343   1.235 -0.0227 -0.2366 -0.5413
 6016TIP3    H139607   5.535   1.379   1.310 -0.4141 -0.0201 -0.8943
 6016TIP3    H239608   5.595   1.250   1.257 -1.1980 -0.4547 -0.7471
 6017TIP3   OH239609   1.599   4.969   7.765 -0.0836  0.1695  0.3916
 6017TIP3    H139610   1.582   4.926   7.681 -0.5706  0.2050  0.4660
 6017TIP3    H239611   1.549   5.051   7.759  0.1555  0.3292  0.5822
 6018TIP3   OH239612   5.093   0.815   1.094 -0.0664 -0.1684  0.2065
 6018TIP3    H139613   5.018   0.858   1.136 -0.4415  0.5753 -1.1637
 6018TIP3    H239614   5.169   0.855   1.135 -0.3885 -0.8262  1.5144
 6019TIP3   OH239615   2.011   6.504   8.241  0.0626 -0.3922 -0.9933
 6019TIP3    H139616   1.940   6.551   8.285  1.5725 -0.1033  1.2898
 6019TIP3    H239617   1.968   6.431   8.197 -1.6889 -0.0407  0.0457
 6020TIP3   OH239618   5.012   5.133   6.725  0.1008 -0.0220  0.0801
 6020TIP3    H139619   5.024   5.153   6.632 -1.3728  0.1379 -0.1097
 6020TIP3    H239620   5.098   5.144   6.764  0.2799  2.3238 -0.8210
 6021TIP3   OH239621   6.361   4.399   7.523  0.0126 -0.1041  0.0211
 6021TIP3    H139622   6.410   4.391   7.441  0.5533  0.4522  0.2829
 6021TIP3    H239623   6.406   4.341   7.584  2.0879  2.3766  1.0524
 6022TIP3   OH239624   3.607   5.776   0.042 -0.2274  0.0736 -0.0789
 6022TIP3    H139625   3.525   5.784   0.090 -0.0765  0.9971  0.0417
 6022TIP3    H239626   3.646   5.695   0.074  0.1827  0.9876  1.8571
 6023TIP3   OH239627   1.090   0.199   2.386 -0.0681  0.1429  0.1917
 6023TIP3    H139628   1.083   0.285   2.427  3.7737  0.7594 -0.0786
 6023TIP3    H239629   1.124   0.142   2.455  3.4165  0.4545 -1.0777
 6024TIP3   OH239630   0.417   3.288   7.446  0.0558 -0.2732  0.2842
 6024TIP3    H139631   0.495   3.341   7.460 -0.3590  0.2422  0.6783
 6024TIP3    H239632   0.362   3.341   7.388  1.5469 -2.1638 -3.1649
 6025TIP3   OH239633   2.938   1.651   0.958 -0.4812  0.2100 -0.4955
 6025TIP3    H139634   3.010   1.587   0.964 -0.5715  0.1481  0.0101
 6025TIP3    H239635   2.956   1.714   1.028 -1.2165 -0.1201  0.0040
 6026TIP3   OH239636   5.196   0.642   8.221  0.1128  0.0042  0.5003
 6026TIP3    H139637   5.123   0.672   8.276 -1.0373  1.4456 -1.6929
 6026TIP3    H239638   5.255   0.717   8.215  0.2513 -0.1500 -0.1820
 6027TIP3   OH239639   6.888   0.479   8.350 -0.2241  0.9738  0.3416
 6027TIP3    H139640   6.953   0.434   8.296 -0.6684  1.2455 -0.4305
 6027TIP3    H239641   6.826   0.517   8.287  0.7401  3.6386  0.8838
 6028TIP3   OH239642   0.290   0.788   2.034 -0.6694 -0.1586  0.1221
 6028TIP3    H139643   0.270   0.746   1.951 -0.3651  1.3072 -0.7209
 6028TIP3    H239644   0.311   0.715   2.093 -0.8822 -1.2222 -1.0731
 6029TIP3   OH239645   6.454   6.825   6.783 -0.0824 -0.1345 -0.1785
 6029TIP3    H139646   6.372   6.778   6.799  0.0200 -0.1624  0.2717
 6029TIP3    H239647   6.468   6.877   6.862  0.7113 -0.6862  0.0564
 6030TIP3   OH239648   0.792   4.679   0.123 -0.1017 -0.3932 -0.7129
 6030TIP3    H139649   0.743   4.639   0.052  0.1381 -0.7813 -0.6653
 6030TIP3    H239650   0.862   4.728   0.080  0.7116 -1.5270 -0.7180
 6031TIP3   OH239651   5.151   1.152   8.307  0.0742  0.4110 -0.5169
 6031TIP3    H139652   5.074   1.204   8.329 -0.6529 -0.2904 -1.3331
 6031TIP3    H239653   5.223   1.215   8.306 -0.8970  1.5825 -2.2886
 6032TIP3   OH239654   3.476   5.949   7.596  0.1441 -0.0045 -1.2583
 6032TIP3    H139655   3.415   5.876   7.608  0.3837 -0.1128 -0.6614
 6032TIP3    H239656   3.453   6.012   7.664  1.3640 -0.5192 -0.3215
 6033TIP3   OH239657   0.691   2.189   7.763  0.4133 -0.0827 -0.0760
 6033TIP3    H139658   0.734   2.163   7.682 -0.3995  0.7737 -0.7983
 6033TIP3    H239659   0.603   2.215   7.737  0.9942  3.0028  0.6171
 6034TIP3   OH239660   0.870   0.818   2.067  0.7690 -0.5283  0.1525
 6034TIP3    H139661   0.834   0.855   1.986 -0.7529 -2.2798 -0.0433
 6034TIP3    H239662   0.812   0.850   2.136  0.2961 -1.3416  0.1528
 6035TIP3   OH239663   6.402   2.123   1.536 -0.0060  0.2423  0.1389
 6035TIP3    H139664   6.442   2.198   1.580  0.8561 -0.1338  0.0180
 6035TIP3    H239665   6.468   2.095   1.472 -0.4629 -0.4023 -0.0572
 6036TIP3   OH239666   6.262   0.470   1.676  0.9903 -0.1469  0.0024
 6036TIP3    H139667   6.306   0.425   1.748  1.3858  1.8952  1.0987
 6036TIP3    H239668   6.331   0.485   1.611  1.4413  1.0635  0.7393
 6037TIP3   OH239669   1.544   0.803   0.784 -0.1036 -0.5464 -1.0514
 6037TIP3    H139670   1.461   0.762   0.761 -1.5453  1.4502  0.2355
 6037TIP3    H239671   1.534   0.828   0.876  2.5397 -1.6035 -0.3829
 6038TIP3   OH239672   1.128   3.452   0.659  0.3599 -0.1000  0.0858
 6038TIP3    H139673   1.180   3.443   0.739 -1.7080  1.9502  1.8084
 6038TIP3    H239674   1.141   3.370   0.613  2.2838 -1.0524  2.1201
 6039TIP3   OH239675   6.646   3.047   7.388  0.4978  0.0506 -0.0921
 6039TIP3    H139676   6.609   2.973   7.339  1.0500 -1.5959  1.8034
 6039TIP3    H239677   6.658   3.012   7.477  0.2959  2.6146  1.0158
 6040TIP3   OH239678   3.425   4.976   2.264  0.5423  0.6943  0.6758
 6040TIP3    H139679   3.422   5.036   2.338 -1.2736  0.3887  0.8882
 6040TIP3    H239680   3.401   4.891   2.300 -3.1980  1.0200 -0.6246
 6041TIP3   OH239681   4.186   3.248   0.116 -0.0871 -0.2199 -0.5503
 6041TIP3    H139682   4.195   3.268   0.023 -0.9151 -1.6233 -0.9626
 6041TIP3    H239683   4.268   3.202   0.138  0.4791  0.8568 -0.3592
 6042TIP3   OH239684   5.054   4.081   1.340 -0.1405  0.0900  0.5382
 6042TIP3    H139685   5.128   4.025   1.315  0.1026  0.2760  0.8261
 6042TIP3    H239686   5.072   4.164   1.296 -0.7343 -0.1895 -0.2551
 6043TIP3   OH239687   1.731   5.908   2.249 -0.1807 -0.3755  0.1506
 6043TIP3    H139688   1.769   5.872   2.169 -0.7484  1.6259 -1.1109
 6043TIP3    H239689   1.799   5.966   2.283 -1.1804  1.5070 -0.8986
 6044TIP3   OH239690   0.574   0.869   7.343 -0.0161  0.6298  0.1570
 6044TIP3    H139691   0.663   0.902   7.359 -0.1650  1.0202  0.2027
 6044TIP3    H239692   0.539   0.852   7.430  0.0281  0.4406  0.1367
 6045TIP3   OH239693   5.057   5.580   2.692 -0.1357  0.3916  0.5641
 6045TIP3    H139694   4.968   5.615   2.694 -1.1024 -1.8456 -0.2502
 6045TIP3    H239695   5.047   5.488   2.714  1.6078 -0.5665 -2.1420
 6046TIP3   OH239696   2.602   5.023   6.991  0.0827 -0.4286  0.5060
 6046TIP3    H139697   2.674   5.084   7.004  0.5469 -1.0022  0.6585
 6046TIP3    H239698   2.644   4.938   6.975 -0.5375 -0.6004 -0.3153
 6047TIP3   OH239699   4.327   6.509   1.822  0.7152 -0.4747  0.2436
 6047TIP3    H139700   4.265   6.472   1.759  0.9251 -0.1957 -0.1322
 6047TIP3    H239701   4.329   6.446   1.894  1.9026 -1.7810 -0.8699
 6048TIP3   OH239702   5.737   5.445   2.273  0.3002 -0.3645  0.3660
 6048TIP3    H139703   5.805   5.380   2.260  1.3597  0.4678  1.5082
 6048TIP3    H239704   5.775   5.508   2.335 -0.5156  1.5584 -0.9659
 6049TIP3   OH239705   6.517   4.600   1.386  0.2793 -0.0289  0.2852
 6049TIP3    H139706   6.444   4.656   1.411 -0.7865 -2.1172  2.1610
 6049TIP3    H239707   6.584   4.615   1.453  1.6027  1.6792 -1.2800
 6050TIP3   OH239708   1.296   5.892   1.379  0.1965  0.5298  0.5562
 6050TIP3    H139709   1.287   5.975   1.332  0.4429  0.6705  0.7551
 6050TIP3    H239710   1.335   5.832   1.315  0.4355  0.6919  0.5484
 6051TIP3   OH239711   3.845   0.841   6.603  0.1291 -0.1928  0.2493
 6051TIP3    H139712   3.754   0.845   6.631  0.0571 -1.4139  0.2764
 6051TIP3    H239713   3.862   0.925   6.560 -1.7430 -0.7854 -1.8628
 6052TIP3   OH239714   0.773   6.800   2.336  0.1608 -0.6406  0.3313
 6052TIP3    H139715   0.863   6.823   2.313  0.6996 -2.7948  0.1063
 6052TIP3    H239716   0.762   6.831   2.426  1.0213 -0.0866  0.2529
 6053TIP3   OH239717   1.434   2.497   8.046 -0.9609 -0.4258  0.4548
 6053TIP3    H139718   1.422   2.497   7.951  0.4734  0.6730  0.2313
 6053TIP3    H239719   1.529   2.492   8.058 -0.9233  1.9180  1.7514
 6054TIP3   OH239720   1.850   6.585   2.575 -0.7329  0.1113 -0.1013
 6054TIP3    H139721   1.885   6.513   2.629  2.0445 -0.1961 -2.1001
 6054TIP3    H239722   1.889   6.664   2.613  0.8485 -0.0627 -1.2593
 6055TIP3   OH239723   4.535   0.979   0.275  0.2156 -0.1395 -0.0872
 6055TIP3    H139724   4.580   0.899   0.302  0.5177 -0.0052 -0.1914
 6055TIP3    H239725   4.447   0.971   0.314  0.0358 -0.8053 -0.6228
 6056TIP3   OH239726   4.987   5.506   8.097  0.7377  0.6820  0.0739
 6056TIP3    H139727   4.998   5.489   8.004  0.0873  0.2063  0.0709
 6056TIP3    H239728   4.920   5.574   8.102  0.3725  0.3234  0.1977
 6057TIP3   OH239729   6.600   1.859   7.067  0.3821  0.2472 -0.3502
 6057TIP3    H139730   6.672   1.922   7.053  0.2226  0.2623 -1.1675
 6057TIP3    H239731   6.627   1.781   7.018  1.5853 -1.1657  2.3646
 6058TIP3   OH239732   3.004   2.161   8.424 -0.1613  0.4272  0.7763
 6058TIP3    H139733   3.041   2.231   8.371  1.7815 -2.2231 -1.6528
 6058TIP3    H239734   2.916   2.147   8.388  0.4897 -0.1673 -0.6664
 6059TIP3   OH239735   6.286   5.207   8.419 -0.2881 -0.4867 -0.5554
 6059TIP3    H139736   6.279   5.204   8.324  0.0879  1.7452 -0.7045
 6059TIP3    H239737   6.200   5.233   8.449 -0.2453 -0.6175 -0.3160
 6060TIP3   OH239738   2.557   1.995   2.225 -0.1521  0.3288 -0.2372
 6060TIP3    H139739   2.584   2.082   2.255  3.3853 -0.9007  0.5935
 6060TIP3    H239740   2.470   1.982   2.264  0.3693  2.4323  1.8154
 6061TIP3   OH239741   3.435   2.557   0.033  0.2474  0.0541  0.6278
 6061TIP3    H139742   3.452   2.488   0.096 -1.1526 -0.5325  0.3891
 6061TIP3    H239743   3.442   2.638   0.084 -1.3347 -0.4269  1.6662
 6062TIP3   OH239744   0.023   2.415   6.651  0.0328  0.2999 -0.4533
 6062TIP3    H139745  -0.023   2.485   6.697  2.1567  2.2680 -1.1432
 6062TIP3    H239746  -0.016   2.415   6.563 -1.4826 -0.9480  0.1811
 6063TIP3   OH239747   4.975   6.684   7.331 -0.1467 -0.0416  0.0099
 6063TIP3    H139748   4.963   6.659   7.423 -0.9770  2.1724  0.5488
 6063TIP3    H239749   4.981   6.600   7.285  1.5571 -1.2262  2.2008
 6064TIP3   OH239750   1.505   4.610   0.105 -0.5916 -0.8006  0.0198
 6064TIP3    H139751   1.557   4.645   0.032 -0.6352 -2.2898 -0.7688
 6064TIP3    H239752   1.533   4.518   0.112 -1.2369 -0.9106  1.3055
 6065TIP3   OH239753   0.221   3.079   7.323  0.0030 -0.7500  0.0643
 6065TIP3    H139754   0.163   3.101   7.250  0.2250 -0.5215 -0.0457
 6065TIP3    H239755   0.262   3.162   7.347  0.0496 -0.8527  0.3482
 6066TIP3   OH239756   1.508   1.619   0.584  0.1312 -0.1425  0.1392
 6066TIP3    H139757   1.416   1.640   0.571  0.2408 -0.1758 -0.7614
 6066TIP3    H239758   1.549   1.704   0.602 -0.0709 -0.1258  0.5256
 6067TIP3   OH239759   3.306   2.228   1.841  0.0076  0.4583 -0.0676
 6067TIP3    H139760   3.258   2.311   1.845 -1.4781 -0.3771  0.0820
 6067TIP3    H239761   3.365   2.238   1.767 -0.3888  1.5287 -0.2519
 6068TIP3   OH239762   0.875   5.344   0.963 -0.4763 -0.0071  0.0530
 6068TIP3    H139763   0.782   5.335   0.985 -0.2158 -1.5268  0.7014
 6068TIP3    H239764   0.920   5.334   1.047  0.2274  3.5027  0.2391
 6069TIP3   OH239765   3.400   2.875   0.076  0.2960  0.1782 -0.1012
 6069TIP3    H139766   3.382   2.940   0.144 -1.8363 -1.0024  0.5343
 6069TIP3    H239767   3.468   2.820   0.113  0.1085  0.3534  0.5148
 6070TIP3   OH239768   3.344   4.612   6.691  0.5422 -0.1090  0.1334
 6070TIP3    H139769   3.257   4.652   6.695  1.0356  0.8757  2.3875
 6070TIP3    H239770   3.328   4.519   6.710 -0.1272 -0.1811 -0.7058
 6071TIP3   OH239771   4.454   0.325   8.388  0.0925 -0.4956 -0.3204
 6071TIP3    H139772   4.369   0.367   8.399 -0.1800 -0.9157 -0.8011
 6071TIP3    H239773   4.434   0.232   8.383  0.7927 -0.8583  2.1176
 6072TIP3   OH239774   3.096   4.858   2.224 -0.0623  0.3558 -0.1824
 6072TIP3    H139775   3.156   4.856   2.299  2.1003  2.2756 -1.7145
 6072TIP3    H239776   3.070   4.950   2.217 -0.6144  0.1198 -1.4734
 6073TIP3   OH239777   2.227   2.692   0.041  0.9321  0.1732 -0.0122
 6073TIP3    H139778   2.199   2.745   0.116 -1.5798 -1.0062 -0.0231
 6073TIP3    H239779   2.300   2.640   0.074  1.0531  0.9798  1.0495
 6074TIP3   OH239780   1.053   5.826   7.804 -0.1727 -0.3932  0.5497
 6074TIP3    H139781   1.067   5.919   7.789 -1.5969 -0.3449 -0.6593
 6074TIP3    H239782   0.958   5.816   7.812 -0.1505 -1.9037 -0.5925
 6075TIP3   OH239783   1.197   6.650   0.998  0.0585 -0.0955  0.3352
 6075TIP3    H139784   1.184   6.671   0.906 -0.6981  0.7885  0.6326
 6075TIP3    H239785   1.109   6.637   1.032  0.3906 -1.9828  0.5994
 6076TIP3   OH239786   6.374   2.679   1.204  0.5011  0.3971  0.1911
 6076TIP3    H139787   6.310   2.608   1.195  1.2085 -0.1432 -0.7652
 6076TIP3    H239788   6.380   2.717   1.116  1.3942  0.5196  0.2971
 6077TIP3   OH239789   1.293   4.639   0.314  0.1880 -0.1833 -0.5078
 6077TIP3    H139790   1.263   4.719   0.357  0.2374 -0.0211 -0.7769
 6077TIP3    H239791   1.350   4.669   0.244 -0.4347 -0.4177 -1.1192
 6078TIP3   OH239792   3.577   4.054   1.506  0.2510 -0.4205  0.0948
 6078TIP3    H139793   3.550   3.982   1.450 -1.1684 -0.1866  0.4486
 6078TIP3    H239794   3.631   4.013   1.573  0.6780 -0.9242 -0.5378
 6079TIP3   OH239795   2.159   1.397   6.795 -0.1534  0.3710 -0.8498
 6079TIP3    H139796   2.159   1.442   6.711 -1.2650  1.3746 -0.3405
 6079TIP3    H239797   2.069   1.367   6.807 -0.0682  0.4363  0.0704
 6080TIP3   OH239798   4.638   6.689   0.727  0.0285  0.2638 -0.5069
 6080TIP3    H139799   4.621   6.645   0.811  0.7068 -1.5187 -1.2504
 6080TIP3    H239800   4.589   6.771   0.733  2.4736  1.7370  2.8757
 6081TIP3   OH239801   6.901   6.810   1.482  0.1383 -0.4217 -0.9271
 6081TIP3    H139802   6.909   6.721   1.449  1.0474 -1.3631  1.5539
 6081TIP3    H239803   6.992   6.839   1.493  0.1036 -1.2390  3.0583
 6082TIP3   OH239804   3.781   4.579   2.439 -0.0177  0.4709  0.2933
 6082TIP3    H139805   3.728   4.658   2.447  0.7933  1.0487  0.0869
 6082TIP3    H239806   3.724   4.516   2.397 -0.6764  0.9490  0.4580
 6083TIP3   OH239807   5.110   3.492   0.893 -0.0018 -0.1511 -0.8334
 6083TIP3    H139808   5.174   3.536   0.949  1.0431 -1.3854 -1.0246
 6083TIP3    H239809   5.159   3.425   0.847 -1.2164 -0.3794 -1.8652
 6084TIP3   OH239810   1.941   5.706   7.950 -0.5466 -0.0108  0.7795
 6084TIP3    H139811   1.867   5.679   8.005 -0.3641 -1.5734  0.3181
 6084TIP3    H239812   2.018   5.677   7.998 -0.2693  0.6973  0.7731
 6085TIP3   OH239813   3.428   5.217   1.055 -0.3423  0.2860  0.1568
 6085TIP3    H139814   3.513   5.197   1.016 -1.0498 -1.1774 -0.6975
 6085TIP3    H239815   3.364   5.201   0.986 -1.6883 -2.8174  1.9247
 6086TIP3   OH239816   0.260   3.633   7.143 -0.2776 -0.0048  0.3142
 6086TIP3    H139817   0.345   3.645   7.101 -0.2957  0.2259  0.3421
 6086TIP3    H239818   0.227   3.722   7.156 -0.5788 -0.0975  0.1904
 6087TIP3   OH239819   4.105   0.345   8.120  0.0682 -0.5231  0.4884
 6087TIP3    H139820   4.075   0.330   8.030  0.3106  0.9470  0.1360
 6087TIP3    H239821   4.066   0.429   8.144  0.7419 -0.4739  1.4458
 6088TIP3   OH239822   3.742   2.537   8.479 -0.1302 -0.2374  0.4932
 6088TIP3    H139823   3.680   2.602   8.514 -0.4087  0.1458 -0.6609
 6088TIP3    H239824   3.689   2.483   8.420  0.4225 -0.5584  0.2856
 6089TIP3   OH239825   0.968   3.202   1.037 -0.1598  0.9701  0.2694
 6089TIP3    H139826   0.897   3.250   0.995 -0.1710  0.0678 -0.8065
 6089TIP3    H239827   0.990   3.132   0.975  0.1081 -0.1867  1.6071
 6090TIP3   OH239828   1.831   6.047   1.263 -0.5120 -0.3089  0.5009
 6090TIP3    H139829   1.921   6.080   1.265 -0.7602  0.5458 -0.9085
 6090TIP3    H239830   1.777   6.126   1.256 -1.2904 -0.8754 -0.0337
 6091TIP3   OH239831   2.917   6.238   7.558  0.3634 -0.0341  0.7738
 6091TIP3    H139832   2.886   6.172   7.496  0.2029  0.2950  0.5025
 6091TIP3    H239833   2.883   6.209   7.643  1.3757 -1.0030  0.8719
 6092TIP3   OH239834   5.256   3.301   0.766  0.4826  0.0043  0.4705
 6092TIP3    H139835   5.235   3.209   0.751 -0.5329  0.3369 -0.2887
 6092TIP3    H239836   5.307   3.327   0.690 -0.4344  0.4121 -0.0307
 6093TIP3   OH239837   4.060   2.904   8.349 -0.2797 -0.1086 -0.5620
 6093TIP3    H139838   4.034   2.996   8.355  1.3466  0.4516 -1.5057
 6093TIP3    H239839   3.979   2.858   8.326 -2.2132  0.3325  4.1857
 6094TIP3   OH239840   3.074   6.431   1.778  0.2191  0.5486  0.1743
 6094TIP3    H139841   2.993   6.461   1.737  0.4887 -0.0367 -0.8338
 6094TIP3    H239842   3.133   6.506   1.773  0.5001  0.2827 -1.2655
 6095TIP3   OH239843   0.673   3.033   7.939 -0.0210  0.3504  0.4609
 6095TIP3    H139844   0.638   2.956   7.895 -0.9930  0.5692  0.8190
 6095TIP3    H239845   0.743   3.000   7.996  0.6903 -0.0368 -0.6180
 6096TIP3   OH239846   1.254   0.788   2.610 -0.2258 -0.1332  0.1583
 6096TIP3    H139847   1.270   0.876   2.576  0.3531  0.1215  1.0723
 6096TIP3    H239848   1.189   0.751   2.550 -1.9387  1.5892  0.8621
 6097TIP3   OH239849   2.407   3.276   7.973 -0.3322 -0.2803 -0.5511
 6097TIP3    H139850   2.418   3.183   7.993  0.4457 -0.2783 -0.9257
 6097TIP3    H239851   2.470   3.293   7.902 -0.5946  0.4899 -0.6118
 6098TIP3   OH239852   4.637   1.659   0.961  0.4466  0.4492  0.2466
 6098TIP3    H139853   4.589   1.584   0.996  1.1798 -1.2755 -2.1657
 6098TIP3    H239854   4.608   1.667   0.870  0.5685  3.0144  0.3432
 6099TIP3   OH239855   0.778   0.191   2.449 -0.4629  0.0281  0.4307
 6099TIP3    H139856   0.729   0.117   2.483 -2.0981  0.4671 -0.8194
 6099TIP3    H239857   0.868   0.159   2.439 -1.2661 -2.0028 -0.7107
 6100TIP3   OH239858   2.334   5.819   7.456  0.0436 -0.8279 -0.2110
 6100TIP3    H139859   2.392   5.875   7.405 -0.5941  0.4136  0.3907
 6100TIP3    H239860   2.386   5.795   7.533 -0.2571  0.4409  0.4242
 6101TIP3   OH239861   4.601   5.969   7.379 -0.3534 -0.2235 -0.0800
 6101TIP3    H139862   4.549   6.049   7.374  0.0623 -0.0197 -1.4475
 6101TIP3    H239863   4.677   5.993   7.432 -1.8712 -0.7037  2.5297
 6102TIP3   OH239864   6.929   1.051   2.458 -0.0275  0.3287 -0.0640
 6102TIP3    H139865   6.909   1.103   2.536 -2.1616 -1.0392  0.3986
 6102TIP3    H239866   6.861   0.983   2.457  2.1970 -2.0497 -0.9812
 6103TIP3   OH239867   6.891   0.818   2.024 -0.1684 -0.1574 -0.2710
 6103TIP3    H139868   6.881   0.736   1.975 -2.9057 -0.4471  0.6166
 6103TIP3    H239869   6.857   0.885   1.965  0.7334  0.1717 -0.4390
 6104TIP3   OH239870   5.665   0.953   8.408  0.9242  0.5304  0.0819
 6104TIP3    H139871   5.576   0.966   8.438  0.6265 -0.6250 -0.2799
 6104TIP3    H239872   5.713   0.924   8.485  0.8619  0.5787  0.1393
 6105TIP3   OH239873   4.137   4.906   0.077  0.0696 -0.1421 -0.0811
 6105TIP3    H139874   4.066   4.969   0.063  0.7477  0.1420 -2.9779
 6105TIP3    H239875   4.097   4.836   0.128 -1.5337  1.2084  0.6300
 6106TIP3   OH239876   3.322   0.849   7.806 -0.3473 -0.4752  0.3882
 6106TIP3    H139877   3.230   0.869   7.825  0.4516  1.2009  3.0294
 6106TIP3    H239878   3.364   0.935   7.800  0.9620 -1.1916 -1.6315
 6107TIP3   OH239879   0.618   0.433   8.224 -0.2263 -0.2129 -0.0377
 6107TIP3    H139880   0.561   0.359   8.244 -0.5351  0.5656  2.3374
 6107TIP3    H239881   0.706   0.401   8.243 -0.5322  0.5935  3.4078
 6108TIP3   OH239882   5.606   1.504   0.814 -0.5911 -0.3191 -0.0897
 6108TIP3    H139883   5.544   1.432   0.825 -1.3642  0.2125 -0.7784
 6108TIP3    H239884   5.553   1.583   0.828 -0.3220  0.1847 -1.6627
 6109TIP3   OH239885   6.379   3.135   7.042 -0.1392 -0.5961  0.5719
 6109TIP3    H139886   6.335   3.191   7.106 -2.2074  0.6650 -1.7372
 6109TIP3    H239887   6.445   3.192   7.003 -0.1717 -0.7383  0.3089
 6110TIP3   OH239888   2.961   1.619   7.963  0.8183 -0.5804  0.6579
 6110TIP3    H139889   3.026   1.682   7.932 -0.1161  1.0625  1.8840
 6110TIP3    H239890   2.899   1.611   7.891  1.4936 -0.9084  0.1027
 6111TIP3   OH239891   0.764   3.819   2.186 -0.1293  0.4124 -0.6668
 6111TIP3    H139892   0.732   3.737   2.223 -1.4126  0.2966 -1.9388
 6111TIP3    H239893   0.742   3.885   2.251  0.5665 -0.1719  0.1947
 6112TIP3   OH239894   0.402   1.034   6.907 -0.0191 -0.0780  0.3925
 6112TIP3    H139895   0.351   1.054   6.829 -0.0544  0.4944  0.5613
 6112TIP3    H239896   0.349   1.065   6.980  0.6562  0.7180  0.5569
 6113TIP3   OH239897   6.351   5.780   0.134 -0.0773 -0.5902 -0.4494
 6113TIP3    H139898   6.345   5.798   0.228  1.5357 -0.1286 -0.4120
 6113TIP3    H239899   6.421   5.838   0.103  1.3661 -2.7231 -1.4085
 6114TIP3   OH239900   6.033   2.794   7.886 -0.4762 -0.0452  0.4313
 6114TIP3    H139901   5.947   2.764   7.916 -0.4898  0.6750  1.1437
 6114TIP3    H239902   6.037   2.885   7.914  0.3971  0.0118  0.1294
 6115TIP3   OH239903   5.528   3.981   0.886  0.1082  0.3148 -0.2732
 6115TIP3    H139904   5.445   3.955   0.845 -0.4674 -0.8500  1.5064
 6115TIP3    H239905   5.543   4.070   0.855 -1.9644  0.6652 -0.4277
 6116TIP3   OH239906   6.166   5.651   7.443  0.0522  0.0223 -0.0513
 6116TIP3    H139907   6.190   5.663   7.535  0.0789  0.4133 -0.1077
 6116TIP3    H239908   6.071   5.660   7.442 -0.0177 -0.6854  0.0435
 6117TIP3   OH239909   2.403   1.949   1.172  0.4573  0.9858 -0.1492
 6117TIP3    H139910   2.454   2.029   1.187  1.3451 -0.0701  3.1189
 6117TIP3    H239911   2.462   1.893   1.122  1.0194  1.2079  0.2528
 6118TIP3   OH239912   1.604   4.259   0.217  0.4503 -0.2896 -0.4139
 6118TIP3    H139913   1.590   4.175   0.173 -1.6338  1.5811 -3.8250
 6118TIP3    H239914   1.518   4.282   0.253  1.0629  0.2516  0.7408
 6119TIP3   OH239915   1.983   5.290   1.030  0.1403  0.6454 -0.0345
 6119TIP3    H139916   1.891   5.295   1.005  0.3401 -1.9049 -1.6468
 6119TIP3    H239917   1.985   5.324   1.119 -2.1984  1.5572 -0.2483
 6120TIP3   OH239918   3.554   3.825   1.353 -0.1301 -0.0426  0.0667
 6120TIP3    H139919   3.464   3.818   1.386 -0.1888  1.2310  0.2236
 6120TIP3    H239920   3.547   3.807   1.260 -0.2579 -1.7590  0.3766
 6121TIP3   OH239921   5.378   0.340   0.589 -0.1026 -0.0636 -0.4536
 6121TIP3    H139922   5.372   0.280   0.664 -1.7061  3.0068  2.1114
 6121TIP3    H239923   5.312   0.406   0.606  0.7424  1.8338 -3.7227
 6122TIP3   OH239924   6.081   6.255   7.883 -0.1105  0.1397 -0.3296
 6122TIP3    H139925   6.068   6.236   7.975 -0.6494  1.0032 -0.2161
 6122TIP3    H239926   5.993   6.274   7.850 -0.2663 -2.2025 -1.5277
 6123TIP3   OH239927   3.817   0.125   1.025  0.3253 -0.3417  0.1410
 6123TIP3    H139928   3.875   0.129   1.101 -1.1571  1.1648  1.2679
 6123TIP3    H239929   3.813   0.216   0.993  3.2069 -1.2766 -3.6524
 6124TIP3   OH239930   3.760   0.901   7.161 -0.0591 -0.2482  0.0400
 6124TIP3    H139931   3.795   0.849   7.089  0.7326 -0.2007  0.3722
 6124TIP3    H239932   3.744   0.987   7.123 -2.8324 -1.0851 -0.9048
 6125TIP3   OH239933   2.121   0.588   7.804  0.3194  0.4564  0.2405
 6125TIP3    H139934   2.035   0.615   7.836 -0.1010 -0.4224 -0.1204
 6125TIP3    H239935   2.183   0.626   7.866 -0.4102 -0.1368  1.3635
 6126TIP3   OH239936   5.551   6.264   7.865  0.0117 -0.2988  0.2068
 6126TIP3    H139937   5.557   6.339   7.925  0.2962 -0.3409  0.2281
 6126TIP3    H239938   5.463   6.229   7.880 -0.1077  0.0076  0.2258
 6127TIP3   OH239939   6.008   5.303   7.103 -0.5926 -0.2304  0.5010
 6127TIP3    H139940   6.098   5.315   7.133 -0.4396  0.9668 -0.3515
 6127TIP3    H239941   6.016   5.283   7.009 -1.2271  0.4375  0.2940
 6128TIP3   OH239942   2.796   0.744   0.632  0.1265  0.1690 -0.4729
 6128TIP3    H139943   2.755   0.786   0.707  1.6995  0.4929  0.2423
 6128TIP3    H239944   2.745   0.664   0.618  0.7777 -0.7738  2.0374
 6129TIP3   OH239945   6.892   6.127   0.363  0.3100  0.2603 -0.0182
 6129TIP3    H139946   6.880   6.167   0.277  0.0440 -2.2619 -1.2467
 6129TIP3    H239947   6.812   6.150   0.411  0.9957  2.7270  0.0870
 6130TIP3   OH239948   1.816   6.351   1.241 -0.3907 -0.7132 -0.0935
 6130TIP3    H139949   1.841   6.374   1.152 -0.1180 -0.7118 -0.0159
 6130TIP3    H239950   1.898   6.328   1.284 -0.3658  0.4069  0.4944
 6131TIP3   OH239951   5.730   5.975   7.249 -0.2436 -0.0366 -0.3209
 6131TIP3    H139952   5.794   6.043   7.231  1.3613 -1.0645  1.1457
 6131TIP3    H239953   5.744   5.911   7.179  0.4994 -0.3386  0.0854
 6132TIP3   OH239954   2.138   1.236   0.257  0.0447  0.1998  0.1031
 6132TIP3    H139955   2.089   1.231   0.175  0.7015  0.3097 -0.2936
 6132TIP3    H239956   2.186   1.319   0.251  1.8615 -0.8478 -0.3893
 6133TIP3   OH239957   4.340   5.097   0.149  0.3377  0.0609  0.4137
 6133TIP3    H139958   4.323   5.082   0.242 -0.8198 -0.1201  0.1952
 6133TIP3    H239959   4.275   5.043   0.104 -0.2175  1.3990 -0.4684
 6134TIP3   OH239960   0.045   1.831   1.800 -0.7438 -0.2397  0.5266
 6134TIP3    H139961   0.024   1.923   1.819 -0.3954  0.1855 -1.0453
 6134TIP3    H239962   0.097   1.802   1.875  1.2632  1.5937 -0.0659
 6135TIP3   OH239963   3.105   2.046   7.272  0.1200 -0.3686  0.0918
 6135TIP3    H139964   3.108   1.954   7.295 -1.2615 -0.3564  0.4314
 6135TIP3    H239965   3.126   2.092   7.353 -0.2885 -0.3799  0.2068
 6136TIP3   OH239966   4.243   2.237   1.392  0.3420  0.4222 -0.2111
 6136TIP3    H139967   4.271   2.256   1.481 -0.0859 -0.5222  0.1268
 6136TIP3    H239968   4.187   2.311   1.368 -0.2518  0.2517  0.6162
 6137TIP3   OH239969   1.838   1.302   8.046  0.0973 -0.4907  0.0383
 6137TIP3    H139970   1.760   1.247   8.057 -0.7226  0.7642  0.6788
 6137TIP3    H239971   1.839   1.323   7.953 -1.3219  0.8670  0.2943
 6138TIP3   OH239972   2.452   0.231   7.955  0.1201  0.4825 -0.1066
 6138TIP3    H139973   2.413   0.205   7.871  0.7346  0.6546 -0.4481
 6138TIP3    H239974   2.524   0.289   7.931 -1.1548  2.4704  0.6327
 6139TIP3   OH239975   3.159   5.054   1.115 -0.0424  0.1694 -1.1462
 6139TIP3    H139976   3.119   5.136   1.085 -1.2965 -0.1633 -0.4388
 6139TIP3    H239977   3.112   5.032   1.196  0.8421 -0.8176 -0.8782
 6140TIP3   OH239978   2.541   6.630   6.866 -0.5606 -0.1039  0.1341
 6140TIP3    H139979   2.499   6.551   6.833 -1.9246  1.0737 -1.1541
 6140TIP3    H239980   2.626   6.633   6.822  0.0646 -1.4671  1.1851
 6141TIP3   OH239981   4.092   2.019   6.795 -0.8153  0.1652 -0.2191
 6141TIP3    H139982   4.045   2.102   6.785  0.6981  1.0051 -0.6401
 6141TIP3    H239983   4.141   2.009   6.714  0.2112 -0.3625  0.4456
 6142TIP3   OH239984   0.938   1.862   8.526 -0.5722 -0.3513  0.1812
 6142TIP3    H139985   1.022   1.851   8.482 -0.9125  0.8206 -0.7886
 6142TIP3    H239986   0.907   1.772   8.540  0.1172 -0.7654 -0.8387
 6143TIP3   OH239987   4.385   4.658   1.760 -0.0840 -0.6512  0.4080
 6143TIP3    H139988   4.365   4.599   1.832  0.7718  0.2416  1.4055
 6143TIP3    H239989   4.471   4.629   1.728 -1.3089 -2.3021 -1.6067
 6144TIP3   OH239990   1.581   0.057   1.760 -0.0398  0.4286 -0.1949
 6144TIP3    H139991   1.614   0.137   1.802  0.7995 -0.0884  0.1519
 6144TIP3    H239992   1.651  -0.007   1.773  0.4942  0.3680 -2.7763
 6145TIP3   OH239993   4.196   0.349   7.131  0.5451 -0.2535  0.3441
 6145TIP3    H139994   4.281   0.390   7.147 -0.5954  2.4749  0.0532
 6145TIP3    H239995   4.134   0.403   7.179 -1.3182 -0.5021 -1.6084
 6146TIP3   OH239996   3.084   4.765   7.524 -0.0144  0.0601  0.7674
 6146TIP3    H139997   3.081   4.680   7.480 -1.0584 -0.3235  1.5438
 6146TIP3    H239998   3.158   4.758   7.585  0.7378  0.2001 -0.1084
 6147TIP3   OH239999   4.702   0.788   0.776  0.1933 -0.5801  0.2999
 6147TIP3    H140000   4.779   0.799   0.832  1.3719  0.6960 -1.4632
 6147TIP3    H240001   4.711   0.699   0.740  0.3320 -0.7721  0.7959
 6148TIP3   OH240002   5.589   2.595   0.306  0.5127 -0.7137 -0.4219
 6148TIP3    H140003   5.673   2.566   0.342  1.5343  0.0648 -2.0314
 6148TIP3    H240004   5.540   2.514   0.290  1.1826 -1.2130  0.0054
 6149TIP3   OH240005   4.895   6.410   1.471 -0.2639  0.1190 -0.0831
 6149TIP3    H140006   4.959   6.401   1.400 -0.2382 -0.4345  0.0079
 6149TIP3    H240007   4.920   6.492   1.515  0.2399  0.0315 -0.1926
 6150TIP3   OH240008   0.862   0.569   1.483  0.6598  0.1635  0.8753
 6150TIP3    H140009   0.807   0.545   1.408  0.1520 -0.1749  1.3447
 6150TIP3    H240010   0.799   0.587   1.554  1.0679  2.0100  0.7994
 6151TIP3   OH240011   5.531   5.736   2.352 -0.3364 -0.2797 -0.0447
 6151TIP3    H140012   5.568   5.781   2.276 -0.5807  1.5964  0.8744
 6151TIP3    H240013   5.441   5.717   2.327  0.0747 -1.2528 -0.8373
 6152TIP3   OH240014   2.085   2.326   0.068 -0.5872 -0.1136 -0.0933
 6152TIP3    H140015   2.140   2.304  -0.007 -1.2819 -2.8044  0.1069
 6152TIP3    H240016   2.127   2.282   0.143 -1.3437  0.3463  0.6176
 6153TIP3   OH240017   6.862   1.520   7.806 -0.0360  0.3080  0.7308
 6153TIP3    H140018   6.840   1.427   7.818 -0.9083  0.1969 -1.3540
 6153TIP3    H240019   6.956   1.519   7.786 -0.5079 -0.5030 -1.9403
 6154TIP3   OH240020   1.675   1.822   2.309  0.6003 -0.0112  0.8940
 6154TIP3    H140021   1.607   1.792   2.249  0.9703  0.9969 -0.0674
 6154TIP3    H240022   1.752   1.771   2.286  1.3442  1.8436 -1.0200
 6155TIP3   OH240023   6.117   6.193   1.780 -0.3821 -0.2358  0.1335
 6155TIP3    H140024   6.088   6.226   1.865 -0.8901 -0.1779 -0.0590
 6155TIP3    H240025   6.156   6.268   1.736  1.1227 -0.5679  0.8405
 6156TIP3   OH240026   1.345   2.168   0.821  0.1592  0.1279  0.3624
 6156TIP3    H140027   1.290   2.245   0.835  1.0982  0.7237  0.9013
 6156TIP3    H240028   1.314   2.131   0.738  0.0339  1.4047 -0.1847
 6157TIP3   OH240029   0.211   2.410   0.147 -0.1603  0.2143  0.4952
 6157TIP3    H140030   0.137   2.441   0.094  0.9099  0.0793 -1.1414
 6157TIP3    H240031   0.200   2.315   0.150  0.3561  0.1173 -0.4178
 6158TIP3   OH240032   1.630   6.482   1.589  0.0017 -0.9939 -0.0316
 6158TIP3    H140033   1.668   6.504   1.503  0.4230 -0.8927  0.1776
 6158TIP3    H240034   1.679   6.406   1.618  0.1285 -0.7876  0.2977
 6159TIP3   OH240035   1.894   6.035   0.061 -0.0742  0.2508  0.0608
 6159TIP3    H140036   1.803   6.035   0.030  0.7310 -1.5230 -2.7316
 6159TIP3    H240037   1.898   6.107   0.123 -2.9350  1.6072 -1.1209
 6160TIP3   OH240038   0.340   1.822   7.877  0.0156 -0.0513  0.1962
 6160TIP3    H140039   0.270   1.804   7.814 -1.6350 -0.2350  2.0060
 6160TIP3    H240040   0.413   1.851   7.823 -1.2417 -0.4349 -1.8255
 6161TIP3   OH240041   2.759   2.848   1.197  0.0399 -0.5406  0.1619
 6161TIP3    H140042   2.693   2.780   1.202 -0.2630 -0.2466  0.2440
 6161TIP3    H240043   2.824   2.823   1.263  0.3890 -1.2141 -0.4207
 6162TIP3   OH240044   0.789   2.260   0.544 -0.3042 -0.6063  1.0121
 6162TIP3    H140045   0.703   2.250   0.503  0.0180  0.6549 -0.0397
 6162TIP3    H240046   0.796   2.185   0.604 -0.9185 -2.3376 -0.9788
 6163TIP3   OH240047   4.241   4.210   0.734  0.3888  0.0101 -0.2194
 6163TIP3    H140048   4.189   4.290   0.726 -0.2792 -0.0592  2.3338
 6163TIP3    H240049   4.332   4.239   0.738  0.1636  0.6467  0.4643
 6164TIP3   OH240050   0.060   6.465   7.852  0.3671 -0.1937 -0.0304
 6164TIP3    H140051  -0.032   6.452   7.828  0.8804 -1.2729 -1.5047
 6164TIP3    H240052   0.078   6.556   7.831 -0.4488  0.1337  0.6227
 6165TIP3   OH240053   6.579   3.805   0.219 -0.2566 -0.2375  0.3760
 6165TIP3    H140054   6.640   3.784   0.290  0.1744  0.6267  0.2634
 6165TIP3    H240055   6.623   3.773   0.140 -0.3579 -0.4219  0.3918
 6166TIP3   OH240056   1.029   6.204   7.412  0.4128 -0.2442 -0.1428
 6166TIP3    H140057   0.958   6.140   7.407 -0.9770  1.0604  1.8393
 6166TIP3    H240058   1.093   6.163   7.470  0.3753 -0.5587 -0.3152
 6167TIP3   OH240059   0.649   5.314   1.572  0.3988  0.7334  0.1070
 6167TIP3    H140060   0.615   5.361   1.648  0.8227  0.9215  0.1879
 6167TIP3    H240061   0.651   5.222   1.598  0.1932  0.7527  0.1901
 6168TIP3   OH240062   0.667   3.717   1.950 -0.0301  0.8727 -0.1039
 6168TIP3    H140063   0.678   3.752   2.039 -1.0343  0.5649  0.1538
 6168TIP3    H240064   0.606   3.645   1.960  1.9529 -0.9804 -0.6456
 6169TIP3   OH240065   5.673   2.443   8.085  0.3584  0.0234 -0.3003
 6169TIP3    H140066   5.708   2.486   8.163  1.1200 -0.1248 -0.5510
 6169TIP3    H240067   5.688   2.506   8.014 -1.8817  0.8866 -0.0649
 6170TIP3   OH240068   5.962   2.193   0.588  0.6052 -0.4342  0.7411
 6170TIP3    H140069   6.006   2.249   0.524  1.0427 -0.8209  0.6963
 6170TIP3    H240070   5.984   2.104   0.561 -1.4965 -0.7090 -0.1887
 6171TIP3   OH240071   3.818   4.964   7.415  0.5972  0.1286  0.3166
 6171TIP3    H140072   3.778   4.958   7.501  0.1945  1.1248  0.2073
 6171TIP3    H240073   3.747   4.941   7.354  0.5070  0.7464  0.1846
 6172TIP3   OH240074   2.637   6.914   0.014 -0.3966  0.3241  0.4512
 6172TIP3    H140075   2.622   6.827   0.052  1.8645 -0.5501 -0.4836
 6172TIP3    H240076   2.664   6.969   0.088  2.8210 -1.0685  0.5003
 6173TIP3   OH240077   2.653   0.934   8.457 -0.6814  0.1413 -0.4878
 6173TIP3    H140078   2.658   0.852   8.506  2.6274  0.5505  0.1099
 6173TIP3    H240079   2.676   1.001   8.521 -0.2487  1.1555 -1.6807
 6174TIP3   OH240080   0.063   6.158   1.237 -0.3074 -0.1378  0.7518
 6174TIP3    H140081   0.148   6.165   1.281  0.6228 -0.9652 -0.8221
 6174TIP3    H240082   0.045   6.064   1.235 -0.9435 -0.0128  0.4857
 6175TIP3   OH240083   6.278   2.631   7.201 -0.0467  0.2054 -0.3821
 6175TIP3    H140084   6.360   2.658   7.242 -0.5896 -0.3267  1.1106
 6175TIP3    H240085   6.304   2.567   7.135  0.9297  1.7279 -1.5570
 6176TIP3   OH240086   3.831   2.244   0.605 -0.2304  0.3217 -0.0653
 6176TIP3    H140087   3.819   2.333   0.573 -0.9578  0.0777 -0.5150
 6176TIP3    H240088   3.882   2.253   0.685  1.0964  1.0119 -0.9603
 6177TIP3   OH240089   4.344   3.388   8.083  0.5886 -0.2350 -0.0244
 6177TIP3    H140090   4.436   3.413   8.091  0.3013  0.2363  2.9124
 6177TIP3    H240091   4.343   3.293   8.098  0.5920 -0.2571 -0.1599
 6178TIP3   OH240092   0.475   4.165   0.252 -0.9042  0.0719  0.9201
 6178TIP3    H140093   0.567   4.166   0.280 -0.8402 -0.2744  0.7346
 6178TIP3    H240094   0.476   4.119   0.168 -1.2291  0.1931  0.8487
 6179TIP3   OH240095   6.087   0.876   1.971  0.2626 -0.1704  0.0301
 6179TIP3    H140096   6.066   0.841   2.058 -2.0740 -1.1279 -0.8429
 6179TIP3    H240097   6.121   0.801   1.923  1.4728  0.3384  0.0645
 6180TIP3   OH240098   5.330   4.712   1.870  0.3389 -0.1930 -0.1538
 6180TIP3    H140099   5.261   4.773   1.845  1.3271  1.6374  1.2734
 6180TIP3    H240100   5.400   4.727   1.807  0.4692 -0.0274  0.0259
 6181TIP3   OH240101   2.529   3.256   1.975 -0.4177  0.0247 -0.1799
 6181TIP3    H140102   2.517   3.177   2.028  0.8953  0.8826  1.5020
 6181TIP3    H240103   2.442   3.295   1.971 -0.9925 -1.2597 -0.6540
 6182TIP3   OH240104   3.553   5.434   0.012 -0.3450  0.8780  0.0647
 6182TIP3    H140105   3.495   5.361   0.032 -1.1506  1.4021 -0.2584
 6182TIP3    H240106   3.622   5.396  -0.042  1.6713 -0.4831  3.3313
 6183TIP3   OH240107   2.028   6.837   0.628  0.1722  0.2007 -0.0395
 6183TIP3    H140108   2.070   6.821   0.543 -2.1139 -0.3626 -1.1480
 6183TIP3    H240109   2.046   6.930   0.646  0.5392  0.3837 -1.2233
 6184TIP3   OH240110   1.438   1.437   1.988  0.0661  0.0553  0.0828
 6184TIP3    H140111   1.425   1.399   2.075 -2.7972  0.6746  0.0222
 6184TIP3    H240112   1.379   1.387   1.931  0.7059  0.7175 -1.1977
 6185TIP3   OH240113   6.111   1.283   1.563  0.0123  0.0898 -0.1250
 6185TIP3    H140114   6.130   1.340   1.638  2.0841 -0.0048 -0.5337
 6185TIP3    H240115   6.128   1.194   1.595  0.1236 -0.0157 -0.4740
 6186TIP3   OH240116   4.912   5.872   1.291  0.4012  0.1906 -0.0111
 6186TIP3    H140117   4.902   5.891   1.197 -0.8758  0.7764  0.2198
 6186TIP3    H240118   4.949   5.953   1.327  1.0807 -0.1067 -0.0351
 6187TIP3   OH240119   5.868   3.376   0.488 -0.8543 -0.2590 -0.1599
 6187TIP3    H140120   5.858   3.415   0.576 -2.7025  0.5184 -0.6588
 6187TIP3    H240121   5.826   3.439   0.430 -0.3899 -1.1731 -1.5192
 6188TIP3   OH240122   4.501   5.438   7.108  0.3910 -0.3220 -0.4815
 6188TIP3    H140123   4.584   5.466   7.069  0.2784 -0.5144 -0.8732
 6188TIP3    H240124   4.459   5.386   7.039  0.3247 -0.9358  0.0091
 6189TIP3   OH240125   6.185   5.864   1.278  0.5266 -0.1071 -0.1491
 6189TIP3    H140126   6.127   5.789   1.283  0.6862 -0.2509 -0.4133
 6189TIP3    H240127   6.241   5.846   1.202 -0.4576  1.0101 -1.1868
 6190TIP3   OH240128   1.934   2.324   2.137 -0.2317  0.4666  0.6987
 6190TIP3    H140129   1.863   2.262   2.121  1.0606 -0.8636 -0.0789
 6190TIP3    H240130   1.900   2.382   2.205 -2.2568  0.2155 -0.0290
 6191TIP3   OH240131   1.426   3.050   6.584 -0.4113  0.4288 -0.8120
 6191TIP3    H140132   1.383   3.087   6.507  1.0124  1.8822 -0.9733
 6191TIP3    H240133   1.519   3.051   6.561 -0.1640 -1.9122 -0.2052
 6192TIP3   OH240134   0.279   6.061   8.119  0.1725 -0.7187  0.3571
 6192TIP3    H140135   0.332   5.989   8.085 -0.0714 -1.0985  0.7696
 6192TIP3    H240136   0.309   6.073   8.209 -0.5369 -1.0426  0.6459
 6193TIP3   OH240137   1.196   6.906   1.296  0.2585 -0.1783  0.4508
 6193TIP3    H140138   1.168   6.846   1.365 -0.7576  0.6741  0.8043
 6193TIP3    H240139   1.191   6.992   1.336 -0.3866  0.3341 -0.6998
 6194TIP3   OH240140   3.846   3.202   7.286  0.7704 -0.1384  0.2930
 6194TIP3    H140141   3.893   3.259   7.226  1.0727 -0.2905  0.3859
 6194TIP3    H240142   3.826   3.258   7.361  0.9133 -0.1078  0.3083
 6195TIP3   OH240143   3.424   0.366   7.810 -0.0601 -0.3133 -0.5033
 6195TIP3    H140144   3.372   0.331   7.737  0.0890  1.0440 -1.2858
 6195TIP3    H240145   3.402   0.459   7.813 -0.0964 -0.3547  1.2367
 6196TIP3   OH240146   5.093   6.920   2.374  0.2128  0.4245  0.0847
 6196TIP3    H140147   5.125   6.860   2.306  0.2237 -0.1352  0.5810
 6196TIP3    H240148   5.139   6.894   2.453  0.4729  1.3145  0.2459
 6197TIP3   OH240149   0.209   1.686   1.152  0.2044  0.4653  0.1323
 6197TIP3    H140150   0.177   1.757   1.208 -0.0962 -0.1043  0.7000
 6197TIP3    H240151   0.230   1.615   1.213 -3.2807 -1.4252 -0.6007
 6198TIP3   OH240152   6.034   3.220   1.887 -0.1096  0.7185 -0.2539
 6198TIP3    H140153   6.020   3.179   1.802  3.2494  1.0684 -1.1010
 6198TIP3    H240154   6.079   3.302   1.867 -1.8420  2.2838  1.7480
 6199TIP3   OH240155   1.836   4.659   2.073  0.3264 -0.9379  0.2814
 6199TIP3    H140156   1.819   4.749   2.045 -0.3417 -1.7078 -1.9685
 6199TIP3    H240157   1.771   4.643   2.142  0.2226  0.1585  0.4645
 6200TIP3   OH240158   0.188   0.350   8.196  0.0017 -0.1205  0.3821
 6200TIP3    H140159   0.221   0.351   8.106 -0.7085 -1.6482  0.0726
 6200TIP3    H240160   0.249   0.294   8.243 -0.8042 -1.0620  0.3399
 6201TIP3   OH240161   0.927   3.597   7.015 -0.1994 -0.2090  0.8214
 6201TIP3    H140162   1.013   3.626   6.984  0.3270 -0.4618  1.9924
 6201TIP3    H240163   0.900   3.531   6.951 -0.1377  0.8104 -0.2948
 6202TIP3   OH240164   4.952   1.194   6.768  0.0583 -0.0071 -0.3918
 6202TIP3    H140165   5.023   1.130   6.776  0.0557 -0.1694 -1.4899
 6202TIP3    H240166   4.873   1.141   6.759 -0.3111  0.1712  1.4237
 6203TIP3   OH240167   0.014   6.045   7.988  0.0171  0.4549  0.1160
 6203TIP3    H140168   0.100   6.081   7.965  1.1477 -1.3413  1.2731
 6203TIP3    H240169  -0.032   6.118   8.030  0.6674  1.6550 -1.1670
 6204TIP3   OH240170   5.800   2.400   0.016  0.3452  0.1760 -0.1906
 6204TIP3    H140171   5.796   2.435   0.105 -0.4428 -0.2928 -0.0308
 6204TIP3    H240172   5.863   2.328   0.021 -0.6992 -0.7252  0.3146
 6205TIP3   OH240173   4.594   4.267   0.040 -0.0251  0.0289  0.3235
 6205TIP3    H140174   4.598   4.355   0.077 -1.2567  0.5026 -0.5904
 6205TIP3    H240175   4.557   4.213   0.110  1.2442  0.1014  1.0787
 6206TIP3   OH240176   6.055   1.427   8.444  0.0473  0.5239 -0.0522
 6206TIP3    H140177   6.035   1.387   8.360  1.5074  1.2777 -0.7899
 6206TIP3    H240178   6.009   1.372   8.508 -1.5339  0.2595 -1.3556
 6207TIP3   OH240179   5.770   3.740   0.157  0.1647  0.2265 -0.0061
 6207TIP3    H140180   5.713   3.674   0.196  0.2315 -0.0655 -0.3983
 6207TIP3    H240181   5.729   3.824   0.179  0.7256  0.1247  1.5501
 6208TIP3   OH240182   6.709   0.342   1.391 -0.0153  0.0016  0.3868
 6208TIP3    H140183   6.759   0.371   1.314 -1.7783  0.6725 -0.5836
 6208TIP3    H240184   6.747   0.257   1.414  1.3738  0.3606 -0.4498
 6209TIP3   OH240185   0.929   5.252   7.533  0.4757  0.6948  0.0698
 6209TIP3    H140186   0.964   5.230   7.619 -0.8581 -0.6388  0.3376
 6209TIP3    H240187   0.869   5.324   7.549 -1.0272 -0.6074  0.6098
 6210TIP3   OH240188   4.389   4.006   0.987  0.2224 -0.1675 -0.4814
 6210TIP3    H140189   4.377   4.101   0.985  1.7923  0.1673  1.7207
 6210TIP3    H240190   4.398   3.985   1.080  2.9093 -2.0102 -1.0441
 6211TIP3   OH240191   2.502   5.543   1.558  0.3354 -0.2845  0.3763
 6211TIP3    H140192   2.485   5.503   1.644 -0.4616 -0.2081  0.2595
 6211TIP3    H240193   2.418   5.539   1.513  0.2591  1.4323  0.3216
 6212TIP3   OH240194   1.134   0.330   0.730 -0.2525  0.4710 -0.0887
 6212TIP3    H140195   1.167   0.256   0.780  1.7443  1.1895 -0.2811
 6212TIP3    H240196   1.139   0.404   0.790  1.6079  1.2194 -1.0923
 6213TIP3   OH240197   2.924   2.264   0.988 -0.3450  0.8965  0.2063
 6213TIP3    H140198   2.939   2.333   0.923 -0.0782  0.6144 -0.0298
 6213TIP3    H240199   2.947   2.183   0.944  0.7757  0.7871  0.9512
 6214TIP3   OH240200   3.151   5.368   1.572  0.4821 -0.6480  0.5908
 6214TIP3    H140201   3.077   5.358   1.512  2.0339 -0.4110 -1.4527
 6214TIP3    H240202   3.114   5.410   1.649 -1.2329  0.8908 -0.9934
 6215TIP3   OH240203   0.633   3.570   2.565 -0.0889 -0.3229 -0.0741
 6215TIP3    H140204   0.645   3.627   2.641 -1.7937 -1.2573  0.9674
 6215TIP3    H240205   0.721   3.552   2.534  0.5718  1.2505  0.7933
 6216TIP3   OH240206   4.079   5.552   1.499 -0.0343  0.4779 -0.2157
 6216TIP3    H140207   4.034   5.487   1.552 -2.5385  0.0613 -2.6515
 6216TIP3    H240208   4.026   5.631   1.507  0.5244  0.9187 -0.7445
 6217TIP3   OH240209   4.997   5.358   7.246  0.5040  0.7740  0.0188
 6217TIP3    H140210   4.927   5.352   7.311  0.4233  0.8043 -0.0642
 6217TIP3    H240211   4.973   5.434   7.192  0.0811  0.2087 -0.6091
 6218TIP3   OH240212   2.064   6.311   1.397  0.1946  0.5882 -0.1301
 6218TIP3    H140213   2.141   6.256   1.383  0.7794  1.7239 -1.7310
 6218TIP3    H240214   2.100   6.396   1.424 -0.7123  0.1230  2.9916
 6219TIP3   OH240215   4.931   4.482   1.834 -0.0055 -0.8957  0.2624
 6219TIP3    H140216   4.966   4.449   1.751  0.4068 -0.2385  0.1735
 6219TIP3    H240217   4.876   4.410   1.866  0.9439 -1.7211  0.1169
 6220TIP3   OH240218   2.374   3.836   1.829 -0.2383 -0.8638 -0.3860
 6220TIP3    H140219   2.295   3.880   1.800 -0.8665 -1.7968 -0.1276
 6220TIP3    H240220   2.439   3.857   1.763  0.1255  2.2006  0.7721
 6221TIP3   OH240221   1.602   1.258   0.548 -0.0941 -0.5067 -0.2821
 6221TIP3    H140222   1.609   1.240   0.454 -1.5448 -0.7982 -0.3496
 6221TIP3    H240223   1.691   1.243   0.582  0.9659  1.6062 -1.9072
 6222TIP3   OH240224   6.068   5.344   8.511 -0.2240  0.0462  0.1924
 6222TIP3    H140225   5.980   5.373   8.533 -0.6827 -1.6553  0.7489
 6222TIP3    H240226   6.125   5.413   8.545 -1.3194  1.1093 -0.0684
 6223TIP3   OH240227   5.562   2.915   7.405  0.4663 -0.2546 -0.1101
 6223TIP3    H140228   5.574   2.824   7.429  0.5501 -0.2577 -0.1655
 6223TIP3    H240229   5.513   2.912   7.323  0.7727 -0.2567 -0.2942
 6224TIP3   OH240230   0.347   4.420   0.637  0.4773 -0.3754 -0.0253
 6224TIP3    H140231   0.319   4.477   0.565 -1.1855 -1.1034  0.0060
 6224TIP3    H240232   0.340   4.332   0.601 -0.8259 -0.7835  1.1450
 6225TIP3   OH240233   2.784   0.747   7.390  0.4416 -0.0875  0.6937
 6225TIP3    H140234   2.746   0.672   7.436  0.3289 -0.1292  0.5333
 6225TIP3    H240235   2.877   0.746   7.414  0.4322 -0.2560  0.7215
 6226TIP3   OH240236   5.958   0.410   8.317  0.6520  0.4694 -0.1273
 6226TIP3    H140237   5.913   0.468   8.378  0.6865 -0.2912  0.6361
 6226TIP3    H240238   5.925   0.322   8.338  1.0895  0.1275 -0.8165
 6227TIP3   OH240239   0.944   4.137   1.669 -0.2022 -0.0792 -0.3367
 6227TIP3    H140240   0.892   4.057   1.678  0.9171 -0.8458 -0.5948
 6227TIP3    H240241   0.971   4.158   1.758  0.7426 -0.8350 -0.4365
 6228TIP3   OH240242   4.565   5.976   6.751  0.2974 -0.2725  0.1389
 6228TIP3    H140243   4.520   6.059   6.770  1.5742  0.2553  0.9491
 6228TIP3    H240244   4.598   5.987   6.662 -2.3310 -1.2327 -1.0692
 6229TIP3   OH240245   0.076   0.857   8.468  0.2170  0.0045 -0.2197
 6229TIP3    H140246  -0.016   0.833   8.472  0.3715 -0.6683 -0.5714
 6229TIP3    H240247   0.107   0.818   8.386  0.8567  0.0908 -0.0227
 6230TIP3   OH240248   3.754   3.204   0.953  0.2385 -0.2462  0.3687
 6230TIP3    H140249   3.743   3.217   0.859  0.8146 -0.4756  0.2661
 6230TIP3    H240250   3.838   3.159   0.962  0.5358  0.4030  1.0360
 6231TIP3   OH240251   2.977   6.777   0.713 -0.4195  0.4028  0.0912
 6231TIP3    H140252   2.950   6.710   0.777  0.4089 -0.1596 -0.1297
 6231TIP3    H240253   3.041   6.830   0.760  0.2878 -0.0902 -0.2935
 6232TIP3   OH240254   6.392   6.574   8.164  0.2030 -0.3438 -0.1049
 6232TIP3    H140255   6.424   6.547   8.250  0.2737 -0.1951 -0.0836
 6232TIP3    H240256   6.401   6.496   8.109 -0.0840 -0.5120  0.0865
 6233TIP3   OH240257   2.767   2.773   8.360 -0.1936 -0.3104 -0.2025
 6233TIP3    H140258   2.798   2.812   8.442 -0.2539 -0.8320  0.0676
 6233TIP3    H240259   2.774   2.679   8.373 -1.0371 -0.4188 -0.4678
 6234TIP3   OH240260   0.963   0.225   7.669 -0.1107 -0.1508 -0.0144
 6234TIP3    H140261   0.869   0.240   7.681 -0.7063 -2.3917 -1.3764
 6234TIP3    H240262   0.985   0.275   7.591 -0.0626  0.6095  0.4668
 6235TIP3   OH240263   3.773   6.216   7.632  0.3675  0.2611  0.2785
 6235TIP3    H140264   3.833   6.284   7.601 -0.1917  0.5256 -0.2334
 6235TIP3    H240265   3.756   6.162   7.555  1.1562 -0.7320  0.7851
 6236TIP3   OH240266   3.508   3.194   1.435 -0.4097  0.2575  0.3216
 6236TIP3    H140267   3.560   3.273   1.419 -1.3214  0.8759  0.3274
 6236TIP3    H240268   3.417   3.223   1.423 -0.8513 -0.4064  1.8729
 6237TIP3   OH240269   5.559   3.573   2.072 -0.5548  0.1958 -0.3446
 6237TIP3    H140270   5.499   3.636   2.112  0.5375  0.0121  1.7545
 6237TIP3    H240271   5.576   3.508   2.141 -1.5416 -2.4072 -2.3799
 6238TIP3   OH240272   5.837   1.904   0.918 -0.5421 -0.5841 -0.1066
 6238TIP3    H140273   5.882   1.962   0.980  0.3039 -1.0684 -0.2464
 6238TIP3    H240274   5.837   1.818   0.961 -2.4642 -0.3627  0.4361
 6239TIP3   OH240275   3.570   5.251   2.980  0.4293 -0.1029  0.0734
 6239TIP3    H140276   3.592   5.158   2.993 -0.9090 -0.3950  0.4187
 6239TIP3    H240277   3.654   5.296   2.984  1.1503 -1.3417 -0.4582
 6240TIP3   OH240278   1.345   4.529   7.734 -0.1650  0.2592 -0.1290
 6240TIP3    H140279   1.400   4.503   7.660  0.2699 -0.5336  0.4646
 6240TIP3    H240280   1.358   4.460   7.799 -2.6139 -0.4886 -0.3465
 6241TIP3   OH240281   4.034   3.130   8.097  0.1522 -0.2264  0.1483
 6241TIP3    H140282   3.973   3.115   8.169  0.6042 -0.5058  0.4860
 6241TIP3    H240283   3.980   3.162   8.025 -0.9587 -3.4416 -0.6295
 6242TIP3   OH240284   5.213   0.431   7.050 -0.3360  0.1300 -0.2993
 6242TIP3    H140285   5.145   0.498   7.046  0.1830  0.6795 -0.0646
 6242TIP3    H240286   5.201   0.389   7.135 -0.2990  0.3123 -0.2038
 6243TIP3   OH240287   0.995   0.459   6.723 -0.1020 -0.3533  0.3656
 6243TIP3    H140288   0.933   0.456   6.795  1.0138  1.2902  1.4711
 6243TIP3    H240289   1.078   0.484   6.764  0.3024  1.8561 -1.6288
 6244TIP3   OH240290   3.794   0.232   2.460 -0.0772  0.3049  0.0566
 6244TIP3    H140291   3.754   0.146   2.448  1.1163 -0.1055 -1.2960
 6244TIP3    H240292   3.883   0.214   2.489  0.0364  1.1054  0.2338
 6245TIP3   OH240293   5.664   3.023   7.607 -0.2656  0.3749  0.3808
 6245TIP3    H140294   5.580   3.054   7.640 -0.7151 -0.8967  0.4938
 6245TIP3    H240295   5.645   2.992   7.518  0.2074  0.6124  0.1934
 6246TIP3   OH240296   2.736   0.637   7.858 -0.1165  0.0217  0.1023
 6246TIP3    H140297   2.756   0.730   7.872  0.1359 -0.1133  0.6625
 6246TIP3    H240298   2.801   0.608   7.795  0.1095  0.1073  0.2949
 6247TIP3   OH240299   0.908   1.979   8.097  0.1395 -0.2624  0.0824
 6247TIP3    H140300   0.997   1.960   8.069  0.0365 -1.9310  0.7788
 6247TIP3    H240301   0.853   1.940   8.028 -0.0598  0.2513 -0.0514
 6248TIP3   OH240302   4.888   0.817   2.011 -0.1882  0.2725 -0.3642
 6248TIP3    H140303   4.876   0.852   2.099  0.2741  1.0482 -0.5980
 6248TIP3    H240304   4.940   0.738   2.024 -2.3736 -1.1335  0.2968
 6249TIP3   OH240305   1.202   5.348   1.350 -0.1849 -0.0215 -0.7900
 6249TIP3    H140306   1.269   5.311   1.293 -0.8670 -0.9795 -0.9994
 6249TIP3    H240307   1.244   5.353   1.436  0.4777  0.3515 -1.1246
 6250TIP3   OH240308   6.915   0.487   0.090 -0.2271 -0.1708  0.3193
 6250TIP3    H140309   6.913   0.466  -0.003  0.0300 -1.0905  0.5072
 6250TIP3    H240310   6.841   0.547   0.103 -0.5956 -0.4593 -0.3813
 6251TIP3   OH240311   2.870   6.033   0.597  0.0127  0.3652 -0.2165
 6251TIP3    H140312   2.799   6.052   0.534  1.5423  1.3878 -1.7186
 6251TIP3    H240313   2.824   6.013   0.678 -2.0330  0.2167 -1.3252
 6252TIP3   OH240314   4.806   1.623   8.411 -0.1364 -0.2167  0.1034
 6252TIP3    H140315   4.856   1.616   8.329  0.2745  0.6055  0.2695
 6252TIP3    H240316   4.760   1.707   8.402 -1.9673 -1.2260 -0.3033
 6253TIP3   OH240317   2.624   0.659   0.934  0.0837 -0.1406 -0.3790
 6253TIP3    H140318   2.530   0.638   0.935  0.1477 -0.4228 -0.1583
 6253TIP3    H240319   2.665   0.580   0.899  0.1673  0.3004 -1.3192
 6254TIP3   OH240320   4.141   4.126   7.384 -0.6125  0.3159  0.3311
 6254TIP3    H140321   4.196   4.051   7.360  0.3409  0.0407  3.0527
 6254TIP3    H240322   4.074   4.129   7.315  0.2498 -2.0375 -0.7324
 6255TIP3   OH240323   2.762   6.086   8.353 -1.0342  0.1100  0.0366
 6255TIP3    H140324   2.792   6.007   8.396 -0.4039 -0.8298 -2.0285
 6255TIP3    H240325   2.692   6.057   8.294 -1.0453  1.1262 -0.4874
 6256TIP3   OH240326   0.244   0.252   7.895  0.0073  0.4085 -0.8412
 6256TIP3    H140327   0.248   0.322   7.829  0.2724 -0.5284 -1.8409
 6256TIP3    H240328   0.334   0.221   7.902 -0.3695 -0.9312 -1.6268
 6257TIP3   OH240329   2.920   2.841   7.724 -0.2742  0.2544 -0.2810
 6257TIP3    H140330   2.955   2.909   7.782 -0.3841 -0.2641  0.4059
 6257TIP3    H240331   2.904   2.886   7.641  3.3567  0.2220 -1.1436
 6258TIP3   OH240332   6.258   2.190   0.302 -0.3244  0.0466  0.3081
 6258TIP3    H140333   6.302   2.275   0.309  1.2334 -0.5983 -0.8655
 6258TIP3    H240334   6.171   2.204   0.338 -0.3179  2.3055 -0.4447
 6259TIP3   OH240335   0.309   1.930   0.921 -0.4825  0.2341 -0.1349
 6259TIP3    H140336   0.398   1.895   0.921 -1.1109 -1.4190  0.4200
 6259TIP3    H240337   0.288   1.941   0.828  0.5076  1.2561 -0.2652
 6260TIP3   OH240338   4.336   5.885   7.441  0.4418  0.2035  0.3302
 6260TIP3    H140339   4.430   5.894   7.425  0.0387  0.9661 -1.9579
 6260TIP3    H240340   4.302   5.841   7.364 -0.7222 -2.9613  2.4372
 6261TIP3   OH240341   1.032   0.854   0.718  0.1126  0.3084 -0.3925
 6261TIP3    H140342   0.943   0.884   0.704  0.8113  2.1105 -1.3257
 6261TIP3    H240343   1.058   0.895   0.801  0.2098  0.1820 -0.3609
 6262TIP3   OH240344   5.732   2.225   0.282 -0.3144  0.3154  0.0360
 6262TIP3    H140345   5.682   2.170   0.223  0.6562  1.1860 -1.6650
 6262TIP3    H240346   5.666   2.271   0.334 -1.2598  0.8818 -1.6224
 6263TIP3   OH240347   6.163   3.420   1.749 -0.8688 -0.6380 -0.0227
 6263TIP3    H140348   6.184   3.411   1.657  1.7602 -2.0543  0.6251
 6263TIP3    H240349   6.126   3.508   1.757  0.2217  0.0707 -2.1628
 6264TIP3   OH240350   1.978   5.823   7.325  0.8504  0.2749 -0.1635
 6264TIP3    H140351   1.889   5.803   7.295  1.2286  0.7270 -1.6544
 6264TIP3    H240352   1.967   5.901   7.379  0.3488  0.4097 -0.4489
 6265TIP3   OH240353   3.613   3.711   0.939 -0.4025 -0.1352  0.4191
 6265TIP3    H140354   3.532   3.735   0.983 -0.8241  0.8157 -0.8104
 6265TIP3    H240355   3.637   3.789   0.888  0.4129 -0.9510 -0.4899
 6266TIP3   OH240356   4.375   0.778   8.522 -0.0997  0.1789 -0.0643
 6266TIP3    H140357   4.390   0.719   8.595 -1.2606 -1.1682 -0.8706
 6266TIP3    H240358   4.285   0.809   8.534  0.6292  2.2431  0.6171
 6267TIP3   OH240359   4.428   0.596   1.460  0.4916 -0.3696 -0.1773
 6267TIP3    H140360   4.357   0.657   1.443  0.0987 -1.3478 -2.3421
 6267TIP3    H240361   4.408   0.559   1.546 -0.4007  0.9495  0.2141
 6268TIP3   OH240362   2.427   1.410   0.884 -0.2842  0.6689  0.2143
 6268TIP3    H140363   2.504   1.360   0.910  0.4560  1.3534 -0.6006
 6268TIP3    H240364   2.401   1.458   0.963  1.0243  1.5719  0.1238
 6269TIP3   OH240365   4.816   0.336   2.904  0.1251 -0.1034 -0.2434
 6269TIP3    H140366   4.769   0.264   2.862  0.0643 -0.8410  1.0234
 6269TIP3    H240367   4.748   0.401   2.925 -0.1359 -0.5662  0.3737
 6270TIP3   OH240368   1.827   1.615   1.457 -0.6675 -0.0302  0.5275
 6270TIP3    H140369   1.887   1.627   1.383 -1.3839  0.0759 -0.0519
 6270TIP3    H240370   1.861   1.671   1.526 -0.6221  0.7336 -0.1102
 6271TIP3   OH240371   3.469   1.094   7.764 -0.4858  0.3274  0.1801
 6271TIP3    H140372   3.409   1.161   7.796 -0.1481  0.6213  0.2122
 6271TIP3    H240373   3.556   1.125   7.791 -0.3967 -0.6217  1.0862
 6272TIP3   OH240374   0.862   1.510   7.461  0.0979  0.2116  0.4513
 6272TIP3    H140375   0.908   1.519   7.378 -0.9395 -0.3620 -0.2114
 6272TIP3    H240376   0.819   1.594   7.474  1.1085  0.6646  0.9516
 6273TIP3   OH240377   3.009   3.857   6.893  0.0769  0.4299  0.4124
 6273TIP3    H140378   3.015   3.946   6.856  1.2112 -0.1894 -1.0029
 6273TIP3    H240379   2.932   3.819   6.851 -0.7677  0.9150  1.4754
 6274TIP3   OH240380   2.177   0.969   0.584  0.2266 -0.0367 -0.5080
 6274TIP3    H140381   2.202   1.061   0.586  1.1111 -0.2584 -0.9783
 6274TIP3    H240382   2.109   0.961   0.651  0.5903  0.8252 -0.0254
 6275TIP3   OH240383   3.639   5.340   2.278  0.0077  0.4473 -0.3133
 6275TIP3    H140384   3.594   5.312   2.358 -0.6487  2.7332  0.1821
 6275TIP3    H240385   3.732   5.323   2.296 -0.2571 -0.4666  0.2985
 6276TIP3   OH240386   2.797   5.538   0.128  0.1340 -0.4694  0.1388
 6276TIP3    H140387   2.830   5.563   0.042  2.5482  1.2651  1.4412
 6276TIP3    H240388   2.853   5.466   0.155 -0.2199 -0.6114  0.5100
 6277TIP3   OH240389   1.200   5.035   2.193 -0.0770 -0.4424  0.1138
 6277TIP3    H140390   1.124   5.005   2.243  0.3373 -1.3838  0.2019
 6277TIP3    H240391   1.218   4.964   2.131  1.3194 -0.6857  0.7581
 6278TIP3   OH240392   6.681   2.686   8.176  0.0447  0.1890 -0.6277
 6278TIP3    H140393   6.670   2.705   8.082  2.5501  1.3378 -0.7589
 6278TIP3    H240394   6.725   2.763   8.211  0.8197 -0.9864  1.1185
 6279TIP3   OH240395   3.102   2.252   7.847  0.5174  0.4204  0.0454
 6279TIP3    H140396   3.069   2.214   7.765 -1.2136 -0.1355  0.9400
 6279TIP3    H240397   3.039   2.223   7.914  1.7280  1.0823  1.5340
 6280TIP3   OH240398   5.260   4.669   8.296  0.0451  0.0276 -0.0311
 6280TIP3    H140399   5.239   4.600   8.359 -1.4040 -1.5303 -2.0769
 6280TIP3    H240400   5.333   4.635   8.246 -0.1677  0.3056 -0.5439
 6281TIP3   OH240401   3.337   6.375   2.340  0.7392  0.0929  0.6381
 6281TIP3    H140402   3.380   6.437   2.280 -1.4964  2.0777  0.9297
 6281TIP3    H240403   3.327   6.295   2.288  0.4098  1.1953 -1.0739
 6282TIP3   OH240404   0.071   5.602   6.842 -0.2842 -1.1929  0.0181
 6282TIP3    H140405   0.103   5.674   6.788 -0.3062 -0.7753  0.5596
 6282TIP3    H240406   0.150   5.553   6.865 -0.2057 -1.0409  0.0780
 6283TIP3   OH240407   4.571   6.517   0.947  0.3021  0.1358  0.1001
 6283TIP3    H140408   4.544   6.586   1.008  0.3296 -0.3397  0.6601
 6283TIP3    H240409   4.490   6.489   0.905 -0.0439 -0.9843  1.4574
 6284TIP3   OH240410   4.173   1.941   1.386  0.6406 -0.5512  0.4095
 6284TIP3    H140411   4.206   2.031   1.385 -0.9754  0.0890 -1.8887
 6284TIP3    H240412   4.145   1.925   1.296 -1.9094 -2.2879  1.4092
 6285TIP3   OH240413   4.373   2.780   7.633 -0.2264  0.1288 -0.3071
 6285TIP3    H140414   4.351   2.860   7.585 -1.7036  0.2045  0.4426
 6285TIP3    H240415   4.290   2.749   7.668  0.5195 -1.0024  0.5444
 6286TIP3   OH240416   6.074   1.969   6.729  0.1610  0.1105 -0.0929
 6286TIP3    H140417   6.099   2.036   6.665  0.9410 -0.3181 -0.2484
 6286TIP3    H240418   5.991   1.934   6.696 -0.5212  1.3266  0.2516
 6287TIP3   OH240419   1.695   2.992   6.651  0.4602 -0.3563 -0.5657
 6287TIP3    H140420   1.748   2.914   6.635  0.5103 -0.6502  0.9129
 6287TIP3    H240421   1.760   3.060   6.671  0.4118  0.0637 -1.7627
 6288TIP3   OH240422   5.440   0.654   0.098  0.1418 -0.0736  0.7293
 6288TIP3    H140423   5.452   0.620   0.187 -1.8647  1.2694  1.5823
 6288TIP3    H240424   5.415   0.578   0.047  0.0598 -0.6450  1.5966
 6289TIP3   OH240425   3.303   6.134   2.228 -0.2182  0.0970 -0.5448
 6289TIP3    H140426   3.306   6.043   2.198  0.1035 -0.6139  1.4805
 6289TIP3    H240427   3.219   6.141   2.273  0.3702  0.3685  0.5395
 6290TIP3   OH240428   3.617   5.242   1.810 -0.3175  0.5258 -0.3260
 6290TIP3    H140429   3.601   5.306   1.879  1.0533  2.1048 -1.4091
 6290TIP3    H240430   3.530   5.219   1.778 -0.9174  0.4787  1.2465
 6291TIP3   OH240431   0.536   3.256   8.318  0.6150 -0.1846 -0.4705
 6291TIP3    H140432   0.488   3.200   8.257  1.2728 -0.2702 -0.9185
 6291TIP3    H240433   0.472   3.322   8.346  0.0213 -0.7633 -0.4430
 6292TIP3   OH240434   0.661   2.549   2.630  0.3769  0.0064  0.3956
 6292TIP3    H140435   0.632   2.577   2.544 -1.7177 -2.3207  0.2258
 6292TIP3    H240436   0.639   2.622   2.688 -0.6073  0.5687 -0.6551
 6293TIP3   OH240437   5.079   3.692   0.257 -0.0317 -0.5612  0.0006
 6293TIP3    H140438   5.004   3.742   0.289 -2.1309 -3.6124  0.1990
 6293TIP3    H240439   5.042   3.628   0.197  2.7953 -0.5711 -1.9438
 6294TIP3   OH240440   0.789   2.985   0.685  0.5634 -0.7625  0.2074
 6294TIP3    H140441   0.809   2.983   0.591 -0.0474 -0.5344  0.0658
 6294TIP3    H240442   0.706   3.032   0.690  1.2384  0.4009  0.9777
 6295TIP3   OH240443   0.937   0.057   0.562  0.4901 -0.0971  0.6794
 6295TIP3    H140444   0.926   0.138   0.612  0.3108 -1.1704  2.4647
 6295TIP3    H240445   0.848   0.023   0.552  0.5946 -0.2443  0.2213
 6296TIP3   OH240446   1.872   2.779   6.904  0.0713  0.1682 -0.3287
 6296TIP3    H140447   1.908   2.851   6.853 -0.0992  1.9547  1.9262
 6296TIP3    H240448   1.896   2.799   6.994 -0.6673 -2.2159  0.4703
 6297TIP3   OH240449   4.022   2.999   0.599 -0.1812 -0.0709 -0.7831
 6297TIP3    H140450   4.092   2.976   0.538  0.8854  0.3505  0.2580
 6297TIP3    H240451   4.053   3.076   0.645 -0.0134 -1.5445  1.7648
 6298TIP3   OH240452   2.641   3.087   1.795  0.5873  0.2139  0.3934
 6298TIP3    H140453   2.611   3.153   1.857 -0.5664 -0.0886  0.1899
 6298TIP3    H240454   2.570   3.022   1.793  0.1327  0.7016 -1.9637
 6299TIP3   OH240455   0.894   4.262   0.634 -0.1479  0.5830 -0.5566
 6299TIP3    H140456   0.953   4.283   0.706 -0.7005  0.1154  0.0498
 6299TIP3    H240457   0.917   4.323   0.565 -0.1047  1.5457  0.2863
 6300TIP3   OH240458   1.301   5.407   0.631 -0.0171  0.3464  0.2379
 6300TIP3    H140459   1.390   5.412   0.594  0.3981 -2.2927  0.6810
 6300TIP3    H240460   1.245   5.394   0.555  0.1723  0.3790  0.0901
 6301TIP3   OH240461   2.335   1.967   7.475  0.2533  0.2114 -0.3238
 6301TIP3    H140462   2.339   2.057   7.441 -1.8443  0.6200  0.3582
 6301TIP3    H240463   2.419   1.955   7.521 -0.9126  3.4211  3.2271
 6302TIP3   OH240464   1.635   1.532   0.327 -0.2565  0.6442  0.3353
 6302TIP3    H140465   1.604   1.604   0.270  0.3751 -0.0733 -0.9648
 6302TIP3    H240466   1.582   1.541   0.406  0.2009  2.9016  0.4738
 6303TIP3   OH240467   0.735   4.683   0.917  0.1185 -0.3332  0.0857
 6303TIP3    H140468   0.775   4.752   0.969  0.1855 -0.5587  0.3354
 6303TIP3    H240469   0.726   4.721   0.829  1.9859 -0.6952 -0.2962
 6304TIP3   OH240470   0.880   2.258   7.965  0.0107  0.0103  0.6803
 6304TIP3    H140471   0.851   2.197   7.898 -2.3446  2.6754 -0.9839
 6304TIP3    H240472   0.944   2.314   7.921 -1.0799  1.3827  0.7421
 6305TIP3   OH240473   5.060   5.863   0.012  0.0491  0.2984 -0.6806
 6305TIP3    H140474   5.005   5.845  -0.065 -1.0201 -2.1185  0.5674
 6305TIP3    H240475   5.142   5.818  -0.006  0.3603  0.9726 -1.0071
 6306TIP3   OH240476   1.833   4.028   2.502  0.1976 -0.2969 -0.1855
 6306TIP3    H140477   1.901   3.994   2.444 -0.5724 -1.0383 -0.6718
 6306TIP3    H240478   1.818   3.957   2.565 -0.6762 -0.4667 -0.5667
 6307TIP3   OH240479   0.938   4.933   2.227 -0.1660  0.2813 -0.0791
 6307TIP3    H140480   0.880   4.860   2.202  2.3553 -2.7418  2.0268
 6307TIP3    H240481   0.892   4.976   2.299 -1.0978 -0.1400 -0.4043
 6308TIP3   OH240482   4.880   5.389   1.094 -0.1681  0.6131  0.1820
 6308TIP3    H140483   4.874   5.326   1.022  0.4574  1.2563 -0.4470
 6308TIP3    H240484   4.831   5.348   1.165 -2.1892  0.6923 -1.1061
 6309TIP3   OH240485   4.282   1.762   2.114 -0.5025 -0.3725 -0.1316
 6309TIP3    H140486   4.359   1.705   2.118 -1.5217 -1.7486  1.1608
 6309TIP3    H240487   4.231   1.738   2.191 -2.4384  0.1725 -1.1789
 6310TIP3   OH240488   4.684   0.700   1.476 -0.5464 -0.4257 -0.2221
 6310TIP3    H140489   4.679   0.788   1.513 -0.1935  0.2367 -1.6643
 6310TIP3    H240490   4.596   0.664   1.487 -0.6275 -0.0007  0.6053
 6311TIP3   OH240491   4.653   4.589   1.762  0.0047 -0.4213 -0.0452
 6311TIP3    H140492   4.692   4.660   1.711  0.4943  0.2374  1.1988
 6311TIP3    H240493   4.723   4.524   1.770 -0.0046 -0.4298 -0.0316
 6312TIP3   OH240494   4.682   1.783   2.276 -0.6572  0.0507  0.1809
 6312TIP3    H140495   4.717   1.847   2.338  0.6186 -0.6273  0.2067
 6312TIP3    H240496   4.682   1.700   2.325 -1.9179 -0.0610  0.0263
 6313TIP3   OH240497   2.593   0.658   0.035  0.0545 -0.5543  0.0918
 6313TIP3    H140498   2.538   0.585   0.007 -0.4317  0.2579 -1.1137
 6313TIP3    H240499   2.680   0.636   0.002 -0.3285 -0.0453 -1.3246
 6314TIP3   OH240500   2.767   4.557   2.004 -0.4580  0.0298  0.0330
 6314TIP3    H140501   2.738   4.605   2.081  1.4469  2.3618 -0.5953
 6314TIP3    H240502   2.780   4.624   1.937  1.5558 -1.4354 -1.1671
 6315TIP3   OH240503   5.945   5.842   0.766 -0.3126  0.4346  0.1508
 6315TIP3    H140504   5.952   5.753   0.800 -1.5677  1.3004  2.9908
 6315TIP3    H240505   6.003   5.894   0.822 -2.5336  1.9677  1.1730
 6316TIP3   OH240506   4.432   3.824   0.645  0.7667  0.3207 -0.4213
 6316TIP3    H140507   4.506   3.856   0.696  0.0186  0.7865  0.4006
 6316TIP3    H240508   4.471   3.768   0.578  1.7882 -0.3349  0.6758
 6317TIP3   OH240509   4.033   4.655   0.606 -0.3528  0.3567  0.0404
 6317TIP3    H140510   4.012   4.573   0.561  0.6213 -0.9300  1.7986
 6317TIP3    H240511   4.113   4.686   0.565 -0.8821  0.6155 -0.8248
 6318TIP3   OH240512   0.232   1.464   1.328  0.1382  0.0986 -0.1475
 6318TIP3    H140513   0.215   1.374   1.357  1.9517 -0.3679 -0.3916
 6318TIP3    H240514   0.259   1.510   1.407 -2.5029  0.9736  0.3426
 6319TIP3   OH240515   6.008   2.457   2.504  0.1961  0.0409 -0.3719
 6319TIP3    H140516   6.082   2.430   2.450 -0.0162 -0.3622 -0.4644
 6319TIP3    H240517   5.975   2.535   2.460  1.7788  1.4247  0.7719
 6320TIP3   OH240518   6.718   0.202   6.595 -0.3547 -0.2945  0.1882
 6320TIP3    H140519   6.748   0.226   6.507 -1.7760  0.3040 -0.1660
 6320TIP3    H240520   6.710   0.106   6.592 -0.4200 -0.2769 -0.3499
 6321TIP3   OH240521   6.070   4.921   7.809  0.1535 -0.0099 -0.1723
 6321TIP3    H140522   6.013   4.984   7.765  0.3481 -1.0359 -1.9829
 6321TIP3    H240523   6.086   4.960   7.895 -2.1234  0.9603 -0.1244
 6322TIP3   OH240524   2.703   1.423   0.585  0.0958 -0.4265  0.4205
 6322TIP3    H140525   2.748   1.503   0.610  0.9128 -1.0560  0.9942
 6322TIP3    H240526   2.665   1.443   0.499 -2.0268  1.4763  1.6985
 6323TIP3   OH240527   0.772   4.578   1.393  0.6385  0.2903  0.0689
 6323TIP3    H140528   0.822   4.519   1.450  1.5009  0.5121 -0.4454
 6323TIP3    H240529   0.799   4.555   1.304  0.3968  0.9259 -0.1775
 6324TIP3   OH240530   3.415   3.818   1.086 -0.0337  0.0521 -0.4939
 6324TIP3    H140531   3.323   3.826   1.060  0.0648 -0.2766 -0.9682
 6324TIP3    H240532   3.449   3.907   1.085 -0.5223  0.2544  0.3581
 6325TIP3   OH240533   5.132   1.521   0.943 -0.8572  0.0482  0.3366
 6325TIP3    H140534   5.169   1.538   1.030  0.2744  1.7925 -0.4359
 6325TIP3    H240535   5.052   1.573   0.941  0.6160  2.3998 -0.6478
 6326TIP3   OH240536   3.333   3.339   2.403 -0.2363 -0.0038  0.3229
 6326TIP3    H140537   3.350   3.278   2.475  1.1421 -1.5875 -1.2402
 6326TIP3    H240538   3.419   3.377   2.384 -0.6716  0.7453 -0.2100
 6327TIP3   OH240539   6.393   3.352   2.756  0.1125  0.6727  0.1020
 6327TIP3    H140540   6.389   3.327   2.664  0.4966  0.4433  0.1434
 6327TIP3    H240541   6.418   3.444   2.755 -0.6199  0.8744 -0.0383
 6328TIP3   OH240542   0.547   6.405   1.815  0.0874 -0.1581 -0.8254
 6328TIP3    H140543   0.630   6.372   1.849 -0.1926 -1.1002 -1.0265
 6328TIP3    H240544   0.516   6.467   1.881  0.0829 -1.1327  0.1025
 6329TIP3   OH240545   4.811   2.129   2.022 -0.2990  0.3966  0.2354
 6329TIP3    H140546   4.759   2.050   2.038 -2.3416  1.0113 -2.5474
 6329TIP3    H240547   4.749   2.201   2.034  1.0943  1.5034  1.0630
 6330TIP3   OH240548   0.212   0.178   0.369 -0.1537 -0.4745  0.5224
 6330TIP3    H140549   0.256   0.187   0.284 -2.9154  4.0343 -0.8132
 6330TIP3    H240550   0.138   0.121   0.351  0.8360 -1.8569  0.7329
 6331TIP3   OH240551   1.557   5.652   1.111  0.2163 -0.2577 -0.2086
 6331TIP3    H140552   1.513   5.721   1.062 -0.7489 -0.6319  0.1061
 6331TIP3    H240553   1.514   5.571   1.083  0.3286 -0.5785  0.5084
 6332TIP3   OH240554   1.413   2.281   8.286  0.5213  0.3921  0.0420
 6332TIP3    H140555   1.318   2.281   8.271  0.5206  1.9429 -0.0872
 6332TIP3    H240556   1.446   2.214   8.226 -0.6468 -1.4659  1.3871
 6333TIP3   OH240557   6.479   4.568   7.229 -0.6518  0.2900  0.1395
 6333TIP3    H140558   6.550   4.595   7.170 -0.8475  0.5401  0.0132
 6333TIP3    H240559   6.482   4.473   7.228  0.6009  0.2920  1.2464
 6334TIP3   OH240560   6.531   1.245   7.372 -0.1509 -0.5670  0.3019
 6334TIP3    H140561   6.464   1.313   7.364 -0.8822 -1.3699 -0.5487
 6334TIP3    H240562   6.540   1.231   7.467 -0.2852  0.4058  0.4718
 6335TIP3   OH240563   3.292   1.765   2.202  0.0058 -0.2114 -0.8678
 6335TIP3    H140564   3.298   1.799   2.113 -3.1596  0.9433 -0.7664
 6335TIP3    H240565   3.255   1.678   2.193 -1.8637  0.5138 -0.7009
 6336TIP3   OH240566   5.284   5.719   8.441 -0.3019  0.2609 -0.1551
 6336TIP3    H140567   5.366   5.766   8.425 -1.0841  1.6164 -0.2853
 6336TIP3    H240568   5.245   5.708   8.354  0.7916 -2.4639 -0.4057
 6337TIP3   OH240569   5.361   0.056   1.510 -0.4851 -0.4628  0.3877
 6337TIP3    H140570   5.391   0.118   1.577 -1.4199 -0.7008  1.0408
 6337TIP3    H240571   5.340  -0.024   1.558  1.0872 -1.4602 -0.4971
 6338TIP3   OH240572   6.604   6.808   7.985 -0.0892  0.2442  0.2960
 6338TIP3    H140573   6.668   6.776   8.049 -0.5029  0.1263  0.6560
 6338TIP3    H240574   6.522   6.816   8.034 -0.3317  0.4858 -0.1363
 6339TIP3   OH240575   2.849   0.443   7.274  0.0347 -0.2192 -0.3640
 6339TIP3    H140576   2.818   0.371   7.219 -0.7104 -1.3912  1.5018
 6339TIP3    H240577   2.800   0.520   7.243 -0.3734 -0.8497 -1.3174
 6340TIP3   OH240578   5.668   4.855   0.748 -0.0155  0.7681  0.5500
 6340TIP3    H140579   5.685   4.930   0.806  0.4439  0.4795  0.8005
 6340TIP3    H240580   5.753   4.839   0.706 -0.4563  1.2765 -0.5807
 6341TIP3   OH240581   2.220   0.289   7.572 -0.1084  0.1316  0.4269
 6341TIP3    H140582   2.255   0.376   7.593  1.2937 -0.1749 -0.4874
 6341TIP3    H240583   2.286   0.228   7.607 -0.8751 -0.5597  0.6959
 6342TIP3   OH240584   6.474   5.482   1.241 -0.2110  0.2472 -0.1010
 6342TIP3    H140585   6.457   5.521   1.326  2.8737  0.5221  0.4966
 6342TIP3    H240586   6.490   5.557   1.183 -0.4987  0.0018 -0.5057
 6343TIP3   OH240587   5.088   3.811   8.396 -0.0752  0.4169 -0.5879
 6343TIP3    H140588   5.144   3.770   8.329  0.7646 -1.8570  1.3687
 6343TIP3    H240589   5.023   3.745   8.417  0.6496  0.4091  1.9438
 6344TIP3   OH240590   4.060   1.063   7.298  0.2393  0.4019 -0.3112
 6344TIP3    H140591   4.104   0.978   7.306  1.8698  1.3195  1.1638
 6344TIP3    H240592   4.025   1.080   7.386  0.2300  1.3870 -0.4947
 6345TIP3   OH240593   4.313   2.780   8.278  0.2205 -0.1699  0.3804
 6345TIP3    H140594   4.240   2.842   8.285 -0.6292 -0.9299 -1.1650
 6345TIP3    H240595   4.282   2.702   8.323 -0.3370 -0.8177 -1.0695
 6346TIP3   OH240596   1.171   6.478   1.713 -0.3455  0.8771 -0.3419
 6346TIP3    H140597   1.190   6.494   1.621  1.2374 -0.8499 -0.3909
 6346TIP3    H240598   1.096   6.419   1.713 -0.6892  1.3129 -0.4938
 6347TIP3   OH240599   3.796   2.925   7.282 -0.3042 -0.0957  0.4149
 6347TIP3    H140600   3.871   2.879   7.318  0.2995  1.1204  0.7899
 6347TIP3    H240601   3.814   3.018   7.299 -0.6165  0.4577 -1.8855
 6348TIP3   OH240602   2.307   5.859   6.898  0.1305 -0.1901 -0.3659
 6348TIP3    H140603   2.339   5.792   6.957 -0.1647 -0.5443 -0.5961
 6348TIP3    H240604   2.382   5.881   6.842  0.1771 -0.4706 -0.4151
 6349TIP3   OH240605   3.852   2.477   0.240 -0.1174 -0.3646 -0.2940
 6349TIP3    H140606   3.789   2.451   0.173  3.0475 -2.7694 -2.6634
 6349TIP3    H240607   3.895   2.554   0.202 -0.9006  0.6776  0.8648
 6350TIP3   OH240608   2.492   1.097   1.081  0.6028 -0.5980 -0.5176
 6350TIP3    H140609   2.542   1.162   1.130 -1.2772 -0.2810  1.0698
 6350TIP3    H240610   2.559   1.039   1.044  2.2030  0.8067  0.0503
 6351TIP3   OH240611   0.160   2.602   0.754 -0.3509  0.1393 -0.9819
 6351TIP3    H140612   0.151   2.525   0.698  0.2326  0.5742 -1.6914
 6351TIP3    H240613   0.237   2.584   0.807 -2.2870 -1.3972  1.5629
 6352TIP3   OH240614   2.385   0.494   7.587 -0.5040  0.4904 -0.2441
 6352TIP3    H140615   2.363   0.543   7.667  1.3718 -0.8954  1.2288
 6352TIP3    H240616   2.472   0.528   7.562 -0.8690  0.5719 -1.4497
 6353TIP3   OH240617   5.450   0.112   7.736 -0.5605 -0.2807  0.0480
 6353TIP3    H140618   5.540   0.096   7.764 -0.5070 -0.3741 -0.1693
 6353TIP3    H240619   5.430   0.037   7.679 -0.6159 -0.0286 -0.2658
 6354TIP3   OH240620   2.059   4.350   2.447 -0.4477  0.1750  0.3041
 6354TIP3    H140621   2.125   4.330   2.381 -0.1717 -1.8755  1.1368
 6354TIP3    H240622   2.108   4.384   2.521 -0.5265  0.3590  0.2735
 6355TIP3   OH240623   5.905   0.682   6.411 -0.1686 -0.1435 -0.1500
 6355TIP3    H140624   5.846   0.758   6.415  1.1831  1.0178 -1.0150
 6355TIP3    H240625   5.847   0.606   6.414 -1.9705  0.9140 -3.2651
 6356TIP3   OH240626   4.607   1.505   6.708  0.3524 -0.0828 -0.1792
 6356TIP3    H140627   4.618   1.587   6.755  0.3568  0.2571 -0.7621
 6356TIP3    H240628   4.539   1.523   6.643  0.4798 -0.4850 -0.4295
 6357TIP3   OH240629   5.921   2.810   0.309  0.3540  0.0017  0.2729
 6357TIP3    H140630   5.936   2.719   0.283  2.5819 -0.4981  2.8464
 6357TIP3    H240631   5.989   2.859   0.264  0.2770  0.1061  0.2709
 6358TIP3   OH240632   3.422   6.173   2.546  0.3655 -0.3085 -0.1682
 6358TIP3    H140633   3.508   6.189   2.583 -0.1227  1.4240  0.2984
 6358TIP3    H240634   3.406   6.246   2.487 -1.0605 -0.2083  0.2891
 6359TIP3   OH240635   5.735   4.740   8.289  0.1313 -0.1391 -0.3507
 6359TIP3    H140636   5.806   4.689   8.327 -0.1694 -0.3905 -0.1201
 6359TIP3    H240637   5.670   4.747   8.359  0.2843  0.7936 -0.2906
 6360TIP3   OH240638   4.746   2.963   0.106  0.0278  0.2504 -0.1208
 6360TIP3    H140639   4.728   3.046   0.061  1.2455  1.7669  1.9990
 6360TIP3    H240640   4.681   2.902   0.070 -1.1087  2.1718 -1.5595
 6361TIP3   OH240641   5.043   0.568   6.772 -0.0277 -0.1345  0.4705
 6361TIP3    H140642   5.039   0.624   6.694 -0.9748 -1.4607 -0.4754
 6361TIP3    H240643   5.040   0.479   6.738 -1.7910 -0.7624  2.0799
 6362TIP3   OH240644   6.675   5.829   1.886  0.1205 -0.1456 -0.0373
 6362TIP3    H140645   6.597   5.845   1.940 -0.7769  1.2904 -1.6926
 6362TIP3    H240646   6.662   5.740   1.852 -1.4912  0.5455 -1.3404
 6363TIP3   OH240647   1.799   5.735   0.319  0.3821  0.0761  0.4028
 6363TIP3    H140648   1.823   5.752   0.410 -0.0903 -1.4955  0.8666
 6363TIP3    H240649   1.725   5.794   0.303  0.1626  0.0414  1.2033
 6364TIP3   OH240650   6.399   0.714   6.386  0.2272 -0.5396  0.4511
 6364TIP3    H140651   6.332   0.652   6.357 -0.0392  0.4206 -1.0947
 6364TIP3    H240652   6.455   0.663   6.445 -1.4369 -1.5537  1.2364
 6365TIP3   OH240653   4.505   3.589   6.983 -0.0862  0.3319 -0.2102
 6365TIP3    H140654   4.576   3.551   6.931 -0.0990  0.1833 -0.1207
 6365TIP3    H240655   4.549   3.643   7.048 -0.0444  0.0320  0.0103
 6366TIP3   OH240656   0.089   6.901   0.716  0.0991 -0.0625 -0.5085
 6366TIP3    H140657   0.155   6.952   0.669  0.7000 -0.2810  0.0764
 6366TIP3    H240658   0.012   6.957   0.717  1.1559  1.4899  1.3477
 6367TIP3   OH240659   2.818   1.164   1.629  0.3226 -0.6557  0.2946
 6367TIP3    H140660   2.751   1.228   1.606  0.6289 -0.9357 -1.5397
 6367TIP3    H240661   2.772   1.099   1.683 -0.7192 -0.4854 -0.3637
 6368TIP3   OH240662   3.295   6.687   1.637  0.3860 -0.4510  0.1057
 6368TIP3    H140663   3.371   6.745   1.633  0.4852 -0.5297  0.7332
 6368TIP3    H240664   3.302   6.645   1.723  0.3091 -1.3728 -0.3284
 6369TIP3   OH240665   6.875   1.882   8.314  0.3686  0.3679 -0.4476
 6369TIP3    H140666   6.910   1.815   8.373 -0.3051  1.9355  1.8744
 6369TIP3    H240667   6.953   1.925   8.279  0.7980  0.3095  0.4088
 6370TIP3   OH240668   0.947   1.068   8.151  0.4783 -0.2737 -0.1096
 6370TIP3    H140669   1.042   1.076   8.160  0.5571  0.4467 -1.3597
 6370TIP3    H240670   0.930   0.975   8.160  1.6279 -0.7772 -2.4671
 6371TIP3   OH240671   0.746   1.508   7.886 -0.5376  0.0124  0.2327
 6371TIP3    H140672   0.788   1.456   7.955 -1.0011 -0.2982  0.2819
 6371TIP3    H240673   0.654   1.484   7.891 -0.3731 -1.1329 -1.4795
 6372TIP3   OH240674   6.654   6.653   7.270  0.5692  0.0800  0.0512
 6372TIP3    H140675   6.562   6.628   7.281  0.8437 -0.9135  0.2386
 6372TIP3    H240676   6.686   6.593   7.202  1.6077 -1.0347  1.4632
 6373TIP3   OH240677   5.443   3.091   7.716 -0.3612 -0.3812  0.2344
 6373TIP3    H140678   5.357   3.061   7.743  0.2639 -0.2232  2.6234
 6373TIP3    H240679   5.467   3.157   7.781  2.3801 -1.8986  0.9408
 6374TIP3   OH240680   4.742   4.286   1.885 -0.0765 -0.3131  0.3760
 6374TIP3    H140681   4.697   4.220   1.833 -0.9463  0.8102 -0.3631
 6374TIP3    H240682   4.674   4.319   1.945 -0.1453  1.0498 -0.4056
 6375TIP3   OH240683   6.866   1.986   6.130  0.0877 -0.1691 -0.0470
 6375TIP3    H140684   6.883   2.044   6.056 -1.6124  0.3252 -0.0901
 6375TIP3    H240685   6.882   2.040   6.207 -0.4002  0.0274 -0.0801
 6376TIP3   OH240686   0.439   6.076   0.708 -0.5813 -0.0713  0.0628
 6376TIP3    H140687   0.362   6.021   0.722 -0.1370 -0.5247  0.8189
 6376TIP3    H240688   0.497   6.055   0.782  0.4351 -0.0380 -0.7117
 6377TIP3   OH240689   1.093   3.516   7.440  0.4161 -0.0772 -0.2652
 6377TIP3    H140690   1.081   3.421   7.441  3.0358 -0.4817  0.0113
 6377TIP3    H240691   1.068   3.544   7.527  3.5595 -1.2133  1.1550
 6378TIP3   OH240692   3.043   1.968   8.227 -0.0857  0.0035 -0.1718
 6378TIP3    H140693   3.036   2.015   8.310 -0.9748  0.9483 -0.7608
 6378TIP3    H240694   2.982   1.894   8.235 -1.5907  1.1492 -0.6512
 6379TIP3   OH240695   5.857   1.437   2.241 -0.9572 -0.1462  0.6982
 6379TIP3    H140696   5.810   1.363   2.279 -1.7063  0.2515  0.5686
 6379TIP3    H240697   5.810   1.457   2.160  0.6283 -0.9900 -0.4918
 6380TIP3   OH240698   0.775   4.101   1.221 -0.6316 -0.5879 -0.2319
 6380TIP3    H140699   0.790   4.136   1.133  0.0047 -0.2850 -0.0064
 6380TIP3    H240700   0.765   4.179   1.276 -1.2989 -0.7757 -0.0727
 6381TIP3   OH240701   0.742   2.209   1.405 -0.6261 -0.5293 -0.3265
 6381TIP3    H140702   0.764   2.270   1.476 -0.1104  2.0741 -2.5406
 6381TIP3    H240703   0.806   2.139   1.413  1.3231  1.2009  0.0810
 6382TIP3   OH240704   4.725   2.981   6.455 -0.0840 -0.1577 -0.2073
 6382TIP3    H140705   4.651   3.041   6.451  0.2711  0.2585 -0.6324
 6382TIP3    H240706   4.799   3.036   6.482 -0.3534 -0.9725  2.4090
 6383TIP3   OH240707   6.038   6.432   0.734 -0.1675  0.1173 -0.3866
 6383TIP3    H140708   6.037   6.408   0.827 -0.4094 -1.2649 -0.7281
 6383TIP3    H240709   6.028   6.527   0.734  1.1351  0.2985  1.0476
 6384TIP3   OH240710   5.589   0.994   0.932  0.4314  0.4715 -0.1286
 6384TIP3    H140711   5.513   1.022   0.984  0.5565 -0.8723  0.8117
 6384TIP3    H240712   5.551   0.953   0.855  0.0742 -2.0121  1.2623
 6385TIP3   OH240713   5.570   1.881   6.971 -0.1529  0.2219  0.1246
 6385TIP3    H140714   5.579   1.931   6.890 -1.2501  0.7253  0.3023
 6385TIP3    H240715   5.656   1.839   6.982  0.4490  1.2096 -0.5815
 6386TIP3   OH240716   0.116   3.696   0.959  0.1066  0.3261 -0.6639
 6386TIP3    H140717   0.138   3.756   1.030 -0.6563  2.4287 -2.0981
 6386TIP3    H240718   0.186   3.709   0.894  0.4786 -1.1341 -0.6113
 6387TIP3   OH240719   0.849   3.847   7.108  0.5456 -0.0683 -0.4883
 6387TIP3    H140720   0.827   3.754   7.101 -0.0181 -0.0425  0.6601
 6387TIP3    H240721   0.767   3.893   7.086  0.4321  0.1140  0.2878
 6388TIP3   OH240722   0.893   0.416   8.351 -0.1498  0.0641  0.7517
 6388TIP3    H140723   0.983   0.416   8.384 -0.5889 -0.5957  2.0295
 6388TIP3    H240724   0.849   0.483   8.402 -0.1034  1.3275 -0.7891
 6389TIP3   OH240725   3.872   5.511   2.776  0.3918  0.7422  0.1752
 6389TIP3    H140726   3.959   5.549   2.771 -0.4198  2.6692 -0.2758
 6389TIP3    H240727   3.844   5.504   2.684  0.8599 -1.9845  0.1318
 6390TIP3   OH240728   5.503   3.765   8.360 -0.0372 -0.0132 -0.4209
 6390TIP3    H140729   5.492   3.702   8.288 -1.5096 -1.6364  1.1364
 6390TIP3    H240730   5.595   3.755   8.387 -0.0349 -0.8997 -0.7305
 6391TIP3   OH240731   1.600   5.067   0.066  0.3422  0.1727 -0.0704
 6391TIP3    H140732   1.672   5.126   0.044  1.1803 -0.1812  1.5460
 6391TIP3    H240733   1.642   4.994   0.112 -0.9792 -0.3574  0.3478
 6392TIP3   OH240734   3.306   3.054   0.522  0.1313  0.6416  0.3570
 6392TIP3    H140735   3.271   2.976   0.479 -2.1543  1.7857 -0.0366
 6392TIP3    H240736   3.361   3.096   0.456  0.4338 -0.0369  0.1726
 6393TIP3   OH240737   6.842   3.609   2.616 -0.6814 -0.0453 -0.0242
 6393TIP3    H140738   6.922   3.580   2.658 -2.4069 -2.0158  2.1692
 6393TIP3    H240739   6.815   3.687   2.665 -0.3041  0.4163 -0.5413
 6394TIP3   OH240740   1.571   5.634   6.712  0.2291  0.0507  0.3589
 6394TIP3    H140741   1.612   5.569   6.655 -0.2854  0.7087 -0.7963
 6394TIP3    H240742   1.524   5.692   6.652 -1.0290  0.2801  1.5062
 6395TIP3   OH240743   1.926   2.406   1.876  0.1538  0.2002  0.1106
 6395TIP3    H140744   1.936   2.385   1.969 -0.5456  1.1516  0.4272
 6395TIP3    H240745   1.919   2.502   1.874  1.5448  0.3066 -1.0685
 6396TIP3   OH240746   1.005   2.113   6.568  0.1040 -0.6629 -0.0918
 6396TIP3    H140747   1.071   2.179   6.548 -1.1933  0.0026 -2.5333
 6396TIP3    H240748   0.927   2.163   6.589 -0.7009 -1.3741 -1.2768
 6397TIP3   OH240749   5.596   3.050   8.164 -0.2585  0.1825 -0.2867
 6397TIP3    H140750   5.682   3.091   8.173 -0.7186  1.1532 -0.2375
 6397TIP3    H240751   5.615   2.956   8.163  0.6889  0.3142  1.2311
 6398TIP3   OH240752   2.556   1.912   0.632  0.1064 -0.6554  0.2560
 6398TIP3    H140753   2.608   1.971   0.687  0.1133  0.0331 -0.4804
 6398TIP3    H240754   2.555   1.829   0.680 -1.9556  0.5648  2.5456
 6399TIP3   OH240755   4.493   5.465   1.318 -0.0011  0.4167  0.2455
 6399TIP3    H140756   4.483   5.436   1.227 -0.1142 -1.1569  0.7317
 6399TIP3    H240757   4.581   5.438   1.342 -1.4366 -3.4111  1.9660
 6400TIP3   OH240758   4.717   3.243   7.491  1.2208 -0.0479  0.5318
 6400TIP3    H140759   4.797   3.296   7.489  0.9488  0.3550  0.1871
 6400TIP3    H240760   4.647   3.305   7.512  0.8207 -0.1496 -0.4188
 6401TIP3   OH240761   5.900   4.612   1.784  0.2360  0.2908  0.2193
 6401TIP3    H140762   5.824   4.624   1.728  0.7060  2.0854 -0.0923
 6401TIP3    H240763   5.895   4.683   1.848  0.5670 -0.7735  1.4899
 6402TIP3   OH240764   4.383   5.410   1.606 -0.2821 -0.6940  0.5658
 6402TIP3    H140765   4.407   5.374   1.692 -0.3403 -2.5712 -0.1464
 6402TIP3    H240766   4.373   5.333   1.550 -0.3020  0.4779 -1.1254
 6403TIP3   OH240767   3.427   0.807   0.217 -0.9427  0.0630  0.1708
 6403TIP3    H140768   3.448   0.744   0.148 -1.7795 -0.9221  0.7721
 6403TIP3    H240769   3.342   0.844   0.191 -0.5793  0.7539 -0.0452
 6404TIP3   OH240770   1.325   4.684   2.766  0.1595  0.2083  0.0262
 6404TIP3    H140771   1.242   4.689   2.718  0.0031 -1.3304  0.1071
 6404TIP3    H240772   1.302   4.648   2.851  0.9178 -0.2475  0.0448
 6405TIP3   OH240773   5.460   4.590   0.802 -0.1659 -0.2357  0.9472
 6405TIP3    H140774   5.462   4.686   0.796  0.6742 -0.1599  2.2153
 6405TIP3    H240775   5.378   4.566   0.759 -0.0832  1.0006  0.0238
 6406TIP3   OH240776   0.383   4.762   1.716  0.2745 -0.6829  0.2979
 6406TIP3    H140777   0.360   4.681   1.671 -1.2796  0.1517 -0.5183
 6406TIP3    H240778   0.363   4.831   1.652 -1.1848  0.4934  1.9201
 6407TIP3   OH240779   6.001   6.689   7.994 -0.3637 -0.3215  0.3828
 6407TIP3    H140780   6.004   6.678   8.089 -2.4554  0.5381  0.6090
 6407TIP3    H240781   6.093   6.693   7.968  0.2755 -1.7177  2.2027
 6408TIP3   OH240782   1.425   2.994   8.085 -0.0557 -0.0674 -0.1445
 6408TIP3    H140783   1.358   2.950   8.032  0.9623 -0.8180 -0.8469
 6408TIP3    H240784   1.471   2.923   8.129  0.2070  0.4521  0.4289
 6409TIP3   OH240785   2.714   3.248   1.005  0.4350 -0.0239  0.5786
 6409TIP3    H140786   2.668   3.209   1.079  0.6958  0.8784  1.2310
 6409TIP3    H240787   2.688   3.195   0.930 -1.0037 -0.0555  1.0663
 6410TIP3   OH240788   5.748   0.680   0.870  0.3490  0.8092 -0.5928
 6410TIP3    H140789   5.718   0.674   0.779  2.1129  1.6969 -1.2847
 6410TIP3    H240790   5.714   0.601   0.912 -1.5045  0.9689 -1.6990
 6411TIP3   OH240791   4.603   2.917   1.650 -0.1021 -0.2658 -0.2323
 6411TIP3    H140792   4.696   2.902   1.667  0.2893  0.4088 -1.6470
 6411TIP3    H240793   4.561   2.836   1.678  0.9347 -0.6763  0.2150
 6412TIP3   OH240794   1.347   6.185   7.883 -0.7553 -0.1780  0.3845
 6412TIP3    H140795   1.410   6.223   7.821 -1.1742  0.4312  0.3283
 6412TIP3    H240796   1.371   6.093   7.887  1.1248  0.2889  1.4941
 6413TIP3   OH240797   1.730   2.275   1.210  0.1680 -0.6199  0.3912
 6413TIP3    H140798   1.781   2.349   1.177  0.4468 -0.1928  1.7228
 6413TIP3    H240799   1.790   2.200   1.204  0.4294 -0.4211  0.5240
 6414TIP3   OH240800   2.004   2.000   0.872 -0.2424  0.0033 -0.2487
 6414TIP3    H140801   2.032   1.938   0.939 -1.6498 -1.0308 -0.5595
 6414TIP3    H240802   2.058   1.978   0.795 -0.1246 -0.2472 -0.0961
 6415TIP3   OH240803   6.652   1.937   0.562 -0.7824 -0.1047  0.2215
 6415TIP3    H140804   6.720   1.870   0.559 -1.2034 -0.5427 -2.5144
 6415TIP3    H240805   6.694   2.013   0.602  0.3997 -1.2615  1.2486
 6416TIP3   OH240806   0.287   0.621   6.769 -0.2147  0.1012  0.3463
 6416TIP3    H140807   0.377   0.653   6.768  0.3536 -1.3578  1.4273
 6416TIP3    H240808   0.235   0.697   6.741  1.1001  1.7976  2.1477
 6417TIP3   OH240809   0.576   5.640   7.627 -0.4238 -0.4018  0.4448
 6417TIP3    H140810   0.523   5.625   7.549 -0.2795  1.6392 -0.1135
 6417TIP3    H240811   0.591   5.735   7.628  1.0125 -0.5895  2.0266
 6418TIP3   OH240812   0.875   1.966   1.364  0.2721  0.5721  0.3115
 6418TIP3    H140813   0.857   1.913   1.286  1.5207 -0.6072  0.7803
 6418TIP3    H240814   0.950   2.020   1.339  1.1965 -0.3921  0.9196
 6419TIP3   OH240815   4.164   6.416   1.624  0.4127 -0.2229 -0.6371
 6419TIP3    H140816   4.220   6.472   1.569  1.1967 -1.3548 -1.0254
 6419TIP3    H240817   4.079   6.417   1.580  0.5461  0.2878 -0.8931
 6420TIP3   OH240818   4.964   4.989   1.057 -0.0133  0.2297 -0.0985
 6420TIP3    H140819   4.960   4.895   1.043 -0.4141 -0.0893  1.8470
 6420TIP3    H240820   5.057   5.010   1.057  0.2696 -0.7048  2.2447
 6421TIP3   OH240821   0.158   3.879   8.317  0.5723 -0.1387  0.2166
 6421TIP3    H140822   0.103   3.928   8.256 -0.4078  1.7030  2.4307
 6421TIP3    H240823   0.120   3.791   8.318  0.3130 -0.0812 -1.3850
 6422TIP3   OH240824   0.886   5.171   1.766  0.4004 -0.4666  0.5874
 6422TIP3    H140825   0.929   5.244   1.723  1.0241 -0.4517  1.2151
 6422TIP3    H240826   0.808   5.209   1.807 -0.5987 -0.6047 -1.0733
 6423TIP3   OH240827   6.868   5.454   0.695  0.7603 -0.4700  0.2684
 6423TIP3    H140828   6.861   5.442   0.789 -0.0916 -0.5833  0.1942
 6423TIP3    H240829   6.922   5.533   0.685 -1.9438  1.6123  0.9272
 6424TIP3   OH240830   0.106   6.730   2.052 -0.0427 -0.0149 -0.1267
 6424TIP3    H140831   0.139   6.651   2.010  2.0990  0.6259  0.2446
 6424TIP3    H240832   0.167   6.746   2.125 -0.3896  1.9916 -0.2116
 6425TIP3   OH240833   5.140   6.071   1.072  0.0250 -0.0020  0.4279
 6425TIP3    H140834   5.066   6.024   1.033  0.5679 -0.1690 -0.4152
 6425TIP3    H240835   5.108   6.097   1.159 -0.3562 -1.7440  0.8535
 6426TIP3   OH240836   2.831   2.944   8.153  0.0948  0.4707  0.0573
 6426TIP3    H140837   2.835   2.885   8.228 -0.2192  0.9217  0.4406
 6426TIP3    H240838   2.922   2.956   8.126  0.2101  0.3162  0.3766
 6427TIP3   OH240839   5.817   3.611   0.691 -0.0853  0.1361 -0.7731
 6427TIP3    H140840   5.726   3.599   0.664 -0.6765  0.1922  1.0313
 6427TIP3    H240841   5.825   3.706   0.704 -0.1266  0.0159  0.1828
 6428TIP3   OH240842   0.771   2.994   2.048  0.0121  0.1285  0.0643
 6428TIP3    H140843   0.855   3.039   2.058  1.2768 -2.2739  0.9180
 6428TIP3    H240844   0.760   2.945   2.129 -1.1196 -1.3347 -0.9324
 6429TIP3   OH240845   3.421   1.504   0.316  0.0389 -0.1131  0.0812
 6429TIP3    H140846   3.386   1.464   0.395  0.7146 -0.3776  0.2553
 6429TIP3    H240847   3.508   1.534   0.341  0.5957 -0.9421 -0.7767
 6430TIP3   OH240848   0.367   6.431   8.168 -0.1661 -0.0516 -0.1998
 6430TIP3    H140849   0.394   6.412   8.078 -1.1709 -0.8794 -0.3361
 6430TIP3    H240850   0.449   6.445   8.214  0.4539 -1.2404 -0.8891
 6431TIP3   OH240851   2.314   0.883   0.157  0.5364  0.5956 -0.9965
 6431TIP3    H140852   2.252   0.909   0.225  0.0278 -1.0995 -0.7719
 6431TIP3    H240853   2.284   0.929   0.078 -0.2654  0.7537 -0.6091
 6432TIP3   OH240854   6.840   5.772   0.758  0.1785 -0.1713  0.8732
 6432TIP3    H140855   6.878   5.777   0.671  1.0094 -0.0378  1.2311
 6432TIP3    H240856   6.812   5.681   0.768 -0.3762 -0.0683  0.2883
 6433TIP3   OH240857   1.810   0.786   0.717 -0.5405  0.9514 -0.0211
 6433TIP3    H140858   1.842   0.711   0.667  0.1315  1.8812 -1.0593
 6433TIP3    H240859   1.716   0.772   0.724 -0.4116 -0.0300 -0.1009
 6434TIP3   OH240860   3.585   4.608   1.157  0.6452 -0.3799  0.0343
 6434TIP3    H140861   3.519   4.668   1.191  1.3389  0.2819  0.2542
 6434TIP3    H240862   3.553   4.521   1.181  0.2242 -0.0250  0.8117
 6435TIP3   OH240863   1.128   1.238   0.383 -0.3532 -0.3640  0.0527
 6435TIP3    H140864   1.194   1.285   0.433 -0.1455 -0.6726  0.0682
 6435TIP3    H240865   1.157   1.146   0.383 -1.5951 -0.7894  1.4076
 6436TIP3   OH240866   5.916   3.082   7.413  0.2021 -0.1666 -0.1982
 6436TIP3    H140867   5.880   3.005   7.369 -1.4383  0.3807  0.1160
 6436TIP3    H240868   5.936   3.143   7.342  0.7366 -0.5599 -0.3908
 6437TIP3   OH240869   2.486   2.868   8.478 -0.6213 -0.5720  0.5887
 6437TIP3    H140870   2.465   2.826   8.562 -0.6843  0.8350  1.3124
 6437TIP3    H240871   2.549   2.809   8.436 -1.1897 -1.6932  1.2566
 6438TIP3   OH240872   6.095   6.532   2.684  0.1219  0.2974 -0.3182
 6438TIP3    H140873   6.083   6.489   2.599 -1.4423  0.3105 -0.1467
 6438TIP3    H240874   6.094   6.460   2.747  0.9205  0.3197 -0.2727
 6439TIP3   OH240875   3.749   4.074   1.752 -0.0928  0.1333  0.4611
 6439TIP3    H140876   3.776   4.159   1.718 -0.1231  0.8848  2.2324
 6439TIP3    H240877   3.798   4.063   1.833 -0.4426 -1.3382  0.5176
 6440TIP3   OH240878   4.285   6.735   2.380 -0.1225 -0.2487 -0.0795
 6440TIP3    H140879   4.221   6.790   2.335 -0.7193 -0.6034  0.3303
 6440TIP3    H240880   4.368   6.755   2.336 -0.4719  0.3673 -0.4768
 6441TIP3   OH240881   3.492   0.249   0.373  0.0822  0.2395 -0.2460
 6441TIP3    H140882   3.562   0.279   0.316  1.6143 -0.7930  1.0277
 6441TIP3    H240883   3.431   0.323   0.377  1.5928  1.5527 -0.5588
 6442TIP3   OH240884   5.351   3.626   7.112  0.0095  0.1041 -0.3425
 6442TIP3    H140885   5.370   3.712   7.075  0.0852 -0.4593 -1.6540
 6442TIP3    H240886   5.258   3.612   7.093  0.5334 -1.0723 -2.2355
 6443TIP3   OH240887   1.913   1.696   8.126  0.4086  0.8717  0.2759
 6443TIP3    H140888   1.859   1.768   8.159 -1.1124  0.1256 -0.5364
 6443TIP3    H240889   1.864   1.617   8.147 -0.5970  0.3128 -3.5280
 6444TIP3   OH240890   1.782   0.301   0.963 -0.0134  0.3164  0.4667
 6444TIP3    H140891   1.751   0.213   0.985  0.6417 -0.0132  0.0927
 6444TIP3    H240892   1.811   0.339   1.046  1.3634 -0.4882  0.3759
 6445TIP3   OH240893   2.277   4.360   0.317 -0.2147 -0.3220  0.6760
 6445TIP3    H140894   2.286   4.455   0.318 -0.8638 -0.2543  0.3434
 6445TIP3    H240895   2.184   4.344   0.333 -0.4412 -0.8473 -1.0029
 6446TIP3   OH240896   4.668   6.332   0.770 -0.3728  0.0258  0.2303
 6446TIP3    H140897   4.763   6.339   0.778 -0.3304  0.8267 -0.7288
 6446TIP3    H240898   4.634   6.358   0.856  0.2041  2.3027 -0.1687
 6447TIP3   OH240899   4.808   3.607   7.048  0.5404  0.5326 -0.1494
 6447TIP3    H140900   4.885   3.567   7.088  0.6992  0.7923 -0.1945
 6447TIP3    H240901   4.794   3.556   6.968 -0.3989 -0.6668  0.7329
 6448TIP3   OH240902   1.332   3.122   0.917  0.3732 -0.1186 -0.3819
 6448TIP3    H140903   1.350   3.050   0.977  2.8973 -0.4722 -1.4137
 6448TIP3    H240904   1.262   3.089   0.861  0.2966 -1.0884  0.2573
 6449TIP3   OH240905   0.552   2.257   2.219  0.2655  0.3454  0.7325
 6449TIP3    H140906   0.570   2.327   2.157 -2.0569  1.9581  1.7531
 6449TIP3    H240907   0.624   2.261   2.282  2.0071 -0.5487 -1.0978
 6450TIP3   OH240908   6.542   4.806   7.385 -0.2509 -0.3477 -0.2357
 6450TIP3    H140909   6.631   4.794   7.417 -0.1419  0.6858 -0.1196
 6450TIP3    H240910   6.523   4.727   7.335  1.1797 -0.0359 -1.3045
 6451TIP3   OH240911   5.300   6.391   6.917 -0.5899  0.6957 -0.0992
 6451TIP3    H140912   5.227   6.391   6.855 -0.4546  0.2520 -0.2558
 6451TIP3    H240913   5.375   6.420   6.866 -0.4621  0.2538 -0.1673
 6452TIP3   OH240914   0.005   2.739   6.199 -0.3879 -0.1075  0.0803
 6452TIP3    H140915   0.044   2.822   6.228 -0.0748 -0.5389  0.9202
 6452TIP3    H240916   0.078   2.677   6.196 -0.2296  0.0814 -2.4856
 6453TIP3   OH240917   4.578   5.530   2.867  0.4975 -1.0095 -0.1840
 6453TIP3    H140918   4.488   5.534   2.899  0.0184 -0.1619 -1.5571
 6453TIP3    H240919   4.608   5.442   2.889 -0.8551 -1.4877 -0.1931
 6454TIP3   OH240920   3.563   4.230   0.863  0.1438 -0.5413 -0.2173
 6454TIP3    H140921   3.617   4.278   0.926  0.5685 -1.0716 -0.1769
 6454TIP3    H240922   3.593   4.261   0.778 -0.7727  0.5530 -0.1732
 6455TIP3   OH240923   3.612   3.815   1.726  0.4925  1.1721  0.2757
 6455TIP3    H140924   3.653   3.768   1.654  0.1930 -0.0993  0.9135
 6455TIP3    H240925   3.675   3.884   1.747  1.4691  0.3883  0.0381
 6456TIP3   OH240926   6.375   4.929   0.521  0.0473  0.1272  0.1127
 6456TIP3    H140927   6.348   4.842   0.491  0.0402 -0.1375  0.8820
 6456TIP3    H240928   6.469   4.932   0.503 -0.4448  1.1891 -2.9174
 6457TIP3   OH240929   4.180   0.409   0.836  0.1519 -0.3164 -0.3482
 6457TIP3    H140930   4.258   0.423   0.781 -0.8525 -1.1594 -2.0749
 6457TIP3    H240931   4.107   0.421   0.776 -1.0414 -0.3433  1.0652
 6458TIP3   OH240932   2.504   2.770   0.822  0.2179  0.2950 -0.6678
 6458TIP3    H140933   2.495   2.849   0.768 -0.6318  1.3440  0.9264
 6458TIP3    H240934   2.541   2.704   0.762 -1.6889  1.0398 -2.8195
 6459TIP3   OH240935   5.574   0.480   7.005  0.9844  0.7406  0.8542
 6459TIP3    H140936   5.489   0.463   7.047 -0.9199 -1.2482 -3.1958
 6459TIP3    H240937   5.638   0.444   7.065 -1.6330 -3.7734  1.4547
 6460TIP3   OH240938   4.435   1.783   7.847 -0.0442 -0.1590 -0.0490
 6460TIP3    H140939   4.354   1.801   7.894 -0.5971 -1.3058 -0.5452
 6460TIP3    H240940   4.421   1.822   7.761  0.4820  0.8342  0.2931
 6461TIP3   OH240941   5.308   3.422   6.372 -0.0741  0.2149  0.1826
 6461TIP3    H140942   5.388   3.386   6.335 -0.3362  0.6701 -0.8555
 6461TIP3    H240943   5.335   3.505   6.412  0.0310  0.1859  0.1717
 6462TIP3   OH240944   2.128   5.527   7.014 -0.7765  0.6499 -0.0807
 6462TIP3    H140945   2.148   5.449   7.066  1.0397 -0.3050 -2.0923
 6462TIP3    H240946   2.141   5.600   7.075  1.5745 -0.4103  0.7982
 6463TIP3   OH240947   3.540   2.863   6.479 -1.0492 -0.7094  0.2299
 6463TIP3    H140948   3.586   2.800   6.534 -0.5007 -0.1154  0.4622
 6463TIP3    H240949   3.448   2.837   6.486 -0.8121 -1.6492  0.0924
 6464TIP3   OH240950   3.623   3.335   7.939  0.0516  0.4551 -0.1724
 6464TIP3    H140951   3.544   3.347   7.886  0.2501 -0.4361 -0.6804
 6464TIP3    H240952   3.691   3.383   7.892  0.3659 -0.8316 -1.0788
 6465TIP3   OH240953   0.119   2.472   0.519  0.2582  0.2197  0.1940
 6465TIP3    H140954   0.111   2.422   0.438  1.7640  0.6012 -0.2199
 6465TIP3    H240955   0.211   2.500   0.521  0.0135  1.0124  1.5623
 6466TIP3   OH240956   5.900   1.213   1.756 -0.1507  0.2567 -0.0623
 6466TIP3    H140957   5.963   1.205   1.828  0.8541 -2.3107 -1.0841
 6466TIP3    H240958   5.954   1.232   1.679 -0.7516 -0.5385 -0.7012
 6467TIP3   OH240959   4.395   3.340   0.448 -0.3238 -0.2572 -0.1462
 6467TIP3    H140960   4.408   3.332   0.543  0.4546  1.4569 -0.0724
 6467TIP3    H240961   4.306   3.375   0.439 -0.3304 -0.2460 -0.0409
 6468TIP3   OH240962   5.346   1.762   0.331 -0.1135  0.2114  0.2833
 6468TIP3    H140963   5.327   1.801   0.246  2.8179  0.7248 -0.2712
 6468TIP3    H240964   5.361   1.837   0.389  0.3974 -0.0928  0.5586
 6469TIP3   OH240965   6.779   2.516   0.200  0.3700  0.0907 -0.6001
 6469TIP3    H140966   6.740   2.550   0.281 -2.2415 -0.7977 -1.3667
 6469TIP3    H240967   6.849   2.458   0.230  0.2640  0.6965  0.9584
 6470TIP3   OH240968   2.399   5.116   0.635  0.2314  0.0744  0.0412
 6470TIP3    H140969   2.365   5.195   0.678  1.8032 -0.3285  2.1731
 6470TIP3    H240970   2.347   5.044   0.670 -0.9254  0.0426 -1.5939
 6471TIP3   OH240971   4.663   5.622   0.148  0.1378 -0.1398 -0.0668
 6471TIP3    H140972   4.690   5.676   0.222  0.0983 -2.0264  1.3983
 6471TIP3    H240973   4.742   5.615   0.094  0.3684  0.6475  0.1441
 6472TIP3   OH240974   1.730   3.098   7.995  0.1642 -0.1157  0.0588
 6472TIP3    H140975   1.676   3.063   7.924  1.4638  1.4621 -1.8103
 6472TIP3    H240976   1.673   3.160   8.040 -0.4439 -0.5295 -0.1378
 6473TIP3   OH240977   6.825   4.368   7.349 -0.1827  0.1362 -0.4104
 6473TIP3    H140978   6.732   4.368   7.327 -0.2794 -1.6454 -0.1885
 6473TIP3    H240979   6.846   4.275   7.363  1.4493  0.5740  0.2889
 6474TIP3   OH240980   2.561   2.166   1.794 -0.1224  0.1605 -0.0518
 6474TIP3    H140981   2.597   2.244   1.837 -1.7097  0.9608 -0.0796
 6474TIP3    H240982   2.557   2.101   1.863 -0.3273  0.6548  0.4161
 6475TIP3   OH240983   4.758   6.452   8.440 -0.3576  0.4437  1.2635
 6475TIP3    H140984   4.825   6.425   8.504 -0.0346 -0.7685  0.4466
 6475TIP3    H240985   4.763   6.548   8.440  1.3928  0.4002  1.2353
 6476TIP3   OH240986   0.367   4.806   8.073  0.6938 -0.4730  0.5663
 6476TIP3    H140987   0.297   4.844   8.126  1.8364  1.2679  0.9055
 6476TIP3    H240988   0.347   4.834   7.983  0.0224 -1.4847  0.3765
 6477TIP3   OH240989   2.653   5.375   2.578  0.9086 -0.1556 -0.2942
 6477TIP3    H140990   2.730   5.403   2.530  0.5257 -0.6171 -1.1980
 6477TIP3    H240991   2.594   5.340   2.511 -0.8387  1.7872  0.1127
 6478TIP3   OH240992   4.525   2.197   7.975 -0.6537  0.0978 -0.0658
 6478TIP3    H140993   4.448   2.141   7.962  0.3399 -1.4061  0.3003
 6478TIP3    H240994   4.576   2.187   7.894  0.0541 -0.3869  0.4340
 6479TIP3   OH240995   4.523   0.702   0.442 -0.6204  0.4059 -0.4300
 6479TIP3    H140996   4.479   0.784   0.463  0.7500  0.9965  0.2368
 6479TIP3    H240997   4.475   0.667   0.367 -0.2951  2.5693 -1.7238
 6480TIP3   OH240998   2.590   6.601   1.041 -0.7215 -0.5682  0.5565
 6480TIP3    H140999   2.612   6.567   1.128 -0.6884  0.7109  1.0723
 6480TIP3    H241000   2.559   6.690   1.058 -3.4788 -1.2584 -0.4386
 6481TIP3   OH241001   0.933   0.828   8.471 -0.0921 -0.1589 -0.5952
 6481TIP3    H141002   0.933   0.772   8.549  1.2127 -0.3810 -0.7177
 6481TIP3    H241003   0.888   0.777   8.405 -1.7022  0.2547  0.1431
 6482TIP3   OH241004   0.835   4.552   7.193  0.0972 -0.2744 -0.3376
 6482TIP3    H141005   0.890   4.551   7.115  0.6586 -0.3142  0.0555
 6482TIP3    H241006   0.755   4.507   7.166  0.8188 -1.4930 -0.5052
 6483TIP3   OH241007   4.246   0.833   6.340  0.5648  0.6466 -0.6613
 6483TIP3    H141008   4.253   0.906   6.401  3.2579  0.1387 -0.2363
 6483TIP3    H241009   4.330   0.789   6.346 -0.8807 -2.4329 -1.0213
 6484TIP3   OH241010   3.386   5.016   7.998  0.7582 -0.7861 -0.2783
 6484TIP3    H141011   3.405   5.027   7.905  0.3258  0.5879 -0.2218
 6484TIP3    H241012   3.297   4.982   8.000  0.5924 -0.3659 -0.3633
 6485TIP3   OH241013   4.947   0.398   1.570  0.2710  0.5291 -0.2307
 6485TIP3    H141014   4.860   0.371   1.541  0.4587  0.4491 -0.7139
 6485TIP3    H241015   4.952   0.367   1.661  0.1244 -0.2344 -0.4792
 6486TIP3   OH241016   0.132   2.884   8.339 -0.2284  0.0560  0.3341
 6486TIP3    H141017   0.197   2.934   8.388 -0.4313  1.3867 -0.7205
 6486TIP3    H241018   0.103   2.943   8.270 -1.8855 -0.8544  0.2192
 6487TIP3   OH241019   5.696   6.457   0.272  0.8303 -0.1340  0.7376
 6487TIP3    H141020   5.654   6.451   0.358  0.7264 -1.7775  0.6084
 6487TIP3    H241021   5.782   6.496   0.290  0.3504  0.6447  1.4041
 6488TIP3   OH241022   3.984   5.380   2.080  0.5364 -0.1999 -0.2522
 6488TIP3    H141023   3.939   5.367   1.997 -0.7449  1.1144  0.1942
 6488TIP3    H241024   4.060   5.434   2.058  1.2501 -1.4114 -0.8286
 6489TIP3   OH241025   6.326   3.936   2.233  0.2889  0.1275  0.0922
 6489TIP3    H141026   6.237   3.954   2.203  0.2351 -2.5445 -1.7390
 6489TIP3    H241027   6.315   3.878   2.308  0.4550 -0.6245 -0.4542
 6490TIP3   OH241028   1.308   4.347   0.622  0.4483  0.1251 -0.0383
 6490TIP3    H141029   1.224   4.392   0.613  1.0543  1.2023 -0.4777
 6490TIP3    H241030   1.343   4.379   0.705  0.9328  0.5628 -0.4068
 6491TIP3   OH241031   6.377   1.030   0.361 -0.2027 -0.4860  0.9521
 6491TIP3    H141032   6.471   1.032   0.343 -0.3380 -0.9731  0.1215
 6491TIP3    H241033   6.366   1.084   0.440  0.6436  0.4118  0.4787
 6492TIP3   OH241034   6.827   2.006   7.034 -0.0343  0.8243 -0.5222
 6492TIP3    H141035   6.904   2.036   6.985  0.5091 -1.0150 -0.8825
 6492TIP3    H241036   6.849   2.024   7.126  1.5767 -1.0749 -0.4639
 6493TIP3   OH241037   5.739   6.925   1.396  0.0172  0.1938  0.3144
 6493TIP3    H141038   5.710   6.835   1.410 -0.2349  0.2431  0.1159
 6493TIP3    H241039   5.802   6.919   1.323 -0.5861  0.2828 -0.2180
 6494TIP3   OH241040   5.073   0.202   8.034 -0.1255  0.6372  0.4785
 6494TIP3    H141041   5.164   0.180   8.054 -0.6124 -0.7016  1.4078
 6494TIP3    H241042   5.037   0.229   8.118 -1.1539 -1.0834  0.6490
 6495TIP3   OH241043   4.026   0.985   2.806 -0.0919  0.2567 -0.4890
 6495TIP3    H141044   3.941   0.941   2.806  0.3090 -0.5225 -0.0754
 6495TIP3    H241045   4.015   1.058   2.745 -1.5504  1.1412  0.7582
 6496TIP3   OH241046   3.252   1.591   0.660  0.1948 -0.1037  0.3444
 6496TIP3    H141047   3.243   1.684   0.678  1.5363  0.1999 -0.4326
 6496TIP3    H241048   3.187   1.573   0.593 -0.5785  0.0940  1.0214
 6497TIP3   OH241049   1.469   5.082   0.536  0.4229  0.2156 -0.2250
 6497TIP3    H141050   1.487   5.173   0.561 -1.2044  0.3267  0.7294
 6497TIP3    H241051   1.442   5.087   0.444 -1.0457  0.9305  0.2183
 6498TIP3   OH241052   3.078   4.993   1.368 -0.3105  0.9093  0.3310
 6498TIP3    H141053   3.129   5.044   1.432 -0.6661 -0.0849  1.4294
 6498TIP3    H241054   2.996   4.973   1.413 -0.9681  0.9961 -0.7964
 6499TIP3   OH241055   5.389   2.192   7.406  0.9299 -0.6028 -0.2429
 6499TIP3    H141056   5.470   2.236   7.380  1.3358 -1.4391 -0.4022
 6499TIP3    H241057   5.396   2.184   7.501 -0.0970  1.5369  0.0756
 6500TIP3   OH241058   0.795   4.105   0.272  0.1973 -0.1811 -0.3220
 6500TIP3    H141059   0.794   4.114   0.367 -2.5465  2.2338 -0.4505
 6500TIP3    H241060   0.864   4.165   0.244  1.2280 -1.1277  0.0898
 6501TIP3   OH241061   0.118   1.070   7.800 -0.1656  1.0902 -0.1227
 6501TIP3    H141062   0.111   1.107   7.712  0.8597 -1.2732 -1.3094
 6501TIP3    H241063   0.187   1.004   7.792 -2.0506 -1.2563  1.7117
 6502TIP3   OH241064   4.035   3.653   7.437 -0.4149  0.2650 -0.1887
 6502TIP3    H141065   4.087   3.715   7.387  0.6248  0.1143  0.6661
 6502TIP3    H241066   4.083   3.642   7.519 -0.9247 -1.1639 -0.0517
 6503TIP3   OH241067   2.507   0.219   6.809 -0.2125 -0.2414  0.0314
 6503TIP3    H141068   2.548   0.240   6.893  0.0345 -3.2598  0.7455
 6503TIP3    H241069   2.580   0.196   6.752 -0.4604  0.9524 -0.8171
 6504TIP3   OH241070   5.197   4.630   1.123  0.1880 -0.0146  0.3609
 6504TIP3    H141071   5.208   4.546   1.079  0.0956  0.6170 -0.9074
 6504TIP3    H241072   5.282   4.673   1.115 -0.1052  0.4985 -0.0547
 6505TIP3   OH241073   4.668   1.469   0.544  0.0665 -0.3734 -0.1564
 6505TIP3    H141074   4.754   1.437   0.515 -0.0533 -0.3856 -0.5088
 6505TIP3    H241075   4.642   1.408   0.613  2.0270  1.7955  2.7235
 6506TIP3   OH241076   0.844   6.511   1.615  0.0965 -0.6081  0.4458
 6506TIP3    H141077   0.795   6.477   1.540  0.7889 -0.1977 -0.2197
 6506TIP3    H241078   0.856   6.436   1.673 -2.0453 -0.5261  1.0497
 6507TIP3   OH241079   4.093   1.898   1.971  0.2841 -0.1509 -0.8906
 6507TIP3    H141080   4.027   1.830   1.981  1.0238 -0.5954  1.8724
 6507TIP3    H241081   4.167   1.867   2.023 -0.0798  3.6363  2.3532
 6508TIP3   OH241082   2.037   1.968   0.155 -0.0398 -0.2237 -0.0761
 6508TIP3    H141083   1.947   1.999   0.152 -0.4091 -1.3138 -1.0703
 6508TIP3    H241084   2.090   2.048   0.161 -1.0847  0.3712  3.7392
 6509TIP3   OH241085   4.784   0.481   0.904  0.7582 -0.3405 -0.0273
 6509TIP3    H141086   4.846   0.553   0.891  1.4722 -0.9837 -0.2386
 6509TIP3    H241087   4.742   0.470   0.819 -1.3425  1.5912  0.6580
 6510TIP3   OH241088   0.006   1.382   8.467 -0.3079 -0.3030 -0.2344
 6510TIP3    H141089   0.079   1.332   8.430 -0.2128  0.7702 -1.5361
 6510TIP3    H241090   0.017   1.372   8.562  0.0943 -2.1715 -0.4313
 6511TIP3   OH241091   5.761   5.185   2.634  0.7501  0.3182  0.0715
 6511TIP3    H141092   5.767   5.241   2.711  1.8490  1.1750 -0.6094
 6511TIP3    H241093   5.704   5.233   2.573 -1.4538 -1.0842  0.9017
 6512TIP3   OH241094   3.938   3.722   2.143  0.2580 -0.2317 -0.1850
 6512TIP3    H141095   3.887   3.664   2.086  0.3322  0.2620 -0.7740
 6512TIP3    H241096   3.908   3.703   2.231 -0.9380  0.0258 -0.5169
 6513TIP3   OH241097   2.941   5.256   0.160  0.3259  0.1028  0.4604
 6513TIP3    H141098   2.916   5.260   0.252  0.9508  2.3827  0.5889
 6513TIP3    H241099   3.033   5.281   0.159  0.8195 -1.6229 -0.6368
 6514TIP3   OH241100   0.343   3.904   2.189  0.3390 -0.1562 -0.2225
 6514TIP3    H141101   0.373   3.886   2.100  2.3478  1.5200  0.0322
 6514TIP3    H241102   0.334   3.817   2.230  1.5078 -0.8677 -1.4082
 6515TIP3   OH241103   4.224   3.460   1.477  0.6894  0.1480 -0.5813
 6515TIP3    H141104   4.177   3.423   1.402 -1.2088 -0.4323  0.8288
 6515TIP3    H241105   4.312   3.421   1.471  0.4881 -0.1322 -2.2984
 6516TIP3   OH241106   1.657   6.453   0.674 -0.4480 -0.2580 -0.2272
 6516TIP3    H141107   1.693   6.542   0.674  0.0277 -0.4466 -0.1266
 6516TIP3    H241108   1.725   6.399   0.635 -0.8053 -0.5547 -0.4493
 6517TIP3   OH241109   4.524   5.197   1.795 -0.8612 -0.5573  0.5149
 6517TIP3    H141110   4.564   5.114   1.770  0.8831 -0.2404  1.9728
 6517TIP3    H241111   4.476   5.178   1.875  1.0256  0.1080  1.8807
 6518TIP3   OH241112   0.222   6.462   2.320 -0.1004  0.0419  0.0927
 6518TIP3    H141113   0.146   6.516   2.300  0.4774  0.3568 -1.3663
 6518TIP3    H241114   0.283   6.522   2.363  0.7129  0.7091 -1.9105
 6519TIP3   OH241115   0.897   5.194   6.956  0.2566  0.5046  0.5103
 6519TIP3    H141116   0.935   5.127   6.898 -0.4146 -0.7485  1.4664
 6519TIP3    H241117   0.881   5.269   6.899  2.2767  0.3620 -0.3326
 6520TIP3   OH241118   1.933   1.747   0.636 -0.3368 -0.1452  0.5701
 6520TIP3    H141119   1.998   1.801   0.591 -0.9666  0.9544  0.9471
 6520TIP3    H241120   1.913   1.677   0.574 -0.3549  0.7062 -0.4232
 6521TIP3   OH241121   5.481   0.261   1.691  0.2519 -0.0924  0.2943
 6521TIP3    H141122   5.459   0.340   1.642  0.0166  0.2953  1.0035
 6521TIP3    H241123   5.533   0.293   1.765  0.6580 -0.6704  0.2645
 6522TIP3   OH241124   2.868   2.464   6.422  0.7097 -0.4135  0.5878
 6522TIP3    H141125   2.782   2.429   6.401  0.1764  0.3296  1.4861
 6522TIP3    H241126   2.922   2.441   6.346 -0.2931 -0.8187 -0.0212
 6523TIP3   OH241127   4.310   3.134   8.118  0.0702  0.0616 -0.1594
 6523TIP3    H141128   4.215   3.121   8.109 -0.1794  0.5151  1.5384
 6523TIP3    H241129   4.348   3.075   8.053 -1.3880  0.4452 -1.4248
 6524TIP3   OH241130   4.688   6.692   7.312 -0.6707 -0.8159 -0.5556
 6524TIP3    H141131   4.769   6.662   7.354 -0.8597 -0.9612 -0.2907
 6524TIP3    H241132   4.694   6.787   7.312 -1.6269 -0.6818  1.7769
 6525TIP3   OH241133   4.578   4.619   8.079 -0.2072 -0.2268 -0.7021
 6525TIP3    H141134   4.484   4.626   8.066 -0.2045  1.5341 -0.0005
 6525TIP3    H241135   4.588   4.584   8.168 -0.1923 -0.2596 -0.7164
 6526TIP3   OH241136   0.430   5.863   7.995 -0.2788 -0.1191 -0.0838
 6526TIP3    H141137   0.458   5.801   8.063 -1.2971 -0.6944 -0.1685
 6526TIP3    H241138   0.417   5.809   7.917  0.5422  0.4851 -0.6544
 6527TIP3   OH241139   6.311   1.027   7.288  0.1141 -0.2547 -0.2652
 6527TIP3    H141140   6.337   1.034   7.380 -0.5090  0.0074 -0.1026
 6527TIP3    H241141   6.338   1.110   7.249  0.3494 -0.3528 -0.3114
 6528TIP3   OH241142   5.190   5.832   1.565 -0.2606 -0.0093 -0.1931
 6528TIP3    H141143   5.177   5.739   1.546 -0.9778  0.5396 -2.8059
 6528TIP3    H241144   5.106   5.861   1.602 -0.3701 -0.2323 -0.2647
 6529TIP3   OH241145   1.778   4.413   1.552  0.2613 -0.6118  0.4135
 6529TIP3    H141146   1.696   4.452   1.581  0.4782 -0.7951  1.2989
 6529TIP3    H241147   1.846   4.473   1.582  0.5836 -1.5204  1.5898
 6530TIP3   OH241148   5.789   6.431   2.122  0.4169 -0.0718  0.1255
 6530TIP3    H141149   5.840   6.512   2.130  0.1436  0.0736  0.4332
 6530TIP3    H241150   5.720   6.452   2.060  1.2250 -0.5274 -0.9566
 6531TIP3   OH241151   6.749   2.428   1.487  0.4282 -0.1818 -0.2309
 6531TIP3    H141152   6.835   2.398   1.515 -0.0328 -1.2181  0.1472
 6531TIP3    H241153   6.763   2.516   1.452  1.4740  0.0363  0.7098
 6532TIP3   OH241154   6.207   1.786   1.715  1.0821  0.4013 -0.2535
 6532TIP3    H141155   6.174   1.856   1.659  2.1740  0.8240 -0.3873
 6532TIP3    H241156   6.257   1.830   1.783  1.9458 -0.2391 -0.4474
 6533TIP3   OH241157   1.368   0.470   8.511 -0.1966 -0.1676  0.3447
 6533TIP3    H141158   1.427   0.545   8.520 -1.8339  1.2514 -0.2936
 6533TIP3    H241159   1.370   0.428   8.597  2.4228 -0.7500  0.0957
 6534TIP3   OH241160   1.712   5.251   1.181  0.1539 -0.9208 -0.1400
 6534TIP3    H141161   1.751   5.279   1.264 -0.7893 -0.7613  0.2618
 6534TIP3    H241162   1.721   5.327   1.124  0.8968 -1.0642 -0.2234
 6535TIP3   OH241163   6.014   4.196   0.821 -0.1103  0.6204  0.2509
 6535TIP3    H141164   6.018   4.104   0.847  0.5274  0.8743  1.1037
 6535TIP3    H241165   6.024   4.194   0.726  1.2305 -0.1196  0.3736
 6536TIP3   OH241166   6.435   0.487   7.440 -0.1840 -0.3113  0.0129
 6536TIP3    H141167   6.362   0.543   7.468  1.9390  1.9447  1.5256
 6536TIP3    H241168   6.453   0.431   7.516 -0.6783 -1.2579 -0.5593
 6537TIP3   OH241169   1.723   6.804   0.913 -0.7742 -0.1724 -0.4279
 6537TIP3    H141170   1.662   6.876   0.894 -0.3183  0.4580  0.4619
 6537TIP3    H241171   1.793   6.844   0.963  0.6840 -0.7890 -1.8987
 6538TIP3   OH241172   0.326   5.819   6.899  0.6062 -0.4425 -0.3515
 6538TIP3    H141173   0.324   5.752   6.831 -3.3762 -0.0326 -0.9200
 6538TIP3    H241174   0.279   5.893   6.860 -2.0215 -0.2530  2.7783
 6539TIP3   OH241175   3.855   1.799   0.592 -0.4091  0.4652  0.0731
 6539TIP3    H141176   3.796   1.870   0.617 -3.5469 -1.7495 -0.4179
 6539TIP3    H241177   3.816   1.720   0.631  1.6722 -1.3323 -1.2056
 6540TIP3   OH241178   0.344   4.545   7.444 -0.0832  0.2774 -0.5415
 6540TIP3    H141179   0.335   4.532   7.349  2.0974  0.6408 -0.8669
 6540TIP3    H241180   0.371   4.636   7.453 -0.0476  0.1804  0.4010
 6541TIP3   OH241181   0.450   6.495   2.062 -0.2076 -0.2401 -0.7313
 6541TIP3    H141182   0.532   6.527   2.099  0.2260 -0.2644 -1.6302
 6541TIP3    H241183   0.387   6.501   2.133  0.6147 -0.3776  0.0220
 6542TIP3   OH241184   3.467   5.368   1.260 -1.0797  0.1493 -0.5298
 6542TIP3    H141185   3.562   5.370   1.247 -0.8726  3.8838  0.5027
 6542TIP3    H241186   3.433   5.320   1.184  1.4103  2.4266 -3.3251
 6543TIP3   OH241187   4.615   4.759   2.704 -0.1072 -0.5295 -0.0099
 6543TIP3    H141188   4.541   4.774   2.645  0.6298  2.9833 -0.3106
 6543TIP3    H241189   4.689   4.739   2.646  0.5067  2.4492 -0.4673
 6544TIP3   OH241190   3.141   0.193   7.825  0.9962 -0.0861  0.0664
 6544TIP3    H141191   3.141   0.171   7.732  0.9739  0.9386 -0.1893
 6544TIP3    H241192   3.110   0.113   7.869 -0.1542 -0.2060 -0.9033
 6545TIP3   OH241193   4.905   2.046   0.334 -0.5159  0.3467 -0.1588
 6545TIP3    H141194   4.863   2.039   0.248  0.9619 -0.3779 -0.8422
 6545TIP3    H241195   4.888   1.962   0.376 -0.1523  0.2395 -0.2324
 6546TIP3   OH241196   2.259   4.956   7.549 -0.3446 -0.5770  0.2997
 6546TIP3    H141197   2.289   4.940   7.460 -0.5698 -1.3703  0.3606
 6546TIP3    H241198   2.312   5.030   7.579 -0.9613  0.3678 -0.8317
 6547TIP3   OH241199   3.770   0.023   1.895 -0.5564 -0.4503 -0.4378
 6547TIP3    H141200   3.747  -0.034   1.822 -0.4065 -2.9186  1.3430
 6547TIP3    H241201   3.688   0.037   1.942  0.0451 -2.7206  1.4529
 6548TIP3   OH241202   4.063   4.316   1.588 -0.1459 -0.1379 -0.3054
 6548TIP3    H141203   3.975   4.307   1.552  0.2413 -4.5494 -0.6698
 6548TIP3    H241204   4.051   4.309   1.683 -0.2093 -1.5259 -0.3932
 6549TIP3   OH241205   2.565   6.356   2.773 -0.2878  0.5280  0.4538
 6549TIP3    H141206   2.644   6.302   2.776 -0.2359  0.5789  0.0642
 6549TIP3    H241207   2.523   6.333   2.690 -0.7623  0.3885  0.7334
 6550TIP3   OH241208   5.044   3.709   2.546  0.0300 -0.0771 -0.4982
 6550TIP3    H141209   5.057   3.787   2.600  1.8706  1.5263 -3.0166
 6550TIP3    H241210   4.958   3.722   2.506 -0.4833 -0.2981  0.5089
 6551TIP3   OH241211   3.786   1.495   0.499 -0.3921 -0.4570 -0.3100
 6551TIP3    H141212   3.847   1.525   0.566 -2.3903 -0.4688  1.6585
 6551TIP3    H241213   3.783   1.400   0.510 -0.6758 -0.4655 -0.4443
 6552TIP3   OH241214   5.493   4.893   1.733 -0.4064  0.1298  0.5355
 6552TIP3    H141215   5.454   4.852   1.655 -1.8724  0.6908  0.9413
 6552TIP3    H241216   5.564   4.946   1.698 -2.9938  2.9705 -0.9369
 6553TIP3   OH241217   0.991   3.439   0.407 -0.2675  0.5098  0.2234
 6553TIP3    H141218   1.053   3.434   0.480 -0.5704 -0.6979  0.4230
 6553TIP3    H241219   1.015   3.365   0.351  1.1629  2.4690 -1.9066
 6554TIP3   OH241220   2.089   0.535   7.191  0.1651  0.2814  0.0924
 6554TIP3    H141221   2.030   0.505   7.260  1.1582 -0.0392  0.8374
 6554TIP3    H241222   2.048   0.506   7.110 -1.0298  0.6639  0.5340
 6555TIP3   OH241223   2.723   0.211   7.608  0.0039 -1.1278 -0.0012
 6555TIP3    H141224   2.731   0.245   7.697  0.0078 -1.7682  0.2432
 6555TIP3    H241225   2.800   0.156   7.595  0.9737  0.3984 -1.0549
 6556TIP3   OH241226   1.175   2.405   8.401 -0.1153  0.4407 -0.0245
 6556TIP3    H141227   1.232   2.417   8.476  1.1274  0.7113 -0.9811
 6556TIP3    H241228   1.097   2.457   8.421  0.6889  1.4351  0.5752
 6557TIP3   OH241229   1.149   2.051   7.926 -0.0472 -0.2247 -0.1861
 6557TIP3    H141230   1.232   2.095   7.908  0.3142 -0.3753  1.0016
 6557TIP3    H241231   1.089   2.084   7.859 -0.0137  2.6777  1.0525
 6558TIP3   OH241232   4.755   1.138   7.046  0.2553 -0.2721 -0.2285
 6558TIP3    H141233   4.820   1.193   7.089  0.6070 -0.7279 -0.1644
 6558TIP3    H241234   4.802   1.058   7.023 -0.7803 -1.6113  1.9145
 6559TIP3   OH241235   2.469   5.440   7.596 -0.8174 -0.4278  0.3048
 6559TIP3    H141236   2.472   5.532   7.625 -2.0258 -0.7890  1.7255
 6559TIP3    H241237   2.384   5.431   7.553 -0.4586 -0.7507 -0.3485
 6560TIP3   OH241238   6.027   5.338   7.440  0.5797 -0.2458 -0.7083
 6560TIP3    H141239   5.989   5.257   7.407  0.2238 -0.3776  0.0130
 6560TIP3    H241240   5.968   5.407   7.408  1.2493 -0.1875 -1.8932
 6561TIP3   OH241241   2.507   2.694   7.001  0.3096  0.5403 -0.2328
 6561TIP3    H141242   2.553   2.611   7.009 -0.7561  0.1057  1.8718
 6561TIP3    H241243   2.565   2.748   6.946  1.8547 -0.9752 -0.1612
 6562TIP3   OH241244   0.310   4.235   1.890  0.1941 -0.5546 -0.0814
 6562TIP3    H141245   0.240   4.214   1.952  0.7240 -0.0901  0.6814
 6562TIP3    H241246   0.310   4.161   1.829 -1.0845 -0.4776 -0.2175
 6563TIP3   OH241247   3.752   4.957   0.513 -0.0819 -0.3611 -0.1520
 6563TIP3    H141248   3.803   4.894   0.461  0.2327 -0.7654  0.6260
 6563TIP3    H241249   3.746   4.916   0.599 -0.9566  0.1085  0.0141
 6564TIP3   OH241250   1.623   0.928   6.653  0.4926  0.6962 -0.2944
 6564TIP3    H141251   1.562   0.867   6.611  1.1082 -0.7381  0.7900
 6564TIP3    H241252   1.710   0.895   6.630  0.8455  1.2791  0.1636
 6565TIP3   OH241253   0.005   3.540   7.847 -0.5864 -0.8897 -0.3232
 6565TIP3    H141254  -0.023   3.453   7.872  2.2389 -1.3095  1.9356
 6565TIP3    H241255   0.048   3.528   7.762 -0.2012 -1.7497 -0.0205
 6566TIP3   OH241256   5.744   5.828   6.977 -0.2929  0.2049 -0.8745
 6566TIP3    H141257   5.791   5.748   7.002 -1.2628 -0.4443 -1.0625
 6566TIP3    H241258   5.677   5.798   6.915 -1.3705  1.0013 -0.1466
 6567TIP3   OH241259   3.193   3.502   0.334 -0.0735  0.3009  0.0161
 6567TIP3    H141260   3.207   3.597   0.333 -0.0340  0.3652  2.3028
 6567TIP3    H241261   3.209   3.476   0.424  1.0934 -2.1032 -0.8091
 6568TIP3   OH241262   3.046   0.620   1.851  0.4000 -0.6228 -0.0248
 6568TIP3    H141263   3.004   0.584   1.929 -0.6521 -0.8113 -0.6554
 6568TIP3    H241264   3.007   0.707   1.841 -0.2957 -1.0204 -0.9402
 6569TIP3   OH241265   3.016   0.310   0.965  0.1064 -0.1170  0.2308
 6569TIP3    H141266   2.938   0.255   0.957 -0.2218  0.3439  0.1700
 6569TIP3    H241267   2.995   0.372   1.035 -0.4685  1.4013 -1.1974
 6570TIP3   OH241268   2.869   2.551   7.976 -0.3522 -0.1370  0.3514
 6570TIP3    H141269   2.907   2.630   8.015 -0.6315 -0.9728  2.4797
 6570TIP3    H241270   2.912   2.479   8.022  0.9459 -1.3414 -2.5436
 6571TIP3   OH241271   6.409   1.227   2.440  0.0982  0.1640 -0.0278
 6571TIP3    H141272   6.442   1.233   2.530  2.5291  0.2634 -0.8735
 6571TIP3    H241273   6.341   1.294   2.436  1.3450  1.5777  1.2008
 6572TIP3   OH241274   3.690   0.453   7.791  0.1272 -0.7735 -0.6724
 6572TIP3    H141275   3.606   0.444   7.835 -1.6188  2.3654 -2.9958
 6572TIP3    H241276   3.682   0.399   7.713 -0.4332  0.7468 -1.7047
 6573TIP3   OH241277   5.216   2.000   0.560  0.6979  0.6346  0.2512
 6573TIP3    H141278   5.153   2.071   0.574  0.2667  0.0924  1.1176
 6573TIP3    H241279   5.180   1.926   0.609  1.9610  0.2846  0.6691
 6574TIP3   OH241280   6.574   0.756   7.204 -0.3610  0.3068 -0.5456
 6574TIP3    H141281   6.566   0.835   7.150 -1.6646  1.4385  1.2126
 6574TIP3    H241282   6.484   0.730   7.222  0.0566 -0.5282  0.4051
 6575TIP3   OH241283   3.221   3.195   8.331  0.6495  0.5267 -0.1722
 6575TIP3    H141284   3.184   3.235   8.409  1.5699  0.0896  0.5210
 6575TIP3    H241285   3.315   3.214   8.337  1.1736 -1.8145  0.2958
 6576TIP3   OH241286   2.504   1.054   8.202 -0.0828 -0.3768  0.5604
 6576TIP3    H141287   2.532   1.035   8.112  0.6107  1.2576  0.3941
 6576TIP3    H241288   2.490   0.968   8.241  2.8074 -1.2896 -0.1193
 6577TIP3   OH241289   0.669   4.138   7.542 -0.1197  0.2950 -0.6626
 6577TIP3    H141290   0.632   4.225   7.557  1.2070  1.1265 -1.9628
 6577TIP3    H241291   0.696   4.139   7.450  2.6283 -0.4381  0.0668
 6578TIP3   OH241292   0.822   6.392   7.407 -0.5044 -0.1638  0.0254
 6578TIP3    H141293   0.753   6.356   7.352  2.3791 -1.5589 -3.0389
 6578TIP3    H241294   0.882   6.319   7.421  1.3372  1.4228  0.8559
 6579TIP3   OH241295   5.377   2.629   1.147 -0.2589 -0.3906 -0.0560
 6579TIP3    H141296   5.318   2.698   1.114 -1.6124 -2.3265 -2.0090
 6579TIP3    H241297   5.429   2.604   1.071  0.4278 -1.3240  0.7024
 6580TIP3   OH241298   4.462   1.822   6.663  0.0519  0.7319 -1.1981
 6580TIP3    H141299   4.539   1.798   6.611  0.0863 -1.3052 -0.3035
 6580TIP3    H241300   4.491   1.896   6.716  2.1051 -1.1704  0.5392
 6581TIP3   OH241301   2.924   2.824   1.413 -0.4956  0.6241 -0.0206
 6581TIP3    H141302   2.988   2.778   1.469  0.4225  0.0432 -1.4688
 6581TIP3    H241303   2.842   2.818   1.461 -0.5453 -2.9584 -0.2387
 6582TIP3   OH241304   4.959   4.303   6.933 -0.0816 -0.0745  0.3472
 6582TIP3    H141305   4.933   4.386   6.893  0.2706 -0.2547 -0.2803
 6582TIP3    H241306   4.883   4.246   6.922 -1.0805  0.7346  2.5588
 6583TIP3   OH241307   1.827   1.122   6.628  0.4789 -0.4809 -0.1160
 6583TIP3    H141308   1.748   1.070   6.615  0.4972 -0.1884 -1.6602
 6583TIP3    H241309   1.886   1.094   6.557  0.9856  0.6856 -0.1841
 6584TIP3   OH241310   1.977   3.892   7.472 -0.4426 -0.0941 -0.6153
 6584TIP3    H141311   2.022   3.812   7.500 -0.6248 -0.4291 -1.2447
 6584TIP3    H241312   2.018   3.915   7.389 -0.6960  0.2169 -0.6583
 6585TIP3   OH241313   0.876   6.403   2.292 -0.4362  0.2212  0.5981
 6585TIP3    H141314   0.908   6.370   2.377  0.1984  1.6767  0.9498
 6585TIP3    H241315   0.852   6.324   2.244  0.4568 -0.7207  1.6330
 6586TIP3   OH241316   3.375   2.100   7.025  0.3107  0.9431  0.5975
 6586TIP3    H141317   3.452   2.157   7.025  3.2600 -2.5539  2.2856
 6586TIP3    H241318   3.360   2.080   7.117  1.9169 -3.6307  0.1334
 6587TIP3   OH241319   3.258   4.284   6.939 -0.1829  0.2586  0.0212
 6587TIP3    H141320   3.293   4.311   7.023  2.7544  0.3343 -1.1105
 6587TIP3    H241321   3.289   4.194   6.928 -1.0674  0.0311 -0.7247
 6588TIP3   OH241322   5.039   4.980   1.461 -0.6032  0.0304  0.1867
 6588TIP3    H141323   5.122   5.022   1.440  0.7542 -2.1007  1.0326
 6588TIP3    H241324   4.995   5.043   1.519 -0.1166  1.6643 -1.1470
 6589TIP3   OH241325   4.324   6.300   0.848 -0.1912  0.5861 -0.0631
 6589TIP3    H141326   4.360   6.248   0.777  2.0338  1.3920  0.4177
 6589TIP3    H241327   4.345   6.390   0.826  0.0177  0.9019  1.3147
 6590TIP3   OH241328   0.116   6.572   1.407  0.2561  0.2746  0.2832
 6590TIP3    H141329   0.191   6.573   1.467 -0.8044  0.0337  1.6650
 6590TIP3    H241330   0.155   6.561   1.320  1.8133  0.1058  0.9669
 6591TIP3   OH241331   5.991   4.222   1.193 -0.4216  0.0617  0.0857
 6591TIP3    H141332   6.043   4.288   1.238  1.7103 -1.1608 -0.4442
 6591TIP3    H241333   6.033   4.213   1.107 -2.0105 -0.4393 -0.6801
 6592TIP3   OH241334   4.060   2.004   7.329 -0.1858  0.0028 -0.2735
 6592TIP3    H141335   3.976   2.007   7.375  0.6632  1.1017  1.3032
 6592TIP3    H241336   4.046   1.941   7.259 -1.4693 -2.1064  1.7004
 6593TIP3   OH241337   3.424   5.407   8.016 -0.0599 -0.2049 -0.1423
 6593TIP3    H141338   3.372   5.392   7.937  0.7194 -0.1546 -0.6697
 6593TIP3    H241339   3.500   5.457   7.986  0.1334  0.0036  0.6762
 6594TIP3   OH241340   1.014   1.352   0.659  0.3735  0.0349 -0.0477
 6594TIP3    H141341   0.995   1.278   0.602 -2.5351  0.1761  0.5988
 6594TIP3    H241342   1.048   1.420   0.601 -1.5130 -0.1776 -1.4750
 6595TIP3   OH241343   1.714   6.100   8.088 -0.0725 -0.0943  0.2342
 6595TIP3    H141344   1.709   6.188   8.049 -0.9102 -1.3248 -2.7094
 6595TIP3    H241345   1.784   6.056   8.039  0.5505 -1.0059  1.8829
 6596TIP3   OH241346   2.881   1.198   0.523  0.1684  0.3837 -0.1380
 6596TIP3    H141347   2.863   1.278   0.572 -3.2966 -0.6751  0.5659
 6596TIP3    H241348   2.897   1.227   0.433  0.1873  1.9130  0.3339
 6597TIP3   OH241349   0.235   1.595   8.225  0.2847 -0.9428  0.5205
 6597TIP3    H141350   0.193   1.543   8.157  0.3695 -0.4080  0.0622
 6597TIP3    H241351   0.293   1.655   8.178  0.7339 -0.9213  1.0879
 6598TIP3   OH241352   0.712   5.994   8.249 -0.0634 -0.6269  0.1341
 6598TIP3    H141353   0.716   5.920   8.310  0.2939 -1.2105 -0.5785
 6598TIP3    H241354   0.803   6.009   8.223  0.0631  1.0541  1.3992
 6599TIP3   OH241355   2.393   1.738   2.304 -0.6121 -0.3551  0.3805
 6599TIP3    H141356   2.334   1.728   2.229  1.5919 -1.1745 -1.3802
 6599TIP3    H241357   2.385   1.830   2.329 -0.5105  0.2794 -1.7299
 6600TIP3   OH241358   3.910   6.593   6.483  0.4143 -0.3451 -0.4160
 6600TIP3    H141359   3.822   6.556   6.491  0.3849 -0.3003 -0.5239
 6600TIP3    H241360   3.895   6.686   6.468  0.4485 -0.4813 -1.3706
 6601TIP3   OH241361   3.364   5.127   1.780  0.6302 -0.2817  0.6125
 6601TIP3    H141362   3.416   5.048   1.792  0.9350 -0.2602 -0.4894
 6601TIP3    H241363   3.303   5.127   1.854  0.5326 -1.6138  0.5466
 6602TIP3   OH241364   4.609   3.813   7.779 -0.5818  0.1453 -0.0576
 6602TIP3    H141365   4.643   3.788   7.693 -2.1312 -1.7692 -0.2045
 6602TIP3    H241366   4.516   3.830   7.764 -0.9119 -0.3664  1.2387
 6603TIP3   OH241367   3.072   5.448   6.989  0.0923  0.7419  0.1607
 6603TIP3    H141368   3.147   5.480   7.039 -1.0149  0.7331  1.9059
 6603TIP3    H241369   3.083   5.353   6.986  0.2554  0.7595  0.2119
 6604TIP3   OH241370   6.815   2.621   0.895  0.3133 -0.5241  0.0320
 6604TIP3    H141371   6.814   2.713   0.920  1.9488 -0.1930 -1.0030
 6604TIP3    H241372   6.891   2.612   0.837 -0.4713 -2.2819 -0.8068
 6605TIP3   OH241373   6.508   5.203   7.509  0.0031  0.5374 -0.0556
 6605TIP3    H141374   6.587   5.152   7.490 -0.6788  0.1336 -2.1592
 6605TIP3    H241375   6.436   5.145   7.486 -0.9287  0.9669  1.6456
 6606TIP3   OH241376   4.525   1.767   1.661  0.5817  0.0345  0.0548
 6606TIP3    H141377   4.530   1.687   1.713 -2.4499 -0.4969 -0.2595
 6606TIP3    H241378   4.463   1.823   1.708  1.6774  1.6864 -0.3891
 6607TIP3   OH241379   3.770   2.566   1.628  0.4193 -0.0214  0.6181
 6607TIP3    H141380   3.864   2.573   1.643  0.2585  1.6798  1.1241
 6607TIP3    H241381   3.750   2.473   1.637  2.2823 -0.6213 -1.0255
 6608TIP3   OH241382   4.905   6.164   8.480 -0.2461  0.2360 -0.2998
 6608TIP3    H141383   4.813   6.151   8.459 -0.2940 -1.4857  0.7746
 6608TIP3    H241384   4.948   6.084   8.449  0.3423 -0.4277  2.0127
 6609TIP3   OH241385   2.651   1.597   7.955  0.5313  0.2060 -0.0370
 6609TIP3    H141386   2.604   1.646   7.887 -0.2840  0.2894  0.5708
 6609TIP3    H241387   2.595   1.604   8.032  1.4139  0.0650  0.6348
 6610TIP3   OH241388   2.764   0.027   8.292 -0.1706 -0.3458  0.0496
 6610TIP3    H141389   2.688   0.031   8.350 -0.4171  0.7238 -0.3415
 6610TIP3    H241390   2.822   0.096   8.323  0.9632 -1.5592  0.7579
 6611TIP3   OH241391   3.035   2.054   2.486  0.3020 -0.0162 -0.0305
 6611TIP3    H141392   3.068   2.062   2.576 -0.1049  1.6402  0.0007
 6611TIP3    H241393   2.959   1.995   2.494  0.1078  0.3233  0.7568
 6612TIP3   OH241394   6.247   4.665   7.522 -0.1761  0.1936  0.2888
 6612TIP3    H141395   6.279   4.575   7.525  1.0155  0.5092 -1.4239
 6612TIP3    H241396   6.323   4.718   7.544 -0.3697  0.8514 -0.6046
 6613TIP3   OH241397   3.992   1.324   1.326 -0.1764  0.2696 -0.1081
 6613TIP3    H141398   4.075   1.279   1.312  0.1222  0.4950  0.8292
 6613TIP3    H241399   3.954   1.280   1.402 -0.1796  1.1715  0.4250
 6614TIP3   OH241400   4.224   4.055   3.036  0.8062 -0.4216 -0.0409
 6614TIP3    H141401   4.282   4.002   2.981  0.3749  0.1354 -1.0480
 6614TIP3    H241402   4.184   4.118   2.976  0.6764  0.5124  0.9934
 6615TIP3   OH241403   2.836   0.513   1.427  0.0289  0.0144 -0.1448
 6615TIP3    H141404   2.813   0.425   1.397 -1.3420  0.5725 -0.8322
 6615TIP3    H241405   2.922   0.503   1.468  0.7538 -1.2894 -1.8740
 6616TIP3   OH241406   0.406   2.897   7.215  0.2094 -0.4597 -0.0238
 6616TIP3    H141407   0.332   2.942   7.256 -0.7110  0.2819 -2.2755
 6616TIP3    H241408   0.419   2.945   7.132  1.6999 -2.0296 -0.7595
 6617TIP3   OH241409   2.080   1.981   6.954 -0.3883  0.2290 -0.3747
 6617TIP3    H141410   2.172   1.978   6.981 -1.0571 -3.1715  2.1348
 6617TIP3    H241411   2.037   2.033   7.023 -0.7747 -0.9950  0.3409
 6618TIP3   OH241412   0.855   1.846   7.585 -0.2012  0.6281  0.0136
 6618TIP3    H141413   0.784   1.793   7.622  0.3872  0.2031  0.5319
 6618TIP3    H241414   0.926   1.839   7.648  0.3490  0.9634 -0.5622
 6619TIP3   OH241415   5.809   1.332   2.523  0.5118  0.5787  0.2557
 6619TIP3    H141416   5.828   1.269   2.592 -1.9759  0.3491  0.8292
 6619TIP3    H241417   5.792   1.278   2.446  2.7064  0.8137 -0.4731
 6620TIP3   OH241418   1.986   1.530   7.585  0.2147  0.0733  0.0671
 6620TIP3    H141419   1.983   1.453   7.528 -1.9520 -0.2119  0.4646
 6620TIP3    H241420   1.923   1.591   7.546  0.1474  0.6606  1.0542
 6621TIP3   OH241421   4.398   3.958   7.344  0.3596  0.2161 -0.8888
 6621TIP3    H141422   4.442   3.961   7.259 -0.0204  0.7518 -1.0771
 6621TIP3    H241423   4.320   3.905   7.329  0.5896 -0.1709 -0.7256
 6622TIP3   OH241424   0.779   4.852   1.257 -0.2741 -0.4500  0.0095
 6622TIP3    H141425   0.788   4.767   1.299  1.5805  0.1684  0.9432
 6622TIP3    H241426   0.852   4.857   1.195 -0.2624  0.5039  0.0736
 6623TIP3   OH241427   0.897   4.984   0.498 -0.0995 -0.1622 -0.0590
 6623TIP3    H141428   0.917   4.965   0.406 -1.6407  0.6168 -0.6020
 6623TIP3    H241429   0.831   5.053   0.494 -0.9300 -0.7931  1.5992
 6624TIP3   OH241430   1.836   3.114   0.868 -0.3806 -0.5032  0.5584
 6624TIP3    H141431   1.748   3.143   0.891 -1.1957 -2.8470  0.5914
 6624TIP3    H241432   1.892   3.189   0.890 -2.1667  0.5189  1.8793
 6625TIP3   OH241433   5.092   0.531   7.963  0.1927  0.1158  0.0552
 6625TIP3    H141434   5.146   0.599   8.002 -0.2515 -0.7933  2.4501
 6625TIP3    H241435   5.015   0.526   8.020 -1.8655  0.4917 -2.5078
 6626TIP3   OH241436   1.704   4.302   7.707 -0.0423  0.5696  0.1396
 6626TIP3    H141437   1.615   4.332   7.689 -0.0921  1.7878  2.0681
 6626TIP3    H241438   1.741   4.283   7.621 -2.0362  0.3750 -0.7344
 6627TIP3   OH241439   3.729   6.218   8.489 -0.3653  0.1525  0.3150
 6627TIP3    H141440   3.689   6.248   8.407 -0.4544  1.7068  0.8874
 6627TIP3    H241441   3.823   6.229   8.476 -0.3820  0.4409  0.4237
 6628TIP3   OH241442   5.238   0.050   7.269 -0.4823 -0.1811  0.5039
 6628TIP3    H141443   5.267   0.089   7.187 -0.9984  0.4163  0.6022
 6628TIP3    H241444   5.142   0.052   7.264 -0.6399 -3.5739 -0.5265
 6629TIP3   OH241445   1.317   0.356   0.230 -0.1561  0.6560 -0.1180
 6629TIP3    H141446   1.245   0.358   0.293  1.7220  1.1499  2.1597
 6629TIP3    H241447   1.350   0.266   0.234  0.8707  1.0458  0.7634
 6630TIP3   OH241448   4.118   0.728   6.652 -0.3635 -0.0255 -0.0934
 6630TIP3    H141449   4.197   0.781   6.660 -0.6654  0.4459 -0.2163
 6630TIP3    H241450   4.046   0.791   6.655 -0.8584 -0.6090  2.0723
 6631TIP3   OH241451   0.714   1.934   2.642 -0.1785 -0.5397 -0.3797
 6631TIP3    H141452   0.634   1.882   2.648 -1.1486  0.6601 -2.2516
 6631TIP3    H241453   0.698   2.010   2.698  1.1518 -2.0011  2.1723
 6632TIP3   OH241454   4.583   4.388   2.109  0.0585 -0.3555 -0.5767
 6632TIP3    H141455   4.579   4.482   2.129  2.5171 -0.6033  1.6481
 6632TIP3    H241456   4.574   4.345   2.194  1.7037 -1.9852 -1.1581
 6633TIP3   OH241457   2.649   3.234   6.302  0.0521  0.5930 -0.1925
 6633TIP3    H141458   2.686   3.187   6.376  0.3653  1.3058  0.1077
 6633TIP3    H241459   2.554   3.222   6.311  0.1675 -1.1182 -0.8924
 6634TIP3   OH241460   4.440   6.897   0.755 -0.4926  0.1647  0.1575
 6634TIP3    H141461   4.441   6.992   0.766  0.9082 -0.0739  2.8839
 6634TIP3    H241462   4.350   6.871   0.776  0.1601  0.5745  4.0675
 6635TIP3   OH241463   2.172   1.777   7.383  0.1770  0.5353  0.0928
 6635TIP3    H141464   2.221   1.845   7.428 -1.2117  2.5280 -1.2070
 6635TIP3    H241465   2.082   1.809   7.381 -0.1794 -0.3598 -2.3102
 6636TIP3   OH241466   0.753   5.003   6.704  0.0820 -0.2038 -0.5097
 6636TIP3    H141467   0.834   5.013   6.655  0.7313 -1.6947  0.1933
 6636TIP3    H241468   0.735   4.909   6.703 -1.7704  0.1104 -0.8298
 6637TIP3   OH241469   1.902   4.261   2.660  0.2100 -0.0723  0.0869
 6637TIP3    H141470   1.951   4.291   2.583 -1.4227 -1.5534 -1.6199
 6637TIP3    H241471   1.903   4.165   2.653  1.0895 -0.3400  2.6682
 6638TIP3   OH241472   6.517   5.583   8.415 -0.3493  0.1921 -0.0512
 6638TIP3    H141473   6.461   5.612   8.487  0.0693 -0.6585  0.6274
 6638TIP3    H241474   6.456   5.563   8.344 -0.7222  1.7034 -0.1951
 6639TIP3   OH241475   4.912   3.378   7.856  0.1712  0.5231  0.2541
 6639TIP3    H141476   4.839   3.396   7.796  0.6793 -0.6947 -0.7740
 6639TIP3    H241477   4.953   3.464   7.869 -0.5902  0.9867 -0.2940
 6640TIP3   OH241478   0.325   0.362   0.849 -0.5988  0.1467  0.0877
 6640TIP3    H141479   0.276   0.363   0.767  0.9850  1.2698 -0.9147
 6640TIP3    H241480   0.413   0.333   0.824 -0.3590 -0.4901  1.5769
 6641TIP3   OH241481   2.566   1.810   1.483  0.3539  0.3755 -0.7894
 6641TIP3    H141482   2.559   1.901   1.514 -0.2689 -0.0532  0.3461
 6641TIP3    H241483   2.659   1.800   1.461  1.2464  0.2289  2.5330
 6642TIP3   OH241484   3.813   1.973   0.099 -0.1006  0.3275  0.1536
 6642TIP3    H141485   3.816   2.047   0.161  0.3719  1.2679 -0.9520
 6642TIP3    H241486   3.828   1.896   0.153  0.0765  1.1058  1.2499
 6643TIP3   OH241487   4.389   2.425   1.071  0.0682  0.4588 -0.0866
 6643TIP3    H141488   4.309   2.410   1.022 -0.2232 -0.2978  0.6026
 6643TIP3    H241489   4.400   2.346   1.123  0.5762  1.0912  0.7802
 6644TIP3   OH241490   3.677   1.202   7.505  0.4239 -0.2826  0.2530
 6644TIP3    H141491   3.662   1.117   7.466 -0.4655  0.8643 -2.0926
 6644TIP3    H241492   3.591   1.245   7.503  0.7498  0.5462  1.7988
 6645TIP3   OH241493   3.235   2.917   7.757 -0.3736  0.5845 -0.1495
 6645TIP3    H141494   3.266   2.906   7.847 -1.5028  2.8767  0.5831
 6645TIP3    H241495   3.296   2.980   7.719  0.8239 -1.2574 -1.4510
 6646TIP3   OH241496   5.181   2.406   2.149  0.1158 -0.4549 -0.3135
 6646TIP3    H141497   5.127   2.333   2.177  0.6158 -0.9182 -0.5291
 6646TIP3    H241498   5.213   2.380   2.062  0.6228 -0.1636 -0.2206
 6647TIP3   OH241499   4.684   2.076   6.463 -0.1422  0.4946 -0.5465
 6647TIP3    H141500   4.736   2.097   6.540 -0.2857 -0.5892 -0.1405
 6647TIP3    H241501   4.646   2.160   6.436 -1.4190  0.6665  1.5417
 6648TIP3   OH241502   0.590   5.154   7.245  0.3095 -0.5310 -0.5331
 6648TIP3    H141503   0.579   5.244   7.216 -0.4391 -0.2208  0.6368
 6648TIP3    H241504   0.685   5.139   7.243  0.3722 -0.0535 -1.6541
 6649TIP3   OH241505   1.425   5.922   1.609 -0.0814  0.2163 -0.0960
 6649TIP3    H141506   1.482   5.997   1.595 -0.6085  0.5414 -0.5227
 6649TIP3    H241507   1.401   5.893   1.521  1.6785 -1.6829 -0.0469
 6650TIP3   OH241508   5.688   6.013   0.445 -0.3728 -0.6544  0.3295
 6650TIP3    H141509   5.668   5.938   0.388  2.8249 -0.9425 -0.6293
 6650TIP3    H241510   5.701   5.973   0.531 -0.4245 -0.9384  0.2096
 6651TIP3   OH241511   5.303   4.936   8.378 -0.3247  0.3226  0.3812
 6651TIP3    H141512   5.283   4.967   8.466  2.4658  1.7136  0.6298
 6651TIP3    H241513   5.273   4.845   8.377 -2.3765  0.9126  1.9866
 6652TIP3   OH241514   3.274   1.957   2.430 -0.4980 -1.0896 -0.3785
 6652TIP3    H141515   3.254   1.896   2.359 -0.6235 -0.8268 -0.5721
 6652TIP3    H241516   3.194   2.010   2.438 -0.3184 -0.8248 -0.3425
 6653TIP3   OH241517   4.284   3.656   0.991 -0.4762 -0.3136  0.5653
 6653TIP3    H141518   4.295   3.561   0.993 -3.7459 -0.7941  1.2080
 6653TIP3    H241519   4.338   3.688   1.063  2.5713 -1.3082 -1.1017
 6654TIP3   OH241520   2.826   0.261   1.754 -0.3275 -0.7728 -0.0595
 6654TIP3    H141521   2.767   0.191   1.783 -0.0960 -1.4672 -1.2240
 6654TIP3    H241522   2.791   0.288   1.669 -0.6230  0.8047  0.5265
 6655TIP3   OH241523   0.119   6.891   1.777  0.0814  0.1105  0.1363
 6655TIP3    H141524   0.103   6.798   1.795 -1.1203  0.1240 -0.6942
 6655TIP3    H241525   0.159   6.891   1.690 -1.0976  0.4125 -0.4292
 6656TIP3   OH241526   6.818   3.814   7.337 -0.5867  0.3097 -0.7354
 6656TIP3    H141527   6.826   3.724   7.368 -2.1894 -0.4488 -2.3372
 6656TIP3    H241528   6.731   3.842   7.366 -0.5028  0.9847 -1.1025
 6657TIP3   OH241529   5.710   2.483   1.550  0.0406  0.0747  0.0440
 6657TIP3    H141530   5.738   2.396   1.520  0.4923 -0.1897  1.1974
 6657TIP3    H241531   5.791   2.533   1.558 -0.1880  0.5061 -0.2896
 6658TIP3   OH241532   3.278   3.445   0.586  0.2379  0.5704  0.2950
 6658TIP3    H141533   3.281   3.357   0.624  0.0736  0.3827 -0.1188
 6658TIP3    H241534   3.369   3.464   0.563  0.0955 -0.0594 -0.8756
 6659TIP3   OH241535   2.759   6.181   6.838 -0.0242  1.0728  0.0025
 6659TIP3    H141536   2.673   6.173   6.879 -0.4236 -1.1921 -1.0805
 6659TIP3    H241537   2.807   6.105   6.869  1.1122  1.5863 -0.4636
 6660TIP3   OH241538   4.847   3.978   1.487  0.4747 -0.1284  0.0743
 6660TIP3    H141539   4.795   4.058   1.497 -1.3687 -1.0052 -1.9234
 6660TIP3    H241540   4.917   4.002   1.426 -0.1936 -0.0731 -0.6805
 6661TIP3   OH241541   5.965   1.179   1.349  0.0896  0.0536 -0.1642
 6661TIP3    H141542   6.034   1.224   1.398 -1.4198  0.5843  1.5694
 6661TIP3    H241543   5.913   1.249   1.310 -0.0751 -0.3139 -0.6155
 6662TIP3   OH241544   6.193   6.171   0.139 -0.3881  0.2513 -0.0286
 6662TIP3    H141545   6.256   6.160   0.210 -2.6647  2.0208  2.4749
 6662TIP3    H241546   6.220   6.251   0.094  0.4337 -0.2753 -0.4951
 6663TIP3   OH241547   2.377   6.309   2.979 -0.3740  0.3523  0.1593
 6663TIP3    H141548   2.435   6.309   2.902 -2.8959  0.6478 -1.8948
 6663TIP3    H241549   2.327   6.389   2.971 -0.8604  0.2835  2.0736
 6664TIP3   OH241550   4.453   0.529   2.707 -0.2689 -0.0642 -0.3689
 6664TIP3    H141551   4.380   0.509   2.766  0.2262  0.0671  0.3026
 6664TIP3    H241552   4.432   0.482   2.626 -1.3771  0.4244 -0.3908
 6665TIP3   OH241553   3.375   0.909   0.623  0.0362 -0.1167 -0.5636
 6665TIP3    H141554   3.347   0.980   0.681 -0.0909  0.0913 -0.8734
 6665TIP3    H241555   3.302   0.898   0.561 -0.8543 -1.9140  0.7194
 6666TIP3   OH241556   3.728   5.853   7.618  0.4043 -0.3544 -0.1985
 6666TIP3    H141557   3.641   5.886   7.598  0.1213 -1.6112 -1.1869
 6666TIP3    H241558   3.716   5.758   7.629  1.2623 -0.2578  2.0109
 6667TIP3   OH241559   6.592   5.014   8.086 -0.7203 -0.1188 -0.5569
 6667TIP3    H141560   6.620   5.017   7.994  0.0279  1.3417 -0.3136
 6667TIP3    H241561   6.557   4.925   8.097  3.5634 -2.1239 -1.0079
 6668TIP3   OH241562   5.285   6.729   1.032 -0.0364 -0.4319 -0.0667
 6668TIP3    H141563   5.380   6.737   1.035 -0.1455  0.8871  1.5826
 6668TIP3    H241564   5.253   6.817   1.052 -1.6277 -0.7688 -0.9078
 6669TIP3   OH241565   1.708   4.393   8.049  0.5895  0.3869  0.3504
 6669TIP3    H141566   1.801   4.384   8.071  0.0555 -1.8392  2.1076
 6669TIP3    H241567   1.690   4.486   8.063  2.4611  0.8021  0.3402
 6670TIP3   OH241568   0.267   5.026   1.857  0.4105 -0.4589 -0.0562
 6670TIP3    H141569   0.215   4.947   1.841  1.6649 -1.0857 -1.3086
 6670TIP3    H241570   0.326   5.001   1.928 -0.6715  0.1050  1.0610
 6671TIP3   OH241571   2.860   5.361   0.843 -0.0756 -0.6123  0.2498
 6671TIP3    H141572   2.875   5.389   0.753  0.3910 -0.7671  0.2804
 6671TIP3    H241573   2.947   5.339   0.877 -0.4987 -3.1433 -0.1114
 6672TIP3   OH241574   1.196   1.708   8.063  0.0793 -0.9280 -0.1871
 6672TIP3    H141575   1.173   1.658   7.985 -0.2613 -2.4474  0.8563
 6672TIP3    H241576   1.284   1.741   8.044  0.4154 -2.1199 -0.8100
 6673TIP3   OH241577   4.590   6.340   7.791 -0.0432 -0.1757 -0.3213
 6673TIP3    H141578   4.498   6.311   7.794  0.1198 -0.9200 -1.8433
 6673TIP3    H241579   4.640   6.260   7.784  0.7286  0.2590  0.0840
 6674TIP3   OH241580   6.819   5.501   0.205 -0.3649  0.8854 -0.0523
 6674TIP3    H141581   6.881   5.430   0.220 -0.0895  0.3107 -3.1946
 6674TIP3    H241582   6.739   5.457   0.176 -0.7522  1.7863 -0.3953
 6675TIP3   OH241583   6.009   4.063   0.097 -0.5058  0.0710 -0.3738
 6675TIP3    H141584   6.086   4.011   0.074  0.6963  1.5142  0.2080
 6675TIP3    H241585   5.967   4.014   0.168 -0.1571 -0.7480 -0.7222
 6676TIP3   OH241586   6.165   1.397   7.121 -0.0300 -0.3375  0.0003
 6676TIP3    H141587   6.240   1.444   7.083  0.7296 -0.6914  1.0159
 6676TIP3    H241588   6.158   1.430   7.210 -0.9521 -0.4732 -0.0199
 6677TIP3   OH241589   2.636   5.799   0.630 -0.7828 -0.3544 -0.1377
 6677TIP3    H141590   2.669   5.730   0.572 -0.3737 -1.2244  1.0632
 6677TIP3    H241591   2.671   5.775   0.716 -1.9985  0.4549  0.6090
 6678TIP3   OH241592   1.981   1.107   7.368 -0.4444 -0.0614  0.3582
 6678TIP3    H141593   1.892   1.133   7.392 -1.3509 -1.8534 -0.8192
 6678TIP3    H241594   1.978   1.101   7.272  0.9304 -0.1982  0.3139
 6679TIP3   OH241595   4.997   0.222   8.467  0.1224  0.2118  0.2227
 6679TIP3    H141596   4.962   0.226   8.378 -0.9261  1.6275  0.6531
 6679TIP3    H241597   4.962   0.141   8.504 -0.3106  0.1535 -0.3084
 6680TIP3   OH241598   5.507   0.979   1.469 -0.7251 -0.5798 -0.5147
 6680TIP3    H141599   5.600   0.962   1.456 -0.9656 -3.9309  1.0044
 6680TIP3    H241600   5.473   0.999   1.382  1.3854  0.8489 -1.0698
 6681TIP3   OH241601   5.035   3.343   0.180  0.0177  0.3234  1.0361
 6681TIP3    H141602   4.939   3.350   0.183 -0.0027  0.0661  0.9879
 6681TIP3    H241603   5.060   3.387   0.098  0.1552  2.7140  2.2626
 6682TIP3   OH241604   5.343   3.852   0.176  0.1943 -0.1853 -0.4558
 6682TIP3    H141605   5.249   3.839   0.169 -0.1365  1.3834  0.6011
 6682TIP3    H241606   5.380   3.805   0.101 -1.1829 -2.8963  0.4446
 6683TIP3   OH241607   4.987   1.343   1.180 -0.2649 -0.5070  0.1507
 6683TIP3    H141608   5.081   1.341   1.198  0.0468 -0.1071 -1.3334
 6683TIP3    H241609   4.971   1.430   1.145 -1.5174  0.0229  1.9018
 6684TIP3   OH241610   0.344   5.582   1.980  0.1848  0.1557 -0.3730
 6684TIP3    H141611   0.358   5.592   1.886  0.6891  0.2601 -0.2875
 6684TIP3    H241612   0.288   5.655   2.004 -1.6717 -1.0057 -0.9594
 6685TIP3   OH241613   3.640   0.946   7.426  0.1977  0.5719  0.4229
 6685TIP3    H141614   3.583   0.890   7.478  1.7668 -2.7076 -1.1199
 6685TIP3    H241615   3.608   0.937   7.336  1.4054  0.9326 -0.0738
 6686TIP3   OH241616   4.799   0.185   6.516 -0.1465 -0.9151  0.4416
 6686TIP3    H141617   4.860   0.258   6.517  0.2096 -1.1987  1.7643
 6686TIP3    H241618   4.854   0.108   6.498 -0.4349 -0.9227 -0.4148
 6687TIP3   OH241619   6.225   2.993   7.998 -0.1617  0.2374 -0.1097
 6687TIP3    H141620   6.308   2.986   7.951 -1.3779 -1.5283 -2.2476
 6687TIP3    H241621   6.222   3.083   8.030  2.2535  0.5238 -0.5407
 6688TIP3   OH241622   3.313   6.302   1.969  0.0995 -0.2859 -0.1423
 6688TIP3    H141623   3.406   6.313   1.992 -0.1898 -0.2583  1.0436
 6688TIP3    H241624   3.284   6.390   1.947  0.2139 -0.2083  0.0167
 6689TIP3   OH241625   1.636   5.997   8.403  0.6164 -0.2923 -0.1815
 6689TIP3    H141626   1.685   6.008   8.321 -0.4141  0.8007 -0.6728
 6689TIP3    H241627   1.625   6.086   8.436 -3.1777 -0.1520 -1.3871
 6690TIP3   OH241628   2.147   5.011   0.380 -0.5502  0.4972  0.8246
 6690TIP3    H141629   2.210   4.959   0.431 -0.1569 -0.0210 -0.1583
 6690TIP3    H241630   2.061   4.978   0.407 -0.3055 -0.6426  0.2629
 6691TIP3   OH241631   6.041   4.675   7.696 -0.4475 -0.3623 -0.0006
 6691TIP3    H141632   6.060   4.763   7.727  0.3143 -0.9979  1.4397
 6691TIP3    H241633   6.114   4.654   7.637 -0.2464 -0.3034  0.2275
 6692TIP3   OH241634   5.674   5.626   8.405  0.0356 -0.1617 -0.0799
 6692TIP3    H141635   5.753   5.680   8.405  0.0756 -0.2208 -0.7999
 6692TIP3    H241636   5.603   5.688   8.422  0.0989  0.1029 -0.7474
 6693TIP3   OH241637   1.177   0.553   0.895  0.3154  0.4134 -0.8783
 6693TIP3    H141638   1.160   0.631   0.948 -1.6680 -1.4914  1.5470
 6693TIP3    H241639   1.250   0.510   0.938 -1.8707 -1.6043  1.0991
 6694TIP3   OH241640   5.587   5.672   7.834 -0.0105 -0.1911  0.5463
 6694TIP3    H141641   5.519   5.619   7.792  0.4066  0.4965 -1.0897
 6694TIP3    H241642   5.664   5.615   7.838 -0.2785 -0.5167  1.1199
 6695TIP3   OH241643   0.129   4.123   7.935 -0.4479 -0.0044  0.3405
 6695TIP3    H141644   0.067   4.190   7.964 -0.3731 -0.0076  0.5112
 6695TIP3    H241645   0.215   4.159   7.955 -0.4288 -0.5646  1.3735
 6696TIP3   OH241646   1.874   3.693   0.066  0.2230  0.0735  0.1426
 6696TIP3    H141647   1.848   3.784   0.049  1.4953  0.3561 -0.4166
 6696TIP3    H241648   1.794   3.642   0.050 -0.5041  1.0827  0.4497
 6697TIP3   OH241649   0.479   1.471   7.902 -0.3241 -0.3260 -0.5171
 6697TIP3    H141650   0.473   1.548   7.958  1.9180 -0.9284  0.6550
 6697TIP3    H241651   0.412   1.485   7.834  0.4063  2.9267 -0.7103
 6698TIP3   OH241652   1.279   1.721   0.320  0.0121  0.0211  0.0626
 6698TIP3    H141653   1.202   1.775   0.304  0.9432  1.3266 -0.1679
 6698TIP3    H241654   1.353   1.776   0.294  1.0284 -1.1987  0.2732
 6699TIP3   OH241655   4.705   6.105   1.054  0.2002  0.3024  0.0721
 6699TIP3    H141656   4.693   6.058   0.972 -0.0823 -2.9384  1.8200
 6699TIP3    H241657   4.620   6.144   1.073 -0.1378 -0.1695 -0.4631
 6700TIP3   OH241658   3.334   5.215   8.187 -0.4308  0.0115 -0.2900
 6700TIP3    H141659   3.359   5.149   8.122  1.7780 -1.0104  1.4515
 6700TIP3    H241660   3.369   5.297   8.152  0.9948 -0.5761 -0.3173
 6701TIP3   OH241661   4.062   6.123   1.802 -0.3402  0.1550  0.4059
 6701TIP3    H141662   4.121   6.167   1.740  0.4199 -0.1989  0.8589
 6701TIP3    H241663   4.119   6.062   1.850 -1.7007 -2.9170 -1.6240
 6702TIP3   OH241664   2.307   2.489   6.442 -0.0304  0.4783  0.0747
 6702TIP3    H141665   2.275   2.407   6.405  1.4539  0.7316 -1.9594
 6702TIP3    H241666   2.382   2.463   6.496  0.8059  0.4973 -1.0382
 6703TIP3   OH241667   5.597   5.740   0.421 -0.3842 -0.0514 -0.3292
 6703TIP3    H141668   5.617   5.732   0.327  0.3263  2.0367 -0.4063
 6703TIP3    H241669   5.680   5.720   0.465 -0.2620  0.6498 -0.2367
 6704TIP3   OH241670   4.700   3.236   1.565  0.0817 -0.3076 -0.1796
 6704TIP3    H141671   4.777   3.180   1.557  1.9131  2.1200 -0.4716
 6704TIP3    H241672   4.668   3.221   1.654  0.9561 -1.2546 -0.0086
 6705TIP3   OH241673   3.624   3.960   0.846 -0.3325 -0.3240  0.5322
 6705TIP3    H141674   3.600   4.050   0.867  1.1550  0.2574 -0.1259
 6705TIP3    H241675   3.714   3.951   0.877  1.6694  0.2530 -4.2080
 6706TIP3   OH241676   6.706   6.231   8.052  0.0184 -0.1184 -0.4258
 6706TIP3    H141677   6.627   6.282   8.037 -1.6352 -2.2867  0.3393
 6706TIP3    H241678   6.740   6.263   8.135  0.5992  1.5424 -1.2585
 6707TIP3   OH241679   3.299   2.826   8.028  0.1100 -0.3892  0.3378
 6707TIP3    H141680   3.344   2.899   8.071  3.6772 -2.3816  0.3413
 6707TIP3    H241681   3.306   2.754   8.090 -0.5608 -1.5577 -0.9087
 6708TIP3   OH241682   2.473   1.815   7.226  0.1471  0.2957 -0.4200
 6708TIP3    H141683   2.423   1.882   7.273 -2.1928 -0.1677 -2.0412
 6708TIP3    H241684   2.452   1.733   7.270  1.4851  0.3449  0.3750
 6709TIP3   OH241685   6.027   0.799   1.401 -0.0072  0.2526  0.3518
 6709TIP3    H141686   6.026   0.875   1.344 -0.9922  0.6458  0.8606
 6709TIP3    H241687   6.106   0.808   1.454  1.5498 -0.7230 -1.6974
 6710TIP3   OH241688   0.831   2.355   1.633 -0.2186  0.4112  0.0634
 6710TIP3    H141689   0.814   2.376   1.725  3.1417  0.4710  0.8217
 6710TIP3    H241690   0.911   2.302   1.635 -1.3516 -1.6275 -2.7221
 6711TIP3   OH241691   4.787   5.836   0.249  0.0716 -0.3157  0.1286
 6711TIP3    H141692   4.864   5.814   0.196 -0.9181 -0.2468 -1.3901
 6711TIP3    H241693   4.817   5.909   0.304  1.4758 -1.1686  0.5518
 6712TIP3   OH241694   2.250   2.653   1.864 -0.0826  0.3061 -0.5365
 6712TIP3    H141695   2.314   2.637   1.934 -0.9336  0.0495  0.2019
 6712TIP3    H241696   2.166   2.656   1.909 -0.4492  2.3916 -1.2506
 6713TIP3   OH241697   0.469   1.276   2.014 -0.0454  0.6785 -0.3638
 6713TIP3    H141698   0.407   1.277   2.087 -0.8068 -0.8732 -0.9467
 6713TIP3    H241699   0.521   1.355   2.026 -0.6130  0.8262  1.4557
 6714TIP3   OH241700   2.667   4.640   2.234  0.3395  0.1124  0.1459
 6714TIP3    H141701   2.725   4.583   2.285 -1.2157 -3.1031 -1.3837
 6714TIP3    H241702   2.581   4.629   2.273 -0.3856 -0.3320 -1.4836
 6715TIP3   OH241703   0.513   4.159   1.014 -0.1355  0.0586 -0.5469
 6715TIP3    H141704   0.461   4.175   1.093 -1.6188  0.2962 -1.5240
 6715TIP3    H241705   0.572   4.234   1.008 -0.3237  0.2612  0.0998
 6716TIP3   OH241706   2.792   0.486   2.253  0.2422 -0.4777  0.4439
 6716TIP3    H141707   2.828   0.488   2.164 -0.8650  0.8203 -0.0119
 6716TIP3    H241708   2.805   0.396   2.282  2.1279 -0.5162 -0.3845
 6717TIP3   OH241709   2.406   3.017   7.766 -0.5765 -0.2194  0.7283
 6717TIP3    H141710   2.336   3.009   7.700 -0.0226 -0.7369  0.1851
 6717TIP3    H241711   2.469   3.077   7.727 -0.6074  0.0659  1.1176
 6718TIP3   OH241712   4.472   2.165   7.709 -0.2275 -0.1936  0.6883
 6718TIP3    H141713   4.564   2.190   7.716 -0.5191  1.3272 -0.6051
 6718TIP3    H241714   4.462   2.135   7.619 -1.1438  0.3036  0.6173
 6719TIP3   OH241715   3.057   3.237   0.347  0.0686  0.4714  0.1856
 6719TIP3    H141716   2.973   3.267   0.312 -0.9616 -0.2370  1.9359
 6719TIP3    H241717   3.112   3.315   0.348 -0.5772  0.9603 -0.9384
 6720TIP3   OH241718   0.631   0.316   0.857  0.4381  0.5243  0.1997
 6720TIP3    H141719   0.715   0.361   0.849  0.7654 -0.0976  0.0328
 6720TIP3    H241720   0.617   0.309   0.951 -0.5413  2.6196  0.2741
 6721TIP3   OH241721   4.648   0.578   0.118  0.7046  0.1245 -0.2176
 6721TIP3    H141722   4.567   0.537   0.148  0.2189 -0.0469 -1.6995
 6721TIP3    H241723   4.650   0.563   0.024  1.8288  1.2467 -0.4085
 6722TIP3   OH241724   6.820   5.159   7.735 -0.7534 -0.0281  0.2634
 6722TIP3    H141725   6.909   5.124   7.725 -1.4871 -1.8276 -0.3113
 6722TIP3    H241726   6.833   5.254   7.742  1.1024 -0.0636 -1.5368
 6723TIP3   OH241727   4.981   3.123   2.802  0.2560 -0.4315 -0.1127
 6723TIP3    H141728   4.950   3.032   2.800 -0.6967 -0.1162 -2.1977
 6723TIP3    H241729   5.021   3.137   2.716  0.0454  1.2293  0.0260
 6724TIP3   OH241730   5.328   5.993   2.248 -0.4531  0.1154  0.1381
 6724TIP3    H141731   5.416   6.019   2.275 -0.6611  0.9345  0.0601
 6724TIP3    H241732   5.300   6.062   2.187 -1.3663  0.1666  0.5985
 6725TIP3   OH241733   6.387   1.185   6.970  0.0339  0.1737 -0.1755
 6725TIP3    H141734   6.377   1.231   6.886 -2.3731 -0.8051 -0.5118
 6725TIP3    H241735   6.427   1.250   7.028 -1.5733  2.1190 -1.1153
 6726TIP3   OH241736   6.936   6.229   7.358  0.3133 -0.0750 -0.3482
 6726TIP3    H141737   6.892   6.303   7.400  0.5830 -0.3840  0.5155
 6726TIP3    H241738   7.019   6.220   7.406  0.6548 -0.4101 -0.9942
 6727TIP3   OH241739   4.514   2.755   0.773  0.5355  0.1984 -0.5364
 6727TIP3    H141740   4.558   2.807   0.841  0.7400 -0.3213 -0.2705
 6727TIP3    H241741   4.428   2.735   0.810  1.3903 -1.8907  0.4960
 6728TIP3   OH241742   4.997   0.596   0.181 -0.9188 -0.1551 -0.0336
 6728TIP3    H141743   4.967   0.604   0.271  0.3014  1.3173  0.2766
 6728TIP3    H241744   4.931   0.643   0.130 -0.7225  0.5013  0.3026
 6729TIP3   OH241745   4.678   4.431   1.057 -0.1651 -0.2617 -0.0560
 6729TIP3    H141746   4.660   4.360   1.118 -1.8572  0.1054 -0.0711
 6729TIP3    H241747   4.744   4.396   0.998 -1.5446 -2.1650 -0.5805
 6730TIP3   OH241748   0.719   5.156   2.102  0.6695  0.2646 -0.0420
 6730TIP3    H141749   0.674   5.072   2.104  0.9394  0.1343  0.9182
 6730TIP3    H241750   0.713   5.189   2.192  2.5607  0.2115  0.1315
 6731TIP3   OH241751   6.557   2.853   7.556 -0.4167 -0.4672  0.2473
 6731TIP3    H141752   6.517   2.817   7.477  1.2063  0.8542 -1.2758
 6731TIP3    H241753   6.580   2.777   7.609  1.1474 -1.6581 -1.9484
 6732TIP3   OH241754   2.747   6.568   2.806 -0.0034 -0.7944 -0.0603
 6732TIP3    H141755   2.665   6.524   2.787 -1.1901  0.0871  2.5571
 6732TIP3    H241756   2.769   6.541   2.895  3.8468 -2.8123 -1.3955
 6733TIP3   OH241757   3.301   6.910   7.399 -0.5939  0.1267 -0.4424
 6733TIP3    H141758   3.316   6.991   7.351  1.5865  0.9078  1.3699
 6733TIP3    H241759   3.351   6.844   7.352  0.0910  0.5094 -0.2624
 6734TIP3   OH241760   6.827   0.747   0.350 -0.3085 -0.0428  0.3933
 6734TIP3    H141761   6.848   0.658   0.380  0.4286  0.8068  2.6408
 6734TIP3    H241762   6.906   0.776   0.304  0.1737  0.0761  1.2741
 6735TIP3   OH241763   0.393   1.002   0.134 -0.1547  0.3865 -0.6028
 6735TIP3    H141764   0.411   0.988   0.041  1.0321 -0.5558 -0.2595
 6735TIP3    H241765   0.434   1.086   0.154  0.3964  0.1562 -0.7368
 6736TIP3   OH241766   2.068   1.899   0.421 -0.4284 -0.2814 -0.1597
 6736TIP3    H141767   2.064   1.909   0.326  1.2882  1.3250 -0.1121
 6736TIP3    H241768   2.156   1.929   0.445 -0.9232 -0.3765  1.9836
 6737TIP3   OH241769   4.727   2.642   1.407  0.3252 -0.0713  0.1329
 6737TIP3    H141770   4.699   2.560   1.365 -0.2400  0.8340 -1.3530
 6737TIP3    H241771   4.649   2.674   1.452  0.6122 -0.4572  0.9157
 6738TIP3   OH241772   5.266   2.177   6.597  0.2708 -0.1689  0.3732
 6738TIP3    H141773   5.202   2.208   6.534 -1.4596  0.0156  2.1163
 6738TIP3    H241774   5.228   2.096   6.632  1.9340 -1.1203  0.0812
 6739TIP3   OH241775   6.483   3.763   7.821  0.4808 -0.0896 -0.1012
 6739TIP3    H141776   6.476   3.859   7.823  0.9689  0.0009 -1.2889
 6739TIP3    H241777   6.393   3.732   7.812  0.2185  0.1951  1.4213
 6740TIP3   OH241778   2.691   3.445   1.203  0.2177 -0.3867 -0.1984
 6740TIP3    H141779   2.716   3.383   1.134 -1.8972 -2.1804  0.5332
 6740TIP3    H241780   2.698   3.395   1.284 -0.4320  0.6800  0.5387
 6741TIP3   OH241781   4.003   3.070   7.478  0.4578  0.3299  0.3387
 6741TIP3    H141782   3.983   3.126   7.553 -1.3909 -1.2755  1.1317
 6741TIP3    H241783   3.955   3.109   7.405  1.2953  1.2137  0.2366
 6742TIP3   OH241784   0.881   3.607   2.416 -0.1656 -0.0662 -0.1000
 6742TIP3    H141785   0.919   3.695   2.414  0.9997 -0.5246  0.6670
 6742TIP3    H241786   0.947   3.552   2.374 -0.6667 -0.6548 -0.1295
 6743TIP3   OH241787   3.793   0.593   0.381 -0.1801  0.0851 -0.2321
 6743TIP3    H141788   3.818   0.685   0.372  0.6759 -0.0558  0.4612
 6743TIP3    H241789   3.703   0.595   0.413 -0.2698  0.6773 -0.5193
 6744TIP3   OH241790   2.301   6.350   1.263 -0.1193 -0.1803 -0.3907
 6744TIP3    H141791   2.240   6.413   1.224  0.6892  1.8916  1.4799
 6744TIP3    H241792   2.319   6.385   1.350  0.5216 -2.9602  0.6955
 6745TIP3   OH241793   2.817   5.174   0.401  0.0185 -0.3126 -0.1024
 6745TIP3    H141794   2.724   5.199   0.399 -0.2305 -1.2020 -1.5316
 6745TIP3    H241795   2.816   5.079   0.408  0.8471 -0.3040  0.2716
 6746TIP3   OH241796   5.206   4.772   7.481 -0.4199  0.9278  0.7057
 6746TIP3    H141797   5.238   4.861   7.466  0.2108  0.4353 -1.2243
 6746TIP3    H241798   5.186   4.768   7.574  0.9943  2.6134  1.1150
 6747TIP3   OH241799   5.595   1.611   2.246 -0.9499 -0.5228  0.4185
 6747TIP3    H141800   5.652   1.565   2.184  1.1132  0.7155  1.2607
 6747TIP3    H241801   5.585   1.698   2.208 -1.2767 -0.3515  0.8913
 6748TIP3   OH241802   2.719   0.081   0.251  0.4838  0.0804 -0.0247
 6748TIP3    H141803   2.674   0.163   0.272  1.6733  0.8234 -0.2985
 6748TIP3    H241804   2.811   0.098   0.269  0.4913 -2.0579  2.4348
 6749TIP3   OH241805   5.881   6.810   7.463 -0.1981  0.0516 -0.2337
 6749TIP3    H141806   5.789   6.793   7.446 -0.1380  0.1912 -0.7208
 6749TIP3    H241807   5.899   6.892   7.418  0.1402  0.0785 -0.0545
 6750TIP3   OH241808   5.603   1.533   2.544 -0.0158 -0.6354 -0.3717
 6750TIP3    H141809   5.609   1.546   2.449  1.0805 -1.4268 -0.4280
 6750TIP3    H241810   5.666   1.463   2.563 -0.7098 -0.9636  0.8514
 6751TIP3   OH241811   6.569   0.413   1.004 -0.3725  0.5531 -0.4574
 6751TIP3    H141812   6.500   0.364   1.050  1.1851  1.9335  3.8190
 6751TIP3    H241813   6.524   0.453   0.929 -3.0138 -2.3645 -0.6374
 6752TIP3   OH241814   5.826   1.092   0.912  0.1619 -0.2935 -0.0470
 6752TIP3    H141815   5.862   1.031   0.847  0.0925 -1.1307  0.6846
 6752TIP3    H241816   5.733   1.068   0.917  0.0078  0.2634 -0.1715
 6753TIP3   OH241817   2.511   6.428   8.093 -0.5192  0.0808 -0.4622
 6753TIP3    H141818   2.543   6.338   8.100  0.9910  0.4714 -1.6636
 6753TIP3    H241819   2.448   6.437   8.165 -0.4215 -1.8014 -0.0842
 6754TIP3   OH241820   6.354   3.056   0.025 -0.0260  0.6556  0.6847
 6754TIP3    H141821   6.407   3.078  -0.052  1.0706  1.6364  1.6841
 6754TIP3    H241822   6.341   3.139   0.070  0.3852 -0.0645  2.1999
 6755TIP3   OH241823   5.092   3.121   0.340 -0.4600  0.1328  0.4604
 6755TIP3    H141824   5.180   3.109   0.303  0.2286  1.6497  1.5113
 6755TIP3    H241825   5.053   3.189   0.287 -1.8975 -1.9895 -1.3852
 6756TIP3   OH241826   1.645   5.467   7.323  0.3991 -0.2052  0.2649
 6756TIP3    H141827   1.712   5.405   7.351  0.1077 -1.4653 -1.7054
 6756TIP3    H241828   1.564   5.433   7.361  0.7544  1.3591  2.7116
 6757TIP3   OH241829   1.266   1.934   7.270 -0.1801 -0.3011 -0.3886
 6757TIP3    H141830   1.322   1.875   7.220 -2.2299 -1.2041 -1.7987
 6757TIP3    H241831   1.207   1.876   7.318 -0.5861  0.5882  0.2128
 6758TIP3   OH241832   5.025   4.115   0.883  0.0519  0.8991  0.3664
 6758TIP3    H141833   5.032   4.194   0.829  1.1979  1.0087  0.6447
 6758TIP3    H241834   4.992   4.047   0.824  1.4035  0.9861 -0.5088
 6759TIP3   OH241835   1.677   3.190   8.334  0.3734  0.7779  0.1495
 6759TIP3    H141836   1.624   3.191   8.255 -0.0586 -0.1735  0.4152
 6759TIP3    H241837   1.758   3.147   8.308 -1.3747 -3.6243  1.1347
 6760TIP3   OH241838   6.080   3.646   6.723 -0.1069  0.5207 -0.1522
 6760TIP3    H141839   6.092   3.667   6.815 -1.2686 -1.2340  0.4488
 6760TIP3    H241840   6.071   3.550   6.721  0.0762  0.5063 -2.1019
 6761TIP3   OH241841   4.211   4.202   0.034  0.3960  0.4909 -0.7630
 6761TIP3    H141842   4.204   4.197  -0.062  1.7585  0.2347 -0.8670
 6761TIP3    H241843   4.228   4.294   0.052  0.1095  0.5445 -0.7533
 6762TIP3   OH241844   0.674   1.443   1.734 -0.0146 -0.2717  0.4171
 6762TIP3    H141845   0.747   1.496   1.702 -0.4487  0.1506  0.1164
 6762TIP3    H241846   0.709   1.353   1.736 -0.1200 -0.4370 -1.7996
 6763TIP3   OH241847   5.717   5.430   0.649 -0.0797  0.2363 -0.0522
 6763TIP3    H141848   5.785   5.379   0.693  0.2179 -0.5340 -1.3719
 6763TIP3    H241849   5.764   5.504   0.609 -0.0082 -0.2848 -0.9455
 6764TIP3   OH241850   3.858   2.102   0.348  0.1568 -0.1009 -1.2022
 6764TIP3    H141851   3.897   2.088   0.435 -0.0488 -0.8404 -1.2204
 6764TIP3    H241852   3.831   2.194   0.348 -0.4567 -0.2666 -0.2262
 6765TIP3   OH241853   0.677   0.105   1.435 -0.0816 -0.0997 -0.3843
 6765TIP3    H141854   0.755   0.148   1.469 -0.9464  0.7895  0.5463
 6765TIP3    H241855   0.632   0.173   1.385 -1.7813  0.3396  1.6070
 6766TIP3   OH241856   1.722   1.851   8.289 -0.5367 -0.4110  0.3095
 6766TIP3    H141857   1.634   1.837   8.324  0.7886  0.7036  4.6938
 6766TIP3    H241858   1.720   1.941   8.254 -1.2880 -0.6600 -0.3146
 6767TIP3   OH241859   5.430   3.929   7.340  0.1427  0.5481 -0.0112
 6767TIP3    H141860   5.424   3.923   7.244 -0.7581  3.1835 -0.2102
 6767TIP3    H241861   5.450   3.840   7.368 -0.1297 -0.4383 -2.6078
 6768TIP3   OH241862   2.144   5.514   2.819 -0.3136  0.4885  0.1245
 6768TIP3    H141863   2.148   5.445   2.753 -0.0834  2.5652 -2.1610
 6768TIP3    H241864   2.050   5.528   2.833 -0.3811  0.5611 -0.3747
 6769TIP3   OH241865   6.067   3.453   7.983 -0.3833 -0.4988 -0.1766
 6769TIP3    H141866   6.010   3.376   7.973 -0.9837  0.0280 -0.9815
 6769TIP3    H241867   6.154   3.422   7.957 -0.2230 -1.3846  1.3281
 6770TIP3   OH241868   4.590   5.162   0.349 -0.2204  0.2780 -0.1446
 6770TIP3    H141869   4.546   5.244   0.327  1.0269  1.2586  0.8774
 6770TIP3    H241870   4.683   5.185   0.356  0.0805 -1.0740  0.7582
 6771TIP3   OH241871   5.864   4.853   0.136  0.0575 -0.5456 -0.3069
 6771TIP3    H141872   5.917   4.864   0.215 -1.0062 -0.3205  0.3959
 6771TIP3    H241873   5.903   4.915   0.073  0.4407 -0.1684  0.2887
 6772TIP3   OH241874   6.328   3.803   7.239  0.1697  0.4285  0.0457
 6772TIP3    H141875   6.305   3.881   7.289 -1.4988  0.7943 -1.1974
 6772TIP3    H241876   6.331   3.833   7.148 -0.0667 -0.8632 -0.4061
 6773TIP3   OH241877   3.799   3.543   7.536 -0.0252  0.1665 -0.3049
 6773TIP3    H141878   3.728   3.607   7.531  0.0642  0.3549  0.5784
 6773TIP3    H241879   3.877   3.590   7.509  0.1112  0.5665  0.7306
 6774TIP3   OH241880   5.826   4.664   7.353 -0.2184  0.1152  0.3560
 6774TIP3    H141881   5.770   4.631   7.423 -1.5459 -0.1408 -0.7733
 6774TIP3    H241882   5.883   4.590   7.331  0.2579  0.2227  1.1895
 6775TIP3   OH241883   3.818   4.567   1.850  0.5303 -0.0493  0.3098
 6775TIP3    H141884   3.896   4.579   1.904 -0.2647  1.6497  1.1343
 6775TIP3    H241885   3.745   4.580   1.910 -0.4405 -1.8017 -0.4061
 6776TIP3   OH241886   2.144   1.958   1.798 -0.4882 -0.3326  0.0227
 6776TIP3    H141887   2.119   1.964   1.890 -1.0555  1.3943 -0.2087
 6776TIP3    H241888   2.116   2.042   1.760  1.1754 -0.3646 -1.3693
 6777TIP3   OH241889   5.214   6.553   7.817  0.4562  0.3172 -0.0340
 6777TIP3    H141890   5.120   6.567   7.805  0.6791 -0.0128 -2.9519
 6777TIP3    H241891   5.220   6.499   7.896 -1.5478  2.4785  1.7588
 6778TIP3   OH241892   0.811   4.776   1.667 -0.2995  0.9281 -0.5581
 6778TIP3    H141893   0.740   4.788   1.731  0.6510  1.4349  0.4250
 6778TIP3    H241894   0.783   4.701   1.615 -0.2060 -0.8407  1.7533
 6779TIP3   OH241895   5.776   2.256   7.263 -0.2479 -0.0014 -0.2717
 6779TIP3    H141896   5.845   2.276   7.200  0.8052  1.7467  1.3351
 6779TIP3    H241897   5.822   2.221   7.339 -1.6120 -3.7530 -0.9328
 6780TIP3   OH241898   3.945   2.868   7.680 -0.1834  0.5160  0.1499
 6780TIP3    H141899   3.865   2.838   7.724 -0.4035 -0.8252 -1.1061
 6780TIP3    H241900   3.953   2.960   7.707 -2.3046  0.7815  0.1140
 6781TIP3   OH241901   1.876   5.504   0.183  0.0197  0.0213 -0.4823
 6781TIP3    H141902   1.841   5.518   0.095  0.0633 -1.5926 -0.7806
 6781TIP3    H241903   1.841   5.577   0.235 -0.9692  0.3373 -1.5632
 6782TIP3   OH241904   1.062   1.589   1.145 -0.0645  0.0376 -0.2126
 6782TIP3    H141905   1.136   1.563   1.090 -0.1986  3.2248 -2.1510
 6782TIP3    H241906   1.102   1.628   1.222  0.1486 -1.5275  0.5181
 6783TIP3   OH241907   4.968   6.360   8.217  0.6549  0.0441 -0.0813
 6783TIP3    H141908   5.027   6.381   8.289 -0.4437 -2.1306  1.5779
 6783TIP3    H241909   4.889   6.327   8.259 -0.9506  0.8142 -2.2639
 6784TIP3   OH241910   2.678   0.991   0.589  0.6627 -0.1548 -0.5443
 6784TIP3    H141911   2.696   1.079   0.555  1.7750 -0.1459  0.0334
 6784TIP3    H241912   2.666   0.937   0.511 -0.6060  0.5946 -0.9163
 6785TIP3   OH241913   6.026   3.566   0.176 -0.2999  0.2424  0.4392
 6785TIP3    H141914   5.980   3.483   0.192 -1.3201  0.2913 -1.8058
 6785TIP3    H241915   5.973   3.632   0.222 -2.2387  0.2000 -1.5541
 6786TIP3   OH241916   5.782   3.068   2.074 -0.0534 -0.3231  0.2871
 6786TIP3    H141917   5.840   2.992   2.064  0.4014 -0.1786  1.6325
 6786TIP3    H241918   5.704   3.033   2.116  0.2976 -0.0068  1.2291
 6787TIP3   OH241919   3.059   0.716   8.278  0.5539  0.2589  0.0122
 6787TIP3    H141920   3.053   0.650   8.347 -1.0148 -2.0748 -2.1143
 6787TIP3    H241921   2.985   0.774   8.294  0.4910  0.0352  0.5653
 6788TIP3   OH241922   4.688   0.574   0.608  0.3747  0.1405  0.0362
 6788TIP3    H141923   4.770   0.589   0.561 -0.2716  0.5593 -0.9883
 6788TIP3    H241924   4.621   0.616   0.554 -0.6943 -1.2909  0.1838
 6789TIP3   OH241925   3.513   5.121   6.781  0.3833  0.6717 -0.0799
 6789TIP3    H141926   3.606   5.131   6.801  0.5975 -1.4598  0.3031
 6789TIP3    H241927   3.471   5.114   6.866  0.5050 -2.4722 -0.1249
 6790TIP3   OH241928   2.325   1.173   8.466  0.0611  0.0828 -0.4001
 6790TIP3    H141929   2.358   1.215   8.386  0.7611  1.8543  0.7689
 6790TIP3    H241930   2.307   1.245   8.525 -2.0565 -1.1075  0.4931
 6791TIP3   OH241931   6.525   3.954   0.996 -0.0375 -0.6304 -0.3848
 6791TIP3    H141932   6.617   3.931   1.014  0.2552  0.4048 -0.5109
 6791TIP3    H241933   6.502   3.901   0.920  0.2624 -1.3413 -0.0002
 6792TIP3   OH241934   4.513   4.197   1.663 -0.6583 -0.4499 -0.6798
 6792TIP3    H141935   4.438   4.248   1.634  0.2012  1.9170  0.9965
 6792TIP3    H241936   4.588   4.241   1.623  0.1942  0.3624  1.6824
 6793TIP3   OH241937   2.728   3.941   1.156 -0.0150  0.5683  0.6679
 6793TIP3    H141938   2.731   3.854   1.195 -1.1433  1.1015  2.0879
 6793TIP3    H241939   2.712   3.926   1.063  0.4998 -0.7384  0.7684
 6794TIP3   OH241940   0.524   6.312   7.614  0.1137  0.2429  0.3481
 6794TIP3    H141941   0.501   6.219   7.616 -0.2268  0.2823 -0.9045
 6794TIP3    H241942   0.618   6.313   7.597  0.1970  0.1344  0.7795
 6795TIP3   OH241943   3.326   5.301   7.776 -0.2629 -0.1157  0.3783
 6795TIP3    H141944   3.369   5.333   7.697 -0.4665 -0.9505 -0.0775
 6795TIP3    H241945   3.232   5.309   7.758 -0.4482 -3.6572 -0.9624
 6796TIP3   OH241946   1.277   0.787   7.392 -0.9636  0.0775  0.2419
 6796TIP3    H141947   1.265   0.709   7.338 -0.7743 -0.8869  1.5517
 6796TIP3    H241948   1.337   0.759   7.462  1.2137  2.0998 -0.6859
 6797TIP3   OH241949   3.077   0.864   2.207 -0.0015 -0.4549  0.0921
 6797TIP3    H141950   3.049   0.910   2.128  0.7622  1.5139  0.8960
 6797TIP3    H241951   3.159   0.821   2.182 -1.8049 -3.4294 -1.3006
 6798TIP3   OH241952   4.348   3.709   0.003 -0.1129 -0.1373 -0.3425
 6798TIP3    H141953   4.365   3.801  -0.017  3.7255 -0.2920  1.3880
 6798TIP3    H241954   4.328   3.708   0.096  1.9100 -1.1414  0.1359
 6799TIP3   OH241955   2.863   4.762   2.522  0.1244 -0.1764 -0.0904
 6799TIP3    H141956   2.771   4.777   2.542  0.2082  1.0308 -0.5406
 6799TIP3    H241957   2.905   4.846   2.538  0.9720 -0.4364 -0.8691
 6800TIP3   OH241958   0.708   5.657   6.378 -0.3780  0.0009  0.2899
 6800TIP3    H141959   0.757   5.669   6.296  0.5311  2.1673  1.0696
 6800TIP3    H241960   0.761   5.594   6.428 -0.8077 -1.1423 -0.6438
 6801TIP3   OH241961   6.676   6.230   0.490 -0.7680 -0.0901 -0.8261
 6801TIP3    H141962   6.620   6.281   0.432  0.7463  0.5230 -1.8178
 6801TIP3    H241963   6.677   6.279   0.572 -0.8926  0.4205 -1.1250
 6802TIP3   OH241964   5.790   1.471   0.626 -0.2387 -0.8729 -0.0275
 6802TIP3    H141965   5.755   1.500   0.710  0.1057  0.0936 -0.2055
 6802TIP3    H241966   5.722   1.492   0.562  1.0353  2.1348 -0.5553
 6803TIP3   OH241967   4.310   1.792   7.356 -0.1512 -0.0158  0.2479
 6803TIP3    H141968   4.304   1.716   7.298 -1.9878  0.6817 -0.5573
 6803TIP3    H241969   4.315   1.754   7.444  1.0948 -1.0756 -0.2566
 6804TIP3   OH241970   0.470   1.091   0.693 -0.4240  0.2782 -0.8691
 6804TIP3    H141971   0.421   1.136   0.624 -2.7021 -0.0434  0.4076
 6804TIP3    H241972   0.507   1.161   0.746 -2.1174  0.6847 -0.1427
 6805TIP3   OH241973   0.423   5.381   1.394  0.0071 -0.2713 -0.0083
 6805TIP3    H141974   0.493   5.366   1.458 -1.8617  0.7632  2.4180
 6805TIP3    H241975   0.453   5.336   1.315  2.8253 -0.8996  1.2880
 6806TIP3   OH241976   6.765   0.615   6.857  0.0404  0.4025 -0.2955
 6806TIP3    H141977   6.803   0.539   6.812  1.2149  0.8053 -0.0333
 6806TIP3    H241978   6.683   0.632   6.811 -0.7755 -1.6235  0.2502
 6807TIP3   OH241979   4.465   2.166   2.271  0.2429 -0.3920 -0.0291
 6807TIP3    H141980   4.451   2.257   2.244  0.1717 -1.3763 -3.9375
 6807TIP3    H241981   4.558   2.162   2.293  0.0334  0.7985  1.1953
 6808TIP3   OH241982   1.493   6.064   1.051 -0.1722 -0.0984  0.3980
 6808TIP3    H141983   1.492   6.134   0.986  0.6651 -0.1191  0.3605
 6808TIP3    H241984   1.426   6.090   1.115  0.5568  1.0633  0.7246
 6809TIP3   OH241985   4.090   6.193   0.953  0.0497  0.5116  0.6895
 6809TIP3    H141986   4.126   6.105   0.963 -1.4982 -0.3497 -0.6973
 6809TIP3    H241987   4.157   6.240   0.903 -0.5884 -1.0446 -1.8538
 6810TIP3   OH241988   0.801   2.460   1.882  0.0368  0.6583  0.7769
 6810TIP3    H141989   0.826   2.552   1.888 -1.0422  1.0205  0.0572
 6810TIP3    H241990   0.707   2.459   1.899 -0.5327  0.0925 -1.9007
 6811TIP3   OH241991   0.267   5.490   1.642  0.1698  0.4646 -0.1909
 6811TIP3    H141992   0.182   5.523   1.671  1.1668  3.2708 -0.1899
 6811TIP3    H241993   0.264   5.497   1.546  0.0797 -0.3327 -0.2524
 6812TIP3   OH241994   0.850   0.606   0.056  0.0604  0.1102  0.3726
 6812TIP3    H141995   0.845   0.643   0.144 -2.0023 -0.0461  0.3755
 6812TIP3    H241996   0.766   0.561   0.045  0.5592 -0.4394 -1.4242
 6813TIP3   OH241997   3.118   2.229   1.402  0.8178  0.2769  0.2522
 6813TIP3    H141998   3.110   2.145   1.356  2.0643 -0.4791  1.3233
 6813TIP3    H241999   3.049   2.226   1.468  2.1151 -0.8643  1.6288
 6814TIP3   OH242000   3.102   3.664   8.051  0.0712  0.4710 -0.5700
 6814TIP3    H142001   3.044   3.589   8.062 -1.3183  1.6943  0.9028
 6814TIP3    H242002   3.190   3.628   8.062 -0.6007 -0.8539  0.7861
 6815TIP3   OH242003   4.036   3.765   1.485  0.4382  0.0953 -0.3411
 6815TIP3    H142004   4.045   3.860   1.486  1.1876  0.1000  2.4032
 6815TIP3    H242005   4.043   3.740   1.393 -1.0407  2.7636 -1.2771
 6816TIP3   OH242006   1.146   2.193   8.220  0.5692 -0.3117 -0.1620
 6816TIP3    H142007   1.066   2.171   8.172  1.5779 -1.1177 -1.5434
 6816TIP3    H242008   1.123   2.271   8.270 -0.9243 -0.2098 -0.9532
 6817TIP3   OH242009   4.238   3.654   8.037 -0.2824 -0.6134 -0.0346
 6817TIP3    H142010   4.148   3.622   8.030 -0.5832 -0.6671  2.9323
 6817TIP3    H242011   4.277   3.600   8.106  1.3170  0.8668  0.2812
 6818TIP3   OH242012   2.621   2.733   2.082  0.0408 -0.2364 -0.3121
 6818TIP3    H142013   2.680   2.672   2.126 -0.0172  0.3331  0.5828
 6818TIP3    H242014   2.556   2.756   2.149 -0.6238 -0.0951 -0.9891
 6819TIP3   OH242015   5.748   4.703   1.586 -0.0473  0.2765 -0.8782
 6819TIP3    H142016   5.804   4.668   1.517  0.1381 -1.8198  0.2452
 6819TIP3    H242017   5.667   4.652   1.579 -0.2552  0.4594  0.0535
 6820TIP3   OH242018   1.658   1.024   7.757 -0.3484  0.3229  0.3001
 6820TIP3    H142019   1.595   1.026   7.684  0.9998  0.7984 -0.9037
 6820TIP3    H242020   1.672   0.931   7.774 -1.1884  0.2111  0.4357
 6821TIP3   OH242021   6.032   2.552   2.068  0.4351  0.4758  0.1183
 6821TIP3    H142022   6.019   2.642   2.099  1.5884  0.7842 -0.2423
 6821TIP3    H242023   6.112   2.523   2.110  1.4119  0.4920 -1.6216
 6822TIP3   OH242024   0.064   4.517   7.138 -0.0435  0.0818  0.2816
 6822TIP3    H142025   0.028   4.475   7.216  0.5955  0.9375  1.0646
 6822TIP3    H242026   0.157   4.493   7.139 -0.4655 -1.8047 -1.5079
 6823TIP3   OH242027   0.929   2.576   8.411 -0.0998 -0.4953  0.0645
 6823TIP3    H142028   0.874   2.653   8.429  0.9347 -0.0001  1.3421
 6823TIP3    H242029   0.905   2.549   8.323 -0.5619  1.2558 -0.3952
 6824TIP3   OH242030   3.748   5.179   2.680 -0.2801 -0.2518  0.4295
 6824TIP3    H142031   3.710   5.258   2.641 -2.0042  0.7758  3.7624
 6824TIP3    H242032   3.842   5.191   2.673 -0.5128  0.9655 -1.1438
 6825TIP3   OH242033   3.584   4.124   7.507  0.0764 -0.4667  0.2525
 6825TIP3    H142034   3.590   4.212   7.471 -2.4176 -0.2157  0.2272
 6825TIP3    H242035   3.590   4.066   7.431 -0.9937 -0.1367 -0.1115
 6826TIP3   OH242036   2.356   2.270   8.073  0.2655  0.3924 -0.1296
 6826TIP3    H142037   2.417   2.338   8.045 -2.0868  2.2324 -1.1103
 6826TIP3    H242038   2.315   2.239   7.992 -0.9223  0.0234  0.5833
 6827TIP3   OH242039   3.715   3.771   8.478  0.2843 -0.0362 -0.2211
 6827TIP3    H142040   3.791   3.756   8.534  0.7121  0.1005 -0.7537
 6827TIP3    H242041   3.747   3.829   8.409 -0.4431  0.4571 -0.1601
 6828TIP3   OH242042   3.288   1.077   0.129  0.4681 -0.1614 -0.2537
 6828TIP3    H142043   3.232   1.039   0.061  1.2487  1.3759 -1.8375
 6828TIP3    H242044   3.365   1.107   0.082  1.4667  0.1351  1.4884
 6829TIP3   OH242045   4.841   0.248   8.217  0.1736 -0.6737  0.4504
 6829TIP3    H142046   4.802   0.225   8.133 -0.3745 -0.7778  0.7313
 6829TIP3    H242047   4.867   0.340   8.207 -2.4953  0.2311  1.0909
 6830TIP3   OH242048   5.595   4.226   1.133 -0.1687  0.3270 -0.5171
 6830TIP3    H142049   5.617   4.292   1.198  1.5273 -0.6371 -0.0461
 6830TIP3    H242050   5.674   4.218   1.080 -0.9282 -0.1558 -1.6081
 6831TIP3   OH242051   1.297   4.955   6.928 -0.4504  0.1436  0.2281
 6831TIP3    H142052   1.326   5.001   7.007 -2.7163 -0.8933  1.7571
 6831TIP3    H242053   1.332   5.008   6.856 -0.4224  2.5653  1.9016
 6832TIP3   OH242054   0.341   2.943   0.015  0.5753  0.5283  0.4264
 6832TIP3    H142055   0.370   2.852   0.023 -0.6124  0.2717  2.7307
 6832TIP3    H242056   0.337   2.975   0.106 -1.5405  2.0596 -0.1257
 6833TIP3   OH242057   2.210   6.931   8.057 -0.1675 -0.2873 -0.2239
 6833TIP3    H142058   2.171   6.977   7.983 -2.2956 -0.3745  0.7920
 6833TIP3    H242059   2.211   6.839   8.030  0.4103 -0.1564 -0.6826
 6834TIP3   OH242060   5.092   3.412   2.367 -0.3922  0.3966  0.6324
 6834TIP3    H142061   5.067   3.440   2.280 -0.9263 -0.4098  0.5205
 6834TIP3    H242062   5.179   3.452   2.381 -0.5703  1.0286 -0.0077
 6835TIP3   OH242063   2.562   2.468   2.458  0.0642 -0.4372  0.6119
 6835TIP3    H142064   2.639   2.460   2.515 -0.6627 -1.6271  1.4814
 6835TIP3    H242065   2.569   2.392   2.400  0.3916  0.3528 -0.4092
 6836TIP3   OH242066   3.152   4.311   8.091  0.1422 -0.7727 -0.4559
 6836TIP3    H142067   3.191   4.393   8.061  0.9991 -0.8168  0.4822
 6836TIP3    H242068   3.061   4.333   8.111  0.0955 -0.2976 -1.1902
 6837TIP3   OH242069   2.804   4.696   1.770  0.1058  0.2045  0.3057
 6837TIP3    H142070   2.775   4.788   1.774  0.6436  0.4205 -0.4491
 6837TIP3    H242071   2.858   4.692   1.691 -0.6234 -0.9686 -0.1624
 6838TIP3   OH242072   6.810   2.156   0.726 -0.3715  0.1270 -0.0273
 6838TIP3    H142073   6.757   2.148   0.806  0.6238 -0.9129  0.5585
 6838TIP3    H242074   6.891   2.198   0.756 -0.4903  0.9137 -0.7566
 6839TIP3   OH242075   4.476   3.137   1.772  0.5076  0.1239  0.2074
 6839TIP3    H142076   4.512   3.074   1.709 -1.1557 -0.6333 -0.0510
 6839TIP3    H242077   4.426   3.083   1.833 -1.1197  1.1922 -0.1216
 6840TIP3   OH242078   0.988   6.780   8.433  0.8001 -0.8572 -0.0579
 6840TIP3    H142079   0.897   6.807   8.421  0.7782 -0.8281  0.1771
 6840TIP3    H242080   1.037   6.862   8.429  0.6836 -0.7107  1.1823
 6841TIP3   OH242081   0.220   6.481   7.237  0.1764 -0.0208  0.3077
 6841TIP3    H142082   0.159   6.545   7.201  1.0025 -0.0641 -1.2549
 6841TIP3    H242083   0.306   6.524   7.232  0.6258 -0.9215 -0.0002
 6842TIP3   OH242084   4.193   0.134   0.976 -0.1939 -0.1675  0.2672
 6842TIP3    H142085   4.172   0.207   1.033  0.9160  0.2430  0.1791
 6842TIP3    H242086   4.252   0.171   0.910 -1.3762 -0.6434 -1.0970
 6843TIP3   OH242087   5.468   1.911   8.319  0.3658 -0.2209 -0.0014
 6843TIP3    H142088   5.551   1.958   8.325  0.0174  0.3453  0.5456
 6843TIP3    H242089   5.483   1.828   8.365  0.7181 -0.2482 -0.1678
 6844TIP3   OH242090   1.770   5.582   1.790 -0.3155  0.8278  0.1170
 6844TIP3    H142091   1.803   5.625   1.869 -1.0206  1.3053  0.1632
 6844TIP3    H242092   1.714   5.648   1.749 -0.6573  0.2739 -0.3150
 6845TIP3   OH242093   1.444   2.530   6.914 -0.1416 -0.0967  0.3430
 6845TIP3    H142094   1.477   2.451   6.870 -1.7215 -1.2225  1.0683
 6845TIP3    H242095   1.369   2.558   6.861  0.2049  0.7312  0.2793
 6846TIP3   OH242096   6.006   0.192   0.060  0.6282 -0.7270  0.4435
 6846TIP3    H142097   5.928   0.221   0.108  2.0602  1.6234  1.5426
 6846TIP3    H242098   5.974   0.125  -0.000 -2.0718 -0.4485  1.4333
 6847TIP3   OH242099   5.679   6.930   7.701 -0.5248  0.7394  0.1993
 6847TIP3    H142100   5.755   6.977   7.666  0.2080 -0.3832  0.2549
 6847TIP3    H242101   5.633   6.897   7.624 -1.1453  1.6832  0.1519
 6848TIP3   OH242102   3.852   5.662   7.913 -0.0630  0.0744 -0.3712
 6848TIP3    H142103   3.845   5.757   7.922 -0.4230  0.1539 -1.4027
 6848TIP3    H242104   3.783   5.638   7.852  0.4389 -0.7697 -0.6262
 6849TIP3   OH242105   3.770   3.354   1.370  0.0632  0.5011 -0.5856
 6849TIP3    H142106   3.722   3.316   1.297  2.0492 -1.2381 -1.0756
 6849TIP3    H242107   3.757   3.449   1.360 -3.7379  0.1883 -0.2440
 6850TIP3   OH242108   1.901   2.150   7.108 -0.0237 -0.3236 -0.2541
 6850TIP3    H142109   1.931   2.235   7.077 -2.6571  2.4030  3.8202
 6850TIP3    H242110   1.826   2.129   7.053 -0.1663  0.6799 -0.4569
 6851TIP3   OH242111   4.670   6.093   6.986  0.0462  0.5918  1.1739
 6851TIP3    H142112   4.625   6.161   6.936  0.5711 -0.2379 -0.5018
 6851TIP3    H242113   4.634   6.011   6.951  1.0823 -0.0240  1.5313
 6852TIP3   OH242114   0.140   6.801   8.528  0.3194 -0.3086  0.1742
 6852TIP3    H142115   0.223   6.772   8.491  0.1388 -1.0123  0.3113
 6852TIP3    H242116   0.076   6.782   8.460  0.4010  1.2649 -0.3948
 6853TIP3   OH242117   4.429   4.632   1.399  0.6059 -0.6439 -0.5201
 6853TIP3    H142118   4.469   4.717   1.419  0.0703 -0.2247 -1.2019
 6853TIP3    H242119   4.430   4.585   1.483 -2.8755  1.6024  1.0187
 6854TIP3   OH242120   2.466   2.319   7.535  0.2949  0.0084 -0.0969
 6854TIP3    H142121   2.468   2.407   7.572 -0.2028 -0.8565  2.1224
 6854TIP3    H242122   2.520   2.267   7.594 -1.5531 -1.6940  0.1687
 6855TIP3   OH242123   3.368   1.325   8.509  0.0205  0.4075 -0.3776
 6855TIP3    H142124   3.321   1.395   8.464  0.1639  0.5096 -0.3712
 6855TIP3    H242125   3.450   1.316   8.460  1.0628  1.8535  0.9886
 6856TIP3   OH242126   0.366   2.476   0.962 -0.3342  0.2468 -0.1263
 6856TIP3    H142127   0.400   2.535   1.029  0.9479  0.9206 -1.3232
 6856TIP3    H242128   0.290   2.434   1.003  0.6761  0.2778  1.9066
 6857TIP3   OH242129   3.895   6.386   0.903  0.4967  0.5834 -0.5028
 6857TIP3    H142130   3.942   6.304   0.920 -1.2009 -0.4290 -0.4269
 6857TIP3    H242131   3.813   6.358   0.861 -0.6775  2.1396  0.6492
 6858TIP3   OH242132   3.441   2.691   7.835  0.4871  0.1343 -0.3039
 6858TIP3    H142133   3.383   2.744   7.889 -0.1063  1.2686 -1.9901
 6858TIP3    H242134   3.414   2.601   7.852 -1.9721  0.6233 -1.1894
 6859TIP3   OH242135   0.916   0.986   7.833 -0.1930 -0.0428 -0.1167
 6859TIP3    H142136   0.840   1.045   7.833  0.4300  0.8143  1.1801
 6859TIP3    H242137   0.991   1.044   7.846  0.6448 -0.9388 -0.7861
 6860TIP3   OH242138   1.216   5.077   0.355 -0.7766 -0.0764 -0.8751
 6860TIP3    H142139   1.265   5.119   0.284 -3.6542  1.1418 -2.3405
 6860TIP3    H242140   1.194   4.990   0.321  1.1863 -1.0477  0.2259
 6861TIP3   OH242141   3.761   0.015   7.772 -0.3189  0.0746  0.2701
 6861TIP3    H142142   3.700  -0.009   7.702 -0.5253 -0.6312  0.6853
 6861TIP3    H242143   3.838   0.051   7.726  0.0285 -1.4483 -0.3879
 6862TIP3   OH242144   3.921   4.187   2.095 -0.8387 -0.3633 -0.6433
 6862TIP3    H142145   3.844   4.175   2.151 -2.9166 -1.0552 -3.4322
 6862TIP3    H242146   3.935   4.101   2.055  0.9209 -0.0346 -0.8085
 6863TIP3   OH242147   4.745   4.061   7.379  0.5457  0.1571 -0.1407
 6863TIP3    H142148   4.694   4.089   7.303  0.8260  0.0181 -0.3837
 6863TIP3    H242149   4.782   4.142   7.414  1.4914  0.0928 -0.9411
 6864TIP3   OH242150   4.199   5.122   1.727  0.5266  0.6371  0.3257
 6864TIP3    H142151   4.274   5.159   1.679 -0.0390  0.4068 -0.7625
 6864TIP3    H242152   4.197   5.030   1.701  0.5640  0.3597  1.2708
 6865TIP3   OH242153   4.950   1.258   7.235  0.7926  0.2227 -0.0829
 6865TIP3    H142154   4.999   1.326   7.281  1.7324 -0.4096 -0.1078
 6865TIP3    H242155   4.949   1.184   7.297  0.9047 -0.1815 -0.5604
 6866TIP3   OH242156   5.831   1.958   7.160  0.2968  0.3663  0.0751
 6866TIP3    H142157   5.785   2.011   7.225  0.4721  0.1636  0.3647
 6866TIP3    H242158   5.902   2.015   7.129 -1.1739  1.3666 -1.6783
 6867TIP3   OH242159   0.148   0.195   1.325  0.2370 -0.1554  0.2334
 6867TIP3    H142160   0.218   0.158   1.271  0.2703 -1.4706  1.1071
 6867TIP3    H242161   0.104   0.257   1.268  2.5530  1.2838 -0.1226
 6868TIP3   OH242162   2.000   4.606   0.661 -0.2519 -0.4606  1.0860
 6868TIP3    H142163   1.983   4.540   0.593 -0.2160  0.1119  0.5035
 6868TIP3    H242164   1.942   4.678   0.637  1.3504  0.6383  0.3728
 6869TIP3   OH242165   0.151   2.514   2.128 -0.4292 -0.7611  0.3621
 6869TIP3    H142166   0.109   2.557   2.202  0.4292 -0.7731  0.8731
 6869TIP3    H242167   0.168   2.425   2.159 -1.1974 -1.1555 -0.3018
 6870TIP3   OH242168   3.392   1.044   1.770  0.2247  0.2318  0.0860
 6870TIP3    H142169   3.400   1.098   1.848  2.3648  1.1272 -0.6919
 6870TIP3    H242170   3.315   1.078   1.725  0.1256  1.0182  0.8255
 6871TIP3   OH242171   6.192   0.646   1.866 -0.5321  0.1452 -0.0279
 6871TIP3    H142172   6.179   0.578   1.933  1.3977  0.5018  0.7743
 6871TIP3    H242173   6.213   0.597   1.786  0.9641 -0.2344  0.5710
 6872TIP3   OH242174   2.978   2.155   6.427 -0.1842  0.2297 -0.2239
 6872TIP3    H142175   3.038   2.084   6.403 -0.6903  0.1410 -1.2784
 6872TIP3    H242176   2.935   2.125   6.507  0.6743  0.0022  0.1651
 6873TIP3   OH242177   6.729   6.121   2.016  0.6593  0.4081 -0.0135
 6873TIP3    H142178   6.693   6.107   2.104  1.4010  0.7925  0.3602
 6873TIP3    H242179   6.742   6.034   1.981  0.6837  0.2467  0.3921
 6874TIP3   OH242180   2.960   0.939   1.403 -0.0657  0.2979 -0.1325
 6874TIP3    H142181   3.012   1.018   1.386 -1.0649  0.8688 -0.6478
 6874TIP3    H242182   2.967   0.889   1.322  1.1764 -0.5280  0.4541
 6875TIP3   OH242183   5.305   2.478   7.767 -0.5239 -0.0205  0.0435
 6875TIP3    H142184   5.264   2.394   7.750  0.7267 -0.8512  0.9166
 6875TIP3    H242185   5.388   2.475   7.719 -0.7486  0.9861 -0.4399
 6876TIP3   OH242186   3.881   5.793   0.272  0.0141  0.5305  0.3001
 6876TIP3    H142187   3.820   5.857   0.235 -1.0110 -0.5102  0.1518
 6876TIP3    H242188   3.834   5.710   0.268  0.2045  0.2004  3.1010
 6877TIP3   OH242189   3.926   0.473   2.018  0.4005  0.2259  0.1755
 6877TIP3    H142190   3.861   0.413   1.982  0.5716 -0.1733  0.5156
 6877TIP3    H242191   3.978   0.418   2.078  0.4878  0.7391  0.5741
 6878TIP3   OH242192   4.774   0.175   0.764  0.1802  0.1093 -0.3375
 6878TIP3    H142193   4.846   0.179   0.701  1.6694  0.0625  1.2949
 6878TIP3    H242194   4.769   0.083   0.789 -1.1008 -0.0597 -1.1119
 6879TIP3   OH242195   5.786   0.732   8.242  0.5262  0.3169  0.7036
 6879TIP3    H142196   5.858   0.736   8.179 -0.4930  0.3527 -0.4837
 6879TIP3    H242197   5.783   0.819   8.281  1.3066  0.2259  0.9941
 6880TIP3   OH242198   4.072   1.534   0.533 -0.0575  0.1402  0.3538
 6880TIP3    H142199   4.095   1.609   0.588  0.7569 -0.7229  1.2318
 6880TIP3    H242200   4.149   1.477   0.537 -0.7712 -0.8829 -0.0451
 6881TIP3   OH242201   3.604   0.157   1.661  0.1485 -0.2236  0.2514
 6881TIP3    H142202   3.607   0.078   1.606  1.0253 -0.0968  0.0987
 6881TIP3    H242203   3.568   0.126   1.745  1.6947 -1.0895  0.6433
 6882TIP3   OH242204   2.978   5.683   1.392  0.2644 -0.2619 -0.3513
 6882TIP3    H142205   3.008   5.767   1.429  1.6012 -0.7140 -0.3630
 6882TIP3    H242206   2.902   5.707   1.339  1.0979  1.0795 -1.0100
 6883TIP3   OH242207   3.075   4.670   2.040  0.3986 -0.2721 -0.0747
 6883TIP3    H142208   3.077   4.723   2.120  2.1917 -2.9548  1.8290
 6883TIP3    H242209   3.007   4.604   2.056  0.8586 -0.9175 -0.6860
 6884TIP3   OH242210   6.900   5.128   0.069 -0.0988 -0.1122  0.1214
 6884TIP3    H142211   6.973   5.071   0.045  1.3627  0.5246  2.6933
 6884TIP3    H242212   6.928   5.169   0.151 -2.4217  1.9089 -0.0073
 6885TIP3   OH242213   6.391   3.229   1.258 -0.1474  0.0046  0.3201
 6885TIP3    H142214   6.471   3.247   1.209  1.0725  1.7529  2.8049
 6885TIP3    H242215   6.370   3.138   1.236  2.8016 -0.6822 -0.0287
 6886TIP3   OH242216   3.681   5.404   2.011  0.0218 -0.0145  0.2273
 6886TIP3    H142217   3.655   5.388   2.102 -0.8053  0.6442  0.1157
 6886TIP3    H242218   3.727   5.488   2.014 -1.5660  0.9037 -0.2203
 6887TIP3   OH242219   5.093   1.930   1.126  0.0332  0.1035 -0.5149
 6887TIP3    H142220   5.004   1.949   1.157  0.5406 -0.8163  1.7215
 6887TIP3    H242221   5.081   1.896   1.037 -1.7658  0.6196 -0.5049
 6888TIP3   OH242222   2.520   2.845   1.853  0.0840 -0.4872  0.1881
 6888TIP3    H142223   2.494   2.769   1.801 -0.9503  0.1788 -0.3132
 6888TIP3    H242224   2.555   2.809   1.934  0.4763 -1.5120 -0.4233
 6889TIP3   OH242225   0.047   1.111   1.031  0.2954  0.0710  0.3064
 6889TIP3    H142226  -0.014   1.094   1.103 -0.0043 -1.2209 -0.2275
 6889TIP3    H242227  -0.002   1.168   0.972  0.7758  1.7006  1.3923
 6890TIP3   OH242228   3.728   2.713   7.787  0.3241 -0.3563  0.2105
 6890TIP3    H142229   3.757   2.669   7.707  0.0846 -0.6865  0.3024
 6890TIP3    H242230   3.632   2.708   7.784  0.3241 -0.7212  0.7086
 6891TIP3   OH242231   0.838   1.209   1.773  0.5495 -0.1241 -0.1472
 6891TIP3    H142232   0.826   1.117   1.799 -1.8417 -0.0176 -0.5793
 6891TIP3    H242233   0.892   1.205   1.694 -0.6841 -1.3310 -0.9880
 6892TIP3   OH242234   3.351   0.617   1.758 -0.3526 -0.2213 -0.5604
 6892TIP3    H142235   3.259   0.638   1.774 -0.4190  0.3762 -1.6528
 6892TIP3    H242236   3.400   0.675   1.817 -0.6597 -0.2063 -0.3182
 6893TIP3   OH242237   6.899   1.777   6.724 -0.4603  0.0930  0.3747
 6893TIP3    H142238   6.930   1.690   6.699 -1.2041 -0.1537  0.3070
 6893TIP3    H242239   6.875   1.819   6.642 -1.1648 -0.0543  0.4950
 6894TIP3   OH242240   6.092   4.295   7.526  0.4552  0.6437 -0.7121
 6894TIP3    H142241   6.117   4.227   7.588  2.0757 -0.3111 -2.3077
 6894TIP3    H242242   6.175   4.332   7.497  0.0393 -0.8237 -4.2686
 6895TIP3   OH242243   6.715   0.992   1.896  0.0660  0.0817  0.2100
 6895TIP3    H142244   6.630   0.993   1.942  0.2123 -2.7615  0.7022
 6895TIP3    H242245   6.692   1.003   1.804 -1.0559 -1.9051  0.1818
 6896TIP3   OH242246   0.338   1.635   1.513 -0.0528  0.1637 -0.2858
 6896TIP3    H142247   0.427   1.670   1.511  0.3245 -0.7608 -2.0175
 6896TIP3    H242248   0.339   1.573   1.586 -0.1363  2.1269  1.4816
 6897TIP3   OH242249   0.097   5.453   7.104  0.3804 -0.4732  0.5128
 6897TIP3    H142250   0.027   5.484   7.047  1.3512  1.5735  0.3461
 6897TIP3    H242251   0.065   5.370   7.139 -2.5159  0.8294  1.1748
 6898TIP3   OH242252   6.032   4.881   0.341 -0.0615 -0.2389  0.0220
 6898TIP3    H142253   6.093   4.823   0.387 -0.3740 -0.3392  0.3134
 6898TIP3    H242254   6.046   4.967   0.380  0.9116  0.0477 -0.8986
 6899TIP3   OH242255   3.772   0.307   0.734  0.0664  0.1051  0.2426
 6899TIP3    H142256   3.677   0.307   0.722 -0.1868  0.5776  1.9248
 6899TIP3    H242257   3.800   0.394   0.704 -0.8313  2.1041  4.4166
 6900TIP3   OH242258   4.467   1.827   0.486 -0.2184 -0.2573  0.2238
 6900TIP3    H142259   4.500   1.774   0.413 -1.1745 -0.9064  0.2465
 6900TIP3    H242260   4.440   1.910   0.445 -0.3065 -0.4375 -0.0883
 6901TIP3   OH242261   0.024   2.375   1.643 -0.5453  0.2093  0.2397
 6901TIP3    H142262   0.049   2.419   1.724 -1.3479  1.0327  0.0574
 6901TIP3    H242263   0.107   2.344   1.606 -0.1773 -0.2258  1.3882
 6902TIP3   OH242264   3.321   3.580   2.129  0.3602  0.5677  0.8053
 6902TIP3    H142265   3.357   3.598   2.216  0.9454 -1.5105  1.0511
 6902TIP3    H242266   3.285   3.491   2.136 -0.4233  0.7183 -0.8318
 6903TIP3   OH242267   5.169   6.343   7.163  0.4781 -0.5322  0.1714
 6903TIP3    H142268   5.208   6.408   7.221  1.2416 -1.3353  0.5718
 6903TIP3    H242269   5.227   6.340   7.087  0.0318 -0.2049 -0.1829
 6904TIP3   OH242270   3.098   2.082   6.791  0.1047  0.0974 -0.7654
 6904TIP3    H142271   3.144   2.164   6.773 -0.8418  1.0864  1.0512
 6904TIP3    H242272   3.010   2.095   6.754 -0.0587 -0.0823 -0.4474
 6905TIP3   OH242273   6.197   2.918   0.296 -0.3956 -0.5787 -0.0312
 6905TIP3    H142274   6.272   2.862   0.310  0.9120  0.8130 -1.1762
 6905TIP3    H242275   6.163   2.893   0.210  0.3824  0.5447 -0.6855
 6906TIP3   OH242276   6.233   3.546   7.582 -0.1138  1.0028 -0.0251
 6906TIP3    H142277   6.306   3.593   7.542  1.5823 -0.7115  0.8994
 6906TIP3    H242278   6.243   3.563   7.676 -0.8197  0.6287  0.1230
 6907TIP3   OH242279   4.468   1.074   0.886 -0.6296 -0.1810  0.3535
 6907TIP3    H142280   4.563   1.078   0.875 -0.7194 -1.1641 -1.0772
 6907TIP3    H242281   4.456   1.045   0.977  0.5114 -1.6450  0.0863
 6908TIP3   OH242282   6.740   4.761   7.866 -0.1633 -0.0710 -0.5716
 6908TIP3    H142283   6.689   4.831   7.824  0.8480 -0.6204 -2.8913
 6908TIP3    H242284   6.691   4.740   7.945 -2.9513  0.1733 -2.1111
 6909TIP3   OH242285   3.219   3.487   0.922  0.4120 -0.1683 -0.2384
 6909TIP3    H142286   3.147   3.424   0.917  0.8475 -0.9075  1.7167
 6909TIP3    H242287   3.294   3.435   0.950  1.4067  0.8193 -0.9836
 6910TIP3   OH242288   1.951   6.933   7.780 -0.0111 -0.0400 -0.3922
 6910TIP3    H142289   1.965   6.997   7.711 -0.0953 -0.2126 -0.5727
 6910TIP3    H242290   1.972   6.849   7.739  1.8627  0.0195  0.3636
 6911TIP3   OH242291   0.461   3.067   8.114 -0.8699  0.0008 -0.3776
 6911TIP3    H142292   0.536   3.083   8.056 -0.8310  1.7990  0.0921
 6911TIP3    H242293   0.457   2.972   8.123  0.4398 -0.2065 -1.5999
 6912TIP3   OH242294   4.154   6.071   7.724  0.1151  0.1388 -0.1582
 6912TIP3    H142295   4.106   6.007   7.671  0.8677 -1.1854  0.7059
 6912TIP3    H242296   4.160   6.148   7.669 -2.3028  0.0859 -0.6030
 6913TIP3   OH242297   2.595   4.251   7.935  0.3417  0.4705 -0.0904
 6913TIP3    H142298   2.509   4.214   7.915 -0.2109  1.0618  1.0810
 6913TIP3    H242299   2.603   4.243   8.030  0.4815  2.6868  0.1470
 6914TIP3   OH242300   1.194   4.109   0.819  0.9920 -0.2597 -0.2009
 6914TIP3    H142301   1.198   4.107   0.914 -0.3712 -1.3399 -0.1312
 6914TIP3    H242302   1.179   4.018   0.794  1.3231  0.0062 -1.4523
 6915TIP3   OH242303   0.649   0.696   5.917 -0.4002  0.4327  0.1721
 6915TIP3    H142304   0.617   0.612   5.950 -1.0803  0.5116 -0.2623
 6915TIP3    H242305   0.574   0.755   5.925 -0.2491  0.7295 -0.5035
 6916TIP3   OH242306   3.558   2.641   1.965  0.8113  0.1275  0.3519
 6916TIP3    H142307   3.536   2.634   1.872 -0.2124 -0.1437  0.6099
 6916TIP3    H242308   3.540   2.732   1.987  1.2571  0.2469  0.2460
 6917TIP3   OH242309   1.695   1.630   7.570 -0.5025 -0.4217 -0.0854
 6917TIP3    H142310   1.684   1.556   7.511 -1.7399  0.0153 -0.4205
 6917TIP3    H242311   1.658   1.601   7.653  0.0957 -0.5894  0.1286
 6918TIP3   OH242312   2.054   5.846   0.219  0.3158 -0.8278  0.8313
 6918TIP3    H142313   2.102   5.914   0.265  0.3858 -0.5948  0.4200
 6918TIP3    H242314   1.963   5.859   0.247 -0.0110  0.7082 -0.7084
 6919TIP3   OH242315   1.312   3.844   0.921 -0.6949  0.2379  0.0916
 6919TIP3    H142316   1.257   3.810   0.991  0.7145 -0.5265  0.8691
 6919TIP3    H242317   1.400   3.814   0.943  0.6328  3.8912  0.5697
 6920TIP3   OH242318   3.661   1.041   8.094  0.0808 -0.2675 -0.2652
 6920TIP3    H142319   3.674   1.042   7.999 -0.3443 -2.4200 -0.3994
 6920TIP3    H242320   3.569   1.066   8.105 -0.0482 -0.6518 -0.4646
 6921TIP3   OH242321   0.780   4.725   7.676  0.9508 -0.6934 -0.0604
 6921TIP3    H142322   0.834   4.774   7.614 -0.1606 -1.0255 -1.3426
 6921TIP3    H242323   0.803   4.761   7.762  4.4237 -1.9409 -0.2995
 6922TIP3   OH242324   3.779   5.562   2.492  0.0031 -0.1881  0.2256
 6922TIP3    H142325   3.813   5.650   2.505 -1.8960  0.5208  0.6775
 6922TIP3    H242326   3.828   5.529   2.416 -0.3740  1.8893 -1.0128
 6923TIP3   OH242327   5.177   4.059   7.392 -0.2790 -0.0998  0.8164
 6923TIP3    H142328   5.249   3.996   7.396  1.1637  1.4879  1.2045
 6923TIP3    H242329   5.172   4.095   7.481  1.6003  3.0888 -0.2147
 6924TIP3   OH242330   6.780   2.937   8.326 -0.0453  0.6299 -0.6008
 6924TIP3    H142331   6.800   2.906   8.414 -1.2375  1.0490 -0.1611
 6924TIP3    H242332   6.851   2.998   8.306  0.5659  0.0697 -0.1820
 6925TIP3   OH242333   3.757   5.355   1.240  0.2604 -0.0303  0.0540
 6925TIP3    H142334   3.819   5.425   1.259  1.1999 -1.1681  1.3570
 6925TIP3    H242335   3.796   5.307   1.167 -0.1996  0.5346 -0.5855
 6926TIP3   OH242336   6.679   4.826   8.393  0.7394 -0.0074 -0.0968
 6926TIP3    H142337   6.767   4.861   8.379  0.4495  0.3856 -0.9547
 6926TIP3    H242338   6.646   4.806   8.306 -0.0375 -0.1406  0.2159
 6927TIP3   OH242339   5.474   4.571   8.151 -0.4763 -0.8623 -0.0202
 6927TIP3    H142340   5.468   4.476   8.145 -1.5956 -0.7792 -0.6176
 6927TIP3    H242341   5.558   4.588   8.194 -0.7490 -2.1481  1.0826
 6928TIP3   OH242342   0.408   3.570   1.379  0.0957 -0.2992 -0.3262
 6928TIP3    H142343   0.390   3.594   1.288 -2.0450  0.9184  0.3640
 6928TIP3    H242344   0.504   3.575   1.386  0.2866 -0.1036 -2.3945
 6929TIP3   OH242345   5.182   2.692   0.281 -0.0114 -0.0641  0.0365
 6929TIP3    H142346   5.234   2.613   0.263 -0.1216  0.1632 -1.4296
 6929TIP3    H242347   5.242   2.765   0.264 -0.7909  0.2050 -1.8451
 6930TIP3   OH242348   1.402   3.733   0.162  0.1367  0.3316 -0.3880
 6930TIP3    H142349   1.348   3.674   0.110  2.0162 -1.9985  0.1531
 6930TIP3    H242350   1.339   3.783   0.214 -1.5535 -1.5783 -0.4804
 6931TIP3   OH242351   0.921   4.174   6.695  0.6398 -0.2189 -0.4897
 6931TIP3    H142352   0.922   4.200   6.602 -1.6436 -2.2126 -1.1714
 6931TIP3    H242353   0.935   4.256   6.742  2.1599  0.8200 -2.5661
 6932TIP3   OH242354   0.751   6.136   6.645  0.3839  0.0030 -0.6461
 6932TIP3    H142355   0.734   6.226   6.618 -1.2185 -0.5376 -1.6114
 6932TIP3    H242356   0.671   6.109   6.690  0.3449 -1.2894 -1.4227
 6933TIP3   OH242357   1.902   6.571   1.675  0.1178 -0.0519 -0.3836
 6933TIP3    H142358   1.882   6.590   1.584  1.2155  2.1336 -0.2425
 6933TIP3    H242359   1.816   6.565   1.718 -0.3842  1.3363 -1.1381
 6934TIP3   OH242360   6.097   1.565   2.133  0.2212  0.3066 -0.2437
 6934TIP3    H142361   6.023   1.508   2.154  0.8737 -0.0473  1.1769
 6934TIP3    H242362   6.057   1.640   2.090 -1.1809  0.8422  1.8396
 6935TIP3   OH242363   5.873   6.006   1.720 -0.4538  0.1110  0.0883
 6935TIP3    H142364   5.847   6.079   1.663 -0.8067 -0.3489 -0.3583
 6935TIP3    H242365   5.969   6.008   1.719 -0.4512  1.2073  0.9322
 6936TIP3   OH242366   0.890   0.781   8.181  0.1704 -0.0041  0.2019
 6936TIP3    H142367   0.795   0.768   8.177  0.1530 -0.2011  1.0973
 6936TIP3    H242368   0.925   0.709   8.128 -0.1244 -0.9391  1.2332
 6937TIP3   OH242369   3.443   6.354   2.812  0.3038 -0.1408  0.4101
 6937TIP3    H142370   3.493   6.375   2.733 -2.5204 -1.0548 -1.8235
 6937TIP3    H242371   3.487   6.277   2.848  1.4173  0.0335 -0.5195
 6938TIP3   OH242372   4.878   3.479   7.463 -0.5432 -0.2176  0.0117
 6938TIP3    H142373   4.943   3.498   7.529  0.3565 -0.2685 -0.8393
 6938TIP3    H242374   4.827   3.560   7.454  0.2729  0.2724 -0.2752
 6939TIP3   OH242375   2.133   1.989   1.242 -0.3291 -0.3369  0.0520
 6939TIP3    H142376   2.179   1.958   1.320  1.1110 -0.7036 -0.9036
 6939TIP3    H242377   2.202   1.997   1.176 -1.2036  1.6948 -0.6931
 6940TIP3   OH242378   2.913   5.657   1.765 -0.0935 -0.4712 -0.1254
 6940TIP3    H142379   2.969   5.733   1.781  0.6599 -1.0229 -0.0897
 6940TIP3    H242380   2.829   5.695   1.737  0.3965  0.3607 -0.5205
 6941TIP3   OH242381   3.149   1.506   2.202 -0.5875  0.2384  0.9600
 6941TIP3    H142382   3.162   1.427   2.255 -1.7615 -0.9133 -0.3809
 6941TIP3    H242383   3.129   1.575   2.265 -0.4897 -0.7497  2.1020
 6942TIP3   OH242384   3.626   6.360   2.089  0.4692  0.4964  0.1407
 6942TIP3    H142385   3.640   6.443   2.135 -0.2253  2.0311 -2.1890
 6942TIP3    H242386   3.685   6.365   2.013  0.8114 -1.4139  0.2420
 6943TIP3   OH242387   6.216   6.471   1.477  0.2751 -0.2626 -0.0355
 6943TIP3    H142388   6.199   6.510   1.563  0.8916 -0.1374  0.0353
 6943TIP3    H242389   6.312   6.465   1.472  0.2248 -0.7193 -0.5153
 6944TIP3   OH242390   0.653   6.381   6.539 -0.4384  0.0722 -0.0942
 6944TIP3    H142391   0.629   6.446   6.472 -0.4613  0.4467  0.2701
 6944TIP3    H242392   0.575   6.373   6.593  0.6384  2.4243  2.0082
 6945TIP3   OH242393   6.804   2.541   2.017  0.5062  0.1188  0.4067
 6945TIP3    H142394   6.792   2.616   1.959 -0.6034 -1.1945 -1.1805
 6945TIP3    H242395   6.896   2.544   2.042  0.9836  0.8858 -1.2810
 6946TIP3   OH242396   6.149   1.677   1.232 -0.7565 -0.6806  0.7599
 6946TIP3    H142397   6.063   1.716   1.217  0.0362 -0.0023 -3.0310
 6946TIP3    H242398   6.190   1.735   1.296 -2.1955  0.5064  0.6614
 6947TIP3   OH242399   0.922   2.091   0.737 -0.0452  0.0216  0.3365
 6947TIP3    H142400   0.993   2.064   0.679 -0.5813  2.1960 -1.4653
 6947TIP3    H242401   0.956   2.168   0.783 -0.0458 -0.9896  2.1076
 6948TIP3   OH242402   5.919   1.316   0.133 -0.2230 -0.7839 -0.3532
 6948TIP3    H142403   5.927   1.355   0.219 -0.2305 -0.3930 -0.5282
 6948TIP3    H242404   5.882   1.229   0.149  0.7443 -1.1225  0.1259
 6949TIP3   OH242405   2.328   2.581   6.798  0.1495 -0.2748  0.1080
 6949TIP3    H142406   2.358   2.513   6.737 -1.6087 -0.3070 -0.7689
 6949TIP3    H242407   2.401   2.590   6.860  0.8464 -2.2572 -0.3177
 6950TIP3   OH242408   1.901   0.888   1.561 -0.3956 -0.0221  0.4969
 6950TIP3    H142409   1.926   0.974   1.595  0.1805 -0.6432  1.6851
 6950TIP3    H242410   1.974   0.861   1.507 -0.9892  0.6366 -0.6699
 6951TIP3   OH242411   4.440   0.503   7.189  0.2282 -0.2539 -0.3552
 6951TIP3    H142412   4.480   0.558   7.123  0.6062 -1.3841 -1.0948
 6951TIP3    H242413   4.458   0.547   7.272 -0.9194  1.5990 -1.0146
 6952TIP3   OH242414   6.016   5.330   2.304  0.6347  0.1648  0.0609
 6952TIP3    H142415   6.109   5.354   2.311  0.8670 -0.8091  0.3475
 6952TIP3    H242416   6.011   5.241   2.337 -0.1168 -0.4298 -1.5360
 6953TIP3   OH242417   2.996   3.466   0.615  0.2512 -0.0272 -0.2752
 6953TIP3    H142418   2.949   3.450   0.697  1.2161 -0.1221  0.2804
 6953TIP3    H242419   3.067   3.402   0.615 -0.5981 -1.0489 -1.9206
 6954TIP3   OH242420   6.475   4.169   0.301 -0.2510  0.3538  0.2362
 6954TIP3    H142421   6.513   4.090   0.262 -1.9391 -0.7947  0.7966
 6954TIP3    H242422   6.516   4.241   0.254  1.7966 -0.8194  0.1081
 6955TIP3   OH242423   4.623   3.443   1.180 -0.6489 -0.3401 -0.3512
 6955TIP3    H142424   4.603   3.442   1.087  0.0849  1.2698 -0.5631
 6955TIP3    H242425   4.596   3.530   1.209 -2.6002 -1.4256  1.3711
 6956TIP3   OH242426   6.643   6.683   7.588  0.0933 -0.6874  0.2601
 6956TIP3    H142427   6.561   6.652   7.626 -1.0778 -0.7666 -2.1491
 6956TIP3    H242428   6.618   6.725   7.506  2.5879 -2.2708 -1.4742
 6957TIP3   OH242429   6.560   2.606   0.700 -0.0468 -0.2835 -0.4697
 6957TIP3    H142430   6.535   2.681   0.645 -2.7788  0.4055  1.4831
 6957TIP3    H242431   6.632   2.639   0.754  0.8688 -0.1192 -1.7488
 6958TIP3   OH242432   5.730   2.360   6.329 -0.4716  0.1784  0.4900
 6958TIP3    H142433   5.651   2.395   6.372 -0.4009  0.4710  0.3824
 6958TIP3    H242434   5.797   2.363   6.398 -1.1223 -2.3354  1.3511
 6959TIP3   OH242435   5.091   3.598   7.893 -0.2012 -1.0965 -0.3401
 6959TIP3    H142436   5.184   3.606   7.871 -0.9577 -0.0989 -3.6935
 6959TIP3    H242437   5.088   3.613   7.987  2.8471  0.8627 -0.3977
 6960TIP3   OH242438   3.106   5.025   2.628  0.1912  0.3671  0.2107
 6960TIP3    H142439   3.087   5.098   2.569 -0.1160  1.0666  1.1566
 6960TIP3    H242440   3.080   5.056   2.715 -2.4408 -1.8022  0.3366
 6961TIP3   OH242441   4.145   0.523   6.820  0.5218 -0.8837  0.0177
 6961TIP3    H142442   4.097   0.584   6.764  2.0061 -0.8334 -1.2627
 6961TIP3    H242443   4.172   0.575   6.896 -0.4147 -0.6303  0.1853
 6962TIP3   OH242444   1.745   5.195   8.031 -0.0055  0.5081 -0.2680
 6962TIP3    H142445   1.764   5.206   7.938  0.2426  2.2085 -0.0515
 6962TIP3    H242446   1.827   5.164   8.070  0.2424  0.9483 -0.4383
 6963TIP3   OH242447   2.610   6.119   1.732  0.4617  0.0773 -0.2615
 6963TIP3    H142448   2.541   6.053   1.729  2.3049 -1.9675 -1.1352
 6963TIP3    H242449   2.627   6.141   1.640  1.4470 -0.0397 -0.1225
 6964TIP3   OH242450   0.021   2.227   1.301 -0.0040 -0.1465 -0.4072
 6964TIP3    H142451   0.114   2.242   1.286  0.2232 -1.6757 -0.6815
 6964TIP3    H242452   0.017   2.177   1.382 -0.5600 -0.4060 -0.5878
 6965TIP3   OH242453   4.298   3.961   6.908  0.3876 -0.5424 -0.1097
 6965TIP3    H142454   4.389   3.986   6.923  0.9070 -2.8691  1.1208
 6965TIP3    H242455   4.302   3.868   6.886 -1.6717 -0.6101 -0.3642
 6966TIP3   OH242456   4.603   3.474   0.275 -0.2205 -0.0575  0.4177
 6966TIP3    H142457   4.555   3.554   0.255  1.3001  0.4100 -1.7845
 6966TIP3    H242458   4.547   3.427   0.337 -3.3478  0.5916 -1.6526
 6967TIP3   OH242459   3.906   4.698   7.969  0.2271 -1.1545  0.3924
 6967TIP3    H142460   3.957   4.665   8.044  0.1013 -0.5034  0.7763
 6967TIP3    H242461   3.904   4.793   7.982 -1.4542 -1.1893  0.6157
 6968TIP3   OH242462   3.283   5.460   0.862  0.5929  0.2247  0.5718
 6968TIP3    H142463   3.348   5.424   0.802 -1.0951  1.1856 -2.0295
 6968TIP3    H242464   3.333   5.515   0.922  2.3987 -0.8945  0.1604
 6969TIP3   OH242465   2.329   0.216   2.853 -0.4762 -0.4122  0.3034
 6969TIP3    H142466   2.373   0.137   2.886  0.2233 -0.0764  0.1981
 6969TIP3    H242467   2.318   0.200   2.760  0.5942  0.0239  0.0856
 6970TIP3   OH242468   5.162   4.599   7.113  0.6895 -0.0289 -0.2408
 6970TIP3    H142469   5.255   4.581   7.100  0.7172 -0.4439  0.4949
 6970TIP3    H242470   5.131   4.628   7.027  1.3469 -0.5594 -0.6659
 6971TIP3   OH242471   5.548   1.064   2.135  0.5149  0.2148 -0.2615
 6971TIP3    H142472   5.484   1.135   2.132 -0.4637 -0.4938  1.8777
 6971TIP3    H242473   5.501   0.990   2.175  2.6310 -0.3274  1.4223
 6972TIP3   OH242474   1.942   0.923   1.877 -0.1328  0.1240  0.0617
 6972TIP3    H142475   1.867   0.898   1.823 -1.9798  0.3090  2.4195
 6972TIP3    H242476   1.980   0.840   1.905  1.0621  0.0163 -1.6708
 6973TIP3   OH242477   0.714   6.678   7.670 -0.0932 -0.4912 -0.3602
 6973TIP3    H142478   0.767   6.681   7.750 -0.6075  0.3221 -0.0351
 6973TIP3    H242479   0.776   6.654   7.602  1.3542  2.8793 -0.4438
 6974TIP3   OH242480   6.186   4.491   0.552  0.5262  0.5834  0.0569
 6974TIP3    H142481   6.254   4.465   0.614  1.0268  2.3179  0.2750
 6974TIP3    H242482   6.232   4.543   0.486 -0.2358 -0.0643 -1.0139
 6975TIP3   OH242483   4.653   5.319   6.646 -0.1018 -0.6311 -0.2289
 6975TIP3    H142484   4.600   5.393   6.617  0.7725 -0.5330 -1.6375
 6975TIP3    H242485   4.601   5.242   6.623 -0.5580 -0.4964  0.3202
 6976TIP3   OH242486   2.198   5.503   1.950 -0.0382 -0.5638 -0.0245
 6976TIP3    H142487   2.239   5.536   2.030 -2.5080  1.0080  0.6893
 6976TIP3    H242488   2.233   5.558   1.880 -1.1651  1.0322  0.6255
 6977TIP3   OH242489   1.415   4.188   8.339 -0.2657 -0.0129 -0.0387
 6977TIP3    H142490   1.363   4.249   8.391  0.1059  1.0738 -0.9024
 6977TIP3    H242491   1.367   4.105   8.343 -2.8505  1.2514 -1.9410
 6978TIP3   OH242492   5.684   5.687   0.157 -0.8306  0.4556  0.3730
 6978TIP3    H142493   5.686   5.616   0.093 -0.1699 -0.7018  1.6189
 6978TIP3    H242494   5.774   5.718   0.162 -0.7784  0.2233  1.0478
 6979TIP3   OH242495   1.205   3.894   2.087  0.0141  0.0371  0.1554
 6979TIP3    H142496   1.141   3.840   2.041  1.8018 -1.6662 -0.4551
 6979TIP3    H242497   1.204   3.861   2.177 -0.0024  0.0588  0.1632
 6980TIP3   OH242498   3.979   2.726   1.226 -0.3548 -0.4670  0.4489
 6980TIP3    H142499   3.954   2.765   1.310 -1.6512  1.7502 -0.8760
 6980TIP3    H242500   4.062   2.767   1.204  1.5169 -3.1551  1.8549
 6981TIP3   OH242501   5.746   5.336   2.008 -0.2738  0.5814 -0.4496
 6981TIP3    H142502   5.731   5.430   2.021 -0.8758  0.4403 -0.1109
 6981TIP3    H242503   5.828   5.332   1.958  0.2601  1.2544  0.3468
 6982TIP3   OH242504   3.115   2.777   1.756  0.2744  0.1062  0.2837
 6982TIP3    H142505   3.054   2.847   1.775 -0.0643 -0.2644  0.5747
 6982TIP3    H242506   3.196   2.802   1.800  0.2991  0.5438 -0.0121
 6983TIP3   OH242507   6.083   6.038   0.914  0.4083 -0.3288  0.1765
 6983TIP3    H142508   6.069   6.078   1.000  2.0764 -1.4193  1.0245
 6983TIP3    H242509   6.177   6.045   0.900  0.4011 -1.7380 -0.7534
 6984TIP3   OH242510   1.779   6.574   1.412 -0.3141 -0.2884  0.5654
 6984TIP3    H142511   1.849   6.632   1.383  0.8889 -1.4200  1.0890
 6984TIP3    H242512   1.785   6.498   1.353 -1.1270 -0.3903  0.6005
 6985TIP3   OH242513   3.389   2.433   2.081  0.8288 -0.2361  0.0914
 6985TIP3    H142514   3.446   2.509   2.092  3.0255 -1.6646 -0.6192
 6985TIP3    H242515   3.403   2.406   1.990 -1.9608  0.0211 -0.4829
 6986TIP3   OH242516   5.800   6.179   1.306 -0.1700 -0.0577  0.5710
 6986TIP3    H142517   5.893   6.159   1.307 -0.1464 -0.1495 -1.0451
 6986TIP3    H242518   5.758   6.100   1.343  0.4567  0.7795  3.2644
 6987TIP3   OH242519   6.856   6.174   0.915 -0.5907  0.3562 -0.7427
 6987TIP3    H142520   6.877   6.200   0.826  1.9631  0.3229 -0.2314
 6987TIP3    H242521   6.895   6.087   0.924  2.3408  1.7114  1.3506
 6988TIP3   OH242522   5.879   2.654   0.573 -0.2756 -0.4043  0.2250
 6988TIP3    H142523   5.907   2.643   0.482 -2.2126  0.5282 -0.5345
 6988TIP3    H242524   5.959   2.678   0.620  0.4829  0.7798 -1.5593
 6989TIP3   OH242525   3.076   5.871   1.781 -0.0672 -0.4325  0.4159
 6989TIP3    H142526   3.093   5.955   1.825 -0.4780 -0.2282  0.1943
 6989TIP3    H242527   3.163   5.835   1.764  0.1607  0.5492 -0.6325
 6990TIP3   OH242528   4.415   0.847   7.975 -0.0816 -0.5485 -0.1811
 6990TIP3    H142529   4.353   0.774   7.986 -0.3464 -0.5140 -1.3829
 6990TIP3    H242530   4.501   0.807   7.988 -0.0830 -1.5256 -2.6328
 6991TIP3   OH242531   0.916   0.774   0.489 -0.2114 -0.2604  0.1730
 6991TIP3    H142532   0.840   0.812   0.533  0.9449  2.6635 -0.1283
 6991TIP3    H242533   0.983   0.767   0.558  0.1373 -0.0163 -0.1325
 6992TIP3   OH242534   1.619   2.478   8.344  0.3837 -0.2088 -0.1436
 6992TIP3    H142535   1.551   2.416   8.316  1.7454 -1.2824 -1.2359
 6992TIP3    H242536   1.635   2.455   8.436 -0.1911 -0.4540 -0.0998
 6993TIP3   OH242537   1.126   4.071   0.514 -0.4928 -0.0117  0.2429
 6993TIP3    H142538   1.148   4.036   0.600  1.8833  1.0158  0.1263
 6993TIP3    H242539   1.081   4.153   0.532  1.4149  1.0151  0.5785
 6994TIP3   OH242540   3.370   5.404   1.975 -0.4809  0.0877 -0.1587
 6994TIP3    H142541   3.402   5.451   1.898  3.2818 -0.6955  0.7278
 6994TIP3    H242542   3.282   5.373   1.950  0.1652  0.7208 -3.7168
 6995TIP3   OH242543   3.092   3.997   1.084  0.2659  0.0306 -0.0640
 6995TIP3    H142544   3.149   4.009   1.008  0.9131 -1.6328  0.1341
 6995TIP3    H242545   3.004   4.018   1.051  0.5463 -0.5920 -1.2513
 6996TIP3   OH242546   0.452   2.450   2.399  0.1211  0.0779 -0.0108
 6996TIP3    H142547   0.518   2.520   2.403  0.0975  0.1152 -0.2644
 6996TIP3    H242548   0.499   2.376   2.360  0.5952 -0.5591  1.6855
 6997TIP3   OH242549   2.683   2.402   8.157 -0.0024 -0.7125  0.0441
 6997TIP3    H142550   2.604   2.448   8.184  0.7348 -0.0221  1.0600
 6997TIP3    H242551   2.719   2.456   8.087  1.4504  0.9405  1.9576
 6998TIP3   OH242552   2.041   5.029   2.069  0.5828 -0.2974  0.0849
 6998TIP3    H142553   2.023   5.112   2.024  2.6709 -0.4322 -1.0976
 6998TIP3    H242554   1.970   4.972   2.040  0.0923  0.5636 -0.4988
 6999TIP3   OH242555   6.013   0.571   1.164 -0.2865  0.5063 -0.1870
 6999TIP3    H142556   6.029   0.648   1.111 -2.8255  0.3213 -1.3917
 6999TIP3    H242557   6.065   0.584   1.243  0.0804  2.9922 -0.7762
 7000TIP3   OH242558   2.141   3.687   0.705  0.1427  0.0254 -0.3668
 7000TIP3    H142559   2.068   3.641   0.663  0.0322  0.0393 -0.1913
 7000TIP3    H242560   2.212   3.622   0.708 -0.5172 -0.6623  1.3239
 7001TIP3   OH242561   4.538   6.529   2.003  0.1009  0.6054 -0.2883
 7001TIP3    H142562   4.472   6.478   2.050 -0.6384 -0.3198 -2.1902
 7001TIP3    H242563   4.583   6.580   2.070 -2.6107  1.3554  1.0751
 7002TIP3   OH242564   5.436   0.525   0.353 -0.5990 -0.1801 -0.1261
 7002TIP3    H142565   5.375   0.533   0.427 -1.0440 -2.5736 -0.1387
 7002TIP3    H242566   5.499   0.458   0.381 -0.4959 -0.7915 -1.7050
 7003TIP3   OH242567   6.232   5.489   8.314 -0.0499  0.3848 -0.3182
 7003TIP3    H142568   6.187   5.573   8.313  0.4861  0.6772 -0.7870
 7003TIP3    H242569   6.163   5.424   8.305 -0.5097  0.7486  0.5139
 7004TIP3   OH242570   0.584   2.691   1.482  0.3653 -0.2925  0.0027
 7004TIP3    H142571   0.526   2.758   1.446  0.7802  0.6104  0.9852
 7004TIP3    H242572   0.650   2.740   1.531  1.2364 -1.3727 -0.0561
 7005TIP3   OH242573   4.132   5.594   1.958 -0.4220  0.3732  0.5854
 7005TIP3    H142574   4.178   5.654   2.015  1.9937 -1.0686  0.2909
 7005TIP3    H242575   4.190   5.582   1.882 -1.5510 -1.0408 -0.1230
 7006TIP3   OH242576   6.856   3.959   1.308 -0.4501 -0.2107 -0.2287
 7006TIP3    H142577   6.792   3.929   1.373  1.3943 -2.4263  0.6727
 7006TIP3    H242578   6.806   4.018   1.251 -2.9072 -0.6895  1.2947
 7007TIP3   OH242579   5.428   3.681   0.768  0.0051  0.2628 -0.8017
 7007TIP3    H142580   5.390   3.638   0.844 -0.7043 -0.0135 -1.2981
 7007TIP3    H242581   5.380   3.764   0.759  0.9775  0.9151 -0.1872
 7008TIP3   OH242582   1.297   5.019   7.992 -0.2056  0.0134  0.3129
 7008TIP3    H142583   1.299   4.956   7.920  1.2861 -0.6977  0.9330
 7008TIP3    H242584   1.263   4.970   8.067  0.1363  0.1734  0.5807
 7009TIP3   OH242585   3.771   0.317   1.852  0.1690  0.5497  0.5010
 7009TIP3    H142586   3.825   0.371   1.794  1.0346  0.5821  1.3197
 7009TIP3    H242587   3.791   0.227   1.825  0.9596  0.5436  1.0608
 7010TIP3   OH242588   1.703   2.774   1.726 -0.0624  0.4738 -0.3230
 7010TIP3    H142589   1.718   2.735   1.812 -0.2759 -1.7459 -1.2180
 7010TIP3    H242590   1.789   2.804   1.697  0.3925 -0.6629 -0.1838
 7011TIP3   OH242591   6.689   4.296   6.924 -0.3410 -0.1535 -0.1084
 7011TIP3    H142592   6.668   4.390   6.925 -0.3396 -0.1548  0.1364
 7011TIP3    H242593   6.620   4.257   6.871 -1.6587 -0.3168  1.6314
 7012TIP3   OH242594   5.192   6.597   0.070 -0.2948  0.4329 -0.3288
 7012TIP3    H142595   5.113   6.544   0.058 -0.9203  1.5823 -1.6137
 7012TIP3    H242596   5.259   6.535   0.096 -0.8329 -1.1265 -2.3876
 7013TIP3   OH242597   2.195   3.778   0.128 -0.1495 -0.3148 -0.1826
 7013TIP3    H142598   2.145   3.834   0.068  1.3958 -0.7126 -1.9644
 7013TIP3    H242599   2.190   3.822   0.212 -1.5234  0.8679 -0.8464
 7014TIP3   OH242600   6.656   0.513   2.300 -0.0710  0.0702  0.4747
 7014TIP3    H142601   6.605   0.568   2.241 -0.4327 -1.9702 -1.2234
 7014TIP3    H242602   6.669   0.568   2.378 -1.3103  2.1269 -0.6609
 7015TIP3   OH242603   4.386   5.974   8.033  0.3547 -0.3029 -0.4488
 7015TIP3    H142604   4.413   5.886   8.006  0.8142 -1.3837  3.0552
 7015TIP3    H242605   4.304   5.960   8.080  0.3415  1.1622 -0.0052
 7016TIP3   OH242606   4.360   3.649   1.892 -0.5183  0.0713 -0.7515
 7016TIP3    H142607   4.270   3.628   1.867 -0.5706 -0.7427  0.0345
 7016TIP3    H242608   4.403   3.564   1.898  0.1461  0.4166 -0.5446
 7017TIP3   OH242609   1.607   4.277   1.252 -0.2377  0.5062  0.1124
 7017TIP3    H142610   1.692   4.319   1.235  0.1349 -0.0867  0.4713
 7017TIP3    H242611   1.630   4.188   1.281 -1.0095 -0.0521 -0.9145
 7018TIP3   OH242612   0.182   6.246   0.281 -0.4198 -0.1972  0.5109
 7018TIP3    H142613   0.259   6.261   0.335 -0.4610 -0.2963  0.5962
 7018TIP3    H242614   0.173   6.150   0.277 -0.6837 -0.1808  0.7067
 7019TIP3   OH242615   1.533   0.478   0.469  0.2202 -0.3115 -0.0219
 7019TIP3    H142616   1.462   0.531   0.507 -0.0311 -0.4370 -0.3157
 7019TIP3    H242617   1.503   0.388   0.479  0.9400 -0.4514  1.0799
 7020TIP3   OH242618   3.016   1.427   8.337  0.0927 -0.4420  0.3211
 7020TIP3    H142619   3.100   1.405   8.297 -0.1000  1.1675 -1.0993
 7020TIP3    H242620   2.959   1.354   8.313  0.6429 -0.7155 -0.1953
 7021TIP3   OH242621   6.273   2.446   0.921  0.3346 -0.6524  0.1955
 7021TIP3    H142622   6.231   2.401   0.847  0.6332 -1.0047  0.2412
 7021TIP3    H242623   6.356   2.478   0.885  1.1855 -2.1160  0.7550
 7022TIP3   OH242624   4.392   5.851   1.979  0.1110  0.0767 -0.2698
 7022TIP3    H142625   4.334   5.828   2.052 -0.1989  1.2702 -0.1085
 7022TIP3    H242626   4.476   5.870   2.021 -0.5836  2.8096  0.1264
 7023TIP3   OH242627   6.597   1.230   2.718  0.1585 -0.2476  0.2196
 7023TIP3    H142628   6.620   1.320   2.696  3.1544 -1.0451 -0.4151
 7023TIP3    H242629   6.636   1.216   2.805  1.3705 -1.3891 -0.4566
 7024TIP3   OH242630   5.386   4.578   7.418  0.3198  0.2888  0.3353
 7024TIP3    H142631   5.328   4.643   7.458 -0.8457 -1.3454  1.4774
 7024TIP3    H242632   5.474   4.602   7.447 -0.2238  0.6520  1.7539
 7025TIP3   OH242633   2.659   6.380   7.173  0.2941 -0.0827  0.1715
 7025TIP3    H142634   2.614   6.326   7.107  0.1385 -0.2692  0.4278
 7025TIP3    H242635   2.630   6.344   7.256  1.3356 -0.5437  0.3503
 7026TIP3   OH242636   2.167   4.492   2.765 -0.0229 -0.2509  0.6435
 7026TIP3    H142637   2.158   4.508   2.671  1.2465 -1.4121  0.3074
 7026TIP3    H242638   2.202   4.574   2.800  1.0256 -0.3346 -0.1612
 7027TIP3   OH242639   3.200   4.604   0.520  0.3346  0.4734  0.4276
 7027TIP3    H142640   3.252   4.528   0.497  1.3575  1.1473  0.4493
 7027TIP3    H242641   3.198   4.605   0.616 -1.1619 -0.4889  0.4381
 7028TIP3   OH242642   4.218   5.394   6.650  0.0573 -0.2985  0.2509
 7028TIP3    H142643   4.271   5.321   6.682 -1.2770 -1.7735 -0.7501
 7028TIP3    H242644   4.276   5.469   6.654  2.0482 -1.7238 -0.2233
 7029TIP3   OH242645   4.820   1.201   1.386  0.1238  0.0788  0.3205
 7029TIP3    H142646   4.861   1.255   1.319  3.1904  0.6205  2.4299
 7029TIP3    H242647   4.726   1.202   1.364  0.7172  1.8721 -2.6883
 7030TIP3   OH242648   4.388   3.382   1.780  0.0725 -0.1361  0.0977
 7030TIP3    H142649   4.404   3.289   1.760 -0.2868 -0.1777 -0.0005
 7030TIP3    H242650   4.295   3.395   1.761  0.0172  0.1341  0.5476
 7031TIP3   OH242651   2.521   4.976   2.383  0.4727 -0.2307 -0.7285
 7031TIP3    H142652   2.500   4.907   2.445  2.2885  0.5305  0.8646
 7031TIP3    H242653   2.535   4.931   2.299  0.9485 -1.7038  0.1127
 7032TIP3   OH242654   2.821   6.069   7.764 -0.8045  0.1741 -0.0425
 7032TIP3    H142655   2.791   5.991   7.810 -1.5072  0.0411 -0.6993
 7032TIP3    H242656   2.888   6.107   7.822 -0.2528 -1.0481  0.1583
 7033TIP3   OH242657   5.952   2.716   1.149 -0.1115 -0.1670  0.0750
 7033TIP3    H142658   6.016   2.645   1.137 -0.1885 -0.4123  1.0904
 7033TIP3    H242659   6.005   2.794   1.163 -0.0154 -0.4912  1.6278
 7034TIP3   OH242660   1.049   2.355   0.513 -0.3492  0.6729 -0.3426
 7034TIP3    H142661   0.984   2.286   0.519 -1.9272  1.8824 -2.1862
 7034TIP3    H242662   1.031   2.412   0.588 -1.0687  0.7218 -0.5503
 7035TIP3   OH242663   2.386   2.974   0.691 -0.1277  0.2247 -0.4321
 7035TIP3    H142664   2.384   3.045   0.626 -0.6757 -0.0177 -0.6837
 7035TIP3    H242665   2.301   2.931   0.682 -0.7222  0.9309  1.2733
 7036TIP3   OH242666   4.954   2.295   0.059 -1.0197  0.2001 -0.0851
 7036TIP3    H142667   5.004   2.240  -0.001 -1.8676 -1.1193  0.3724
 7036TIP3    H242668   4.868   2.305   0.017 -0.4063  2.5948 -0.9555
 7037TIP3   OH242669   3.982   0.666   7.627 -0.4218  0.2325  0.0216
 7037TIP3    H142670   3.951   0.728   7.561 -0.2736  0.8847  0.5590
 7037TIP3    H242671   4.077   0.663   7.615 -0.1099  1.9970  1.5708
 7038TIP3   OH242672   1.629   0.989   2.469  0.0520  0.1506 -0.9331
 7038TIP3    H142673   1.556   0.927   2.480  1.8206 -2.1796 -1.5029
 7038TIP3    H242674   1.643   1.025   2.556  0.9923 -2.7711  0.2525
 7039TIP3   OH242675   2.938   6.329   2.209  0.1311  0.4322 -0.0013
 7039TIP3    H142676   2.883   6.356   2.282  2.1607  2.6641  0.8467
 7039TIP3    H242677   2.989   6.256   2.243 -0.6197 -0.1119 -0.0197
 7040TIP3   OH242678   3.121   4.525   7.083  0.1583 -0.4429  0.3058
 7040TIP3    H142679   3.207   4.483   7.084 -0.7536 -2.4251  0.0068
 7040TIP3    H242680   3.084   4.502   6.998 -0.4088  1.0158  0.1205
 7041TIP3   OH242681   2.401   5.413   2.449  0.0024  0.0258  0.1848
 7041TIP3    H142682   2.355   5.373   2.522  0.2118 -0.6735 -0.0548
 7041TIP3    H242683   2.388   5.352   2.376  3.1155 -1.3854  0.6510
 7042TIP3   OH242684   2.093   5.454   8.275 -0.0609 -0.0894 -0.3969
 7042TIP3    H142685   2.009   5.484   8.309 -1.2358 -1.7095 -1.7077
 7042TIP3    H242686   2.124   5.390   8.339  0.4937  0.9272  0.3784
 7043TIP3   OH242687   1.818   5.398   0.485  0.4484 -0.2733 -0.1660
 7043TIP3    H142688   1.841   5.491   0.490  2.5671 -0.7988  1.5806
 7043TIP3    H242689   1.900   5.355   0.459  0.3746 -1.8910  2.0075
 7044TIP3   OH242690   0.686   5.436   8.481 -0.4087 -0.0697  0.3907
 7044TIP3    H142691   0.591   5.431   8.476 -0.5858  1.2455  1.8046
 7044TIP3    H242692   0.707   5.525   8.455  0.2734  0.1930  1.7346
 7045TIP3   OH242693   3.928   1.303   7.204 -0.9883  0.6097 -0.6387
 7045TIP3    H142694   3.958   1.228   7.256 -2.2536  0.9275  0.6092
 7045TIP3    H242695   4.000   1.319   7.143 -0.1046 -0.7556 -0.0271
 7046TIP3   OH242696   5.040   0.572   2.073  0.5237 -0.2475  0.5009
 7046TIP3    H142697   5.040   0.480   2.100  0.0571  0.4550  3.1739
 7046TIP3    H242698   5.128   0.587   2.039  0.2952 -1.8819 -0.9762
 7047TIP3   OH242699   5.464   5.205   7.304 -0.1810  0.3769  0.2427
 7047TIP3    H142700   5.395   5.145   7.335  0.2851 -0.6352 -0.6318
 7047TIP3    H242701   5.424   5.292   7.309 -1.0858 -0.0572  0.9436
 7048TIP3   OH242702   4.447   2.495   0.128  0.5260 -0.6768  0.1557
 7048TIP3    H142703   4.388   2.544   0.186  1.0739 -1.2920  1.2640
 7048TIP3    H242704   4.529   2.544   0.129  0.4502 -0.5302 -0.3503
 7049TIP3   OH242705   5.465   4.496   0.079 -0.2246  0.8454 -0.6409
 7049TIP3    H142706   5.387   4.505   0.025 -1.3076 -1.5982  0.4124
 7049TIP3    H242707   5.445   4.546   0.159 -0.4627  0.6998 -0.6102
 7050TIP3   OH242708   5.831   0.211   7.607 -0.1334 -0.7060  0.5417
 7050TIP3    H142709   5.850   0.157   7.530 -2.3717 -0.1678 -0.4647
 7050TIP3    H242710   5.907   0.269   7.616 -0.3813  0.1457 -2.1267
 7051TIP3   OH242711   5.234   4.766   1.558  0.0890 -0.3808 -0.1154
 7051TIP3    H142712   5.184   4.704   1.505  1.2062 -0.5391 -1.0180
 7051TIP3    H242713   5.184   4.848   1.553  1.5979  0.5520 -4.0294
 7052TIP3   OH242714   4.981   2.489   1.392 -0.0532  0.9420  0.3037
 7052TIP3    H142715   4.907   2.522   1.342  0.7317  1.1651 -0.7383
 7052TIP3    H242716   4.952   2.492   1.484 -1.8884 -0.4306 -0.1724
 7053TIP3   OH242717   1.770   1.950   8.013 -0.1267 -0.1096  0.1415
 7053TIP3    H142718   1.816   1.981   8.091 -1.7423  1.3892  0.5693
 7053TIP3    H242719   1.780   2.021   7.950 -1.1005 -0.1546 -0.0681
 7054TIP3   OH242720   4.427   6.182   1.079 -0.2426  0.2045  0.1322
 7054TIP3    H142721   4.397   6.241   1.149  0.0778  0.0803  0.3769
 7054TIP3    H242722   4.409   6.230   0.998 -0.7376  0.2945  0.2910
 7055TIP3   OH242723   1.007   1.423   8.365 -0.7096  0.0552 -0.2909
 7055TIP3    H142724   1.056   1.410   8.284 -1.8595  0.6047 -1.0966
 7055TIP3    H242725   0.916   1.420   8.339 -1.1143  2.2214  0.6618
 7056TIP3   OH242726   1.072   3.919   7.289 -0.6824  0.4191  0.1473
 7056TIP3    H142727   0.996   3.895   7.236 -1.1277  1.1383  0.4570
 7056TIP3    H242728   1.088   4.011   7.268 -1.7490  1.1549  2.3188
 7057TIP3   OH242729   5.413   4.103   0.117  0.0246 -0.3802 -0.1072
 7057TIP3    H142730   5.478   4.147   0.173  0.6152 -0.1719 -0.9287
 7057TIP3    H242731   5.406   4.015   0.154  0.1281 -0.1361  0.5165
 7058TIP3   OH242732   4.353   0.917   1.116 -0.4501  0.4705  0.0370
 7058TIP3    H142733   4.289   0.850   1.093 -0.3227  0.4088 -0.1367
 7058TIP3    H242734   4.438   0.875   1.102 -0.3442 -0.1056  2.0727
 7059TIP3   OH242735   5.775   0.591   8.492 -0.4540  0.4257  0.0695
 7059TIP3    H142736   5.767   0.632   8.406  0.9193 -1.4111 -1.0149
 7059TIP3    H242737   5.711   0.520   8.490 -1.4945  1.2960  1.1963
 7060TIP3   OH242738   6.424   5.326   7.745  0.1345  0.1676  0.8066
 7060TIP3    H142739   6.491   5.287   7.689  1.1786  2.1784  0.5483
 7060TIP3    H242740   6.341   5.304   7.703  0.7806 -0.3224 -0.2386
 7061TIP3   OH242741   0.113   1.402   8.018  0.4011  1.2411  0.3669
 7061TIP3    H142742   0.047   1.335   7.997 -0.5564  1.4081  2.5753
 7061TIP3    H242743   0.147   1.429   7.932 -0.6026 -0.6259 -0.7066
 7062TIP3   OH242744   5.871   3.535   2.031 -0.1483  0.6775  0.8009
 7062TIP3    H142745   5.937   3.587   1.985 -1.1909  1.0639 -0.2958
 7062TIP3    H242746   5.788   3.565   1.995 -0.8322 -1.0508  0.8909
 7063TIP3   OH242747   2.616   0.321   0.326  0.3254 -0.2663  0.3313
 7063TIP3    H142748   2.549   0.384   0.303  1.4994  0.6712 -0.6506
 7063TIP3    H242749   2.698   0.360   0.295  0.9954 -2.7161 -1.2744
 7064LIG     O142750   6.911   0.894   5.912  0.3506  0.3251  0.0576
 7064LIG     O242751   7.146   0.836   6.306  0.3500 -0.2338  0.4618
 7064LIG     N142752   7.266   0.845   6.111 -0.2180  0.2323 -0.2953
 7064LIG     N242753   7.173   0.863   5.768 -0.1544  0.7447  0.6260
 7064LIG     N342754   7.024   0.854   6.106 -0.3666 -0.2139  0.0587
 7064LIG     N442755   7.359   0.849   5.879  0.6643 -0.2834 -0.0711
 7064LIG     C142756   7.138   0.863   5.902  0.6592 -0.0975  0.3536
 7064LIG     C242757   7.257   0.856   5.972 -0.4177 -0.4472  0.2678
 7064LIG     C342758   7.017   0.871   5.968 -0.7558  0.5701  0.1520
 7064LIG     C442759   7.147   0.845   6.184  0.5686  0.1368 -0.3763
 7064LIG     C542760   7.305   0.848   5.759 -0.5864 -0.8091  1.3240
 7064LIG     C642761   7.397   0.820   6.184  0.2105 -0.3089  0.6082
 7064LIG     C742762   7.092   0.864   5.657  0.9464  0.3093 -0.6663
 7064LIG     C842763   6.902   0.880   6.188 -0.0776 -0.6519  0.2999
 7064LIG     H142764   7.350   0.847   5.659 -1.0791 -4.0794  1.0437
 7064LIG     H242765   7.470   0.901   6.161 -2.5690  1.8349 -1.2740
 7064LIG     H342766   7.440   0.724   6.145 -0.9806 -1.5204  2.1503
 7064LIG     H442767   7.396   0.807   6.294 -1.2931  0.6774  0.7314
 7064LIG     H542768   7.111   0.779   5.588  1.4075 -0.4700  0.3937
 7064LIG     H642769   7.105   0.956   5.595  0.2823  1.2929  0.5959
 7064LIG     H742770   6.984   0.858   5.685  0.2894 -1.3793 -3.2895
 7064LIG     H842771   6.892   0.989   6.204 -1.7943 -0.4984 -1.4753
 7064LIG     H942772   6.904   0.813   6.276  0.2301 -0.6385  0.3071
 7064LIG    H1042773   6.813   0.837   6.137  1.3677 -3.7752  0.1672
   6.94381   6.94381   8.52849
