Title
42782
    1SAPS     N    1   5.921   1.860   6.915 -0.4498  0.3057 -0.3143
    1SAPS   HN1    2   5.973   1.938   6.871  1.3154  0.0492  1.1947
    1SAPS   HN2    3   5.912   1.775   6.855 -1.4686 -0.6353  1.1090
    1SAPS   HN3    4   5.824   1.891   6.935 -0.1320  0.0315  1.8517
    1SAPS   C12    5   5.997   1.822   7.031 -0.1443 -0.1888  1.2624
    1SAPS  H12A    6   6.035   1.913   7.075 -1.3011  2.6080 -2.9449
    1SAPS   C13    7   5.906   1.764   7.141  0.1740 -0.1755 -0.3532
    1SAPS  O13A    8   5.787   1.725   7.115  0.8998 -0.1887  0.7905
    1SAPS  O13B    9   5.961   1.741   7.252 -0.1407 -0.3631 -0.5843
    1SAPS   C11   10   6.115   1.728   7.003  0.4685  0.4283 -0.3155
    1SAPS  H11A   11   6.079   1.632   6.960 -1.1968  1.0819 -0.4210
    1SAPS  H11B   12   6.150   1.698   7.104 -2.8663 -0.0920  0.7866
    1SAPS     P   13   6.342   1.867   6.983  0.3766  0.4551 -0.1373
    1SAPS   O13   14   6.293   1.987   7.045  0.0017 -0.6218 -1.3760
    1SAPS   O14   15   6.415   1.768   7.064  0.1797  0.3470  0.6792
    1SAPS   O12   16   6.217   1.787   6.923 -0.2293 -0.1697  0.1709
    1SAPS   O11   17   6.446   1.896   6.867 -0.0153 -0.6822  0.4640
    1SAPS    C1   18   6.445   1.830   6.740 -0.1201 -0.8779 -0.6019
    1SAPS    HA   19   6.545   1.852   6.695 -0.4656  0.9150 -0.5460
    1SAPS    HB   20   6.446   1.721   6.762 -1.0869 -0.5309  1.3332
    1SAPS    C2   21   6.343   1.899   6.645 -0.2343  0.2762  0.3860
    1SAPS    HS   22   6.237   1.880   6.674 -0.0142 -0.4328  0.7432
    1SAPS   O21   23   6.378   1.852   6.518  0.2867  0.5633 -0.3403
    1SAPS   C21   24   6.335   1.727   6.500  0.8856 -0.0039  0.2512
    1SAPS   O22   25   6.256   1.670   6.573  0.2748 -0.6694  0.1650
    1SAPS   C22   26   6.390   1.676   6.370 -0.1662  0.2586  0.2269
    1SAPS   H2R   27   6.357   1.731   6.280 -1.3237  1.3133  1.2584
    1SAPS   H2S   28   6.501   1.673   6.376  0.0328 -0.3280 -2.6420
    1SAPS    C3   29   6.366   2.048   6.654  0.9316 -0.3820  0.4934
    1SAPS    HX   30   6.475   2.058   6.640  0.9070 -0.8658 -0.0562
    1SAPS    HY   31   6.330   2.083   6.753 -1.2896  0.8330 -0.6737
    1SAPS   O31   32   6.292   2.121   6.549  0.4697 -0.0255  0.2172
    1SAPS   C31   33   6.326   2.247   6.537  0.0367  0.4517 -0.2487
    1SAPS   O32   34   6.402   2.305   6.612  0.0154 -0.1938 -0.2299
    1SAPS   C32   35   6.247   2.317   6.433 -0.8864  0.5165  0.8460
    1SAPS   H2X   36   6.197   2.394   6.495 -3.6508 -1.0920  0.7580
    1SAPS   H2Y   37   6.166   2.248   6.401  0.2608 -0.2744 -0.4606
    1SAPS   C23   38   6.344   1.531   6.336 -0.1480  0.2597  0.8796
    1SAPS   H3R   39   6.235   1.514   6.349 -0.0394 -0.4804  0.8884
    1SAPS   H3S   40   6.391   1.450   6.396 -1.8847 -0.8752  0.7716
    1SAPS   C24   41   6.371   1.506   6.189  0.4455  0.5133  0.3579
    1SAPS   H4R   42   6.308   1.578   6.134  0.9561  0.5541 -0.1840
    1SAPS   H4S   43   6.320   1.409   6.170  0.6837  0.4594 -0.0191
    1SAPS   C25   44   6.517   1.501   6.137  0.1355  0.3043  0.5149
    1SAPS   H5R   45   6.583   1.422   6.176 -0.2690  1.2864  3.3739
    1SAPS   C26   46   6.563   1.573   6.030 -1.2942 -0.3936 -0.3414
    1SAPS   H6R   47   6.666   1.557   5.996 -0.9152  2.1822 -0.6602
    1SAPS   C27   48   6.490   1.689   5.949 -0.1878  0.3349  0.3770
    1SAPS   H7R   49   6.401   1.731   6.001  0.4646  1.0505  0.9288
    1SAPS   H7S   50   6.442   1.650   5.856 -1.3818  2.4328  0.0471
    1SAPS   C28   51   6.585   1.797   5.912 -0.3745 -1.0497  0.3830
    1SAPS   H8R   52   6.659   1.835   5.984 -2.3987  0.0054  2.0038
    1SAPS   C29   53   6.621   1.821   5.788 -0.5230 -0.4789  0.4813
    1SAPS   H9R   54   6.712   1.881   5.776 -0.6185 -0.3192  0.5561
    1SAPS  C210   55   6.555   1.777   5.661 -0.5655 -0.1406  0.3657
    1SAPS  H10R   56   6.551   1.851   5.579  0.7091  0.8016  1.1221
    1SAPS  H10S   57   6.446   1.758   5.675 -1.3088  2.4182 -1.3054
    1SAPS  C211   58   6.627   1.658   5.605  0.7294 -0.7153  0.0208
    1SAPS  H11R   59   6.722   1.625   5.650  0.6145  0.4921  1.2390
    1SAPS  C212   60   6.583   1.594   5.499  0.4149 -0.0735  0.4589
    1SAPS  H12R   61   6.636   1.501   5.474 -0.9529 -0.6393 -0.4836
    1SAPS  C213   62   6.457   1.609   5.420  0.5369 -0.3569 -0.0352
    1SAPS  H13R   63   6.467   1.599   5.310  3.0242  0.0306  0.1016
    1SAPS  H13S   64   6.417   1.711   5.436 -1.4841 -0.9359 -1.1050
    1SAPS  C214   65   6.357   1.505   5.468  0.4144  0.1314 -0.1955
    1SAPS  H14R   66   6.315   1.507   5.570 -2.6619 -2.6990 -1.1885
    1SAPS  C215   67   6.310   1.405   5.385 -0.1050  1.1807  0.5826
    1SAPS  H15R   68   6.229   1.335   5.410 -2.2488  2.4855 -2.1687
    1SAPS  C216   69   6.364   1.377   5.246 -0.0285  0.4700  0.7809
    1SAPS  H16R   70   6.373   1.469   5.184  2.1325  0.7992  1.5060
    1SAPS  H16S   71   6.283   1.313   5.206 -0.9572  1.1589  1.5025
    1SAPS  C217   72   6.498   1.305   5.241 -0.1870  1.0559 -0.0450
    1SAPS  H17R   73   6.496   1.208   5.295  1.4482  1.9202  1.6617
    1SAPS  H17S   74   6.576   1.368   5.287  2.5067 -2.3922  0.5137
    1SAPS  C218   75   6.547   1.286   5.093  0.8917  0.4835 -0.0677
    1SAPS  H18R   76   6.520   1.372   5.028 -1.9813 -0.6295 -0.5041
    1SAPS  H18S   77   6.484   1.204   5.053  0.9338 -0.5633  1.8946
    1SAPS  C219   78   6.690   1.245   5.084  0.0778 -0.2722 -0.1862
    1SAPS  H19R   79   6.759   1.318   5.132  0.6575  0.5666 -2.1646
    1SAPS  H19S   80   6.713   1.259   4.976  0.8063  1.4482  0.1539
    1SAPS  C220   81   6.722   1.097   5.125 -0.3442  0.0697 -0.4073
    1SAPS  H20R   82   6.646   1.018   5.108 -0.4925 -0.2592  1.5612
    1SAPS  H20S   83   6.726   1.109   5.236 -1.2086 -0.7845 -0.2767
    1SAPS  H20T   84   6.818   1.059   5.084  1.0882  2.2360  0.7160
    1SAPS   C33   85   6.329   2.358   6.314 -0.3500 -0.1307 -0.3662
    1SAPS   H3X   86   6.414   2.425   6.340 -0.0312 -0.7517  0.2381
    1SAPS   H3Y   87   6.266   2.421   6.248 -0.6978  0.5717  0.6183
    1SAPS   C34   88   6.396   2.251   6.226  0.6331 -0.3505  0.2026
    1SAPS   H4X   89   6.317   2.175   6.206 -1.4488  2.1005 -1.5603
    1SAPS   H4Y   90   6.479   2.196   6.275  1.9338  0.0469 -1.4421
    1SAPS   C35   91   6.458   2.308   6.097 -0.0554  0.3236 -0.3565
    1SAPS   H5X   92   6.547   2.370   6.121 -0.2953  0.5187  0.0505
    1SAPS   H5Y   93   6.380   2.376   6.057 -0.4079 -0.3600 -0.8613
    1SAPS   C36   94   6.480   2.211   5.979  0.3975  0.6532 -0.6394
    1SAPS   H6X   95   6.377   2.175   5.957  0.4395 -0.4439  0.8055
    1SAPS   H6Y   96   6.545   2.124   6.002 -0.1676  0.4352  0.2277
    1SAPS   C37   97   6.521   2.267   5.840 -0.3674  0.2524 -0.2401
    1SAPS   H7X   98   6.632   2.257   5.837 -0.4125 -0.1885 -0.5027
    1SAPS   H7Y   99   6.480   2.369   5.824  2.6662  1.9528  1.6888
    1SAPS   C38  100   6.461   2.181   5.721 -0.3281  0.1593 -0.0572
    1SAPS   H8X  101   6.354   2.176   5.752 -0.1602  0.1539  0.5415
    1SAPS   H8Y  102   6.504   2.078   5.720  0.0658  0.3259 -0.7759
    1SAPS   C39  103   6.473   2.253   5.590 -0.3724 -0.6283  0.2644
    1SAPS   H9X  104   6.422   2.352   5.585 -0.8878 -0.8429  1.0896
    1SAPS   H9Y  105   6.424   2.180   5.523  0.3516 -2.0417  1.2306
    1SAPS  C310  106   6.624   2.274   5.555 -0.2881 -0.0827  0.7287
    1SAPS  H10X  107   6.681   2.182   5.582 -0.4889 -0.4089  0.0373
    1SAPS  H10Y  108   6.657   2.357   5.622 -2.2271  1.4239 -0.1066
    1SAPS  C311  109   6.657   2.323   5.408  0.8110  0.4943  0.0651
    1SAPS  H11X  110   6.767   2.319   5.395  0.5245 -0.8493 -2.4464
    1SAPS  H11Y  111   6.616   2.423   5.382  0.5844 -0.0516 -1.7903
    1SAPS  C312  112   6.599   2.221   5.308 -0.1241 -0.6572 -0.1263
    1SAPS  H12X  113   6.607   2.259   5.203 -0.4182 -0.9703 -0.2619
    1SAPS  H12Y  114   6.490   2.210   5.324 -0.5732  2.7088  0.0185
    1SAPS  C313  115   6.670   2.091   5.319 -0.1851  0.1640  0.2261
    1SAPS  H13X  116   6.656   2.038   5.416  1.9600  0.4537  0.7328
    1SAPS  H13Y  117   6.776   2.123   5.313 -0.3274  0.5375 -0.3882
    1SAPS  C314  118   6.655   2.002   5.192 -0.1705 -0.0361 -0.1044
    1SAPS  H14X  119   6.673   2.067   5.104 -0.2406  0.6085  0.3474
    1SAPS  H14Y  120   6.550   1.964   5.191 -0.2622  0.0875  1.7575
    1SAPS  C315  121   6.746   1.873   5.193  0.4077 -0.7553  0.7034
    1SAPS  H15X  122   6.674   1.809   5.248 -1.9516 -1.6967 -3.0614
    1SAPS  H15Y  123   6.836   1.887   5.256 -0.5091 -1.3119  2.1899
    1SAPS  C316  124   6.764   1.822   5.052  0.6124 -0.1484 -0.4556
    1SAPS  H16X  125   6.822   1.900   4.998  2.2612  0.0901  1.5608
    1SAPS  H16Y  126   6.657   1.816   5.023  0.3264 -1.7815  0.7841
    1SAPS  C317  127   6.807   1.676   5.027 -0.9479 -0.5257  0.2702
    1SAPS  H17X  128   6.809   1.620   5.123 -1.1642 -1.3322 -0.1913
    1SAPS  H17Y  129   6.914   1.685   4.999 -1.6208  3.6235 -1.8486
    1SAPS  C318  130   6.715   1.591   4.936 -0.3016 -0.5506  0.3075
    1SAPS  H18X  131   6.703   1.635   4.835 -2.4992 -1.0204  0.3011
    1SAPS  H18Y  132   6.611   1.592   4.976 -1.1933  2.1760 -1.7453
    1SAPS  H18Z  133   6.759   1.491   4.918  1.8394  0.6491 -1.6068
    2SAPS     N  134   1.405   3.648   7.443  0.5243  0.2018 -0.3853
    2SAPS   HN1  135   1.305   3.630   7.419  0.5321 -0.6178  0.1605
    2SAPS   HN2  136   1.467   3.596   7.378 -0.1188 -0.5278 -0.4350
    2SAPS   HN3  137   1.433   3.615   7.537  1.6985 -2.7607 -1.6449
    2SAPS   C12  138   1.449   3.788   7.434  0.3751 -0.5302 -0.1029
    2SAPS  H12A  139   1.409   3.853   7.510 -1.2607 -0.2419 -1.1479
    2SAPS   C13  140   1.599   3.814   7.441  0.6290 -0.0108 -0.0837
    2SAPS  O13A  141   1.682   3.721   7.464  0.0300  0.6332 -0.6176
    2SAPS  O13B  142   1.640   3.930   7.422 -0.3268 -0.1057  0.2042
    2SAPS   C11  143   1.382   3.849   7.308 -0.1188 -0.0662 -0.3102
    2SAPS  H11A  144   1.431   3.794   7.225 -1.3831 -2.2663  0.2981
    2SAPS  H11B  145   1.414   3.955   7.301 -1.7330  0.5049  0.4037
    2SAPS     P  146   1.156   3.944   7.242  0.4623 -0.0432  0.1553
    2SAPS   O13  147   1.015   3.899   7.222  0.3411 -0.5529  0.2996
    2SAPS   O14  148   1.174   4.065   7.321 -0.0409 -0.0056  0.3806
    2SAPS   O12  149   1.239   3.830   7.310 -0.2868  0.2753 -0.0249
    2SAPS   O11  150   1.224   3.965   7.107  0.0864  0.4770  0.0784
    2SAPS    C1  151   1.219   3.863   7.001  0.1677 -0.1472  0.1285
    2SAPS    HA  152   1.270   3.776   7.047  0.2298  1.8689  4.3098
    2SAPS    HB  153   1.114   3.836   6.973  0.6794 -1.5608 -0.4971
    2SAPS    C2  154   1.272   3.907   6.867 -0.8948 -0.4961  0.9814
    2SAPS    HS  155   1.266   3.819   6.799 -0.3714 -0.4350  0.8523
    2SAPS   O21  156   1.412   3.955   6.876 -0.2799 -0.1599  0.0573
    2SAPS   C21  157   1.503   3.861   6.856  1.0506 -0.5251  0.1304
    2SAPS   O22  158   1.483   3.743   6.833  0.0951  0.3170 -0.4992
    2SAPS   C22  159   1.642   3.916   6.880  0.1982 -0.0586 -0.2070
    2SAPS   H2R  160   1.643   4.024   6.853 -1.9089  0.2765  0.8248
    2SAPS   H2S  161   1.652   3.891   6.988 -0.4225 -0.0475 -0.1462
    2SAPS    C3  162   1.202   4.025   6.809  0.3454 -0.2798  0.2149
    2SAPS    HX  163   1.247   4.115   6.856  0.5374  1.1282 -2.4819
    2SAPS    HY  164   1.096   4.016   6.842  0.3839  2.2467  1.2738
    2SAPS   O31  165   1.227   4.031   6.664  0.2308 -0.2732 -0.3703
    2SAPS   C31  166   1.138   3.969   6.594  0.2153  0.6628  1.0182
    2SAPS   O32  167   1.046   3.901   6.635 -0.5017  0.0639 -0.3177
    2SAPS   C32  168   1.179   3.967   6.444  0.6079 -0.6736  0.1162
    2SAPS   H2X  169   1.088   3.942   6.386 -2.0674  1.3373  3.0983
    2SAPS   H2Y  170   1.257   3.889   6.434  0.5564 -0.4714 -2.7104
    2SAPS   C23  171   1.744   3.844   6.794 -0.3479 -0.1050 -0.3852
    2SAPS   H3R  172   1.741   3.733   6.802  2.3724 -0.2836 -0.6445
    2SAPS   H3S  173   1.847   3.878   6.817 -0.5411  0.6584 -0.6468
    2SAPS   C24  174   1.713   3.885   6.653  0.2396  0.3334  0.0966
    2SAPS   H4R  175   1.741   3.989   6.626  0.8758  0.3766  0.9009
    2SAPS   H4S  176   1.603   3.872   6.645  0.2203  0.0586  0.7663
    2SAPS   C25  177   1.787   3.788   6.560  0.1129 -0.0553  0.0676
    2SAPS   H5R  178   1.897   3.785   6.566  0.0098 -1.6184  2.3677
    2SAPS   C26  179   1.725   3.696   6.483 -0.3960 -0.4064 -0.2487
    2SAPS   H6R  180   1.784   3.626   6.423 -0.0016  0.8565 -1.3748
    2SAPS   C27  181   1.572   3.689   6.476 -0.4952 -0.9141  0.1812
    2SAPS   H7R  182   1.539   3.789   6.442 -0.0025  0.2998  3.0510
    2SAPS   H7S  183   1.530   3.673   6.578 -1.2713  0.6572  0.1334
    2SAPS   C28  184   1.530   3.592   6.362 -0.2060 -0.2138 -0.6526
    2SAPS   H8R  185   1.550   3.488   6.392 -1.7327  0.0947  1.7156
    2SAPS   C29  186   1.480   3.624   6.242  0.3009  0.1117  0.7401
    2SAPS   H9R  187   1.447   3.538   6.183  1.1799 -0.3266  0.8721
    2SAPS  C210  188   1.467   3.758   6.171 -0.2581  0.6497 -0.9025
    2SAPS  H10R  189   1.539   3.747   6.087  1.3090 -2.2615  0.6809
    2SAPS  H10S  190   1.500   3.841   6.237  0.3683  0.2512 -0.7127
    2SAPS  C211  191   1.330   3.788   6.133  0.5252 -0.7898  0.0254
    2SAPS  H11R  192   1.261   3.801   6.218 -1.7916 -2.6595 -1.4268
    2SAPS  C212  193   1.284   3.809   6.007  0.3477 -0.4237 -0.2148
    2SAPS  H12R  194   1.183   3.852   6.009  0.1741 -0.8472  0.2036
    2SAPS  C213  195   1.348   3.775   5.873  0.4234 -0.0815 -0.1878
    2SAPS  H13R  196   1.276   3.731   5.800  0.5614 -2.9321  1.2386
    2SAPS  H13S  197   1.417   3.688   5.880  1.3687  0.7774  1.8590
    2SAPS  C214  198   1.413   3.892   5.812 -0.4738 -0.2548  0.1209
    2SAPS  H14R  199   1.513   3.912   5.854 -1.5829 -0.2917  2.9762
    2SAPS  C215  200   1.365   3.978   5.723  0.7101  0.2178  0.6390
    2SAPS  H15R  201   1.421   4.060   5.675 -2.2377  1.7928 -0.3621
    2SAPS  C216  202   1.223   3.960   5.661  0.3860  0.1436 -0.7546
    2SAPS  H16R  203   1.160   4.045   5.693 -0.2626 -1.0128  1.2028
    2SAPS  H16S  204   1.162   3.872   5.691 -0.6234  0.5215 -1.6255
    2SAPS  C217  205   1.239   3.935   5.511 -0.2957 -0.1328  0.1055
    2SAPS  H17R  206   1.272   3.829   5.505  0.1707 -0.1681  2.2201
    2SAPS  H17S  207   1.308   3.998   5.453  0.8880  1.4917  3.0372
    2SAPS  C218  208   1.102   3.937   5.449 -0.5179  0.0184  0.3783
    2SAPS  H18R  209   1.066   4.041   5.435 -1.2970  0.0140  2.1301
    2SAPS  H18S  210   1.033   3.896   5.525  0.1020  2.3467  2.3496
    2SAPS  C219  211   1.096   3.866   5.311 -0.4094  0.4391  0.8705
    2SAPS  H19R  212   1.156   3.773   5.318  0.3325  0.7740 -0.6647
    2SAPS  H19S  213   1.138   3.929   5.230  0.4082 -1.2651 -0.0754
    2SAPS  C220  214   0.953   3.829   5.267 -0.9816  0.0772  0.2961
    2SAPS  H20R  215   0.918   3.921   5.215 -1.4173 -0.0837  0.2927
    2SAPS  H20S  216   0.885   3.814   5.353  0.8795  2.9083  2.4563
    2SAPS  H20T  217   0.951   3.743   5.196  3.7327  0.4310 -0.5309
    2SAPS   C33  218   1.219   4.111   6.405 -0.2280 -0.0531 -1.4117
    2SAPS   H3X  219   1.296   4.153   6.474 -0.4656  2.8418 -2.7498
    2SAPS   H3Y  220   1.135   4.183   6.419  0.2742  0.2455  0.2607
    2SAPS   C34  221   1.270   4.116   6.260 -0.2845  1.0114 -0.0471
    2SAPS   H4X  222   1.193   4.063   6.200 -0.3202  0.8766  0.1204
    2SAPS   H4Y  223   1.359   4.050   6.254 -0.9120 -0.1889  2.5371
    2SAPS   C35  224   1.303   4.253   6.208 -0.2514 -0.3722  0.2551
    2SAPS   H5X  225   1.351   4.315   6.287 -0.0954  0.5561 -0.5511
    2SAPS   H5Y  226   1.213   4.303   6.165  0.8089  1.3844 -0.0365
    2SAPS   C36  227   1.401   4.252   6.086  0.6937  0.1068 -0.2345
    2SAPS   H6X  228   1.403   4.358   6.053 -0.8898  0.2074 -0.1272
    2SAPS   H6Y  229   1.346   4.192   6.011 -0.8745  1.9186 -0.6264
    2SAPS   C37  230   1.544   4.190   6.107 -0.1805 -0.7421 -0.0884
    2SAPS   H7X  231   1.616   4.228   6.031 -1.9768 -0.1009 -1.5530
    2SAPS   H7Y  232   1.540   4.079   6.101  1.7606 -0.7899 -1.3853
    2SAPS   C38  233   1.623   4.223   6.240  0.1850  0.6147  0.3189
    2SAPS   H8X  234   1.576   4.167   6.324 -4.3818  1.0486 -1.6487
    2SAPS   H8Y  235   1.610   4.329   6.270 -0.8114  0.0644  1.9762
    2SAPS   C39  236   1.775   4.189   6.243  0.3425  0.4056 -0.5925
    2SAPS   H9X  237   1.783   4.088   6.196 -1.1764  0.0818 -0.2229
    2SAPS   H9Y  238   1.811   4.169   6.346 -1.4665 -2.8681 -0.4447
    2SAPS  C310  239   1.861   4.290   6.168 -1.1370  0.1018  0.0097
    2SAPS  H10X  240   1.830   4.383   6.221  0.4447  1.2573 -1.0280
    2SAPS  H10Y  241   1.826   4.292   6.063  0.0995 -1.9653 -0.4911
    2SAPS  C311  242   2.011   4.249   6.177 -0.9633  0.2999 -0.5966
    2SAPS  H11X  243   2.014   4.139   6.163  0.4834  0.0584  1.1497
    2SAPS  H11Y  244   2.054   4.275   6.277  0.7712 -1.4651 -0.8088
    2SAPS  C312  245   2.083   4.329   6.067 -0.0976 -0.2591 -0.6599
    2SAPS  H12X  246   2.117   4.426   6.108  2.3213 -1.5609  0.6411
    2SAPS  H12Y  247   2.007   4.343   5.987  0.6777 -2.2171 -1.8202
    2SAPS  C313  248   2.221   4.256   6.036 -0.0153  0.4358  0.0693
    2SAPS  H13X  249   2.194   4.153   6.003 -1.1939  1.1254 -1.2132
    2SAPS  H13Y  250   2.294   4.257   6.120  2.2088 -0.2478 -1.7227
    2SAPS  C314  251   2.291   4.335   5.925 -0.4669  0.2368  0.9707
    2SAPS  H14X  252   2.316   4.440   5.951  0.3437  0.2576  0.1677
    2SAPS  H14Y  253   2.221   4.354   5.841  1.6700  2.6862 -0.3996
    2SAPS  C315  254   2.417   4.256   5.876  0.4790  0.6123 -0.6112
    2SAPS  H15X  255   2.396   4.182   5.796 -0.5868  0.6295 -0.3605
    2SAPS  H15Y  256   2.457   4.192   5.957  0.8939 -0.5060 -1.6864
    2SAPS  C316  257   2.539   4.341   5.849  0.2695  0.3578  0.1460
    2SAPS  H16X  258   2.627   4.277   5.830 -1.1196 -1.5128 -0.2352
    2SAPS  H16Y  259   2.564   4.410   5.933  1.2214  2.5468 -1.8331
    2SAPS  C317  260   2.536   4.439   5.730 -0.1441 -0.1751 -0.4999
    2SAPS  H17X  261   2.453   4.512   5.740 -0.0421 -0.3545  3.0518
    2SAPS  H17Y  262   2.529   4.384   5.634 -1.4712 -0.4810 -0.2369
    2SAPS  C318  263   2.663   4.533   5.708  0.1307 -0.3598 -0.1839
    2SAPS  H18X  264   2.744   4.463   5.682  0.8923  0.0757  0.9716
    2SAPS  H18Y  265   2.690   4.592   5.798 -0.6464 -0.5157  0.1606
    2SAPS  H18Z  266   2.631   4.612   5.636 -0.8480 -0.0060  0.6077
    3SAPS     N  267   1.548   3.491   6.887 -0.4593 -0.6230  0.6490
    3SAPS   HN1  268   1.651   3.502   6.887 -0.6228  1.7410  1.9114
    3SAPS   HN2  269   1.525   3.416   6.820  2.5374 -1.3399  0.2908
    3SAPS   HN3  270   1.512   3.584   6.855 -0.2343 -0.4946  0.7648
    3SAPS   C12  271   1.487   3.455   7.015  0.8195  0.3156 -0.5794
    3SAPS  H12A  272   1.508   3.350   7.027 -0.1919 -0.2012 -2.8373
    3SAPS   C13  273   1.540   3.526   7.142  0.2629  0.2554 -0.8482
    3SAPS  O13A  274   1.626   3.613   7.134 -0.2343  0.2857 -0.8096
    3SAPS  O13B  275   1.507   3.475   7.258 -0.1360 -0.2408 -0.6590
    3SAPS   C11  276   1.331   3.475   7.007 -0.5983 -0.2264  0.0131
    3SAPS  H11A  277   1.316   3.585   6.999  1.9966  0.2091  0.1202
    3SAPS  H11B  278   1.276   3.437   7.096 -1.7641 -2.1655 -1.4555
    3SAPS     P  279   1.122   3.381   6.868 -0.8216  0.2226  0.0196
    3SAPS   O13  280   1.121   3.236   6.838 -0.3306  0.2047  0.6643
    3SAPS   O14  281   1.040   3.430   6.980  0.0655 -0.5014  0.0548
    3SAPS   O12  282   1.278   3.413   6.891  0.7798  0.2505  0.3449
    3SAPS   O11  283   1.100   3.467   6.736 -0.0624 -0.2761 -0.5670
    3SAPS    C1  284   1.205   3.483   6.643 -0.1555 -0.7484 -0.2561
    3SAPS    HA  285   1.218   3.591   6.619  0.3803 -1.1658 -2.0078
    3SAPS    HB  286   1.302   3.434   6.669  0.0456 -0.7738 -1.0246
    3SAPS    C2  287   1.169   3.421   6.504 -0.4742 -0.1912  0.4325
    3SAPS    HS  288   1.257   3.436   6.438  0.2923 -0.5719  1.3307
    3SAPS   O21  289   1.050   3.476   6.449 -0.2019 -0.9789 -0.1590
    3SAPS   C21  290   1.065   3.601   6.398 -0.5481 -0.1835 -0.1175
    3SAPS   O22  291   1.169   3.663   6.390  0.3003 -0.2783  0.3640
    3SAPS   C22  292   0.925   3.650   6.346  0.1995  0.1162  0.3292
    3SAPS   H2R  293   0.848   3.596   6.406  0.8077  2.0767  3.0303
    3SAPS   H2S  294   0.912   3.758   6.369 -2.3212  0.3270 -1.5892
    3SAPS    C3  295   1.151   3.268   6.509  0.1944  0.2712  0.2359
    3SAPS    HX  296   1.062   3.257   6.574 -0.4502 -4.4152 -1.0514
    3SAPS    HY  297   1.244   3.229   6.556  0.5875  2.2913  1.2476
    3SAPS   O31  298   1.139   3.211   6.373 -0.0754 -0.0304 -0.7583
    3SAPS   C31  299   1.067   3.103   6.366  0.5702  0.0939  0.0591
    3SAPS   O32  300   1.024   3.043   6.463 -0.1294  0.1761 -0.0143
    3SAPS   C32  301   1.078   3.048   6.225  0.1919 -0.2995  0.4162
    3SAPS   H2X  302   1.048   2.942   6.236  0.3525 -0.3614  0.2661
    3SAPS   H2Y  303   1.185   3.061   6.199  0.4737  1.8703  2.3546
    3SAPS   C23  304   0.893   3.630   6.197  0.4086  0.0347  0.9247
    3SAPS   H3R  305   0.791   3.674   6.186  0.6804  0.1698 -1.9221
    3SAPS   H3S  306   0.887   3.527   6.154  2.4160 -0.0935  0.8782
    3SAPS   C24  307   0.974   3.718   6.109 -0.0570  0.4203  0.0735
    3SAPS   H4R  308   1.052   3.649   6.070 -0.3561  0.1086  0.0173
    3SAPS   H4S  309   1.029   3.793   6.169 -0.4847  0.3643  0.5375
    3SAPS   C25  310   0.912   3.791   5.998  0.7370 -0.0414 -0.3318
    3SAPS   H5R  311   0.858   3.879   6.034  1.6479  0.5288 -0.3465
    3SAPS   C26  312   0.896   3.744   5.873 -0.6262  1.0963 -0.4531
    3SAPS   H6R  313   0.853   3.801   5.789 -1.0024 -0.6617 -1.4910
    3SAPS   C27  314   0.964   3.618   5.824  0.2716  0.4033  0.1840
    3SAPS   H7R  315   0.911   3.527   5.860  1.5010  0.4804  2.4025
    3SAPS   H7S  316   1.061   3.615   5.878  0.2258  0.1179  0.2520
    3SAPS   C28  317   0.996   3.618   5.676  0.6468  0.0206  0.0732
    3SAPS   H8R  318   1.041   3.713   5.642 -0.6044  0.7877  0.4677
    3SAPS   C29  319   0.975   3.524   5.583 -0.0423 -0.2664  0.6769
    3SAPS   H9R  320   0.997   3.555   5.480 -4.5941  0.8626 -0.1751
    3SAPS  C210  321   0.905   3.389   5.599  0.3296  0.3913 -0.5224
    3SAPS  H10R  322   0.896   3.372   5.708  3.0595  1.5725 -0.0202
    3SAPS  H10S  323   0.962   3.308   5.548 -0.9191  0.2755 -1.7998
    3SAPS  C211  324   0.767   3.405   5.537  0.0366  0.2365 -0.3674
    3SAPS  H11R  325   0.719   3.500   5.566 -0.4936 -0.6007  1.6651
    3SAPS  C212  326   0.700   3.319   5.460 -0.3716  0.4060  0.5888
    3SAPS  H12R  327   0.603   3.350   5.418  0.2942  2.2207  0.3143
    3SAPS  C213  328   0.754   3.186   5.403 -0.2882  0.1915 -0.2690
    3SAPS  H13R  329   0.694   3.105   5.450  1.9372 -1.9715 -0.9627
    3SAPS  H13S  330   0.858   3.165   5.436 -0.6015 -0.1573  0.5084
    3SAPS  C214  331   0.748   3.189   5.256  0.4596  0.0779  0.2195
    3SAPS  H14R  332   0.652   3.225   5.216 -0.1876 -3.1037 -1.4281
    3SAPS  C215  333   0.856   3.172   5.180  0.3894  0.1851  0.4282
    3SAPS  H15R  334   0.852   3.205   5.075 -0.1380  1.1122  0.7290
    3SAPS  C216  335   0.992   3.121   5.215  0.1800  0.8549  0.0261
    3SAPS  H16R  336   1.026   3.041   5.145 -2.2947  1.1163 -1.6409
    3SAPS  H16S  337   0.981   3.067   5.312 -2.1668  2.4765  0.7603
    3SAPS  C217  338   1.102   3.230   5.229 -0.3875 -0.6006 -0.0810
    3SAPS  H17R  339   1.196   3.185   5.268 -0.6291  0.2420  1.5605
    3SAPS  H17S  340   1.066   3.306   5.302 -2.2228 -1.1527 -0.3846
    3SAPS  C218  341   1.146   3.295   5.093  0.1951 -0.5212  0.4024
    3SAPS  H18R  342   1.059   3.305   5.025  0.7322  1.5260 -0.0435
    3SAPS  H18S  343   1.220   3.231   5.040  0.3805 -1.2839  1.5478
    3SAPS  C219  344   1.219   3.433   5.115  0.5370 -0.2176  0.1632
    3SAPS  H19R  345   1.233   3.472   5.012  0.9002 -0.0049  0.2899
    3SAPS  H19S  346   1.157   3.511   5.163 -1.6015  0.5079 -3.3953
    3SAPS  C220  347   1.357   3.422   5.171  0.2782  0.0417 -0.2527
    3SAPS  H20R  348   1.366   3.370   5.269  3.3279  1.5331  0.3976
    3SAPS  H20S  349   1.399   3.525   5.175  1.1930 -0.2861 -1.0964
    3SAPS  H20T  350   1.422   3.383   5.090  0.4537  1.5345 -0.8658
    3SAPS   C33  351   0.986   3.121   6.124 -0.0005  0.2037  0.1119
    3SAPS   H3X  352   0.880   3.099   6.150  0.8761 -2.6587  1.7473
    3SAPS   H3Y  353   0.985   3.082   6.020 -2.9680 -0.4637  0.2940
    3SAPS   C34  354   1.005   3.274   6.109  0.0595 -0.3228  0.0551
    3SAPS   H4X  355   0.973   3.324   6.203  0.1857 -0.7887  0.3461
    3SAPS   H4Y  356   0.927   3.304   6.036 -2.4503 -3.4878  1.1871
    3SAPS   C35  357   1.139   3.328   6.058  0.0816  0.0589  0.3380
    3SAPS   H5X  358   1.112   3.431   6.029  0.3722  0.7238  2.2963
    3SAPS   H5Y  359   1.209   3.337   6.144  1.7814  1.6897 -1.1345
    3SAPS   C36  360   1.197   3.261   5.930  0.6592  0.3534  0.5873
    3SAPS   H6X  361   1.124   3.260   5.846  1.2085  3.0083 -0.0057
    3SAPS   H6Y  362   1.230   3.155   5.939 -0.2763 -0.2773 -2.2600
    3SAPS   C37  363   1.307   3.344   5.869 -0.1835  0.1070  0.2982
    3SAPS   H7X  364   1.394   3.343   5.939 -2.5128 -2.1905  3.4561
    3SAPS   H7Y  365   1.270   3.448   5.862 -1.1245 -0.1864  0.8272
    3SAPS   C38  366   1.347   3.292   5.726  0.2416 -0.3048 -0.7216
    3SAPS   H8X  367   1.254   3.249   5.683  0.0938  1.2510 -2.0680
    3SAPS   H8Y  368   1.427   3.215   5.721 -0.7259 -1.3030 -1.3371
    3SAPS   C39  369   1.397   3.408   5.640 -0.2360 -0.3716 -0.1611
    3SAPS   H9X  370   1.326   3.494   5.643  1.6253  1.2520 -0.4812
    3SAPS   H9Y  371   1.398   3.392   5.530  1.0073  2.1326 -0.6046
    3SAPS  C310  372   1.527   3.464   5.684  0.0542 -0.5643  0.1370
    3SAPS  H10X  373   1.614   3.395   5.680 -0.3269 -1.0070 -1.7839
    3SAPS  H10Y  374   1.523   3.478   5.794  1.4951 -1.1102  0.2843
    3SAPS  C311  375   1.558   3.595   5.617  0.2826 -0.4432 -0.0235
    3SAPS  H11X  376   1.633   3.643   5.684 -0.9825 -2.0200  2.6843
    3SAPS  H11Y  377   1.471   3.665   5.622 -0.9315 -1.9403  0.5961
    3SAPS  C312  378   1.612   3.584   5.476 -0.0144  1.0458  0.3156
    3SAPS  H12X  379   1.546   3.534   5.402  1.0442 -0.6845  0.4795
    3SAPS  H12Y  380   1.706   3.526   5.486 -0.2672 -0.2669 -3.4126
    3SAPS  C313  381   1.653   3.721   5.403 -0.9340  0.1147 -0.0679
    3SAPS  H13X  382   1.564   3.775   5.364 -0.4202  0.7936 -0.3148
    3SAPS  H13Y  383   1.715   3.696   5.314 -0.7386  2.6552 -0.7059
    3SAPS  C314  384   1.736   3.822   5.490 -0.0494  0.6484 -0.2776
    3SAPS  H14X  385   1.828   3.764   5.510 -0.5259 -0.8705 -2.1883
    3SAPS  H14Y  386   1.698   3.842   5.592 -0.0251  0.3109 -0.2030
    3SAPS  C315  387   1.789   3.943   5.406 -0.1870  0.2446 -0.3735
    3SAPS  H15X  388   1.849   4.004   5.477  0.1250 -0.6708  0.1786
    3SAPS  H15Y  389   1.705   3.999   5.360 -0.1400 -0.8007 -1.7841
    3SAPS  C316  390   1.885   3.896   5.302 -0.1119 -0.0019  0.7827
    3SAPS  H16X  391   1.840   3.828   5.227 -0.5956 -0.6997  1.7005
    3SAPS  H16Y  392   1.960   3.836   5.357 -0.5753 -1.2477  0.0930
    3SAPS  C317  393   1.957   4.014   5.224  0.1070 -0.0208  0.1479
    3SAPS  H17X  394   2.012   3.980   5.133 -1.4067  1.0868 -1.2533
    3SAPS  H17Y  395   2.032   4.059   5.293  1.4924  0.0275 -1.3267
    3SAPS  C318  396   1.857   4.125   5.170  0.2626 -0.1015  0.0897
    3SAPS  H18X  397   1.786   4.079   5.099 -0.1727 -0.2417  0.6096
    3SAPS  H18Y  398   1.901   4.217   5.125 -1.2470  0.8291  0.4670
    3SAPS  H18Z  399   1.798   4.173   5.251 -1.2937 -2.3339  0.3386
    4SAPS     N  400   4.083   1.200   7.464 -0.2288 -0.2079 -0.5629
    4SAPS   HN1  401   4.105   1.159   7.557 -1.6676 -1.4661 -0.7330
    4SAPS   HN2  402   4.021   1.131   7.416  0.1254 -0.5877 -0.4765
    4SAPS   HN3  403   4.175   1.216   7.420  0.1336  2.2775  0.9263
    4SAPS   C12  404   4.016   1.329   7.503  0.6783 -0.1376 -0.3413
    4SAPS  H12A  405   3.948   1.346   7.421  0.6677  0.7839 -0.1478
    4SAPS   C13  406   3.936   1.332   7.640  0.5056 -0.3532  0.2600
    4SAPS  O13A  407   3.939   1.225   7.709  0.5334  0.1813 -0.5345
    4SAPS  O13B  408   3.850   1.426   7.656 -0.0068  0.2376  0.3069
    4SAPS   C11  409   4.118   1.447   7.508 -0.1994 -0.0833  0.1068
    4SAPS  H11A  410   4.159   1.448   7.611  1.5865 -1.9720 -0.5211
    4SAPS  H11B  411   4.060   1.540   7.488  0.1331  0.4429  1.4998
    4SAPS     P  412   4.378   1.465   7.443  0.1696 -0.2829 -0.0965
    4SAPS   O13  413   4.383   1.575   7.548 -0.3313 -0.4005  0.2456
    4SAPS   O14  414   4.435   1.335   7.476  0.0609 -0.2850  0.3606
    4SAPS   O12  415   4.224   1.437   7.408 -0.2636  0.3304 -0.2435
    4SAPS   O11  416   4.436   1.535   7.324  0.3365  0.2404  0.2552
    4SAPS    C1  417   4.564   1.497   7.270  0.0700 -0.1612  0.0279
    4SAPS    HA  418   4.648   1.562   7.305 -1.0760  1.2055  0.3325
    4SAPS    HB  419   4.579   1.391   7.301 -1.9155 -0.3679  0.3843
    4SAPS    C2  420   4.572   1.501   7.112 -0.3187  0.4789 -0.5756
    4SAPS    HS  421   4.560   1.607   7.083  1.3622  0.7996 -0.2164
    4SAPS   O21  422   4.473   1.416   7.058 -0.2177 -0.1056 -0.5613
    4SAPS   C21  423   4.424   1.460   6.944 -0.1145 -0.5381 -0.2516
    4SAPS   O22  424   4.452   1.561   6.882 -0.7454  0.5078  0.1515
    4SAPS   C22  425   4.312   1.360   6.899  0.3405  0.0265 -0.0984
    4SAPS   H2R  426   4.326   1.258   6.941  0.3720  0.9826  2.3856
    4SAPS   H2S  427   4.215   1.395   6.941  0.6866 -0.3405  1.0527
    4SAPS    C3  428   4.709   1.466   7.058  0.5876 -0.0969 -0.1602
    4SAPS    HX  429   4.744   1.363   7.080 -0.0777 -0.3888 -0.4508
    4SAPS    HY  430   4.780   1.533   7.112  0.8399  0.6960 -1.4319
    4SAPS   O31  431   4.728   1.505   6.925 -0.0962 -0.0262  0.0639
    4SAPS   C31  432   4.754   1.406   6.837 -0.3516 -0.8058 -0.2140
    4SAPS   O32  433   4.797   1.296   6.867 -0.0926 -0.0315 -0.0383
    4SAPS   C32  434   4.720   1.456   6.700 -0.0459  0.3950  0.1107
    4SAPS   H2X  435   4.804   1.491   6.636  0.5986 -2.7652 -0.9867
    4SAPS   H2Y  436   4.635   1.527   6.697  0.0077  0.4560  0.0478
    4SAPS   C23  437   4.303   1.358   6.742  0.5638 -0.3336 -0.5053
    4SAPS   H3R  438   4.401   1.326   6.699  0.5192  0.4196 -1.2068
    4SAPS   H3S  439   4.290   1.456   6.691  2.2669  1.1569  1.6866
    4SAPS   C24  440   4.199   1.256   6.683  0.0629 -0.1233  0.9955
    4SAPS   H4R  441   4.222   1.156   6.726  0.3563  0.3166  1.8985
    4SAPS   H4S  442   4.231   1.254   6.576  0.5104  0.2684  1.1146
    4SAPS   C25  443   4.050   1.278   6.699 -0.5205 -0.2482  0.5361
    4SAPS   H5R  444   4.019   1.275   6.804  0.1382  3.1710  0.9689
    4SAPS   C26  445   3.955   1.299   6.604 -0.1083  0.4691 -0.9924
    4SAPS   H6R  446   3.849   1.316   6.628  0.4045  2.0027  0.3699
    4SAPS   C27  447   3.986   1.297   6.463  0.0507 -0.4435  0.1299
    4SAPS   H7R  448   4.095   1.314   6.453  0.2064 -1.4997 -0.0378
    4SAPS   H7S  449   3.934   1.383   6.417 -1.0521  0.3379  2.6255
    4SAPS   C28  450   3.956   1.166   6.397  0.1335  0.1703 -0.4577
    4SAPS   H8R  451   3.910   1.086   6.457  1.0253 -0.4971 -0.6258
    4SAPS   C29  452   3.974   1.138   6.268 -0.1224 -0.3108 -0.0905
    4SAPS   H9R  453   3.946   1.040   6.227  0.0247 -1.0071  1.4056
    4SAPS  C210  454   4.013   1.225   6.159  0.2874 -0.2522 -0.2904
    4SAPS  H10R  455   4.103   1.185   6.107 -0.4127 -1.4873 -0.6031
    4SAPS  H10S  456   4.055   1.321   6.195 -1.2258  1.0603 -1.8605
    4SAPS  C211  457   3.901   1.256   6.068  0.2447 -0.8396  0.1990
    4SAPS  H11R  458   3.803   1.257   6.118 -0.6012 -0.7340 -1.3897
    4SAPS  C212  459   3.909   1.258   5.933  0.5376 -0.0081 -0.0751
    4SAPS  H12R  460   3.820   1.267   5.869 -0.1887  1.2711  1.0652
    4SAPS  C213  461   4.031   1.243   5.848  0.9021 -0.0599  0.2588
    4SAPS  H13R  462   4.037   1.142   5.802 -0.4611  1.0826 -2.6826
    4SAPS  H13S  463   4.123   1.257   5.908  0.9498  0.9776 -0.0267
    4SAPS  C214  464   4.034   1.337   5.733  0.3642 -0.2199  0.2352
    4SAPS  H14R  465   4.104   1.422   5.741  2.1043 -1.5979  0.1239
    4SAPS  C215  466   3.960   1.330   5.620  0.6322 -0.9574 -0.2114
    4SAPS  H15R  467   3.981   1.403   5.541 -2.3683  0.7473  0.3775
    4SAPS  C216  468   3.842   1.236   5.585 -0.4954 -0.6565 -0.4506
    4SAPS  H16R  469   3.748   1.296   5.587  0.6026  1.2911 -2.4687
    4SAPS  H16S  470   3.837   1.151   5.657 -0.9888 -0.9763 -0.8480
    4SAPS  C217  471   3.851   1.175   5.442 -0.2464  0.3921 -0.1016
    4SAPS  H17R  472   3.780   1.093   5.417 -0.1693  0.5060 -0.7055
    4SAPS  H17S  473   3.952   1.127   5.435  0.1521  0.9636  1.3707
    4SAPS  C218  474   3.834   1.272   5.318  0.2145  0.6131 -0.9333
    4SAPS  H18R  475   3.917   1.346   5.318  0.4342  0.4152  0.9026
    4SAPS  H18S  476   3.742   1.330   5.342 -1.3522 -2.4871  1.1901
    4SAPS  C219  477   3.831   1.201   5.188  0.0074  0.2371  1.0866
    4SAPS  H19R  478   3.749   1.127   5.174  0.3323  0.3563 -2.4175
    4SAPS  H19S  479   3.928   1.146   5.181  1.1295  2.0026  2.1585
    4SAPS  C220  480   3.805   1.297   5.075  0.2217  0.3750  0.4301
    4SAPS  H20R  481   3.770   1.238   4.988  1.9852  0.4914 -0.3821
    4SAPS  H20S  482   3.886   1.368   5.049  0.8294 -0.3258  0.4041
    4SAPS  H20T  483   3.728   1.372   5.103  0.5949  0.6010  0.8649
    4SAPS   C33  484   4.672   1.338   6.602  0.2184  0.3428  0.9187
    4SAPS   H3X  485   4.600   1.276   6.660 -0.7492  0.8180  0.2595
    4SAPS   H3Y  486   4.758   1.278   6.564 -1.6270 -1.2667 -1.0080
    4SAPS   C34  487   4.601   1.399   6.491  0.3618 -0.5420  0.2848
    4SAPS   H4X  488   4.652   1.490   6.453 -0.9044  0.2360  0.3877
    4SAPS   H4Y  489   4.499   1.436   6.514  1.5321  2.9089  0.3840
    4SAPS   C35  490   4.594   1.295   6.375 -0.2949  0.4520 -0.0517
    4SAPS   H5X  491   4.560   1.200   6.422  0.2061  0.8573  1.1678
    4SAPS   H5Y  492   4.688   1.284   6.317 -0.4526  0.5111 -0.3190
    4SAPS   C36  493   4.481   1.329   6.271 -0.1951 -0.3156  0.0606
    4SAPS   H6X  494   4.458   1.435   6.295 -1.6216 -0.5422 -0.2558
    4SAPS   H6Y  495   4.390   1.270   6.294  0.2848 -1.0627  0.1087
    4SAPS   C37  496   4.531   1.303   6.128 -0.3923  0.2313  0.2723
    4SAPS   H7X  497   4.528   1.192   6.122 -0.9628  0.2443  0.2488
    4SAPS   H7Y  498   4.634   1.344   6.116 -0.6245  0.5151 -0.8549
    4SAPS   C38  499   4.441   1.347   6.014 -0.0579 -0.4108 -0.6561
    4SAPS   H8X  500   4.463   1.454   5.998 -0.0146  0.0144  1.8328
    4SAPS   H8Y  501   4.336   1.334   6.047 -0.2034 -2.7913 -1.8241
    4SAPS   C39  502   4.468   1.267   5.895  0.5958  0.1923  0.9438
    4SAPS   H9X  503   4.428   1.163   5.903  1.1122 -0.2412 -1.2241
    4SAPS   H9Y  504   4.574   1.266   5.863  0.5387 -0.1281  0.7513
    4SAPS  C310  505   4.400   1.321   5.770  0.1202 -0.1599  0.9594
    4SAPS  H10X  506   4.439   1.424   5.754  1.5837 -0.6934  0.9224
    4SAPS  H10Y  507   4.293   1.320   5.798 -0.2370 -2.9003 -0.2136
    4SAPS  C311  508   4.420   1.232   5.652  0.3859 -0.3155  0.8915
    4SAPS  H11X  509   4.369   1.135   5.672 -0.2972  0.3260  2.5068
    4SAPS  H11Y  510   4.528   1.212   5.637  0.3491  0.7136 -1.0462
    4SAPS  C312  511   4.358   1.290   5.524  0.4513 -0.4298 -0.8604
    4SAPS  H12X  512   4.255   1.332   5.532  0.7052  0.0831 -0.1952
    4SAPS  H12Y  513   4.367   1.210   5.447  1.1352  1.6418 -3.0520
    4SAPS  C313  514   4.450   1.403   5.482  0.4675  0.1149  0.3417
    4SAPS  H13X  515   4.551   1.407   5.528  0.9220 -0.5052 -0.5656
    4SAPS  H13Y  516   4.410   1.504   5.504  1.5196  1.0505 -1.7398
    4SAPS  C314  517   4.455   1.402   5.327 -0.2372 -0.4719 -0.1050
    4SAPS  H14X  518   4.350   1.396   5.293 -0.0671  0.1965 -0.7918
    4SAPS  H14Y  519   4.509   1.309   5.300  1.0984 -0.4360  2.1724
    4SAPS  C315  520   4.533   1.513   5.260 -0.0641  0.4301 -0.6688
    4SAPS  H15X  521   4.638   1.526   5.294 -1.1692  0.8426  3.0394
    4SAPS  H15Y  522   4.478   1.601   5.299  1.2961  0.7878  0.5732
    4SAPS  C316  523   4.518   1.518   5.113  0.4149  0.1213  0.1968
    4SAPS  H16X  524   4.410   1.510   5.090  0.5640 -2.1092  0.0308
    4SAPS  H16Y  525   4.564   1.425   5.073 -1.3872  0.1881 -2.2783
    4SAPS  C317  526   4.583   1.638   5.044 -0.0435 -0.4065 -0.2646
    4SAPS  H17X  527   4.503   1.714   5.030  0.1562  0.0439  0.9053
    4SAPS  H17Y  528   4.610   1.602   4.943 -1.1706 -0.2519 -0.6326
    4SAPS  C318  529   4.704   1.696   5.111 -0.9723  0.3999  0.3457
    4SAPS  H18X  530   4.677   1.736   5.211 -1.7930  0.1741  0.2222
    4SAPS  H18Y  531   4.755   1.770   5.046 -0.6624  0.7211  0.9443
    4SAPS  H18Z  532   4.769   1.608   5.131 -0.7213 -0.1343 -2.4678
    5SAPS     N  533   1.112   2.250   7.249  0.1108  0.1624 -0.2003
    5SAPS   HN1  534   1.068   2.239   7.342  0.5985  0.2232  0.0405
    5SAPS   HN2  535   1.047   2.302   7.187 -3.3923 -2.4900  0.9396
    5SAPS   HN3  536   1.120   2.156   7.206 -2.8669  0.0322 -0.7003
    5SAPS   C12  537   1.245   2.311   7.263 -0.1896  0.0301 -0.1430
    5SAPS  H12A  538   1.229   2.413   7.293  0.1533  0.8610 -2.5655
    5SAPS   C13  539   1.333   2.250   7.373  0.1419 -0.5586 -0.1470
    5SAPS  O13A  540   1.302   2.137   7.422 -0.1735 -0.2101  0.0077
    5SAPS  O13B  541   1.441   2.308   7.400 -0.3910 -0.7279  0.8097
    5SAPS   C11  542   1.324   2.322   7.125  0.4710  0.2122  0.5678
    5SAPS  H11A  543   1.257   2.349   7.041  1.4836 -2.1882 -1.1227
    5SAPS  H11B  544   1.369   2.225   7.095 -1.6044 -0.4418 -0.6912
    5SAPS     P  545   1.437   2.561   7.104  0.0939  0.0268  0.2319
    5SAPS   O13  546   1.381   2.635   7.216 -0.0082  0.5278 -0.0081
    5SAPS   O14  547   1.572   2.604   7.057  0.0559  0.3731 -0.3029
    5SAPS   O12  548   1.435   2.406   7.137 -0.3321 -0.4143  0.0847
    5SAPS   O11  549   1.332   2.570   6.984  0.0110 -0.5261  0.2032
    5SAPS    C1  550   1.355   2.669   6.887 -0.1661 -0.0562  0.3046
    5SAPS    HA  551   1.261   2.678   6.829 -1.1699  1.1642  2.0215
    5SAPS    HB  552   1.386   2.767   6.930  0.0917  0.5166 -1.1344
    5SAPS    C2  553   1.456   2.629   6.769  0.7940 -0.4962  0.2565
    5SAPS    HS  554   1.561   2.629   6.804  0.8527 -0.6998  0.0861
    5SAPS   O21  555   1.429   2.704   6.650  0.3221  0.1403  0.0393
    5SAPS   C21  556   1.496   2.817   6.645  0.5637  0.1572 -0.5537
    5SAPS   O22  557   1.580   2.855   6.716  0.6017  0.0480 -1.0737
    5SAPS   C22  558   1.447   2.898   6.524 -0.3964 -1.0852  0.3837
    5SAPS   H2R  559   1.387   2.838   6.452  0.6719 -1.3576 -0.2951
    5SAPS   H2S  560   1.379   2.977   6.562 -0.6973 -1.3086  0.3190
    5SAPS    C3  561   1.430   2.479   6.719 -0.3420 -0.1341  0.2887
    5SAPS    HX  562   1.320   2.472   6.702  0.1663 -0.0375 -4.5460
    5SAPS    HY  563   1.450   2.420   6.810  3.1542 -0.1126 -0.3507
    5SAPS   O31  564   1.492   2.454   6.589 -0.1450 -0.4361  0.2514
    5SAPS   C31  565   1.622   2.435   6.585  0.0290  0.0780 -0.2309
    5SAPS   O32  566   1.695   2.438   6.685  0.2542  0.1888  0.3147
    5SAPS   C32  567   1.671   2.438   6.443 -0.1929  0.3132  0.3164
    5SAPS   H2X  568   1.610   2.361   6.392 -0.5746  0.4406  0.5751
    5SAPS   H2Y  569   1.775   2.402   6.424 -0.3144  0.7309 -1.1847
    5SAPS   C23  570   1.567   2.960   6.444  0.4407  0.5297 -0.7499
    5SAPS   H3R  571   1.621   2.895   6.371 -0.7104  2.5835 -3.6574
    5SAPS   H3S  572   1.631   3.009   6.520 -0.1982  3.9466 -2.2185
    5SAPS   C24  573   1.514   3.084   6.374  0.0991  0.6796 -0.3475
    5SAPS   H4R  574   1.599   3.155   6.365  0.3352  0.3407 -0.8659
    5SAPS   H4S  575   1.437   3.145   6.424 -0.7593  0.3421 -1.2175
    5SAPS   C25  576   1.464   3.059   6.233  0.2552 -0.3447 -0.2951
    5SAPS   H5R  577   1.379   2.993   6.215  0.8039 -1.2432  0.2944
    5SAPS   C26  578   1.507   3.121   6.125 -0.0694  0.3686  0.3116
    5SAPS   H6R  579   1.465   3.107   6.024 -0.8165  1.4871  0.4421
    5SAPS   C27  580   1.614   3.226   6.111 -0.1712 -0.3172 -0.4569
    5SAPS   H7R  581   1.607   3.294   6.198  0.7173  0.8120 -1.2331
    5SAPS   H7S  582   1.589   3.305   6.037 -0.6110  0.6369  0.6768
    5SAPS   C28  583   1.744   3.159   6.106  0.1833  0.0264  0.0199
    5SAPS   H8R  584   1.770   3.121   6.206 -0.0695  3.6050  1.5988
    5SAPS   C29  585   1.820   3.151   6.000  0.0673 -0.3254 -0.0227
    5SAPS   H9R  586   1.918   3.101   6.005  0.1223 -0.0737  3.4086
    5SAPS  C210  587   1.790   3.215   5.861 -0.1358 -0.0156 -1.0345
    5SAPS  H10R  588   1.825   3.320   5.861 -0.9269  0.2525 -1.0729
    5SAPS  H10S  589   1.682   3.226   5.841 -0.3237  1.0754  0.4170
    5SAPS  C211  590   1.868   3.153   5.746 -0.3679 -0.5298  0.7103
    5SAPS  H11R  591   1.819   3.065   5.701 -1.6273 -0.8029  2.4800
    5SAPS  C212  592   1.982   3.194   5.683  0.0576 -0.1019  0.0962
    5SAPS  H12R  593   2.020   3.140   5.595  0.5126  0.0539  0.1985
    5SAPS  C213  594   2.052   3.322   5.719 -0.1916  0.0905 -0.0259
    5SAPS  H13R  595   2.156   3.287   5.736 -0.3913  0.1499  1.4812
    5SAPS  H13S  596   2.034   3.354   5.824  0.7105 -0.8673  0.4410
    5SAPS  C214  597   2.024   3.426   5.609  0.6215 -0.0715  0.3880
    5SAPS  H14R  598   1.918   3.437   5.583 -0.0678 -2.6367  1.7470
    5SAPS  C215  599   2.108   3.496   5.538  0.0164 -0.3834  0.2529
    5SAPS  H15R  600   2.074   3.570   5.465 -0.2431  0.9708  1.6910
    5SAPS  C216  601   2.261   3.479   5.548 -0.3423 -0.6202  0.5197
    5SAPS  H16R  602   2.294   3.479   5.442 -1.9889  0.3287 -0.0311
    5SAPS  H16S  603   2.290   3.394   5.613  0.4628 -0.2491  0.6585
    5SAPS  C217  604   2.338   3.601   5.606  0.0074 -0.3344 -0.3059
    5SAPS  H17R  605   2.328   3.686   5.535 -4.2616  1.0056  1.5308
    5SAPS  H17S  606   2.444   3.583   5.633 -0.0557 -0.7984 -0.3528
    5SAPS  C218  607   2.283   3.626   5.749 -0.8274 -1.0052  0.3167
    5SAPS  H18R  608   2.288   3.555   5.834 -0.4032  0.8850  1.9506
    5SAPS  H18S  609   2.177   3.655   5.737  0.2137  2.7839 -1.0655
    5SAPS  C219  610   2.355   3.755   5.807 -0.1103  0.3402  0.2648
    5SAPS  H19R  611   2.366   3.831   5.726  0.4019  0.3841  0.3735
    5SAPS  H19S  612   2.460   3.730   5.834  0.0707  0.0811 -0.6293
    5SAPS  C220  613   2.278   3.826   5.919 -0.3559  0.0576  0.2461
    5SAPS  H20R  614   2.257   3.745   5.992  0.5317 -2.3202 -1.9969
    5SAPS  H20S  615   2.180   3.865   5.885 -0.2128  0.0165 -0.2207
    5SAPS  H20T  616   2.339   3.890   5.987 -1.2070  1.2161 -0.0482
    5SAPS   C33  617   1.634   2.567   6.374 -0.3458  0.3466 -0.1221
    5SAPS   H3X  618   1.698   2.648   6.417 -2.4351  1.4260  1.1272
    5SAPS   H3Y  619   1.528   2.590   6.398 -0.9390 -1.1037 -1.2509
    5SAPS   C34  620   1.653   2.553   6.226 -0.0946 -0.0719 -0.9038
    5SAPS   H4X  621   1.600   2.459   6.199  2.0285 -1.7312  0.3995
    5SAPS   H4Y  622   1.761   2.530   6.214  0.0195 -0.0398  0.0004
    5SAPS   C35  623   1.622   2.682   6.148 -0.6511  0.1038 -0.3047
    5SAPS   H5X  624   1.688   2.764   6.182  1.8863 -1.5715 -0.9172
    5SAPS   H5Y  625   1.518   2.716   6.167 -0.2266  0.7482  0.9744
    5SAPS   C36  626   1.650   2.657   5.996 -0.3006 -0.1745  0.6390
    5SAPS   H6X  627   1.587   2.575   5.956  1.6561 -0.2341 -2.7049
    5SAPS   H6Y  628   1.752   2.617   5.984 -0.7401 -1.5498  1.3561
    5SAPS   C37  629   1.639   2.783   5.910  0.0095  0.3052  0.7587
    5SAPS   H7X  630   1.700   2.861   5.962 -0.8350  0.2804  1.8391
    5SAPS   H7Y  631   1.533   2.816   5.906  0.0275  0.7138  2.5872
    5SAPS   C38  632   1.693   2.752   5.764  0.6774  0.0685 -0.2103
    5SAPS   H8X  633   1.648   2.833   5.703 -0.0481  0.5097  0.8760
    5SAPS   H8Y  634   1.657   2.663   5.708 -0.2599  0.5052 -0.3171
    5SAPS   C39  635   1.843   2.761   5.762 -1.0325  0.0917  0.0747
    5SAPS   H9X  636   1.890   2.700   5.842 -1.0115 -0.1087 -0.0904
    5SAPS   H9Y  637   1.880   2.863   5.785 -0.2721 -0.2661  0.4693
    5SAPS  C310  638   1.914   2.707   5.634  0.2171  0.0814  0.4148
    5SAPS  H10X  639   1.892   2.599   5.623 -1.4210  0.3448  0.8112
    5SAPS  H10Y  640   2.022   2.715   5.658  0.7159 -0.1210 -1.5810
    5SAPS  C311  641   1.881   2.780   5.507  0.5032  0.9020  0.2352
    5SAPS  H11X  642   1.906   2.888   5.507  1.7327  0.6288  0.6185
    5SAPS  H11Y  643   1.771   2.777   5.490 -0.4175  0.7080  4.8817
    5SAPS  C312  644   1.941   2.700   5.384 -0.4381  0.5777 -0.4048
    5SAPS  H12X  645   1.880   2.607   5.385  0.0585  0.1599  2.6941
    5SAPS  H12Y  646   2.048   2.667   5.387 -0.4577  0.4505 -1.0605
    5SAPS  C313  647   1.936   2.772   5.247 -0.2217 -0.3078 -0.6015
    5SAPS  H13X  648   1.995   2.865   5.231 -1.5601  0.6118 -0.4116
    5SAPS  H13Y  649   1.835   2.819   5.245 -0.3755 -0.3230  2.4768
    5SAPS  C314  650   1.954   2.685   5.124  0.8568 -0.1607 -0.6407
    5SAPS  H14X  651   1.867   2.615   5.126 -0.0419  0.9438  0.2254
    5SAPS  H14Y  652   2.040   2.615   5.124  1.7709  0.8604  1.8856
    5SAPS  C315  653   1.935   2.765   4.992  0.3299 -0.3778 -0.5209
    5SAPS  H15X  654   1.942   2.689   4.912  1.0674  1.1191 -1.9441
    5SAPS  H15Y  655   2.026   2.828   4.982 -0.7087  1.0506 -1.4823
    5SAPS  C316  656   1.820   2.866   4.964  0.2678  0.1078 -0.3538
    5SAPS  H16X  657   1.841   2.928   4.875 -2.1024  2.0831  0.3252
    5SAPS  H16Y  658   1.825   2.927   5.057  1.6931 -0.0108 -0.3340
    5SAPS  C317  659   1.683   2.817   4.933  0.0171 -0.2382  0.0982
    5SAPS  H17X  660   1.644   2.745   5.008  0.7300 -0.8557 -0.1022
    5SAPS  H17Y  661   1.699   2.761   4.838 -2.4074 -1.8549  0.5797
    5SAPS  C318  662   1.587   2.930   4.911  0.2654  0.0277 -0.0481
    5SAPS  H18X  663   1.559   2.976   5.009 -1.1010  1.8308 -1.2343
    5SAPS  H18Y  664   1.492   2.887   4.873 -0.7282  2.6268 -0.7092
    5SAPS  H18Z  665   1.639   2.999   4.842  1.6888 -0.9043  0.0388
    6SAPS     N  666   3.638   4.106   7.250  0.3277 -0.5365 -0.1241
    6SAPS   HN1  667   3.631   4.099   7.353 -0.5391 -0.1352 -0.1508
    6SAPS   HN2  668   3.549   4.092   7.199 -0.9250  2.0019  1.1990
    6SAPS   HN3  669   3.704   4.037   7.209 -1.7342 -2.4369 -0.3836
    6SAPS   C12  670   3.678   4.249   7.206  0.7246 -0.0068  0.3335
    6SAPS  H12A  671   3.595   4.315   7.225  0.8992 -0.0859  1.4400
    6SAPS   C13  672   3.798   4.303   7.279  0.0825 -0.4963  0.5404
    6SAPS  O13A  673   3.852   4.246   7.380 -0.3594 -0.3938  0.5687
    6SAPS  O13B  674   3.845   4.411   7.230  0.0311 -0.0923  0.3142
    6SAPS   C11  675   3.704   4.241   7.052 -0.6869 -0.7423  0.2445
    6SAPS  H11A  676   3.794   4.182   7.025 -2.0595 -1.0022 -4.7786
    6SAPS  H11B  677   3.730   4.345   7.021 -0.9578 -0.8549 -0.3759
    6SAPS     P  678   3.480   4.271   6.915 -0.3628 -0.1465  0.0722
    6SAPS   O13  679   3.361   4.191   6.891  0.0457 -0.5213 -0.3508
    6SAPS   O14  680   3.462   4.393   6.993  0.0481  0.2096  0.2384
    6SAPS   O12  681   3.593   4.186   6.984  0.2468 -0.1131 -0.0419
    6SAPS   O11  682   3.537   4.301   6.774 -0.7824 -0.3315 -0.1368
    6SAPS    C1  683   3.653   4.377   6.741 -0.0986  0.4593 -0.2191
    6SAPS    HA  684   3.632   4.481   6.776  0.1548  1.0373 -1.7029
    6SAPS    HB  685   3.745   4.332   6.784 -0.2522  1.7186  1.5473
    6SAPS    C2  686   3.686   4.391   6.588 -0.2600 -0.0549 -1.1288
    6SAPS    HS  687   3.784   4.444   6.583  0.5098 -1.3388 -0.1336
    6SAPS   O21  688   3.588   4.476   6.520  0.7428  0.1021 -0.8924
    6SAPS   C21  689   3.598   4.604   6.562 -0.1408 -0.0374 -0.3736
    6SAPS   O22  690   3.675   4.652   6.641 -0.3251 -0.6693  0.2817
    6SAPS   C22  691   3.492   4.694   6.499  0.2422  0.0698  0.3060
    6SAPS   H2R  692   3.429   4.624   6.440  1.2836 -0.8100  0.1913
    6SAPS   H2S  693   3.431   4.738   6.580 -0.3630  1.3042 -0.7978
    6SAPS    C3  694   3.707   4.255   6.516 -0.0310 -0.2788  0.2412
    6SAPS    HX  695   3.634   4.172   6.531 -0.8058  0.3386 -0.0345
    6SAPS    HY  696   3.792   4.209   6.570  0.4139  0.4913  0.1997
    6SAPS   O31  697   3.759   4.281   6.379  0.2528  0.6661 -0.1919
    6SAPS   C31  698   3.661   4.296   6.289  0.0606  0.0105  0.5177
    6SAPS   O32  699   3.541   4.282   6.306 -0.3995  0.1347 -0.2859
    6SAPS   C32  700   3.720   4.351   6.153  1.1010 -0.2013  0.2775
    6SAPS   H2X  701   3.798   4.274   6.135  2.6308  1.1590  0.7816
    6SAPS   H2Y  702   3.773   4.445   6.181  0.3368 -0.0525  1.2722
    6SAPS   C23  703   3.570   4.800   6.413 -0.3596 -0.2607 -0.3792
    6SAPS   H3R  704   3.622   4.745   6.331 -0.2633 -2.3928  1.0225
    6SAPS   H3S  705   3.642   4.858   6.475 -1.6501  0.7910  0.1768
    6SAPS   C24  706   3.469   4.902   6.359 -0.3460  0.1915  0.0081
    6SAPS   H4R  707   3.423   4.947   6.449  2.8793  3.4860  0.2081
    6SAPS   H4S  708   3.395   4.838   6.306  0.1188 -1.1011  0.8721
    6SAPS   C25  709   3.545   5.004   6.279  1.2001  0.0007 -0.7727
    6SAPS   H5R  710   3.626   5.056   6.334  0.3745 -1.4956  2.0449
    6SAPS   C26  711   3.530   5.028   6.148 -0.0369 -0.1391 -0.2632
    6SAPS   H6R  712   3.588   5.102   6.092 -0.5763  0.1243 -0.4856
    6SAPS   C27  713   3.421   4.957   6.071 -0.0273  0.9129 -0.0407
    6SAPS   H7R  714   3.370   5.027   6.002 -0.8086  1.0573  0.6775
    6SAPS   H7S  715   3.350   4.918   6.146  2.5784  0.4102  2.3258
    6SAPS   C28  716   3.472   4.836   5.995  0.0992  0.4061  0.2469
    6SAPS   H8R  717   3.519   4.762   6.062 -0.0279 -0.4058 -0.5361
    6SAPS   C29  718   3.465   4.810   5.865 -1.0260 -0.1239  0.6905
    6SAPS   H9R  719   3.517   4.721   5.826  1.0683  0.9985  0.7243
    6SAPS  C210  720   3.409   4.892   5.754  0.5999  0.9930 -0.4417
    6SAPS  H10R  721   3.338   4.970   5.790  1.1230  2.4486 -2.4053
    6SAPS  H10S  722   3.342   4.834   5.688 -0.1180 -0.0200  1.1012
    6SAPS  C211  723   3.527   4.959   5.683 -0.5171 -0.6449 -0.5397
    6SAPS  H11R  724   3.622   4.951   5.738 -1.2991 -0.1268  0.9546
    6SAPS  C212  725   3.515   5.017   5.561  0.1915 -0.6788 -0.2398
    6SAPS  H12R  726   3.603   5.050   5.504  0.2958  1.6348  1.1439
    6SAPS  C213  727   3.389   5.043   5.486 -0.3482  0.7021 -0.1958
    6SAPS  H13R  728   3.322   4.955   5.499  1.8107 -1.0189 -0.2135
    6SAPS  H13S  729   3.415   5.056   5.379  0.4813  2.5201  0.1867
    6SAPS  C214  730   3.315   5.169   5.529  0.0750 -0.1489 -0.2619
    6SAPS  H14R  731   3.336   5.220   5.623  2.3566  3.2649 -2.3949
    6SAPS  C215  732   3.217   5.239   5.462 -0.0421  0.0074  0.5497
    6SAPS  H15R  733   3.178   5.334   5.503  0.6456  1.1420 -1.3214
    6SAPS  C216  734   3.147   5.208   5.325  0.6884 -0.2004 -0.3705
    6SAPS  H16R  735   3.140   5.098   5.312 -0.0106 -0.1653 -0.3033
    6SAPS  H16S  736   3.203   5.247   5.238  1.9914  0.3628  0.6819
    6SAPS  C217  737   2.999   5.250   5.300  0.1213  0.4500 -0.4418
    6SAPS  H17R  738   2.962   5.226   5.198 -1.3116 -0.3718  0.2404
    6SAPS  H17S  739   2.985   5.359   5.314 -1.3294  0.1022  1.1241
    6SAPS  C218  740   2.913   5.157   5.392  0.2422  0.1551 -0.0503
    6SAPS  H18R  741   2.961   5.165   5.492  0.0876  1.8672 -0.0870
    6SAPS  H18S  742   2.911   5.050   5.365 -3.0094 -0.4906  2.1801
    6SAPS  C219  743   2.770   5.200   5.407 -0.2895 -0.2787 -0.3837
    6SAPS  H19R  744   2.770   5.307   5.434 -1.8218 -0.5645  0.8879
    6SAPS  H19S  745   2.718   5.154   5.494 -0.5720  0.0931 -0.3552
    6SAPS  C220  746   2.683   5.183   5.283 -0.3257 -0.7274 -0.0597
    6SAPS  H20R  747   2.586   5.233   5.299  0.3413  0.3618  0.6857
    6SAPS  H20S  748   2.651   5.078   5.269 -1.1391 -0.7283  1.6170
    6SAPS  H20T  749   2.720   5.224   5.186 -1.0505 -2.2114 -1.0025
    6SAPS   C33  750   3.617   4.347   6.038  0.2824  0.1199  0.2582
    6SAPS   H3X  751   3.545   4.430   6.049 -0.3193 -0.2905 -0.4926
    6SAPS   H3Y  752   3.557   4.253   6.041 -1.3179  1.1321  1.8357
    6SAPS   C34  753   3.680   4.359   5.893  0.2942  0.9735 -0.1783
    6SAPS   H4X  754   3.734   4.265   5.867 -1.0452  0.7403 -2.3241
    6SAPS   H4Y  755   3.755   4.442   5.893  2.3824 -0.8035  0.7969
    6SAPS   C35  756   3.576   4.375   5.785 -0.3951 -0.2868 -0.2963
    6SAPS   H5X  757   3.515   4.463   5.815  0.9776  1.2195 -1.6635
    6SAPS   H5Y  758   3.501   4.296   5.768 -0.9856  0.2847 -0.3898
    6SAPS   C36  759   3.647   4.411   5.655 -0.6441  0.1230  0.2327
    6SAPS   H6X  760   3.673   4.325   5.591  0.0678 -0.5936  1.4660
    6SAPS   H6Y  761   3.739   4.467   5.683  0.1596 -2.0456  2.1689
    6SAPS   C37  762   3.569   4.521   5.572 -0.6993  0.1505 -0.0331
    6SAPS   H7X  763   3.630   4.570   5.493 -1.6297  1.0072 -0.2409
    6SAPS   H7Y  764   3.553   4.606   5.641  0.7069 -0.6208  1.3051
    6SAPS   C38  765   3.442   4.466   5.500 -0.3885 -0.5708 -0.4609
    6SAPS   H8X  766   3.368   4.436   5.577  0.2555 -3.0216 -0.7123
    6SAPS   H8Y  767   3.482   4.388   5.432  0.1927  0.1257 -0.9349
    6SAPS   C39  768   3.386   4.580   5.420  0.3110 -0.3839  0.1702
    6SAPS   H9X  769   3.462   4.629   5.356 -1.1232  0.4833 -0.9305
    6SAPS   H9Y  770   3.352   4.650   5.500 -0.8734 -0.6661 -0.0575
    6SAPS  C310  771   3.262   4.557   5.335 -0.1468 -0.8615  0.3380
    6SAPS  H10X  772   3.177   4.525   5.398 -0.7836 -1.3316 -0.7404
    6SAPS  H10Y  773   3.278   4.485   5.252  1.3376  0.4457 -0.5688
    6SAPS  C311  774   3.202   4.693   5.279  0.6546  0.1305 -0.3562
    6SAPS  H11X  775   3.249   4.725   5.183  0.5851 -0.7316 -0.6889
    6SAPS  H11Y  776   3.232   4.761   5.361 -0.1477 -1.4999  1.3589
    6SAPS  C312  777   3.053   4.688   5.258  0.3521 -0.3339  0.5486
    6SAPS  H12X  778   2.981   4.680   5.343 -3.8066  4.4676 -1.9458
    6SAPS  H12Y  779   3.022   4.605   5.192 -3.2094  2.5737 -1.8559
    6SAPS  C313  780   3.002   4.824   5.189 -0.0127  0.0782 -0.5008
    6SAPS  H13X  781   3.058   4.837   5.095  2.0046  0.2186  0.6691
    6SAPS  H13Y  782   3.022   4.906   5.260 -2.7004 -2.3669  3.5446
    6SAPS  C314  783   2.856   4.810   5.139 -0.0698  0.1602  0.5421
    6SAPS  H14X  784   2.791   4.776   5.222 -1.4846  2.3513  0.4058
    6SAPS  H14Y  785   2.857   4.733   5.060  1.1559 -0.4379  1.1038
    6SAPS  C315  786   2.807   4.935   5.069  0.4120  0.2185  0.4996
    6SAPS  H15X  787   2.879   4.976   4.994  0.9007  1.2637  1.5170
    6SAPS  H15Y  788   2.801   5.016   5.144 -0.4542  1.3263 -0.7090
    6SAPS  C316  789   2.665   4.923   4.998 -0.6242  0.0361 -0.3571
    6SAPS  H16X  790   2.599   4.900   5.084  0.6978  0.6973  0.8762
    6SAPS  H16Y  791   2.665   4.837   4.928 -1.9745 -0.6366  0.4237
    6SAPS  C317  792   2.599   5.057   4.937 -0.0372  0.9939 -0.4839
    6SAPS  H17X  793   2.683   5.088   4.871  1.9182  0.7493  1.7394
    6SAPS  H17Y  794   2.594   5.134   5.017  0.4606  2.0052 -1.4015
    6SAPS  C318  795   2.461   5.044   4.884  0.1599  0.0087 -0.2789
    6SAPS  H18X  796   2.474   5.030   4.775  2.0853 -0.7727  0.0095
    6SAPS  H18Y  797   2.414   5.143   4.903 -1.4186 -1.0277  1.6521
    6SAPS  H18Z  798   2.397   4.963   4.926 -2.3432  0.5982 -2.6900
    7SAPS     N  799   0.104   4.102   7.274  0.0654 -0.0138  0.0489
    7SAPS   HN1  800   0.141   4.006   7.256  1.6385  0.2306  1.7312
    7SAPS   HN2  801   0.008   4.104   7.313  0.6413  0.2350  1.5230
    7SAPS   HN3  802   0.108   4.165   7.191 -0.3994 -3.0498 -2.4536
    7SAPS   C12  803   0.184   4.160   7.386 -0.1593 -0.0699  0.6168
    7SAPS  H12A  804   0.163   4.264   7.403 -0.5468  0.0349 -0.4478
    7SAPS   C13  805   0.182   4.082   7.517  0.5030  0.3133  0.4638
    7SAPS  O13A  806   0.113   3.979   7.519 -0.1465  1.0147 -0.0003
    7SAPS  O13B  807   0.241   4.120   7.624 -0.1191 -0.7027 -0.0200
    7SAPS   C11  808   0.334   4.156   7.342 -0.0734 -0.0588 -0.4688
    7SAPS  H11A  809   0.341   4.048   7.315 -0.6966  0.2984 -2.1347
    7SAPS  H11B  810   0.408   4.177   7.423 -1.3085  0.7587  0.4961
    7SAPS     P  811   0.443   4.362   7.211 -0.1945  0.1302  0.0961
    7SAPS   O13  812   0.363   4.486   7.230 -0.2796  0.5561  0.8594
    7SAPS   O14  813   0.553   4.352   7.315 -1.0146  0.4101  0.0442
    7SAPS   O12  814   0.356   4.235   7.224 -0.0032  0.2612  0.2772
    7SAPS   O11  815   0.512   4.364   7.075 -0.1940 -0.2993  0.0135
    7SAPS    C1  816   0.651   4.319   7.072  0.8639 -0.2392  0.6768
    7SAPS    HA  817   0.712   4.379   7.142  0.6776  2.1783 -1.1185
    7SAPS    HB  818   0.660   4.211   7.098  1.8330  0.4038  3.3730
    7SAPS    C2  819   0.706   4.352   6.930  0.2255  0.2903 -0.4897
    7SAPS    HS  820   0.726   4.461   6.920  0.0420  0.3299 -0.4270
    7SAPS   O21  821   0.608   4.305   6.831  0.8119 -0.3676 -0.2968
    7SAPS   C21  822   0.615   4.371   6.716 -0.2888  0.5775  0.3213
    7SAPS   O22  823   0.694   4.452   6.675  0.4955  0.1702 -0.4790
    7SAPS   C22  824   0.501   4.308   6.633  0.0290  0.3105  0.2164
    7SAPS   H2R  825   0.554   4.221   6.590  0.6700  1.5046 -1.5560
    7SAPS   H2S  826   0.427   4.279   6.710  2.4207  0.0632  2.5862
    7SAPS    C3  827   0.834   4.271   6.895 -0.7823  0.8655  0.1675
    7SAPS    HX  828   0.799   4.169   6.872  0.4235  0.8215 -1.7610
    7SAPS    HY  829   0.901   4.259   6.983  1.8136 -0.7267 -1.8682
    7SAPS   O31  830   0.904   4.317   6.778 -0.8098  0.2146  0.4046
    7SAPS   C31  831   0.977   4.422   6.798 -0.6120  0.2891 -0.0501
    7SAPS   O32  832   0.980   4.483   6.905 -0.0239 -0.3050  0.4778
    7SAPS   C32  833   1.061   4.465   6.678  0.1095 -0.1160 -0.6153
    7SAPS   H2X  834   1.133   4.388   6.643  1.2698  0.6291  0.0410
    7SAPS   H2Y  835   1.129   4.548   6.709 -0.0949  0.1770 -0.9490
    7SAPS   C23  836   0.439   4.389   6.521 -0.8550  0.0309  0.4026
    7SAPS   H3R  837   0.509   4.417   6.440 -0.6015  1.6102  1.1406
    7SAPS   H3S  838   0.397   4.477   6.575 -0.4195  0.5528 -0.1043
    7SAPS   C24  839   0.324   4.311   6.466 -0.0962  0.4927  0.0776
    7SAPS   H4R  840   0.240   4.290   6.535 -3.4083  0.6672 -3.5340
    7SAPS   H4S  841   0.356   4.215   6.419 -1.7980 -1.0628  1.8962
    7SAPS   C25  842   0.259   4.394   6.363  0.0930  0.1532  0.4502
    7SAPS   H5R  843   0.153   4.408   6.389  0.2086  1.2066  0.3981
    7SAPS   C26  844   0.306   4.456   6.252 -1.0781  0.6776 -0.8998
    7SAPS   H6R  845   0.229   4.501   6.187 -3.0262 -1.0970  0.0802
    7SAPS   C27  846   0.451   4.450   6.206  0.2654 -0.3044  0.3788
    7SAPS   H7R  847   0.506   4.358   6.232 -0.4998 -1.0665 -0.6340
    7SAPS   H7S  848   0.486   4.541   6.260  1.2009 -0.0121 -0.6746
    7SAPS   C28  849   0.452   4.483   6.054 -0.0205 -0.2173  0.1593
    7SAPS   H8R  850   0.366   4.449   5.994 -0.5466  1.1118  0.1137
    7SAPS   C29  851   0.558   4.550   6.006 -0.9844  0.1045 -0.0481
    7SAPS   H9R  852   0.561   4.569   5.897  1.4706  0.6453  0.0657
    7SAPS  C210  853   0.681   4.603   6.080  0.0103  0.5396  0.1519
    7SAPS  H10R  854   0.767   4.604   6.010 -0.6859 -1.1085 -0.7756
    7SAPS  H10S  855   0.716   4.540   6.165  2.0226  0.1679 -0.8899
    7SAPS  C211  856   0.660   4.744   6.126  0.1502  0.6077  0.7722
    7SAPS  H11R  857   0.641   4.755   6.234 -1.0658 -2.3170  0.9386
    7SAPS  C212  858   0.669   4.853   6.047 -0.8283 -0.5865 -0.1987
    7SAPS  H12R  859   0.659   4.955   6.086  1.6550  0.0942 -1.1142
    7SAPS  C213  860   0.708   4.837   5.900  0.0625 -0.7629  0.2398
    7SAPS  H13R  861   0.619   4.789   5.853 -1.2090  0.2544  1.5437
    7SAPS  H13S  862   0.801   4.775   5.894 -0.7012 -1.9734  0.5910
    7SAPS  C214  863   0.731   4.965   5.828 -0.1049 -0.4990  0.8061
    7SAPS  H14R  864   0.726   5.057   5.887 -0.7626  0.2371 -0.3578
    7SAPS  C215  865   0.759   4.980   5.693  0.0968  0.2141  0.5171
    7SAPS  H15R  866   0.773   5.078   5.644 -1.9095 -0.0924 -0.7921
    7SAPS  C216  867   0.773   4.872   5.591 -0.2707  0.2826  0.2923
    7SAPS  H16R  868   0.798   4.771   5.631  1.7836  0.9487  0.8239
    7SAPS  H16S  869   0.860   4.900   5.528 -1.3449 -0.6846 -1.7137
    7SAPS  C217  870   0.661   4.856   5.484  0.2041  0.1159  0.2136
    7SAPS  H17R  871   0.679   4.772   5.414 -0.5402  0.1961 -0.0792
    7SAPS  H17S  872   0.655   4.950   5.425  1.6613 -0.8715 -1.5890
    7SAPS  C218  873   0.519   4.818   5.526  0.6126  0.2531  0.4857
    7SAPS  H18R  874   0.445   4.848   5.449  0.0176 -0.4252  0.7859
    7SAPS  H18S  875   0.504   4.884   5.615  0.2664  1.2209 -0.2732
    7SAPS  C219  876   0.511   4.669   5.567  0.3235  0.0814 -0.0166
    7SAPS  H19R  877   0.595   4.650   5.637  0.0975  0.0414  0.2440
    7SAPS  H19S  878   0.522   4.599   5.482 -2.0669 -0.7193  0.2882
    7SAPS  C220  879   0.377   4.633   5.639 -0.4031 -0.8859 -0.1583
    7SAPS  H20R  880   0.290   4.659   5.575  1.2743 -0.6209 -2.4888
    7SAPS  H20S  881   0.380   4.695   5.731  0.0034 -1.0533 -0.0547
    7SAPS  H20T  882   0.370   4.525   5.661  0.1738 -0.8951  0.0024
    7SAPS   C33  883   0.969   4.518   6.565 -0.4521  1.0012 -0.4050
    7SAPS   H3X  884   0.900   4.592   6.609  1.1356  1.5887  1.2488
    7SAPS   H3Y  885   0.910   4.429   6.534 -1.2879  1.0480  0.9575
    7SAPS   C34  886   1.063   4.571   6.462  1.1088  0.5844  0.1154
    7SAPS   H4X  887   1.137   4.493   6.435  0.8341 -0.0971  1.2629
    7SAPS   H4Y  888   1.128   4.653   6.500  2.6926 -0.6077  0.0776
    7SAPS   C35  889   0.987   4.624   6.332 -0.1595 -0.7922 -0.2743
    7SAPS   H5X  890   0.927   4.709   6.371  0.5623  0.3413 -1.5278
    7SAPS   H5Y  891   0.918   4.545   6.296 -1.4134 -1.2503  2.8084
    7SAPS   C36  892   1.090   4.659   6.230  0.4140 -0.3786  0.5757
    7SAPS   H6X  893   1.152   4.575   6.191  1.6150  1.1516 -0.9784
    7SAPS   H6Y  894   1.160   4.740   6.260 -0.5589  1.4694 -1.7782
    7SAPS   C37  895   1.034   4.735   6.106 -0.1768 -0.2166  0.2828
    7SAPS   H7X  896   0.973   4.824   6.131  0.1670  1.2945 -3.5516
    7SAPS   H7Y  897   0.963   4.660   6.064 -0.5689  1.0800 -1.4547
    7SAPS   C38  898   1.149   4.763   5.999  0.1593  1.3028 -0.0516
    7SAPS   H8X  899   1.229   4.686   6.004 -0.1230  0.8705 -1.6398
    7SAPS   H8Y  900   1.193   4.862   6.023  0.9689  0.6740  1.2100
    7SAPS   C39  901   1.090   4.767   5.858  0.7794  0.0276 -0.4658
    7SAPS   H9X  902   1.016   4.851   5.859 -0.1548 -0.7066 -2.4067
    7SAPS   H9Y  903   1.030   4.678   5.829 -0.3941  0.6639 -0.0665
    7SAPS  C310  904   1.191   4.795   5.750  0.1337 -0.3994  0.4219
    7SAPS  H10X  905   1.241   4.702   5.717  0.1714 -0.7897  1.5293
    7SAPS  H10Y  906   1.262   4.864   5.800 -0.0234 -0.5425  0.8464
    7SAPS  C311  907   1.134   4.850   5.615  0.9995  0.0289  0.9563
    7SAPS  H11X  908   1.080   4.947   5.621 -3.2420 -2.0393  0.1659
    7SAPS  H11Y  909   1.052   4.778   5.593 -0.1197  1.7983 -0.9732
    7SAPS  C312  910   1.228   4.834   5.497 -1.1409  0.2393 -0.0975
    7SAPS  H12X  911   1.256   4.727   5.505  0.6703  0.7176  0.3937
    7SAPS  H12Y  912   1.325   4.886   5.509 -1.5450  1.6927 -2.5651
    7SAPS  C313  913   1.180   4.876   5.358  0.2613 -0.0972 -0.5201
    7SAPS  H13X  914   1.187   4.987   5.345 -0.7386 -0.0781 -0.9726
    7SAPS  H13Y  915   1.073   4.855   5.335 -0.6126 -0.3023  3.1772
    7SAPS  C314  916   1.281   4.812   5.255 -0.4677  0.0600 -0.7872
    7SAPS  H14X  917   1.317   4.713   5.292 -0.3703  0.6201  0.6542
    7SAPS  H14Y  918   1.376   4.869   5.253  0.3961 -1.2277  1.0139
    7SAPS  C315  919   1.217   4.797   5.112  0.4289  0.4670  0.2734
    7SAPS  H15X  920   1.199   4.897   5.067  1.7886  0.9127  0.6669
    7SAPS  H15Y  921   1.116   4.752   5.123  1.9322 -3.0829  0.8843
    7SAPS  C316  922   1.309   4.720   5.018  0.4043  0.2255 -0.0181
    7SAPS  H16X  923   1.301   4.610   5.026 -1.5646  0.2400 -1.2215
    7SAPS  H16Y  924   1.414   4.748   5.041  1.0747 -0.6431 -1.8432
    7SAPS  C317  925   1.272   4.739   4.871 -0.3811 -0.0471  0.0862
    7SAPS  H17X  926   1.276   4.845   4.835 -1.6100 -0.6704 -2.0683
    7SAPS  H17Y  927   1.165   4.710   4.857 -1.1198  2.4250  0.1174
    7SAPS  C318  928   1.348   4.654   4.773 -0.2392 -0.6023  0.0741
    7SAPS  H18X  929   1.454   4.685   4.788 -0.8772  1.1891  1.1665
    7SAPS  H18Y  930   1.310   4.670   4.670 -0.4513 -0.4419  0.1763
    7SAPS  H18Z  931   1.331   4.546   4.793 -1.1475 -0.3726  0.5681
    8SAPS     N  932   5.663   5.374   7.155  0.1233 -0.6413  0.1584
    8SAPS   HN1  933   5.565   5.379   7.121 -0.1244 -1.1207  0.7809
    8SAPS   HN2  934   5.720   5.439   7.096 -1.5262  2.2128  1.4837
    8SAPS   HN3  935   5.697   5.277   7.139  4.1094  0.1753  2.2865
    8SAPS   C12  936   5.673   5.412   7.298  0.6610  0.2126 -0.3907
    8SAPS  H12A  937   5.779   5.390   7.308  0.4328 -1.9668 -2.0599
    8SAPS   C13  938   5.658   5.558   7.339 -0.4196 -0.7962 -0.6727
    8SAPS  O13A  939   5.611   5.642   7.256 -0.1873  0.3469 -0.2303
    8SAPS  O13B  940   5.699   5.599   7.452 -0.5667  0.2415  0.9188
    8SAPS   C11  941   5.583   5.322   7.383  0.6606 -1.1253  0.2031
    8SAPS  H11A  942   5.481   5.357   7.355  0.6057  0.4854  2.2122
    8SAPS  H11B  943   5.596   5.354   7.488 -0.4618  0.1648 -0.0107
    8SAPS     P  944   5.529   5.076   7.446 -0.2465  0.1355  0.2575
    8SAPS   O13  945   5.629   4.969   7.477  0.4325  0.3741  0.0744
    8SAPS   O14  946   5.456   5.134   7.560 -0.4195  0.1982 -0.1727
    8SAPS   O12  947   5.609   5.186   7.368 -0.2827 -0.2110 -0.1117
    8SAPS   O11  948   5.424   5.026   7.339  0.6350 -0.0351  0.0176
    8SAPS    C1  949   5.451   5.047   7.206  1.0502 -0.5900  0.2953
    8SAPS    HA  950   5.353   5.048   7.155  1.9153  2.9377 -1.6252
    8SAPS    HB  951   5.488   5.147   7.175 -0.2486 -0.9010 -2.5207
    8SAPS    C2  952   5.532   4.944   7.125  0.2178 -0.7606 -0.2194
    8SAPS    HS  953   5.638   4.927   7.154  1.4759  0.6087 -3.4934
    8SAPS   O21  954   5.526   4.981   6.988  0.3237 -0.6750  0.0232
    8SAPS   C21  955   5.609   5.077   6.951  0.7615  0.3505 -0.0194
    8SAPS   O22  956   5.691   5.132   7.025  0.4724 -0.6854 -0.2253
    8SAPS   C22  957   5.569   5.136   6.817 -0.3772  0.1312 -0.1965
    8SAPS   H2R  958   5.520   5.064   6.748 -0.2518  0.1699 -0.3271
    8SAPS   H2S  959   5.497   5.219   6.831 -2.5334 -1.3730 -1.6998
    8SAPS    C3  960   5.464   4.805   7.141  0.3552  0.2841  0.0225
    8SAPS    HX  961   5.357   4.799   7.111  0.4281 -2.1709  0.0658
    8SAPS    HY  962   5.473   4.784   7.250  0.5524 -3.5663 -0.6059
    8SAPS   O31  963   5.536   4.701   7.070  0.2301 -0.0351  0.3360
    8SAPS   C31  964   5.481   4.669   6.949 -0.2007  0.3488  0.2244
    8SAPS   O32  965   5.380   4.708   6.900  0.2567  0.1523  0.4032
    8SAPS   C32  966   5.575   4.565   6.893 -0.3396 -0.1245  0.3067
    8SAPS   H2X  967   5.587   4.486   6.971  2.1264  0.0094  0.1473
    8SAPS   H2Y  968   5.671   4.613   6.865  0.3641 -0.8385  1.3852
    8SAPS   C23  969   5.692   5.195   6.746 -0.3212  0.2456 -0.4895
    8SAPS   H3R  970   5.764   5.110   6.744  1.9264  1.8790  2.2409
    8SAPS   H3S  971   5.755   5.261   6.810 -0.5888 -1.2099  1.3570
    8SAPS   C24  972   5.653   5.263   6.614  0.0638 -0.4502  0.1266
    8SAPS   H4R  973   5.603   5.353   6.657 -0.9867 -0.5623 -0.7955
    8SAPS   H4S  974   5.583   5.212   6.544  1.5309 -1.1121 -0.9102
    8SAPS   C25  975   5.773   5.310   6.536  0.1315  0.3019 -0.0404
    8SAPS   H5R  976   5.865   5.335   6.589 -0.7203  0.2190  1.5202
    8SAPS   C26  977   5.782   5.308   6.401  0.1964 -0.4741  0.7944
    8SAPS   H6R  978   5.877   5.344   6.360 -0.2766 -1.5923 -1.4576
    8SAPS   C27  979   5.678   5.263   6.299  0.0227  0.0144 -0.0969
    8SAPS   H7R  980   5.633   5.169   6.336  0.2587 -0.5569 -1.1840
    8SAPS   H7S  981   5.718   5.234   6.199 -0.0382 -1.8013  0.3699
    8SAPS   C28  982   5.568   5.357   6.263  0.4165 -0.9428  0.1478
    8SAPS   H8R  983   5.470   5.311   6.280 -0.3175  0.4428 -0.1954
    8SAPS   C29  984   5.572   5.490   6.228  0.2379  0.7274 -0.0881
    8SAPS   H9R  985   5.482   5.551   6.213 -0.6684 -0.7469 -0.8483
    8SAPS  C210  986   5.700   5.568   6.203 -0.0597  0.2459 -0.1763
    8SAPS  H10R  987   5.784   5.498   6.184 -0.6508 -0.1555 -1.4078
    8SAPS  H10S  988   5.722   5.614   6.302  0.0895 -1.1225  0.4452
    8SAPS  C211  989   5.703   5.669   6.092 -0.0081 -0.6045 -0.1100
    8SAPS  H11R  990   5.640   5.759   6.101 -0.1841 -0.6955 -0.4086
    8SAPS  C212  991   5.761   5.647   5.976 -0.6072 -0.6580  0.2104
    8SAPS  H12R  992   5.770   5.730   5.905 -2.1086 -1.0079 -0.4304
    8SAPS  C213  993   5.857   5.537   5.938  0.2928 -0.3434 -0.1939
    8SAPS  H13R  994   5.907   5.495   6.027  1.3922  0.1017 -0.5864
    8SAPS  H13S  995   5.935   5.581   5.872  1.1917 -2.5081 -0.6462
    8SAPS  C214  996   5.786   5.426   5.869 -0.1001  0.5468 -0.5876
    8SAPS  H14R  997   5.684   5.413   5.908 -0.0473  1.3312 -0.1598
    8SAPS  C215  998   5.839   5.350   5.766  0.0999 -0.1545 -0.2324
    8SAPS  H15R  999   5.773   5.274   5.722 -0.2521  0.3749 -0.6329
    8SAPS  C216 1000   5.972   5.359   5.705  0.1647 -0.2540 -0.0215
    8SAPS  H16R 1001   6.037   5.272   5.733 -0.5809 -0.8488 -0.1048
    8SAPS  H16S 1002   6.033   5.446   5.736 -0.4314 -0.3588  1.5280
    8SAPS  C217 1003   5.967   5.362   5.548  0.2163  0.4284  0.2869
    8SAPS  H17R 1004   5.875   5.308   5.520 -0.1967 -1.1435  4.0239
    8SAPS  H17S 1005   6.049   5.306   5.498  0.4855  0.5767  0.5586
    8SAPS  C218 1006   5.976   5.496   5.475 -0.3482  0.1146 -0.0720
    8SAPS  H18R 1007   6.070   5.544   5.506 -0.0525 -1.7620  2.1989
    8SAPS  H18S 1008   5.893   5.557   5.516 -1.1349 -1.2930  0.5380
    8SAPS  C219 1009   5.959   5.472   5.318 -0.3731 -0.5048 -0.3838
    8SAPS  H19R 1010   5.872   5.405   5.301 -3.1773  1.9848  2.7064
    8SAPS  H19S 1011   6.048   5.424   5.272  0.8271 -0.3861  1.7385
    8SAPS  C220 1012   5.930   5.607   5.242  0.0499 -0.4112  0.2660
    8SAPS  H20R 1013   5.927   5.589   5.132  1.4816  0.4226  0.0637
    8SAPS  H20S 1014   5.999   5.693   5.255  0.7220 -0.7322 -1.0232
    8SAPS  H20T 1015   5.825   5.643   5.245  0.5798  1.5299 -1.6201
    8SAPS   C33 1016   5.509   4.498   6.770  0.5923 -0.4591  0.1769
    8SAPS   H3X 1017   5.403   4.477   6.792  0.1336  0.3025 -1.1616
    8SAPS   H3Y 1018   5.558   4.402   6.743  0.6861 -0.9191  1.9018
    8SAPS   C34 1019   5.517   4.587   6.641  0.5355 -0.6605  0.0724
    8SAPS   H4X 1020   5.616   4.587   6.590 -1.0601 -0.7726 -3.2933
    8SAPS   H4Y 1021   5.499   4.695   6.662  3.9628  0.3991 -1.6662
    8SAPS   C35 1022   5.412   4.532   6.537 -0.2223 -0.4067  0.1717
    8SAPS   H5X 1023   5.402   4.599   6.449 -0.9097  0.3032  0.7716
    8SAPS   H5Y 1024   5.311   4.532   6.583 -0.5607  1.0324 -0.5167
    8SAPS   C36 1025   5.422   4.383   6.495  0.2748 -0.5667 -0.3738
    8SAPS   H6X 1026   5.416   4.306   6.575 -1.3540 -0.7696 -0.6671
    8SAPS   H6Y 1027   5.514   4.363   6.436 -0.0931  1.1194 -1.6006
    8SAPS   C37 1028   5.304   4.356   6.398  0.8236 -0.1579  0.2791
    8SAPS   H7X 1029   5.216   4.356   6.466  0.5571  2.4718  0.0390
    8SAPS   H7Y 1030   5.303   4.258   6.347 -0.2053  0.0125 -0.0620
    8SAPS   C38 1031   5.271   4.454   6.277 -0.1569  1.1945  0.3016
    8SAPS   H8X 1032   5.243   4.555   6.315  1.3710  1.9602 -0.5297
    8SAPS   H8Y 1033   5.189   4.407   6.219  0.3436  0.4940  0.1506
    8SAPS   C39 1034   5.396   4.463   6.187  0.3759  0.5247  0.3272
    8SAPS   H9X 1035   5.442   4.364   6.167  2.6598  1.4929  0.3607
    8SAPS   H9Y 1036   5.473   4.523   6.241  0.1076  2.7243 -1.5699
    8SAPS  C310 1037   5.365   4.520   6.050  0.2944  0.1666 -0.8298
    8SAPS  H10X 1038   5.331   4.622   6.080 -0.9954 -0.8048  1.2231
    8SAPS  H10Y 1039   5.277   4.475   5.999 -0.3507  1.5422 -0.9721
    8SAPS  C311 1040   5.478   4.513   5.943 -0.0707 -0.0783  0.4739
    8SAPS  H11X 1041   5.490   4.410   5.903  1.6833  1.3797 -3.1933
    8SAPS  H11Y 1042   5.573   4.553   5.985  1.4887 -1.5852 -1.4361
    8SAPS  C312 1043   5.454   4.592   5.812  0.1838  0.2095 -0.1814
    8SAPS  H12X 1044   5.540   4.591   5.743  1.6125 -0.4071  1.5506
    8SAPS  H12Y 1045   5.439   4.701   5.828 -1.5451  0.2852 -1.8985
    8SAPS  C313 1046   5.335   4.539   5.736 -0.1275  0.1380  1.1034
    8SAPS  H13X 1047   5.233   4.547   5.781 -0.5916 -0.9542  0.3155
    8SAPS  H13Y 1048   5.342   4.429   5.720 -2.3290  0.1557 -0.5887
    8SAPS  C314 1049   5.310   4.613   5.601  1.3303 -0.0784  0.4291
    8SAPS  H14X 1050   5.402   4.622   5.540  0.5152  2.8911 -0.5506
    8SAPS  H14Y 1051   5.294   4.715   5.641  1.6672  0.0529  0.2331
    8SAPS  C315 1052   5.188   4.559   5.535 -0.0819  0.3508 -0.1158
    8SAPS  H15X 1053   5.099   4.573   5.601  0.2781 -1.3333  0.7882
    8SAPS  H15Y 1054   5.196   4.448   5.531 -0.9445  0.1821  1.8513
    8SAPS  C316 1055   5.160   4.623   5.391  1.0426 -0.0134 -0.5572
    8SAPS  H16X 1056   5.189   4.730   5.398  1.2194  0.0204 -1.5465
    8SAPS  H16Y 1057   5.050   4.617   5.373  1.1993  0.6938 -1.9352
    8SAPS  C317 1058   5.228   4.557   5.267 -0.4880 -0.1727  0.3598
    8SAPS  H17X 1059   5.194   4.453   5.250  0.8115 -0.2541 -2.3055
    8SAPS  H17Y 1060   5.339   4.556   5.272 -0.5203 -2.1185  1.3109
    8SAPS  C318 1061   5.176   4.632   5.141 -0.2586 -0.6075  0.3631
    8SAPS  H18X 1062   5.223   4.732   5.134 -0.1423 -0.4657  2.3979
    8SAPS  H18Y 1063   5.065   4.637   5.136 -0.2973 -0.4522  1.2015
    8SAPS  H18Z 1064   5.200   4.574   5.050  1.2679  0.1667  0.2468
    9SAPS     N 1065   4.075   4.335   7.120  0.2128  0.4312  0.0443
    9SAPS   HN1 1066   4.094   4.432   7.087  0.6860 -0.0115 -1.0083
    9SAPS   HN2 1067   4.050   4.284   7.033 -1.6610 -0.0898  0.8348
    9SAPS   HN3 1068   3.991   4.326   7.182  0.7505 -1.1335  0.5899
    9SAPS   C12 1069   4.190   4.262   7.182 -0.6560 -0.3713  0.2408
    9SAPS  H12A 1070   4.270   4.261   7.109 -0.6970 -2.7341  0.1711
    9SAPS   C13 1071   4.256   4.335   7.303  0.6833  1.0577  0.6296
    9SAPS  O13A 1072   4.206   4.448   7.335 -0.2664 -0.1385  0.1659
    9SAPS  O13B 1073   4.373   4.297   7.332 -0.5275 -0.0446  0.2198
    9SAPS   C11 1074   4.148   4.120   7.215 -0.0027  0.4637 -0.1517
    9SAPS  H11A 1075   4.080   4.119   7.304 -1.1293  0.4276 -0.9862
    9SAPS  H11B 1076   4.241   4.070   7.249  0.0321  1.6638  1.6677
    9SAPS     P 1077   3.991   3.917   7.146 -0.3178  0.2229 -0.1924
    9SAPS   O13 1078   4.028   3.848   7.268  0.0789  0.0643 -0.2275
    9SAPS   O14 1079   3.850   3.964   7.137  0.4685  1.2269 -0.3702
    9SAPS   O12 1080   4.084   4.038   7.112  0.3222 -0.2938  0.1891
    9SAPS   O11 1081   4.029   3.818   7.023  0.2783  0.1100  0.1174
    9SAPS    C1 1082   4.015   3.869   6.895  0.4631 -0.1112  0.1602
    9SAPS    HA 1083   4.008   3.980   6.896  0.3587 -0.1173  0.1148
    9SAPS    HB 1084   4.106   3.852   6.833  0.1786  0.0055 -0.2964
    9SAPS    C2 1085   3.881   3.828   6.826 -0.6733  0.9227 -0.0984
    9SAPS    HS 1086   3.807   3.860   6.903 -1.3693  0.5907 -0.6236
    9SAPS   O21 1087   3.872   3.685   6.824  0.1561  0.1986  0.0471
    9SAPS   C21 1088   3.754   3.632   6.820 -0.2402  0.2095 -0.3463
    9SAPS   O22 1089   3.651   3.686   6.850  0.3457  0.3182  0.0534
    9SAPS   C22 1090   3.772   3.491   6.760 -0.2564 -0.0715  0.1502
    9SAPS   H2R 1091   3.880   3.463   6.754 -0.6732 -2.0698  1.1439
    9SAPS   H2S 1092   3.715   3.429   6.833  1.5210 -2.9056 -0.6936
    9SAPS    C3 1093   3.857   3.887   6.684 -0.2178  0.0233  0.0810
    9SAPS    HX 1094   3.946   3.862   6.624 -0.4213  0.1330 -0.2674
    9SAPS    HY 1095   3.853   3.998   6.691 -1.5558 -0.0792  1.7934
    9SAPS   O31 1096   3.750   3.829   6.609  0.9434  0.1997 -0.4133
    9SAPS   C31 1097   3.639   3.887   6.621  0.6725  0.2324  0.9076
    9SAPS   O32 1098   3.619   3.978   6.699 -0.9401  0.2840 -0.3518
    9SAPS   C32 1099   3.538   3.827   6.519 -0.4255  0.4735 -0.1416
    9SAPS   H2X 1100   3.444   3.794   6.568 -1.1679  2.5379 -0.0692
    9SAPS   H2Y 1101   3.582   3.737   6.471 -0.0052 -1.5495  3.6484
    9SAPS   C23 1102   3.711   3.472   6.620 -0.3435 -0.6685  0.2051
    9SAPS   H3R 1103   3.771   3.533   6.550 -0.3804 -2.8062 -1.7973
    9SAPS   H3S 1104   3.604   3.503   6.619 -0.5482 -1.3065  0.9755
    9SAPS   C24 1105   3.723   3.329   6.573 -0.0656  0.0133  0.5022
    9SAPS   H4R 1106   3.807   3.274   6.621  0.6363  1.5161  1.0577
    9SAPS   H4S 1107   3.767   3.324   6.471 -0.8220 -2.1185  0.2282
    9SAPS   C25 1108   3.591   3.252   6.571 -0.5403  0.4428 -0.2146
    9SAPS   H5R 1109   3.564   3.220   6.673  1.7770  1.6278  0.8547
    9SAPS   C26 1110   3.517   3.221   6.462  0.2838 -0.8067 -0.3861
    9SAPS   H6R 1111   3.413   3.188   6.476  0.0416  0.8342  2.0905
    9SAPS   C27 1112   3.548   3.249   6.319 -0.3783  0.3483 -0.4975
    9SAPS   H7R 1113   3.514   3.153   6.274  0.1763 -0.9650  1.7084
    9SAPS   H7S 1114   3.655   3.267   6.296 -0.1817 -0.2342 -0.0732
    9SAPS   C28 1115   3.467   3.364   6.266 -0.2172 -0.2996 -0.2398
    9SAPS   H8R 1116   3.407   3.418   6.341 -3.0415 -0.9246 -1.8965
    9SAPS   C29 1117   3.449   3.393   6.138  0.3413 -0.0228 -0.0745
    9SAPS   H9R 1118   3.385   3.478   6.109  0.2917 -0.9418 -2.9928
    9SAPS  C210 1119   3.507   3.317   6.015  1.1032 -0.3497 -0.3134
    9SAPS  H10R 1120   3.577   3.241   6.055  0.7914  0.0803  1.1143
    9SAPS  H10S 1121   3.581   3.390   5.976  0.7260 -0.6957 -1.7483
    9SAPS  C211 1122   3.410   3.266   5.909 -0.5815  0.0644 -0.2419
    9SAPS  H11R 1123   3.316   3.223   5.947 -1.7394  0.5009 -2.4745
    9SAPS  C212 1124   3.429   3.276   5.778 -0.4315  0.8506  0.5050
    9SAPS  H12R 1125   3.365   3.219   5.709  0.5974  1.3409 -0.9024
    9SAPS  C213 1126   3.558   3.328   5.714 -0.1867  0.5632 -0.1806
    9SAPS  H13R 1127   3.609   3.412   5.765  0.1838  1.5418 -2.0820
    9SAPS  H13S 1128   3.543   3.366   5.611  2.0795  0.5519 -0.5662
    9SAPS  C214 1129   3.658   3.210   5.707  0.1275 -0.9118 -0.0567
    9SAPS  H14R 1130   3.723   3.195   5.795 -1.5894  2.2035  1.9162
    9SAPS  C215 1131   3.679   3.129   5.599  0.2407  0.8096  0.2150
    9SAPS  H15R 1132   3.750   3.045   5.609 -0.2721  0.0284 -2.1363
    9SAPS  C216 1133   3.608   3.142   5.469  0.3138 -0.1268 -0.2060
    9SAPS  H16R 1134   3.501   3.168   5.479 -0.1030 -1.4802 -0.8577
    9SAPS  H16S 1135   3.604   3.038   5.428 -0.1495 -0.2240  0.0864
    9SAPS  C217 1136   3.676   3.223   5.364 -1.2380 -0.4775 -0.7259
    9SAPS  H17R 1137   3.786   3.204   5.356 -1.1082 -0.5904  1.1184
    9SAPS  H17S 1138   3.662   3.326   5.403 -0.4872 -1.5697  2.7146
    9SAPS  C218 1139   3.615   3.196   5.226 -0.2292  0.6412 -0.0796
    9SAPS  H18R 1140   3.507   3.222   5.229 -0.6082 -0.4695 -2.0197
    9SAPS  H18S 1141   3.614   3.088   5.202 -0.0928  0.6767 -0.2499
    9SAPS  C219 1142   3.670   3.261   5.107 -0.0655  0.4007  0.1688
    9SAPS  H19R 1143   3.642   3.368   5.099 -0.0277  0.3587 -0.6688
    9SAPS  H19S 1144   3.618   3.215   5.020 -3.5993 -2.0662  3.2550
    9SAPS  C220 1145   3.828   3.257   5.096 -0.4772 -0.1403 -0.4427
    9SAPS  H20R 1146   3.859   3.320   5.010 -1.7098  2.7967  1.1379
    9SAPS  H20S 1147   3.870   3.154   5.099 -0.6571 -0.2112 -0.3243
    9SAPS  H20T 1148   3.865   3.320   5.180 -0.2770  0.4312 -0.9524
    9SAPS   C33 1149   3.489   3.926   6.411 -0.8611 -0.6742  0.2285
    9SAPS   H3X 1150   3.555   3.938   6.323  2.4298 -0.4306  2.5417
    9SAPS   H3Y 1151   3.497   4.028   6.457 -1.0589 -1.5263  2.2706
    9SAPS   C34 1152   3.353   3.899   6.363  0.2380  0.1550  0.5066
    9SAPS   H4X 1153   3.292   3.895   6.456 -0.6676 -0.7029 -0.0987
    9SAPS   H4Y 1154   3.343   3.800   6.314 -2.6729 -0.3270  1.8759
    9SAPS   C35 1155   3.286   4.012   6.278  0.1742 -0.6021 -0.0733
    9SAPS   H5X 1156   3.281   4.113   6.325  0.1478 -0.4707 -0.3587
    9SAPS   H5Y 1157   3.183   3.972   6.269  1.2219 -3.5890 -0.1704
    9SAPS   C36 1158   3.362   4.019   6.144  0.0256  0.0824 -0.1653
    9SAPS   H6X 1159   3.394   3.918   6.113  1.3577  0.2230  0.6607
    9SAPS   H6Y 1160   3.460   4.068   6.163 -0.4142  0.7800  0.3317
    9SAPS   C37 1161   3.287   4.094   6.035 -0.5537 -0.5456  0.5536
    9SAPS   H7X 1162   3.353   4.173   5.995 -0.5899 -1.3250 -1.1343
    9SAPS   H7Y 1163   3.189   4.136   6.068 -1.0791 -0.6298 -0.8360
    9SAPS   C38 1164   3.270   3.996   5.924  0.7556  0.9753 -0.9329
    9SAPS   H8X 1165   3.205   3.914   5.961  0.7422  0.7675 -1.4171
    9SAPS   H8Y 1166   3.354   3.938   5.882 -1.2684 -1.0446 -2.4414
    9SAPS   C39 1167   3.196   4.055   5.797 -0.4149  0.3064 -0.0012
    9SAPS   H9X 1168   3.117   4.127   5.828  1.6013  2.4885  0.3317
    9SAPS   H9Y 1169   3.153   3.968   5.743  1.2060 -0.5882  0.1038
    9SAPS  C310 1170   3.287   4.113   5.697  0.2538  0.0452 -0.1664
    9SAPS  H10X 1171   3.355   4.033   5.660 -1.1991 -2.1012  1.5499
    9SAPS  H10Y 1172   3.340   4.199   5.743 -1.0072  2.2577 -2.5599
    9SAPS  C311 1173   3.214   4.179   5.579 -0.1518 -0.4589  0.3208
    9SAPS  H11X 1174   3.290   4.203   5.502 -1.9946  1.5507 -0.9673
    9SAPS  H11Y 1175   3.171   4.274   5.618 -2.4525 -0.6350 -1.5420
    9SAPS  C312 1176   3.107   4.102   5.509 -0.2260  0.2739 -0.2412
    9SAPS  H12X 1177   3.041   4.054   5.585 -1.5384 -1.8951 -2.5768
    9SAPS  H12Y 1178   3.160   4.023   5.451 -1.1953 -1.7459  1.4812
    9SAPS  C313 1179   3.023   4.190   5.412  0.2150  0.5946  0.5371
    9SAPS  H13X 1180   2.961   4.123   5.349  0.8186 -0.6593  1.2394
    9SAPS  H13Y 1181   3.088   4.248   5.342 -1.0847  0.0334 -1.2045
    9SAPS  C314 1182   2.927   4.280   5.484  0.3813 -0.1085  0.4383
    9SAPS  H14X 1183   2.982   4.341   5.559  2.2621 -0.5509 -0.5165
    9SAPS  H14Y 1184   2.845   4.218   5.524 -1.7968  0.9418 -2.1054
    9SAPS  C315 1185   2.872   4.394   5.395  0.1060  0.2151 -0.2081
    9SAPS  H15X 1186   2.957   4.449   5.349 -1.6331  3.9096  0.5319
    9SAPS  H15Y 1187   2.820   4.460   5.469  0.8282 -0.1176  0.6172
    9SAPS  C316 1188   2.762   4.344   5.295  0.1986 -0.6035 -0.4193
    9SAPS  H16X 1189   2.688   4.283   5.351  0.4343 -0.4322  0.0834
    9SAPS  H16Y 1190   2.812   4.275   5.225 -0.8159 -2.0330  0.2082
    9SAPS  C317 1191   2.686   4.459   5.231 -0.1030 -0.2098 -0.1102
    9SAPS  H17X 1192   2.597   4.420   5.176 -0.3846  0.4568 -0.1423
    9SAPS  H17Y 1193   2.761   4.511   5.168  0.5981 -3.1643 -1.9117
    9SAPS  C318 1194   2.614   4.545   5.332  0.2052 -0.3177 -0.3202
    9SAPS  H18X 1195   2.516   4.580   5.292  0.5700 -0.7294 -1.5973
    9SAPS  H18Y 1196   2.681   4.631   5.353 -2.9246  1.8101  1.9772
    9SAPS  H18Z 1197   2.579   4.495   5.425  0.0635  0.8484  0.2764
   10SAPS     N 1198   2.672   2.926   7.155 -0.3490 -0.2238  0.0156
   10SAPS   HN1 1199   2.693   2.825   7.166 -0.5589 -0.2793 -0.0944
   10SAPS   HN2 1200   2.579   2.945   7.198 -0.3619 -1.1004  0.3866
   10SAPS   HN3 1201   2.659   2.953   7.055 -1.3242  1.6394  0.5909
   10SAPS   C12 1202   2.780   3.007   7.226 -0.0183 -0.0715 -0.4458
   10SAPS  H12A 1203   2.754   3.110   7.243 -0.2521 -0.4461  1.8383
   10SAPS   C13 1204   2.816   2.954   7.368  0.0462  0.5472  0.6282
   10SAPS  O13A 1205   2.751   2.851   7.415  0.4155  0.2551 -0.9298
   10SAPS  O13B 1206   2.909   3.011   7.432  0.3022 -0.1251  0.1584
   10SAPS   C11 1207   2.908   3.004   7.144  0.8243  0.7584  0.1328
   10SAPS  H11A 1208   2.988   3.073   7.179  2.3777 -0.8820 -0.0470
   10SAPS  H11B 1209   2.873   3.033   7.042 -0.3697 -1.1262 -0.0341
   10SAPS     P 1210   3.101   2.819   7.117  0.1886  0.1430 -0.1228
   10SAPS   O13 1211   3.198   2.905   7.192 -0.1454  0.0187 -0.3846
   10SAPS   O14 1212   3.117   2.671   7.138 -0.1911 -0.2062 -0.0960
   10SAPS   O12 1213   2.950   2.864   7.127 -0.8403  0.5561  0.4575
   10SAPS   O11 1214   3.125   2.842   6.960 -0.1038 -0.3000 -0.1998
   10SAPS    C1 1215   3.021   2.838   6.863  0.4359 -0.1511 -0.0487
   10SAPS    HA 1216   3.012   2.733   6.828 -0.5330 -0.7015  1.7578
   10SAPS    HB 1217   2.921   2.854   6.908  1.0006  2.0885  0.5360
   10SAPS    C2 1218   3.040   2.947   6.755  0.0473 -0.0917  0.3625
   10SAPS    HS 1219   2.949   2.951   6.692 -0.7715 -1.4744  1.3889
   10SAPS   O21 1220   3.157   2.928   6.685  0.4474 -0.1471 -0.0792
   10SAPS   C21 1221   3.155   2.837   6.586 -0.0947  0.0535  0.1183
   10SAPS   O22 1222   3.054   2.772   6.560  0.3021 -0.5833 -0.6875
   10SAPS   C22 1223   3.280   2.853   6.500  0.0352 -0.0960 -0.4789
   10SAPS   H2R 1224   3.350   2.902   6.571  1.2674  0.0291 -1.7354
   10SAPS   H2S 1225   3.318   2.752   6.473  0.5965 -0.1096  0.3367
   10SAPS    C3 1226   3.052   3.093   6.822 -0.3060  0.3159  0.3636
   10SAPS    HX 1227   3.148   3.085   6.878 -0.1418  0.4049  0.0941
   10SAPS    HY 1228   2.962   3.109   6.885 -0.0829  0.0108  0.7682
   10SAPS   O31 1229   3.055   3.189   6.709  0.3412 -0.4738  0.2739
   10SAPS   C31 1230   3.168   3.248   6.684  0.1623  0.1385  1.0441
   10SAPS   O32 1231   3.280   3.221   6.728  0.3318  0.3567  0.9077
   10SAPS   C32 1232   3.143   3.386   6.607 -0.0229 -0.8976 -0.3814
   10SAPS   H2X 1233   3.234   3.449   6.614 -1.5575  1.2852  2.0366
   10SAPS   H2Y 1234   3.061   3.438   6.662  0.7494 -0.7097  0.6254
   10SAPS   C23 1235   3.258   2.936   6.368 -0.0722  0.8197 -0.5742
   10SAPS   H3R 1236   3.362   2.967   6.342  1.1716 -0.7353  2.1162
   10SAPS   H3S 1237   3.196   3.027   6.384 -1.8832 -0.1291 -1.7893
   10SAPS   C24 1238   3.192   2.843   6.257 -0.7885  0.0542  0.5765
   10SAPS   H4R 1239   3.150   2.920   6.189  1.1092  2.4777  1.9758
   10SAPS   H4S 1240   3.098   2.791   6.285 -1.0848 -1.3854 -2.7418
   10SAPS   C25 1241   3.291   2.746   6.196 -0.1707  0.0114 -0.7313
   10SAPS   H5R 1242   3.316   2.657   6.256  0.5376  2.2055  2.5191
   10SAPS   C26 1243   3.345   2.750   6.071 -0.3479 -0.2086 -0.3821
   10SAPS   H6R 1244   3.411   2.667   6.040 -1.2435 -1.6290  1.3197
   10SAPS   C27 1245   3.328   2.861   5.970  0.1347  0.0815 -0.3267
   10SAPS   H7R 1246   3.307   2.957   6.022 -0.3435  0.1527 -0.6436
   10SAPS   H7S 1247   3.245   2.827   5.904  1.3853  0.2010 -2.0495
   10SAPS   C28 1248   3.448   2.879   5.884 -0.0107  0.5968 -0.5171
   10SAPS   H8R 1249   3.518   2.951   5.929  0.7289 -1.0948  1.1592
   10SAPS   C29 1250   3.480   2.816   5.766  0.4732  0.3998  0.2504
   10SAPS   H9R 1251   3.572   2.853   5.718  0.1457 -0.3381 -0.9898
   10SAPS  C210 1252   3.401   2.706   5.687  0.5146  0.1051  0.5236
   10SAPS  H10R 1253   3.327   2.740   5.611  0.9722  1.1784  0.5401
   10SAPS  H10S 1254   3.337   2.649   5.757 -2.6980  0.9886 -1.4354
   10SAPS  C211 1255   3.492   2.612   5.624 -0.0866  0.2961 -0.0449
   10SAPS  H11R 1256   3.517   2.528   5.690 -2.8910 -0.9773 -0.4569
   10SAPS  C212 1257   3.527   2.607   5.490  0.2465  0.0885 -0.2234
   10SAPS  H12R 1258   3.582   2.522   5.446 -0.2816 -0.7820  0.7489
   10SAPS  C213 1259   3.493   2.698   5.376  0.0972  0.3006  0.1116
   10SAPS  H13R 1260   3.583   2.714   5.312 -1.1211 -0.9804 -2.0249
   10SAPS  H13S 1261   3.465   2.796   5.419  1.1683  0.5919  0.1767
   10SAPS  C214 1262   3.371   2.662   5.295  0.8491  0.5224 -0.1745
   10SAPS  H14R 1263   3.291   2.610   5.349  0.8085 -0.5589 -1.2049
   10SAPS  C215 1264   3.340   2.684   5.166  1.0410  0.2971  0.9295
   10SAPS  H15R 1265   3.246   2.662   5.114  2.3639  0.8210 -1.8856
   10SAPS  C216 1266   3.429   2.754   5.069  0.0409 -0.2235 -0.5150
   10SAPS  H16R 1267   3.523   2.792   5.114  0.0494 -0.7506 -0.0751
   10SAPS  H16S 1268   3.379   2.847   5.034  0.1565  0.3644  0.8104
   10SAPS  C217 1269   3.482   2.678   4.949 -0.7075  0.6697  0.4583
   10SAPS  H17R 1270   3.541   2.750   4.889 -0.1466 -0.2985 -0.1975
   10SAPS  H17S 1271   3.391   2.643   4.894 -1.5584  0.6249  1.8485
   10SAPS  C218 1272   3.584   2.563   4.979  0.1795  0.7012  0.1721
   10SAPS  H18R 1273   3.526   2.484   5.031  1.7224 -0.4924  0.1486
   10SAPS  H18S 1274   3.659   2.609   5.046  0.5731 -1.8743  1.6247
   10SAPS  C219 1275   3.654   2.510   4.849 -0.2647 -0.1595 -0.4090
   10SAPS  H19R 1276   3.714   2.592   4.803 -3.2740  1.7093 -1.2772
   10SAPS  H19S 1277   3.580   2.479   4.772  0.8916  0.0124 -1.6421
   10SAPS  C220 1278   3.730   2.387   4.883  0.1253  0.1851 -0.4059
   10SAPS  H20R 1279   3.817   2.362   4.819  1.6710 -0.5135  1.8562
   10SAPS  H20S 1280   3.661   2.300   4.889  0.2101  0.1331 -0.1851
   10SAPS  H20T 1281   3.776   2.388   4.984 -1.8357  0.1624  0.5250
   10SAPS   C33 1282   3.104   3.380   6.457  0.0928  0.1030 -0.2390
   10SAPS   H3X 1283   2.998   3.349   6.445  0.7126 -1.7250 -1.6612
   10SAPS   H3Y 1284   3.169   3.300   6.415  0.9714 -0.8622  2.7224
   10SAPS   C34 1285   3.136   3.514   6.381  0.5632  0.2632 -1.0560
   10SAPS   H4X 1286   3.246   3.527   6.394  0.3403 -0.3049  2.2940
   10SAPS   H4Y 1287   3.078   3.602   6.414 -3.1169 -1.6269 -1.9379
   10SAPS   C35 1288   3.088   3.496   6.240 -0.4503 -0.3545  0.1715
   10SAPS   H5X 1289   2.978   3.483   6.236 -0.9121  2.7807  0.3064
   10SAPS   H5Y 1290   3.136   3.402   6.207  0.6912  0.1801  0.2642
   10SAPS   C36 1291   3.129   3.620   6.152  0.4952  0.4310 -0.6082
   10SAPS   H6X 1292   3.239   3.615   6.162  0.2641 -0.7109  2.0574
   10SAPS   H6Y 1293   3.093   3.717   6.191  1.1148  0.4601 -0.0937
   10SAPS   C37 1294   3.097   3.619   6.002  0.2833 -0.1061  0.1916
   10SAPS   H7X 1295   3.138   3.714   5.961 -1.0791  0.5673  0.3460
   10SAPS   H7Y 1296   2.988   3.616   5.984  0.5876 -1.0129 -1.8364
   10SAPS   C38 1297   3.164   3.507   5.917  0.6632  0.3015  1.2829
   10SAPS   H8X 1298   3.147   3.410   5.968 -1.4772 -0.1911 -0.2449
   10SAPS   H8Y 1299   3.275   3.517   5.924  0.8609 -0.0107 -0.7075
   10SAPS   C39 1300   3.122   3.505   5.769  0.0838 -0.1573  0.4374
   10SAPS   H9X 1301   3.013   3.483   5.766 -0.0439  0.5173 -0.5844
   10SAPS   H9Y 1302   3.167   3.419   5.714  0.7780  1.1728 -1.1541
   10SAPS  C310 1303   3.139   3.637   5.687  0.6553  0.6060 -0.2635
   10SAPS  H10X 1304   3.248   3.656   5.681  0.7010  0.0158 -1.5580
   10SAPS  H10Y 1305   3.083   3.718   5.738 -0.2744 -0.3133  0.2229
   10SAPS  C311 1306   3.084   3.618   5.539  0.0635  0.0072 -0.4099
   10SAPS  H11X 1307   2.991   3.558   5.552 -0.0333  0.3265  0.4986
   10SAPS  H11Y 1308   3.164   3.560   5.490  1.2798  0.0952  1.3632
   10SAPS  C312 1309   3.048   3.743   5.449  0.0790  0.1586 -0.3796
   10SAPS  H12X 1310   3.129   3.759   5.375 -0.9912  1.5948 -1.2856
   10SAPS  H12Y 1311   3.038   3.838   5.507  0.1076 -0.7583  1.2076
   10SAPS  C313 1312   2.927   3.715   5.359 -0.3889 -0.6570  0.7260
   10SAPS  H13X 1313   2.836   3.709   5.421  0.8198 -2.0020  2.4731
   10SAPS  H13Y 1314   2.933   3.610   5.322 -1.5742 -0.8989  1.1883
   10SAPS  C314 1315   2.923   3.816   5.240  0.8604  0.3646  0.1096
   10SAPS  H14X 1316   3.029   3.822   5.207  0.3039  1.4776 -1.6172
   10SAPS  H14Y 1317   2.890   3.914   5.283  2.2248  0.3196  1.3533
   10SAPS  C315 1318   2.835   3.780   5.113 -0.1704 -0.0985  0.6037
   10SAPS  H15X 1319   2.727   3.802   5.130 -0.2123  0.3026 -0.1488
   10SAPS  H15Y 1320   2.837   3.669   5.103 -2.7954 -0.0721 -1.0672
   10SAPS  C316 1321   2.869   3.848   4.986  0.1060 -0.2862  0.4733
   10SAPS  H16X 1322   2.980   3.848   4.978  0.0561  0.0384 -0.3641
   10SAPS  H16Y 1323   2.843   3.956   4.992  1.7299  0.1195  0.8240
   10SAPS  C317 1324   2.808   3.788   4.856 -0.1959  0.1171  0.2033
   10SAPS  H17X 1325   2.698   3.773   4.849  0.1625 -2.1817 -1.7746
   10SAPS  H17Y 1326   2.848   3.684   4.851 -0.2964 -0.0809  2.3730
   10SAPS  C318 1327   2.859   3.866   4.733  0.3882  0.1711 -0.3259
   10SAPS  H18X 1328   2.969   3.872   4.719  0.6094 -0.4599  0.9737
   10SAPS  H18Y 1329   2.809   3.962   4.707  2.1976  0.2490 -4.0418
   10SAPS  H18Z 1330   2.816   3.814   4.644 -1.7623  0.4040  0.4981
   11SAPS     N 1331   5.516   2.131   2.292  0.4529 -0.1573  0.0307
   11SAPS   HN1 1332   5.437   2.146   2.358 -1.5392 -0.9697 -2.0339
   11SAPS   HN2 1333   5.492   2.050   2.231 -0.8029 -0.2472  0.6148
   11SAPS   HN3 1334   5.599   2.126   2.355 -0.1523  1.9109  1.0664
   11SAPS   C12 1335   5.538   2.243   2.198 -0.6125  0.4412  0.3045
   11SAPS  H12A 1336   5.603   2.207   2.120 -0.2846  3.1465 -0.7575
   11SAPS   C13 1337   5.408   2.290   2.122  0.8248  0.2507  0.0131
   11SAPS  O13A 1338   5.303   2.243   2.162 -0.0156 -0.7295  0.4973
   11SAPS  O13B 1339   5.419   2.378   2.027  0.0628 -0.5081 -0.4882
   11SAPS   C11 1340   5.611   2.363   2.267  1.0020  0.0712  0.3080
   11SAPS  H11A 1341   5.545   2.373   2.356  0.2975 -1.3919 -0.0262
   11SAPS  H11B 1342   5.610   2.449   2.198  2.5109  0.5402  0.8384
   11SAPS     P 1343   5.808   2.412   2.421  0.2899  0.1571 -0.1796
   11SAPS   O13 1344   5.908   2.323   2.485  0.1906  0.0548  0.0452
   11SAPS   O14 1345   5.858   2.540   2.367  0.5829 -0.5132  0.4579
   11SAPS   O12 1346   5.741   2.336   2.299 -0.4490  0.3538  0.3781
   11SAPS   O11 1347   5.697   2.453   2.527 -0.0363  0.3076  0.2295
   11SAPS    C1 1348   5.667   2.379   2.645  0.0748  0.1066 -0.1566
   11SAPS    HA 1349   5.561   2.346   2.646  0.3607 -0.8307  0.0854
   11SAPS    HB 1350   5.728   2.287   2.647  0.3158  0.1532 -2.5154
   11SAPS    C2 1351   5.689   2.446   2.778 -0.2213 -0.2154 -0.3702
   11SAPS    HS 1352   5.651   2.550   2.774  2.7235  1.0159  0.7323
   11SAPS   O21 1353   5.833   2.443   2.804 -0.1844  0.4528 -0.6210
   11SAPS   C21 1354   5.885   2.561   2.838  0.5618 -0.2112  0.0248
   11SAPS   O22 1355   5.820   2.664   2.862  0.5396  0.3078 -0.3130
   11SAPS   C22 1356   6.036   2.550   2.846 -0.6115  0.6166 -0.3978
   11SAPS   H2R 1357   6.061   2.654   2.815 -1.1677  0.2908 -2.0331
   11SAPS   H2S 1358   6.069   2.515   2.946  0.4273  0.9701 -0.6030
   11SAPS    C3 1359   5.609   2.364   2.893  0.3170 -0.2582  0.1983
   11SAPS    HX 1360   5.619   2.254   2.880 -1.5454 -0.4295 -0.0652
   11SAPS    HY 1361   5.502   2.392   2.889  0.7418  1.5014  0.4755
   11SAPS   O31 1362   5.648   2.405   3.023 -1.1328 -0.6198 -0.9493
   11SAPS   C31 1363   5.606   2.526   3.068  0.6216  0.0820  0.4686
   11SAPS   O32 1364   5.539   2.608   3.011  0.1461 -0.0815  0.3903
   11SAPS   C32 1365   5.652   2.542   3.210 -0.9649 -0.4651 -0.6630
   11SAPS   H2X 1366   5.677   2.650   3.223  1.0679 -1.0959  1.3748
   11SAPS   H2Y 1367   5.738   2.475   3.231 -0.5779  0.2813  0.1656
   11SAPS   C23 1368   6.086   2.450   2.737 -0.0985 -0.0168  0.1769
   11SAPS   H3R 1369   6.046   2.488   2.640  1.2082  0.2067 -0.2970
   11SAPS   H3S 1370   6.059   2.343   2.751  2.1361 -0.6790 -0.0959
   11SAPS   C24 1371   6.242   2.439   2.729  0.4620 -0.1107 -0.6870
   11SAPS   H4R 1372   6.271   2.368   2.649 -1.2352  1.4005 -2.7513
   11SAPS   H4S 1373   6.280   2.396   2.824 -0.4312  0.2672 -0.1441
   11SAPS   C25 1374   6.284   2.581   2.683  0.5230  0.5075  0.2616
   11SAPS   H5R 1375   6.211   2.622   2.611 -1.2565 -1.3402  0.9055
   11SAPS   C26 1376   6.377   2.659   2.734  0.8886  0.5268 -0.4247
   11SAPS   H6R 1377   6.367   2.763   2.698 -0.9157 -0.0130 -1.6397
   11SAPS   C27 1378   6.464   2.627   2.856 -0.5390 -0.1937 -0.1206
   11SAPS   H7R 1379   6.478   2.519   2.875 -1.1207 -0.2636 -0.0551
   11SAPS   H7S 1380   6.411   2.667   2.945 -2.4237 -1.0119 -0.8289
   11SAPS   C28 1381   6.597   2.698   2.846  0.0565 -0.2729  0.1948
   11SAPS   H8R 1382   6.631   2.696   2.742  2.9314  2.6977  0.9323
   11SAPS   C29 1383   6.673   2.750   2.944 -0.3903  0.5743 -0.4732
   11SAPS   H9R 1384   6.759   2.810   2.908 -1.3822  1.5781 -1.2236
   11SAPS  C210 1385   6.650   2.742   3.090 -0.1602  0.0658  0.1875
   11SAPS  H10R 1386   6.748   2.755   3.141  0.2428 -0.3716 -0.4640
   11SAPS  H10S 1387   6.609   2.642   3.117  0.5622 -0.5700 -0.9632
   11SAPS  C211 1388   6.559   2.859   3.128  0.1123  0.9577  0.1011
   11SAPS  H11R 1389   6.562   2.951   3.068 -3.5543  0.7425 -0.6412
   11SAPS  C212 1390   6.473   2.853   3.232  0.5905  0.4326 -0.4114
   11SAPS  H12R 1391   6.404   2.938   3.241 -1.2376 -0.8168 -1.8981
   11SAPS  C213 1392   6.443   2.736   3.323  0.2401 -0.0654  0.6206
   11SAPS  H13R 1393   6.434   2.637   3.274  2.3852 -0.4591  0.9246
   11SAPS  H13S 1394   6.344   2.756   3.368 -0.1637  3.1479 -1.3200
   11SAPS  C214 1395   6.546   2.708   3.423  0.2387 -1.3004 -0.5116
   11SAPS  H14R 1396   6.636   2.662   3.379 -2.1578 -3.3330 -3.7350
   11SAPS  C215 1397   6.529   2.707   3.559 -0.0159  0.8721  0.9815
   11SAPS  H15R 1398   6.611   2.672   3.624 -0.5851 -0.4673  1.0061
   11SAPS  C216 1399   6.411   2.750   3.634  0.1208 -0.1041  0.1440
   11SAPS  H16R 1400   6.347   2.820   3.577  0.4096  1.4669  1.6438
   11SAPS  H16S 1401   6.439   2.813   3.721  1.8348  0.6444 -0.8975
   11SAPS  C217 1402   6.329   2.631   3.676  0.1243 -0.3587  0.5428
   11SAPS  H17R 1403   6.290   2.572   3.590 -0.8983 -2.3873  2.2850
   11SAPS  H17S 1404   6.243   2.658   3.742 -0.8631 -2.5472  0.2292
   11SAPS  C218 1405   6.389   2.521   3.763 -0.7033  0.0088  0.1072
   11SAPS  H18R 1406   6.487   2.483   3.728 -1.4338 -3.0289  1.0099
   11SAPS  H18S 1407   6.320   2.434   3.749 -2.2324  0.9561  1.4829
   11SAPS  C219 1408   6.388   2.552   3.914  1.2466  0.1675  0.0925
   11SAPS  H19R 1409   6.295   2.601   3.950  0.1906 -0.9194 -1.0209
   11SAPS  H19S 1410   6.461   2.634   3.932 -0.7981  2.4870 -1.4305
   11SAPS  C220 1411   6.412   2.429   3.999 -0.0980  0.0645 -0.0059
   11SAPS  H20R 1412   6.426   2.457   4.105 -1.7992  2.0595 -0.2568
   11SAPS  H20S 1413   6.505   2.371   3.977  0.1066  0.1417  0.6313
   11SAPS  H20T 1414   6.322   2.364   4.000  0.3793 -0.6143 -0.3959
   11SAPS   C33 1415   5.552   2.512   3.323 -0.1417  0.1926 -0.1824
   11SAPS   H3X 1416   5.540   2.402   3.323 -3.6581  0.4749 -1.0215
   11SAPS   H3Y 1417   5.455   2.554   3.288  0.2350  0.9283 -0.3695
   11SAPS   C34 1418   5.595   2.579   3.455  0.0213  0.2986  0.6210
   11SAPS   H4X 1419   5.616   2.688   3.445  0.3825  0.0939 -1.1961
   11SAPS   H4Y 1420   5.693   2.533   3.482  0.1860  1.2422  1.6970
   11SAPS   C35 1421   5.501   2.525   3.564 -0.6075 -0.8354 -0.8909
   11SAPS   H5X 1422   5.496   2.414   3.554  0.1230 -1.1445  1.4928
   11SAPS   H5Y 1423   5.400   2.568   3.551 -0.6062  0.2625  1.8950
   11SAPS   C36 1424   5.557   2.558   3.706  0.3533 -0.5171  0.5009
   11SAPS   H6X 1425   5.545   2.669   3.708  1.8941 -0.3326  0.7327
   11SAPS   H6Y 1426   5.664   2.537   3.724  0.1682 -0.3437  1.9853
   11SAPS   C37 1427   5.467   2.502   3.820 -0.0538  0.4177 -0.2039
   11SAPS   H7X 1428   5.479   2.392   3.815 -2.4522  0.1638 -2.1340
   11SAPS   H7Y 1429   5.364   2.524   3.785  0.2196  2.7285  0.2768
   11SAPS   C38 1430   5.483   2.560   3.965 -0.0244 -0.2843 -0.5485
   11SAPS   H8X 1431   5.415   2.644   3.990 -0.1450 -0.6444  0.3345
   11SAPS   H8Y 1432   5.585   2.606   3.965 -0.5928  1.0298  0.4269
   11SAPS   C39 1433   5.476   2.466   4.080 -0.1389 -0.1839  0.2397
   11SAPS   H9X 1434   5.546   2.379   4.076 -1.6369 -1.4647  0.5730
   11SAPS   H9Y 1435   5.373   2.425   4.084  0.0140 -0.8396 -1.5665
   11SAPS  C310 1436   5.507   2.537   4.208 -0.7427 -0.1326  0.0449
   11SAPS  H10X 1437   5.431   2.609   4.243 -2.4189 -2.1760  0.8057
   11SAPS  H10Y 1438   5.603   2.589   4.183 -0.3857 -1.1526 -0.7681
   11SAPS  C311 1439   5.553   2.446   4.316  0.4638 -0.0233  0.6331
   11SAPS  H11X 1440   5.609   2.357   4.280 -1.3469 -1.2548  0.7454
   11SAPS  H11Y 1441   5.455   2.414   4.357 -0.6587  0.3147 -1.6409
   11SAPS  C312 1442   5.628   2.508   4.433  0.3943  0.2017  0.1602
   11SAPS  H12X 1443   5.579   2.591   4.489  1.0494 -0.4863  1.8058
   11SAPS  H12Y 1444   5.717   2.560   4.389  1.7349 -1.3634  0.9307
   11SAPS  C313 1445   5.679   2.407   4.532 -0.0142 -0.0194 -0.7103
   11SAPS  H13X 1446   5.777   2.364   4.503  0.2057  0.2178 -0.3311
   11SAPS  H13Y 1447   5.616   2.316   4.542  2.2448 -1.5014  1.3246
   11SAPS  C314 1448   5.680   2.457   4.676  0.1519 -0.3091 -0.1758
   11SAPS  H14X 1449   5.592   2.518   4.705 -1.3304 -1.9429 -1.0855
   11SAPS  H14Y 1450   5.770   2.522   4.676  0.4002 -0.6495 -0.4204
   11SAPS  C315 1451   5.707   2.349   4.787 -0.0083  0.2441  0.1384
   11SAPS  H15X 1452   5.809   2.304   4.779  0.7147  1.7436  0.4802
   11SAPS  H15Y 1453   5.628   2.272   4.781  1.2298 -1.1074  0.4857
   11SAPS  C316 1454   5.707   2.406   4.928 -0.7298 -0.0930  0.1002
   11SAPS  H16X 1455   5.614   2.461   4.952  0.3585  0.5083  3.5464
   11SAPS  H16Y 1456   5.787   2.484   4.926 -0.8396  0.0226 -1.5373
   11SAPS  C317 1457   5.740   2.294   5.027  0.3412  0.0882 -0.5573
   11SAPS  H17X 1458   5.821   2.225   4.995  0.1189 -0.8021  0.7129
   11SAPS  H17Y 1459   5.648   2.231   5.032  0.3914  0.0470 -0.0823
   11SAPS  C318 1460   5.762   2.339   5.173 -0.1217 -0.6340 -0.5865
   11SAPS  H18X 1461   5.845   2.412   5.176 -2.7612  2.5629 -0.0754
   11SAPS  H18Y 1462   5.787   2.254   5.240 -1.8798  1.0407  2.3957
   11SAPS  H18Z 1463   5.678   2.401   5.211  0.3771 -0.1087 -0.3282
   12SAPS     N 1464   5.102   2.350   2.327  0.0735  0.2247 -0.0532
   12SAPS   HN1 1465   5.024   2.404   2.284  1.7724  3.5672  0.7169
   12SAPS   HN2 1466   5.183   2.334   2.263  0.5760 -2.8795  1.1822
   12SAPS   HN3 1467   5.060   2.257   2.345  0.4560 -0.5724 -2.8266
   12SAPS   C12 1468   5.161   2.423   2.439  0.3167  0.1007 -0.2122
   12SAPS  H12A 1469   5.087   2.411   2.516 -0.6003 -0.8739 -1.2254
   12SAPS   C13 1470   5.286   2.361   2.505  0.3507  0.5906  0.3849
   12SAPS  O13A 1471   5.341   2.260   2.463 -0.0798 -0.7965  0.4157
   12SAPS  O13B 1472   5.335   2.425   2.604 -0.3523 -0.1266 -0.5913
   12SAPS   C11 1473   5.165   2.577   2.409 -0.5363 -0.0295 -0.2408
   12SAPS  H11A 1474   5.235   2.584   2.324  0.4147  2.2652  0.6659
   12SAPS  H11B 1475   5.203   2.630   2.499  1.2473 -0.9650 -0.4048
   12SAPS     P 1476   4.934   2.672   2.488 -0.1967  0.0702  0.3611
   12SAPS   O13 1477   4.987   2.803   2.521 -0.0540 -0.3032 -0.6747
   12SAPS   O14 1478   4.796   2.660   2.422 -0.5073  0.1499 -0.2375
   12SAPS   O12 1479   5.029   2.615   2.376  0.9911 -0.3872 -0.8757
   12SAPS   O11 1480   4.943   2.573   2.609  0.1686  0.0806  0.2869
   12SAPS    C1 1481   4.840   2.586   2.710  0.7395  0.3434  0.8266
   12SAPS    HA 1482   4.863   2.668   2.782 -0.7329  0.8655  0.7338
   12SAPS    HB 1483   4.740   2.607   2.665  0.6778 -3.5614 -1.3039
   12SAPS    C2 1484   4.816   2.452   2.785  0.1049 -0.4137  0.0419
   12SAPS    HS 1485   4.725   2.467   2.846 -0.9839 -0.9605 -1.3982
   12SAPS   O21 1486   4.927   2.411   2.866 -0.0206  0.2776 -0.3743
   12SAPS   C21 1487   4.930   2.476   2.984 -0.7440  0.1710 -0.7170
   12SAPS   O22 1488   4.855   2.556   3.028  0.1533  0.2730  0.4220
   12SAPS   C22 1489   5.065   2.439   3.056 -0.2129  0.1410 -0.6138
   12SAPS   H2R 1490   5.101   2.342   3.016  3.5228 -0.2569  2.9937
   12SAPS   H2S 1491   5.127   2.526   3.025 -0.3793  0.3637 -0.3325
   12SAPS    C3 1492   4.776   2.347   2.677  0.3677 -0.3525  0.8061
   12SAPS    HX 1493   4.869   2.339   2.615 -1.1272  0.7302 -1.7323
   12SAPS    HY 1494   4.701   2.395   2.611  1.1698 -0.0596  0.0808
   12SAPS   O31 1495   4.742   2.212   2.723  0.1384 -0.1670 -0.0207
   12SAPS   C31 1496   4.625   2.207   2.795 -0.8035 -1.0178 -0.2776
   12SAPS   O32 1497   4.563   2.310   2.826 -0.0300  0.5417  0.4845
   12SAPS   C32 1498   4.604   2.058   2.820  0.0409 -0.2747 -0.9545
   12SAPS   H2X 1499   4.706   2.014   2.824  0.2581  0.2819  0.4814
   12SAPS   H2Y 1500   4.561   2.017   2.726  0.8251 -1.1313 -0.9604
   12SAPS   C23 1501   5.020   2.417   3.205  0.4624  0.3535 -0.0898
   12SAPS   H3R 1502   4.955   2.497   3.247  0.5659  0.8717 -0.9021
   12SAPS   H3S 1503   5.110   2.417   3.269  1.4035 -0.2267 -1.3849
   12SAPS   C24 1504   4.944   2.279   3.217  0.1175 -0.2141 -0.1433
   12SAPS   H4R 1505   4.872   2.282   3.132 -0.1357 -1.4207  0.0153
   12SAPS   H4S 1506   4.874   2.274   3.303 -1.5854 -1.7597 -1.5457
   12SAPS   C25 1507   5.040   2.165   3.188  0.5662 -0.0362 -0.1620
   12SAPS   H5R 1508   5.102   2.176   3.098  0.3384  0.6860 -0.2389
   12SAPS   C26 1509   5.068   2.061   3.267  0.4639  0.4657 -0.6819
   12SAPS   H6R 1510   5.148   1.998   3.227  0.4971  1.2559 -1.9306
   12SAPS   C27 1511   5.014   2.015   3.401  0.3071 -0.5214 -0.0976
   12SAPS   H7R 1512   4.908   2.047   3.403  0.8274  1.2434  1.0293
   12SAPS   H7S 1513   5.071   2.070   3.479  0.8869 -1.0916 -0.1124
   12SAPS   C28 1514   5.017   1.868   3.417 -0.4170  0.3143 -0.0951
   12SAPS   H8R 1515   5.009   1.806   3.326 -0.1681 -1.2516  0.9072
   12SAPS   C29 1516   5.048   1.808   3.529 -0.5058  0.0354 -0.4316
   12SAPS   H9R 1517   5.065   1.700   3.519 -1.5403 -0.0613 -1.3099
   12SAPS  C210 1518   5.082   1.862   3.662 -0.2570 -0.1038 -0.5792
   12SAPS  H10R 1519   4.989   1.867   3.722 -0.8239  0.2994 -1.4755
   12SAPS  H10S 1520   5.114   1.969   3.661  0.2101 -0.2235  0.2865
   12SAPS  C211 1521   5.188   1.790   3.735  0.4872  0.6839 -1.0564
   12SAPS  H11R 1522   5.246   1.722   3.670 -0.9548 -1.1704 -0.4864
   12SAPS  C212 1523   5.215   1.788   3.869  0.0924 -0.6322  0.2063
   12SAPS  H12R 1524   5.295   1.718   3.899  0.1097 -1.1646 -1.0441
   12SAPS  C213 1525   5.131   1.858   3.973  0.3605  0.0106  0.1343
   12SAPS  H13R 1526   5.105   1.785   4.052  3.2495 -0.0497  1.1149
   12SAPS  H13S 1527   5.037   1.900   3.930  0.9939  1.6675  0.3016
   12SAPS  C214 1528   5.214   1.967   4.045 -0.1013 -0.4376  0.5132
   12SAPS  H14R 1529   5.307   1.925   4.084  0.1356 -1.1358 -0.7442
   12SAPS  C215 1530   5.185   2.097   4.075 -0.5560 -0.2491  0.1652
   12SAPS  H15R 1531   5.271   2.161   4.101 -1.7345  0.7805  1.6548
   12SAPS  C216 1532   5.055   2.166   4.061 -0.2854 -0.4283 -0.1276
   12SAPS  H16R 1533   5.015   2.192   4.161  1.6311  0.8687  0.3621
   12SAPS  H16S 1534   4.976   2.102   4.017 -1.0711  1.2094 -1.2209
   12SAPS  C217 1535   5.076   2.296   3.978 -0.6374  0.7321  0.1067
   12SAPS  H17R 1536   5.171   2.343   4.012 -0.5401 -0.1680  1.1394
   12SAPS  H17S 1537   4.984   2.358   3.990 -0.6643  0.9035 -0.9229
   12SAPS  C218 1538   5.093   2.264   3.829  0.4552 -0.3090  0.0460
   12SAPS  H18R 1539   5.026   2.184   3.793 -0.2593  0.3000  0.0069
   12SAPS  H18S 1540   5.197   2.227   3.819  0.6039 -0.3755  1.6257
   12SAPS  C219 1541   5.081   2.392   3.733  0.1912  0.0413  0.1059
   12SAPS  H19R 1542   5.146   2.481   3.744  0.0345  0.8397 -3.8991
   12SAPS  H19S 1543   4.980   2.434   3.750 -0.2029 -0.3323 -1.1801
   12SAPS  C220 1544   5.095   2.349   3.593 -0.7173  0.2066 -0.0187
   12SAPS  H20R 1545   5.006   2.290   3.563 -1.6185  1.2559  0.5238
   12SAPS  H20S 1546   5.182   2.295   3.552 -1.3751 -0.4519 -0.5761
   12SAPS  H20T 1547   5.084   2.429   3.516 -0.7590 -1.5742 -1.9359
   12SAPS   C33 1548   4.532   2.044   2.953  0.1737 -0.3437  0.1317
   12SAPS   H3X 1549   4.490   1.941   2.955  0.9006 -0.6313  1.5198
   12SAPS   H3Y 1550   4.446   2.111   2.973 -0.5216 -1.4789  1.0860
   12SAPS   C34 1551   4.629   2.053   3.072  0.5170 -0.1029  0.5827
   12SAPS   H4X 1552   4.662   2.159   3.071 -1.3312  0.5075  0.9022
   12SAPS   H4Y 1553   4.716   1.985   3.054  0.1523  0.1640 -2.7867
   12SAPS   C35 1554   4.561   2.021   3.202  0.2037  0.7231 -0.5779
   12SAPS   H5X 1555   4.511   1.922   3.208  1.6391 -0.0613 -0.9669
   12SAPS   H5Y 1556   4.485   2.096   3.233  1.3225  0.4532  3.3722
   12SAPS   C36 1557   4.655   2.041   3.320 -0.1903  0.4541  0.2655
   12SAPS   H6X 1558   4.716   2.134   3.325 -0.1402  0.4777 -0.5857
   12SAPS   H6Y 1559   4.729   1.959   3.315  0.0415  0.6923 -0.3830
   12SAPS   C37 1560   4.578   2.026   3.453 -0.9490 -0.2256 -0.1273
   12SAPS   H7X 1561   4.509   1.940   3.435 -0.4450 -0.5045 -0.7330
   12SAPS   H7Y 1562   4.519   2.115   3.483 -1.7802 -1.0584  0.7986
   12SAPS   C38 1563   4.674   1.992   3.566 -0.1986 -0.0213  0.3588
   12SAPS   H8X 1564   4.748   2.073   3.581 -0.3809  0.5512 -1.5451
   12SAPS   H8Y 1565   4.726   1.895   3.550 -0.8112 -0.4219  0.7547
   12SAPS   C39 1566   4.595   1.974   3.696 -0.2920 -0.5775  0.3810
   12SAPS   H9X 1567   4.534   1.883   3.676  1.7975 -1.7644 -1.0857
   12SAPS   H9Y 1568   4.533   2.062   3.721  0.0563 -0.6636  1.6372
   12SAPS  C310 1569   4.686   1.951   3.818 -0.0985  0.7128  0.2452
   12SAPS  H10X 1570   4.749   2.038   3.847 -0.8009  1.3022  0.0391
   12SAPS  H10Y 1571   4.762   1.872   3.801 -0.2459  0.7828 -0.8255
   12SAPS  C311 1572   4.599   1.894   3.941  0.0394  0.5077 -0.0919
   12SAPS  H11X 1573   4.560   1.797   3.902  0.4803  0.8778 -1.5018
   12SAPS  H11Y 1574   4.522   1.971   3.960 -0.9807 -0.5379  0.1247
   12SAPS  C312 1575   4.685   1.873   4.062 -0.6748  0.6640  0.2798
   12SAPS  H12X 1576   4.784   1.831   4.032 -0.7833  1.6357 -1.5730
   12SAPS  H12Y 1577   4.634   1.806   4.134 -2.6091  1.2152 -0.5198
   12SAPS  C313 1578   4.699   2.007   4.138 -0.1443  0.3743  0.2347
   12SAPS  H13X 1579   4.601   2.029   4.185 -0.0979  1.2490 -0.0485
   12SAPS  H13Y 1580   4.713   2.088   4.063 -0.0652  1.1007  1.0205
   12SAPS  C314 1581   4.814   2.016   4.238 -0.0279  0.1883 -0.1226
   12SAPS  H14X 1582   4.817   2.122   4.270 -0.8057 -0.3944  2.0802
   12SAPS  H14Y 1583   4.910   1.983   4.193 -0.5308 -1.1509 -0.2561
   12SAPS  C315 1584   4.792   1.935   4.365  0.2125  0.2318  0.2680
   12SAPS  H15X 1585   4.879   1.959   4.431  0.6510  1.4662 -0.7211
   12SAPS  H15Y 1586   4.801   1.826   4.349  1.6476 -0.0827  2.6763
   12SAPS  C316 1587   4.667   1.979   4.431 -0.1925  0.8146  0.6090
   12SAPS  H16X 1588   4.583   1.968   4.360  2.0635  0.2062 -2.1454
   12SAPS  H16Y 1589   4.669   2.089   4.447 -0.7437  0.5139  3.1057
   12SAPS  C317 1590   4.613   1.904   4.552 -0.0968 -0.3465  0.7969
   12SAPS  H17X 1591   4.691   1.915   4.630  0.6126  0.1990  0.0350
   12SAPS  H17Y 1592   4.603   1.795   4.531 -2.1751  0.4969 -3.9404
   12SAPS  C318 1593   4.480   1.958   4.594  0.1844 -0.0847  0.1993
   12SAPS  H18X 1594   4.461   1.935   4.701  1.1798  2.4597  0.9930
   12SAPS  H18Y 1595   4.401   1.905   4.536 -0.3558  0.1345  0.7257
   12SAPS  H18Z 1596   4.474   2.067   4.577  1.4767 -0.0318 -0.0439
   13SAPS     N 1597   4.966   1.291   2.309  0.3229 -0.5708 -0.4674
   13SAPS   HN1 1598   5.070   1.289   2.313  0.2825 -0.8326  0.5980
   13SAPS   HN2 1599   4.953   1.377   2.252 -1.0525 -0.6033 -0.2209
   13SAPS   HN3 1600   4.914   1.285   2.398  0.1589  1.3670 -0.3854
   13SAPS   C12 1601   4.955   1.177   2.211 -0.3206 -0.2980  0.2028
   13SAPS  H12A 1602   4.850   1.160   2.191  0.0032 -0.8346 -1.1572
   13SAPS   C13 1603   5.021   1.188   2.074 -0.8861 -0.0486 -0.9106
   13SAPS  O13A 1604   5.080   1.296   2.040  0.5081  0.6495  0.0427
   13SAPS  O13B 1605   5.007   1.095   1.993 -0.0871  0.2970 -0.6712
   13SAPS   C11 1606   4.996   1.046   2.283 -0.3163  0.1414 -0.5626
   13SAPS  H11A 1607   5.106   1.041   2.295 -0.3787 -0.1442 -0.0778
   13SAPS  H11B 1608   4.971   0.965   2.211 -0.3750  0.0124 -0.3954
   13SAPS     P 1609   4.927   0.893   2.481 -0.6911 -0.2111 -0.0241
   13SAPS   O13 1610   4.817   0.884   2.584  0.0720 -0.4031  0.3456
   13SAPS   O14 1611   4.925   0.785   2.382  0.2472  0.7833  0.4658
   13SAPS   O12 1612   4.927   1.032   2.409 -0.2938 -0.1976  0.1082
   13SAPS   O11 1613   5.065   0.892   2.552  0.7126 -0.5957  0.0608
   13SAPS    C1 1614   5.116   1.024   2.599 -0.0243  0.3234 -0.4845
   13SAPS    HA 1615   5.119   1.091   2.510 -1.6901 -0.1421 -0.9191
   13SAPS    HB 1616   5.054   1.070   2.679 -0.0410 -1.5976  0.6536
   13SAPS    C2 1617   5.270   1.018   2.647 -0.0001  0.4320 -0.3219
   13SAPS    HS 1618   5.334   0.974   2.568  0.2499 -2.8178  1.5171
   13SAPS   O21 1619   5.271   0.918   2.752  0.2377 -0.0210  0.1823
   13SAPS   C21 1620   5.392   0.884   2.791  0.0108  0.0546  0.5067
   13SAPS   O22 1621   5.497   0.917   2.730  0.2582 -0.1419 -0.4155
   13SAPS   C22 1622   5.387   0.792   2.915 -0.7613 -0.3639  0.3448
   13SAPS   H2R 1623   5.346   0.696   2.876 -0.6882 -0.4738  0.5365
   13SAPS   H2S 1624   5.492   0.775   2.948  0.0817  1.8257 -1.0334
   13SAPS    C3 1625   5.316   1.158   2.699 -0.5197  0.1505  0.0653
   13SAPS    HX 1626   5.293   1.234   2.620  3.3071  0.4364 -0.9755
   13SAPS    HY 1627   5.427   1.160   2.696 -0.5162 -0.3817 -2.0377
   13SAPS   O31 1628   5.263   1.206   2.825 -0.2081  0.0519  0.1366
   13SAPS   C31 1629   5.168   1.301   2.818 -0.1946  0.1791  0.5643
   13SAPS   O32 1630   5.126   1.348   2.712  0.6260  0.2022 -0.9444
   13SAPS   C32 1631   5.138   1.355   2.957  1.0641  0.0549  0.0893
   13SAPS   H2X 1632   5.046   1.417   2.947 -0.4131 -1.9242  0.6137
   13SAPS   H2Y 1633   5.227   1.413   2.987  0.5229  0.2711  1.3227
   13SAPS   C23 1634   5.308   0.849   3.033  0.1825  0.2591  0.0569
   13SAPS   H3R 1635   5.200   0.860   3.014  0.2505  1.9762  0.5228
   13SAPS   H3S 1636   5.337   0.956   3.036 -0.2985  0.4067 -0.4049
   13SAPS   C24 1637   5.342   0.782   3.175 -0.6391  0.3994 -0.2217
   13SAPS   H4R 1638   5.298   0.681   3.162  3.4931 -1.5530 -0.5381
   13SAPS   H4S 1639   5.276   0.826   3.253  0.0031 -0.2786  0.7302
   13SAPS   C25 1640   5.487   0.768   3.218  0.0077  0.2595 -0.0056
   13SAPS   H5R 1641   5.549   0.718   3.143  0.9999  0.3850  0.7156
   13SAPS   C26 1642   5.540   0.800   3.337  0.9583 -0.5283 -0.0476
   13SAPS   H6R 1643   5.645   0.771   3.350  1.3668  0.3828 -1.1985
   13SAPS   C27 1644   5.485   0.866   3.459 -0.1357 -0.0229  0.2112
   13SAPS   H7R 1645   5.386   0.823   3.486  1.4118 -3.8261  0.3967
   13SAPS   H7S 1646   5.461   0.968   3.421 -0.5267 -0.7335 -1.5574
   13SAPS   C28 1647   5.569   0.848   3.585 -0.0451 -0.3043 -0.4231
   13SAPS   H8R 1648   5.551   0.746   3.620  0.4692  0.5173  2.5044
   13SAPS   C29 1649   5.663   0.928   3.640  0.2322  0.2383 -0.2545
   13SAPS   H9R 1650   5.712   0.871   3.720  0.7055 -1.0035 -1.3951
   13SAPS  C210 1651   5.701   1.071   3.601  0.1889 -0.1424 -0.3625
   13SAPS  H10R 1652   5.720   1.129   3.694 -1.7122  0.4809 -0.3012
   13SAPS  H10S 1653   5.611   1.120   3.557  0.9562  0.1281 -1.6911
   13SAPS  C211 1654   5.803   1.076   3.492 -0.1146  0.3254 -0.2875
   13SAPS  H11R 1655   5.812   0.982   3.434  0.8980  0.1959  0.0645
   13SAPS  C212 1656   5.894   1.175   3.466 -0.0277  0.9097 -0.7687
   13SAPS  H12R 1657   5.962   1.162   3.380 -0.4606 -1.5093 -0.8232
   13SAPS  C213 1658   5.901   1.304   3.548 -0.5654 -0.2879  0.3337
   13SAPS  H13R 1659   5.840   1.306   3.641  0.6561  1.3442  1.1532
   13SAPS  H13S 1660   5.847   1.383   3.492  1.7581 -0.5839 -2.5295
   13SAPS  C214 1661   6.047   1.352   3.574 -0.7583 -0.2995 -0.6036
   13SAPS  H14R 1662   6.092   1.321   3.669 -0.4978  0.7729 -0.3677
   13SAPS  C215 1663   6.128   1.410   3.487 -0.4070 -0.1964  0.1316
   13SAPS  H15R 1664   6.226   1.450   3.518 -0.3131  0.4910 -0.9622
   13SAPS  C216 1665   6.089   1.450   3.349 -0.2374  0.7540 -0.0844
   13SAPS  H16R 1666   6.053   1.358   3.298 -0.5685  0.7812  0.0926
   13SAPS  H16S 1667   6.186   1.464   3.298  0.0828  1.1445  0.6207
   13SAPS  C217 1668   6.006   1.577   3.321 -0.3454 -1.2708  0.1091
   13SAPS  H17R 1669   5.912   1.560   3.378 -1.0741 -2.6411 -1.4175
   13SAPS  H17S 1670   5.996   1.601   3.213  0.9874  0.8948  0.4109
   13SAPS  C218 1671   6.081   1.704   3.386  0.0292 -0.0817  0.0874
   13SAPS  H18R 1672   6.190   1.692   3.371 -0.0594 -1.0455  0.1425
   13SAPS  H18S 1673   6.068   1.687   3.495 -1.2638  0.1277 -0.0148
   13SAPS  C219 1674   6.032   1.843   3.348 -0.0375  0.3130 -0.0693
   13SAPS  H19R 1675   5.923   1.835   3.371  0.2345 -1.1974  0.7812
   13SAPS  H19S 1676   6.060   1.881   3.247  0.7448  0.0780  0.0589
   13SAPS  C220 1677   6.070   1.945   3.455 -0.1914 -0.6493 -0.2741
   13SAPS  H20R 1678   6.053   1.903   3.556 -1.1454 -0.4659 -0.3449
   13SAPS  H20S 1679   6.016   2.042   3.444  2.7334  1.3437  1.4457
   13SAPS  H20T 1680   6.174   1.983   3.447 -0.6546  0.3826 -2.0308
   13SAPS   C33 1681   5.144   1.245   3.065  0.1512  0.3010  0.5620
   13SAPS   H3X 1682   5.231   1.179   3.042  0.8005  1.0751  0.7476
   13SAPS   H3Y 1683   5.048   1.190   3.074  0.4047  0.2695  4.1657
   13SAPS   C34 1684   5.158   1.304   3.206  0.4296 -0.3366  0.0280
   13SAPS   H4X 1685   5.074   1.371   3.235  1.1759  0.5806  0.1271
   13SAPS   H4Y 1686   5.246   1.371   3.201 -0.4825  0.9020  0.0796
   13SAPS   C35 1687   5.170   1.194   3.311  0.2838  0.6415 -0.2403
   13SAPS   H5X 1688   5.251   1.126   3.279 -0.0207  0.6066 -0.9645
   13SAPS   H5Y 1689   5.075   1.136   3.306  0.3536  0.5786 -1.0454
   13SAPS   C36 1690   5.196   1.234   3.461 -0.3620 -0.5703 -0.1907
   13SAPS   H6X 1691   5.109   1.291   3.500  0.0162 -0.0696 -0.0697
   13SAPS   H6Y 1692   5.288   1.297   3.464 -0.2835 -0.6198 -1.0860
   13SAPS   C37 1693   5.219   1.109   3.546  0.2649  0.0415 -0.2269
   13SAPS   H7X 1694   5.317   1.069   3.511 -0.6405 -0.1834 -2.7191
   13SAPS   H7Y 1695   5.147   1.031   3.513  2.1695 -2.5065  1.2571
   13SAPS   C38 1696   5.209   1.130   3.688 -0.7426  0.2258 -0.3849
   13SAPS   H8X 1697   5.225   1.032   3.737  2.4013 -0.9613 -3.3736
   13SAPS   H8Y 1698   5.116   1.166   3.738 -0.7815 -1.2410  0.6658
   13SAPS   C39 1699   5.343   1.191   3.730 -0.2465 -0.6740 -0.1043
   13SAPS   H9X 1700   5.368   1.284   3.674 -2.6236  0.2170  0.1823
   13SAPS   H9Y 1701   5.406   1.107   3.693 -1.0370 -2.4988  2.4421
   13SAPS  C310 1702   5.355   1.220   3.882 -0.3675 -0.1576  1.1751
   13SAPS  H10X 1703   5.285   1.140   3.915 -1.7395 -0.3040 -1.7555
   13SAPS  H10Y 1704   5.314   1.321   3.903 -0.8265  0.3267 -1.6666
   13SAPS  C311 1705   5.492   1.193   3.938 -0.1617  0.2395  0.3174
   13SAPS  H11X 1706   5.562   1.272   3.901  1.1141 -0.2698  1.5652
   13SAPS  H11Y 1707   5.516   1.101   3.881 -0.6500  0.4783 -0.2828
   13SAPS  C312 1708   5.504   1.172   4.089  0.4765  0.2749  0.3235
   13SAPS  H12X 1709   5.481   1.067   4.119 -0.8856  0.9726  1.9041
   13SAPS  H12Y 1710   5.424   1.229   4.140  2.0501  1.6864  1.3262
   13SAPS  C313 1711   5.630   1.219   4.165  0.6086 -0.4395  0.0219
   13SAPS  H13X 1712   5.653   1.324   4.137  1.5948 -0.5422  0.4290
   13SAPS  H13Y 1713   5.715   1.158   4.128 -0.0139 -0.6398 -1.1319
   13SAPS  C314 1714   5.617   1.200   4.315  0.5244  0.1804  0.3904
   13SAPS  H14X 1715   5.626   1.091   4.337 -0.4756 -0.0872 -0.4476
   13SAPS  H14Y 1716   5.520   1.242   4.347  0.3466 -1.0825  1.6211
   13SAPS  C315 1717   5.724   1.286   4.391  0.0081  0.8349 -0.1550
   13SAPS  H15X 1718   5.703   1.275   4.499 -3.5887  1.6475 -0.6495
   13SAPS  H15Y 1719   5.709   1.394   4.370 -1.3043  0.8025  0.5391
   13SAPS  C316 1720   5.869   1.244   4.353 -0.3899 -0.0409 -0.7074
   13SAPS  H16X 1721   5.893   1.256   4.245 -0.1404 -0.9260 -0.7587
   13SAPS  H16Y 1722   5.885   1.136   4.371 -0.6726  0.2320  1.4081
   13SAPS  C317 1723   5.977   1.329   4.411  0.4135 -0.3860 -0.5660
   13SAPS  H17X 1724   5.964   1.430   4.367 -2.1513 -0.1921  0.5089
   13SAPS  H17Y 1725   6.075   1.294   4.371  0.4558  1.3022 -2.0883
   13SAPS  C318 1726   5.980   1.353   4.563 -0.1364 -0.8532 -0.4549
   13SAPS  H18X 1727   5.874   1.379   4.583 -0.1834 -1.2032 -0.2360
   13SAPS  H18Y 1728   6.044   1.430   4.611  0.2975 -2.2393  1.3008
   13SAPS  H18Z 1729   6.011   1.259   4.613  2.3390  1.0122  1.8069
   14SAPS     N 1730   6.233   1.729   2.348  0.0263 -0.1922  0.1773
   14SAPS   HN1 1731   6.329   1.768   2.357 -0.8530  2.1591 -0.1539
   14SAPS   HN2 1732   6.162   1.804   2.361 -0.2683 -0.8566  2.8492
   14SAPS   HN3 1733   6.215   1.673   2.434  2.0897  1.0091  1.4905
   14SAPS   C12 1734   6.213   1.650   2.226 -0.3206 -0.1162  0.0569
   14SAPS  H12A 1735   6.110   1.654   2.194 -0.2818  1.3650  0.0537
   14SAPS   C13 1736   6.298   1.705   2.105 -0.2860  0.1887 -0.4508
   14SAPS  O13A 1737   6.360   1.815   2.109  0.0989  0.3684 -0.7017
   14SAPS  O13B 1738   6.293   1.636   1.996  0.0186  0.0288 -0.0983
   14SAPS   C11 1739   6.255   1.502   2.255  0.0925  0.3391  0.1860
   14SAPS  H11A 1740   6.363   1.487   2.273  0.2332 -2.1886 -2.1119
   14SAPS  H11B 1741   6.244   1.446   2.160  3.7531  1.8100 -1.2831
   14SAPS     P 1742   6.058   1.354   2.358 -0.1884  0.1287  0.3031
   14SAPS   O13 1743   5.940   1.417   2.301  0.5060  0.2586  0.0554
   14SAPS   O14 1744   6.106   1.240   2.288  0.4813 -0.4592  0.2215
   14SAPS   O12 1745   6.176   1.458   2.362  0.3639  0.3372  0.3710
   14SAPS   O11 1746   6.024   1.318   2.507  0.4618 -0.1316  0.5778
   14SAPS    C1 1747   6.128   1.306   2.602 -1.2632  0.7802  0.7308
   14SAPS    HA 1748   6.180   1.210   2.580 -0.8433  0.8260  1.5033
   14SAPS    HB 1749   6.208   1.380   2.581  0.3143 -1.3464 -1.2796
   14SAPS    C2 1750   6.070   1.311   2.742 -0.7496 -0.4689 -0.0597
   14SAPS    HS 1751   5.996   1.393   2.755 -1.4205 -1.2049  0.8570
   14SAPS   O21 1752   6.173   1.327   2.841 -0.0942 -0.0433  0.1651
   14SAPS   C21 1753   6.212   1.449   2.861 -0.2430  0.1416  0.3456
   14SAPS   O22 1754   6.164   1.550   2.816  0.0138  0.1080  0.0093
   14SAPS   C22 1755   6.324   1.449   2.972  0.1548 -0.0033 -0.0331
   14SAPS   H2R 1756   6.280   1.415   3.069  0.4485  0.5527  0.3014
   14SAPS   H2S 1757   6.396   1.371   2.939  1.2717  1.2640 -0.6797
   14SAPS    C3 1758   5.992   1.179   2.782  0.1540  0.1621  1.0079
   14SAPS    HX 1759   6.067   1.123   2.842  2.2218  2.4133  0.6640
   14SAPS    HY 1760   5.963   1.125   2.689 -3.3870  0.4685  1.7742
   14SAPS   O31 1761   5.868   1.201   2.854 -0.3188  0.0114 -0.5318
   14SAPS   C31 1762   5.850   1.121   2.959  0.5728 -0.4993 -0.2297
   14SAPS   O32 1763   5.934   1.049   3.007  0.1387 -0.2507 -0.1130
   14SAPS   C32 1764   5.709   1.134   3.023  0.1358  0.1145  0.1957
   14SAPS   H2X 1765   5.682   1.035   3.066  2.2213 -0.8120 -0.4651
   14SAPS   H2Y 1766   5.644   1.165   2.938  1.7022 -0.9563 -1.4632
   14SAPS   C23 1767   6.382   1.587   3.005 -0.8643  0.1065  0.1559
   14SAPS   H3R 1768   6.299   1.660   2.996  0.5098  1.6769 -0.3488
   14SAPS   H3S 1769   6.466   1.598   2.933 -2.1855  1.9183 -1.1776
   14SAPS   C24 1770   6.437   1.600   3.152 -0.3836  0.5385  0.2539
   14SAPS   H4R 1771   6.520   1.526   3.157 -1.8782 -1.3232 -1.2059
   14SAPS   H4S 1772   6.368   1.552   3.224 -2.1288 -0.3624 -1.9213
   14SAPS   C25 1773   6.483   1.737   3.199  0.5692  0.2081  0.1119
   14SAPS   H5R 1774   6.457   1.814   3.124  0.0150 -3.2118 -3.5727
   14SAPS   C26 1775   6.511   1.788   3.320 -0.1464  0.4273  0.2620
   14SAPS   H6R 1776   6.572   1.880   3.320  1.1838 -0.2214  4.4353
   14SAPS   C27 1777   6.537   1.709   3.448  1.1335  0.0217  0.2897
   14SAPS   H7R 1778   6.473   1.618   3.439 -0.4952  1.1935 -0.7487
   14SAPS   H7S 1779   6.506   1.745   3.548 -4.7975 -0.6246 -0.9343
   14SAPS   C28 1780   6.677   1.644   3.447  0.2828  0.0818 -0.5334
   14SAPS   H8R 1781   6.736   1.698   3.372  0.2138 -0.6332 -1.1092
   14SAPS   C29 1782   6.726   1.545   3.535  0.2902 -0.3204 -0.1702
   14SAPS   H9R 1783   6.828   1.504   3.526  0.7818  0.6359  0.7343
   14SAPS  C210 1784   6.657   1.470   3.647  0.0109 -0.2766 -0.0567
   14SAPS  H10R 1785   6.603   1.552   3.700 -0.9631 -1.2374  0.4776
   14SAPS  H10S 1786   6.741   1.424   3.704  2.2054  2.9493 -0.4327
   14SAPS  C211 1787   6.562   1.369   3.578  0.1342 -0.2560 -0.5510
   14SAPS  H11R 1788   6.561   1.354   3.469  1.0869 -1.3628 -0.4214
   14SAPS  C212 1789   6.487   1.286   3.644  0.8382  1.3126 -0.3464
   14SAPS  H12R 1790   6.418   1.216   3.594  1.5322  0.9098 -0.7575
   14SAPS  C213 1791   6.458   1.268   3.795 -0.2221 -0.2213  0.1926
   14SAPS  H13R 1792   6.399   1.177   3.818  0.9548 -0.8047  1.0148
   14SAPS  H13S 1793   6.384   1.346   3.825  0.4360 -0.4600  2.6191
   14SAPS  C214 1794   6.568   1.274   3.890 -0.4737  0.2253  0.7101
   14SAPS  H14R 1795   6.664   1.295   3.840 -1.2465 -0.5987 -1.2189
   14SAPS  C215 1796   6.558   1.275   4.025  0.2178  0.4126  0.2283
   14SAPS  H15R 1797   6.651   1.297   4.080  0.7656  0.4329 -0.6775
   14SAPS  C216 1798   6.437   1.263   4.102  0.0612  0.1905  0.0042
   14SAPS  H16R 1799   6.349   1.228   4.044 -0.7002 -2.6586  2.5682
   14SAPS  H16S 1800   6.414   1.364   4.142  0.5602  0.5650 -0.6514
   14SAPS  C217 1801   6.450   1.159   4.209  0.5308 -0.3837  0.0073
   14SAPS  H17R 1802   6.541   1.192   4.263  1.3904  2.5444 -2.9600
   14SAPS  H17S 1803   6.463   1.055   4.173  0.9575 -0.2465 -0.2346
   14SAPS  C218 1804   6.339   1.145   4.315  0.4509 -0.0995 -0.5642
   14SAPS  H18R 1805   6.246   1.154   4.255  0.4616 -1.6446 -0.8556
   14SAPS  H18S 1806   6.350   1.238   4.374  2.1952  0.1350 -1.1869
   14SAPS  C219 1807   6.342   1.019   4.397  0.1677  0.2997  0.4420
   14SAPS  H19R 1808   6.443   1.004   4.440 -0.0165  1.1323  1.1981
   14SAPS  H19S 1809   6.319   0.935   4.328  0.6184  0.3020  0.2824
   14SAPS  C220 1810   6.240   1.015   4.515  0.0762  0.1703 -0.2952
   14SAPS  H20R 1811   6.137   1.046   4.484 -0.5229  0.2334  1.6219
   14SAPS  H20S 1812   6.281   1.097   4.578 -0.7648  0.7238 -0.4526
   14SAPS  H20T 1813   6.230   0.921   4.573  0.7130  0.7569  0.8130
   14SAPS   C33 1814   5.696   1.248   3.133  0.5726  0.1705  0.2547
   14SAPS   H3X 1815   5.720   1.346   3.088 -1.3275 -0.5799 -2.7161
   14SAPS   H3Y 1816   5.770   1.230   3.214  1.4800 -0.5151 -0.6983
   14SAPS   C34 1817   5.561   1.250   3.205 -0.8840 -0.2444 -0.6010
   14SAPS   H4X 1818   5.537   1.145   3.233 -0.1299  0.0504  1.2551
   14SAPS   H4Y 1819   5.479   1.279   3.135  0.2476 -1.2767 -2.4323
   14SAPS   C35 1820   5.558   1.333   3.329 -0.1872 -0.6111  0.5336
   14SAPS   H5X 1821   5.636   1.302   3.402 -0.0669 -0.6790  0.3788
   14SAPS   H5Y 1822   5.460   1.326   3.379 -1.6255 -2.4312 -2.2975
   14SAPS   C36 1823   5.566   1.481   3.297 -0.2567 -0.0482 -0.7439
   14SAPS   H6X 1824   5.494   1.506   3.216 -0.1517 -1.4403 -1.2975
   14SAPS   H6Y 1825   5.669   1.508   3.265 -0.0830 -1.6859 -1.7038
   14SAPS   C37 1826   5.529   1.560   3.426 -0.2161 -0.1560 -0.1706
   14SAPS   H7X 1827   5.430   1.523   3.459 -1.7291  1.2222 -2.8368
   14SAPS   H7Y 1828   5.536   1.670   3.413  0.8473 -0.0511  1.0896
   14SAPS   C38 1829   5.620   1.538   3.548  0.1636 -0.7328 -0.3357
   14SAPS   H8X 1830   5.720   1.585   3.533  0.9399 -1.4547  2.2535
   14SAPS   H8Y 1831   5.636   1.430   3.564 -0.3829 -0.7386  0.1951
   14SAPS   C39 1832   5.566   1.598   3.679  0.9443  0.5698  0.0430
   14SAPS   H9X 1833   5.477   1.546   3.720  1.4522 -0.1811  0.2135
   14SAPS   H9Y 1834   5.515   1.694   3.659 -0.5066  0.0023  0.8395
   14SAPS  C310 1835   5.667   1.615   3.788 -0.4838 -0.4228 -0.3198
   14SAPS  H10X 1836   5.747   1.671   3.736 -1.5172 -0.2932 -1.8526
   14SAPS  H10Y 1837   5.700   1.511   3.806 -2.5523 -1.2336 -0.8873
   14SAPS  C311 1838   5.612   1.688   3.908 -0.2215 -0.0790 -0.1505
   14SAPS  H11X 1839   5.545   1.775   3.889  1.2052  1.0217 -0.3486
   14SAPS  H11Y 1840   5.697   1.730   3.967 -0.2718 -0.1847 -0.0015
   14SAPS  C312 1841   5.549   1.588   4.001  0.1522  0.1440  0.4247
   14SAPS  H12X 1842   5.631   1.520   4.033  3.4856  2.1366 -3.0310
   14SAPS  H12Y 1843   5.469   1.528   3.952 -2.7497  3.0403  1.2837
   14SAPS  C313 1844   5.482   1.647   4.129  1.1103  0.1496  0.1533
   14SAPS  H13X 1845   5.392   1.699   4.091 -0.4245 -1.5477  1.3644
   14SAPS  H13Y 1846   5.547   1.710   4.193 -1.8925 -0.1179  3.7879
   14SAPS  C314 1847   5.424   1.538   4.221  0.3538  0.8673  0.2764
   14SAPS  H14X 1848   5.490   1.450   4.232  0.7297  1.4917  4.7032
   14SAPS  H14Y 1849   5.326   1.507   4.178  0.1709  1.3694  0.3216
   14SAPS  C315 1850   5.381   1.587   4.364  0.2586 -0.6805  0.1856
   14SAPS  H15X 1851   5.299   1.660   4.353  1.4906  0.5759 -1.1728
   14SAPS  H15Y 1852   5.463   1.641   4.416  1.3002  0.1083 -2.1210
   14SAPS  C316 1853   5.325   1.479   4.459  0.3053  0.0192 -0.3574
   14SAPS  H16X 1854   5.410   1.433   4.514  0.4448  0.9815  0.2705
   14SAPS  H16Y 1855   5.266   1.407   4.399 -0.7731  0.8164 -0.2864
   14SAPS  C317 1856   5.244   1.542   4.569  0.9462  0.1981 -0.2028
   14SAPS  H17X 1857   5.152   1.587   4.526  1.5838  1.6788 -0.0381
   14SAPS  H17Y 1858   5.308   1.619   4.617  2.4844  0.4262 -2.4939
   14SAPS  C318 1859   5.206   1.442   4.679 -0.4050 -0.3141 -0.0377
   14SAPS  H18X 1860   5.126   1.386   4.627 -1.0089 -0.1256  0.6633
   14SAPS  H18Y 1861   5.164   1.506   4.761 -0.5074  0.5171 -0.7206
   14SAPS  H18Z 1862   5.287   1.376   4.716 -0.6883 -0.7286 -0.1509
   15SAPS     N 1863   6.388   3.896   2.496 -0.1327  0.5252 -0.0422
   15SAPS   HN1 1864   6.387   3.792   2.501 -1.7268  0.5735  1.3229
   15SAPS   HN2 1865   6.405   3.922   2.595 -0.5358  2.0534 -0.3495
   15SAPS   HN3 1866   6.287   3.908   2.475 -0.2031 -1.4042 -0.9909
   15SAPS   C12 1867   6.481   3.947   2.390 -0.2918 -0.7806  0.6440
   15SAPS  H12A 1868   6.490   3.866   2.319 -2.4239 -1.0358  0.6079
   15SAPS   C13 1869   6.432   4.064   2.299 -0.6556  0.0152  0.0261
   15SAPS  O13A 1870   6.337   4.129   2.345  0.5227  0.3456  0.2003
   15SAPS  O13B 1871   6.515   4.112   2.218  0.5052 -0.2110 -0.1964
   15SAPS   C11 1872   6.618   3.968   2.462 -0.2711 -0.1413 -0.2696
   15SAPS  H11A 1873   6.592   4.043   2.540 -0.2936 -1.3929  0.9618
   15SAPS  H11B 1874   6.698   4.012   2.399  0.2885  0.6290  0.9453
   15SAPS     P 1875   6.765   3.857   2.639  0.7264 -0.2224 -0.3150
   15SAPS   O13 1876   6.818   3.726   2.675  0.0867  0.2939  0.0081
   15SAPS   O14 1877   6.869   3.959   2.597  0.1827  0.2652 -0.2109
   15SAPS   O12 1878   6.660   3.845   2.522 -0.0333  0.3108 -0.2064
   15SAPS   O11 1879   6.689   3.912   2.769 -0.1424 -0.0439 -0.2832
   15SAPS    C1 1880   6.780   3.974   2.866  1.1546  0.0303  0.2967
   15SAPS    HA 1881   6.863   4.039   2.829  0.2713  0.3801 -1.1622
   15SAPS    HB 1882   6.721   4.041   2.932  2.0626  0.5692  0.5807
   15SAPS    C2 1883   6.842   3.872   2.970  0.3763 -0.2678  0.5806
   15SAPS    HS 1884   6.925   3.822   2.916 -0.9019 -0.3184 -1.4547
   15SAPS   O21 1885   6.744   3.782   3.009 -0.1601  0.1623  0.2001
   15SAPS   C21 1886   6.791   3.669   3.049  0.1525  0.1020 -0.1792
   15SAPS   O22 1887   6.909   3.636   3.042  0.2434 -0.0777  0.0701
   15SAPS   C22 1888   6.677   3.581   3.099 -0.4000  0.7567  0.4467
   15SAPS   H2R 1889   6.581   3.609   3.051  0.5475 -0.4067 -2.3285
   15SAPS   H2S 1890   6.707   3.483   3.055 -0.0025  1.0359  0.0943
   15SAPS    C3 1891   6.901   3.950   3.093 -0.1951  0.0999  0.2577
   15SAPS    HX 1892   6.827   4.027   3.123  0.0273  1.1864 -1.8218
   15SAPS    HY 1893   6.986   4.013   3.062 -1.5385  0.8735 -2.1590
   15SAPS   O31 1894   6.929   3.860   3.199  0.1016 -0.0402 -0.2944
   15SAPS   C31 1895   7.022   3.899   3.280  0.1911  0.3352 -0.1266
   15SAPS   O32 1896   7.065   4.016   3.283  0.1149 -0.0846 -0.1586
   15SAPS   C32 1897   7.065   3.789   3.368  0.2073  0.1184  0.4657
   15SAPS   H2X 1898   7.168   3.821   3.396  1.0845 -0.8726 -1.4262
   15SAPS   H2Y 1899   7.058   3.687   3.323  1.2343  0.7806 -1.3068
   15SAPS   C23 1900   6.676   3.578   3.256  0.5357 -0.0754  0.4064
   15SAPS   H3R 1901   6.781   3.550   3.278  0.3321  0.9814  3.1396
   15SAPS   H3S 1902   6.604   3.503   3.292 -0.2029  0.2827 -0.2886
   15SAPS   C24 1903   6.639   3.711   3.316 -0.1479 -0.3065 -0.8217
   15SAPS   H4R 1904   6.717   3.784   3.286  0.2057 -0.1896  0.3331
   15SAPS   H4S 1905   6.650   3.703   3.427 -0.3889 -0.1822 -0.7876
   15SAPS   C25 1906   6.508   3.768   3.273  0.2226  0.4165  0.5245
   15SAPS   H5R 1907   6.509   3.803   3.168 -1.0946  0.3019  0.4515
   15SAPS   C26 1908   6.405   3.801   3.350  0.1522  0.1662 -0.5306
   15SAPS   H6R 1909   6.316   3.847   3.304 -0.6359 -0.8917 -0.1011
   15SAPS   C27 1910   6.390   3.768   3.496 -0.4880 -0.0166  0.5340
   15SAPS   H7R 1911   6.435   3.853   3.551 -2.9938  2.6452 -1.2187
   15SAPS   H7S 1912   6.449   3.678   3.523 -0.4991  0.6650  3.0405
   15SAPS   C28 1913   6.244   3.735   3.522  0.3240  0.0861  0.1487
   15SAPS   H8R 1914   6.197   3.667   3.449  0.6161 -0.0355  0.0723
   15SAPS   C29 1915   6.173   3.803   3.613  0.7615 -0.1096  0.4311
   15SAPS   H9R 1916   6.068   3.780   3.634  0.8026  1.1436  2.2939
   15SAPS  C210 1917   6.225   3.898   3.713  0.3459 -0.1584  0.2382
   15SAPS  H10R 1918   6.296   3.969   3.665  0.7631 -0.5363  0.3008
   15SAPS  H10S 1919   6.290   3.845   3.785  0.4794 -0.7272 -0.2922
   15SAPS  C211 1920   6.127   3.984   3.787  0.3404 -0.0059  0.0720
   15SAPS  H11R 1921   6.112   4.079   3.734 -2.1982 -0.4270 -0.1317
   15SAPS  C212 1922   6.037   3.946   3.884  0.5128 -0.0929 -0.4296
   15SAPS  H12R 1923   5.950   4.008   3.912 -0.7076 -1.1163 -1.8155
   15SAPS  C213 1924   6.042   3.809   3.955  0.0989  0.0314  0.5063
   15SAPS  H13R 1925   6.081   3.734   3.882 -1.1954  0.1575 -0.3454
   15SAPS  H13S 1926   5.939   3.769   3.966 -0.2621  0.8967  0.3833
   15SAPS  C214 1927   6.097   3.803   4.092  0.0029  0.4444  0.1823
   15SAPS  H14R 1928   6.104   3.895   4.153 -0.2442  0.1088  0.7237
   15SAPS  C215 1929   6.171   3.698   4.134  0.0798  0.1937 -0.1032
   15SAPS  H15R 1930   6.205   3.698   4.238 -0.4379  1.3314  0.0767
   15SAPS  C216 1931   6.190   3.563   4.074 -0.4119  0.0815 -0.2864
   15SAPS  H16R 1932   6.186   3.566   3.963  1.6602 -1.5567 -0.4824
   15SAPS  H16S 1933   6.127   3.485   4.121  0.1778 -0.5049 -0.4484
   15SAPS  C217 1934   6.336   3.510   4.110 -0.2347 -0.7410  0.1306
   15SAPS  H17R 1935   6.339   3.403   4.084 -1.0217 -1.3517  2.3210
   15SAPS  H17S 1936   6.362   3.515   4.218 -2.5111 -0.6882  0.7111
   15SAPS  C218 1937   6.458   3.581   4.038  0.2466 -0.0708  0.0664
   15SAPS  H18R 1938   6.548   3.539   4.086  0.2200 -0.1786  0.0233
   15SAPS  H18S 1939   6.462   3.689   4.064  0.0674 -0.2112  0.7050
   15SAPS  C219 1940   6.458   3.560   3.884  0.7996 -0.2229 -0.4616
   15SAPS  H19R 1941   6.391   3.643   3.853  0.5721  0.1583  0.9661
   15SAPS  H19S 1942   6.410   3.465   3.850 -2.1340  1.7648 -2.3301
   15SAPS  C220 1943   6.588   3.580   3.808 -0.5166  0.3777 -0.4129
   15SAPS  H20R 1944   6.665   3.505   3.836  1.2833  1.5435 -1.9760
   15SAPS  H20S 1945   6.630   3.677   3.843 -0.6586  0.2831  0.0258
   15SAPS  H20T 1946   6.564   3.575   3.699  1.3183 -0.6217 -0.8030
   15SAPS   C33 1947   6.975   3.776   3.488 -0.8801 -0.2906  0.1045
   15SAPS   H3X 1948   6.996   3.675   3.528  0.1688  0.0857  0.5377
   15SAPS   H3Y 1949   6.867   3.784   3.460 -0.7749 -0.3159 -0.3219
   15SAPS   C34 1950   7.008   3.873   3.609  0.1023 -0.6957 -0.0859
   15SAPS   H4X 1951   6.985   3.980   3.593 -0.6551 -1.0521 -1.5514
   15SAPS   H4Y 1952   7.118   3.875   3.626  0.2180  0.4675 -0.8440
   15SAPS   C35 1953   6.950   3.833   3.743  0.2994 -0.0510  0.0929
   15SAPS   H5X 1954   6.982   3.729   3.767 -0.0493 -0.1176  0.2736
   15SAPS   H5Y 1955   6.840   3.839   3.734  0.3862  0.1882 -0.8400
   15SAPS   C36 1956   6.998   3.919   3.856 -0.4463 -0.1330 -0.2720
   15SAPS   H6X 1957   6.988   4.027   3.832 -0.8766  0.6238  2.8988
   15SAPS   H6Y 1958   7.105   3.897   3.872 -0.1279  0.7116 -1.1210
   15SAPS   C37 1959   6.917   3.895   3.984  0.6085  0.1644  0.4050
   15SAPS   H7X 1960   6.932   3.787   4.003  0.0074 -0.2913 -1.4637
   15SAPS   H7Y 1961   6.810   3.893   3.955  1.2549  3.1087 -2.8902
   15SAPS   C38 1962   6.963   3.971   4.105  0.1751 -0.3863  0.1979
   15SAPS   H8X 1963   6.952   4.078   4.078  0.5278 -0.8918 -2.1968
   15SAPS   H8Y 1964   7.068   3.946   4.129  0.9109  2.3765  0.2400
   15SAPS   C39 1965   6.878   3.937   4.229 -0.1773 -0.2505 -0.0451
   15SAPS   H9X 1966   6.901   3.832   4.257  0.6903  0.3942  1.7935
   15SAPS   H9Y 1967   6.767   3.935   4.214 -0.5683  2.2759  2.0071
   15SAPS  C310 1968   6.904   4.026   4.340  0.5041 -0.3717 -0.6809
   15SAPS  H10X 1969   6.887   4.129   4.301 -0.2146 -0.4975 -0.7098
   15SAPS  H10Y 1970   7.011   4.021   4.369 -0.0946 -1.4265  1.5167
   15SAPS  C311 1971   6.830   4.000   4.469 -0.5886  0.0123 -0.5122
   15SAPS  H11X 1972   6.881   3.923   4.531  0.9564  0.7341 -0.8366
   15SAPS  H11Y 1973   6.728   3.968   4.439 -0.7549 -0.5563  0.6297
   15SAPS  C312 1974   6.833   4.126   4.554 -0.2616 -0.3874  0.2333
   15SAPS  H12X 1975   6.796   4.220   4.506 -0.1185 -0.4260  0.0496
   15SAPS  H12Y 1976   6.939   4.155   4.568 -0.2615 -1.0355  1.8136
   15SAPS  C313 1977   6.764   4.106   4.695  0.1754 -0.9522 -0.8971
   15SAPS  H13X 1978   6.772   4.207   4.741 -1.1792  0.7779 -4.1281
   15SAPS  H13Y 1979   6.819   4.033   4.758 -3.7395 -1.4423  2.3834
   15SAPS  C314 1980   6.619   4.059   4.698 -0.2817  0.1562 -0.5164
   15SAPS  H14X 1981   6.632   3.949   4.706 -1.1088  0.0949  0.0633
   15SAPS  H14Y 1982   6.566   4.098   4.608 -1.2892 -1.1362 -0.5177
   15SAPS  C315 1983   6.550   4.108   4.824  0.2109  0.0366 -0.0867
   15SAPS  H15X 1984   6.607   4.072   4.912  1.4483  0.2150 -0.7881
   15SAPS  H15Y 1985   6.448   4.064   4.824 -1.0484  2.3742  4.5100
   15SAPS  C316 1986   6.530   4.258   4.838  0.3010  0.2989  0.1173
   15SAPS  H16X 1987   6.506   4.292   4.735 -2.7573  2.2743  1.3556
   15SAPS  H16Y 1988   6.630   4.292   4.872  0.3612  0.8660 -0.6081
   15SAPS  C317 1989   6.415   4.301   4.930 -0.3969  0.5000  0.7922
   15SAPS  H17X 1990   6.313   4.263   4.906 -0.6457  1.7353 -0.2491
   15SAPS  H17Y 1991   6.413   4.412   4.936 -1.5932  0.4792  0.9879
   15SAPS  C318 1992   6.451   4.256   5.076  0.3876 -0.1881 -0.5437
   15SAPS  H18X 1993   6.433   4.147   5.081  1.2847 -0.3007  2.5136
   15SAPS  H18Y 1994   6.396   4.317   5.151  0.3139 -1.1834  0.2249
   15SAPS  H18Z 1995   6.562   4.260   5.083  0.3589 -0.0810 -0.1429
   16SAPS     N 1996   6.732   3.374   2.452  0.4248 -0.6043  0.6766
   16SAPS   HN1 1997   6.716   3.469   2.413  0.8300 -1.4217 -1.6282
   16SAPS   HN2 1998   6.639   3.326   2.458  0.1805 -0.1650  0.4565
   16SAPS   HN3 1999   6.762   3.386   2.551 -1.2529  0.1625  1.1310
   16SAPS   C12 2000   6.836   3.297   2.379 -0.0678  0.3427 -0.0089
   16SAPS  H12A 2001   6.839   3.198   2.421  0.3338  1.4641  2.7991
   16SAPS   C13 2002   6.804   3.271   2.231  0.1798  0.6507 -0.5358
   16SAPS  O13A 2003   6.712   3.333   2.172  0.2158 -0.5540 -0.0654
   16SAPS  O13B 2004   6.885   3.199   2.175 -0.3487  0.7325 -0.0999
   16SAPS   C11 2005   6.977   3.357   2.408 -0.3083 -0.2104  0.3417
   16SAPS  H11A 2006   6.999   3.453   2.356  0.1269 -0.3175  0.3182
   16SAPS  H11B 2007   7.050   3.293   2.355 -1.2238 -0.8645 -0.1541
   16SAPS     P 2008   7.132   3.313   2.616  0.0046 -0.5902  0.1641
   16SAPS   O13 2009   7.113   3.164   2.628 -0.1075  0.0943 -0.1295
   16SAPS   O14 2010   7.248   3.367   2.534  0.1285 -0.2438  0.1086
   16SAPS   O12 2011   7.002   3.373   2.546 -0.0197 -0.1869 -0.1038
   16SAPS   O11 2012   7.135   3.384   2.762 -0.1923 -0.3531  0.0082
   16SAPS    C1 2013   7.036   3.367   2.862 -0.0155  0.2824  0.8062
   16SAPS    HA 2014   6.992   3.464   2.893 -0.9675 -0.2296  1.1312
   16SAPS    HB 2015   6.947   3.310   2.825  1.1797 -0.4496 -1.0890
   16SAPS    C2 2016   7.091   3.289   2.990  0.2084 -0.4668  0.1380
   16SAPS    HS 2017   7.108   3.182   2.967  1.2940 -0.1979 -0.3740
   16SAPS   O21 2018   6.989   3.305   3.091 -0.0889 -0.0912  0.4697
   16SAPS   C21 2019   6.909   3.198   3.099 -0.8381 -0.1319 -0.8574
   16SAPS   O22 2020   6.911   3.095   3.034 -0.1991  0.2092  0.2990
   16SAPS   C22 2021   6.811   3.212   3.221  0.4494 -0.0773 -0.1292
   16SAPS   H2R 2022   6.792   3.320   3.239 -1.9412 -0.3825 -0.4803
   16SAPS   H2S 2023   6.714   3.174   3.182  1.0117  0.9211 -2.7645
   16SAPS    C3 2024   7.229   3.344   3.034 -0.1398  0.2410  0.8134
   16SAPS    HX 2025   7.231   3.454   3.023  0.5118  0.3751  2.1233
   16SAPS    HY 2026   7.299   3.301   2.960 -0.7262  1.1677 -0.3218
   16SAPS   O31 2027   7.265   3.295   3.169 -0.1578 -0.0384 -0.2561
   16SAPS   C31 2028   7.231   3.379   3.265  0.2541 -0.2064  0.7771
   16SAPS   O32 2029   7.200   3.496   3.245  0.1395 -0.2045 -0.3785
   16SAPS   C32 2030   7.227   3.310   3.401 -0.2710  0.9496 -0.5588
   16SAPS   H2X 2031   7.328   3.321   3.445 -0.5841 -0.1224  0.4813
   16SAPS   H2Y 2032   7.190   3.207   3.384  0.8881  0.3074  0.6279
   16SAPS   C23 2033   6.856   3.139   3.346 -0.7319  0.3633 -0.5575
   16SAPS   H3R 2034   6.927   3.198   3.407 -0.0615 -1.7671  0.8352
   16SAPS   H3S 2035   6.923   3.058   3.309 -0.9666 -1.4026  2.5713
   16SAPS   C24 2036   6.745   3.076   3.432  0.0825 -0.7421  0.0373
   16SAPS   H4R 2037   6.799   3.017   3.508  3.6073  0.8626 -1.0302
   16SAPS   H4S 2038   6.693   2.995   3.376  1.9220 -1.0198 -1.3584
   16SAPS   C25 2039   6.645   3.174   3.495  0.0205  0.0790  0.1909
   16SAPS   H5R 2040   6.573   3.207   3.420 -0.0137 -4.4641 -2.1435
   16SAPS   C26 2041   6.627   3.199   3.622 -0.4207 -0.3904 -0.3791
   16SAPS   H6R 2042   6.546   3.259   3.664  0.8417  2.2943 -1.5474
   16SAPS   C27 2043   6.712   3.147   3.735 -0.0904  0.0271  0.5089
   16SAPS   H7R 2044   6.711   3.228   3.811 -1.6346 -1.2820  1.9649
   16SAPS   H7S 2045   6.815   3.134   3.696 -1.4300 -2.1635 -2.7798
   16SAPS   C28 2046   6.678   3.016   3.806  0.1712 -0.8571 -0.2084
   16SAPS   H8R 2047   6.644   2.926   3.753 -0.5782 -0.1036 -1.0384
   16SAPS   C29 2048   6.688   2.990   3.941  0.3303  0.3377 -0.1738
   16SAPS   H9R 2049   6.657   2.888   3.967  0.2933  0.7330  1.3790
   16SAPS  C210 2050   6.749   3.088   4.041  0.2878 -0.2670  0.5523
   16SAPS  H10R 2051   6.840   3.129   3.994  1.1595 -1.3525  1.2390
   16SAPS  H10S 2052   6.774   3.023   4.128  2.4067 -0.0216  0.1697
   16SAPS  C211 2053   6.651   3.199   4.090  0.3027 -0.2730  0.2129
   16SAPS  H11R 2054   6.627   3.271   4.010 -1.9109  2.9453  3.4819
   16SAPS  C212 2055   6.604   3.227   4.212 -0.2678  0.5505 -0.3196
   16SAPS  H12R 2056   6.535   3.313   4.220  0.6102  1.0917  2.0999
   16SAPS  C213 2057   6.622   3.148   4.336  0.3085 -0.4159 -0.4388
   16SAPS  H13R 2058   6.730   3.123   4.338  0.5074  0.3858  1.8890
   16SAPS  H13S 2059   6.570   3.049   4.332  0.6646 -0.6503  0.4338
   16SAPS  C214 2060   6.582   3.205   4.467  0.1698 -0.0688 -0.6437
   16SAPS  H14R 2061   6.627   3.304   4.486  3.3397 -1.2452 -1.4829
   16SAPS  C215 2062   6.511   3.142   4.565  0.4014 -0.6816 -0.1677
   16SAPS  H15R 2063   6.469   3.207   4.643  1.3968  0.4146 -0.5062
   16SAPS  C216 2064   6.456   3.003   4.562 -0.0089  0.8127  0.6294
   16SAPS  H16R 2065   6.421   2.973   4.461  0.2858  0.9568  0.4826
   16SAPS  H16S 2066   6.363   3.007   4.622 -0.0484 -0.2753  0.6683
   16SAPS  C217 2067   6.543   2.889   4.618  0.1160 -0.3479  0.0309
   16SAPS  H17R 2068   6.639   2.891   4.563  1.4405  0.9763  2.2333
   16SAPS  H17S 2069   6.481   2.797   4.620 -0.4007 -0.0000  0.2892
   16SAPS  C218 2070   6.589   2.915   4.766  0.6228 -0.4113  0.8158
   16SAPS  H18R 2071   6.516   2.881   4.843 -0.4879 -0.1958 -0.1045
   16SAPS  H18S 2072   6.600   3.025   4.782  1.3534 -0.4313  0.5049
   16SAPS  C219 2073   6.729   2.859   4.787 -0.5801  0.9306  0.0893
   16SAPS  H19R 2074   6.790   2.918   4.716 -0.6030  1.1009  0.2099
   16SAPS  H19S 2075   6.729   2.753   4.757  2.7845  0.7797  0.2931
   16SAPS  C220 2076   6.781   2.865   4.929  0.0083  0.1982 -0.0108
   16SAPS  H20R 2077   6.798   2.972   4.952 -0.1234  1.2387 -4.0551
   16SAPS  H20S 2078   6.880   2.816   4.945  1.2891  2.6383  0.0441
   16SAPS  H20T 2079   6.711   2.817   5.001  1.9474 -0.3880  1.5912
   16SAPS   C33 2080   7.140   3.388   3.502  0.1103 -0.3701 -0.2443
   16SAPS   H3X 2081   7.033   3.391   3.471 -0.3767 -1.8632  1.1344
   16SAPS   H3Y 2082   7.177   3.492   3.503 -1.4599  0.2064 -0.3338
   16SAPS   C34 2083   7.132   3.334   3.649 -0.2404 -0.1521  0.0959
   16SAPS   H4X 2084   7.233   3.334   3.695 -1.4436 -0.9954  3.0160
   16SAPS   H4Y 2085   7.098   3.228   3.646  1.8899 -0.8497 -1.1522
   16SAPS   C35 2086   7.042   3.426   3.745  0.5574 -0.0131  0.2511
   16SAPS   H5X 2087   6.938   3.422   3.706  0.0591  0.0392  1.5326
   16SAPS   H5Y 2088   7.083   3.530   3.744 -0.8063  0.5932  1.8873
   16SAPS   C36 2089   7.046   3.380   3.889  0.0522  0.3102 -0.5933
   16SAPS   H6X 2090   7.154   3.382   3.912  0.0765 -2.4576 -0.1322
   16SAPS   H6Y 2091   7.029   3.270   3.892  2.0444 -0.0636 -1.4898
   16SAPS   C37 2092   6.965   3.465   3.986 -0.6778 -0.0201 -0.1431
   16SAPS   H7X 2093   6.864   3.486   3.945 -0.6202  0.0872 -0.2304
   16SAPS   H7Y 2094   7.017   3.563   3.982  0.5167 -0.6080  0.3988
   16SAPS   C38 2095   6.953   3.424   4.130  0.0126  0.1137 -0.1091
   16SAPS   H8X 2096   7.046   3.401   4.185  0.9374  3.1079 -0.2503
   16SAPS   H8Y 2097   6.904   3.325   4.130 -1.8457  0.9594  1.3507
   16SAPS   C39 2098   6.877   3.522   4.219  0.0423 -0.7293  0.1498
   16SAPS   H9X 2099   6.777   3.532   4.174  1.2034 -0.4865 -2.5597
   16SAPS   H9Y 2100   6.919   3.625   4.208 -2.4277  0.2693 -0.5130
   16SAPS  C310 2101   6.888   3.484   4.366  0.1800 -0.2526 -0.1978
   16SAPS  H10X 2102   6.997   3.486   4.387 -0.0589 -2.7709  1.6740
   16SAPS  H10Y 2103   6.845   3.381   4.369 -0.5581  0.0609  0.3154
   16SAPS  C311 2104   6.818   3.572   4.468  0.2043  0.3665 -0.7295
   16SAPS  H11X 2105   6.881   3.663   4.483 -1.9279  1.8288 -0.2218
   16SAPS  H11Y 2106   6.801   3.523   4.566  0.1911  0.2894 -0.7704
   16SAPS  C312 2107   6.682   3.616   4.415  0.2864  0.6541  0.4119
   16SAPS  H12X 2108   6.619   3.533   4.376  0.6891  0.2209  0.6731
   16SAPS  H12Y 2109   6.691   3.699   4.343 -2.2960 -0.4883 -1.4130
   16SAPS  C313 2110   6.593   3.671   4.524  0.1154 -0.0589 -0.1668
   16SAPS  H13X 2111   6.654   3.750   4.573  0.2810  1.4203 -2.6108
   16SAPS  H13Y 2112   6.583   3.583   4.592  1.2996 -0.8066 -0.9235
   16SAPS  C314 2113   6.461   3.729   4.464 -0.0020  0.0054 -0.5539
   16SAPS  H14X 2114   6.413   3.653   4.399 -0.7011 -0.8783  0.9670
   16SAPS  H14Y 2115   6.482   3.820   4.402 -1.0971  0.0883 -0.8186
   16SAPS  C315 2116   6.360   3.774   4.571  0.6460 -0.6799  0.2030
   16SAPS  H15X 2117   6.395   3.870   4.614 -2.2974  1.1027 -1.0935
   16SAPS  H15Y 2118   6.357   3.702   4.655  2.2182  0.3511  1.1844
   16SAPS  C316 2119   6.227   3.807   4.514  0.1175 -0.2321 -0.5177
   16SAPS  H16X 2120   6.158   3.817   4.601  0.6596  0.6533 -0.1807
   16SAPS  H16Y 2121   6.208   3.712   4.459 -1.7943 -0.3946  0.3365
   16SAPS  C317 2122   6.217   3.937   4.433 -0.1680 -0.7803 -0.1934
   16SAPS  H17X 2123   6.118   3.950   4.386  0.6286 -0.4879 -1.8767
   16SAPS  H17Y 2124   6.294   3.943   4.353  1.2516  3.5985  1.2127
   16SAPS  C318 2125   6.240   4.062   4.518  0.3386  0.0669 -0.6385
   16SAPS  H18X 2126   6.347   4.090   4.528 -0.1821  2.3675 -0.8909
   16SAPS  H18Y 2127   6.190   4.049   4.617 -1.3193 -0.3887 -1.5008
   16SAPS  H18Z 2128   6.179   4.144   4.475 -0.9638  0.0995  1.1528
   17SAPS     N 2129   0.212   4.762   2.833 -0.0129  0.3549 -0.6604
   17SAPS   HN1 2130   0.173   4.858   2.826  0.8601  0.9044  1.2540
   17SAPS   HN2 2131   0.278   4.749   2.754  2.0191  0.8621  0.8622
   17SAPS   HN3 2132   0.125   4.706   2.836 -0.0001  0.3541  1.8146
   17SAPS   C12 2133   0.279   4.751   2.975  0.6247  0.1861  0.3365
   17SAPS  H12A 2134   0.195   4.771   3.039  0.1789  1.0522 -0.4860
   17SAPS   C13 2135   0.339   4.613   2.998 -0.6901  0.4326  0.5235
   17SAPS  O13A 2136   0.370   4.539   2.899  0.5305  0.4265  0.3817
   17SAPS  O13B 2137   0.374   4.582   3.116 -0.9371 -0.0472 -0.6569
   17SAPS   C11 2138   0.386   4.863   2.983 -0.3312  0.3244 -0.0186
   17SAPS  H11A 2139   0.430   4.844   3.084 -0.2273 -0.3521 -0.1839
   17SAPS  H11B 2140   0.325   4.956   2.981  0.9466  1.2078  0.6516
   17SAPS     P 2141   0.625   4.922   2.891 -0.2636  0.3056  0.0751
   17SAPS   O13 2142   0.722   4.851   2.805 -0.2871  0.2391  0.0765
   17SAPS   O14 2143   0.606   5.067   2.867  0.1845  0.6200 -0.0388
   17SAPS   O12 2144   0.479   4.855   2.872  0.7101  0.4042  0.4280
   17SAPS   O11 2145   0.646   4.893   3.045 -0.2176 -0.0723  0.0808
   17SAPS    C1 2146   0.753   4.943   3.115 -0.2060  0.2044  0.0216
   17SAPS    HA 2147   0.846   4.911   3.063  0.1765  0.9748  0.2189
   17SAPS    HB 2148   0.752   5.054   3.125 -1.6901  0.2670 -0.5080
   17SAPS    C2 2149   0.750   4.879   3.257  0.1434  0.2560 -0.4087
   17SAPS    HS 2150   0.773   4.772   3.236 -3.1926 -0.6104 -0.2410
   17SAPS   O21 2151   0.616   4.904   3.314 -0.6587  0.6553  0.8535
   17SAPS   C21 2152   0.571   4.800   3.380 -0.5101  0.1751  0.2618
   17SAPS   O22 2153   0.633   4.697   3.398  0.1107 -0.2178  0.3678
   17SAPS   C22 2154   0.430   4.828   3.430  0.0128 -0.2518 -0.1616
   17SAPS   H2R 2155   0.436   4.937   3.453  1.7630 -0.2739 -0.3636
   17SAPS   H2S 2156   0.356   4.819   3.348  0.9088  0.4203 -1.0707
   17SAPS    C3 2157   0.857   4.942   3.351 -0.1498  0.4861 -0.2290
   17SAPS    HX 2158   0.824   5.038   3.395 -0.7444 -0.1928  0.8454
   17SAPS    HY 2159   0.950   4.956   3.292  1.5151  0.9880  2.3732
   17SAPS   O31 2160   0.891   4.846   3.458  0.6831 -0.2357  0.3908
   17SAPS   C31 2161   0.832   4.865   3.571 -0.3311 -0.5242  0.9529
   17SAPS   O32 2162   0.759   4.960   3.600 -0.0874  0.3436  0.6241
   17SAPS   C32 2163   0.884   4.757   3.667  0.1754  0.9354  0.3057
   17SAPS   H2X 2164   0.945   4.683   3.610 -0.0342  2.2047 -1.6799
   17SAPS   H2Y 2165   0.792   4.695   3.679  1.1343 -0.3749  1.2130
   17SAPS   C23 2166   0.379   4.738   3.551  0.7113  0.0282  0.5814
   17SAPS   H3R 2167   0.410   4.633   3.534  1.1731  0.3628 -0.7522
   17SAPS   H3S 2168   0.268   4.744   3.553  0.6250  1.2686 -2.8111
   17SAPS   C24 2169   0.444   4.785   3.687 -0.6040 -0.5264  0.3087
   17SAPS   H4R 2170   0.553   4.794   3.668 -0.2414 -1.7846  1.6075
   17SAPS   H4S 2171   0.442   4.696   3.754  0.2735 -0.4048  0.5068
   17SAPS   C25 2172   0.398   4.913   3.745  0.1688  0.2193 -0.8637
   17SAPS   H5R 2173   0.373   4.999   3.681 -3.3779  0.6078  0.7747
   17SAPS   C26 2174   0.360   4.941   3.871 -0.5067  0.0955  0.7120
   17SAPS   H6R 2175   0.322   5.041   3.898  0.8364  0.2687  2.1151
   17SAPS   C27 2176   0.358   4.844   3.986  0.2137  0.5439 -0.1535
   17SAPS   H7R 2177   0.465   4.814   4.000 -0.1558 -0.8811 -0.2894
   17SAPS   H7S 2178   0.301   4.753   3.960 -2.6345  1.4739  2.2321
   17SAPS   C28 2179   0.293   4.885   4.120  0.6002 -0.0611 -0.4597
   17SAPS   H8R 2180   0.200   4.943   4.130  0.9029  0.0199  3.2531
   17SAPS   C29 2181   0.361   4.879   4.240 -0.9562  0.1241 -1.0069
   17SAPS   H9R 2182   0.306   4.929   4.321 -0.5955 -0.6013 -0.2978
   17SAPS  C210 2183   0.496   4.830   4.270 -0.1253  0.0275 -0.4204
   17SAPS  H10R 2184   0.547   4.929   4.271 -0.2692  0.1011  0.4731
   17SAPS  H10S 2185   0.536   4.770   4.185  0.3624 -0.2867  0.0240
   17SAPS  C211 2186   0.538   4.739   4.387  0.2240 -0.5139  0.4199
   17SAPS  H11R 2187   0.602   4.651   4.375 -0.2883 -0.7875 -0.4209
   17SAPS  C212 2188   0.517   4.763   4.514  1.3311  0.1336 -1.0441
   17SAPS  H12R 2189   0.561   4.691   4.585  3.7162  1.9431 -0.5377
   17SAPS  C213 2190   0.461   4.886   4.581  0.8287 -0.2967  0.1239
   17SAPS  H13R 2191   0.457   4.968   4.506  1.7031  0.8944  1.3356
   17SAPS  H13S 2192   0.542   4.921   4.649  2.0795 -1.0976 -0.9012
   17SAPS  C214 2193   0.333   4.869   4.658  0.6865  0.5561  0.1884
   17SAPS  H14R 2194   0.307   4.763   4.662  0.9907  0.3879 -1.5455
   17SAPS  C215 2195   0.260   4.959   4.716  0.0516  0.5434  0.4847
   17SAPS  H15R 2196   0.164   4.935   4.764 -0.2963  2.0542  0.5853
   17SAPS  C216 2197   0.286   5.106   4.715 -0.0781  0.3306 -0.2721
   17SAPS  H16R 2198   0.216   5.154   4.643  1.1307  0.6406 -1.2859
   17SAPS  H16S 2199   0.392   5.127   4.688  0.4521 -1.0666  0.5839
   17SAPS  C217 2200   0.276   5.175   4.850  0.2304  0.0177 -0.4785
   17SAPS  H17R 2201   0.181   5.159   4.905 -0.3740  0.1029 -1.4800
   17SAPS  H17S 2202   0.270   5.285   4.837  1.0103  0.2015  0.5183
   17SAPS  C218 2203   0.403   5.134   4.929 -0.1767  0.5715  0.0718
   17SAPS  H18R 2204   0.494   5.149   4.867  1.5880  0.7198  2.5566
   17SAPS  H18S 2205   0.413   5.023   4.939 -0.4367  0.6318  1.1381
   17SAPS  C219 2206   0.429   5.204   5.064  0.1329 -0.1929  0.1799
   17SAPS  H19R 2207   0.531   5.181   5.100 -0.9688 -2.0376  2.3547
   17SAPS  H19S 2208   0.346   5.169   5.130 -1.1800  2.9256  0.3630
   17SAPS  C220 2209   0.431   5.363   5.050  0.4044 -0.4703  0.4647
   17SAPS  H20R 2210   0.523   5.383   4.990 -0.2552 -1.2081 -0.8367
   17SAPS  H20S 2211   0.427   5.417   5.147 -1.4967  0.8970 -0.3112
   17SAPS  H20T 2212   0.342   5.413   5.006  0.8653  0.3717  0.4709
   17SAPS   C33 2213   0.929   4.809   3.809 -0.0867  0.1878  0.3130
   17SAPS   H3X 2214   0.852   4.881   3.842 -0.4943  0.3999 -1.0358
   17SAPS   H3Y 2215   1.037   4.834   3.815  0.6434 -2.7229  1.1502
   17SAPS   C34 2216   0.921   4.690   3.906  0.1388  0.1141 -0.3968
   17SAPS   H4X 2217   0.979   4.605   3.863 -2.2358 -1.6314 -0.2937
   17SAPS   H4Y 2218   0.820   4.654   3.932 -0.5527  1.8799 -0.5222
   17SAPS   C35 2219   0.992   4.731   4.038 -0.3485 -0.9364  0.7025
   17SAPS   H5X 2220   1.080   4.796   4.015 -0.7341 -0.1332  1.4393
   17SAPS   H5Y 2221   1.034   4.638   4.082  1.6742 -0.9285 -1.0215
   17SAPS   C36 2222   0.896   4.794   4.136  0.6189 -0.1826 -0.8768
   17SAPS   H6X 2223   0.814   4.725   4.165  1.0420  0.1052  1.1514
   17SAPS   H6Y 2224   0.848   4.880   4.084  1.2049 -0.6631 -2.2318
   17SAPS   C37 2225   0.962   4.856   4.264  0.5664 -1.1327  0.4120
   17SAPS   H7X 2226   0.902   4.939   4.307  0.5773  0.2913 -2.0922
   17SAPS   H7Y 2227   1.056   4.906   4.233 -0.2927 -0.2810 -0.9073
   17SAPS   C38 2228   0.989   4.744   4.364 -0.5130  0.2455  0.5219
   17SAPS   H8X 2229   1.086   4.703   4.327 -0.4241 -1.0032  2.0218
   17SAPS   H8Y 2230   0.914   4.662   4.359  0.5320 -0.6835 -0.3821
   17SAPS   C39 2231   1.015   4.789   4.517  0.0517  0.2530  0.2625
   17SAPS   H9X 2232   1.088   4.872   4.522 -1.2050  1.5240 -1.3437
   17SAPS   H9Y 2233   1.042   4.699   4.576  0.1088  1.4458  2.1459
   17SAPS  C310 2234   0.884   4.843   4.579  0.3052 -0.7378 -0.4017
   17SAPS  H10X 2235   0.834   4.752   4.617  2.0513 -1.0638  1.2834
   17SAPS  H10Y 2236   0.822   4.903   4.510 -0.5257 -1.7101 -0.5128
   17SAPS  C311 2237   0.920   4.936   4.701 -0.8252  0.1553  0.0430
   17SAPS  H11X 2238   0.939   5.043   4.674  0.7833  0.3896  1.8861
   17SAPS  H11Y 2239   1.018   4.904   4.741 -1.0395 -0.7156 -0.1094
   17SAPS  C312 2240   0.820   4.929   4.818  0.2392 -0.0556 -0.1265
   17SAPS  H12X 2241   0.715   4.948   4.788  0.0862 -1.7816 -0.8009
   17SAPS  H12Y 2242   0.847   5.005   4.894 -0.4672 -0.7462  0.8267
   17SAPS  C313 2243   0.791   4.791   4.880 -0.0009  0.1199  0.0259
   17SAPS  H13X 2244   0.883   4.733   4.904 -0.3231 -1.0497 -1.4547
   17SAPS  H13Y 2245   0.722   4.731   4.818  0.7340 -0.0958 -0.6012
   17SAPS  C314 2246   0.736   4.818   5.021 -0.1589  0.8428 -0.1289
   17SAPS  H14X 2247   0.686   4.917   5.022  2.3369  2.1938  1.2568
   17SAPS  H14Y 2248   0.821   4.846   5.087 -2.0590  0.7185  2.5059
   17SAPS  C315 2249   0.666   4.700   5.083  0.2912 -0.1148  0.3912
   17SAPS  H15X 2250   0.691   4.699   5.191  0.4516 -0.8526  0.3535
   17SAPS  H15Y 2251   0.709   4.610   5.034 -1.0124 -0.0053 -1.0429
   17SAPS  C316 2252   0.513   4.704   5.066 -0.4782 -0.2767  1.0684
   17SAPS  H16X 2253   0.464   4.606   5.083 -1.5724  0.0243 -0.2456
   17SAPS  H16Y 2254   0.482   4.738   4.965 -0.2178  0.0070  1.0806
   17SAPS  C317 2255   0.446   4.797   5.161  0.5014  0.3486  0.8738
   17SAPS  H17X 2256   0.496   4.897   5.161 -1.0308  1.1784 -0.7560
   17SAPS  H17Y 2257   0.468   4.750   5.259  0.7868 -1.1886  0.1012
   17SAPS  C318 2258   0.294   4.820   5.129  0.1564 -0.1861  0.4259
   17SAPS  H18X 2259   0.244   4.752   5.201  0.8913 -1.1165  0.0741
   17SAPS  H18Y 2260   0.268   4.805   5.022  0.6738 -0.3254  0.3192
   17SAPS  H18Z 2261   0.249   4.921   5.145 -2.5848 -1.3062  0.3608
   18SAPS     N 2262   5.227   0.003   3.009  0.4570 -0.8581  0.3671
   18SAPS   HN1 2263   5.188   0.052   2.925  1.9881 -2.6705 -1.5025
   18SAPS   HN2 2264   5.156  -0.057   3.055  0.2184 -0.6281  0.3039
   18SAPS   HN3 2265   5.251   0.081   3.073 -0.5576 -1.3608  1.3763
   18SAPS   C12 2266   5.346  -0.083   2.982 -0.1536 -0.6854  0.2404
   18SAPS  H12A 2267   5.390  -0.119   3.074  2.0565 -0.7097 -0.7726
   18SAPS   C13 2268   5.329  -0.212   2.890  0.2738 -0.1479  0.2256
   18SAPS  O13A 2269   5.220  -0.244   2.838  0.2315  0.8509 -1.0216
   18SAPS  O13B 2270   5.437  -0.278   2.887  0.3019  0.2157 -0.1399
   18SAPS   C11 2271   5.452   0.005   2.925 -0.6859 -0.0166 -0.5077
   18SAPS  H11A 2272   5.547  -0.051   2.916 -0.1893  0.6782  0.2396
   18SAPS  H11B 2273   5.474   0.087   2.996 -1.3474  0.1024 -0.4334
   18SAPS     P 2274   5.482   0.174   2.730 -0.0604 -0.1531  0.1527
   18SAPS   O13 2275   5.621   0.186   2.787 -0.5198 -0.8674  0.1873
   18SAPS   O14 2276   5.468   0.159   2.579  0.2863  0.3469 -1.1179
   18SAPS   O12 2277   5.409   0.052   2.796 -0.0016 -0.2993  0.0011
   18SAPS   O11 2278   5.382   0.296   2.775  0.3612  0.3771  0.2773
   18SAPS    C1 2279   5.410   0.423   2.817  0.0218  0.2380  0.8903
   18SAPS    HA 2280   5.508   0.457   2.776 -0.4598  0.8132  0.1981
   18SAPS    HB 2281   5.338   0.494   2.771  0.4334  0.9699  1.3587
   18SAPS    C2 2282   5.402   0.440   2.970 -0.9668  0.1387 -0.0899
   18SAPS    HS 2283   5.420   0.545   3.002 -0.1274 -0.7419  2.5760
   18SAPS   O21 2284   5.493   0.355   3.040 -0.4998  0.1857  0.4494
   18SAPS   C21 2285   5.626   0.388   3.018  0.0409  0.0480  0.3516
   18SAPS   O22 2286   5.665   0.491   2.971  0.6000 -0.0457 -0.1134
   18SAPS   C22 2287   5.705   0.279   3.099 -1.0924  0.4092  0.2158
   18SAPS   H2R 2288   5.658   0.247   3.194 -1.2833  3.2652  1.1891
   18SAPS   H2S 2289   5.712   0.191   3.032  0.2242  0.0829  0.7363
   18SAPS    C3 2290   5.258   0.406   3.014 -0.7748 -0.6568  0.9852
   18SAPS    HX 2291   5.223   0.309   2.972 -0.3112 -0.4067 -0.0283
   18SAPS    HY 2292   5.192   0.480   2.963 -0.8614  0.9319  3.2883
   18SAPS   O31 2293   5.234   0.416   3.150  0.1443 -0.1177 -0.1664
   18SAPS   C31 2294   5.263   0.313   3.224  0.5750  0.2922 -0.1827
   18SAPS   O32 2295   5.286   0.196   3.189  0.6168 -0.5039 -0.6411
   18SAPS   C32 2296   5.259   0.357   3.366  0.4514  0.9598 -0.2110
   18SAPS   H2X 2297   5.154   0.363   3.402 -0.1519  0.0887 -1.7128
   18SAPS   H2Y 2298   5.304   0.458   3.369 -1.1641  1.7238 -0.8186
   18SAPS   C23 2299   5.858   0.320   3.124 -0.8806  0.4960  1.2919
   18SAPS   H3R 2300   5.896   0.404   3.062 -0.7051 -1.3145 -1.2154
   18SAPS   H3S 2301   5.932   0.240   3.104 -0.0296  1.8378 -1.4034
   18SAPS   C24 2302   5.893   0.367   3.272  0.4451 -0.2378 -0.0916
   18SAPS   H4R 2303   6.003   0.358   3.283  0.4770  0.7076  0.4875
   18SAPS   H4S 2304   5.847   0.286   3.332  0.0155 -0.5629 -0.8417
   18SAPS   C25 2305   5.838   0.507   3.305 -0.2544 -0.1078  0.2703
   18SAPS   H5R 2306   5.839   0.583   3.225  1.4085  1.1952  1.4558
   18SAPS   C26 2307   5.790   0.544   3.425  0.1993 -0.5861 -0.7208
   18SAPS   H6R 2308   5.767   0.649   3.446 -1.0725 -1.3217  1.9289
   18SAPS   C27 2309   5.778   0.462   3.549  0.4752 -0.0299 -0.8727
   18SAPS   H7R 2310   5.799   0.354   3.539  0.1276 -0.3157  1.0769
   18SAPS   H7S 2311   5.672   0.465   3.582  1.3013 -0.8214  2.1477
   18SAPS   C28 2312   5.876   0.508   3.662  0.3615  0.6203  1.2571
   18SAPS   H8R 2313   5.982   0.517   3.633 -0.3808  1.9655 -1.3800
   18SAPS   C29 2314   5.842   0.540   3.783  0.3082  0.0776 -0.1407
   18SAPS   H9R 2315   5.922   0.573   3.851  0.5364 -0.5915 -0.0728
   18SAPS  C210 2316   5.704   0.540   3.840  0.1638  0.2437 -0.1706
   18SAPS  H10R 2317   5.633   0.477   3.781  0.7341 -0.3712 -0.2093
   18SAPS  H10S 2318   5.670   0.645   3.834  1.0176  0.8316  3.1727
   18SAPS  C211 2319   5.702   0.501   3.986 -0.0412  0.0598 -0.5003
   18SAPS  H11R 2320   5.736   0.400   4.011  2.1594  0.7574 -0.4427
   18SAPS  C212 2321   5.675   0.578   4.093 -0.1970  0.2666  0.8053
   18SAPS  H12R 2322   5.699   0.538   4.192 -0.2244 -0.3526  0.5646
   18SAPS  C213 2323   5.643   0.723   4.090  0.0429 -0.2655 -0.0532
   18SAPS  H13R 2324   5.615   0.762   3.990 -0.4982  0.9430  0.5503
   18SAPS  H13S 2325   5.734   0.777   4.123  0.7246  0.1761 -2.4729
   18SAPS  C214 2326   5.525   0.759   4.178 -0.2368  0.3589  0.3590
   18SAPS  H14R 2327   5.555   0.815   4.268  1.8603 -1.0497  0.6194
   18SAPS  C215 2328   5.390   0.751   4.146  0.2154 -0.0656  0.1188
   18SAPS  H15R 2329   5.324   0.793   4.223  0.8978  2.8970 -0.7853
   18SAPS  C216 2330   5.332   0.704   4.012 -0.1947  0.0866  0.4974
   18SAPS  H16R 2331   5.240   0.649   4.040  0.1949 -1.2051 -0.6102
   18SAPS  H16S 2332   5.413   0.634   3.981  0.9696  1.4414  0.3449
   18SAPS  C217 2333   5.300   0.801   3.902  0.1509 -0.6851  0.5894
   18SAPS  H17R 2334   5.395   0.855   3.882  1.1406 -2.8957 -1.0797
   18SAPS  H17S 2335   5.220   0.873   3.931  0.3428 -0.9965  1.9294
   18SAPS  C218 2336   5.267   0.736   3.764 -0.4536 -0.5217 -0.0034
   18SAPS  H18R 2337   5.350   0.675   3.723  1.1426  1.0251  0.7825
   18SAPS  H18S 2338   5.262   0.827   3.700 -0.9818  1.4378  2.6140
   18SAPS  C219 2339   5.142   0.651   3.762 -0.0623  1.1105  0.6562
   18SAPS  H19R 2340   5.055   0.695   3.814 -0.2887  1.5455 -0.0867
   18SAPS  H19S 2341   5.178   0.561   3.816  1.1441 -0.0727 -1.9153
   18SAPS  C220 2342   5.102   0.606   3.616 -0.9400  0.1388 -0.0109
   18SAPS  H20R 2343   5.022   0.529   3.619 -0.6210 -0.1848  0.5860
   18SAPS  H20S 2344   5.197   0.570   3.570 -0.9123 -0.8019  0.7462
   18SAPS  H20T 2345   5.068   0.696   3.561  2.6143  1.0008 -1.0931
   18SAPS   C33 2346   5.335   0.262   3.463  0.6183  0.2783 -0.8373
   18SAPS   H3X 2347   5.435   0.230   3.427  1.3509 -0.3057  1.5375
   18SAPS   H3Y 2348   5.273   0.171   3.478 -0.1679  0.7702 -1.0386
   18SAPS   C34 2349   5.345   0.312   3.607  0.1659 -0.1187 -0.3579
   18SAPS   H4X 2350   5.256   0.369   3.641  1.4039 -0.1773  3.3952
   18SAPS   H4Y 2351   5.433   0.380   3.613  1.8169 -2.0362 -1.4617
   18SAPS   C35 2352   5.370   0.195   3.710  0.0313  0.5353 -1.0946
   18SAPS   H5X 2353   5.440   0.118   3.670 -1.3232 -1.9019  0.9521
   18SAPS   H5Y 2354   5.275   0.140   3.729  1.4050 -2.0297 -1.1368
   18SAPS   C36 2355   5.412   0.258   3.843 -0.8081 -1.3332  0.3531
   18SAPS   H6X 2356   5.328   0.323   3.876 -1.5168 -0.0040 -3.6053
   18SAPS   H6Y 2357   5.496   0.328   3.822 -0.5540 -2.3447 -2.3114
   18SAPS   C37 2358   5.432   0.161   3.964 -0.4431  0.7631 -0.3029
   18SAPS   H7X 2359   5.521   0.100   3.937  0.4649  1.8292  0.1813
   18SAPS   H7Y 2360   5.343   0.094   3.964  0.0080  0.0604 -2.6891
   18SAPS   C38 2361   5.445   0.223   4.107  0.1647 -0.3373 -0.3536
   18SAPS   H8X 2362   5.495   0.322   4.097  0.1683 -0.2697  0.3202
   18SAPS   H8Y 2363   5.515   0.166   4.171  1.3245  0.8328 -0.5218
   18SAPS   C39 2364   5.309   0.226   4.176 -0.1265 -0.1012 -0.5270
   18SAPS   H9X 2365   5.244   0.136   4.179 -0.3638  0.0764 -0.1553
   18SAPS   H9Y 2366   5.251   0.298   4.115 -1.5820 -1.9695 -1.4361
   18SAPS  C310 2367   5.316   0.289   4.319 -0.6799  0.1369 -0.1897
   18SAPS  H10X 2368   5.362   0.216   4.389 -1.1994  0.6456  0.7004
   18SAPS  H10Y 2369   5.213   0.301   4.357  0.4503  3.6252  2.2473
   18SAPS  C311 2370   5.393   0.422   4.338 -0.3286  0.1106 -0.0794
   18SAPS  H11X 2371   5.332   0.502   4.289 -2.2935 -0.8142  0.7910
   18SAPS  H11Y 2372   5.490   0.412   4.285  0.2208  0.8558  0.7445
   18SAPS  C312 2373   5.417   0.441   4.489 -0.4888  0.1771 -0.3949
   18SAPS  H12X 2374   5.474   0.358   4.534 -0.1416  0.0322 -1.0980
   18SAPS  H12Y 2375   5.318   0.431   4.540 -0.1338 -2.0838 -0.0704
   18SAPS  C313 2376   5.486   0.572   4.534 -0.3662 -0.3742 -0.1134
   18SAPS  H13X 2377   5.488   0.582   4.645  1.5606  0.3577 -0.1919
   18SAPS  H13Y 2378   5.423   0.653   4.491  2.3144  1.7983 -0.1377
   18SAPS  C314 2379   5.626   0.595   4.482  0.1741 -1.1595  0.5095
   18SAPS  H14X 2380   5.612   0.577   4.373 -0.1818 -1.0245  0.5300
   18SAPS  H14Y 2381   5.695   0.520   4.526  2.3126  0.7594  0.5921
   18SAPS  C315 2382   5.675   0.730   4.530 -0.0430 -0.5456  0.9423
   18SAPS  H15X 2383   5.609   0.808   4.486  1.6952  0.9861  0.9162
   18SAPS  H15Y 2384   5.780   0.748   4.497 -0.5016 -0.4661 -0.5190
   18SAPS  C316 2385   5.684   0.743   4.688 -0.2630 -0.0799  0.6969
   18SAPS  H16X 2386   5.712   0.648   4.737 -2.1949 -0.4418  1.2149
   18SAPS  H16Y 2387   5.581   0.767   4.723 -1.2514 -2.3169 -0.4687
   18SAPS  C317 2388   5.779   0.855   4.740  0.4656 -0.1025 -0.1200
   18SAPS  H17X 2389   5.882   0.817   4.725 -0.6797 -3.4192 -0.3136
   18SAPS  H17Y 2390   5.770   0.878   4.848  0.0246  3.9006 -0.8359
   18SAPS  C318 2391   5.752   0.996   4.674  0.5847  0.3773  0.3558
   18SAPS  H18X 2392   5.747   0.982   4.564  0.1303 -1.6226  0.5850
   18SAPS  H18Y 2393   5.822   1.077   4.703 -0.1563  0.3106  2.5028
   18SAPS  H18Z 2394   5.651   1.028   4.706  1.2822  2.0528  1.0028
   19SAPS     N 2395   4.832   3.996   2.363  0.0293  0.1576  0.0301
   19SAPS   HN1 2396   4.769   4.066   2.408  1.9120  1.0492  1.4356
   19SAPS   HN2 2397   4.820   3.991   2.260  0.6025  1.3892 -0.1186
   19SAPS   HN3 2398   4.813   3.901   2.401  0.0344  0.0896 -0.1388
   19SAPS   C12 2399   4.974   4.043   2.374  0.1267  0.2375  0.2592
   19SAPS  H12A 2400   5.040   3.971   2.329 -0.9096 -1.1646  0.8991
   19SAPS   C13 2401   5.001   4.173   2.295 -0.1095 -0.1072  0.2019
   19SAPS  O13A 2402   4.914   4.234   2.224  0.3536 -0.5352  0.2579
   19SAPS  O13B 2403   5.117   4.217   2.300 -0.2338 -0.3542 -0.0797
   19SAPS   C11 2404   5.018   4.052   2.528 -0.4794  0.2807 -0.0635
   19SAPS  H11A 2405   4.958   4.131   2.577 -1.7626  0.9715 -2.6037
   19SAPS  H11B 2406   5.125   4.082   2.521 -0.7767  1.3331 -0.2758
   19SAPS     P 2407   5.085   3.860   2.694 -0.2817 -0.3261 -0.1106
   19SAPS   O13 2408   5.041   3.719   2.697  0.1917 -0.8951 -0.3978
   19SAPS   O14 2409   5.231   3.882   2.681  0.3077 -0.4818 -0.1459
   19SAPS   O12 2410   5.003   3.926   2.585 -0.6646  0.0928  0.0529
   19SAPS   O11 2411   5.033   3.930   2.825  0.3098 -0.2509 -0.5384
   19SAPS    C1 2412   4.890   3.955   2.832 -0.4399  0.1601  1.1308
   19SAPS    HA 2413   4.860   4.044   2.773  1.9394  1.5669  1.9051
   19SAPS    HB 2414   4.828   3.875   2.786  2.4403 -1.6349  0.0652
   19SAPS    C2 2415   4.843   3.973   2.979 -0.1890  0.5730  0.0350
   19SAPS    HS 2416   4.734   3.991   2.973 -0.5255 -1.5006 -0.6499
   19SAPS   O21 2417   4.912   4.075   3.052  0.3645 -0.3157 -0.0019
   19SAPS   C21 2418   4.866   4.197   3.021 -0.6055  0.0134 -0.2431
   19SAPS   O22 2419   4.773   4.216   2.943  0.5371  0.8243  0.3049
   19SAPS   C22 2420   4.955   4.318   3.089  0.2696  0.3738  0.8815
   19SAPS   H2R 2421   4.926   4.323   3.196 -1.6960 -1.1941  0.4763
   19SAPS   H2S 2422   5.063   4.295   3.079  0.4995 -0.1460  3.7064
   19SAPS    C3 2423   4.865   3.836   3.053  0.0755 -0.6609  0.1512
   19SAPS    HX 2424   4.969   3.800   3.037  0.1750  0.2557 -1.5061
   19SAPS    HY 2425   4.801   3.755   3.011  0.1331 -0.7804  0.2935
   19SAPS   O31 2426   4.839   3.848   3.193  0.2967 -0.1712 -0.4554
   19SAPS   C31 2427   4.714   3.835   3.238 -0.7671  0.2834 -0.1374
   19SAPS   O32 2428   4.623   3.805   3.171  0.2053 -0.5645  0.2119
   19SAPS   C32 2429   4.698   3.853   3.384  0.6546 -0.7156  0.0112
   19SAPS   H2X 2430   4.757   3.942   3.415 -0.7528 -0.1025  1.0033
   19SAPS   H2Y 2431   4.747   3.766   3.434 -1.1044 -0.5145  2.2509
   19SAPS   C23 2432   4.925   4.457   3.028  0.1552  0.2749 -0.0819
   19SAPS   H3R 2433   4.817   4.476   3.048  0.5837  0.8577  1.9510
   19SAPS   H3S 2434   4.937   4.465   2.918  2.8147  0.9474  0.1913
   19SAPS   C24 2435   5.010   4.561   3.094  0.0560  0.1822 -0.4237
   19SAPS   H4R 2436   5.009   4.550   3.204  0.5967  0.3752 -0.3978
   19SAPS   H4S 2437   4.953   4.654   3.071 -3.1388 -1.5425 -0.1411
   19SAPS   C25 2438   5.151   4.577   3.047 -0.4474  0.8128 -0.1010
   19SAPS   H5R 2439   5.173   4.515   2.959 -1.6064 -2.4596  1.7438
   19SAPS   C26 2440   5.241   4.664   3.090  0.2316  0.2531 -0.5165
   19SAPS   H6R 2441   5.341   4.665   3.044 -0.2544  0.7214 -1.6051
   19SAPS   C27 2442   5.236   4.753   3.211  0.0341  0.0577  0.4231
   19SAPS   H7R 2443   5.138   4.805   3.206 -0.5086 -0.9553  0.0410
   19SAPS   H7S 2444   5.315   4.831   3.214 -2.1804  2.4067  2.2754
   19SAPS   C28 2445   5.251   4.672   3.342  0.4818 -0.8278 -0.0654
   19SAPS   H8R 2446   5.336   4.602   3.333  0.2476 -1.3290  1.3688
   19SAPS   C29 2447   5.164   4.646   3.437  1.2449  0.7451 -0.3243
   19SAPS   H9R 2448   5.211   4.578   3.509  0.0653  0.4248  0.1777
   19SAPS  C210 2449   5.024   4.701   3.464  0.4268  0.6475 -0.3335
   19SAPS  H10R 2450   4.956   4.683   3.378  0.0100 -0.5378  0.2122
   19SAPS  H10S 2451   5.033   4.811   3.477  2.8592  0.4178  0.4666
   19SAPS  C211 2452   4.978   4.619   3.586  0.5549 -0.1012  0.3556
   19SAPS  H11R 2453   5.009   4.657   3.684  1.7150  1.2092 -0.4783
   19SAPS  C212 2454   4.891   4.517   3.594 -0.1214 -0.8331  0.1919
   19SAPS  H12R 2455   4.882   4.448   3.680 -1.8016 -0.0216  0.7126
   19SAPS  C213 2456   4.813   4.459   3.479 -0.0821  0.1965  0.0924
   19SAPS  H13R 2457   4.819   4.349   3.491  1.2433  0.0517 -1.5332
   19SAPS  H13S 2458   4.873   4.465   3.386  0.3173 -1.1731  0.2438
   19SAPS  C214 2459   4.673   4.512   3.452  0.3997 -0.3642  0.5392
   19SAPS  H14R 2460   4.667   4.617   3.419 -1.6197 -0.9153 -1.0773
   19SAPS  C215 2461   4.555   4.447   3.464 -0.8389  0.2523  0.2429
   19SAPS  H15R 2462   4.458   4.492   3.438 -1.8687 -1.5326  0.8291
   19SAPS  C216 2463   4.539   4.298   3.494  0.4425 -0.2296  0.2991
   19SAPS  H16R 2464   4.490   4.274   3.591  1.3620 -3.2154  0.1327
   19SAPS  H16S 2465   4.634   4.241   3.497 -0.6250 -2.2776 -1.6051
   19SAPS  C217 2466   4.435   4.247   3.383  0.2857  0.8924 -0.1305
   19SAPS  H17R 2467   4.343   4.309   3.386 -1.1824 -1.2080  0.1593
   19SAPS  H17S 2468   4.403   4.143   3.404  1.4932  0.6040  0.4173
   19SAPS  C218 2469   4.515   4.224   3.251  0.5960 -0.5067  0.0533
   19SAPS  H18R 2470   4.600   4.160   3.282  2.4381  1.1209 -1.3683
   19SAPS  H18S 2471   4.557   4.321   3.217  0.8972 -1.2224 -1.6871
   19SAPS  C219 2472   4.438   4.154   3.140 -0.3076  0.0336 -0.6306
   19SAPS  H19R 2473   4.398   4.061   3.185 -0.2322  0.9379  1.3963
   19SAPS  H19S 2474   4.510   4.132   3.058  1.3173  2.6540 -0.0401
   19SAPS  C220 2475   4.327   4.236   3.063 -0.3865 -0.3902 -1.0784
   19SAPS  H20R 2476   4.256   4.291   3.128  0.9227 -0.7309  0.6979
   19SAPS  H20S 2477   4.255   4.182   2.997 -0.8431 -1.2088  0.0494
   19SAPS  H20T 2478   4.376   4.313   3.001 -1.3459  0.4316 -0.8367
   19SAPS   C33 2479   4.553   3.854   3.430  0.2420  0.3645  1.3573
   19SAPS   H3X 2480   4.502   3.760   3.399  1.3988  0.4544 -1.0706
   19SAPS   H3Y 2481   4.504   3.940   3.380  2.0600  1.8382  2.0066
   19SAPS   C34 2482   4.544   3.912   3.576  0.1997  1.1366 -0.0678
   19SAPS   H4X 2483   4.450   3.881   3.626  0.8928 -1.2887 -0.1497
   19SAPS   H4Y 2484   4.559   4.023   3.576  1.6447  0.9710 -0.2761
   19SAPS   C35 2485   4.653   3.853   3.674 -0.2901  0.1394  0.6301
   19SAPS   H5X 2486   4.751   3.898   3.647 -0.5368 -0.0848 -0.7440
   19SAPS   H5Y 2487   4.644   3.743   3.667  0.1624 -0.1451  3.5790
   19SAPS   C36 2488   4.612   3.887   3.814  0.3427 -0.4408 -0.1710
   19SAPS   H6X 2489   4.512   3.851   3.846 -0.1127  1.2738  0.4794
   19SAPS   H6Y 2490   4.596   3.997   3.824  0.0705 -0.0779 -3.4755
   19SAPS   C37 2491   4.722   3.847   3.923 -0.5024  0.0707 -0.0182
   19SAPS   H7X 2492   4.819   3.889   3.888  0.4385 -1.1829  0.9899
   19SAPS   H7Y 2493   4.739   3.738   3.937  0.8829  0.3517  0.7069
   19SAPS   C38 2494   4.684   3.911   4.057  0.1048  0.4124  0.2614
   19SAPS   H8X 2495   4.574   3.894   4.069  0.0856 -1.2539 -1.6647
   19SAPS   H8Y 2496   4.706   4.020   4.052  3.2801 -0.1858 -1.2336
   19SAPS   C39 2497   4.752   3.852   4.180  0.0307 -0.0820  0.4233
   19SAPS   H9X 2498   4.861   3.874   4.170  0.1139 -1.2818 -2.5604
   19SAPS   H9Y 2499   4.740   3.741   4.177  0.6749 -0.1619  0.5529
   19SAPS  C310 2500   4.704   3.903   4.312 -0.4778 -0.3786  0.5259
   19SAPS  H10X 2501   4.595   3.897   4.291 -0.4784  1.0888 -0.0845
   19SAPS  H10Y 2502   4.726   4.012   4.312  0.8378 -0.4763 -3.4128
   19SAPS  C311 2503   4.740   3.814   4.436 -0.6190  0.0077  0.1896
   19SAPS  H11X 2504   4.850   3.798   4.431 -0.2834  2.2365 -1.0117
   19SAPS  H11Y 2505   4.683   3.724   4.405 -0.4218  0.3537 -1.2560
   19SAPS  C312 2506   4.692   3.876   4.565  0.6706 -0.2268 -0.2315
   19SAPS  H12X 2507   4.731   3.811   4.646  0.4596 -1.4374 -1.0692
   19SAPS  H12Y 2508   4.582   3.862   4.563  0.5918 -0.2501  1.8299
   19SAPS  C313 2509   4.733   4.023   4.588 -0.6115 -0.3173 -0.2843
   19SAPS  H13X 2510   4.710   4.058   4.692 -0.9091  0.7475 -0.6881
   19SAPS  H13Y 2511   4.679   4.090   4.517  1.2215  0.2591 -1.1936
   19SAPS  C314 2512   4.886   4.033   4.567  0.0683 -0.3200 -0.3676
   19SAPS  H14X 2513   4.910   4.023   4.459 -0.7536 -0.6721 -0.5198
   19SAPS  H14Y 2514   4.927   3.943   4.617 -1.2982 -0.3826  0.6914
   19SAPS  C315 2515   4.939   4.163   4.629  0.4083  0.8324  0.4610
   19SAPS  H15X 2516   4.873   4.250   4.610 -1.6416 -0.6507  0.3985
   19SAPS  H15Y 2517   5.037   4.191   4.584 -0.4649  2.7852 -0.3388
   19SAPS  C316 2518   4.954   4.145   4.784  0.7881  0.4544 -0.3430
   19SAPS  H16X 2519   4.964   4.036   4.802 -1.0342  0.0994 -1.1647
   19SAPS  H16Y 2520   4.874   4.190   4.847  1.5284 -0.5010  1.3185
   19SAPS  C317 2521   5.080   4.222   4.835 -0.1735 -0.2844 -0.8955
   19SAPS  H17X 2522   5.059   4.331   4.836  0.3482 -0.1729  0.5885
   19SAPS  H17Y 2523   5.163   4.190   4.769  0.1357 -2.2259  0.3340
   19SAPS  C318 2524   5.110   4.186   4.987 -0.4741  0.6503  0.8121
   19SAPS  H18X 2525   5.012   4.198   5.036 -2.4152  1.3331 -2.8503
   19SAPS  H18Y 2526   5.189   4.254   5.024  0.4564  2.2167 -3.4373
   19SAPS  H18Z 2527   5.143   4.079   4.988 -1.2589  0.3940  0.5078
   20SAPS     N 2528   6.454   0.132   2.693  0.1464  0.1705 -0.0579
   20SAPS   HN1 2529   6.361   0.178   2.688 -0.3510 -0.5960  1.5798
   20SAPS   HN2 2530   6.477   0.128   2.794 -1.0408 -0.0091  0.2088
   20SAPS   HN3 2531   6.520   0.197   2.645 -1.2992  1.0064 -0.9784
   20SAPS   C12 2532   6.427   0.005   2.624  0.2758 -0.8210 -0.3419
   20SAPS  H12A 2533   6.336   0.007   2.566 -0.0795 -0.4866  0.2155
   20SAPS   C13 2534   6.533  -0.041   2.520 -0.3807  0.2897  0.2508
   20SAPS  O13A 2535   6.641   0.014   2.514 -0.3011 -0.4465 -0.1324
   20SAPS  O13B 2536   6.514  -0.151   2.457  0.1345 -0.3122  0.0170
   20SAPS   C11 2537   6.416  -0.102   2.738  0.0355 -0.2854  0.5990
   20SAPS  H11A 2538   6.512  -0.109   2.793  0.5680 -0.3075 -0.3086
   20SAPS  H11B 2539   6.403  -0.204   2.695  0.1706 -1.1452  2.5053
   20SAPS     P 2540   6.295  -0.158   2.956 -0.2117  0.2334  0.1407
   20SAPS   O13 2541   6.150  -0.168   2.986  0.4154  0.7641 -0.6915
   20SAPS   O14 2542   6.352  -0.290   2.945 -0.2279 -0.0052  0.2611
   20SAPS   O12 2543   6.305  -0.074   2.826  0.3685 -0.3425  1.0898
   20SAPS   O11 2544   6.371  -0.063   3.058 -0.2844  0.5558 -0.3268
   20SAPS    C1 2545   6.293   0.002   3.162 -0.3205 -0.5913  0.1998
   20SAPS    HA 2546   6.347   0.095   3.191 -0.0196 -0.4599 -0.7303
   20SAPS    HB 2547   6.195   0.039   3.125 -0.5386  0.2049  1.5137
   20SAPS    C2 2548   6.275  -0.092   3.289 -0.3438  0.8269 -0.7420
   20SAPS    HS 2549   6.216  -0.180   3.255 -0.6565  1.0388 -0.7429
   20SAPS   O21 2550   6.212  -0.016   3.392  0.6191 -0.2640  0.8762
   20SAPS   C21 2551   6.092  -0.046   3.421 -0.4108  0.3860  0.1633
   20SAPS   O22 2552   6.026  -0.138   3.380  0.1330  0.3503  0.1309
   20SAPS   C22 2553   6.020   0.063   3.506  0.1849 -0.1098  0.4479
   20SAPS   H2R 2554   5.932   0.099   3.448  0.6367  2.6919  1.3662
   20SAPS   H2S 2555   5.971   0.016   3.594 -1.8555  0.2358 -0.4342
   20SAPS    C3 2556   6.413  -0.139   3.347  0.3562  0.3632 -0.5409
   20SAPS    HX 2557   6.465  -0.043   3.366 -0.2145  1.0325 -2.2221
   20SAPS    HY 2558   6.471  -0.196   3.271  2.7703 -2.0918  2.8210
   20SAPS   O31 2559   6.399  -0.225   3.464 -0.3712  0.2694  0.6616
   20SAPS   C31 2560   6.368  -0.354   3.439  1.0435 -0.0843  0.7970
   20SAPS   O32 2561   6.352  -0.397   3.329  0.1125 -0.1564  0.3413
   20SAPS   C32 2562   6.336  -0.430   3.563 -0.1176  0.8324 -0.6961
   20SAPS   H2X 2563   6.430  -0.425   3.623  0.1902 -1.2137 -0.9423
   20SAPS   H2Y 2564   6.321  -0.538   3.544  1.1383  0.4316  0.3776
   20SAPS   C23 2565   6.108   0.189   3.539  0.0911 -0.0954 -0.3026
   20SAPS   H3R 2566   6.038   0.258   3.590  0.9401  0.3190  0.3263
   20SAPS   H3S 2567   6.137   0.232   3.441  0.6459  2.4929  0.9056
   20SAPS   C24 2568   6.227   0.163   3.638 -0.5396  0.7054  0.0368
   20SAPS   H4R 2569   6.314   0.116   3.588 -1.1562  0.1253 -0.5161
   20SAPS   H4S 2570   6.190   0.089   3.712  0.4944  0.4971  0.3625
   20SAPS   C25 2571   6.276   0.289   3.707 -0.5013 -0.3254 -0.0957
   20SAPS   H5R 2572   6.335   0.357   3.644  0.7659 -0.7437  0.5992
   20SAPS   C26 2573   6.254   0.320   3.836 -0.0319 -0.1221 -0.3563
   20SAPS   H6R 2574   6.285   0.423   3.861 -0.8778  0.7313 -2.5670
   20SAPS   C27 2575   6.186   0.238   3.945  1.0262 -0.3141 -0.0167
   20SAPS   H7R 2576   6.218   0.279   4.043  0.1022 -0.3912  0.3305
   20SAPS   H7S 2577   6.226   0.134   3.953 -1.0326 -1.1082  0.6819
   20SAPS   C28 2578   6.032   0.221   3.930  0.3373  0.1508  0.5441
   20SAPS   H8R 2579   5.990   0.225   3.829  3.6519 -2.4293 -1.1173
   20SAPS   C29 2580   5.946   0.217   4.032  0.5008  0.5468 -0.4228
   20SAPS   H9R 2581   5.839   0.224   4.009  0.3538  1.4738  0.4441
   20SAPS  C210 2582   5.978   0.207   4.179  0.1207 -0.8681 -0.1298
   20SAPS  H10R 2583   6.087   0.216   4.195  0.0282 -0.8321  0.5032
   20SAPS  H10S 2584   5.970   0.102   4.213  0.6321 -0.7981  0.1989
   20SAPS  C211 2585   5.900   0.299   4.273 -0.5862 -0.4857 -0.0167
   20SAPS  H11R 2586   5.818   0.253   4.330  0.5542 -0.3069  1.8483
   20SAPS  C212 2587   5.937   0.428   4.299 -0.6094 -0.2717 -0.4029
   20SAPS  H12R 2588   5.876   0.485   4.370 -0.2600  0.7253 -0.8827
   20SAPS  C213 2589   6.053   0.506   4.247  0.2263  0.0201 -0.1931
   20SAPS  H13R 2590   6.142   0.439   4.245 -0.5785 -1.0585 -0.4922
   20SAPS  H13S 2591   6.085   0.581   4.323 -0.4948 -0.6259  0.7844
   20SAPS  C214 2592   6.037   0.571   4.119 -0.6973  0.0275  0.0111
   20SAPS  H14R 2593   5.950   0.532   4.064 -0.6966 -1.2329  0.8682
   20SAPS  C215 2594   6.119   0.659   4.059  0.0473 -0.2750  0.3175
   20SAPS  H15R 2595   6.091   0.687   3.957  1.1690 -0.4200 -0.0448
   20SAPS  C216 2596   6.251   0.703   4.115  0.6699 -0.0717 -0.3120
   20SAPS  H16R 2597   6.236   0.710   4.225 -1.1610  3.1027 -0.6318
   20SAPS  H16S 2598   6.269   0.811   4.093  2.7476  0.0763  1.7099
   20SAPS  C217 2599   6.375   0.623   4.076  0.5302 -0.6256 -0.0491
   20SAPS  H17R 2600   6.387   0.630   3.965  0.6043  4.0164  0.0697
   20SAPS  H17S 2601   6.376   0.521   4.121  0.4834 -1.9731 -2.8644
   20SAPS  C218 2602   6.502   0.684   4.124 -0.0170 -0.1124  0.1039
   20SAPS  H18R 2603   6.515   0.789   4.089  0.5644  0.4546  1.8596
   20SAPS  H18S 2604   6.589   0.632   4.079 -1.0363 -0.5228 -1.4442
   20SAPS  C219 2605   6.523   0.696   4.278  0.0013  0.4032  0.3362
   20SAPS  H19R 2606   6.438   0.760   4.310 -0.1042 -0.2299  1.3272
   20SAPS  H19S 2607   6.619   0.747   4.301 -0.8734  2.2181  0.1701
   20SAPS  C220 2608   6.522   0.561   4.362 -0.0431 -0.2636  0.1084
   20SAPS  H20R 2609   6.437   0.493   4.340  0.0294  0.2807 -2.0016
   20SAPS  H20S 2610   6.524   0.595   4.468 -2.4773 -1.1075  0.4979
   20SAPS  H20T 2611   6.615   0.508   4.332  0.6409  0.6965  0.4637
   20SAPS   C33 2612   6.202  -0.390   3.635 -0.1936  0.0690  0.4255
   20SAPS   H3X 2613   6.123  -0.372   3.559  1.3607 -1.9034 -1.8176
   20SAPS   H3Y 2614   6.222  -0.290   3.678 -0.6880  0.6276 -0.6253
   20SAPS   C34 2615   6.163  -0.490   3.746  0.6256  0.6990 -0.5545
   20SAPS   H4X 2616   6.247  -0.494   3.819 -0.0048 -0.9845  0.1327
   20SAPS   H4Y 2617   6.161  -0.594   3.708 -0.8279  0.3457  0.4012
   20SAPS   C35 2618   6.023  -0.465   3.811  0.3455  0.4662  0.0375
   20SAPS   H5X 2619   5.964  -0.506   3.727  2.3523 -2.1542 -0.2376
   20SAPS   H5Y 2620   6.005  -0.357   3.831  0.0746  0.2913  0.7923
   20SAPS   C36 2621   6.019  -0.549   3.942 -0.2244 -0.1442 -0.0371
   20SAPS   H6X 2622   6.104  -0.519   4.006  0.1920  0.9255 -1.0482
   20SAPS   H6Y 2623   6.038  -0.654   3.910 -1.3875 -0.5062  0.4291
   20SAPS   C37 2624   5.889  -0.526   4.027  0.2281 -0.6171 -0.1528
   20SAPS   H7X 2625   5.809  -0.547   3.953  1.2221 -0.8777 -1.1650
   20SAPS   H7Y 2626   5.887  -0.425   4.075  1.7730 -2.0565  3.2539
   20SAPS   C38 2627   5.889  -0.626   4.147  0.1225  0.3422 -0.3977
   20SAPS   H8X 2628   5.994  -0.648   4.176  0.3736  1.9181 -0.0102
   20SAPS   H8Y 2629   5.850  -0.726   4.118  0.8200  0.0018 -0.1931
   20SAPS   C39 2630   5.815  -0.586   4.272  0.6571  0.0743  0.1900
   20SAPS   H9X 2631   5.710  -0.612   4.248  0.7268 -1.0213  1.0024
   20SAPS   H9Y 2632   5.812  -0.475   4.277 -1.0154  0.0994 -0.9001
   20SAPS  C310 2633   5.850  -0.650   4.402  0.2309 -0.1205 -0.5194
   20SAPS  H10X 2634   5.961  -0.647   4.409  0.2495  1.2169 -1.1523
   20SAPS  H10Y 2635   5.816  -0.756   4.410 -1.5140  0.3733 -1.0567
   20SAPS  C311 2636   5.785  -0.581   4.523  0.2291 -0.5772 -0.1313
   20SAPS  H11X 2637   5.677  -0.571   4.498 -0.6660 -0.1606  3.3493
   20SAPS  H11Y 2638   5.838  -0.484   4.523 -0.1671 -0.3579 -0.3502
   20SAPS  C312 2639   5.797  -0.652   4.660 -0.5949  0.1369  1.0823
   20SAPS  H12X 2640   5.901  -0.689   4.674 -0.4635  0.0922  0.0730
   20SAPS  H12Y 2641   5.731  -0.741   4.652  1.8218 -1.8707  2.1415
   20SAPS  C313 2642   5.759  -0.573   4.785  0.6175 -0.4138  0.0722
   20SAPS  H13X 2643   5.824  -0.485   4.801  0.5656 -0.6208  1.5609
   20SAPS  H13Y 2644   5.766  -0.651   4.864 -0.2146 -1.7390 -1.1157
   20SAPS  C314 2645   5.614  -0.507   4.778 -0.0095 -0.2132  0.5427
   20SAPS  H14X 2646   5.564  -0.539   4.684 -0.4549  0.3109  0.6003
   20SAPS  H14Y 2647   5.623  -0.397   4.787  1.6239 -0.3851  1.4274
   20SAPS  C315 2648   5.512  -0.559   4.881 -0.3459  0.1703  0.1263
   20SAPS  H15X 2649   5.484  -0.663   4.853 -1.5845  0.6021 -0.3180
   20SAPS  H15Y 2650   5.426  -0.490   4.863  0.0593 -0.1514 -3.9767
   20SAPS  C316 2651   5.568  -0.556   5.023  0.1972 -0.0833  0.7104
   20SAPS  H16X 2652   5.572  -0.448   5.051 -1.5347  0.7915 -2.0144
   20SAPS  H16Y 2653   5.672  -0.593   5.022  0.1895 -0.1209 -0.7528
   20SAPS  C317 2654   5.499  -0.642   5.123  0.4018 -0.1503 -0.5603
   20SAPS  H17X 2655   5.527  -0.743   5.086  1.9377 -0.5781  1.5802
   20SAPS  H17Y 2656   5.390  -0.625   5.119  0.1740 -0.7292  1.6901
   20SAPS  C318 2657   5.549  -0.641   5.266  0.0499  0.1195  0.1872
   20SAPS  H18X 2658   5.656  -0.655   5.292  0.5066  1.7664 -0.6474
   20SAPS  H18Y 2659   5.485  -0.709   5.327  0.2277  0.8549  1.2159
   20SAPS  H18Z 2660   5.532  -0.541   5.313  2.2818  0.5420  0.1919
   21CHL1    C3 2661   5.346   3.091   6.309  0.2627 -0.3925  0.1408
   21CHL1    H3 2662   5.318   2.985   6.290 -2.7334  0.3737 -0.1291
   21CHL1    O3 2663   5.326   3.121   6.445 -0.5324 -0.1046 -0.1374
   21CHL1   H3' 2664   5.360   3.207   6.468 -0.4776 -0.2672  0.3868
   21CHL1    C4 2665   5.495   3.121   6.266  0.3883  0.8603  0.3422
   21CHL1   H4A 2666   5.522   3.223   6.298  2.6402  0.8808 -1.3738
   21CHL1   H4B 2667   5.560   3.055   6.327  2.4135  0.9764 -1.5859
   21CHL1    C5 2668   5.513   3.103   6.111 -0.2014  0.0718 -0.9261
   21CHL1    C6 2669   5.602   3.013   6.061 -0.8832 -0.2940 -0.4858
   21CHL1    H6 2670   5.663   2.949   6.127 -0.8251 -0.2786 -0.5241
   21CHL1    C7 2671   5.635   3.007   5.910  0.2648  0.0938 -0.8288
   21CHL1   H7A 2672   5.743   2.983   5.900  0.4953 -0.2491  1.7757
   21CHL1   H7B 2673   5.587   2.910   5.884  3.3730 -1.6101 -0.6435
   21CHL1    C8 2674   5.580   3.124   5.829  0.0423 -0.5984 -0.9895
   21CHL1    H8 2675   5.647   3.213   5.839 -1.1297  0.2863 -0.7656
   21CHL1   C14 2676   5.577   3.097   5.675 -0.9587  0.6685  0.4581
   21CHL1   H14 2677   5.512   3.008   5.666  0.8167 -0.7168  0.6660
   21CHL1   C15 2678   5.708   3.065   5.596 -0.9807  0.0973 -0.0465
   21CHL1  H15A 2679   5.785   3.136   5.634  0.0431  0.3677 -2.4643
   21CHL1  H15B 2680   5.731   2.957   5.604 -0.5427  0.1328 -0.7355
   21CHL1   C16 2681   5.681   3.102   5.450  0.3209 -0.8595 -0.3797
   21CHL1  H16A 2682   5.758   3.174   5.414 -0.0707 -1.6331 -2.9404
   21CHL1  H16B 2683   5.676   3.021   5.374 -1.1379  1.5479 -3.0467
   21CHL1   C17 2684   5.538   3.165   5.445 -0.3810  0.2550  0.2120
   21CHL1   H17 2685   5.466   3.080   5.439  1.1367 -1.1882  1.6286
   21CHL1   C13 2686   5.507   3.207   5.594 -0.1925  0.0970 -0.0693
   21CHL1   C18 2687   5.578   3.340   5.603 -0.0034  0.1984  0.2864
   21CHL1  H18A 2688   5.516   3.417   5.553 -0.8043 -1.2224 -0.9685
   21CHL1  H18B 2689   5.584   3.361   5.712 -1.1517 -0.4210  0.4838
   21CHL1  H18C 2690   5.677   3.337   5.553 -0.6948  2.8351 -1.4286
   21CHL1   C12 2691   5.359   3.204   5.636  0.0185  0.3141  0.2488
   21CHL1  H12A 2692   5.295   3.262   5.567 -2.5329 -2.3436  0.1767
   21CHL1  H12B 2693   5.325   3.099   5.622 -1.1546  0.9342 -1.9764
   21CHL1   C11 2694   5.353   3.241   5.787  0.0573 -0.1473 -0.5272
   21CHL1  H11A 2695   5.394   3.344   5.787  0.6865 -0.3874 -1.1921
   21CHL1  H11B 2696   5.247   3.245   5.818 -0.0854 -0.3166 -0.9818
   21CHL1    C9 2697   5.438   3.152   5.876  0.4777 -0.2315 -0.0072
   21CHL1    H9 2698   5.384   3.057   5.856  4.1232 -2.2037 -1.3713
   21CHL1   C10 2699   5.423   3.183   6.026  0.4510 -0.5358  0.3420
   21CHL1   C19 2700   5.444   3.338   6.047  0.2938 -0.6082 -0.1433
   21CHL1  H19A 2701   5.549   3.363   6.018  0.1173  2.3765  1.3687
   21CHL1  H19B 2702   5.375   3.400   5.986 -0.5307  0.7527  2.0441
   21CHL1  H19C 2703   5.433   3.373   6.152  0.7026  1.1566 -0.6586
   21CHL1    C1 2704   5.278   3.157   6.071 -0.1206  0.7349 -0.2262
   21CHL1   H1A 2705   5.209   3.225   6.016 -4.0869 -0.1134  3.2260
   21CHL1   H1B 2706   5.242   3.058   6.035 -0.2904  0.0679  1.6762
   21CHL1    C2 2707   5.246   3.169   6.218 -0.6708  0.4235  0.3560
   21CHL1   H2A 2708   5.150   3.124   6.250  0.3940 -1.0973  1.6208
   21CHL1   H2B 2709   5.251   3.273   6.257  0.8807 -0.0024  1.4106
   21CHL1   C20 2710   5.494   3.262   5.328  0.1803  0.0250  0.0569
   21CHL1   H20 2711   5.397   3.305   5.358 -0.9358 -3.1048  1.3744
   21CHL1   C21 2712   5.458   3.184   5.196 -0.0125  0.3108 -0.3415
   21CHL1  H21A 2713   5.432   3.243   5.105  0.8265 -1.3913 -1.7426
   21CHL1  H21B 2714   5.369   3.119   5.211  1.8352 -2.8675 -2.0452
   21CHL1  H21C 2715   5.543   3.120   5.164  0.6947  0.8630  0.3747
   21CHL1   C22 2716   5.598   3.371   5.283  0.2070  0.2529  0.8378
   21CHL1  H22A 2717   5.623   3.427   5.376  1.1065  1.1975  0.0571
   21CHL1  H22B 2718   5.694   3.322   5.254 -0.6068 -0.5477 -0.6197
   21CHL1   C23 2719   5.530   3.470   5.181 -1.0377  0.2820 -0.0787
   21CHL1  H23A 2720   5.508   3.418   5.086  0.6051  2.1859 -1.5933
   21CHL1  H23B 2721   5.438   3.518   5.221 -1.4548  1.4133 -2.2792
   21CHL1   C24 2722   5.623   3.587   5.142 -0.1085 -0.0697  0.3231
   21CHL1  H24A 2723   5.671   3.647   5.223 -0.6231  0.8149 -0.0057
   21CHL1  H24B 2724   5.716   3.548   5.095 -0.5940 -1.0966  0.1998
   21CHL1   C25 2725   5.561   3.679   5.037 -0.0760 -0.5530 -0.8801
   21CHL1   H25 2726   5.535   3.623   4.944 -0.2060 -0.1669 -1.0803
   21CHL1   C26 2727   5.426   3.745   5.093 -0.2921 -0.1245 -0.0333
   21CHL1  H26A 2728   5.355   3.661   5.109  0.4461 -0.2164  3.4682
   21CHL1  H26B 2729   5.459   3.789   5.189  1.3237  0.0540 -0.6343
   21CHL1  H26C 2730   5.396   3.821   5.017 -0.3361  0.8498  0.9447
   21CHL1   C27 2731   5.673   3.783   5.007  0.1713  0.3332 -0.2530
   21CHL1  H27A 2732   5.627   3.853   4.934  0.3465  1.9222  1.1040
   21CHL1  H27B 2733   5.707   3.851   5.088 -3.0010 -0.2443  1.7334
   21CHL1  H27C 2734   5.754   3.727   4.956  1.0479  0.8219  0.5589
   22CHL1    C3 2735   5.913   1.677   6.600 -0.1551  0.0643 -0.0573
   22CHL1    H3 2736   6.019   1.643   6.605  0.5144  1.7472 -1.5792
   22CHL1    O3 2737   5.862   1.676   6.732 -0.3094  0.1123  0.5909
   22CHL1   H3' 2738   5.766   1.681   6.730 -0.3683 -0.7991 -1.0024
   22CHL1    C4 2739   5.908   1.824   6.552  0.5230 -0.0388 -0.1980
   22CHL1   H4A 2740   5.804   1.861   6.559  0.6115  0.3784 -0.9537
   22CHL1   H4B 2741   5.965   1.894   6.617 -1.2586  3.1327 -1.7946
   22CHL1    C5 2742   5.946   1.839   6.409 -0.3436  0.7738 -0.1478
   22CHL1    C6 2743   6.053   1.909   6.370  1.1225 -0.5566 -0.0940
   22CHL1    H6 2744   6.105   1.970   6.445 -1.3588  0.6135  0.7867
   22CHL1    C7 2745   6.102   1.928   6.235  0.4904  0.9141  0.6804
   22CHL1   H7A 2746   6.129   2.035   6.221  0.1686  1.0978  1.4342
   22CHL1   H7B 2747   6.197   1.871   6.225 -0.6533 -1.0195  0.2753
   22CHL1    C8 2748   5.999   1.874   6.131 -1.0566  0.6088 -0.0418
   22CHL1    H8 2749   5.916   1.947   6.117 -2.3839 -0.7768  0.4099
   22CHL1   C14 2750   6.067   1.864   5.998 -0.5375  0.5037  0.6861
   22CHL1   H14 2751   6.145   1.785   6.015 -2.2779 -1.2455  0.9310
   22CHL1   C15 2752   6.123   1.994   5.934 -0.3373  0.2746  0.3751
   22CHL1  H15A 2753   6.035   2.062   5.938 -0.1445  0.4789  1.3752
   22CHL1  H15B 2754   6.214   2.036   5.982 -1.1679  0.8441  1.5248
   22CHL1   C16 2755   6.150   1.952   5.783 -0.4986  1.1981  0.1410
   22CHL1  H16A 2756   6.094   2.026   5.721 -3.1285 -1.3578 -0.7928
   22CHL1  H16B 2757   6.256   1.931   5.759 -0.7941  0.0351 -0.1816
   22CHL1   C17 2758   6.084   1.814   5.766  0.2763  0.6988  0.0892
   22CHL1   H17 2759   6.156   1.733   5.789  0.8257  1.5769  1.6028
   22CHL1   C13 2760   5.987   1.803   5.887 -0.1703 -0.1839 -0.0501
   22CHL1   C18 2761   5.861   1.885   5.848 -0.2472  0.2288 -0.0285
   22CHL1  H18A 2762   5.798   1.823   5.782  0.2857 -0.5272  0.1563
   22CHL1  H18B 2763   5.793   1.894   5.936  0.1128 -1.7578  0.5005
   22CHL1  H18C 2764   5.880   1.979   5.792 -1.5017 -0.0347 -0.9230
   22CHL1   C12 2765   5.943   1.664   5.929 -0.3909  0.2229 -0.3676
   22CHL1  H12A 2766   5.874   1.633   5.847  0.1919 -0.3070 -0.6636
   22CHL1  H12B 2767   6.024   1.589   5.937  0.6728  1.2835 -0.9852
   22CHL1   C11 2768   5.861   1.667   6.059  0.2738 -0.0043 -0.4713
   22CHL1  H11A 2769   5.762   1.717   6.056 -2.1823 -4.5006 -1.6318
   22CHL1  H11B 2770   5.844   1.564   6.097 -1.3832  1.0709  1.9922
   22CHL1    C9 2771   5.945   1.737   6.172 -0.0301 -0.3389 -0.7672
   22CHL1    H9 2772   6.037   1.681   6.200  1.3766  2.1940 -0.0001
   22CHL1   C10 2773   5.871   1.747   6.308  0.2251 -0.5082 -0.1826
   22CHL1   C19 2774   5.730   1.804   6.288  0.3788  1.0446 -1.1707
   22CHL1  H19A 2775   5.657   1.731   6.245  1.6836 -0.1982 -1.3520
   22CHL1  H19B 2776   5.685   1.840   6.383 -0.9709 -2.3239 -0.3810
   22CHL1  H19C 2777   5.731   1.898   6.229 -0.4942  0.6979 -1.7719
   22CHL1    C1 2778   5.870   1.601   6.366  0.6834 -0.4035 -0.7094
   22CHL1   H1A 2779   5.800   1.541   6.304  1.3040 -1.8888 -0.0261
   22CHL1   H1B 2780   5.970   1.557   6.341 -0.5660 -3.6250 -0.5227
   22CHL1    C2 2781   5.825   1.594   6.513  0.7188  0.5693  0.9239
   22CHL1   H2A 2782   5.814   1.487   6.542 -0.5131  0.1493 -0.9461
   22CHL1   H2B 2783   5.718   1.619   6.529  1.0870  3.4040 -0.3143
   22CHL1   C20 2784   6.040   1.780   5.623 -0.5690 -0.1259  0.2161
   22CHL1   H20 2785   5.944   1.832   5.600 -0.2897  0.3959  0.2089
   22CHL1   C21 2786   6.010   1.629   5.615 -0.4132  0.0992 -0.0649
   22CHL1  H21A 2787   6.081   1.558   5.663  1.6040  1.6721 -0.5400
   22CHL1  H21B 2788   6.011   1.597   5.508  0.1734 -0.2716  0.0426
   22CHL1  H21C 2789   5.911   1.605   5.659  0.0112 -0.5692  0.5388
   22CHL1   C22 2790   6.145   1.820   5.524  0.3379 -0.3076  0.0648
   22CHL1  H22A 2791   6.146   1.932   5.525  0.0299 -0.3044  0.7148
   22CHL1  H22B 2792   6.249   1.787   5.545  0.3003 -0.6385 -0.2727
   22CHL1   C23 2793   6.113   1.790   5.374  0.7662  0.0121 -0.1426
   22CHL1  H23A 2794   6.120   1.680   5.358 -0.1402 -0.1147  0.2383
   22CHL1  H23B 2795   6.012   1.829   5.348  0.9822 -0.4765 -1.7918
   22CHL1   C24 2796   6.221   1.844   5.285  0.5893  0.0192 -0.1829
   22CHL1  H24A 2797   6.237   1.950   5.315 -3.0546  0.4775  0.5972
   22CHL1  H24B 2798   6.314   1.789   5.310  0.5882 -0.6211 -1.4697
   22CHL1   C25 2799   6.201   1.806   5.137  0.1649 -0.2703  0.7809
   22CHL1   H25 2800   6.160   1.703   5.129 -1.5573  0.4219  0.3176
   22CHL1   C26 2801   6.099   1.891   5.061  0.6737  0.4876  0.0205
   22CHL1  H26A 2802   6.010   1.918   5.123  1.3489  2.8664  0.0610
   22CHL1  H26B 2803   6.158   1.985   5.054 -0.6392  1.5629  2.0927
   22CHL1  H26C 2804   6.087   1.842   4.962  0.5095 -0.8565  0.6810
   22CHL1   C27 2805   6.328   1.793   5.048  0.3774 -0.1988 -0.3467
   22CHL1  H27A 2806   6.400   1.719   5.090  1.6402  0.3595 -1.4537
   22CHL1  H27B 2807   6.303   1.766   4.943 -0.1694  0.4538 -0.3888
   22CHL1  H27C 2808   6.380   1.890   5.044  3.0898 -1.5459 -0.1968
   23CHL1    C3 2809   4.495   2.241   6.225  0.0842 -0.1183 -0.6461
   23CHL1    H3 2810   4.414   2.166   6.221 -0.9090  0.9467 -1.0417
   23CHL1    O3 2811   4.522   2.265   6.361  0.2740  0.6323  0.0264
   23CHL1   H3' 2812   4.575   2.191   6.393  0.9945  0.6665 -1.0451
   23CHL1    C4 2813   4.628   2.192   6.161 -0.1997  0.2982 -0.6952
   23CHL1   H4A 2814   4.706   2.259   6.201 -0.3060 -0.7874  1.5112
   23CHL1   H4B 2815   4.651   2.092   6.203  0.8671  1.3350  1.3201
   23CHL1    C5 2816   4.624   2.194   6.013 -0.3763 -0.1163 -0.4479
   23CHL1    C6 2817   4.660   2.087   5.945 -0.4773  0.6169  0.4316
   23CHL1    H6 2818   4.703   1.999   5.995  2.0109  2.0403  0.9729
   23CHL1    C7 2819   4.671   2.082   5.792 -0.0757 -0.5734  0.3372
   23CHL1   H7A 2820   4.749   2.010   5.758 -0.4662 -1.1036  0.5450
   23CHL1   H7B 2821   4.578   2.036   5.751  0.6609 -2.7217  0.9360
   23CHL1    C8 2822   4.677   2.228   5.732  0.4109  0.6343  0.0496
   23CHL1    H8 2823   4.771   2.275   5.769  0.7942 -1.3097  1.6881
   23CHL1   C14 2824   4.657   2.219   5.580  0.8088  0.0369 -0.7133
   23CHL1   H14 2825   4.560   2.166   5.567  0.5552  0.6870 -1.5546
   23CHL1   C15 2826   4.765   2.142   5.500 -0.0263 -0.7450  0.4454
   23CHL1  H15A 2827   4.866   2.162   5.544 -0.2053  2.3583 -0.3285
   23CHL1  H15B 2828   4.743   2.034   5.490 -1.8573 -0.2747 -1.2259
   23CHL1   C16 2829   4.772   2.213   5.364  0.2684 -0.1339 -0.5326
   23CHL1  H16A 2830   4.873   2.256   5.348  0.5081 -0.1945  0.7111
   23CHL1  H16B 2831   4.758   2.139   5.283  1.8573 -1.1761  0.0906
   23CHL1   C17 2832   4.657   2.316   5.364 -0.3861 -0.4955  0.1802
   23CHL1   H17 2833   4.572   2.250   5.336  1.3050 -1.7428 -2.4434
   23CHL1   C13 2834   4.647   2.357   5.515 -0.1375 -0.1485  0.1722
   23CHL1   C18 2835   4.774   2.447   5.551 -0.1527 -0.5738 -0.3852
   23CHL1  H18A 2836   4.865   2.424   5.491 -0.0691 -0.6684 -0.2218
   23CHL1  H18B 2837   4.743   2.550   5.524  0.0217 -0.0702  1.2185
   23CHL1  H18C 2838   4.798   2.451   5.659 -0.9252  0.4483 -0.2334
   23CHL1   C12 2839   4.523   2.430   5.569  0.0607 -0.0215 -0.0904
   23CHL1  H12A 2840   4.518   2.538   5.543 -0.9449  0.2677  1.2118
   23CHL1  H12B 2841   4.424   2.391   5.538 -0.5015  1.5184 -0.2964
   23CHL1   C11 2842   4.523   2.444   5.728 -0.3711 -0.3831 -0.3227
   23CHL1  H11A 2843   4.605   2.518   5.742 -0.5929 -0.3595  0.9463
   23CHL1  H11B 2844   4.427   2.485   5.765  1.8915  2.2716  3.2080
   23CHL1    C9 2845   4.560   2.314   5.797  0.0406 -0.1664  0.8490
   23CHL1    H9 2846   4.474   2.245   5.782  0.4999 -0.8396  1.2034
   23CHL1   C10 2847   4.581   2.327   5.947  0.1355 -1.4139 -0.3210
   23CHL1   C19 2848   4.690   2.432   5.981 -0.3807 -0.1405 -0.3732
   23CHL1  H19A 2849   4.723   2.422   6.087  0.8291 -1.9795 -0.8829
   23CHL1  H19B 2850   4.777   2.416   5.914 -1.3205  1.1732 -1.9609
   23CHL1  H19C 2851   4.643   2.531   5.961 -0.1325 -0.0642 -0.5825
   23CHL1    C1 2852   4.449   2.369   6.018  0.0459  0.1776 -0.0536
   23CHL1   H1A 2853   4.426   2.475   5.992 -0.4587  0.1022  0.0818
   23CHL1   H1B 2854   4.371   2.300   5.980  0.7604  0.8058 -2.9494
   23CHL1    C2 2855   4.450   2.372   6.172  0.6129 -0.4903  0.2900
   23CHL1   H2A 2856   4.351   2.396   6.217 -0.4947 -1.5443 -1.4526
   23CHL1   H2B 2857   4.520   2.454   6.198  0.8040 -1.0181  1.4879
   23CHL1   C20 2858   4.664   2.429   5.264  0.3017 -0.6391 -0.0448
   23CHL1   H20 2859   4.709   2.521   5.307 -0.8658  0.4103 -0.9990
   23CHL1   C21 2860   4.519   2.455   5.222 -0.0665  0.4875  0.3305
   23CHL1  H21A 2861   4.521   2.558   5.179  3.3232  0.9315  1.2219
   23CHL1  H21B 2862   4.452   2.446   5.309  0.8049 -0.5345  0.9165
   23CHL1  H21C 2863   4.499   2.367   5.157 -0.1599  0.6648  0.1196
   23CHL1   C22 2864   4.760   2.393   5.144 -0.3363  0.0932 -0.0859
   23CHL1  H22A 2865   4.859   2.358   5.180 -0.7892 -1.3595 -0.1852
   23CHL1  H22B 2866   4.706   2.307   5.100 -0.6581 -0.5286  1.4538
   23CHL1   C23 2867   4.772   2.520   5.049  0.3441 -0.3966 -0.7696
   23CHL1  H23A 2868   4.669   2.554   5.024  0.0243  1.5136  2.6454
   23CHL1  H23B 2869   4.814   2.602   5.110  0.7978  0.2064 -1.8625
   23CHL1   C24 2870   4.860   2.503   4.924  0.5841 -0.1217 -0.1809
   23CHL1  H24A 2871   4.860   2.599   4.868 -1.4624 -0.1148 -0.2234
   23CHL1  H24B 2872   4.967   2.483   4.946  0.3729  0.8985  2.0880
   23CHL1   C25 2873   4.811   2.386   4.829  0.3105  0.1091 -0.4322
   23CHL1   H25 2874   4.801   2.295   4.892  1.6924 -0.2106 -0.6378
   23CHL1   C26 2875   4.665   2.422   4.780 -0.3091 -0.0559 -0.6715
   23CHL1  H26A 2876   4.634   2.345   4.706  1.0680 -0.6727 -0.6366
   23CHL1  H26B 2877   4.599   2.432   4.869 -2.5236 -2.3482 -1.8956
   23CHL1  H26C 2878   4.668   2.525   4.740  2.2328  0.7474  1.3089
   23CHL1   C27 2879   4.906   2.362   4.709 -0.5127 -0.8787  0.4534
   23CHL1  H27A 2880   4.905   2.454   4.647 -0.8774 -0.5899  0.8806
   23CHL1  H27B 2881   5.006   2.331   4.747 -0.2049  2.3365  2.6059
   23CHL1  H27C 2882   4.863   2.272   4.659 -0.1582 -0.9194  0.2188
   24CHL1    C3 2883   5.476   1.501   6.331 -0.4342 -0.5803  0.0620
   24CHL1    H3 2884   5.580   1.537   6.342 -1.5497  3.0656 -0.0720
   24CHL1    O3 2885   5.400   1.516   6.445 -0.3052  0.0808  0.0257
   24CHL1   H3' 2886   5.316   1.477   6.421  0.3987 -1.1305 -0.6239
   24CHL1    C4 2887   5.401   1.563   6.214 -0.1516  0.4540  0.4179
   24CHL1   H4A 2888   5.297   1.526   6.222 -0.0305 -0.1712 -0.6999
   24CHL1   H4B 2889   5.410   1.669   6.247  1.9999  0.4133  0.1232
   24CHL1    C5 2890   5.462   1.537   6.079  0.6002  0.4126  0.6862
   24CHL1    C6 2891   5.485   1.638   5.990  0.2660 -0.8753  0.1376
   24CHL1    H6 2892   5.443   1.734   6.022  1.1046 -0.4440 -0.0193
   24CHL1    C7 2893   5.532   1.631   5.848  0.4233  0.0833  0.1217
   24CHL1   H7A 2894   5.465   1.699   5.791 -1.6456 -0.7025  1.4959
   24CHL1   H7B 2895   5.633   1.675   5.836  0.0076  0.5929 -1.8234
   24CHL1    C8 2896   5.530   1.486   5.802  0.3493  0.7706  0.4746
   24CHL1    H8 2897   5.429   1.460   5.765  0.1715  0.0511  1.4340
   24CHL1   C14 2898   5.616   1.468   5.677  0.6522 -0.1153  0.7204
   24CHL1   H14 2899   5.718   1.492   5.714  0.7660 -0.5144  0.6620
   24CHL1   C15 2900   5.581   1.552   5.558  0.6794  0.1075 -0.3584
   24CHL1  H15A 2901   5.477   1.540   5.522  0.8978  1.3851 -1.5280
   24CHL1  H15B 2902   5.621   1.655   5.564 -2.0936  1.1992  0.8712
   24CHL1   C16 2903   5.656   1.487   5.441  0.0662 -0.3665  0.3927
   24CHL1  H16A 2904   5.601   1.466   5.347  1.5841 -2.7628 -0.0578
   24CHL1  H16B 2905   5.740   1.556   5.417 -1.6283  1.6910  0.0859
   24CHL1   C17 2906   5.705   1.343   5.496  0.2032  0.4506 -0.5786
   24CHL1   H17 2907   5.808   1.357   5.535  0.9379 -3.2027 -0.7901
   24CHL1   C13 2908   5.626   1.315   5.623 -0.2749  0.4903 -0.3021
   24CHL1   C18 2909   5.488   1.263   5.588  0.3041 -0.1845  0.0892
   24CHL1  H18A 2910   5.492   1.153   5.574  0.3095 -0.2673  0.7095
   24CHL1  H18B 2911   5.417   1.294   5.667 -0.2543  0.9692 -0.8250
   24CHL1  H18C 2912   5.449   1.301   5.491  0.5846  0.2494  0.1379
   24CHL1   C12 2913   5.684   1.231   5.739 -0.3973  0.2112 -0.0473
   24CHL1  H12A 2914   5.681   1.127   5.701  0.3745  0.8148 -1.9015
   24CHL1  H12B 2915   5.786   1.269   5.761 -0.6391  0.9770 -0.2143
   24CHL1   C11 2916   5.602   1.241   5.868  1.2205  0.1643  0.5977
   24CHL1  H11A 2917   5.505   1.193   5.843  2.3591 -0.6599 -2.7021
   24CHL1  H11B 2918   5.661   1.179   5.939 -2.7001 -0.6026  3.5359
   24CHL1    C9 2919   5.574   1.389   5.912  0.5064  0.6707 -0.1671
   24CHL1    H9 2920   5.679   1.418   5.936  1.8018  0.8283 -4.9923
   24CHL1   C10 2921   5.486   1.401   6.039 -0.8973  0.1032  0.3868
   24CHL1   C19 2922   5.353   1.326   6.004  0.3787 -1.1169  0.7000
   24CHL1  H19A 2923   5.297   1.375   5.922  1.1967 -2.3355 -0.6223
   24CHL1  H19B 2924   5.365   1.221   5.969 -0.1595 -1.0227  0.2180
   24CHL1  H19C 2925   5.289   1.325   6.095  0.0428 -0.0484  0.4882
   24CHL1    C1 2926   5.555   1.325   6.154  1.0323  0.0039 -0.1950
   24CHL1   H1A 2927   5.558   1.216   6.130  1.2643 -0.1252  0.4131
   24CHL1   H1B 2928   5.662   1.353   6.170  1.3212 -1.8825  1.5445
   24CHL1    C2 2929   5.485   1.346   6.289  0.3128  0.7520 -0.5160
   24CHL1   H2A 2930   5.529   1.291   6.375 -0.6878 -1.7352 -1.4899
   24CHL1   H2B 2931   5.380   1.311   6.292  1.0312 -1.6118  3.0818
   24CHL1   C20 2932   5.713   1.235   5.384 -0.0771  0.5223 -0.0703
   24CHL1   H20 2933   5.606   1.213   5.365 -0.3002  0.5553  1.0737
   24CHL1   C21 2934   5.774   1.104   5.448 -0.0261 -0.7823  0.2854
   24CHL1  H21A 2935   5.861   1.121   5.515 -0.5591  0.7377  0.6455
   24CHL1  H21B 2936   5.817   1.044   5.365  0.1905  0.0759 -0.2398
   24CHL1  H21C 2937   5.692   1.048   5.498 -0.4359 -0.7788 -0.3643
   24CHL1   C22 2938   5.788   1.290   5.263 -0.4286 -0.1751  0.2319
   24CHL1  H22A 2939   5.804   1.214   5.185 -1.2889 -0.3758  0.2403
   24CHL1  H22B 2940   5.731   1.370   5.210  0.0187 -0.1902 -0.2770
   24CHL1   C23 2941   5.923   1.352   5.294 -0.1243 -0.3617 -1.1877
   24CHL1  H23A 2942   5.913   1.444   5.356 -2.1228 -0.2336 -1.6317
   24CHL1  H23B 2943   5.987   1.284   5.356 -0.4660 -0.0512 -0.4781
   24CHL1   C24 2944   5.993   1.395   5.166  0.0070  0.8356  0.5006
   24CHL1  H24A 2945   6.086   1.452   5.189  1.9539 -1.9886  0.1436
   24CHL1  H24B 2946   6.023   1.304   5.111 -0.3807  0.1001  1.4810
   24CHL1   C25 2947   5.921   1.485   5.064  0.1063  0.0094 -0.1145
   24CHL1   H25 2948   5.833   1.435   5.018 -1.1362  0.3884  1.7350
   24CHL1   C26 2949   5.877   1.614   5.127  0.9246 -0.6660  0.7183
   24CHL1  H26A 2950   5.859   1.686   5.044 -0.7072 -4.2015 -2.2877
   24CHL1  H26B 2951   5.783   1.606   5.185  0.6628  1.8567  0.7834
   24CHL1  H26C 2952   5.957   1.653   5.193  1.8925 -1.2965 -0.0521
   24CHL1   C27 2953   6.016   1.519   4.947 -0.9112 -0.4818  0.2656
   24CHL1  H27A 2954   6.063   1.425   4.911 -1.1819 -0.6840  0.4326
   24CHL1  H27B 2955   5.955   1.555   4.861 -0.8380 -1.8606 -0.3898
   24CHL1  H27C 2956   6.093   1.596   4.970  0.9067 -1.2062 -2.8627
   25CHL1    C3 2957   2.699   5.686   6.587 -0.1845  0.7561 -0.4246
   25CHL1    H3 2958   2.791   5.723   6.637 -1.7568  2.2488  1.4995
   25CHL1    O3 2959   2.639   5.618   6.700 -0.1352  0.2582  0.7159
   25CHL1   H3' 2960   2.616   5.693   6.755 -1.7800  0.0849  0.2922
   25CHL1    C4 2961   2.613   5.799   6.540  0.1348 -0.2791 -0.2028
   25CHL1   H4A 2962   2.513   5.756   6.517  0.5717 -1.2471 -0.3423
   25CHL1   H4B 2963   2.603   5.856   6.635  1.0486 -0.8948  0.2805
   25CHL1    C5 2964   2.661   5.882   6.418 -0.2586  1.1333  0.0742
   25CHL1    C6 2965   2.676   6.020   6.428 -0.1717 -0.5356  0.0554
   25CHL1    H6 2966   2.648   6.078   6.517  0.4125 -0.7303  0.3661
   25CHL1    C7 2967   2.729   6.101   6.314  0.8967  0.2399 -0.0464
   25CHL1   H7A 2968   2.671   6.196   6.312  0.1316 -0.2020  0.5458
   25CHL1   H7B 2969   2.837   6.119   6.334  0.5018  0.9367  1.6381
   25CHL1    C8 2970   2.709   6.027   6.179  0.5515  0.3325  0.1722
   25CHL1    H8 2971   2.601   6.020   6.156  1.0042 -1.7652 -1.7975
   25CHL1   C14 2972   2.781   6.108   6.070  0.1404 -0.1838 -0.1599
   25CHL1   H14 2973   2.885   6.110   6.109 -0.5221 -0.1424  1.7113
   25CHL1   C15 2974   2.732   6.255   6.037 -0.4768  1.2716 -0.5289
   25CHL1  H15A 2975   2.625   6.284   6.032 -0.7015  0.4068 -0.8147
   25CHL1  H15B 2976   2.772   6.328   6.110 -0.3714  0.2701  0.4364
   25CHL1   C16 2977   2.797   6.282   5.901  0.0947  0.3985  0.7220
   25CHL1  H16A 2978   2.728   6.342   5.838 -0.2867  1.3548  2.0087
   25CHL1  H16B 2979   2.880   6.356   5.906  0.2640  0.1677  1.6246
   25CHL1   C17 2980   2.849   6.146   5.848 -0.0700  0.7792 -0.3398
   25CHL1   H17 2981   2.949   6.124   5.893 -0.5092 -1.0550 -0.1640
   25CHL1   C13 2982   2.781   6.036   5.935 -0.8693  0.2849 -0.0259
   25CHL1   C18 2983   2.639   6.017   5.890  0.0457  0.1112 -0.6109
   25CHL1  H18A 2984   2.625   5.974   5.788  0.3482  0.1015 -0.6474
   25CHL1  H18B 2985   2.588   5.953   5.965  3.3185 -2.1563 -0.1329
   25CHL1  H18C 2986   2.577   6.109   5.884 -0.7751 -0.4757 -1.6965
   25CHL1   C12 2987   2.855   5.908   5.948 -0.3792  0.7073  0.3440
   25CHL1  H12A 2988   2.873   5.855   5.852  1.5657 -0.8651  1.4893
   25CHL1  H12B 2989   2.958   5.921   5.986 -0.7164  0.3698  1.4269
   25CHL1   C11 2990   2.796   5.815   6.044  0.0898 -0.1607  0.3616
   25CHL1  H11A 2991   2.694   5.784   6.013 -0.3369  0.8537  0.7079
   25CHL1  H11B 2992   2.852   5.722   6.068 -0.0498  0.1087  1.8711
   25CHL1    C9 2993   2.764   5.883   6.187  0.1978  0.0177 -0.4621
   25CHL1    H9 2994   2.864   5.905   6.230  0.6846 -1.7984 -0.5795
   25CHL1   C10 2995   2.697   5.795   6.291  0.2823  0.2701  0.3896
   25CHL1   C19 2996   2.564   5.740   6.228 -0.2368  0.1804 -0.2349
   25CHL1  H19A 2997   2.499   5.683   6.297  0.2491  1.1536  1.0622
   25CHL1  H19B 2998   2.508   5.826   6.185  1.0691  0.8226 -0.7154
   25CHL1  H19C 2999   2.580   5.679   6.137 -0.5117 -1.9935  1.1182
   25CHL1    C1 3000   2.788   5.677   6.348  0.7549 -0.1010 -0.5832
   25CHL1   H1A 3001   2.821   5.605   6.271  2.9156 -2.5379  2.3915
   25CHL1   H1B 3002   2.881   5.715   6.395 -0.2414  0.5338  0.9629
   25CHL1    C2 3003   2.728   5.598   6.467  0.7709 -0.5395 -0.1715
   25CHL1   H2A 3004   2.797   5.521   6.508 -1.1093 -2.8988 -1.1513
   25CHL1   H2B 3005   2.634   5.546   6.435  0.2176 -0.2107  0.8918
   25CHL1   C20 3006   2.864   6.121   5.701  0.4978 -0.6944 -0.6857
   25CHL1   H20 3007   2.867   6.010   5.692 -1.1016 -0.9029  0.8869
   25CHL1   C21 3008   3.004   6.178   5.658 -0.4235 -0.0547 -0.5365
   25CHL1  H21A 3009   3.083   6.142   5.728 -0.0097 -1.4207 -1.6612
   25CHL1  H21B 3010   2.993   6.287   5.643 -0.7209 -0.3254 -2.4928
   25CHL1  H21C 3011   3.030   6.129   5.562  1.2730 -1.5198  0.5963
   25CHL1   C22 3012   2.749   6.181   5.624  0.0366 -1.0952  0.5748
   25CHL1  H22A 3013   2.650   6.165   5.672  0.2676 -0.7914  1.1617
   25CHL1  H22B 3014   2.771   6.290   5.617 -0.3667 -1.0978 -1.1932
   25CHL1   C23 3015   2.735   6.128   5.479  0.0770  0.0504  0.6177
   25CHL1  H23A 3016   2.832   6.124   5.424 -1.3472  2.1682 -2.3230
   25CHL1  H23B 3017   2.709   6.022   5.500 -0.3914  0.1471  0.5348
   25CHL1   C24 3018   2.623   6.189   5.387  0.0654  0.2447 -0.2387
   25CHL1  H24A 3019   2.526   6.175   5.440  0.1913 -1.4261 -0.4242
   25CHL1  H24B 3020   2.655   6.295   5.371 -2.2819  0.9344 -0.7380
   25CHL1   C25 3021   2.628   6.130   5.244  0.1758  0.1575 -0.4852
   25CHL1   H25 3022   2.738   6.132   5.226  0.3624 -0.3464  0.4779
   25CHL1   C26 3023   2.579   5.985   5.251 -0.2106  0.4981  0.1559
   25CHL1  H26A 3024   2.622   5.922   5.332 -2.2590 -1.1977 -0.0029
   25CHL1  H26B 3025   2.468   5.984   5.248 -0.2558  1.1148  1.0260
   25CHL1  H26C 3026   2.625   5.941   5.161  0.0874  0.3127  0.3945
   25CHL1   C27 3027   2.561   6.222   5.142  0.1662 -0.0855 -0.0613
   25CHL1  H27A 3028   2.607   6.193   5.046  2.2395  0.3054  0.7545
   25CHL1  H27B 3029   2.451   6.208   5.142 -0.0137  1.0613 -2.0153
   25CHL1  H27C 3030   2.595   6.326   5.164  1.5222 -0.4148 -0.5412
   26CHL1    C3 3031   5.849   2.402   6.291 -0.1781  0.1653 -0.2745
   26CHL1    H3 3032   5.941   2.448   6.333  0.6667 -1.0528 -0.7021
   26CHL1    O3 3033   5.776   2.364   6.409 -0.1688 -0.4163 -0.3678
   26CHL1   H3' 3034   5.736   2.443   6.446  0.7457  0.3135 -0.8850
   26CHL1    C4 3035   5.775   2.503   6.196 -0.2069 -0.1495  0.0760
   26CHL1   H4A 3036   5.667   2.477   6.185 -1.4807  4.1218  0.8345
   26CHL1   H4B 3037   5.780   2.596   6.256  3.3779 -0.2270  0.1184
   26CHL1    C5 3038   5.825   2.527   6.057 -1.0881 -1.1148 -0.3515
   26CHL1    C6 3039   5.829   2.653   6.014 -0.3733 -0.0565 -0.1146
   26CHL1    H6 3040   5.807   2.735   6.083  1.6941 -0.4863  1.1359
   26CHL1    C7 3041   5.877   2.693   5.877  0.2840  0.0354  0.9218
   26CHL1   H7A 3042   5.806   2.760   5.824 -0.1267 -1.6772 -0.8197
   26CHL1   H7B 3043   5.976   2.743   5.886  0.2163  0.4641 -0.4386
   26CHL1    C8 3044   5.904   2.571   5.783  0.0493 -0.8573 -0.6618
   26CHL1    H8 3045   5.803   2.549   5.743 -0.8493  0.5965  0.6690
   26CHL1   C14 3046   5.998   2.597   5.667 -0.1933  0.3834 -0.1866
   26CHL1   H14 3047   6.098   2.620   5.709  1.0288 -3.8012 -0.3299
   26CHL1   C15 3048   5.976   2.716   5.575 -0.3453 -0.6715 -0.1812
   26CHL1  H15A 3049   5.869   2.732   5.551  0.3846 -1.7687 -5.3249
   26CHL1  H15B 3050   6.002   2.811   5.627  0.0217 -0.9595  0.1698
   26CHL1   C16 3051   6.046   2.695   5.443  0.0349 -0.6076  0.1233
   26CHL1  H16A 3052   5.973   2.698   5.359  1.3558 -0.4982 -1.0533
   26CHL1  H16B 3053   6.120   2.776   5.425 -0.2784 -0.5006 -0.7401
   26CHL1   C17 3054   6.109   2.556   5.454  0.0493 -0.0805 -0.6404
   26CHL1   H17 3055   6.210   2.562   5.500  1.1731 -0.7052 -2.8978
   26CHL1   C13 3056   6.025   2.487   5.571 -0.5556 -0.2068  0.5359
   26CHL1   C18 3057   5.892   2.441   5.507 -0.0619 -0.2353 -0.0343
   26CHL1  H18A 3058   5.836   2.516   5.447 -0.5190 -1.1158 -0.7340
   26CHL1  H18B 3059   5.904   2.352   5.441 -1.1645  0.1729 -0.8149
   26CHL1  H18C 3060   5.825   2.399   5.585 -0.0340 -1.2651 -0.5541
   26CHL1   C12 3061   6.099   2.380   5.643  0.4040  0.0258 -0.8906
   26CHL1  H12A 3062   6.116   2.296   5.571 -1.0544 -0.0277 -1.2079
   26CHL1  H12B 3063   6.196   2.412   5.686 -0.6651  1.3652  0.6453
   26CHL1   C11 3064   6.022   2.340   5.769 -0.0866 -0.7385  0.2343
   26CHL1  H11A 3065   5.940   2.274   5.731 -1.6724  0.9850  0.5034
   26CHL1  H11B 3066   6.091   2.273   5.824  2.2317 -1.2300 -2.9734
   26CHL1    C9 3067   5.976   2.462   5.867 -0.5324 -0.8690 -0.2125
   26CHL1    H9 3068   6.066   2.508   5.913 -1.0925  0.5362 -0.4841
   26CHL1   C10 3069   5.887   2.411   5.983  0.4594 -1.0159 -0.5164
   26CHL1   C19 3070   5.766   2.342   5.926 -0.2824  0.2842  0.2338
   26CHL1  H19A 3071   5.782   2.240   5.884 -4.5871 -1.9015  3.2675
   26CHL1  H19B 3072   5.682   2.316   5.994 -0.0297  0.0171  0.4495
   26CHL1  H19C 3073   5.706   2.391   5.846 -0.7507 -0.8001 -0.1022
   26CHL1    C1 3074   5.968   2.321   6.088  0.0622  0.3665  0.4559
   26CHL1   H1A 3075   5.998   2.230   6.032 -0.4076  1.6828 -2.1283
   26CHL1   H1B 3076   6.055   2.384   6.117  0.0600  0.3320  0.5369
   26CHL1    C2 3077   5.890   2.281   6.215  0.6580  0.3182  0.2655
   26CHL1   H2A 3078   5.943   2.196   6.264 -0.6463 -2.1560 -2.3006
   26CHL1   H2B 3079   5.797   2.226   6.188  1.4308 -1.4059  0.9211
   26CHL1   C20 3080   6.130   2.492   5.318 -0.3024  0.1852 -0.8474
   26CHL1   H20 3081   6.031   2.449   5.290  0.1328 -1.1963 -0.3753
   26CHL1   C21 3082   6.224   2.368   5.338 -0.2684 -0.2750  0.0622
   26CHL1  H21A 3083   6.311   2.414   5.389 -0.4598  0.6197 -0.3883
   26CHL1  H21B 3084   6.263   2.328   5.242 -0.9199  1.5996 -1.0612
   26CHL1  H21C 3085   6.170   2.286   5.390  1.3338 -1.4300 -0.0297
   26CHL1   C22 3086   6.190   2.591   5.209 -0.1343  0.2571  0.6058
   26CHL1  H22A 3087   6.120   2.676   5.194 -0.3715 -0.0631 -0.1476
   26CHL1  H22B 3088   6.283   2.649   5.229 -0.8205  2.8691 -2.7319
   26CHL1   C23 3089   6.216   2.525   5.081 -1.0211  0.2035  0.8352
   26CHL1  H23A 3090   6.310   2.468   5.093 -1.1912 -0.8193 -1.8588
   26CHL1  H23B 3091   6.144   2.450   5.042 -1.0788  0.9723 -0.6220
   26CHL1   C24 3092   6.236   2.631   4.964  0.1362  0.0849  0.0607
   26CHL1  H24A 3093   6.134   2.671   4.950 -0.0481 -0.6001 -0.6468
   26CHL1  H24B 3094   6.306   2.715   4.985 -0.3617  0.7017 -0.6993
   26CHL1   C25 3095   6.283   2.573   4.830  0.1258  0.7470  0.6784
   26CHL1   H25 3096   6.226   2.481   4.801  1.6176  0.1579 -0.5436
   26CHL1   C26 3097   6.251   2.676   4.713 -0.2937 -0.1734 -0.1118
   26CHL1  H26A 3098   6.145   2.710   4.714  0.0489  0.9192  0.3680
   26CHL1  H26B 3099   6.309   2.768   4.736 -3.0295  1.3454  1.2775
   26CHL1  H26C 3100   6.286   2.625   4.621 -3.3536  0.3343 -1.7019
   26CHL1   C27 3101   6.432   2.528   4.844  0.0941 -0.2514 -0.0563
   26CHL1  H27A 3102   6.481   2.486   4.753 -0.6338 -0.5240 -0.3312
   26CHL1  H27B 3103   6.492   2.616   4.877 -0.9449  0.6901 -0.5886
   26CHL1  H27C 3104   6.437   2.445   4.917  1.7868 -0.7722 -0.7040
   27CHL1    C3 3105   4.170   1.717   6.532 -0.9264 -0.3909  0.7888
   27CHL1    H3 3106   4.247   1.798   6.530  0.1626 -1.4004 -0.2303
   27CHL1    O3 3107   4.142   1.661   6.655 -0.2492  0.1193 -0.2853
   27CHL1   H3' 3108   4.079   1.590   6.637  0.5356 -0.3836 -1.1650
   27CHL1    C4 3109   4.049   1.777   6.457 -0.1575  0.5052 -0.1255
   27CHL1   H4A 3110   3.968   1.701   6.458 -1.7860  2.1630  0.6698
   27CHL1   H4B 3111   4.005   1.854   6.523 -1.3816 -0.2865  0.0229
   27CHL1    C5 3112   4.080   1.817   6.317 -0.4204 -0.3165  0.5771
   27CHL1    C6 3113   4.058   1.947   6.288 -0.4699 -0.1409  0.2460
   27CHL1    H6 3114   3.996   2.009   6.353  0.1440  1.6813 -0.8365
   27CHL1    C7 3115   4.092   2.003   6.153 -0.1668 -0.2732  0.1511
   27CHL1   H7A 3116   4.001   2.055   6.114  0.5214  0.3331 -0.6955
   27CHL1   H7B 3117   4.184   2.065   6.156  0.1939 -0.7089 -1.0094
   27CHL1    C8 3118   4.128   1.892   6.046 -0.3320  0.4794 -0.4296
   27CHL1    H8 3119   4.037   1.838   6.015 -1.4644  1.1423  1.5735
   27CHL1   C14 3120   4.177   1.940   5.912 -0.2603 -0.2937 -1.0162
   27CHL1   H14 3121   4.267   2.002   5.932  0.5006 -2.0533  1.5552
   27CHL1   C15 3122   4.088   2.027   5.826  0.6378 -0.1115  0.3100
   27CHL1  H15A 3123   3.984   1.990   5.820 -0.1503  1.9514  0.5731
   27CHL1  H15B 3124   4.082   2.126   5.877  2.2354  1.5015 -2.4237
   27CHL1   C16 3125   4.154   2.033   5.684  0.4815 -0.6561 -0.2824
   27CHL1  H16A 3126   4.077   2.003   5.609 -0.0075  1.5068 -0.7183
   27CHL1  H16B 3127   4.184   2.133   5.646  0.2326 -0.3643  0.2770
   27CHL1   C17 3128   4.272   1.929   5.689  0.4744  0.4461 -0.4784
   27CHL1   H17 3129   4.368   1.974   5.724  1.2581 -2.0261  0.7795
   27CHL1   C13 3130   4.234   1.837   5.812 -0.6706 -0.0372 -0.3182
   27CHL1   C18 3131   4.118   1.742   5.773  0.3518  0.1080 -0.1110
   27CHL1  H18A 3132   4.159   1.662   5.708  1.5835  1.4354 -1.0261
   27CHL1  H18B 3133   4.072   1.698   5.864 -0.7745  0.1386 -0.6483
   27CHL1  H18C 3134   4.040   1.793   5.712 -0.5428 -0.7942  0.2442
   27CHL1   C12 3135   4.354   1.766   5.884  0.5222  0.1913 -0.4050
   27CHL1  H12A 3136   4.402   1.694   5.814 -0.9928 -0.0248 -1.2809
   27CHL1  H12B 3137   4.428   1.841   5.917 -2.5503  2.1183  2.8849
   27CHL1   C11 3138   4.299   1.705   6.008 -0.3662  0.5262 -0.0928
   27CHL1  H11A 3139   4.232   1.620   5.985 -0.2933 -0.1847  2.0853
   27CHL1  H11B 3140   4.387   1.661   6.061 -1.0972  0.4881  1.1351
   27CHL1    C9 3141   4.225   1.796   6.111 -0.4457 -0.6643  0.3207
   27CHL1    H9 3142   4.311   1.855   6.152  0.1751  0.3736 -2.3037
   27CHL1   C10 3143   4.153   1.719   6.233  0.3982 -0.4490  0.1071
   27CHL1   C19 3144   4.050   1.610   6.197 -0.0832  0.7183  1.3242
   27CHL1  H19A 3145   4.005   1.558   6.284  0.1414  1.9988  2.2354
   27CHL1  H19B 3146   3.966   1.657   6.142  1.7859  1.4182 -1.1596
   27CHL1  H19C 3147   4.100   1.540   6.127 -2.4821 -1.1440  1.3709
   27CHL1    C1 3148   4.266   1.666   6.311  0.3951 -0.5943  0.6909
   27CHL1   H1A 3149   4.320   1.589   6.252  0.3227  0.7601 -1.2314
   27CHL1   H1B 3150   4.344   1.745   6.321 -0.2046 -0.1041  1.5884
   27CHL1    C2 3151   4.238   1.612   6.454 -0.1286  0.4669 -0.3497
   27CHL1   H2A 3152   4.338   1.589   6.496 -0.4217 -0.1734  0.0171
   27CHL1   H2B 3153   4.175   1.520   6.448 -1.0488  1.1838 -2.4261
   27CHL1   C20 3154   4.299   1.870   5.551  0.4440 -0.4533  0.4658
   27CHL1   H20 3155   4.216   1.797   5.536  0.1678  0.0325 -0.3747
   27CHL1   C21 3156   4.431   1.790   5.548 -0.1496  0.0903 -0.3462
   27CHL1  H21A 3157   4.420   1.705   5.618  0.9171 -1.5028 -2.0320
   27CHL1  H21B 3158   4.521   1.851   5.569  0.5500  0.2116 -3.2383
   27CHL1  H21C 3159   4.443   1.745   5.447 -0.8834 -2.4552  0.6254
   27CHL1   C22 3160   4.294   1.968   5.430 -0.5140  0.2361  0.3500
   27CHL1  H22A 3161   4.187   1.997   5.426 -0.3349  0.7869 -1.2885
   27CHL1  H22B 3162   4.358   2.059   5.440 -1.3090  0.9587 -0.9301
   27CHL1   C23 3163   4.304   1.906   5.288 -0.2823  0.3089 -0.4923
   27CHL1  H23A 3164   4.412   1.896   5.266 -0.5172  2.3563 -3.0629
   27CHL1  H23B 3165   4.252   1.808   5.297  2.4412 -1.1327  0.9474
   27CHL1   C24 3166   4.239   1.989   5.176  0.4640 -0.1339  1.0378
   27CHL1  H24A 3167   4.241   1.925   5.085 -1.7856 -0.5703  1.2218
   27CHL1  H24B 3168   4.132   2.007   5.201 -0.0461 -1.5974  0.0573
   27CHL1   C25 3169   4.306   2.123   5.130 -0.1874 -0.6623  0.8026
   27CHL1   H25 3170   4.335   2.172   5.225  1.5245 -2.8692  1.5193
   27CHL1   C26 3171   4.441   2.108   5.053  0.2209 -0.1664 -0.6669
   27CHL1  H26A 3172   4.517   2.041   5.099  0.0235 -1.0688 -1.6062
   27CHL1  H26B 3173   4.411   2.067   4.954 -2.2877  1.0867 -0.4910
   27CHL1  H26C 3174   4.476   2.213   5.036 -1.5211  0.7778  1.1615
   27CHL1   C27 3175   4.209   2.216   5.051  0.0722  0.7484 -0.1622
   27CHL1  H27A 3176   4.238   2.315   5.011  0.5505  0.6503 -0.0624
   27CHL1  H27B 3177   4.123   2.235   5.120 -0.0221 -1.2869  0.3412
   27CHL1  H27C 3178   4.173   2.152   4.967  2.9193 -0.1485 -0.7854
   28CHL1    C3 3179   6.787   6.155   6.673  1.0972 -0.2846  0.2179
   28CHL1    H3 3180   6.774   6.060   6.617 -0.5004  0.5229 -0.8717
   28CHL1    O3 3181   6.702   6.143   6.790  0.1391  0.2739 -0.0483
   28CHL1   H3' 3182   6.699   6.232   6.827 -2.0136  0.2335 -0.0287
   28CHL1    C4 3183   6.934   6.164   6.715 -0.3799  0.5018  0.0753
   28CHL1   H4A 3184   6.942   6.233   6.802 -0.7705 -1.0034  1.3375
   28CHL1   H4B 3185   6.948   6.063   6.758  0.6863 -0.5958 -2.6075
   28CHL1    C5 3186   7.025   6.196   6.596  0.1620  0.6836  0.3641
   28CHL1    C6 3187   7.131   6.117   6.576 -0.4782  0.6984  0.4720
   28CHL1    H6 3188   7.159   6.038   6.647  1.8524  0.0747 -1.0213
   28CHL1    C7 3189   7.222   6.129   6.455 -1.1389  0.7806  0.1219
   28CHL1   H7A 3190   7.328   6.106   6.479 -1.3784 -1.0277 -0.4182
   28CHL1   H7B 3191   7.209   6.044   6.385 -0.5894 -0.3568  1.3707
   28CHL1    C8 3192   7.211   6.264   6.378 -0.4430  0.3674 -0.3206
   28CHL1    H8 3193   7.272   6.341   6.430  0.4988  0.8341 -2.0495
   28CHL1   C14 3194   7.268   6.250   6.235 -0.4557  0.3479 -0.4807
   28CHL1   H14 3195   7.212   6.165   6.190 -0.1011 -0.1898  0.0681
   28CHL1   C15 3196   7.415   6.205   6.218 -0.6762 -0.5524  0.2478
   28CHL1  H15A 3197   7.492   6.257   6.279  0.5382 -3.7965  1.7123
   28CHL1  H15B 3198   7.432   6.096   6.237 -0.0412 -0.2074  1.7781
   28CHL1   C16 3199   7.451   6.248   6.074  0.1895  0.8970 -0.1487
   28CHL1  H16A 3200   7.537   6.316   6.053 -0.1005  1.2263 -0.2827
   28CHL1  H16B 3201   7.473   6.154   6.019 -2.0324  0.1184  0.1970
   28CHL1   C17 3202   7.325   6.309   6.017  0.0353 -0.9592 -0.3599
   28CHL1   H17 3203   7.264   6.223   5.982  1.8815 -2.3892 -0.2133
   28CHL1   C13 3204   7.257   6.369   6.142 -0.0800 -0.0211 -0.1884
   28CHL1   C18 3205   7.322   6.493   6.192 -0.0538 -0.1106 -0.2964
   28CHL1  H18A 3206   7.270   6.517   6.288  0.0067  1.1725 -0.5649
   28CHL1  H18B 3207   7.431   6.480   6.204  0.0441  1.4319  0.9379
   28CHL1  H18C 3208   7.308   6.578   6.122 -1.2362  1.8895  2.1642
   28CHL1   C12 3209   7.105   6.396   6.127 -0.2520 -0.1474 -0.1552
   28CHL1  H12A 3210   7.082   6.489   6.071  1.0762 -0.2363 -0.8968
   28CHL1  H12B 3211   7.062   6.309   6.073 -1.3861  1.5790 -2.2047
   28CHL1   C11 3212   7.028   6.401   6.261  0.0154 -0.0896  1.2997
   28CHL1  H11A 3213   7.053   6.499   6.307 -1.3087  1.1829 -0.5561
   28CHL1  H11B 3214   6.917   6.402   6.251  0.1630  1.7384 -0.9720
   28CHL1    C9 3215   7.058   6.287   6.365  0.0537  0.1146 -0.7787
   28CHL1    H9 3216   7.018   6.194   6.318 -0.0127  1.0709 -2.7074
   28CHL1   C10 3217   6.983   6.302   6.502 -0.0381 -0.9118 -0.4339
   28CHL1   C19 3218   7.017   6.439   6.555 -0.0463 -0.1225 -0.1266
   28CHL1  H19A 3219   6.973   6.522   6.495 -0.9798 -1.7227 -1.7317
   28CHL1  H19B 3220   6.974   6.456   6.656 -0.0757  2.9535 -0.5439
   28CHL1  H19C 3221   7.127   6.446   6.574  0.3357 -1.9841 -1.3528
   28CHL1    C1 3222   6.829   6.283   6.467  1.1421  0.4682  0.0820
   28CHL1   H1A 3223   6.787   6.368   6.409  0.1603  1.3483  1.9973
   28CHL1   H1B 3224   6.812   6.191   6.406 -0.7494  0.9739 -0.2173
   28CHL1    C2 3225   6.735   6.271   6.588 -0.3431  0.6203  0.0225
   28CHL1   H2A 3226   6.636   6.250   6.543 -0.2571  1.9887 -0.8898
   28CHL1   H2B 3227   6.723   6.367   6.644 -2.0696  1.3071 -1.4269
   28CHL1   C20 3228   7.359   6.390   5.889  0.1314 -0.0127  0.1294
   28CHL1   H20 3229   7.433   6.468   5.917  0.4850 -1.0709  2.3681
   28CHL1   C21 3230   7.226   6.442   5.837  0.4044 -0.3691  0.5626
   28CHL1  H21A 3231   7.152   6.359   5.827 -1.1787  1.2261 -2.4549
   28CHL1  H21B 3232   7.234   6.478   5.732 -0.5053  1.6479  1.1467
   28CHL1  H21C 3233   7.189   6.534   5.888 -1.4958 -0.9769  0.3596
   28CHL1   C22 3234   7.431   6.303   5.779  0.4812  0.8129 -0.1153
   28CHL1  H22A 3235   7.510   6.243   5.830 -0.5607 -1.5975 -1.1884
   28CHL1  H22B 3236   7.351   6.234   5.744 -2.3636  3.1519  1.3821
   28CHL1   C23 3237   7.499   6.378   5.665  0.1317  1.1559 -0.3467
   28CHL1  H23A 3238   7.421   6.439   5.616 -1.0644  0.6138  0.8220
   28CHL1  H23B 3239   7.570   6.434   5.729 -1.2662 -0.3234  2.7249
   28CHL1   C24 3240   7.567   6.275   5.566 -0.0197 -0.1862 -0.0994
   28CHL1  H24A 3241   7.644   6.226   5.630  0.7223  1.3400  0.2197
   28CHL1  H24B 3242   7.493   6.205   5.522  1.9140 -1.0034 -2.2709
   28CHL1   C25 3243   7.646   6.347   5.457  0.5095  0.8424 -0.3497
   28CHL1   H25 3244   7.675   6.445   5.499 -0.8639  1.8772 -1.6863
   28CHL1   C26 3245   7.787   6.283   5.427  0.3158  0.1103  0.2733
   28CHL1  H26A 3246   7.768   6.195   5.363 -0.1261  0.0610  0.4677
   28CHL1  H26B 3247   7.856   6.357   5.382  2.7489 -1.9058  0.4538
   28CHL1  H26C 3248   7.841   6.251   5.519  3.0101 -1.4098 -1.6901
   28CHL1   C27 3249   7.563   6.357   5.328 -0.6245 -0.8316 -0.0652
   28CHL1  H27A 3250   7.625   6.390   5.242 -0.5653 -1.0913 -0.1237
   28CHL1  H27B 3251   7.522   6.259   5.296 -0.2494 -1.0831  0.2093
   28CHL1  H27C 3252   7.480   6.431   5.336  0.8933  0.7799  2.1670
   29CHL1    C3 3253   4.587   3.809   6.530 -0.8323 -0.0746 -0.2507
   29CHL1    H3 3254   4.485   3.770   6.547  0.1001 -1.8962  1.6641
   29CHL1    O3 3255   4.633   3.836   6.665  0.0872 -0.4594  0.4627
   29CHL1   H3' 3256   4.629   3.932   6.672 -2.1454 -0.5088  0.7365
   29CHL1    C4 3257   4.671   3.699   6.464  0.0636  0.0683 -0.2834
   29CHL1   H4A 3258   4.779   3.707   6.486  0.3126 -1.7123 -0.6416
   29CHL1   H4B 3259   4.641   3.606   6.518  0.8677  1.1534  2.1615
   29CHL1    C5 3260   4.659   3.684   6.316 -0.1440  0.5756 -0.2881
   29CHL1    C6 3261   4.638   3.558   6.264 -0.4632 -0.8856 -0.0525
   29CHL1    H6 3262   4.630   3.469   6.328 -0.6860 -1.5336 -0.9694
   29CHL1    C7 3263   4.624   3.539   6.116 -0.0254 -0.1172  0.5885
   29CHL1   H7A 3264   4.687   3.450   6.094  2.0780  0.6994  2.9395
   29CHL1   H7B 3265   4.514   3.523   6.109 -0.2211  0.2019  2.4520
   29CHL1    C8 3266   4.659   3.652   6.024 -0.3706 -0.2284  0.5046
   29CHL1    H8 3267   4.768   3.673   6.024 -0.6758  1.6678  2.2101
   29CHL1   C14 3268   4.614   3.625   5.882 -0.0154  0.8911 -0.3453
   29CHL1   H14 3269   4.507   3.597   5.889  0.2988 -0.6500 -1.0202
   29CHL1   C15 3270   4.682   3.506   5.818 -0.0867  0.1033 -0.3493
   29CHL1  H15A 3271   4.791   3.498   5.838 -0.3424  2.0005  2.1811
   29CHL1  H15B 3272   4.646   3.411   5.864  0.1453  0.9198  1.6084
   29CHL1   C16 3273   4.659   3.541   5.667 -0.2548 -0.2354  0.1692
   29CHL1  H16A 3274   4.754   3.527   5.612  0.8715  0.3079  1.8833
   29CHL1  H16B 3275   4.578   3.472   5.636 -1.4580  0.6234  1.2534
   29CHL1   C17 3276   4.603   3.686   5.649 -0.4380 -0.1910 -0.4772
   29CHL1   H17 3277   4.493   3.680   5.636 -0.4799 -1.3099  0.2058
   29CHL1   C13 3278   4.632   3.751   5.788  0.2397 -0.3750 -0.6962
   29CHL1   C18 3279   4.781   3.793   5.782  0.4031  0.3191 -0.2097
   29CHL1  H18A 3280   4.788   3.888   5.724 -0.3830 -0.4979 -1.6894
   29CHL1  H18B 3281   4.831   3.800   5.881  0.3072  1.0963 -0.2079
   29CHL1  H18C 3282   4.846   3.727   5.720 -1.4192 -1.7214 -0.0311
   29CHL1   C12 3283   4.533   3.862   5.837  0.0741  0.0572 -0.8730
   29CHL1  H12A 3284   4.523   3.949   5.770 -1.0817  0.1211 -0.6323
   29CHL1  H12B 3285   4.430   3.821   5.840 -0.7815  2.1136 -0.5539
   29CHL1   C11 3286   4.577   3.891   5.979 -0.3438  0.1075 -0.4484
   29CHL1  H11A 3287   4.674   3.943   5.967 -0.9593  1.9566  1.8422
   29CHL1  H11B 3288   4.508   3.970   6.016 -0.7106 -0.1449 -0.5888
   29CHL1    C9 3289   4.585   3.769   6.082 -0.2285 -0.0384 -0.7604
   29CHL1    H9 3290   4.479   3.737   6.090 -0.0169 -0.3917  1.3150
   29CHL1   C10 3291   4.645   3.810   6.225 -0.0237 -0.2220  0.1215
   29CHL1   C19 3292   4.782   3.878   6.220 -0.7987 -0.5186 -0.0469
   29CHL1  H19A 3293   4.775   3.969   6.156 -0.1217 -0.8772 -0.6428
   29CHL1  H19B 3294   4.825   3.910   6.317  1.1368 -0.8440 -0.7506
   29CHL1  H19C 3295   4.861   3.820   6.167 -0.2546  0.6090 -0.5145
   29CHL1    C1 3296   4.556   3.911   6.297 -0.9441  0.1840  0.4174
   29CHL1   H1A 3297   4.550   4.009   6.245  0.3108 -0.6386 -1.4112
   29CHL1   H1B 3298   4.454   3.868   6.286 -0.3140 -1.2491 -0.0885
   29CHL1    C2 3299   4.597   3.935   6.443 -0.3934  0.0575  0.1632
   29CHL1   H2A 3300   4.519   3.999   6.491 -2.4720 -0.8862 -1.7532
   29CHL1   H2B 3301   4.696   3.985   6.437  0.4849 -1.7821 -2.1228
   29CHL1   C20 3302   4.663   3.750   5.521 -0.5483  0.9160 -0.0546
   29CHL1   H20 3303   4.770   3.773   5.537 -0.7494  0.5162  2.2077
   29CHL1   C21 3304   4.585   3.888   5.504  0.0719 -0.2273 -0.8565
   29CHL1  H21A 3305   4.622   3.933   5.409 -2.3929  0.2759 -1.6521
   29CHL1  H21B 3306   4.629   3.951   5.585 -1.0675 -0.5326  0.0128
   29CHL1  H21C 3307   4.475   3.885   5.496 -0.0235  1.7936 -0.9667
   29CHL1   C22 3308   4.670   3.651   5.395 -0.0457 -0.0417 -0.1290
   29CHL1  H22A 3309   4.710   3.723   5.320 -0.6932  0.1239 -0.3205
   29CHL1  H22B 3310   4.734   3.563   5.417 -2.0400 -1.4976  0.1192
   29CHL1   C23 3311   4.534   3.597   5.342 -0.3833 -0.2091  0.4702
   29CHL1  H23A 3312   4.496   3.527   5.419 -0.8561  0.0643  0.4886
   29CHL1  H23B 3313   4.469   3.687   5.336  0.0709  0.1000  0.1034
   29CHL1   C24 3314   4.544   3.524   5.209 -0.3426  0.1956  0.0288
   29CHL1  H24A 3315   4.446   3.487   5.174 -0.5284 -2.2664  2.7676
   29CHL1  H24B 3316   4.572   3.602   5.135  0.6035 -0.0749  0.0853
   29CHL1   C25 3317   4.638   3.398   5.199 -0.0240 -0.3783  0.2061
   29CHL1   H25 3318   4.736   3.446   5.220 -1.1482  2.6006 -0.7707
   29CHL1   C26 3319   4.597   3.300   5.301 -0.1456  0.1607  0.4589
   29CHL1  H26A 3320   4.652   3.203   5.300  1.2539  0.9326 -0.8841
   29CHL1  H26B 3321   4.601   3.338   5.406  1.9036  0.4501  0.3206
   29CHL1  H26C 3322   4.496   3.264   5.273  0.9380 -1.1598 -1.9965
   29CHL1   C27 3323   4.636   3.346   5.059 -0.1985  0.4946 -0.5410
   29CHL1  H27A 3324   4.530   3.322   5.034 -0.7611  0.6242  1.5660
   29CHL1  H27B 3325   4.663   3.429   4.990 -2.4806  1.1867 -0.6905
   29CHL1  H27C 3326   4.713   3.267   5.045 -1.2358 -1.0910  1.9273
   30CHL1    C3 3327   4.114   3.809   6.343 -0.2895  0.4071  0.0684
   30CHL1    H3 3328   4.163   3.723   6.292 -2.3136  1.0092 -3.1975
   30CHL1    O3 3329   4.178   3.836   6.470  0.4663 -0.0762  0.2334
   30CHL1   H3' 3330   4.152   3.763   6.527 -1.2752 -0.3404 -0.8131
   30CHL1    C4 3331   4.143   3.932   6.253  0.2716  0.1241  0.1788
   30CHL1   H4A 3332   4.098   4.016   6.311 -0.9106  0.9636 -1.8713
   30CHL1   H4B 3333   4.250   3.961   6.245  0.5107  0.4039  3.1840
   30CHL1    C5 3334   4.076   3.907   6.114  0.0744  0.3784 -0.2843
   30CHL1    C6 3335   4.150   3.915   5.999  0.2545  0.1517  0.1503
   30CHL1    H6 3336   4.257   3.940   6.002  0.2053  0.2567  2.3427
   30CHL1    C7 3337   4.098   3.898   5.857 -0.1841  0.0590 -0.3456
   30CHL1   H7A 3338   4.143   3.974   5.790 -1.0046  1.7682  0.9646
   30CHL1   H7B 3339   4.121   3.794   5.824 -0.4801 -0.9332  2.3665
   30CHL1    C8 3340   3.942   3.909   5.859 -0.5673 -0.0766 -0.8861
   30CHL1    H8 3341   3.918   4.008   5.901 -2.0443 -1.3125  1.4206
   30CHL1   C14 3342   3.882   3.884   5.722  1.2458 -0.2412  0.2751
   30CHL1   H14 3343   3.910   3.778   5.704  1.4139 -0.3714  1.2412
   30CHL1   C15 3344   3.931   3.966   5.609  0.1482 -0.4200  0.3242
   30CHL1  H15A 3345   3.966   4.069   5.631  0.9469 -0.6068 -0.0209
   30CHL1  H15B 3346   4.025   3.927   5.564  1.4762  2.6982  0.1774
   30CHL1   C16 3347   3.822   3.957   5.504 -0.7487  0.7959 -0.0944
   30CHL1  H16A 3348   3.790   4.053   5.457  0.1604  0.6798 -0.9762
   30CHL1  H16B 3349   3.848   3.897   5.414 -2.6527 -2.2095  1.1819
   30CHL1   C17 3350   3.704   3.883   5.575  0.6588  0.0642  0.1577
   30CHL1   H17 3351   3.710   3.776   5.544  0.9567 -0.0574  0.6206
   30CHL1   C13 3352   3.734   3.888   5.722  0.3650  0.5755  0.5325
   30CHL1   C18 3353   3.683   4.025   5.770  0.2240  1.3260  0.3354
   30CHL1  H18A 3354   3.716   4.051   5.873  1.5338 -1.0243  0.5704
   30CHL1  H18B 3355   3.708   4.104   5.696  0.5666  0.6094 -0.3220
   30CHL1  H18C 3356   3.572   4.016   5.775  0.1640  2.2923  0.9519
   30CHL1   C12 3357   3.685   3.770   5.804 -0.4402 -0.1516 -0.2340
   30CHL1  H12A 3358   3.574   3.763   5.794 -0.3980  1.0942 -1.9267
   30CHL1  H12B 3359   3.731   3.678   5.763  0.0923  1.0599 -2.5142
   30CHL1   C11 3360   3.728   3.791   5.954 -0.3533  0.9138 -0.0345
   30CHL1  H11A 3361   3.666   3.871   5.998 -0.4525  1.5131 -1.2170
   30CHL1  H11B 3362   3.698   3.697   6.005  1.8714 -0.1245 -0.4998
   30CHL1    C9 3363   3.883   3.815   5.972  0.2880 -1.2127 -0.3817
   30CHL1    H9 3364   3.920   3.714   5.941  0.9656 -0.3661 -2.5138
   30CHL1   C10 3365   3.928   3.865   6.117  0.5972  0.2255  0.9416
   30CHL1   C19 3366   3.845   3.981   6.154  0.2264  0.2768  0.7890
   30CHL1  H19A 3367   3.834   4.053   6.070 -0.4906 -0.7418 -0.0333
   30CHL1  H19B 3368   3.742   3.947   6.179  0.6173 -2.6571 -1.0751
   30CHL1  H19C 3369   3.877   4.036   6.245 -1.8064  0.0830  1.6856
   30CHL1    C1 3370   3.905   3.751   6.221  0.1501  0.0079  0.4368
   30CHL1   H1A 3371   3.795   3.738   6.230  0.2280 -0.5796  0.5312
   30CHL1   H1B 3372   3.950   3.661   6.176 -0.8281  0.1420 -0.8601
   30CHL1    C2 3373   3.967   3.778   6.360  0.4214  0.3664 -0.2361
   30CHL1   H2A 3374   3.953   3.692   6.428 -1.5603  0.3303 -0.6220
   30CHL1   H2B 3375   3.913   3.868   6.396  0.2535 -0.3047  1.2650
   30CHL1   C20 3376   3.564   3.919   5.513 -0.6177  0.0203  0.1455
   30CHL1   H20 3377   3.551   4.028   5.535 -1.1372 -0.0784  0.3355
   30CHL1   C21 3378   3.457   3.839   5.586  1.1565 -0.0174  0.4975
   30CHL1  H21A 3379   3.360   3.864   5.537  0.9384  1.1473  1.4868
   30CHL1  H21B 3380   3.442   3.861   5.694 -1.1125  0.8386  0.0731
   30CHL1  H21C 3381   3.481   3.730   5.579  2.2591  0.3033 -1.5666
   30CHL1   C22 3382   3.564   3.893   5.362 -0.5328  0.0761 -0.0490
   30CHL1  H22A 3383   3.628   3.966   5.308  0.7104 -1.8726 -1.3356
   30CHL1  H22B 3384   3.617   3.798   5.341 -0.7797  0.3610 -2.2157
   30CHL1   C23 3385   3.426   3.896   5.294 -0.2147 -0.8792 -0.0779
   30CHL1  H23A 3386   3.369   3.819   5.349  2.8386 -1.6703  2.2603
   30CHL1  H23B 3387   3.383   3.995   5.322 -1.5651 -0.5710 -2.8982
   30CHL1   C24 3388   3.422   3.871   5.143  0.3908 -0.2991 -0.5669
   30CHL1  H24A 3389   3.483   3.952   5.099 -1.6928  3.0605  2.2392
   30CHL1  H24B 3390   3.463   3.770   5.121 -2.2193 -1.4914 -0.3362
   30CHL1   C25 3391   3.279   3.874   5.085 -0.0961 -0.1434 -0.1256
   30CHL1   H25 3392   3.224   3.793   5.138  1.3492 -0.6983  0.5958
   30CHL1   C26 3393   3.221   4.009   5.122  0.8544  0.1563  0.0093
   30CHL1  H26A 3394   3.295   4.089   5.102 -0.6160  1.0238 -2.3231
   30CHL1  H26B 3395   3.128   4.047   5.074  1.1529  0.2128 -0.5271
   30CHL1  H26C 3396   3.188   3.994   5.227 -3.2860  0.4084 -1.0681
   30CHL1   C27 3397   3.274   3.846   4.938  0.0275 -0.0797  0.6367
   30CHL1  H27A 3398   3.325   3.751   4.912 -2.4512 -2.0092  2.3319
   30CHL1  H27B 3399   3.173   3.833   4.893 -0.5115  1.7837  1.2266
   30CHL1  H27C 3400   3.320   3.929   4.880 -2.1731  0.1456 -0.9146
   31CHL1    C3 3401   4.874   2.915   6.491  0.0891 -0.0773  0.1322
   31CHL1    H3 3402   4.947   2.998   6.499 -0.1411  0.0904  0.5593
   31CHL1    O3 3403   4.811   2.897   6.615 -0.1194  0.5331 -0.5348
   31CHL1   H3' 3404   4.791   2.803   6.618  2.2493 -0.0387 -0.5502
   31CHL1    C4 3405   4.767   2.954   6.386 -0.7787  0.1848 -0.0737
   31CHL1   H4A 3406   4.697   2.868   6.392  0.3564 -0.8920 -1.5547
   31CHL1   H4B 3407   4.707   3.038   6.427 -0.5259  0.4628 -0.2658
   31CHL1    C5 3408   4.835   2.963   6.250  0.3795 -0.1518 -0.4122
   31CHL1    C6 3409   4.833   3.079   6.182 -0.0893 -0.6089  0.1952
   31CHL1    H6 3410   4.791   3.169   6.229 -0.4300 -0.4493 -0.4054
   31CHL1    C7 3411   4.872   3.084   6.045 -0.5355  0.3186 -0.0960
   31CHL1   H7A 3412   4.801   3.147   5.987  1.5060  3.4322  0.5663
   31CHL1   H7B 3413   4.967   3.142   6.040  0.9119 -1.9466 -0.1994
   31CHL1    C8 3414   4.893   2.947   5.975 -0.4695 -0.8608 -0.0788
   31CHL1    H8 3415   4.794   2.899   5.965 -0.6252 -0.3940 -0.8489
   31CHL1   C14 3416   4.977   2.965   5.846 -0.0972  0.7476 -0.2012
   31CHL1   H14 3417   5.081   2.988   5.877  0.3570 -2.0037  0.5770
   31CHL1   C15 3418   4.943   3.081   5.755 -0.3880 -0.2122  0.0992
   31CHL1  H15A 3419   4.833   3.069   5.739 -0.6370 -0.5717  1.7841
   31CHL1  H15B 3420   4.968   3.174   5.810  1.5217 -1.0991  0.8113
   31CHL1   C16 3421   5.012   3.054   5.622  0.0827 -0.6285 -0.1346
   31CHL1  H16A 3422   4.945   3.061   5.534  1.7698 -0.3065 -1.4431
   31CHL1  H16B 3423   5.092   3.130   5.608 -0.9028  0.0853 -2.3869
   31CHL1   C17 3424   5.072   2.908   5.641 -0.3223 -0.7530  0.9053
   31CHL1   H17 3425   5.173   2.926   5.683 -0.8897  1.4603  1.4212
   31CHL1   C13 3426   4.995   2.847   5.759 -0.3253 -0.3083  0.0195
   31CHL1   C18 3427   4.857   2.799   5.713 -0.1207 -0.0459  0.0273
   31CHL1  H18A 3428   4.782   2.780   5.793 -0.5349  0.5124 -0.2163
   31CHL1  H18B 3429   4.809   2.872   5.644 -2.0840  2.4126  3.6345
   31CHL1  H18C 3430   4.877   2.705   5.658  0.8808 -0.5508  1.1964
   31CHL1   C12 3431   5.066   2.736   5.845 -0.2623  0.0265 -0.8490
   31CHL1  H12A 3432   5.075   2.638   5.794 -1.1528  0.6856 -2.3281
   31CHL1  H12B 3433   5.169   2.776   5.862  0.2138 -1.4842  0.0453
   31CHL1   C11 3434   4.995   2.709   5.982  0.0033 -0.8560  0.4198
   31CHL1  H11A 3435   4.906   2.652   5.950 -0.2514  0.4845 -1.4373
   31CHL1  H11B 3436   5.049   2.648   6.057  2.3600  2.9335  2.1348
   31CHL1    C9 3437   4.970   2.849   6.066  0.0861  0.9637  0.0526
   31CHL1    H9 3438   5.071   2.891   6.083  0.3798 -0.3425  1.7088
   31CHL1   C10 3439   4.907   2.832   6.206  1.2772 -0.4991  0.7538
   31CHL1   C19 3440   4.808   2.714   6.203 -0.0541 -0.1331  0.5758
   31CHL1  H19A 3441   4.744   2.699   6.293  0.8401 -0.1669  1.2111
   31CHL1  H19B 3442   4.754   2.735   6.109  1.2936 -2.0696 -0.6967
   31CHL1  H19C 3443   4.864   2.621   6.182  0.3672  0.3954 -0.6955
   31CHL1    C1 3444   5.018   2.806   6.316  0.5156  0.2403 -0.2976
   31CHL1   H1A 3445   5.061   2.705   6.301  1.5113  0.5393  0.4181
   31CHL1   H1B 3446   5.099   2.880   6.307 -0.1514  1.3521  1.9760
   31CHL1    C2 3447   4.960   2.789   6.455  0.0642 -0.7246  0.0499
   31CHL1   H2A 3448   5.042   2.771   6.528  1.4471  1.4526 -0.8399
   31CHL1   H2B 3449   4.898   2.697   6.462  0.2718 -0.7731  1.7559
   31CHL1   C20 3450   5.068   2.832   5.503 -0.3026  0.9364  0.3880
   31CHL1   H20 3451   4.963   2.815   5.471 -0.4362  2.0144  0.2143
   31CHL1   C21 3452   5.130   2.692   5.509  0.1153 -0.7311 -0.6088
   31CHL1  H21A 3453   5.156   2.650   5.410  0.4744 -0.0321 -0.8193
   31CHL1  H21B 3454   5.056   2.624   5.556  0.2491 -0.7025 -0.3504
   31CHL1  H21C 3455   5.225   2.697   5.566 -0.8094 -1.1174  1.0461
   31CHL1   C22 3456   5.143   2.906   5.385 -0.6462  0.0350  0.2504
   31CHL1  H22A 3457   5.160   3.008   5.424 -0.0817 -0.1550  0.5196
   31CHL1  H22B 3458   5.238   2.855   5.357 -0.2692  0.0968  1.3590
   31CHL1   C23 3459   5.047   2.910   5.261  0.6941  0.7157 -0.0834
   31CHL1  H23A 3460   5.031   2.805   5.229  1.4104 -0.1736  2.2558
   31CHL1  H23B 3461   4.950   2.959   5.285  0.3666  0.5839 -1.1145
   31CHL1   C24 3462   5.116   2.986   5.148  0.5217  0.5040  0.3794
   31CHL1  H24A 3463   5.131   3.092   5.178 -0.6287  0.6046  0.6436
   31CHL1  H24B 3464   5.215   2.944   5.121 -0.2331 -0.1391 -1.5194
   31CHL1   C25 3465   5.028   2.992   5.021  1.1043 -0.0921 -0.6939
   31CHL1   H25 3466   4.921   3.011   5.045  0.8543 -2.3954  0.3027
   31CHL1   C26 3467   5.102   3.083   4.918 -0.2780 -0.4713 -0.1084
   31CHL1  H26A 3468   5.060   3.074   4.816 -0.2723 -0.4792 -0.1101
   31CHL1  H26B 3469   5.104   3.188   4.954  0.5938 -0.8086  0.8828
   31CHL1  H26C 3470   5.206   3.045   4.917 -0.1337 -0.0823 -0.7851
   31CHL1   C27 3471   5.011   2.852   4.970 -0.1275 -0.1522 -0.2413
   31CHL1  H27A 3472   4.948   2.867   4.880 -2.3949 -0.2597  1.2383
   31CHL1  H27B 3473   5.111   2.809   4.946  1.0326  1.6938  1.0128
   31CHL1  H27C 3474   4.946   2.781   5.026 -2.4373  0.6714 -1.7765
   32CHL1    C3 3475   5.289   0.547   6.366 -0.3810  0.0080  0.0345
   32CHL1    H3 3476   5.389   0.509   6.335 -0.4920 -0.2192 -0.0431
   32CHL1    O3 3477   5.275   0.538   6.509 -0.3366  0.1380  0.2694
   32CHL1   H3' 3478   5.204   0.600   6.528  2.5321  3.1664  2.3150
   32CHL1    C4 3479   5.280   0.693   6.318 -0.1531  0.8726 -0.6558
   32CHL1   H4A 3480   5.181   0.732   6.349  0.0549  2.1641 -1.5275
   32CHL1   H4B 3481   5.361   0.747   6.372 -2.0709  0.3110  3.1255
   32CHL1    C5 3482   5.288   0.712   6.174  0.3067 -0.8695 -0.2246
   32CHL1    C6 3483   5.368   0.803   6.120  0.0196 -0.1040 -0.2436
   32CHL1    H6 3484   5.441   0.847   6.190 -0.0830 -0.1900 -0.0832
   32CHL1    C7 3485   5.397   0.828   5.973  0.1722 -0.3338  0.2247
   32CHL1   H7A 3486   5.385   0.936   5.950  0.0486 -0.4029 -0.0448
   32CHL1   H7B 3487   5.500   0.801   5.943 -1.1232 -1.3936 -4.1337
   32CHL1    C8 3488   5.287   0.759   5.885 -0.0206 -0.6636 -0.2069
   32CHL1    H8 3489   5.195   0.821   5.889  0.7044  0.5058 -0.9904
   32CHL1   C14 3490   5.336   0.754   5.741  0.0398  0.3839 -0.1543
   32CHL1   H14 3491   5.425   0.688   5.754 -0.0566 -0.2587 -2.3278
   32CHL1   C15 3492   5.392   0.879   5.673  0.1471 -0.1185  0.5060
   32CHL1  H15A 3493   5.325   0.967   5.680  0.3487  0.3086 -2.1107
   32CHL1  H15B 3494   5.491   0.897   5.721  0.3616  0.0427  0.0012
   32CHL1   C16 3495   5.412   0.833   5.530 -0.3161 -0.6434 -0.0868
   32CHL1  H16A 3496   5.389   0.918   5.462 -0.2179 -0.3919  0.1933
   32CHL1  H16B 3497   5.520   0.810   5.515 -0.6577 -1.6579 -1.1578
   32CHL1   C17 3498   5.333   0.702   5.511  0.2210 -0.5635 -0.3902
   32CHL1   H17 3499   5.410   0.622   5.515 -0.1136 -0.8789 -0.2920
   32CHL1   C13 3500   5.239   0.692   5.640 -0.6097  0.4059  0.6246
   32CHL1   C18 3501   5.122   0.794   5.618 -0.3421  0.4644  0.4303
   32CHL1  H18A 3502   5.152   0.889   5.569 -1.3878  0.8089  0.4334
   32CHL1  H18B 3503   5.055   0.751   5.540  0.1304  1.4559 -0.5337
   32CHL1  H18C 3504   5.064   0.814   5.711 -0.7912 -1.2709  0.5638
   32CHL1   C12 3505   5.198   0.556   5.697  0.0678 -0.4959  0.2567
   32CHL1  H12A 3506   5.122   0.512   5.630  0.8891 -0.3834 -0.7677
   32CHL1  H12B 3507   5.290   0.493   5.700 -0.2458 -1.0743 -1.3479
   32CHL1   C11 3508   5.143   0.551   5.838  0.1579 -0.7603  0.0354
   32CHL1  H11A 3509   5.045   0.604   5.840  1.1422  1.1092  0.7144
   32CHL1  H11B 3510   5.119   0.448   5.873  0.4025 -0.5738  0.7595
   32CHL1    C9 3511   5.241   0.621   5.934 -0.2619  0.3962 -0.5829
   32CHL1    H9 3512   5.326   0.550   5.941 -0.7451 -0.0621  1.0384
   32CHL1   C10 3513   5.203   0.622   6.086  0.8585 -0.5517 -0.1639
   32CHL1   C19 3514   5.060   0.678   6.086 -0.1731  0.7772 -0.0158
   32CHL1  H19A 3515   5.021   0.686   6.189 -0.3089 -2.3638  0.2600
   32CHL1  H19B 3516   5.052   0.781   6.044 -0.2785  0.3727 -1.0326
   32CHL1  H19C 3517   4.986   0.618   6.029 -1.1279  0.6494  1.3331
   32CHL1    C1 3518   5.203   0.477   6.149 -0.2759 -0.1656 -0.5196
   32CHL1   H1A 3519   5.112   0.433   6.102 -1.3230  1.8524 -0.5072
   32CHL1   H1B 3520   5.296   0.421   6.127  0.1383  0.9674 -1.8231
   32CHL1    C2 3521   5.183   0.467   6.297  0.7288 -0.9568 -0.0511
   32CHL1   H2A 3522   5.175   0.365   6.340  0.1362 -0.9839 -0.2183
   32CHL1   H2B 3523   5.087   0.519   6.317  1.4878  0.9327 -1.0211
   32CHL1   C20 3524   5.272   0.680   5.367  0.7234  0.0409  0.1706
   32CHL1   H20 3525   5.181   0.742   5.349  0.1374 -0.1497  2.2590
   32CHL1   C21 3526   5.239   0.526   5.339 -0.0642 -1.1387 -0.0612
   32CHL1  H21A 3527   5.160   0.488   5.406  0.2773  0.4339  1.2947
   32CHL1  H21B 3528   5.333   0.470   5.357  0.6101  0.0389  0.1850
   32CHL1  H21C 3529   5.203   0.514   5.234  1.6784 -2.3871 -0.5630
   32CHL1   C22 3530   5.365   0.739   5.258 -0.6019  0.3084  0.0750
   32CHL1  H22A 3531   5.388   0.847   5.270 -0.0010  0.1931 -0.0328
   32CHL1  H22B 3532   5.460   0.682   5.262 -0.6121  0.2793 -0.1108
   32CHL1   C23 3533   5.295   0.740   5.112  0.3650  0.3204 -0.2072
   32CHL1  H23A 3534   5.302   0.636   5.074  0.1208  0.2877 -0.1632
   32CHL1  H23B 3535   5.186   0.761   5.119  0.0516 -1.2945  0.0012
   32CHL1   C24 3536   5.358   0.827   5.011  0.4604  0.0020  0.6504
   32CHL1  H24A 3537   5.365   0.931   5.049 -3.1072  1.5579 -2.3525
   32CHL1  H24B 3538   5.466   0.811   4.993  0.1214 -0.6827 -0.9262
   32CHL1   C25 3539   5.302   0.823   4.865  0.0879 -0.7270 -0.7065
   32CHL1   H25 3540   5.377   0.869   4.797  3.0457 -2.7234  0.9829
   32CHL1   C26 3541   5.276   0.680   4.809  0.0068  0.2398  0.2678
   32CHL1  H26A 3542   5.364   0.613   4.813  0.7171  1.0192 -1.0691
   32CHL1  H26B 3543   5.186   0.638   4.858 -0.4871  2.9277  1.8578
   32CHL1  H26C 3544   5.236   0.678   4.705 -2.4187  1.0792  1.1064
   32CHL1   C27 3545   5.163   0.900   4.859 -0.6261 -0.0918  0.9202
   32CHL1  H27A 3546   5.085   0.845   4.915 -1.3809  0.4732  0.4345
   32CHL1  H27B 3547   5.169   1.000   4.907 -2.9661  0.5759 -0.0289
   32CHL1  H27C 3548   5.138   0.928   4.755 -0.1824  1.1075  1.1163
   33CHL1    C3 3549   2.911   1.622   6.322  0.4125  0.6026 -0.4238
   33CHL1    H3 3550   2.847   1.711   6.302 -1.9038 -0.9759 -0.3974
   33CHL1    O3 3551   2.863   1.575   6.449  0.6039  0.3366 -0.2481
   33CHL1   H3' 3552   2.922   1.512   6.491 -2.8535 -2.2684  1.1221
   33CHL1    C4 3553   2.883   1.512   6.212  0.0642  0.3575 -0.7100
   33CHL1   H4A 3554   2.937   1.419   6.239 -0.4023 -0.1635 -1.5008
   33CHL1   H4B 3555   2.774   1.486   6.210  0.5945 -2.4507  0.7112
   33CHL1    C5 3556   2.930   1.560   6.083 -0.2439 -0.8819  0.0415
   33CHL1    C6 3557   2.848   1.550   5.979  0.3132 -0.2139  0.7720
   33CHL1    H6 3558   2.757   1.489   5.983 -0.8241  1.1797 -1.7278
   33CHL1    C7 3559   2.878   1.600   5.837  0.5250  0.5235 -0.1376
   33CHL1   H7A 3560   2.836   1.530   5.762  1.6450  1.7063 -1.9381
   33CHL1   H7B 3561   2.813   1.688   5.816 -2.2708 -1.4335 -0.1962
   33CHL1    C8 3562   3.026   1.627   5.818  0.2850 -0.3758 -0.0046
   33CHL1    H8 3563   3.074   1.527   5.818 -3.6907 -2.5057  1.2968
   33CHL1   C14 3564   3.060   1.697   5.684 -0.6531  0.3866 -0.4635
   33CHL1   H14 3565   3.013   1.797   5.700 -0.1805  0.2287  2.2130
   33CHL1   C15 3566   2.985   1.644   5.555 -0.2322 -0.7845  0.3108
   33CHL1  H15A 3567   2.995   1.534   5.555 -3.0244 -1.0991  0.0767
   33CHL1  H15B 3568   2.878   1.672   5.566  0.5208  2.3686  0.7626
   33CHL1   C16 3569   3.063   1.698   5.438 -0.1455  0.1278 -0.3256
   33CHL1  H16A 3570   3.107   1.616   5.377  2.1679  0.0658  1.2911
   33CHL1  H16B 3571   3.012   1.775   5.377  0.5092 -0.4940 -1.7048
   33CHL1   C17 3572   3.176   1.786   5.504  0.2880 -0.3887 -0.3611
   33CHL1   H17 3573   3.121   1.882   5.510 -1.7956 -1.3078 -2.9175
   33CHL1   C13 3574   3.206   1.731   5.650 -0.4081  0.4859 -0.3375
   33CHL1   C18 3575   3.292   1.598   5.635 -0.2281  0.6317 -0.7423
   33CHL1  H18A 3576   3.290   1.527   5.721 -0.9293  0.7435 -0.6618
   33CHL1  H18B 3577   3.261   1.537   5.548 -1.3654  1.5172 -0.9876
   33CHL1  H18C 3578   3.400   1.621   5.623  0.2973 -0.5683  1.1721
   33CHL1   C12 3579   3.260   1.810   5.765  0.5497 -0.0766 -0.4402
   33CHL1  H12A 3580   3.368   1.836   5.755 -0.1410  2.5079 -2.0400
   33CHL1  H12B 3581   3.200   1.901   5.783  0.2085 -0.3528 -0.1587
   33CHL1   C11 3582   3.240   1.739   5.903  0.2059  0.3651 -0.6269
   33CHL1  H11A 3583   3.304   1.649   5.895 -0.1019  0.1162 -0.2757
   33CHL1  H11B 3584   3.285   1.796   5.988 -2.3117  1.1485  0.2613
   33CHL1    C9 3585   3.092   1.713   5.938 -0.2721 -0.7692  0.2335
   33CHL1    H9 3586   3.046   1.814   5.945  0.8901 -0.2939  1.3717
   33CHL1   C10 3587   3.065   1.634   6.078 -0.1445 -0.4702  0.3291
   33CHL1   C19 3588   3.166   1.523   6.087  0.5957  0.4263 -0.0671
   33CHL1  H19A 3589   3.174   1.456   5.998 -1.0331  1.0638 -0.7384
   33CHL1  H19B 3590   3.273   1.548   6.102  1.2761 -0.3113 -2.9825
   33CHL1  H19C 3591   3.136   1.462   6.175  1.7584 -0.0322  0.0200
   33CHL1    C1 3592   3.089   1.727   6.200  0.3322  0.0531  0.5980
   33CHL1   H1A 3593   3.196   1.756   6.194  0.1279  0.8038  0.3419
   33CHL1   H1B 3594   3.039   1.823   6.174  0.5589  0.0069 -0.0287
   33CHL1    C2 3595   3.060   1.669   6.335 -0.2603 -0.4428 -0.1611
   33CHL1   H2A 3596   3.073   1.758   6.400 -1.3669  0.7374 -1.4827
   33CHL1   H2B 3597   3.127   1.585   6.361  1.1597  1.4014  2.6011
   33CHL1   C20 3598   3.295   1.809   5.413  0.0951  0.0775  0.7959
   33CHL1   H20 3599   3.359   1.718   5.423 -0.1202 -0.0813  0.7246
   33CHL1   C21 3600   3.372   1.930   5.461  0.4992 -0.0576 -0.8944
   33CHL1  H21A 3601   3.307   2.020   5.454 -0.3887 -0.2982  2.3963
   33CHL1  H21B 3602   3.470   1.947   5.411  0.6961 -0.7360 -0.7476
   33CHL1  H21C 3603   3.392   1.927   5.570  1.5131  1.2665 -1.0162
   33CHL1   C22 3604   3.265   1.838   5.264 -0.3099 -0.3147 -0.0175
   33CHL1  H22A 3605   3.205   1.763   5.208  0.2703  0.8944 -2.4004
   33CHL1  H22B 3606   3.188   1.919   5.267 -0.8424 -0.8478  1.2021
   33CHL1   C23 3607   3.399   1.847   5.185 -0.2907 -0.2925 -0.1840
   33CHL1  H23A 3608   3.458   1.938   5.207  4.1362 -2.8282 -0.3968
   33CHL1  H23B 3609   3.463   1.760   5.210 -1.4248 -0.8997  0.7639
   33CHL1   C24 3610   3.375   1.842   5.034  0.0997 -0.5043 -0.0083
   33CHL1  H24A 3611   3.310   1.753   5.023 -0.6530  0.0656 -0.2517
   33CHL1  H24B 3612   3.320   1.933   5.002  1.4063 -0.2021 -1.5021
   33CHL1   C25 3613   3.511   1.819   4.963  0.4892 -0.1837 -0.6166
   33CHL1   H25 3614   3.563   1.738   5.018 -0.0450 -0.0523  0.1038
   33CHL1   C26 3615   3.503   1.784   4.817  0.1551 -0.1288  0.5136
   33CHL1  H26A 3616   3.458   1.686   4.789  0.8391  0.3844 -2.8360
   33CHL1  H26B 3617   3.449   1.867   4.766 -0.5779 -1.0874 -0.3149
   33CHL1  H26C 3618   3.602   1.776   4.767  0.0402 -1.3768  0.4413
   33CHL1   C27 3619   3.602   1.943   4.967  0.0494 -0.7248 -0.3183
   33CHL1  H27A 3620   3.698   1.917   4.917  0.7953  3.3858 -1.3952
   33CHL1  H27B 3621   3.559   2.029   4.912  3.0806  1.0721 -0.0887
   33CHL1  H27C 3622   3.622   1.975   5.072 -2.2402  2.2251 -0.6412
   34CHL1    C3 3623   4.809   1.786   6.304 -0.0702 -0.7004 -0.4465
   34CHL1    H3 3624   4.723   1.853   6.281  0.3981  0.1830  0.3202
   34CHL1    O3 3625   4.794   1.757   6.443  0.0031  0.0295  0.4522
   34CHL1   H3' 3626   4.876   1.709   6.454  0.0295 -0.3164 -1.0149
   34CHL1    C4 3627   4.788   1.658   6.213  0.0883 -0.1959  0.1735
   34CHL1   H4A 3628   4.845   1.580   6.268  1.1092  1.0986  0.9990
   34CHL1   H4B 3629   4.681   1.632   6.225 -0.2322  1.1123  0.2985
   34CHL1    C5 3630   4.815   1.677   6.063 -0.4357 -0.3329 -0.3459
   34CHL1    C6 3631   4.724   1.659   5.968 -0.4331  0.0023  0.3206
   34CHL1    H6 3632   4.626   1.620   6.000 -0.1213 -0.7744  0.3467
   34CHL1    C7 3633   4.745   1.678   5.820  0.6960  0.5493 -0.5437
   34CHL1   H7A 3634   4.718   1.578   5.781  0.8115  0.0620  0.5972
   34CHL1   H7B 3635   4.687   1.763   5.778 -1.2235 -1.2556 -1.7486
   34CHL1    C8 3636   4.901   1.686   5.793 -0.1436  0.5977 -0.3352
   34CHL1    H8 3637   4.949   1.589   5.819  0.3816  0.6516 -1.0963
   34CHL1   C14 3638   4.936   1.720   5.652 -0.1499  0.4391  0.1753
   34CHL1   H14 3639   4.895   1.821   5.629 -0.6802  0.4199  1.0185
   34CHL1   C15 3640   4.868   1.629   5.548 -0.3723  0.6524 -0.4153
   34CHL1  H15A 3641   4.856   1.525   5.585 -2.1243  0.8009 -0.4508
   34CHL1  H15B 3642   4.764   1.665   5.529 -1.1232 -0.4690  1.2450
   34CHL1   C16 3643   4.954   1.645   5.424  1.0219 -0.7441  0.6629
   34CHL1  H16A 3644   4.984   1.545   5.384 -1.5777 -1.1516 -0.4760
   34CHL1  H16B 3645   4.888   1.696   5.351  0.4846 -0.9588  0.9896
   34CHL1   C17 3646   5.074   1.734   5.460  0.0463  0.0244 -0.3673
   34CHL1   H17 3647   5.044   1.836   5.429  0.0839  0.1346 -0.0442
   34CHL1   C13 3648   5.087   1.724   5.613  0.2820 -0.3616  0.3308
   34CHL1   C18 3649   5.160   1.589   5.653 -0.3760 -0.0415  0.2570
   34CHL1  H18A 3650   5.267   1.595   5.621 -0.5213 -0.0533 -0.2419
   34CHL1  H18B 3651   5.154   1.578   5.763  0.8498 -0.2533  0.3235
   34CHL1  H18C 3652   5.115   1.506   5.595 -2.7861 -1.1814  3.5020
   34CHL1   C12 3653   5.132   1.844   5.690  0.5029  0.0780  0.1358
   34CHL1  H12A 3654   5.242   1.858   5.679  0.1305  2.8951 -0.7488
   34CHL1  H12B 3655   5.088   1.932   5.639  0.2358 -0.2961 -0.2937
   34CHL1   C11 3656   5.115   1.832   5.846  0.2016 -0.5319  0.3029
   34CHL1  H11A 3657   5.193   1.762   5.881 -0.6674 -2.3892 -1.2566
   34CHL1  H11B 3658   5.145   1.932   5.883  0.2933 -0.4727  0.0669
   34CHL1    C9 3659   4.968   1.789   5.885  0.6935 -0.0950 -0.0401
   34CHL1    H9 3660   4.901   1.877   5.884 -1.5267 -1.6861  0.4533
   34CHL1   C10 3661   4.955   1.737   6.042 -0.4786  0.0994 -0.3638
   34CHL1   C19 3662   5.060   1.634   6.070 -0.4196 -0.4947  0.0971
   34CHL1  H19A 3663   5.050   1.596   6.174 -0.0459 -0.6630  0.0720
   34CHL1  H19B 3664   5.073   1.556   5.991 -0.2253  0.8992 -1.2877
   34CHL1  H19C 3665   5.161   1.678   6.064  0.5436 -2.6701 -0.9310
   34CHL1    C1 3666   4.962   1.865   6.124  0.1147 -0.3389  0.4654
   34CHL1   H1A 3667   5.065   1.903   6.111 -0.1499 -0.3131 -1.9777
   34CHL1   H1B 3668   4.903   1.947   6.079  1.6897  0.3483 -0.4316
   34CHL1    C2 3669   4.944   1.851   6.271 -0.4391 -0.2488 -0.6864
   34CHL1   H2A 3670   4.958   1.948   6.323  0.0786 -1.3454  1.3374
   34CHL1   H2B 3671   5.021   1.782   6.312 -1.2015 -1.1189 -0.6949
   34CHL1   C20 3672   5.195   1.702   5.368 -0.5766 -0.1545  0.7551
   34CHL1   H20 3673   5.241   1.605   5.395  0.1365 -0.0973 -0.1751
   34CHL1   C21 3674   5.305   1.804   5.411 -0.5590 -0.8344  0.4645
   34CHL1  H21A 3675   5.376   1.810   5.325 -1.1617 -1.7142 -0.1151
   34CHL1  H21B 3676   5.360   1.777   5.504  0.5451 -0.7701 -0.1463
   34CHL1  H21C 3677   5.264   1.906   5.426 -3.1876 -1.7263 -0.0512
   34CHL1   C22 3678   5.168   1.698   5.210 -0.9119 -0.5726  0.0750
   34CHL1  H22A 3679   5.269   1.684   5.166 -1.3164  0.3557 -1.2316
   34CHL1  H22B 3680   5.091   1.625   5.179 -2.0524  1.3879 -2.0086
   34CHL1   C23 3681   5.111   1.830   5.155  0.5283  0.2125  0.8626
   34CHL1  H23A 3682   5.010   1.849   5.198 -0.0463  1.6342 -0.9821
   34CHL1  H23B 3683   5.175   1.919   5.173 -1.7006  1.6976  1.9540
   34CHL1   C24 3684   5.096   1.802   4.996  0.2300 -0.0850  0.4273
   34CHL1  H24A 3685   5.189   1.767   4.946  0.3150  0.9175 -0.1295
   34CHL1  H24B 3686   5.007   1.739   4.975 -1.1113  1.6129  0.7566
   34CHL1   C25 3687   5.062   1.933   4.922  0.3755  0.0519 -0.0210
   34CHL1   H25 3688   5.155   1.993   4.929  0.6239 -0.3973  0.6130
   34CHL1   C26 3689   5.035   1.902   4.773  0.5794  0.1666  0.2160
   34CHL1  H26A 3690   5.123   1.859   4.721 -0.1559 -2.3273  0.9154
   34CHL1  H26B 3691   4.962   1.820   4.758  0.7285  0.0028  0.3901
   34CHL1  H26C 3692   4.999   1.993   4.719  1.0227  0.3864  0.2876
   34CHL1   C27 3693   4.942   2.014   4.981 -0.0645 -0.1638 -0.0844
   34CHL1  H27A 3694   4.845   1.961   4.966 -0.0148 -0.6158  1.0383
   34CHL1  H27B 3695   4.951   2.024   5.092  4.1860 -0.5313 -0.2346
   34CHL1  H27C 3696   4.938   2.113   4.931 -0.6451 -0.3985 -0.5189
   35CHL1    C3 3697   6.583   5.622   6.863  0.3560 -0.3083  0.1473
   35CHL1    H3 3698   6.599   5.719   6.913 -0.4904  2.0485 -3.7607
   35CHL1    O3 3699   6.520   5.535   6.951  0.5669 -0.7900 -0.3973
   35CHL1   H3' 3700   6.515   5.452   6.902  1.9677 -1.7413  0.9885
   35CHL1    C4 3701   6.486   5.659   6.743  1.1452  0.2512  0.0137
   35CHL1   H4A 3702   6.431   5.572   6.701 -0.6973  1.5399 -0.3653
   35CHL1   H4B 3703   6.408   5.710   6.804  1.6335 -2.0781  2.7675
   35CHL1    C5 3704   6.544   5.735   6.621 -0.0845  0.6186 -0.2188
   35CHL1    C6 3705   6.491   5.844   6.563  0.5884  0.6424 -0.6368
   35CHL1    H6 3706   6.392   5.882   6.595  0.6272 -1.0218  1.7115
   35CHL1    C7 3707   6.553   5.919   6.453  0.7261 -0.2338 -0.1027
   35CHL1   H7A 3708   6.478   5.939   6.373 -0.5675 -0.2599  1.0793
   35CHL1   H7B 3709   6.602   6.015   6.482  0.6389 -0.4265  0.6989
   35CHL1    C8 3710   6.656   5.832   6.378  0.3540  0.2809  0.4615
   35CHL1    H8 3711   6.601   5.749   6.328 -1.1460  0.9035  1.0523
   35CHL1   C14 3712   6.731   5.904   6.269 -0.5143  0.6424 -0.3098
   35CHL1   H14 3713   6.789   5.986   6.315 -0.1435  0.1035  0.1949
   35CHL1   C15 3714   6.645   5.983   6.170  0.3910 -0.2316 -0.3916
   35CHL1  H15A 3715   6.552   5.935   6.134 -1.2548  1.3458  1.5621
   35CHL1  H15B 3716   6.626   6.078   6.223  1.6007  0.2771 -0.8342
   35CHL1   C16 3717   6.741   6.020   6.062 -0.0951 -0.0832  0.3780
   35CHL1  H16A 3718   6.703   5.995   5.961 -1.7190  0.5787  0.7869
   35CHL1  H16B 3719   6.758   6.130   6.061 -0.2610 -0.0359 -1.9510
   35CHL1   C17 3720   6.868   5.937   6.087 -0.2518  0.0815  0.1886
   35CHL1   H17 3721   6.934   6.001   6.148 -2.2698  0.1356  2.4822
   35CHL1   C13 3722   6.840   5.826   6.194  0.4075  0.4972  0.3951
   35CHL1   C18 3723   6.790   5.703   6.121  0.2322 -0.4998  0.1598
   35CHL1  H18A 3724   6.742   5.636   6.195  2.6234 -0.9262  1.4452
   35CHL1  H18B 3725   6.717   5.730   6.042  0.1320 -2.8452 -0.6265
   35CHL1  H18C 3726   6.874   5.653   6.069  1.4753  0.7734  0.8687
   35CHL1   C12 3727   6.946   5.793   6.300 -0.2354  0.3668  0.3813
   35CHL1  H12A 3728   7.032   5.737   6.258 -0.9520 -0.4567 -0.0191
   35CHL1  H12B 3729   6.979   5.888   6.348 -1.3860  1.1199 -0.2621
   35CHL1   C11 3730   6.881   5.709   6.407 -0.2716  0.3457 -0.1427
   35CHL1  H11A 3731   6.872   5.606   6.366  4.0521 -0.4474  0.4925
   35CHL1  H11B 3732   6.960   5.705   6.485 -1.7978 -0.7856  1.4404
   35CHL1    C9 3733   6.753   5.771   6.481  0.1060 -0.1358  0.5166
   35CHL1    H9 3734   6.794   5.857   6.539 -3.1877  1.2706  0.9733
   35CHL1   C10 3735   6.683   5.672   6.579  0.6557 -0.0316 -0.2284
   35CHL1   C19 3736   6.653   5.541   6.502  0.5566  0.2306 -0.2142
   35CHL1  H19A 3737   6.747   5.498   6.463  0.8727  0.1214  0.6367
   35CHL1  H19B 3738   6.609   5.473   6.579  0.1539  0.2540 -0.4178
   35CHL1  H19C 3739   6.567   5.546   6.432 -0.9414 -1.5862  1.3785
   35CHL1    C1 3740   6.781   5.651   6.702  0.7229 -0.4479  0.4630
   35CHL1   H1A 3741   6.875   5.604   6.667  1.3838  0.5266  0.9052
   35CHL1   H1B 3742   6.805   5.753   6.738 -4.2743  0.9660  0.5346
   35CHL1    C2 3743   6.728   5.569   6.821  0.4570  0.2232  0.5873
   35CHL1   H2A 3744   6.797   5.568   6.908  0.3662 -1.4533  0.6671
   35CHL1   H2B 3745   6.713   5.463   6.792  1.4532 -0.6393  2.9956
   35CHL1   C20 3746   6.952   5.900   5.966 -1.1659  0.1371  0.2524
   35CHL1   H20 3747   6.913   5.810   5.913  1.2663  0.0736 -1.6386
   35CHL1   C21 3748   7.100   5.874   6.017  0.3818 -0.1374 -0.7827
   35CHL1  H21A 3749   7.177   5.883   5.937  2.1557  1.0359  0.9715
   35CHL1  H21B 3750   7.111   5.778   6.072  0.5252  0.6243  0.5422
   35CHL1  H21C 3751   7.120   5.954   6.091 -1.5151  1.4589 -1.8865
   35CHL1   C22 3752   6.959   6.009   5.854  0.6596  0.0444  0.1068
   35CHL1  H22A 3753   6.855   6.036   5.825  0.3477 -1.6495 -0.5073
   35CHL1  H22B 3754   7.009   6.098   5.897 -1.6782  1.4492  0.1172
   35CHL1   C23 3755   7.025   5.971   5.715 -0.7103  0.1395 -0.1808
   35CHL1  H23A 3756   7.134   5.993   5.709  0.0303 -3.3356 -2.9380
   35CHL1  H23B 3757   7.023   5.861   5.698  0.5102  0.2638 -1.3718
   35CHL1   C24 3758   6.967   6.030   5.584 -0.2310 -0.6263 -0.1250
   35CHL1  H24A 3759   6.879   5.964   5.568 -1.5078  0.6175  1.4166
   35CHL1  H24B 3760   6.932   6.135   5.598  0.9180 -0.3026  0.3834
   35CHL1   C25 3761   7.055   6.020   5.459  0.5322 -0.4932 -0.2184
   35CHL1   H25 3762   7.105   5.921   5.455 -0.0476 -0.8459  0.9573
   35CHL1   C26 3763   6.966   6.040   5.337  0.7256 -0.0774  0.1914
   35CHL1  H26A 3764   6.880   5.969   5.341  1.8333 -1.5077 -0.4954
   35CHL1  H26B 3765   6.914   6.138   5.347  0.2324 -0.3631  0.4836
   35CHL1  H26C 3766   7.024   6.036   5.242  0.9122  0.9253  0.2578
   35CHL1   C27 3767   7.167   6.127   5.455  0.1832 -1.1391  0.0113
   35CHL1  H27A 3768   7.231   6.135   5.365 -0.8958  3.5262 -0.5936
   35CHL1  H27B 3769   7.107   6.220   5.462  0.9152 -0.7553  2.2249
   35CHL1  H27C 3770   7.223   6.125   5.551  0.4964  0.4294 -0.1181
   36CHL1    C3 3771   2.795   2.470   6.203 -0.0073 -0.5944  0.2396
   36CHL1    H3 3772   2.845   2.374   6.178  1.0065 -0.2785  1.0086
   36CHL1    O3 3773   2.791   2.481   6.351 -0.1807  0.2758 -0.3828
   36CHL1   H3' 3774   2.881   2.483   6.382 -0.7362  0.4354  1.3140
   36CHL1    C4 3775   2.885   2.586   6.146  0.6491  0.0925  0.5477
   36CHL1   H4A 3776   2.833   2.679   6.173 -1.3305 -0.7113 -0.3214
   36CHL1   H4B 3777   2.983   2.580   6.199  0.9879 -1.4838 -0.1753
   36CHL1    C5 3778   2.894   2.588   5.995  0.1104 -0.2388  0.2180
   36CHL1    C6 3779   3.008   2.596   5.931 -0.0030  0.2588 -0.8160
   36CHL1    H6 3780   3.097   2.614   5.994  0.3941 -2.1637 -0.5901
   36CHL1    C7 3781   3.020   2.570   5.784 -0.1963 -0.9172 -0.1348
   36CHL1   H7A 3782   3.109   2.625   5.746 -2.1945  3.4272  0.8829
   36CHL1   H7B 3783   3.038   2.461   5.772  0.5795 -1.0013  1.5180
   36CHL1    C8 3784   2.902   2.612   5.697  0.9053  0.8661 -0.3562
   36CHL1    H8 3785   2.890   2.723   5.698  1.4295  0.9208  0.1632
   36CHL1   C14 3786   2.903   2.559   5.553 -0.7068  0.1045 -0.0322
   36CHL1   H14 3787   2.884   2.451   5.569 -1.0933 -0.5843 -4.2073
   36CHL1   C15 3788   3.032   2.589   5.481  0.0692 -0.7308 -0.5522
   36CHL1  H15A 3789   3.071   2.689   5.512  1.2661 -1.7117  1.3326
   36CHL1  H15B 3790   3.113   2.522   5.519  0.9568  0.7347  0.2595
   36CHL1   C16 3791   2.996   2.591   5.327  0.6905  0.4425 -0.5694
   36CHL1  H16A 3792   3.012   2.698   5.302  1.4327  0.6838  0.8411
   36CHL1  H16B 3793   3.061   2.519   5.273 -1.8255 -2.4088 -0.0817
   36CHL1   C17 3794   2.847   2.548   5.329 -0.1319 -0.3100  1.0181
   36CHL1   H17 3795   2.850   2.438   5.345  0.7492 -0.3223  0.7908
   36CHL1   C13 3796   2.785   2.601   5.468 -0.1700  0.3877 -0.8004
   36CHL1   C18 3797   2.769   2.761   5.469 -0.0154 -0.2731  0.8657
   36CHL1  H18A 3798   2.701   2.801   5.390 -0.4359 -1.2365  0.7287
   36CHL1  H18B 3799   2.739   2.796   5.570 -1.4314 -2.4504  1.2463
   36CHL1  H18C 3800   2.872   2.803   5.465  0.4675 -1.3503  1.6522
   36CHL1   C12 3801   2.654   2.535   5.527  0.6210  0.1257 -1.0370
   36CHL1  H12A 3802   2.568   2.569   5.466  0.0484 -0.1937 -0.4182
   36CHL1  H12B 3803   2.661   2.424   5.531 -0.2785  0.1078  1.9068
   36CHL1   C11 3804   2.639   2.569   5.679  0.3905 -0.3248  0.1669
   36CHL1  H11A 3805   2.606   2.674   5.691  0.9280 -0.1329  0.0131
   36CHL1  H11B 3806   2.561   2.505   5.725 -0.3400 -0.0613 -0.6806
   36CHL1    C9 3807   2.775   2.553   5.765  0.5126  0.4785 -0.2595
   36CHL1    H9 3808   2.804   2.445   5.764  2.6574  1.0187 -0.1301
   36CHL1   C10 3809   2.753   2.582   5.919  0.5712 -0.1520  0.0944
   36CHL1   C19 3810   2.678   2.720   5.939  0.3685  0.1955  0.3371
   36CHL1  H19A 3811   2.572   2.698   5.911  0.1838  1.0212  0.3623
   36CHL1  H19B 3812   2.685   2.757   6.044  0.9384 -1.4019  0.8969
   36CHL1  H19C 3813   2.712   2.803   5.874 -2.3409  0.1328 -1.3476
   36CHL1    C1 3814   2.662   2.474   5.987  0.7874 -0.1124 -0.1834
   36CHL1   H1A 3815   2.560   2.497   5.950  1.4386  2.1016 -0.7097
   36CHL1   H1B 3816   2.695   2.377   5.944  0.6221  0.2112 -1.0518
   36CHL1    C2 3817   2.655   2.473   6.139 -0.0590 -1.0875 -0.2673
   36CHL1   H2A 3818   2.598   2.385   6.175 -1.9305 -0.0815 -0.6710
   36CHL1   H2B 3819   2.594   2.560   6.171 -1.1707 -1.1749 -1.9981
   36CHL1   C20 3820   2.769   2.572   5.196  0.3289 -0.1761 -0.5863
   36CHL1   H20 3821   2.768   2.683   5.193 -1.1325 -0.1328  0.4016
   36CHL1   C21 3822   2.627   2.521   5.206 -0.6009 -0.4372  0.1069
   36CHL1  H21A 3823   2.617   2.434   5.274  1.6000 -0.6030  0.3144
   36CHL1  H21B 3824   2.586   2.490   5.107 -2.3727 -1.8933  1.2402
   36CHL1  H21C 3825   2.561   2.603   5.241  1.3201  1.3638 -0.2812
   36CHL1   C22 3826   2.850   2.513   5.074  0.2377 -0.3777  0.3736
   36CHL1  H22A 3827   2.959   2.522   5.090  0.0088  0.0869  1.8120
   36CHL1  H22B 3828   2.824   2.405   5.076  1.8944 -0.7843  1.0135
   36CHL1   C23 3829   2.800   2.580   4.943  0.2659  0.0772  0.4323
   36CHL1  H23A 3830   2.693   2.555   4.929  0.1382  0.6071  0.4418
   36CHL1  H23B 3831   2.812   2.690   4.945  3.2966 -0.1015 -1.0770
   36CHL1   C24 3832   2.884   2.534   4.826 -0.7105  0.1830  0.2410
   36CHL1  H24A 3833   2.990   2.542   4.859 -0.8135 -0.5996  0.8032
   36CHL1  H24B 3834   2.869   2.426   4.806 -2.7453  0.2797  1.0905
   36CHL1   C25 3835   2.872   2.629   4.703  0.0751  0.2076  0.0244
   36CHL1   H25 3836   2.763   2.642   4.684 -0.4876 -0.0367  2.6845
   36CHL1   C26 3837   2.928   2.760   4.724  0.2336  0.0125 -0.4306
   36CHL1  H26A 3838   2.938   2.816   4.628  1.0605  1.2668  0.3615
   36CHL1  H26B 3839   2.858   2.811   4.794 -0.9577 -0.1411 -1.4820
   36CHL1  H26C 3840   3.032   2.764   4.762 -0.4213  2.0494  1.3367
   36CHL1   C27 3841   2.949   2.559   4.581  0.1615  0.5234 -0.4071
   36CHL1  H27A 3842   3.051   2.541   4.621 -0.3787 -0.3596  0.6279
   36CHL1  H27B 3843   2.899   2.462   4.564  0.7656 -0.3837  2.4891
   36CHL1  H27C 3844   2.957   2.614   4.485  1.7060  0.6856 -0.2055
   37CHL1    C3 3845   5.089   5.418   6.344 -0.9858  0.3952  0.4598
   37CHL1    H3 3846   4.989   5.467   6.357 -0.5812  1.3520  0.0734
   37CHL1    O3 3847   5.149   5.420   6.477  0.4950 -0.0543 -0.0855
   37CHL1   H3' 3848   5.209   5.346   6.469  1.0383  0.5897 -3.9578
   37CHL1    C4 3849   5.073   5.272   6.296  0.0031  0.2452 -0.3840
   37CHL1   H4A 3850   5.173   5.223   6.292  0.8036  1.8013 -0.4187
   37CHL1   H4B 3851   5.019   5.213   6.372  2.7588 -0.8145  0.8968
   37CHL1    C5 3852   5.009   5.277   6.162 -0.6487  0.0665 -0.1790
   37CHL1    C6 3853   4.894   5.214   6.136  0.0565 -0.1126 -0.2099
   37CHL1    H6 3854   4.834   5.175   6.220 -1.8395  1.0750 -0.9539
   37CHL1    C7 3855   4.835   5.191   6.000  0.0157 -0.2015  0.0071
   37CHL1   H7A 3856   4.803   5.086   5.986 -3.6922  1.0283 -2.3955
   37CHL1   H7B 3857   4.745   5.253   5.979  0.9659  0.9283 -0.8412
   37CHL1    C8 3858   4.922   5.231   5.880  0.3208  0.1318  0.4927
   37CHL1    H8 3859   4.988   5.143   5.865  0.1799 -0.4415  2.8954
   37CHL1   C14 3860   4.844   5.266   5.751  0.1096 -0.1087 -0.5207
   37CHL1   H14 3861   4.787   5.356   5.781  0.2414 -0.6244  1.4409
   37CHL1   C15 3862   4.725   5.173   5.700 -0.3930  0.0169  0.1521
   37CHL1  H15A 3863   4.771   5.073   5.713  1.0813  0.7735  1.0981
   37CHL1  H15B 3864   4.640   5.195   5.768  0.0892 -0.8014  1.0308
   37CHL1   C16 3865   4.703   5.207   5.555 -0.2352  0.0822 -0.4394
   37CHL1  H16A 3866   4.717   5.123   5.484  1.0114  2.1326 -2.7538
   37CHL1  H16B 3867   4.600   5.246   5.542  0.1925  1.1065 -0.8257
   37CHL1   C17 3868   4.803   5.319   5.521 -0.0295  0.2630  0.8748
   37CHL1   H17 3869   4.765   5.417   5.557  1.0550  1.4897 -1.1586
   37CHL1   C13 3870   4.919   5.306   5.627 -0.4240 -0.0954 -0.2473
   37CHL1   C18 3871   5.012   5.195   5.579 -1.0934  0.2729 -0.5032
   37CHL1  H18A 3872   5.062   5.146   5.666 -0.9961  0.0968 -0.6580
   37CHL1  H18B 3873   4.956   5.114   5.528 -0.2772 -1.4743  1.2665
   37CHL1  H18C 3874   5.093   5.234   5.514 -0.8698 -2.1953 -1.8211
   37CHL1   C12 3875   5.003   5.426   5.664 -0.1776  0.1565 -0.2026
   37CHL1  H12A 3876   5.064   5.464   5.579  2.4844  0.7631  1.8645
   37CHL1  H12B 3877   4.932   5.503   5.700  1.4141  1.0844  1.0902
   37CHL1   C11 3878   5.094   5.394   5.789 -0.3743 -0.1958 -0.1706
   37CHL1  H11A 3879   5.164   5.314   5.755  0.6015  0.0746  1.1470
   37CHL1  H11B 3880   5.153   5.487   5.805  0.3587 -0.1800 -2.5432
   37CHL1    C9 3881   5.015   5.358   5.911 -0.3222  0.2402 -0.6356
   37CHL1    H9 3882   4.941   5.439   5.925 -0.5833 -0.2852  1.2916
   37CHL1   C10 3883   5.089   5.350   6.049  0.1420 -0.0827 -0.0054
   37CHL1   C19 3884   5.214   5.278   6.015 -0.2933  0.1719  0.2664
   37CHL1  H19A 3885   5.291   5.335   5.960 -0.8884  1.7165  0.9890
   37CHL1  H19B 3886   5.270   5.254   6.108  1.5678 -2.8695 -1.4420
   37CHL1  H19C 3887   5.207   5.178   5.967 -2.5971  0.7508 -0.7184
   37CHL1    C1 3888   5.119   5.491   6.111  0.3099  0.2858 -0.4118
   37CHL1   H1A 3889   5.200   5.539   6.052  1.7797  1.7543  2.5370
   37CHL1   H1B 3890   5.028   5.554   6.108  0.4570  0.6317  1.2408
   37CHL1    C2 3891   5.182   5.493   6.248  0.3984  0.3088 -0.1242
   37CHL1   H2A 3892   5.193   5.600   6.277 -0.3531  0.3647 -0.0192
   37CHL1   H2B 3893   5.284   5.454   6.263 -0.4602 -1.8160  0.4859
   37CHL1   C20 3894   4.851   5.341   5.371 -1.0081 -0.5570 -0.2253
   37CHL1   H20 3895   4.961   5.351   5.369 -1.1033  0.5110 -0.5186
   37CHL1   C21 3896   4.786   5.470   5.320  0.1347  1.0769  0.4697
   37CHL1  H21A 3897   4.685   5.437   5.289  1.4144 -1.6056 -1.2050
   37CHL1  H21B 3898   4.842   5.514   5.235  1.9697 -1.9855 -0.0743
   37CHL1  H21C 3899   4.781   5.546   5.401  1.8586  0.5861  1.0759
   37CHL1   C22 3900   4.822   5.215   5.281 -0.2757 -0.7252 -0.5909
   37CHL1  H22A 3901   4.876   5.124   5.313  1.2030  0.0228 -0.8090
   37CHL1  H22B 3902   4.713   5.198   5.275 -0.8506  1.4270  1.9109
   37CHL1   C23 3903   4.861   5.240   5.135 -0.1857 -0.7521  1.2465
   37CHL1  H23A 3904   4.779   5.295   5.083  1.7582 -1.3983 -2.9064
   37CHL1  H23B 3905   4.953   5.303   5.130 -0.0718 -1.0217 -1.2129
   37CHL1   C24 3906   4.885   5.110   5.051 -0.3493 -0.2800 -0.0253
   37CHL1  H24A 3907   4.814   5.033   5.086 -3.1821  2.5876  0.9991
   37CHL1  H24B 3908   4.854   5.145   4.950 -2.0943  0.8376  0.8410
   37CHL1   C25 3909   5.031   5.060   5.046 -0.1957 -0.5183  0.9197
   37CHL1   H25 3910   5.088   5.149   5.011 -4.8206  1.9372 -1.3334
   37CHL1   C26 3911   5.091   5.007   5.176  0.0378 -0.5994  0.2619
   37CHL1  H26A 3912   5.121   5.095   5.236  0.8035 -1.1771  0.7466
   37CHL1  H26B 3913   5.015   4.946   5.228 -0.6475  0.2041  0.2152
   37CHL1  H26C 3914   5.184   4.950   5.155  0.6747  0.8715 -1.2127
   37CHL1   C27 3915   5.047   4.948   4.945  0.0651 -0.6210  0.0473
   37CHL1  H27A 3916   5.005   4.984   4.848 -0.5765 -1.1300  0.1299
   37CHL1  H27B 3917   5.156   4.931   4.930 -0.1002 -0.6860 -1.2008
   37CHL1  H27C 3918   5.000   4.854   4.981 -1.6760  0.3104  0.3244
   38CHL1    C3 3919   3.703   5.404   6.264 -0.5378 -0.2629 -0.3829
   38CHL1    H3 3920   3.610   5.343   6.265 -0.9228  0.2610  2.2619
   38CHL1    O3 3921   3.730   5.407   6.406 -0.8795  0.3384 -0.5256
   38CHL1   H3' 3922   3.786   5.330   6.416  1.8396  2.3225  0.6333
   38CHL1    C4 3923   3.828   5.349   6.196  0.1120  0.1969 -1.2084
   38CHL1   H4A 3924   3.920   5.409   6.212 -0.0442  0.8016 -2.4519
   38CHL1   H4B 3925   3.841   5.246   6.233  0.1758  0.5045 -0.3585
   38CHL1    C5 3926   3.809   5.354   6.047 -0.2818  0.6412  0.1176
   38CHL1    C6 3927   3.838   5.239   5.976  0.4757  0.1156 -0.0982
   38CHL1    H6 3928   3.885   5.153   6.027  1.5133  0.2695 -0.7553
   38CHL1    C7 3929   3.841   5.239   5.824 -0.1390 -0.2839 -0.6960
   38CHL1   H7A 3930   3.931   5.181   5.797 -0.4409 -1.2413  0.2592
   38CHL1   H7B 3931   3.748   5.187   5.792 -2.4743  2.3882  1.1557
   38CHL1    C8 3932   3.829   5.371   5.752  0.2385 -0.0619  0.2649
   38CHL1    H8 3933   3.922   5.432   5.747 -0.5730  1.1706 -0.6332
   38CHL1   C14 3934   3.783   5.345   5.612 -0.2105 -0.1579  0.2185
   38CHL1   H14 3935   3.685   5.292   5.611 -0.8891  0.9878  1.6974
   38CHL1   C15 3936   3.879   5.258   5.522  0.2928 -0.0886  0.1604
   38CHL1  H15A 3937   3.985   5.292   5.525  0.4380 -0.5902  1.0154
   38CHL1  H15B 3938   3.889   5.151   5.548 -0.7129 -0.7678 -1.9433
   38CHL1   C16 3939   3.827   5.281   5.377 -0.0841  0.9834  0.0252
   38CHL1  H16A 3940   3.911   5.297   5.306  0.1388 -0.7086 -0.1327
   38CHL1  H16B 3941   3.779   5.183   5.357  0.6812  0.2239  1.7199
   38CHL1   C17 3942   3.722   5.394   5.392  0.0093  0.1112  0.4622
   38CHL1   H17 3943   3.622   5.349   5.409 -0.6517  1.4603  0.2813
   38CHL1   C13 3944   3.756   5.472   5.527 -0.2228 -0.3128 -0.2263
   38CHL1   C18 3945   3.889   5.545   5.508  0.7188 -0.0823 -0.0792
   38CHL1  H18A 3946   3.887   5.644   5.457 -0.9715 -0.4007 -0.6811
   38CHL1  H18B 3947   3.936   5.576   5.604  2.9149  1.1908 -1.4678
   38CHL1  H18C 3948   3.961   5.480   5.454  0.7358 -1.5493  1.6329
   38CHL1   C12 3949   3.645   5.549   5.604 -0.1324  0.2354  0.2787
   38CHL1  H12A 3950   3.633   5.649   5.557  2.1397  0.2684 -0.3323
   38CHL1  H12B 3951   3.543   5.509   5.590  0.3580 -0.5424 -1.2797
   38CHL1   C11 3952   3.689   5.580   5.748  0.3025  0.3672 -0.0376
   38CHL1  H11A 3953   3.770   5.656   5.750 -0.7012  1.4739  2.1068
   38CHL1  H11B 3954   3.601   5.630   5.794  0.6589  1.1724 -0.2200
   38CHL1    C9 3955   3.725   5.459   5.829 -0.3124 -0.4023 -0.1836
   38CHL1    H9 3956   3.629   5.403   5.831 -1.0577  0.8445  0.6846
   38CHL1   C10 3957   3.761   5.483   5.977  0.0781  0.0411 -0.3537
   38CHL1   C19 3958   3.884   5.577   5.983 -0.3370 -0.6324  0.6098
   38CHL1  H19A 3959   3.980   5.548   5.934  0.5015  1.2972  0.9863
   38CHL1  H19B 3960   3.865   5.679   5.943  1.2281 -1.1326 -1.5968
   38CHL1  H19C 3961   3.916   5.596   6.088 -1.0531  2.1287  0.4104
   38CHL1    C1 3962   3.645   5.546   6.062  0.4700 -0.1169  0.0919
   38CHL1   H1A 3963   3.619   5.642   6.013  0.8199  0.0084  0.1482
   38CHL1   H1B 3964   3.552   5.486   6.053  1.1324 -1.3502  1.1912
   38CHL1    C2 3965   3.676   5.548   6.213  0.2150  0.0780  0.6509
   38CHL1   H2A 3966   3.587   5.593   6.263 -0.6452  1.3374 -1.8679
   38CHL1   H2B 3967   3.759   5.617   6.241  0.0941  0.1214  0.9135
   38CHL1   C20 3968   3.708   5.474   5.262 -0.5188 -0.1487  0.4232
   38CHL1   H20 3969   3.776   5.561   5.254  0.6372 -0.9481  1.2466
   38CHL1   C21 3970   3.569   5.533   5.270 -0.8270 -0.4859 -0.4675
   38CHL1  H21A 3971   3.497   5.448   5.262 -0.4219 -0.7385 -1.5275
   38CHL1  H21B 3972   3.546   5.601   5.185 -0.6051  1.4094  0.9250
   38CHL1  H21C 3973   3.561   5.598   5.360  0.2187  1.8086 -1.9336
   38CHL1   C22 3974   3.729   5.389   5.131 -0.6255 -0.1361  0.2136
   38CHL1  H22A 3975   3.825   5.333   5.126 -0.7521 -0.3687  0.3498
   38CHL1  H22B 3976   3.661   5.302   5.148 -0.2235 -0.7117 -0.9611
   38CHL1   C23 3977   3.710   5.454   4.995 -0.1219 -0.5355 -0.1130
   38CHL1  H23A 3978   3.607   5.496   4.990 -0.2447 -0.9348 -1.2637
   38CHL1  H23B 3979   3.781   5.540   4.989 -0.9766  0.3789  1.8759
   38CHL1   C24 3980   3.734   5.358   4.878  0.1903 -0.2608 -0.2657
   38CHL1  H24A 3981   3.844   5.359   4.864  0.2758 -3.8577 -0.9502
   38CHL1  H24B 3982   3.715   5.253   4.910  0.5016  0.4740  2.6490
   38CHL1   C25 3983   3.670   5.393   4.746  0.1474 -0.3263  0.4551
   38CHL1   H25 3984   3.560   5.401   4.755 -0.0465  0.4472 -2.0191
   38CHL1   C26 3985   3.721   5.529   4.691  0.6336 -0.0909 -0.7635
   38CHL1  H26A 3986   3.657   5.562   4.606 -2.0966 -2.4232  0.2049
   38CHL1  H26B 3987   3.718   5.608   4.768  1.6262 -0.3568 -0.4410
   38CHL1  H26C 3988   3.825   5.499   4.664  0.3620 -2.2878  0.3754
   38CHL1   C27 3989   3.694   5.289   4.632  0.1133 -0.8930 -0.4144
   38CHL1  H27A 3990   3.803   5.275   4.611  0.7802  0.8802  1.5071
   38CHL1  H27B 3991   3.651   5.191   4.661 -3.5513 -0.5343 -3.7909
   38CHL1  H27C 3992   3.642   5.326   4.541  0.2011  0.4811  0.0663
   39CHL1    C3 3993   6.240   6.521   6.557  0.2090  0.3784 -0.4297
   39CHL1    H3 3994   6.130   6.518   6.545  0.4769 -0.6528 -3.8091
   39CHL1    O3 3995   6.266   6.579   6.689 -0.4168 -1.0825  0.4472
   39CHL1   H3' 3996   6.231   6.668   6.678  0.7108 -0.4858  1.3541
   39CHL1    C4 3997   6.292   6.374   6.552 -0.0192 -0.2544  0.0530
   39CHL1   H4A 3998   6.401   6.389   6.566  0.0425  1.4456 -1.7820
   39CHL1   H4B 3999   6.255   6.317   6.639  2.7232 -2.1723  0.0892
   39CHL1    C5 4000   6.260   6.299   6.421 -0.0118 -0.0910  0.5985
   39CHL1    C6 4001   6.197   6.180   6.417  0.0905 -0.2268  0.5787
   39CHL1    H6 4002   6.157   6.141   6.512  1.1575 -3.1007 -0.0625
   39CHL1    C7 4003   6.165   6.115   6.287 -0.3125  0.0662 -0.7728
   39CHL1   H7A 4004   6.201   6.013   6.313 -0.6337  0.3990  1.1403
   39CHL1   H7B 4005   6.055   6.119   6.273 -0.7672  1.1107  2.2909
   39CHL1    C8 4006   6.241   6.167   6.160  0.3479  0.6750 -0.1480
   39CHL1    H8 4007   6.345   6.129   6.165  0.6050  1.2192 -1.2268
   39CHL1   C14 4008   6.171   6.126   6.030 -0.3601  0.1503 -0.6135
   39CHL1   H14 4009   6.063   6.151   6.047 -0.6428 -2.3648  2.2298
   39CHL1   C15 4010   6.154   5.973   6.015 -0.3327 -0.1686  0.6868
   39CHL1  H15A 4011   6.246   5.941   6.068  0.1145 -0.9454 -0.5286
   39CHL1  H15B 4012   6.075   5.926   6.077  0.4474 -0.3137  1.5808
   39CHL1   C16 4013   6.126   5.965   5.871  0.6888  0.2367 -0.0689
   39CHL1  H16A 4014   6.208   5.905   5.825  0.1880 -0.0348 -0.6142
   39CHL1  H16B 4015   6.023   5.928   5.855 -0.6513  4.0522 -1.3675
   39CHL1   C17 4016   6.134   6.106   5.804 -0.2354  0.1928 -0.3066
   39CHL1   H17 4017   6.028   6.138   5.810  0.2237  1.5189  1.0125
   39CHL1   C13 4018   6.218   6.182   5.902  0.1344 -0.7021 -0.1138
   39CHL1   C18 4019   6.370   6.136   5.900 -0.3351  0.2798 -0.1134
   39CHL1  H18A 4020   6.433   6.200   5.964 -0.5695  2.4948 -1.9797
   39CHL1  H18B 4021   6.386   6.034   5.943  0.6599  0.4228 -0.1401
   39CHL1  H18C 4022   6.409   6.140   5.796 -0.1272 -0.4555 -0.0739
   39CHL1   C12 4023   6.196   6.330   5.911  0.5341 -0.2797  0.1459
   39CHL1  H12A 4024   6.233   6.384   5.821 -0.4923  1.0354  0.4775
   39CHL1  H12B 4025   6.089   6.358   5.903  0.6628 -0.1469 -1.4873
   39CHL1   C11 4026   6.262   6.393   6.034  0.2788  0.0030  0.3653
   39CHL1  H11A 4027   6.370   6.407   6.010  0.3036  0.5141  0.7580
   39CHL1  H11B 4028   6.230   6.498   6.049  1.8376  0.4358  0.8925
   39CHL1    C9 4029   6.232   6.317   6.170 -0.1422  0.0597 -0.2667
   39CHL1    H9 4030   6.123   6.329   6.188 -0.2636 -0.0368 -0.9422
   39CHL1   C10 4031   6.305   6.374   6.296 -0.1091 -0.1543 -0.2546
   39CHL1   C19 4032   6.461   6.366   6.277  0.3580  0.0930 -0.9442
   39CHL1  H19A 4033   6.482   6.257   6.269  0.7537  0.0296  0.6462
   39CHL1  H19B 4034   6.484   6.418   6.181 -1.8769  0.5313 -1.2983
   39CHL1  H19C 4035   6.505   6.423   6.361 -3.3804  0.0063  1.3091
   39CHL1    C1 4036   6.271   6.533   6.304 -0.7783  0.4818 -0.0763
   39CHL1   H1A 4037   6.321   6.589   6.223 -2.0520 -0.8361 -1.8567
   39CHL1   H1B 4038   6.163   6.554   6.285 -0.2579  1.2278 -2.5910
   39CHL1    C2 4039   6.302   6.598   6.441  0.2850  0.1388 -0.8036
   39CHL1   H2A 4040   6.267   6.704   6.439  1.0575  0.4074 -0.5073
   39CHL1   H2B 4041   6.412   6.605   6.459  0.2253  2.8438 -1.0702
   39CHL1   C20 4042   6.187   6.089   5.659  0.3990  0.8388 -0.0062
   39CHL1   H20 4043   6.287   6.044   5.675 -0.4778 -0.7650  1.1792
   39CHL1   C21 4044   6.200   6.229   5.598 -0.4567  0.2726  1.2202
   39CHL1  H21A 4045   6.281   6.297   5.630 -0.8499  1.8845 -0.9646
   39CHL1  H21B 4046   6.100   6.275   5.615  0.2496  1.7439  1.5052
   39CHL1  H21C 4047   6.205   6.211   5.489 -0.3380 -1.6861  1.5170
   39CHL1   C22 4048   6.118   5.988   5.569  0.5153  0.0886 -0.3551
   39CHL1  H22A 4049   6.183   5.980   5.479  3.1277 -0.2892  1.4471
   39CHL1  H22B 4050   6.118   5.892   5.625 -0.7941  0.2976  0.0263
   39CHL1   C23 4051   5.975   6.018   5.528  0.8967 -0.5884  0.6128
   39CHL1  H23A 4052   5.916   6.024   5.622  1.1405  1.6111  0.6879
   39CHL1  H23B 4053   5.958   6.117   5.480 -0.2910 -0.8048  0.5546
   39CHL1   C24 4054   5.921   5.915   5.428  0.5950 -0.2388 -0.3461
   39CHL1  H24A 4055   5.981   5.905   5.335 -1.8146  0.9187 -2.1471
   39CHL1  H24B 4056   5.917   5.812   5.470 -0.2622 -0.5623 -1.1888
   39CHL1   C25 4057   5.782   5.957   5.374  0.6171 -0.1339  0.1095
   39CHL1   H25 4058   5.809   6.059   5.339  0.3607  0.2297  0.9426
   39CHL1   C26 4059   5.729   5.888   5.248  1.4695 -0.1702 -0.1801
   39CHL1  H26A 4060   5.682   5.789   5.267 -0.7542  0.6651 -0.9260
   39CHL1  H26B 4061   5.653   5.952   5.198 -0.0752 -0.9841  0.9897
   39CHL1  H26C 4062   5.810   5.879   5.173 -0.1434 -1.3823 -1.8736
   39CHL1   C27 4063   5.679   5.972   5.486 -0.3074  0.8941  0.1491
   39CHL1  H27A 4064   5.657   5.877   5.539 -1.7726  1.1865  0.1255
   39CHL1  H27B 4065   5.720   6.029   5.572  2.2202 -1.8919  0.9475
   39CHL1  H27C 4066   5.588   6.022   5.446 -1.0234 -1.6880 -1.7211
   40CHL1    C3 4067   6.061   3.189   6.499  0.0026 -0.5051  0.0977
   40CHL1    H3 4068   6.171   3.180   6.480 -0.1541  1.3328 -2.1651
   40CHL1    O3 4069   6.016   3.164   6.633  0.3659  0.0957  0.3075
   40CHL1   H3' 4070   5.921   3.177   6.628  0.4839  0.9478  0.0604
   40CHL1    C4 4071   6.027   3.334   6.453  0.2601 -0.8909  0.2416
   40CHL1   H4A 4072   5.918   3.349   6.462 -0.3739 -3.6024 -1.5768
   40CHL1   H4B 4073   6.086   3.402   6.518  0.9532 -1.8005  0.5940
   40CHL1    C5 4074   6.072   3.353   6.306  0.5794 -1.2699 -0.1116
   40CHL1    C6 4075   6.171   3.441   6.286  0.0189 -0.0164 -0.2976
   40CHL1    H6 4076   6.224   3.490   6.369  0.6388  0.9362 -1.2274
   40CHL1    C7 4077   6.212   3.472   6.145  0.3429  0.2828 -0.3627
   40CHL1   H7A 4078   6.215   3.583   6.133  0.2030  0.4044  0.6959
   40CHL1   H7B 4079   6.316   3.437   6.132 -0.0112 -0.6081 -0.8866
   40CHL1    C8 4080   6.115   3.414   6.033  0.1158 -0.1256 -0.8240
   40CHL1    H8 4081   6.027   3.481   6.035  0.4181  0.2579 -0.1043
   40CHL1   C14 4082   6.186   3.417   5.896  0.1798 -0.9679  0.5019
   40CHL1   H14 4083   6.279   3.357   5.906  3.7078  3.8441  0.3221
   40CHL1   C15 4084   6.240   3.549   5.839 -0.8409  0.6709 -0.1920
   40CHL1  H15A 4085   6.160   3.618   5.875 -2.1011 -0.0286 -1.5377
   40CHL1  H15B 4086   6.334   3.591   5.882 -1.9578  0.7968  2.3195
   40CHL1   C16 4087   6.230   3.540   5.688 -0.8623 -0.3631 -0.1610
   40CHL1  H16A 4088   6.154   3.611   5.649 -0.0385  0.5150 -0.2240
   40CHL1  H16B 4089   6.332   3.554   5.646 -0.0031  0.4585  2.0536
   40CHL1   C17 4090   6.190   3.397   5.657  0.7816  0.0063 -0.7333
   40CHL1   H17 4091   6.274   3.324   5.655 -1.4941 -2.8456  0.2819
   40CHL1   C13 4092   6.102   3.349   5.778 -0.8008  0.1039 -0.3635
   40CHL1   C18 4093   5.965   3.419   5.767 -0.2294 -0.2432  0.3047
   40CHL1  H18A 4094   5.971   3.530   5.778  4.4767 -0.2098 -0.7299
   40CHL1  H18B 4095   5.918   3.389   5.671  0.7072 -1.3871  0.1872
   40CHL1  H18C 4096   5.895   3.385   5.847 -1.8398 -0.2248 -1.0400
   40CHL1   C12 4097   6.088   3.202   5.814  0.0377  0.7222 -0.4896
   40CHL1  H12A 4098   6.020   3.146   5.746  0.3164 -0.1759 -0.0458
   40CHL1  H12B 4099   6.189   3.155   5.816 -1.8588 -3.8078  1.1568
   40CHL1   C11 4100   6.033   3.180   5.961 -0.2616 -0.4776 -0.7075
   40CHL1  H11A 4101   5.925   3.204   5.959  0.2468  2.9764  1.8859
   40CHL1  H11B 4102   6.044   3.072   5.986  1.6870 -0.0972  0.3473
   40CHL1    C9 4103   6.090   3.269   6.073 -0.0284 -0.0957  0.4880
   40CHL1    H9 4104   6.188   3.221   6.091  0.3159  0.5698  0.3804
   40CHL1   C10 4105   6.009   3.255   6.209  0.7358  0.1769 -0.6864
   40CHL1   C19 4106   5.853   3.276   6.181  0.3884 -0.2893 -0.1117
   40CHL1  H19A 4107   5.799   3.289   6.277  3.5248  1.4341  1.5551
   40CHL1  H19B 4108   5.840   3.359   6.108  0.3363 -1.3444 -1.3536
   40CHL1  H19C 4109   5.803   3.188   6.135  1.2247 -0.1711 -1.3104
   40CHL1    C1 4110   6.025   3.111   6.263  0.1704 -0.3964 -0.9104
   40CHL1   H1A 4111   5.962   3.043   6.202 -0.1603 -1.6363  0.7644
   40CHL1   H1B 4112   6.126   3.073   6.237  1.1586  0.7869  1.0023
   40CHL1    C2 4113   5.982   3.088   6.406 -0.2448  0.4147 -0.2302
   40CHL1   H2A 4114   6.002   2.982   6.434 -3.1265 -0.3750 -0.8087
   40CHL1   H2B 4115   5.875   3.111   6.422  0.2492  0.9386  2.8538
   40CHL1   C20 4116   6.120   3.383   5.517  0.2326 -0.1505 -0.7170
   40CHL1   H20 4117   6.035   3.453   5.524 -0.8709 -1.3960 -1.2371
   40CHL1   C21 4118   6.067   3.238   5.501  0.1358 -0.2400  0.3244
   40CHL1  H21A 4119   6.069   3.209   5.393  2.4317 -2.4317  0.8374
   40CHL1  H21B 4120   5.966   3.218   5.542  0.4779  0.8544  1.7544
   40CHL1  H21C 4121   6.140   3.180   5.562  1.8865  2.9233  1.4697
   40CHL1   C22 4122   6.206   3.430   5.399  0.6497  0.6741 -0.2250
   40CHL1  H22A 4123   6.246   3.529   5.432  2.6384  0.9808 -3.1556
   40CHL1  H22B 4124   6.298   3.368   5.395  0.8574  0.6500  2.6931
   40CHL1   C23 4125   6.136   3.433   5.264 -0.1973  0.2063 -0.3364
   40CHL1  H23A 4126   6.105   3.330   5.239  1.9351 -0.9221  1.3322
   40CHL1  H23B 4127   6.051   3.505   5.271  1.7301  2.6042  0.0193
   40CHL1   C24 4128   6.217   3.487   5.150  0.2882  0.1809 -0.5393
   40CHL1  H24A 4129   6.265   3.586   5.167 -1.7956  0.8827  1.6936
   40CHL1  H24B 4130   6.312   3.429   5.142  0.0129 -0.8421  2.4155
   40CHL1   C25 4131   6.149   3.478   5.011 -0.9320 -0.0360  0.6564
   40CHL1   H25 4132   6.097   3.380   5.002  2.0339 -1.6489 -0.1502
   40CHL1   C26 4133   6.047   3.585   4.983 -0.0031  0.2925 -0.4602
   40CHL1  H26A 4134   5.980   3.603   5.070  1.0025  0.9668  0.1901
   40CHL1  H26B 4135   6.092   3.683   4.958 -2.2380  2.1562  2.2139
   40CHL1  H26C 4136   5.987   3.563   4.891 -0.2644  0.2629 -0.2855
   40CHL1   C27 4137   6.247   3.482   4.902  0.2478  0.5614 -0.1776
   40CHL1  H27A 4138   6.325   3.408   4.930 -0.0454  0.1081 -0.5445
   40CHL1  H27B 4139   6.206   3.438   4.808  2.9494 -0.1829 -1.0959
   40CHL1  H27C 4140   6.294   3.581   4.889  1.5274  0.4456  2.8715
   41CHL1    C3 4141   2.092   2.312   6.193  0.4835 -0.2854  0.0758
   41CHL1    H3 4142   2.088   2.202   6.184 -1.1339 -0.2928  0.5753
   41CHL1    O3 4143   2.085   2.355   6.329 -0.0219 -0.0777  0.1130
   41CHL1   H3' 4144   2.034   2.292   6.381 -0.6931 -1.0282 -1.5946
   41CHL1    C4 4145   2.224   2.366   6.130 -0.2739 -0.8004  0.0493
   41CHL1   H4A 4146   2.208   2.476   6.133  2.1815 -0.2904 -1.6277
   41CHL1   H4B 4147   2.310   2.343   6.197  1.1422  3.3883 -0.0245
   41CHL1    C5 4148   2.243   2.329   5.987  0.3106 -0.0318 -0.3719
   41CHL1    C6 4149   2.341   2.249   5.939  0.4868  0.7473 -0.0680
   41CHL1    H6 4150   2.423   2.216   6.004  0.2029  0.8136  0.3282
   41CHL1    C7 4151   2.356   2.193   5.798  0.4460 -0.1267 -0.1350
   41CHL1   H7A 4152   2.466   2.186   5.783  0.4573 -1.5481  0.4848
   41CHL1   H7B 4153   2.308   2.096   5.773  1.4647 -0.5238 -0.5910
   41CHL1    C8 4154   2.290   2.294   5.699  0.3411  0.0396 -0.4949
   41CHL1    H8 4155   2.344   2.390   5.697 -1.3305  1.0099 -1.8265
   41CHL1   C14 4156   2.286   2.237   5.560  0.0210  0.3061  0.8513
   41CHL1   H14 4157   2.230   2.141   5.566 -0.7402  0.6665 -0.1469
   41CHL1   C15 4158   2.413   2.189   5.495 -0.4269 -0.1036  0.2627
   41CHL1  H15A 4159   2.496   2.257   5.524 -2.6949  2.3793  1.3357
   41CHL1  H15B 4160   2.446   2.086   5.520  1.8663  0.1455 -1.3746
   41CHL1   C16 4161   2.396   2.190   5.342  0.2178 -0.3318 -0.1113
   41CHL1  H16A 4162   2.468   2.260   5.294 -1.0254  0.5959 -0.6750
   41CHL1  H16B 4163   2.416   2.087   5.305  0.9249 -0.5126  0.7246
   41CHL1   C17 4164   2.245   2.236   5.322 -0.4216 -0.0721  0.0949
   41CHL1   H17 4165   2.176   2.150   5.338 -0.5521 -0.0373 -0.2818
   41CHL1   C13 4166   2.214   2.318   5.453 -0.0672 -0.2005  0.2391
   41CHL1   C18 4167   2.268   2.463   5.445 -0.6739 -0.5476  0.0599
   41CHL1  H18A 4168   2.221   2.523   5.364  0.4314  0.1774 -0.0600
   41CHL1  H18B 4169   2.238   2.525   5.532  1.0526  0.8308 -0.2794
   41CHL1  H18C 4170   2.377   2.474   5.427 -0.8191  0.7327 -0.1291
   41CHL1   C12 4171   2.065   2.328   5.507 -0.2272 -0.5199  0.3766
   41CHL1  H12A 4172   2.004   2.396   5.445  0.8277  2.3632  2.2855
   41CHL1  H12B 4173   2.031   2.222   5.516  0.0854 -0.4365  3.6078
   41CHL1   C11 4174   2.059   2.393   5.646  0.0823 -1.1072 -0.5517
   41CHL1  H11A 4175   2.066   2.504   5.637 -2.7988 -0.8887 -0.9057
   41CHL1  H11B 4176   1.954   2.394   5.682  0.5639  0.4842  0.9398
   41CHL1    C9 4177   2.150   2.318   5.745 -0.1866 -0.3442 -0.0817
   41CHL1    H9 4178   2.090   2.225   5.759 -4.1599  1.9475 -0.3415
   41CHL1   C10 4179   2.138   2.386   5.889 -0.2282  0.7340 -0.7060
   41CHL1   C19 4180   2.170   2.533   5.876 -0.4813 -0.2901 -0.5648
   41CHL1  H19A 4181   2.252   2.564   5.809  0.0563 -0.2318  0.1068
   41CHL1  H19B 4182   2.088   2.593   5.832  1.2783  1.6635 -1.3460
   41CHL1  H19C 4183   2.179   2.588   5.972 -3.2024 -0.6903  0.0155
   41CHL1    C1 4184   1.997   2.364   5.948 -0.8304  0.0648 -0.3112
   41CHL1   H1A 4185   1.930   2.438   5.899  0.6053  3.1274  1.9902
   41CHL1   H1B 4186   1.970   2.259   5.926 -0.7107  0.2750 -1.4888
   41CHL1    C2 4187   1.979   2.379   6.102 -0.0963  0.1231 -0.4555
   41CHL1   H2A 4188   1.879   2.348   6.141 -0.0481  1.0739  0.4713
   41CHL1   H2B 4189   1.990   2.488   6.118 -2.5461  0.2087  1.3375
   41CHL1   C20 4190   2.218   2.305   5.186  0.3177 -0.5928  0.5541
   41CHL1   H20 4191   2.264   2.406   5.189  2.1302 -1.3958  1.7036
   41CHL1   C21 4192   2.067   2.325   5.162 -0.4447  0.4002 -0.3181
   41CHL1  H21A 4193   2.016   2.227   5.174  1.1421 -0.4648 -0.4430
   41CHL1  H21B 4194   2.047   2.375   5.065 -1.1351 -0.8640 -0.8581
   41CHL1  H21C 4195   2.021   2.392   5.238  0.1875 -0.2875  0.6919
   41CHL1   C22 4196   2.279   2.232   5.065  0.4240 -0.0269 -0.3898
   41CHL1  H22A 4197   2.259   2.285   4.969 -1.2714 -0.1378 -0.1245
   41CHL1  H22B 4198   2.390   2.235   5.076  0.3417 -0.4741  0.7536
   41CHL1   C23 4199   2.235   2.086   5.036  0.0916  0.9813 -0.7283
   41CHL1  H23A 4200   2.199   2.041   5.131 -0.9419  2.4231 -0.4132
   41CHL1  H23B 4201   2.153   2.069   4.963 -1.2845 -2.8555  1.3853
   41CHL1   C24 4202   2.357   1.998   4.991  0.2158 -0.4154 -0.1973
   41CHL1  H24A 4203   2.400   2.046   4.901  2.0708 -0.6737  0.5169
   41CHL1  H24B 4204   2.431   2.003   5.074 -0.4261 -1.8782  0.5079
   41CHL1   C25 4205   2.324   1.855   4.962  0.8828 -0.0975  0.5541
   41CHL1   H25 4206   2.272   1.816   5.053  0.8476 -1.9274 -0.2123
   41CHL1   C26 4207   2.228   1.834   4.846 -0.6553  0.0663 -0.0145
   41CHL1  H26A 4208   2.160   1.747   4.855 -1.3533  0.5189 -0.8005
   41CHL1  H26B 4209   2.168   1.923   4.818 -1.1944 -0.7330 -1.5115
   41CHL1  H26C 4210   2.288   1.820   4.754  0.9031  0.3906  0.9124
   41CHL1   C27 4211   2.446   1.770   4.948 -0.5964 -0.5123 -0.2466
   41CHL1  H27A 4212   2.521   1.812   4.878 -0.1805 -1.8523 -0.6355
   41CHL1  H27B 4213   2.493   1.768   5.049  0.2106  1.1449 -0.5577
   41CHL1  H27C 4214   2.421   1.663   4.927  2.6542 -1.5461  0.5352
   42CHL1    C3 4215   3.241   0.633   6.266 -0.3284  0.3093 -0.2843
   42CHL1    H3 4216   3.200   0.530   6.258  2.4536 -0.9251  0.3207
   42CHL1    O3 4217   3.240   0.671   6.407 -0.2388  0.3276 -0.4483
   42CHL1   H3' 4218   3.269   0.762   6.408 -1.4179  0.7110 -0.2872
   42CHL1    C4 4219   3.383   0.647   6.196  0.1445 -0.3948 -0.8148
   42CHL1   H4A 4220   3.424   0.749   6.215 -0.6224 -0.6231  2.7435
   42CHL1   H4B 4221   3.442   0.574   6.255  2.2514  1.8098 -0.0083
   42CHL1    C5 4222   3.383   0.606   6.049  0.4748 -0.5254  0.1921
   42CHL1    C6 4223   3.454   0.506   5.995 -0.0535 -0.5349 -0.1391
   42CHL1    H6 4224   3.516   0.438   6.056 -0.3654 -0.0804  0.7108
   42CHL1    C7 4225   3.440   0.467   5.852  0.4899 -0.6240 -0.1631
   42CHL1   H7A 4226   3.538   0.438   5.810  0.2338 -2.2771  0.3062
   42CHL1   H7B 4227   3.366   0.384   5.848 -1.2587  0.7942  0.9325
   42CHL1    C8 4228   3.373   0.580   5.764  0.3356 -0.3306  0.0231
   42CHL1    H8 4229   3.447   0.662   5.758  0.6976 -0.6326  0.3553
   42CHL1   C14 4230   3.343   0.523   5.626 -0.3290  0.1562  0.5229
   42CHL1   H14 4231   3.261   0.448   5.635 -0.5685  0.3252 -0.1835
   42CHL1   C15 4232   3.467   0.443   5.564  0.8376 -0.7912 -0.1487
   42CHL1  H15A 4233   3.561   0.494   5.593  1.1220 -1.6371  0.4277
   42CHL1  H15B 4234   3.490   0.340   5.599  3.9977  0.0279  0.4686
   42CHL1   C16 4235   3.437   0.444   5.412 -0.6700  0.5566  0.1880
   42CHL1  H16A 4236   3.505   0.514   5.359 -2.2507  0.9342 -1.4908
   42CHL1  H16B 4237   3.438   0.348   5.355 -1.1781  1.7674 -1.9773
   42CHL1   C17 4238   3.296   0.513   5.397 -0.2965  0.0050 -0.1211
   42CHL1   H17 4239   3.211   0.445   5.420 -0.0055 -1.3688 -2.6743
   42CHL1   C13 4240   3.290   0.615   5.517 -0.4441 -0.0679 -0.0976
   42CHL1   C18 4241   3.381   0.734   5.484 -0.0734  0.0107 -0.2264
   42CHL1  H18A 4242   3.406   0.798   5.570  3.3108  0.2430 -1.2600
   42CHL1  H18B 4243   3.478   0.688   5.455 -0.4369  0.4296 -2.2857
   42CHL1  H18C 4244   3.342   0.805   5.408  1.1342  1.4907  0.4848
   42CHL1   C12 4245   3.147   0.666   5.581 -0.6488  1.1075  0.1282
   42CHL1  H12A 4246   3.109   0.749   5.517 -0.9576 -0.1287 -1.3458
   42CHL1  H12B 4247   3.083   0.576   5.584  1.5346 -0.5133  1.2648
   42CHL1   C11 4248   3.167   0.725   5.718 -0.2370 -0.4552 -0.0662
   42CHL1  H11A 4249   3.223   0.820   5.707  1.0646 -1.2082 -0.1554
   42CHL1  H11B 4250   3.066   0.744   5.760 -1.3355 -0.6901 -2.4908
   42CHL1    C9 4251   3.251   0.638   5.821 -0.5642  0.0087  0.1255
   42CHL1    H9 4252   3.174   0.559   5.831  0.3883 -0.9260  0.2050
   42CHL1   C10 4253   3.280   0.689   5.965 -0.1327  0.7566 -0.1579
   42CHL1   C19 4254   3.323   0.842   5.941  0.5971  0.4321 -0.1694
   42CHL1  H19A 4255   3.251   0.899   5.879  0.5553  0.0937 -0.4386
   42CHL1  H19B 4256   3.337   0.886   6.042 -3.2715 -1.7578  1.5828
   42CHL1  H19C 4257   3.421   0.851   5.890  0.7319 -0.1956 -0.0366
   42CHL1    C1 4258   3.145   0.693   6.039 -0.6630 -0.6010  0.2348
   42CHL1   H1A 4259   3.087   0.779   5.998  0.4664  0.8782  1.5808
   42CHL1   H1B 4260   3.086   0.600   6.026 -2.9559  1.0554 -1.9363
   42CHL1    C2 4261   3.134   0.715   6.192 -0.4848 -0.4738  0.1785
   42CHL1   H2A 4262   3.031   0.690   6.226  0.1573 -1.0423  1.7971
   42CHL1   H2B 4263   3.156   0.819   6.225  0.0592 -0.4703 -0.1915
   42CHL1   C20 4264   3.277   0.563   5.254  0.0506 -0.3284 -0.0796
   42CHL1   H20 4265   3.352   0.639   5.224 -0.3229 -0.6585 -2.0377
   42CHL1   C21 4266   3.138   0.636   5.265 -0.1527  0.0562  0.3769
   42CHL1  H21A 4267   3.067   0.563   5.310  0.5895 -1.2598 -0.5238
   42CHL1  H21B 4268   3.110   0.655   5.159 -2.6255  0.1338  0.9787
   42CHL1  H21C 4269   3.152   0.734   5.314  0.2279 -0.2144  0.8126
   42CHL1   C22 4270   3.284   0.455   5.147 -0.3306  0.9361  0.2433
   42CHL1  H22A 4271   3.291   0.499   5.045 -2.3021 -1.7048 -1.1544
   42CHL1  H22B 4272   3.380   0.399   5.154 -0.3851  0.9965  1.7452
   42CHL1   C23 4273   3.162   0.360   5.148 -0.1087  0.1771  0.1464
   42CHL1  H23A 4274   3.154   0.306   5.244 -3.1050 -0.5760 -0.4502
   42CHL1  H23B 4275   3.070   0.422   5.141 -1.3614 -1.6191  0.1377
   42CHL1   C24 4276   3.159   0.264   5.027 -0.2166 -0.0322 -0.4431
   42CHL1  H24A 4277   3.166   0.323   4.933 -0.2745 -0.2599 -0.5919
   42CHL1  H24B 4278   3.245   0.194   5.040  0.9673  0.8529 -2.9320
   42CHL1   C25 4279   3.028   0.180   5.016 -0.3455 -0.4155 -0.4470
   42CHL1   H25 4280   2.944   0.251   5.029 -0.5605 -0.8176  0.4635
   42CHL1   C26 4281   3.011   0.134   4.871  0.4192 -0.1091 -0.2083
   42CHL1  H26A 4282   3.034   0.025   4.861  0.1736 -0.0053 -2.3572
   42CHL1  H26B 4283   2.905   0.159   4.848  0.1018  0.2578  1.4932
   42CHL1  H26C 4284   3.068   0.199   4.803  1.5833 -2.0685 -1.1977
   42CHL1   C27 4285   3.032   0.058   5.112  0.1131  0.2411 -0.0992
   42CHL1  H27A 4286   3.124  -0.001   5.091  0.6074  1.1850 -0.6685
   42CHL1  H27B 4287   3.010   0.098   5.212 -0.6012 -0.2317 -0.0598
   42CHL1  H27C 4288   2.955  -0.019   5.089  0.4219 -0.3169  0.6758
   43CHL1    C3 4289   2.846   0.940   6.483  0.5976 -1.0577 -0.5857
   43CHL1    H3 4290   2.919   0.862   6.452  0.9647 -1.1484  0.5006
   43CHL1    O3 4291   2.823   0.931   6.619 -0.2367  0.5100 -0.4188
   43CHL1   H3' 4292   2.757   0.999   6.634  0.5386  0.6649  3.4995
   43CHL1    C4 4293   2.906   1.075   6.444  0.4978 -0.2527 -0.1006
   43CHL1   H4A 4294   2.843   1.156   6.487 -0.2611 -0.2670 -1.1535
   43CHL1   H4B 4295   3.002   1.088   6.498 -0.0654 -0.0840  0.8882
   43CHL1    C5 4296   2.938   1.074   6.293 -0.2980 -0.1228  0.0416
   43CHL1    C6 4297   3.063   1.100   6.241  0.2726  0.1853 -0.6925
   43CHL1    H6 4298   3.146   1.113   6.312  1.3811 -2.0205 -1.4900
   43CHL1    C7 4299   3.084   1.116   6.092 -0.8697 -0.2898 -0.5588
   43CHL1   H7A 4300   3.129   1.217   6.079  0.2298 -0.7030 -0.1538
   43CHL1   H7B 4301   3.150   1.034   6.053 -0.9418 -0.0721 -1.1528
   43CHL1    C8 4302   2.953   1.111   6.008 -0.2760 -0.1001 -0.1317
   43CHL1    H8 4303   2.901   1.209   6.014 -2.2841 -1.0320 -1.1759
   43CHL1   C14 4304   2.982   1.092   5.863 -0.4976  0.0214  0.2433
   43CHL1   H14 4305   3.026   0.990   5.869  1.9952  1.0532  0.9638
   43CHL1   C15 4306   3.094   1.172   5.800 -0.1712 -0.1322  0.4949
   43CHL1  H15A 4307   3.089   1.282   5.820  2.4591  0.1239  0.0156
   43CHL1  H15B 4308   3.191   1.128   5.832  0.3228  1.2416  0.9893
   43CHL1   C16 4309   3.058   1.153   5.650 -0.8818 -0.1909 -0.2104
   43CHL1  H16A 4310   3.033   1.241   5.586  0.5220 -1.7112 -3.0305
   43CHL1  H16B 4311   3.142   1.099   5.602 -0.6876  1.4270 -1.8202
   43CHL1   C17 4312   2.934   1.056   5.643 -0.3642  0.0370 -0.3074
   43CHL1   H17 4313   2.974   0.953   5.643 -1.9408 -0.5889 -0.1924
   43CHL1   C13 4314   2.862   1.080   5.774  0.8446  0.2529 -0.8659
   43CHL1   C18 4315   2.782   1.213   5.784  0.3226  0.0428 -0.0661
   43CHL1  H18A 4316   2.849   1.298   5.760 -0.4445  0.8798  0.6853
   43CHL1  H18B 4317   2.701   1.207   5.709 -0.6945 -2.0328  1.1046
   43CHL1  H18C 4318   2.738   1.235   5.884 -2.7461 -1.8023 -0.8973
   43CHL1   C12 4319   2.784   0.957   5.823  0.0624  0.4124  1.0911
   43CHL1  H12A 4320   2.689   0.943   5.767  0.0461 -2.7425  1.6852
   43CHL1  H12B 4321   2.847   0.867   5.804 -1.2363 -0.6796  1.7583
   43CHL1   C11 4322   2.743   0.969   5.973 -0.2816  0.6244  0.0334
   43CHL1  H11A 4323   2.664   1.045   5.987  0.3714  1.3503 -0.1793
   43CHL1  H11B 4324   2.711   0.866   6.000 -1.0208  0.1862 -2.2788
   43CHL1    C9 4325   2.861   1.005   6.064 -0.2197 -0.1076  0.0107
   43CHL1    H9 4326   2.922   0.912   6.058  0.5151  0.3731 -0.0127
   43CHL1   C10 4327   2.816   1.031   6.210  0.2890  0.2375  0.1140
   43CHL1   C19 4328   2.716   1.155   6.216 -0.1639 -0.1478  0.8090
   43CHL1  H19A 4329   2.695   1.203   6.314 -1.7755 -0.5635  0.6906
   43CHL1  H19B 4330   2.759   1.231   6.147  1.9024 -0.9492  1.1451
   43CHL1  H19C 4331   2.618   1.126   6.173  0.7390 -2.5787  0.2678
   43CHL1    C1 4332   2.735   0.909   6.259 -0.1422  0.2525 -0.2896
   43CHL1   H1A 4333   2.641   0.904   6.199 -1.5077  1.6993  1.5872
   43CHL1   H1B 4334   2.802   0.822   6.242  0.0950  0.5992 -1.1665
   43CHL1    C2 4335   2.709   0.918   6.414  0.0599 -0.4505  0.8866
   43CHL1   H2A 4336   2.655   0.828   6.450 -1.2665 -0.3467 -0.7214
   43CHL1   H2B 4337   2.631   0.997   6.413 -1.0926 -1.4401 -2.5445
   43CHL1   C20 4338   2.863   1.066   5.513 -0.2852 -0.2478  0.1467
   43CHL1   H20 4339   2.823   1.169   5.503  0.5539  0.0704 -0.0481
   43CHL1   C21 4340   2.752   0.956   5.507  0.0669 -0.0948 -0.0274
   43CHL1  H21A 4341   2.670   0.980   5.578  0.9624 -0.3847  1.1299
   43CHL1  H21B 4342   2.789   0.857   5.543 -0.2236  0.4743  1.9521
   43CHL1  H21C 4343   2.701   0.951   5.409  1.0185  1.1190 -0.6038
   43CHL1   C22 4344   2.964   1.047   5.397  0.4897 -0.4356  0.4422
   43CHL1  H22A 4345   3.050   1.117   5.407 -0.7595  1.3826 -0.8192
   43CHL1  H22B 4346   3.011   0.947   5.391  0.7990 -0.2561 -0.2631
   43CHL1   C23 4347   2.915   1.081   5.251  0.0698  0.1753 -1.0388
   43CHL1  H23A 4348   2.829   1.013   5.234 -0.0313 -0.5312  1.7626
   43CHL1  H23B 4349   2.866   1.179   5.270 -0.7377 -0.8027  2.6439
   43CHL1   C24 4350   3.024   1.083   5.150  0.2912 -0.1927  0.1647
   43CHL1  H24A 4351   3.080   1.179   5.148 -1.5484  0.9351  0.8319
   43CHL1  H24B 4352   3.099   1.005   5.176 -1.4563 -1.4462  1.6455
   43CHL1   C25 4353   2.968   1.077   5.003  0.5147  0.6283 -0.2308
   43CHL1   H25 4354   2.875   1.139   5.002  0.5936  0.9104  2.6682
   43CHL1   C26 4355   3.067   1.134   4.893 -0.4885 -0.5316  0.5931
   43CHL1  H26A 4356   3.166   1.083   4.891 -0.3729 -0.3091 -1.1297
   43CHL1  H26B 4357   3.019   1.124   4.794 -2.1906  2.7188  0.9538
   43CHL1  H26C 4358   3.083   1.241   4.920 -0.6509 -1.0773  3.1208
   43CHL1   C27 4359   2.927   0.932   4.957 -1.0599  0.4865 -0.0472
   43CHL1  H27A 4360   3.009   0.858   4.950 -1.1773  0.4523 -1.4789
   43CHL1  H27B 4361   2.846   0.899   5.025 -0.6420 -0.0329  0.2078
   43CHL1  H27C 4362   2.879   0.948   4.858 -1.4729 -0.9101 -0.0972
   44CHL1    C3 4363   1.900   1.346   6.422  0.0500 -0.5281 -0.6038
   44CHL1    H3 4364   2.009   1.355   6.405  0.0900  0.4042  0.0887
   44CHL1    O3 4365   1.873   1.365   6.562 -0.5608  0.5732 -0.4663
   44CHL1   H3' 4366   1.778   1.368   6.577 -0.4896 -0.1948  0.1963
   44CHL1    C4 4367   1.839   1.464   6.333  0.0205 -0.5302 -0.1328
   44CHL1   H4A 4368   1.732   1.482   6.357 -0.4790 -1.6524 -1.3782
   44CHL1   H4B 4369   1.884   1.561   6.363 -2.1111  0.5173 -0.1881
   44CHL1    C5 4370   1.855   1.436   6.187 -0.0077 -0.7148  0.2153
   44CHL1    C6 4371   1.916   1.522   6.101 -0.2359 -0.1116 -0.3284
   44CHL1    H6 4372   1.954   1.622   6.126  2.2215 -0.8359 -0.9110
   44CHL1    C7 4373   1.947   1.497   5.958  0.4048 -0.0096 -0.2482
   44CHL1   H7A 4374   1.934   1.591   5.900  1.3737  0.0823 -0.3331
   44CHL1   H7B 4375   2.052   1.463   5.948  1.0336  1.7694 -0.0401
   44CHL1    C8 4376   1.847   1.394   5.901 -0.4382  0.1769  0.6609
   44CHL1    H8 4377   1.746   1.439   5.887  1.3620  4.2342 -0.5908
   44CHL1   C14 4378   1.887   1.355   5.756 -0.5133 -0.9307 -0.3269
   44CHL1   H14 4379   1.990   1.316   5.771 -1.0401 -1.7548  1.3462
   44CHL1   C15 4380   1.896   1.467   5.650 -0.1517 -1.0956 -0.4269
   44CHL1  H15A 4381   1.819   1.548   5.647  1.4386  0.5774  1.1349
   44CHL1  H15B 4382   1.990   1.526   5.658 -2.1550  2.2687  0.5461
   44CHL1   C16 4383   1.891   1.392   5.516  0.2451 -0.0103 -0.1281
   44CHL1  H16A 4384   1.810   1.428   5.449  1.8078  0.2093 -1.9928
   44CHL1  H16B 4385   1.987   1.397   5.461  0.3590  5.1827  0.1243
   44CHL1   C17 4386   1.870   1.242   5.547 -0.5281 -0.2373  0.0993
   44CHL1   H17 4387   1.974   1.203   5.555 -1.6663 -3.5863  0.5535
   44CHL1   C13 4388   1.802   1.244   5.691 -0.5471  0.4443  0.6095
   44CHL1   C18 4389   1.653   1.282   5.681 -0.2388 -0.5155  0.0457
   44CHL1  H18A 4390   1.609   1.312   5.779  1.9053  0.5156  0.7484
   44CHL1  H18B 4391   1.633   1.367   5.613 -1.3224  0.4100  1.4588
   44CHL1  H18C 4392   1.597   1.198   5.634  0.0476  0.4454 -2.0995
   44CHL1   C12 4393   1.819   1.112   5.781 -0.5358 -0.3629  0.2288
   44CHL1  H12A 4394   1.748   1.040   5.735 -0.3354 -1.1507  1.1255
   44CHL1  H12B 4395   1.922   1.070   5.776 -0.8535 -1.4307  2.0184
   44CHL1   C11 4396   1.778   1.152   5.924 -0.0492  0.2201 -1.5324
   44CHL1  H11A 4397   1.668   1.164   5.915 -0.0612  0.4294 -1.1297
   44CHL1  H11B 4398   1.800   1.059   5.981  1.4071  1.4926  0.0872
   44CHL1    C9 4399   1.857   1.268   5.986  0.7067  0.0160 -0.2785
   44CHL1    H9 4400   1.961   1.236   6.005  1.2875  0.5639 -2.2991
   44CHL1   C10 4401   1.811   1.300   6.132  0.5035 -0.3742  0.0887
   44CHL1   C19 4402   1.659   1.298   6.149  0.3084 -0.0101  0.0163
   44CHL1  H19A 4403   1.621   1.369   6.073 -1.1501 -1.7788 -1.0169
   44CHL1  H19B 4404   1.620   1.199   6.115  0.7361  0.5016 -2.0988
   44CHL1  H19C 4405   1.620   1.315   6.252  1.3112  0.3819  0.3420
   44CHL1    C1 4406   1.871   1.193   6.222 -0.0798  0.7025  0.3298
   44CHL1   H1A 4407   1.839   1.094   6.185 -1.2185  1.0380  0.3522
   44CHL1   H1B 4408   1.979   1.203   6.198 -0.2930  2.9241  0.0764
   44CHL1    C2 4409   1.847   1.210   6.373  0.6793 -0.1814  0.0216
   44CHL1   H2A 4410   1.889   1.124   6.429 -0.5164 -0.6514  0.2368
   44CHL1   H2B 4411   1.740   1.205   6.405 -0.2988  0.4911 -2.8512
   44CHL1   C20 4412   1.808   1.145   5.438  0.1996 -0.3690  0.0390
   44CHL1   H20 4413   1.698   1.147   5.446  0.2662 -0.4567  1.1681
   44CHL1   C21 4414   1.862   0.998   5.451 -0.3853 -0.5743 -0.0188
   44CHL1  H21A 4415   1.972   1.004   5.432 -0.5188 -1.2624 -1.0522
   44CHL1  H21B 4416   1.830   0.924   5.376 -0.5393  0.0104 -0.5405
   44CHL1  H21C 4417   1.851   0.959   5.554  1.2781  1.4017  0.9898
   44CHL1   C22 4418   1.836   1.193   5.296 -0.6838 -0.2064 -0.3602
   44CHL1  H22A 4419   1.809   1.301   5.286  3.1368  1.1242  1.4282
   44CHL1  H22B 4420   1.944   1.190   5.270 -0.9526 -1.1221 -1.4060
   44CHL1   C23 4421   1.757   1.114   5.184 -0.7316 -0.6383  0.4476
   44CHL1  H23A 4422   1.776   1.004   5.184  2.9821 -0.1362  1.6853
   44CHL1  H23B 4423   1.647   1.125   5.198 -1.1443 -1.0634 -2.0497
   44CHL1   C24 4424   1.795   1.172   5.047 -0.4495 -0.1846  0.2409
   44CHL1  H24A 4425   1.782   1.277   5.015 -1.2763 -1.0272 -2.5752
   44CHL1  H24B 4426   1.905   1.175   5.033 -0.2129 -0.9183  1.7744
   44CHL1   C25 4427   1.718   1.103   4.925  0.4841 -0.3204  0.6497
   44CHL1   H25 4428   1.709   0.996   4.953  0.5999 -1.0420 -1.8220
   44CHL1   C26 4429   1.578   1.176   4.905  0.2179 -0.0260 -0.3528
   44CHL1  H26A 4430   1.608   1.278   4.873 -1.5370  0.3630 -0.8344
   44CHL1  H26B 4431   1.516   1.132   4.824  0.1864  0.1350 -0.4163
   44CHL1  H26C 4432   1.527   1.178   5.003  1.6598 -0.4906  0.4424
   44CHL1   C27 4433   1.791   1.127   4.789  0.1917  0.5191 -0.8923
   44CHL1  H27A 4434   1.885   1.069   4.799 -1.3238 -1.7107  2.3434
   44CHL1  H27B 4435   1.720   1.097   4.709 -0.8620  2.9726 -0.9752
   44CHL1  H27C 4436   1.813   1.235   4.778 -0.8900  1.1413  2.1222
   45CHL1    C3 4437   1.327   1.169   6.434  0.5283 -0.0764  0.4013
   45CHL1    H3 4438   1.428   1.209   6.409 -0.4359  1.5824 -1.0463
   45CHL1    O3 4439   1.327   1.137   6.576  0.5943 -0.4137  0.9172
   45CHL1   H3' 4440   1.312   1.224   6.614 -0.0524  0.5697 -1.4583
   45CHL1    C4 4441   1.224   1.277   6.397  0.0826  0.1529 -0.2298
   45CHL1   H4A 4442   1.120   1.247   6.424 -0.7564  2.2405 -0.9077
   45CHL1   H4B 4443   1.255   1.370   6.449 -0.7723  1.3040 -1.6951
   45CHL1    C5 4444   1.227   1.312   6.248  0.9419  0.1771  0.2720
   45CHL1    C6 4445   1.249   1.436   6.209  0.2666  0.8315 -0.4262
   45CHL1    H6 4446   1.236   1.515   6.284 -1.4571  1.4944 -1.3776
   45CHL1    C7 4447   1.253   1.470   6.062  0.2020  0.0187  0.1977
   45CHL1   H7A 4448   1.183   1.551   6.031  1.3721 -0.3152 -3.9669
   45CHL1   H7B 4449   1.356   1.501   6.034  0.7436 -1.5212  0.3976
   45CHL1    C8 4450   1.206   1.360   5.966 -0.1677  0.3613  0.0747
   45CHL1    H8 4451   1.096   1.368   5.965 -0.1411  0.7787 -0.0869
   45CHL1   C14 4452   1.263   1.391   5.823  0.1638 -0.0654 -0.3720
   45CHL1   H14 4453   1.374   1.381   5.831  0.1447  0.0775  0.1133
   45CHL1   C15 4454   1.228   1.530   5.756  0.0281  0.1045  0.5281
   45CHL1  H15A 4455   1.127   1.554   5.795 -0.5194  0.8755 -1.2535
   45CHL1  H15B 4456   1.303   1.602   5.797 -0.9664  0.2117  2.2910
   45CHL1   C16 4457   1.232   1.500   5.604 -0.3226  0.4496 -0.3265
   45CHL1  H16A 4458   1.136   1.522   5.552  1.3026 -0.3710 -3.9550
   45CHL1  H16B 4459   1.306   1.574   5.568  4.5788 -1.8202  3.8002
   45CHL1   C17 4460   1.274   1.351   5.594  0.5375 -0.2589 -0.2365
   45CHL1   H17 4461   1.385   1.349   5.606  0.6489  1.0744 -0.8444
   45CHL1   C13 4462   1.219   1.282   5.722 -0.3704  0.3937  0.4436
   45CHL1   C18 4463   1.068   1.268   5.711  0.0804  0.0632 -0.5034
   45CHL1  H18A 4464   1.017   1.364   5.690  0.5644  0.4866  0.1952
   45CHL1  H18B 4465   1.048   1.190   5.635  0.3932  2.1488 -2.8542
   45CHL1  H18C 4466   1.032   1.239   5.812  0.6052  1.8015  0.2365
   45CHL1   C12 4467   1.293   1.151   5.763  0.3003 -0.3871  0.1242
   45CHL1  H12A 4468   1.270   1.071   5.690  1.5765 -0.7236  0.0669
   45CHL1  H12B 4469   1.401   1.170   5.776  0.0859  1.0034  0.0421
   45CHL1   C11 4470   1.240   1.112   5.901 -0.0687  0.5500 -0.6731
   45CHL1  H11A 4471   1.131   1.089   5.899 -0.9698  4.3198 -1.1963
   45CHL1  H11B 4472   1.285   1.014   5.931 -1.0434  0.2826  0.0069
   45CHL1    C9 4473   1.260   1.226   6.007 -0.2695  0.1111  0.0523
   45CHL1    H9 4474   1.369   1.223   6.026 -0.4165 -1.5499  0.7933
   45CHL1   C10 4475   1.213   1.193   6.158 -0.6576  0.1862  0.5901
   45CHL1   C19 4476   1.065   1.152   6.158 -0.4233  0.2507  0.2925
   45CHL1  H19A 4477   1.046   1.053   6.111 -3.1562  1.4532 -1.3795
   45CHL1  H19B 4478   1.022   1.152   6.260 -0.1432  1.0381  0.4181
   45CHL1  H19C 4479   1.005   1.220   6.093 -1.3821 -1.0751 -0.2473
   45CHL1    C1 4480   1.300   1.077   6.206 -1.0531  0.6771 -0.3455
   45CHL1   H1A 4481   1.260   0.988   6.154 -0.1132  1.4192 -2.4433
   45CHL1   H1B 4482   1.406   1.081   6.173 -0.9395  0.7012  0.0140
   45CHL1    C2 4483   1.296   1.044   6.354 -0.0045 -1.0132 -0.8396
   45CHL1   H2A 4484   1.370   0.967   6.385  2.9090  1.4945 -1.1552
   45CHL1   H2B 4485   1.191   1.014   6.375 -1.1790  0.1699 -4.4055
   45CHL1   C20 4486   1.225   1.291   5.457 -0.2302  0.5490 -0.0078
   45CHL1   H20 4487   1.117   1.266   5.461 -0.4841  1.6699  0.6487
   45CHL1   C21 4488   1.304   1.156   5.436  0.0347 -0.5789  0.1673
   45CHL1  H21A 4489   1.251   1.072   5.485 -1.8911 -0.2544 -1.2403
   45CHL1  H21B 4490   1.406   1.154   5.481 -0.6451 -2.6183  1.7976
   45CHL1  H21C 4491   1.330   1.139   5.330  3.4400  1.4722  0.5129
   45CHL1   C22 4492   1.255   1.382   5.333 -0.1879  0.1343  1.0556
   45CHL1  H22A 4493   1.228   1.310   5.253 -1.1783  0.3105  1.2148
   45CHL1  H22B 4494   1.193   1.472   5.352  1.8832  1.6917  0.7971
   45CHL1   C23 4495   1.398   1.419   5.313  0.2250 -0.2045  0.2166
   45CHL1  H23A 4496   1.425   1.492   5.392 -1.6212 -0.2168  0.9096
   45CHL1  H23B 4497   1.464   1.331   5.326  0.0295 -0.0440  2.7210
   45CHL1   C24 4498   1.404   1.496   5.180  0.0964  1.0376 -0.1220
   45CHL1  H24A 4499   1.344   1.432   5.112  1.7483 -2.2489  1.2799
   45CHL1  H24B 4500   1.360   1.593   5.210 -2.0161 -0.2694  1.3532
   45CHL1   C25 4501   1.540   1.518   5.127 -0.9659  0.4614  0.0685
   45CHL1   H25 4502   1.605   1.430   5.143 -1.4794 -0.3532 -2.0541
   45CHL1   C26 4503   1.543   1.540   4.974  0.2801  0.1914 -0.4892
   45CHL1  H26A 4504   1.490   1.632   4.943  0.7436  0.0869 -1.6157
   45CHL1  H26B 4505   1.646   1.543   4.934 -0.0008  0.5159 -1.2129
   45CHL1  H26C 4506   1.494   1.453   4.924 -0.4217 -0.4947  1.2771
   45CHL1   C27 4507   1.601   1.639   5.205 -0.7509  0.3963  0.4852
   45CHL1  H27A 4508   1.612   1.618   5.313  2.8257  0.7653  0.3224
   45CHL1  H27B 4509   1.707   1.649   5.173 -0.5588 -1.5393  0.3589
   45CHL1  H27C 4510   1.547   1.733   5.184 -1.5324  0.1632  1.3891
   46CHL1    C3 4511   4.290   3.123   6.573 -0.6664  0.1801 -0.3956
   46CHL1    H3 4512   4.279   3.014   6.556 -1.4079 -0.2588  2.4113
   46CHL1    O3 4513   4.322   3.128   6.708 -0.2770 -0.2848 -0.2387
   46CHL1   H3' 4514   4.318   3.220   6.735  0.1767 -0.5882  0.9484
   46CHL1    C4 4515   4.399   3.197   6.491 -0.1406  0.0568  0.1963
   46CHL1   H4A 4516   4.414   3.303   6.520  1.4277 -0.2296  0.5055
   46CHL1   H4B 4517   4.493   3.139   6.501 -0.2638 -0.0518  0.7391
   46CHL1    C5 4518   4.364   3.203   6.343 -0.1858  0.3797  0.5969
   46CHL1    C6 4519   4.443   3.156   6.246 -0.3805  0.3318  0.7892
   46CHL1    H6 4520   4.547   3.127   6.267  0.3396  1.7735 -0.5229
   46CHL1    C7 4521   4.426   3.179   6.101 -0.0720 -0.5599  1.0157
   46CHL1   H7A 4522   4.518   3.211   6.049 -0.0510 -1.1488  0.6774
   46CHL1   H7B 4523   4.406   3.078   6.060  2.3339 -2.1876  3.5725
   46CHL1    C8 4524   4.299   3.271   6.075  0.7802  0.5263  0.2802
   46CHL1    H8 4525   4.332   3.374   6.099 -0.1010  0.3878  2.2807
   46CHL1   C14 4526   4.260   3.255   5.929  0.1473  0.2015 -0.1040
   46CHL1   H14 4527   4.232   3.149   5.911  1.8112 -0.3878  0.5047
   46CHL1   C15 4528   4.364   3.275   5.825  0.1095 -0.3706  0.3664
   46CHL1  H15A 4529   4.412   3.370   5.858  0.3145 -1.1576  2.5115
   46CHL1  H15B 4530   4.445   3.200   5.809  1.4154  1.2148 -0.8634
   46CHL1   C16 4531   4.285   3.280   5.689 -0.3719  0.8694 -0.0339
   46CHL1  H16A 4532   4.327   3.365   5.630  2.3616  1.5658  2.6373
   46CHL1  H16B 4533   4.297   3.181   5.639 -0.4792  0.9504 -0.2211
   46CHL1   C17 4534   4.135   3.309   5.728  1.3390  0.3059  1.1796
   46CHL1   H17 4535   4.079   3.217   5.703  0.8567  0.3669  1.9928
   46CHL1   C13 4536   4.142   3.334   5.887  0.0559  0.1075  0.3356
   46CHL1   C18 4537   4.166   3.479   5.907 -0.1800  0.0224  0.4053
   46CHL1  H18A 4538   4.079   3.543   5.878  1.8554  3.3658  1.1399
   46CHL1  H18B 4539   4.186   3.506   6.013 -1.9832  0.4268  0.6849
   46CHL1  H18C 4540   4.254   3.517   5.851  0.5300 -0.7790  0.9569
   46CHL1   C12 4541   4.017   3.286   5.965 -0.2162 -0.2833 -0.1798
   46CHL1  H12A 4542   3.930   3.351   5.939  1.6146  1.8726 -1.2065
   46CHL1  H12B 4543   4.003   3.181   5.932 -1.0438 -0.0537 -0.6027
   46CHL1   C11 4544   4.045   3.305   6.120 -0.1732 -0.1508  0.5241
   46CHL1  H11A 4545   4.038   3.413   6.146 -0.4127  0.1804 -0.8311
   46CHL1  H11B 4546   3.969   3.241   6.170 -2.0323  1.9622  0.5488
   46CHL1    C9 4547   4.177   3.240   6.166  0.2157  0.4256  0.4283
   46CHL1    H9 4548   4.167   3.132   6.140  1.1074  0.8269 -1.7766
   46CHL1   C10 4549   4.216   3.255   6.313 -0.0250 -0.0427  0.4642
   46CHL1   C19 4550   4.212   3.406   6.352  1.0046  0.2216 -0.4031
   46CHL1  H19A 4551   4.284   3.466   6.292  0.8148  0.9067  0.0354
   46CHL1  H19B 4552   4.118   3.459   6.329  1.8480  0.9785 -2.2900
   46CHL1  H19C 4553   4.241   3.416   6.459 -0.7503 -1.9523  0.3310
   46CHL1    C1 4554   4.119   3.178   6.406  0.2662  0.0901  0.1798
   46CHL1   H1A 4555   4.019   3.224   6.396  0.6406  0.6483 -1.2812
   46CHL1   H1B 4556   4.109   3.076   6.362  1.7662  1.4528 -3.7550
   46CHL1    C2 4557   4.153   3.179   6.553  1.3839  0.8424  0.1467
   46CHL1   H2A 4558   4.081   3.127   6.619  0.6576  0.4021 -0.9608
   46CHL1   H2B 4559   4.152   3.287   6.581 -1.6391  1.1890 -0.8754
   46CHL1   C20 4560   4.072   3.425   5.639  0.1755 -0.1134 -0.3035
   46CHL1   H20 4561   4.139   3.511   5.654  0.7207 -0.3594 -1.2791
   46CHL1   C21 4562   3.919   3.443   5.669  0.4020  0.5639 -0.6951
   46CHL1  H21A 4563   3.880   3.538   5.628  0.1899  0.0901 -1.6046
   46CHL1  H21B 4564   3.902   3.455   5.778 -1.6762 -2.7561 -0.5011
   46CHL1  H21C 4565   3.848   3.369   5.627 -1.6477  1.9038  0.2952
   46CHL1   C22 4566   4.086   3.407   5.487 -0.2524  0.8719 -0.2888
   46CHL1  H22A 4567   4.184   3.361   5.460 -1.6665 -1.2658 -2.0662
   46CHL1  H22B 4568   4.008   3.336   5.454  0.1310  0.2043  0.2036
   46CHL1   C23 4569   4.054   3.535   5.410 -0.4535  0.3118  0.0878
   46CHL1  H23A 4570   3.943   3.543   5.412 -0.5797 -1.1602  0.1870
   46CHL1  H23B 4571   4.112   3.619   5.454 -2.2196  0.2415  2.7778
   46CHL1   C24 4572   4.081   3.539   5.257 -0.2836  0.4788 -0.5970
   46CHL1  H24A 4573   4.191   3.526   5.247  0.0112 -2.3418  3.7184
   46CHL1  H24B 4574   4.040   3.447   5.211  0.4411 -0.0241 -0.2686
   46CHL1   C25 4575   4.024   3.651   5.175  0.2447 -0.6506  0.0581
   46CHL1   H25 4576   3.913   3.654   5.185  0.2876  1.7872  0.4213
   46CHL1   C26 4577   4.084   3.788   5.229  0.9258 -0.7745  0.1825
   46CHL1  H26A 4578   4.070   3.804   5.338  2.1146 -0.1137  0.2578
   46CHL1  H26B 4579   4.190   3.798   5.199  0.7912  1.9093  0.3868
   46CHL1  H26C 4580   4.029   3.873   5.182  0.6608 -1.4963 -0.8514
   46CHL1   C27 4581   4.065   3.645   5.028  0.8172  0.7656  0.0009
   46CHL1  H27A 4582   4.016   3.725   4.968  1.0578 -1.3386 -3.3053
   46CHL1  H27B 4583   4.174   3.636   5.010  0.6539 -1.7234 -0.0701
   46CHL1  H27C 4584   4.026   3.552   4.981  0.4207  1.5073 -1.1989
   47CHL1    C3 4585   6.482   3.126   6.466  0.2224 -0.0620  0.8040
   47CHL1    H3 4586   6.397   3.081   6.411  1.5244 -1.0361 -0.4665
   47CHL1    O3 4587   6.470   3.110   6.604  0.2097  0.6168  0.0483
   47CHL1   H3' 4588   6.402   3.166   6.642 -1.4973  0.8351 -2.9926
   47CHL1    C4 4589   6.611   3.068   6.407 -0.4090  0.5481 -0.0009
   47CHL1   H4A 4590   6.701   3.102   6.462  1.4292 -0.0610 -2.4689
   47CHL1   H4B 4591   6.600   2.960   6.427  2.8200 -0.1524 -1.3697
   47CHL1    C5 4592   6.634   3.093   6.261 -0.4207  0.2403  0.3503
   47CHL1    C6 4593   6.651   2.993   6.178  0.1324  0.0283  0.0523
   47CHL1    H6 4594   6.658   2.890   6.216 -0.0390 -0.0780 -0.1951
   47CHL1    C7 4595   6.649   3.006   6.030 -0.7752 -0.6303 -0.2100
   47CHL1   H7A 4596   6.719   2.939   5.975 -0.5229 -2.2337  1.9153
   47CHL1   H7B 4597   6.546   2.983   5.995 -0.5184 -1.0007 -0.7290
   47CHL1    C8 4598   6.683   3.153   5.991 -0.5097  0.0097  0.7276
   47CHL1    H8 4599   6.787   3.171   6.024  0.0202 -2.3095  0.4779
   47CHL1   C14 4600   6.673   3.162   5.835  0.2050 -0.4063  0.3708
   47CHL1   H14 4601   6.570   3.132   5.809 -0.5829  0.9781  1.7783
   47CHL1   C15 4602   6.758   3.062   5.756 -0.4966 -0.2244  0.3823
   47CHL1  H15A 4603   6.860   3.052   5.798 -1.0396  0.5744  2.0058
   47CHL1  H15B 4604   6.712   2.961   5.753  2.4943 -1.6367 -1.5629
   47CHL1   C16 4605   6.759   3.131   5.617  0.1465  0.0570 -0.1660
   47CHL1  H16A 4606   6.864   3.131   5.582 -0.6069 -3.2568 -3.0263
   47CHL1  H16B 4607   6.705   3.062   5.548 -0.0530 -0.9738  0.9969
   47CHL1   C17 4608   6.688   3.266   5.626 -0.0102 -0.3409  0.1049
   47CHL1   H17 4609   6.579   3.258   5.605 -0.1046 -1.0126  0.7947
   47CHL1   C13 4610   6.693   3.309   5.774 -0.0512  0.3503  0.5223
   47CHL1   C18 4611   6.835   3.367   5.804  0.1749  1.2167 -0.4073
   47CHL1  H18A 4612   6.854   3.389   5.911 -0.9653  1.9025 -0.3308
   47CHL1  H18B 4613   6.909   3.293   5.767  0.4351  0.5599  1.3134
   47CHL1  H18C 4614   6.850   3.466   5.755 -0.2752  1.5780  0.1722
   47CHL1   C12 4615   6.586   3.395   5.836 -0.4350  0.6788 -0.3510
   47CHL1  H12A 4616   6.603   3.503   5.815 -1.9392  1.0784  0.3346
   47CHL1  H12B 4617   6.483   3.357   5.815 -0.0716 -1.0625  0.7925
   47CHL1   C11 4618   6.604   3.402   5.999  0.7591  0.1857  0.8082
   47CHL1  H11A 4619   6.695   3.460   6.024  0.5149 -0.8299  4.7446
   47CHL1  H11B 4620   6.525   3.471   6.035 -0.5259 -0.2261 -1.0234
   47CHL1    C9 4621   6.597   3.260   6.061 -0.5751  0.2401  0.9921
   47CHL1    H9 4622   6.501   3.213   6.030  0.6245 -1.4271 -0.3989
   47CHL1   C10 4623   6.605   3.243   6.216  0.3450 -0.7679  1.5398
   47CHL1   C19 4624   6.728   3.324   6.255 -0.0104  0.0954  0.5444
   47CHL1  H19A 4625   6.765   3.288   6.353 -1.2300 -0.2532  0.8864
   47CHL1  H19B 4626   6.808   3.296   6.183 -1.0894 -1.1342 -0.2006
   47CHL1  H19C 4627   6.719   3.435   6.243  0.6120  0.3718  2.4122
   47CHL1    C1 4628   6.481   3.291   6.284 -0.0654 -0.0662  0.2697
   47CHL1   H1A 4629   6.484   3.401   6.272  0.9764  0.1204  1.8605
   47CHL1   H1B 4630   6.399   3.246   6.224  0.3292 -0.5069  0.0617
   47CHL1    C2 4631   6.481   3.280   6.434  0.5396 -0.2419  0.3803
   47CHL1   H2A 4632   6.385   3.328   6.463 -1.2443 -0.5288 -4.1670
   47CHL1   H2B 4633   6.557   3.336   6.490  0.4395  1.1265 -0.7912
   47CHL1   C20 4634   6.737   3.369   5.523  0.0597  0.1811  0.7796
   47CHL1   H20 4635   6.847   3.381   5.528 -0.0802  1.2894  1.7515
   47CHL1   C21 4636   6.667   3.506   5.547  0.2596  0.0839  0.0769
   47CHL1  H21A 4637   6.700   3.555   5.641  1.2725 -1.5843  0.6476
   47CHL1  H21B 4638   6.559   3.484   5.557  0.5637 -2.3139 -1.0531
   47CHL1  H21C 4639   6.684   3.575   5.461  1.9462 -1.2009 -0.6984
   47CHL1   C22 4640   6.696   3.315   5.377  0.5701  0.2273 -0.8716
   47CHL1  H22A 4641   6.753   3.223   5.348 -0.9427 -1.4088  1.0706
   47CHL1  H22B 4642   6.587   3.299   5.372  0.6347 -1.2338  1.2558
   47CHL1   C23 4643   6.736   3.415   5.261 -0.3301  0.2076  0.1054
   47CHL1  H23A 4644   6.687   3.514   5.275 -0.3330  0.3584 -0.8658
   47CHL1  H23B 4645   6.847   3.416   5.274 -0.3555  0.1613  0.3321
   47CHL1   C24 4646   6.684   3.347   5.127 -0.0446 -0.5726  0.1401
   47CHL1  H24A 4647   6.741   3.252   5.117  1.1984  0.2297 -0.5820
   47CHL1  H24B 4648   6.576   3.325   5.145  0.0377  0.2125  1.8695
   47CHL1   C25 4649   6.698   3.435   4.999  0.8154 -0.2066  0.4363
   47CHL1   H25 4650   6.803   3.470   5.001  0.5513  0.5953  0.6425
   47CHL1   C26 4651   6.667   3.349   4.863 -0.2225 -0.4379 -0.0928
   47CHL1  H26A 4652   6.738   3.264   4.867 -1.1809 -1.2085  2.8243
   47CHL1  H26B 4653   6.566   3.308   4.884 -0.2179 -0.5160 -0.2248
   47CHL1  H26C 4654   6.677   3.410   4.771  1.7202 -2.2030 -1.1248
   47CHL1   C27 4655   6.611   3.559   4.997  0.5299  0.4641 -0.1626
   47CHL1  H27A 4656   6.504   3.547   5.023  0.8646  2.1677  2.4320
   47CHL1  H27B 4657   6.657   3.624   5.074 -1.3719 -1.0075  2.3932
   47CHL1  H27C 4658   6.621   3.612   4.901  2.2974  1.0286  0.2974
   48CHL1    C3 4659   3.117   5.463   6.541  0.4391 -0.3893  0.2843
   48CHL1    H3 4660   3.020   5.513   6.562 -0.0158 -0.6589 -1.0992
   48CHL1    O3 4661   3.160   5.423   6.676  0.4542 -0.3249  0.1483
   48CHL1   H3' 4662   3.255   5.411   6.670  0.4030 -0.2965 -1.0154
   48CHL1    C4 4663   3.076   5.348   6.441 -0.6470 -0.4909 -0.1771
   48CHL1   H4A 4664   3.159   5.275   6.454 -1.3602 -1.4753 -1.0076
   48CHL1   H4B 4665   2.991   5.300   6.493 -0.8461  0.2557  0.2004
   48CHL1    C5 4666   3.061   5.377   6.290 -0.0927 -0.5014  0.1776
   48CHL1    C6 4667   2.953   5.336   6.218  0.2894 -0.7118  0.0349
   48CHL1    H6 4668   2.888   5.259   6.262  0.7340 -1.7663 -1.1248
   48CHL1    C7 4669   2.923   5.383   6.077 -1.2723 -0.1699 -0.0818
   48CHL1   H7A 4670   2.891   5.302   6.009  2.5953  0.0475 -2.4646
   48CHL1   H7B 4671   2.847   5.464   6.078  0.0626  1.1432  1.0718
   48CHL1    C8 4672   3.048   5.447   6.007  0.1313 -0.3477 -0.7992
   48CHL1    H8 4673   3.125   5.369   5.993  1.6247  0.9965 -0.3215
   48CHL1   C14 4674   3.011   5.511   5.879  0.5554  0.6010  0.3811
   48CHL1   H14 4675   2.945   5.596   5.907 -0.9976 -0.1396 -0.9199
   48CHL1   C15 4676   2.925   5.429   5.786 -0.5750 -0.7435  0.1008
   48CHL1  H15A 4677   2.962   5.325   5.780  3.4077  0.4301  1.0278
   48CHL1  H15B 4678   2.820   5.424   5.822 -0.6658 -2.3817 -0.3239
   48CHL1   C16 4679   2.954   5.492   5.649 -0.4137 -0.7594  0.4221
   48CHL1  H16A 4680   3.010   5.413   5.595 -2.9030 -2.6629  0.4394
   48CHL1  H16B 4681   2.855   5.526   5.611 -0.6543 -0.6601  1.1225
   48CHL1   C17 4682   3.056   5.605   5.667 -0.1974 -0.7903  0.2009
   48CHL1   H17 4683   2.989   5.686   5.702  1.2500 -0.8200  3.4190
   48CHL1   C13 4684   3.134   5.562   5.794 -0.4918  1.0552  0.5317
   48CHL1   C18 4685   3.232   5.442   5.770 -0.3310 -0.9502 -0.0563
   48CHL1  H18A 4686   3.287   5.451   5.674  1.5211 -0.5436  0.9692
   48CHL1  H18B 4687   3.297   5.414   5.856  1.0079  1.7997 -0.0378
   48CHL1  H18C 4688   3.174   5.349   5.756 -1.0460 -0.4410 -0.4907
   48CHL1   C12 4689   3.203   5.667   5.878  0.4759  0.3987  0.8568
   48CHL1  H12A 4690   3.301   5.694   5.832  0.2267 -0.1374 -0.0204
   48CHL1  H12B 4691   3.134   5.754   5.879 -2.0919 -1.2962 -2.9887
   48CHL1   C11 4692   3.236   5.622   6.021  0.8773  0.1057  0.3575
   48CHL1  H11A 4693   3.323   5.553   6.009 -0.7453 -1.6633 -2.1154
   48CHL1  H11B 4694   3.256   5.716   6.076 -2.1643 -0.0544  1.9169
   48CHL1    C9 4695   3.119   5.543   6.098 -0.2089 -0.3176  0.4177
   48CHL1    H9 4696   3.047   5.626   6.109  0.6064  0.5073 -0.3367
   48CHL1   C10 4697   3.159   5.477   6.237 -0.0125  0.0470 -0.6100
   48CHL1   C19 4698   3.296   5.407   6.221 -0.4068 -0.5153 -0.1119
   48CHL1  H19A 4699   3.322   5.352   6.313 -1.8722 -0.5278  0.3091
   48CHL1  H19B 4700   3.316   5.337   6.137 -2.1408 -2.1271  0.7403
   48CHL1  H19C 4701   3.375   5.485   6.217 -0.2759 -0.6377  0.0756
   48CHL1    C1 4702   3.172   5.588   6.343 -0.5453 -0.1415 -0.0264
   48CHL1   H1A 4703   3.247   5.656   6.298 -0.6454 -0.9029 -1.4310
   48CHL1   H1B 4704   3.073   5.638   6.343 -0.7529 -0.5438  0.0114
   48CHL1    C2 4705   3.211   5.562   6.485 -0.2174 -0.9127  0.4853
   48CHL1   H2A 4706   3.214   5.654   6.547 -1.7713 -0.4633 -0.0666
   48CHL1   H2B 4707   3.311   5.514   6.487  0.0507 -0.3401  1.8906
   48CHL1   C20 4708   3.131   5.645   5.542 -0.1325  0.6541  0.5031
   48CHL1   H20 4709   3.214   5.571   5.535  1.7874  2.6948  0.7851
   48CHL1   C21 4710   3.194   5.782   5.563  0.8226 -0.5955  0.1217
   48CHL1  H21A 4711   3.271   5.776   5.643  0.2928 -1.4702  0.5794
   48CHL1  H21B 4712   3.230   5.834   5.471 -0.0002  1.6739  0.9944
   48CHL1  H21C 4713   3.125   5.861   5.601 -0.3674 -0.2827 -2.4712
   48CHL1   C22 4714   3.043   5.648   5.414  0.3441  0.0809  0.4280
   48CHL1  H22A 4715   2.975   5.560   5.409  0.6584 -0.0992 -1.1586
   48CHL1  H22B 4716   2.970   5.732   5.424  2.1580  1.5633  1.9168
   48CHL1   C23 4717   3.105   5.640   5.272  0.1157  0.2432  0.0259
   48CHL1  H23A 4718   3.181   5.721   5.272 -1.0374  1.3615 -0.7431
   48CHL1  H23B 4719   3.159   5.544   5.261  0.6705  0.3413  1.5252
   48CHL1   C24 4720   3.009   5.674   5.151  0.7457  0.7921  0.0383
   48CHL1  H24A 4721   2.958   5.575   5.139  1.9531  0.2438 -0.6946
   48CHL1  H24B 4722   2.931   5.750   5.175 -1.8758 -1.9801  1.0243
   48CHL1   C25 4723   3.084   5.709   5.018 -0.4718  0.0927 -0.2984
   48CHL1   H25 4724   3.009   5.717   4.937 -1.0831 -1.1259  0.1244
   48CHL1   C26 4725   3.149   5.846   5.028  0.8136  0.2127  0.5261
   48CHL1  H26A 4726   3.076   5.918   5.071  0.0789 -0.7004  0.8435
   48CHL1  H26B 4727   3.232   5.850   5.101  0.0529  3.7825  1.3574
   48CHL1  H26C 4728   3.182   5.879   4.927 -1.1197  2.1908  0.4746
   48CHL1   C27 4729   3.182   5.600   4.980 -0.4384  0.3271 -0.0949
   48CHL1  H27A 4730   3.230   5.616   4.882 -2.3767  0.3917 -1.0797
   48CHL1  H27B 4731   3.255   5.594   5.064 -0.8113  1.6832  0.3585
   48CHL1  H27C 4732   3.126   5.503   4.985 -1.8388  1.1591  1.4451
   49CHL1    C3 4733   5.637   3.181   3.091  0.5153 -0.6044  0.1524
   49CHL1    H3 4734   5.554   3.255   3.082  0.4460 -0.5646  1.0398
   49CHL1    O3 4735   5.659   3.122   2.967 -0.2526  0.5565 -0.3928
   49CHL1   H3' 4736   5.638   3.029   2.979 -2.2559  1.2157  2.3424
   49CHL1    C4 4737   5.758   3.268   3.134 -0.4695  0.1018 -0.0340
   49CHL1   H4A 4738   5.848   3.205   3.121 -2.2370 -2.8630  0.9931
   49CHL1   H4B 4739   5.772   3.356   3.067  2.1418 -0.2754 -0.0701
   49CHL1    C5 4740   5.767   3.321   3.280  0.9121  0.1975  0.0294
   49CHL1    C6 4741   5.804   3.446   3.317 -0.5708 -1.3448 -0.5726
   49CHL1    H6 4742   5.851   3.513   3.244  0.3114 -0.6641  0.6004
   49CHL1    C7 4743   5.801   3.492   3.466 -0.3701 -0.8619  0.3176
   49CHL1   H7A 4744   5.895   3.548   3.483  0.3157 -1.6960 -0.6610
   49CHL1   H7B 4745   5.716   3.564   3.466  0.1790 -0.1999 -0.0903
   49CHL1    C8 4746   5.776   3.383   3.575 -0.5193 -0.0544  0.9042
   49CHL1    H8 4747   5.879   3.343   3.587 -0.0552  0.8261  0.0075
   49CHL1   C14 4748   5.726   3.440   3.702  0.7762 -0.5315  0.3977
   49CHL1   H14 4749   5.619   3.465   3.685  0.4724 -1.9599  0.0161
   49CHL1   C15 4750   5.784   3.570   3.753  0.4312 -0.5036  0.3083
   49CHL1  H15A 4751   5.888   3.596   3.724 -0.1404  3.0660  1.0210
   49CHL1  H15B 4752   5.724   3.655   3.715  1.4815  1.2652  2.3957
   49CHL1   C16 4753   5.778   3.568   3.903  0.8002  0.1242 -0.6409
   49CHL1  H16A 4754   5.876   3.546   3.951  1.3664  0.6995 -1.5053
   49CHL1  H16B 4755   5.724   3.648   3.959 -1.9940 -2.4335  0.6212
   49CHL1   C17 4756   5.696   3.428   3.931  0.2787  0.1919  0.0247
   49CHL1   H17 4757   5.589   3.459   3.923  0.1087 -0.0272  1.2894
   49CHL1   C13 4758   5.732   3.339   3.812 -0.3221 -0.0892  0.1003
   49CHL1   C18 4759   5.874   3.281   3.832  0.8279 -0.1142 -0.0303
   49CHL1  H18A 4760   5.950   3.355   3.865  0.8877 -0.5242  0.7805
   49CHL1  H18B 4761   5.866   3.200   3.907  0.9859 -0.8612 -0.8003
   49CHL1  H18C 4762   5.914   3.227   3.743  0.7565 -1.0201  0.4758
   49CHL1   C12 4763   5.632   3.224   3.782 -0.1707  0.0665  0.7847
   49CHL1  H12A 4764   5.645   3.147   3.860 -0.2652 -2.6324 -1.6819
   49CHL1  H12B 4765   5.526   3.256   3.776 -0.2910 -0.4748 -0.1762
   49CHL1   C11 4766   5.662   3.168   3.643 -0.1208 -0.0853 -0.0504
   49CHL1  H11A 4767   5.751   3.101   3.651  0.8389  1.3357  1.8077
   49CHL1  H11B 4768   5.580   3.101   3.609 -0.1021 -1.5670  2.5914
   49CHL1    C9 4769   5.685   3.274   3.525  0.4220  0.5508  0.1547
   49CHL1    H9 4770   5.584   3.320   3.520 -0.2643 -0.9431 -0.4381
   49CHL1   C10 4771   5.718   3.213   3.391 -0.0572  0.0675 -0.5754
   49CHL1   C19 4772   5.834   3.116   3.413  0.3231  0.4241  0.3627
   49CHL1  H19A 4773   5.909   3.173   3.472 -0.3275  2.7430 -0.9291
   49CHL1  H19B 4774   5.815   3.024   3.472  0.5584 -0.1292 -0.4120
   49CHL1  H19C 4775   5.879   3.071   3.322  0.0161  0.1122  0.3652
   49CHL1    C1 4776   5.590   3.144   3.329  0.7758 -0.3517 -0.7590
   49CHL1   H1A 4777   5.550   3.066   3.398  1.3305  1.4520  1.7375
   49CHL1   H1B 4778   5.517   3.228   3.332 -0.3515 -1.3205  0.7291
   49CHL1    C2 4779   5.610   3.076   3.189  0.2509 -1.1390 -0.4743
   49CHL1   H2A 4780   5.528   3.007   3.160  0.3912 -0.8113 -1.7327
   49CHL1   H2B 4781   5.692   3.002   3.200  0.0154 -1.2033  1.0814
   49CHL1   C20 4782   5.718   3.378   4.074  0.6191 -0.2275 -0.2169
   49CHL1   H20 4783   5.809   3.315   4.081 -0.0900 -1.0885  2.2059
   49CHL1   C21 4784   5.607   3.286   4.118 -0.0826 -0.4088 -0.1930
   49CHL1  H21A 4785   5.642   3.228   4.207  4.8182  1.0885 -0.8341
   49CHL1  H21B 4786   5.587   3.218   4.033 -2.2411  0.5575 -0.4921
   49CHL1  H21C 4787   5.520   3.346   4.152  0.7775  0.4253  0.6077
   49CHL1   C22 4788   5.745   3.492   4.174  0.3605  0.1720  0.0364
   49CHL1  H22A 4789   5.839   3.548   4.153  1.0914 -1.0996 -0.1658
   49CHL1  H22B 4790   5.663   3.566   4.159  1.3225  1.5564  1.3096
   49CHL1   C23 4791   5.765   3.449   4.319 -0.3565  0.1005  0.2811
   49CHL1  H23A 4792   5.687   3.387   4.368  0.5411 -0.3115  1.2334
   49CHL1  H23B 4793   5.853   3.382   4.317 -1.5542 -1.5242 -0.3977
   49CHL1   C24 4794   5.798   3.569   4.413 -0.2163  0.7126  0.4067
   49CHL1  H24A 4795   5.903   3.601   4.398  0.0240 -0.1104  0.3348
   49CHL1  H24B 4796   5.732   3.658   4.401  1.0071  1.4783 -0.9563
   49CHL1   C25 4797   5.809   3.536   4.565 -0.3127 -0.1054 -0.0033
   49CHL1   H25 4798   5.863   3.441   4.583 -1.5781 -0.6243  1.2370
   49CHL1   C26 4799   5.871   3.654   4.635  0.2127 -0.4977 -0.3340
   49CHL1  H26A 4800   5.852   3.631   4.742  0.2699  0.7121 -0.0471
   49CHL1  H26B 4801   5.978   3.671   4.611  0.2884 -0.2470  0.1786
   49CHL1  H26C 4802   5.818   3.747   4.605  2.8135  0.7084 -1.4802
   49CHL1   C27 4803   5.668   3.517   4.619 -0.3290 -0.0321 -0.8370
   49CHL1  H27A 4804   5.631   3.428   4.566  1.3839 -1.5426  0.3614
   49CHL1  H27B 4805   5.677   3.499   4.729 -1.8899 -2.4704 -1.0519
   49CHL1  H27C 4806   5.604   3.605   4.595  0.6918  0.8053 -0.5819
   50CHL1    C3 4807   3.809   6.854   3.319  0.6065  0.5414  0.3562
   50CHL1    H3 4808   3.852   6.954   3.340  2.0277 -0.0285  0.2874
   50CHL1    O3 4809   3.848   6.818   3.188  0.3508  0.0470 -0.0011
   50CHL1   H3' 4810   3.804   6.734   3.170 -0.3531  0.5265 -0.5947
   50CHL1    C4 4811   3.870   6.748   3.404 -0.1339 -0.5593 -0.5789
   50CHL1   H4A 4812   3.821   6.653   3.374  1.4555 -1.5098 -0.2636
   50CHL1   H4B 4813   3.976   6.731   3.376  0.1780  1.4848 -0.8199
   50CHL1    C5 4814   3.854   6.763   3.557  0.1940  0.6116  0.2365
   50CHL1    C6 4815   3.954   6.761   3.645 -0.0465 -0.0104 -0.0450
   50CHL1    H6 4816   4.055   6.732   3.614  0.6602  1.8037  0.4023
   50CHL1    C7 4817   3.938   6.773   3.794  0.3143  0.0071 -0.0743
   50CHL1   H7A 4818   3.992   6.695   3.851 -0.1703 -0.5330 -0.3329
   50CHL1   H7B 4819   3.967   6.873   3.833 -0.3625 -0.3685  1.4914
   50CHL1    C8 4820   3.791   6.749   3.833  0.3954  0.9422 -0.9310
   50CHL1    H8 4821   3.785   6.638   3.834  0.7190  0.9076  0.5525
   50CHL1   C14 4822   3.763   6.789   3.976 -0.1523 -0.4834 -0.4735
   50CHL1   H14 4823   3.776   6.900   3.980  2.7094 -0.7590 -0.2906
   50CHL1   C15 4824   3.859   6.745   4.080 -0.2177  0.4481 -0.4956
   50CHL1  H15A 4825   3.870   6.636   4.062  0.4106  0.9101 -3.4451
   50CHL1  H15B 4826   3.958   6.795   4.067  0.3978 -0.3823  0.8173
   50CHL1   C16 4827   3.782   6.771   4.207  1.0344  0.0967  0.2721
   50CHL1  H16A 4828   3.769   6.671   4.254 -0.3074 -0.2956 -0.8435
   50CHL1  H16B 4829   3.840   6.840   4.272  2.7538 -0.9046 -0.1408
   50CHL1   C17 4830   3.635   6.817   4.171 -0.1960 -0.4158 -0.1908
   50CHL1   H17 4831   3.623   6.926   4.153 -1.2817 -0.4421  0.2524
   50CHL1   C13 4832   3.623   6.763   4.030 -0.5464 -0.2452 -0.8654
   50CHL1   C18 4833   3.602   6.612   4.027  0.1015  1.0084 -0.7768
   50CHL1  H18A 4834   3.656   6.561   4.110 -1.1591  1.7603  0.5533
   50CHL1  H18B 4835   3.494   6.595   4.046  0.4862 -0.3935  0.2888
   50CHL1  H18C 4836   3.623   6.576   3.924  3.7062 -0.4562  0.3325
   50CHL1   C12 4837   3.519   6.834   3.937 -0.0531 -0.0736 -0.5491
   50CHL1  H12A 4838   3.423   6.791   3.971  0.5150 -1.9014 -1.1102
   50CHL1  H12B 4839   3.513   6.944   3.948 -0.4189 -0.0793 -0.6669
   50CHL1   C11 4840   3.543   6.806   3.790 -0.5903 -0.2682  0.0762
   50CHL1  H11A 4841   3.500   6.704   3.774 -1.3311 -0.4865  3.0019
   50CHL1  H11B 4842   3.485   6.879   3.730  1.0413  1.1872  0.2174
   50CHL1    C9 4843   3.682   6.813   3.737  0.3006 -0.0770 -0.2313
   50CHL1    H9 4844   3.692   6.923   3.746 -1.0899  0.1091 -0.6600
   50CHL1   C10 4845   3.705   6.770   3.593  0.4883  0.4755  0.2079
   50CHL1   C19 4846   3.648   6.623   3.573 -0.7788  0.5298 -0.2838
   50CHL1  H19A 4847   3.539   6.611   3.586 -0.4952 -0.1422  1.9193
   50CHL1  H19B 4848   3.665   6.572   3.476 -2.3476 -2.4584  0.8839
   50CHL1  H19C 4849   3.694   6.550   3.643 -0.2550  0.2703 -0.8878
   50CHL1    C1 4850   3.634   6.869   3.496 -0.0595  0.0250  0.0820
   50CHL1   H1A 4851   3.526   6.891   3.513 -0.3256  0.0743 -1.5278
   50CHL1   H1B 4852   3.684   6.968   3.500 -0.5274  0.2379  1.8321
   50CHL1    C2 4853   3.662   6.840   3.343  0.2659 -0.0297  0.3918
   50CHL1   H2A 4854   3.608   6.921   3.290  1.2802  0.3812 -0.0461
   50CHL1   H2B 4855   3.619   6.744   3.307 -0.2172  0.3257  0.0016
   50CHL1   C20 4856   3.526   6.772   4.279 -0.2180  0.6181  0.5036
   50CHL1   H20 4857   3.536   6.662   4.269 -1.6492  0.6734 -2.8095
   50CHL1   C21 4858   3.385   6.837   4.252  0.0159 -0.3139  0.0217
   50CHL1  H21A 4859   3.312   6.817   4.333 -1.7731  0.2098 -1.4047
   50CHL1  H21B 4860   3.330   6.794   4.165 -0.7992 -2.2814  1.4167
   50CHL1  H21C 4861   3.385   6.947   4.259 -2.7453 -0.2768  0.6311
   50CHL1   C22 4862   3.572   6.802   4.427  0.2639 -0.7850  0.6070
   50CHL1  H22A 4863   3.676   6.765   4.439  1.1366  1.1206 -0.4979
   50CHL1  H22B 4864   3.568   6.912   4.441 -0.0257 -0.7956  0.5994
   50CHL1   C23 4865   3.482   6.736   4.537  1.0759 -1.0271 -0.2292
   50CHL1  H23A 4866   3.390   6.797   4.545  0.4037 -2.0018 -0.3221
   50CHL1  H23B 4867   3.438   6.640   4.502 -2.9515  1.5297 -3.1532
   50CHL1   C24 4868   3.541   6.714   4.679 -0.5730 -0.0938 -0.6207
   50CHL1  H24A 4869   3.632   6.651   4.667  0.1701  1.1250 -1.6697
   50CHL1  H24B 4870   3.581   6.811   4.716 -1.5278  0.6136 -1.4160
   50CHL1   C25 4871   3.451   6.660   4.788  0.1905 -0.2221 -0.4440
   50CHL1   H25 4872   3.376   6.589   4.748 -0.7419 -0.2866  1.2983
   50CHL1   C26 4873   3.538   6.585   4.897  0.2214 -0.1659  0.4821
   50CHL1  H26A 4874   3.470   6.539   4.973  1.2307 -0.6371  1.1164
   50CHL1  H26B 4875   3.580   6.500   4.839 -0.3442 -0.6981  0.8319
   50CHL1  H26C 4876   3.613   6.654   4.940 -1.5542  1.6206  0.8352
   50CHL1   C27 4877   3.360   6.777   4.845 -0.0125 -0.4103  0.0985
   50CHL1  H27A 4878   3.282   6.731   4.909  2.7420 -2.6011  2.1958
   50CHL1  H27B 4879   3.425   6.844   4.907 -0.4582 -0.4692  0.6377
   50CHL1  H27C 4880   3.306   6.832   4.766 -3.0400 -2.7182  0.3988
   51CHL1    C3 4881   5.121   2.964   2.989  0.4301 -0.3617 -0.4292
   51CHL1    H3 4882   5.036   3.036   2.994  1.5337  1.0284 -0.9586
   51CHL1    O3 4883   5.167   2.970   2.858  0.1058 -0.2001 -0.4695
   51CHL1   H3' 4884   5.236   2.904   2.848 -0.8083 -1.1132 -1.0231
   51CHL1    C4 4885   5.236   3.026   3.088  0.0589 -0.4509  1.2010
   51CHL1   H4A 4886   5.322   2.958   3.069 -1.3269 -1.1307 -4.2068
   51CHL1   H4B 4887   5.263   3.125   3.046 -1.8176 -0.7875 -0.9882
   51CHL1    C5 4888   5.191   3.027   3.229 -0.3630 -0.6151  0.0749
   51CHL1    C6 4889   5.203   3.134   3.314  0.3410  0.2201 -0.2542
   51CHL1    H6 4890   5.253   3.227   3.282 -2.3494  2.0461  0.5175
   51CHL1    C7 4891   5.175   3.125   3.457  0.0571 -0.4318 -0.2304
   51CHL1   H7A 4892   5.259   3.172   3.512  0.2376 -0.1313 -0.7591
   51CHL1   H7B 4893   5.088   3.193   3.468  0.3581  0.3062 -2.0811
   51CHL1    C8 4894   5.146   2.991   3.519  0.0317 -0.5398  0.8617
   51CHL1    H8 4895   5.246   2.949   3.540 -0.0916 -0.6530  1.2440
   51CHL1   C14 4896   5.084   2.998   3.653  0.3784  0.2037 -0.6896
   51CHL1   H14 4897   4.981   3.039   3.640  0.2867 -0.0701 -0.8229
   51CHL1   C15 4898   5.160   3.082   3.760  0.4071  0.4266  0.1898
   51CHL1  H15A 4899   5.269   3.066   3.771  0.6818  0.8299 -1.6030
   51CHL1  H15B 4900   5.140   3.190   3.741  1.2688  0.3555 -1.2357
   51CHL1   C16 4901   5.093   3.034   3.887 -0.4686 -0.7516  0.0651
   51CHL1  H16A 4902   5.165   3.023   3.971  0.3640  1.6176 -0.2813
   51CHL1  H16B 4903   5.017   3.104   3.927 -0.0135  0.8333 -1.7388
   51CHL1   C17 4904   5.004   2.909   3.852  0.1979 -0.0810 -0.2568
   51CHL1   H17 4905   4.897   2.931   3.836 -0.5560 -2.3474  1.1039
   51CHL1   C13 4906   5.063   2.866   3.722  0.2458 -0.6948  0.2191
   51CHL1   C18 4907   5.193   2.783   3.739 -0.1825  0.3970  0.1394
   51CHL1  H18A 4908   5.242   2.764   3.641  2.6012  2.4472  1.0468
   51CHL1  H18B 4909   5.267   2.830   3.806 -1.0993  0.7092  0.9569
   51CHL1  H18C 4910   5.161   2.687   3.784 -0.6920  0.3133 -0.3736
   51CHL1   C12 4911   4.968   2.786   3.627  0.3406  0.1857 -0.7277
   51CHL1  H12A 4912   4.946   2.685   3.669  1.6894  0.3518  0.4596
   51CHL1  H12B 4913   4.874   2.843   3.616  0.9931  0.9363 -3.0187
   51CHL1   C11 4914   5.028   2.771   3.484 -0.5387 -0.5673 -0.5224
   51CHL1  H11A 4915   5.106   2.693   3.494  0.6966  0.5342 -1.2002
   51CHL1  H11B 4916   4.947   2.732   3.418 -0.8973 -0.6733 -0.0198
   51CHL1    C9 4917   5.067   2.906   3.419  0.3080 -0.2294 -0.4175
   51CHL1    H9 4918   4.974   2.962   3.397  1.1578  0.6767 -1.9008
   51CHL1   C10 4919   5.130   2.893   3.278  0.6692 -0.0673  0.4369
   51CHL1   C19 4920   5.245   2.795   3.289 -0.2991  0.0911  0.1279
   51CHL1  H19A 4921   5.198   2.696   3.309  1.6226 -0.5593  1.7572
   51CHL1  H19B 4922   5.297   2.786   3.191 -2.4688  0.6917 -1.1364
   51CHL1  H19C 4923   5.316   2.825   3.369  0.5812 -2.4176  0.4002
   51CHL1    C1 4924   5.025   2.845   3.179  0.0251 -0.1217 -0.7250
   51CHL1   H1A 4925   4.969   2.756   3.215 -2.2522 -0.0446 -3.7119
   51CHL1   H1B 4926   4.939   2.914   3.175 -0.2568 -0.3723  0.5426
   51CHL1    C2 4927   5.078   2.826   3.038  0.2020  0.7160  0.1353
   51CHL1   H2A 4928   4.998   2.774   2.982 -0.2244  0.9511  0.5170
   51CHL1   H2B 4929   5.162   2.753   3.036 -1.4719 -1.3107  0.4963
   51CHL1   C20 4930   5.000   2.810   3.979 -0.7988 -0.0202 -0.1441
   51CHL1   H20 4931   5.105   2.780   3.999 -0.0496  2.2365 -0.4304
   51CHL1   C21 4932   4.916   2.693   3.937 -0.0449 -0.1053 -0.3849
   51CHL1  H21A 4933   4.893   2.617   4.015  2.6435 -0.0239  0.5844
   51CHL1  H21B 4934   4.955   2.628   3.855 -0.0039  0.6450 -0.9677
   51CHL1  H21C 4935   4.819   2.735   3.903  0.2829  1.0922  0.1219
   51CHL1   C22 4936   4.930   2.884   4.102  0.0166  0.3124 -0.3197
   51CHL1  H22A 4937   4.989   2.972   4.136  2.4211 -0.9653 -0.9737
   51CHL1  H22B 4938   4.831   2.926   4.072  0.8797  2.2431 -0.6326
   51CHL1   C23 4939   4.919   2.797   4.235  1.3871  0.5999 -0.4069
   51CHL1  H23A 4940   4.819   2.827   4.275  1.4352 -1.0069  1.0109
   51CHL1  H23B 4941   4.908   2.687   4.224 -0.3327  0.2829  2.9582
   51CHL1   C24 4942   5.022   2.826   4.345 -0.6788  0.3006  0.7878
   51CHL1  H24A 4943   5.124   2.797   4.313 -1.5278  0.0792 -2.0394
   51CHL1  H24B 4944   5.027   2.932   4.379 -0.5241  0.4654  0.2722
   51CHL1   C25 4945   5.009   2.735   4.469  0.1852  0.1800  0.1158
   51CHL1   H25 4946   4.992   2.633   4.430  1.1899 -0.7648  2.0436
   51CHL1   C26 4947   5.144   2.711   4.541  0.0352 -0.3634 -0.1833
   51CHL1  H26A 4948   5.125   2.625   4.609 -1.3049 -1.6976 -2.1504
   51CHL1  H26B 4949   5.221   2.683   4.466 -0.7121 -0.0951 -1.0648
   51CHL1  H26C 4950   5.168   2.804   4.597  1.7707 -0.7771 -0.1855
   51CHL1   C27 4951   4.897   2.768   4.564  0.2867 -0.2447  0.3875
   51CHL1  H27A 4952   4.936   2.842   4.638 -1.9035 -0.3698  1.7381
   51CHL1  H27B 4953   4.806   2.812   4.517 -1.5397 -2.0916  2.0468
   51CHL1  H27C 4954   4.848   2.684   4.617 -1.5132  1.0515  0.8683
   52CHL1    C3 4955   4.638   2.671   3.262  0.1737 -0.3435  0.0631
   52CHL1    H3 4956   4.737   2.687   3.310  0.2624 -0.6815 -0.0026
   52CHL1    O3 4957   4.644   2.691   3.120  0.1246  0.0335  0.4639
   52CHL1   H3' 4958   4.714   2.630   3.095  2.0995  1.4285  2.3034
   52CHL1    C4 4959   4.581   2.530   3.292  0.3626 -0.0765  0.1755
   52CHL1   H4A 4960   4.477   2.520   3.255  0.6398  0.9749 -0.9312
   52CHL1   H4B 4961   4.650   2.459   3.243 -0.8902  0.3547 -2.3511
   52CHL1    C5 4962   4.580   2.510   3.440  0.1418 -0.4265 -0.7287
   52CHL1    C6 4963   4.656   2.411   3.493  0.1239 -0.0902  1.3114
   52CHL1    H6 4964   4.714   2.344   3.428 -0.2524 -1.0354  1.9221
   52CHL1    C7 4965   4.676   2.382   3.632  0.0021 -0.5207  0.4318
   52CHL1   H7A 4966   4.682   2.274   3.657 -2.5311 -0.5488  1.2159
   52CHL1   H7B 4967   4.773   2.425   3.665  1.2303 -2.3009 -0.6652
   52CHL1    C8 4968   4.566   2.453   3.722 -0.0651 -0.8530 -0.4588
   52CHL1    H8 4969   4.471   2.396   3.725 -1.0973  0.8091 -0.0362
   52CHL1   C14 4970   4.613   2.476   3.865  0.6973  0.8532 -0.6815
   52CHL1   H14 4971   4.696   2.550   3.864 -0.2723  2.0633  1.5333
   52CHL1   C15 4972   4.681   2.356   3.938 -0.4596 -0.2244  0.4862
   52CHL1  H15A 4973   4.653   2.254   3.901 -1.0639  0.8058 -2.1457
   52CHL1  H15B 4974   4.786   2.371   3.905 -1.3261  3.1507 -1.0970
   52CHL1   C16 4975   4.662   2.386   4.085 -0.1654 -0.2510  0.5114
   52CHL1  H16A 4976   4.607   2.297   4.124 -0.7281 -1.5192 -2.8277
   52CHL1  H16B 4977   4.758   2.391   4.140 -0.1847 -1.4875  0.6952
   52CHL1   C17 4978   4.579   2.518   4.090 -0.1779  0.3374 -0.0291
   52CHL1   H17 4979   4.667   2.584   4.077  0.7409 -0.7392  0.5053
   52CHL1   C13 4980   4.506   2.534   3.954 -0.3439  0.7403 -0.2840
   52CHL1   C18 4981   4.372   2.450   3.947  0.2316 -0.1785 -0.3387
   52CHL1  H18A 4982   4.333   2.445   3.843  0.0289 -0.0132 -0.2707
   52CHL1  H18B 4983   4.379   2.354   4.003 -1.2552  0.7727  1.5753
   52CHL1  H18C 4984   4.295   2.505   4.004 -0.0281  1.8179 -2.4461
   52CHL1   C12 4985   4.472   2.680   3.908 -0.5709  0.3845 -0.4135
   52CHL1  H12A 4986   4.393   2.736   3.961 -0.2267 -1.0427  1.7249
   52CHL1  H12B 4987   4.565   2.740   3.922  0.3713 -0.6331 -1.9353
   52CHL1   C11 4988   4.445   2.687   3.759 -0.6250 -0.1228 -0.3609
   52CHL1  H11A 4989   4.336   2.685   3.739 -0.6348  2.4063 -0.9268
   52CHL1  H11B 4990   4.470   2.793   3.734 -0.3982 -0.4796 -1.7090
   52CHL1    C9 4991   4.540   2.600   3.668  0.0710  0.9944  0.3590
   52CHL1    H9 4992   4.641   2.647   3.668  0.3687  0.3769  0.5547
   52CHL1   C10 4993   4.498   2.607   3.524 -0.3408  0.4270  0.7702
   52CHL1   C19 4994   4.357   2.563   3.511  0.1207 -0.1573 -0.6194
   52CHL1  H19A 4995   4.282   2.642   3.533 -0.3256 -0.8857  0.5423
   52CHL1  H19B 4996   4.333   2.549   3.403  0.9930 -0.8600 -0.7350
   52CHL1  H19C 4997   4.324   2.471   3.564 -2.5260  0.8886 -0.2560
   52CHL1    C1 4998   4.528   2.749   3.474  0.4575  0.1665 -0.4410
   52CHL1   H1A 4999   4.452   2.820   3.513 -2.0282 -2.3495 -0.3532
   52CHL1   H1B 5000   4.630   2.778   3.507  0.8624 -1.1528 -0.4946
   52CHL1    C2 5001   4.547   2.775   3.323  0.1452  0.4511  0.1083
   52CHL1   H2A 5002   4.582   2.877   3.297  0.8839  0.1807  0.0067
   52CHL1   H2B 5003   4.452   2.757   3.268  1.3425  0.6829 -2.1661
   52CHL1   C20 5004   4.505   2.550   4.222 -0.1366  0.8710 -0.3034
   52CHL1   H20 5005   4.424   2.620   4.193 -2.2604 -1.4994 -0.3818
   52CHL1   C21 5006   4.608   2.610   4.319 -0.6643  0.2119  0.2529
   52CHL1  H21A 5007   4.653   2.696   4.266  1.0343 -0.4040  0.6338
   52CHL1  H21B 5008   4.698   2.547   4.338 -0.3782  1.0806  1.9124
   52CHL1  H21C 5009   4.569   2.649   4.415  0.3500 -0.7928  1.0957
   52CHL1   C22 5010   4.427   2.425   4.279  0.0148  0.3647  0.6535
   52CHL1  H22A 5011   4.356   2.389   4.202  1.0556  2.3777 -1.3773
   52CHL1  H22B 5012   4.493   2.341   4.310 -1.0818 -1.1955 -1.0706
   52CHL1   C23 5013   4.349   2.431   4.410 -0.3420  0.3931 -0.1995
   52CHL1  H23A 5014   4.423   2.465   4.486  0.2146 -0.1531 -0.4943
   52CHL1  H23B 5015   4.277   2.515   4.397  0.2265  0.8619 -0.3679
   52CHL1   C24 5016   4.293   2.299   4.472 -0.7216 -0.1358  0.0735
   52CHL1  H24A 5017   4.220   2.250   4.404 -1.5965  1.0932  0.1051
   52CHL1  H24B 5018   4.381   2.232   4.485 -1.7384 -1.7308 -0.9760
   52CHL1   C25 5019   4.224   2.308   4.612  0.0742  0.0351  0.4648
   52CHL1   H25 5020   4.142   2.380   4.595  0.0941 -0.0835 -0.1559
   52CHL1   C26 5021   4.163   2.168   4.646  1.1258  0.4792  0.0989
   52CHL1  H26A 5022   4.119   2.171   4.749  1.7108  1.4710  0.3357
   52CHL1  H26B 5023   4.100   2.134   4.561  0.4116 -0.6011  1.0296
   52CHL1  H26C 5024   4.236   2.085   4.635  1.3611  0.8585 -1.3615
   52CHL1   C27 5025   4.319   2.363   4.711  0.7162 -0.3292  0.3019
   52CHL1  H27A 5026   4.369   2.458   4.684  0.6349 -0.3699 -0.0016
   52CHL1  H27B 5027   4.257   2.371   4.803 -1.4774  1.1226 -1.2075
   52CHL1  H27C 5028   4.403   2.292   4.723  2.3644  1.3779 -0.6314
   53CHL1    C3 5029   3.185   1.971   3.105 -0.1857  0.0832  0.6530
   53CHL1    H3 5030   3.132   2.062   3.070  2.9947  2.6532  1.9617
   53CHL1    O3 5031   3.202   1.888   2.989 -0.0610  0.2057  0.1863
   53CHL1   H3' 5032   3.272   1.828   3.018  0.6723  0.0466 -1.7929
   53CHL1    C4 5033   3.323   2.024   3.147  0.7701 -0.0676  0.0389
   53CHL1   H4A 5034   3.392   1.944   3.182 -0.0178 -1.3708 -1.2578
   53CHL1   H4B 5035   3.353   2.075   3.053 -2.9247 -0.8078 -1.7304
   53CHL1    C5 5036   3.313   2.107   3.277  0.1546 -0.0125  0.0782
   53CHL1    C6 5037   3.350   2.239   3.279  0.5412  0.6984  0.6185
   53CHL1    H6 5038   3.393   2.296   3.195 -0.3604 -0.3220 -0.5906
   53CHL1    C7 5039   3.322   2.327   3.387  0.0721 -0.3541 -0.3651
   53CHL1   H7A 5040   3.408   2.397   3.399 -0.7305  0.4333  1.2222
   53CHL1   H7B 5041   3.225   2.381   3.379  1.2034  1.8139 -0.1430
   53CHL1    C8 5042   3.320   2.244   3.526 -0.3043 -0.3850 -0.3764
   53CHL1    H8 5043   3.417   2.190   3.529  0.3900  0.6298 -2.7919
   53CHL1   C14 5044   3.302   2.332   3.655  0.0432  0.2267  0.0925
   53CHL1   H14 5045   3.204   2.384   3.646  0.9753  1.9314 -0.5634
   53CHL1   C15 5046   3.400   2.444   3.683 -0.6813 -0.1615  0.3703
   53CHL1  H15A 5047   3.502   2.409   3.656 -1.4054 -2.3307  0.2697
   53CHL1  H15B 5048   3.376   2.533   3.621 -0.9939 -1.4367 -1.3940
   53CHL1   C16 5049   3.398   2.464   3.837 -0.1050 -0.0904  0.5418
   53CHL1  H16A 5050   3.501   2.451   3.876  0.9307 -0.6596 -2.1572
   53CHL1  H16B 5051   3.378   2.572   3.848 -3.0868 -0.7162  2.4631
   53CHL1   C17 5052   3.291   2.366   3.883  0.1188  0.1442 -0.1986
   53CHL1   H17 5053   3.186   2.400   3.871 -0.0595 -0.2914  0.0881
   53CHL1   C13 5054   3.294   2.250   3.785  0.3837 -0.2359  0.0323
   53CHL1   C18 5055   3.426   2.165   3.803  0.1345  0.8874  0.4485
   53CHL1  H18A 5056   3.400   2.083   3.874 -0.0087  0.2279 -0.3463
   53CHL1  H18B 5057   3.450   2.109   3.710 -0.2522 -0.1323  0.9442
   53CHL1  H18C 5058   3.524   2.202   3.839  0.5906  0.1629 -0.0159
   53CHL1   C12 5059   3.160   2.169   3.770 -0.4217 -0.9364 -0.5756
   53CHL1  H12A 5060   3.131   2.096   3.848  0.2015 -1.3808 -0.7406
   53CHL1  H12B 5061   3.075   2.235   3.745 -1.0071 -0.4427  2.3561
   53CHL1   C11 5062   3.170   2.078   3.652  0.4173  0.4009  0.9188
   53CHL1  H11A 5063   3.250   2.005   3.677  1.0497 -0.4753 -2.9261
   53CHL1  H11B 5064   3.076   2.021   3.638  1.2724 -0.3113 -3.3422
   53CHL1    C9 5065   3.208   2.142   3.516  0.0242  0.1622 -0.3553
   53CHL1    H9 5066   3.126   2.204   3.474 -0.9907 -1.0966 -0.3204
   53CHL1   C10 5067   3.244   2.045   3.401 -0.4471 -0.6052 -0.1173
   53CHL1   C19 5068   3.341   1.938   3.456 -0.0451 -0.0525 -0.1273
   53CHL1  H19A 5069   3.378   1.867   3.378 -0.5746 -0.0901 -0.3494
   53CHL1  H19B 5070   3.422   1.986   3.515 -1.8839  1.3493  1.4000
   53CHL1  H19C 5071   3.283   1.878   3.530  1.4845 -1.8113 -0.2718
   53CHL1    C1 5072   3.115   1.986   3.345 -0.0044 -0.2237 -0.3374
   53CHL1   H1A 5073   3.069   1.922   3.423  1.6291 -0.1058  0.7706
   53CHL1   H1B 5074   3.050   2.072   3.319 -1.0694 -1.3384 -1.5011
   53CHL1    C2 5075   3.122   1.897   3.221 -0.1983 -0.3995 -0.6074
   53CHL1   H2A 5076   3.019   1.873   3.189  0.2577 -1.0453 -1.6386
   53CHL1   H2B 5077   3.185   1.811   3.252  1.8620  1.5841  1.1068
   53CHL1   C20 5078   3.311   2.335   4.040 -0.4796  0.4200 -0.3014
   53CHL1   H20 5079   3.419   2.312   4.058 -1.1553 -1.2280  2.1106
   53CHL1   C21 5080   3.238   2.209   4.096 -0.0430  0.1728  0.4861
   53CHL1  H21A 5081   3.136   2.243   4.124  0.0558 -1.1620  2.6325
   53CHL1  H21B 5082   3.287   2.173   4.189 -0.7168  1.3114  1.3006
   53CHL1  H21C 5083   3.234   2.123   4.026 -2.8155 -0.5029  1.3383
   53CHL1   C22 5084   3.275   2.456   4.130 -0.0349  0.6122  0.3389
   53CHL1  H22A 5085   3.315   2.545   4.077  0.6082  0.5128  0.6433
   53CHL1  H22B 5086   3.169   2.470   4.160 -0.1474  2.0315 -0.6670
   53CHL1   C23 5087   3.355   2.461   4.262 -0.0293 -0.3106 -0.1622
   53CHL1  H23A 5088   3.327   2.379   4.332 -1.4299 -0.6204 -1.0503
   53CHL1  H23B 5089   3.463   2.443   4.240 -0.3737 -2.6961 -0.2329
   53CHL1   C24 5090   3.327   2.586   4.350 -0.4884 -0.0536 -0.6319
   53CHL1  H24A 5091   3.355   2.675   4.289  2.3895 -0.9188 -0.7616
   53CHL1  H24B 5092   3.218   2.574   4.368 -0.3960 -0.2419 -0.2076
   53CHL1   C25 5093   3.402   2.585   4.483  0.7628 -0.3647  0.0482
   53CHL1   H25 5094   3.384   2.492   4.541 -0.1925 -0.6525 -0.6859
   53CHL1   C26 5095   3.553   2.580   4.460 -0.3265  0.8513 -0.0825
   53CHL1  H26A 5096   3.586   2.475   4.448 -1.0286  0.5501  0.5124
   53CHL1  H26B 5097   3.588   2.628   4.366 -1.0174 -0.6053 -1.1297
   53CHL1  H26C 5098   3.604   2.633   4.543 -0.3340 -0.5617  0.8587
   53CHL1   C27 5099   3.362   2.709   4.555 -0.3545  0.6256  0.2214
   53CHL1  H27A 5100   3.409   2.798   4.508  1.7100 -1.1606 -1.2950
   53CHL1  H27B 5101   3.254   2.727   4.538 -0.2270 -0.3611 -1.8708
   53CHL1  H27C 5102   3.382   2.712   4.664  1.5571 -0.3132 -0.0622
   54CHL1    C3 5103   3.303   3.189   3.325 -1.2209  0.3257  0.5606
   54CHL1    H3 5104   3.410   3.168   3.347  0.3148  3.0518 -3.1534
   54CHL1    O3 5105   3.267   3.102   3.211 -0.1623 -0.1242 -0.2057
   54CHL1   H3' 5106   3.172   3.113   3.207 -0.2059  1.1614  2.2848
   54CHL1    C4 5107   3.218   3.156   3.447 -0.4810  0.0413  0.4498
   54CHL1   H4A 5108   3.111   3.157   3.417 -0.9014  0.1059  1.8714
   54CHL1   H4B 5109   3.223   3.052   3.488 -1.8242  1.0704  3.5356
   54CHL1    C5 5110   3.253   3.246   3.562  0.6764 -0.6978 -0.0869
   54CHL1    C6 5111   3.287   3.189   3.682 -0.1548  0.8517  0.6304
   54CHL1    H6 5112   3.294   3.079   3.689 -0.1640  0.8350  0.3851
   54CHL1    C7 5113   3.315   3.277   3.799 -0.8247 -0.1706 -0.6595
   54CHL1   H7A 5114   3.276   3.237   3.895 -0.3685  0.0224 -0.3932
   54CHL1   H7B 5115   3.425   3.287   3.810 -1.0675 -0.5016  3.5265
   54CHL1    C8 5116   3.273   3.426   3.789 -0.0738 -0.2084 -0.1838
   54CHL1    H8 5117   3.163   3.419   3.806  0.3256 -1.6221  2.2973
   54CHL1   C14 5118   3.346   3.508   3.896  0.1543  0.1797 -0.3399
   54CHL1   H14 5119   3.454   3.502   3.874  0.3084 -1.0500  0.6670
   54CHL1   C15 5120   3.344   3.458   4.046 -0.1341 -0.1581  0.8081
   54CHL1  H15A 5121   3.247   3.421   4.087 -0.7197 -0.7916 -1.0640
   54CHL1  H15B 5122   3.414   3.374   4.070 -1.4566 -1.8884 -1.0795
   54CHL1   C16 5123   3.385   3.590   4.111 -0.0777  0.1831 -0.1518
   54CHL1  H16A 5124   3.319   3.612   4.198 -0.5627  0.2520 -0.5365
   54CHL1  H16B 5125   3.483   3.572   4.160  0.9054  1.9047 -1.3656
   54CHL1   C17 5126   3.398   3.701   4.005 -0.3919  0.0514 -0.3782
   54CHL1   H17 5127   3.504   3.702   3.974 -0.4616 -1.0410 -0.6730
   54CHL1   C13 5128   3.315   3.657   3.888 -0.1090  0.5042  0.0699
   54CHL1   C18 5129   3.160   3.671   3.916  0.2662 -0.1878 -0.3539
   54CHL1  H18A 5130   3.090   3.639   3.836 -0.2289 -2.2544  0.8316
   54CHL1  H18B 5131   3.137   3.596   3.995  0.6176 -0.4998 -0.5453
   54CHL1  H18C 5132   3.140   3.777   3.945  0.2701 -0.7937  2.1103
   54CHL1   C12 5133   3.355   3.707   3.748  0.2107 -0.5380  0.2727
   54CHL1  H12A 5134   3.336   3.816   3.740 -1.4341 -0.9014 -1.7346
   54CHL1  H12B 5135   3.460   3.680   3.723 -0.5774 -2.8128 -0.9018
   54CHL1   C11 5136   3.271   3.629   3.639 -1.1649 -0.3397 -0.2107
   54CHL1  H11A 5137   3.162   3.647   3.647 -1.4234 -2.2105  0.9279
   54CHL1  H11B 5138   3.321   3.677   3.552  1.5203 -1.1379  0.8027
   54CHL1    C9 5139   3.302   3.481   3.647  0.2218  0.5589 -0.2724
   54CHL1    H9 5140   3.413   3.480   3.651  0.2406 -1.9310  1.8979
   54CHL1   C10 5141   3.242   3.400   3.532 -0.2511  0.3303 -0.0663
   54CHL1   C19 5142   3.090   3.418   3.525 -0.2920  0.0256 -0.2223
   54CHL1  H19A 5143   3.039   3.393   3.621 -1.5493 -1.1188 -1.1351
   54CHL1  H19B 5144   3.053   3.517   3.491 -1.1068 -0.3544 -0.4790
   54CHL1  H19C 5145   3.044   3.344   3.456  0.5305 -1.1622  0.4692
   54CHL1    C1 5146   3.320   3.438   3.408  0.0652  0.0390 -0.6490
   54CHL1   H1A 5147   3.285   3.536   3.370  0.4182  0.3787 -0.1049
   54CHL1   H1B 5148   3.430   3.438   3.418  0.0606  2.0922 -0.3173
   54CHL1    C2 5149   3.286   3.341   3.288 -0.0119 -0.3666  0.3537
   54CHL1   H2A 5150   3.368   3.365   3.217 -1.1296  2.1616 -0.2012
   54CHL1   H2B 5151   3.186   3.369   3.249 -0.4689 -2.1406  0.1836
   54CHL1   C20 5152   3.363   3.834   4.067 -0.2085  0.9306  0.2776
   54CHL1   H20 5153   3.256   3.837   4.098 -0.3571  0.5827 -0.1962
   54CHL1   C21 5154   3.370   3.954   3.966 -0.1735 -0.5052 -0.1418
   54CHL1  H21A 5155   3.451   3.935   3.892 -1.2514 -0.9119 -1.2666
   54CHL1  H21B 5156   3.367   4.051   4.020  2.9538 -0.7933  0.7408
   54CHL1  H21C 5157   3.279   3.955   3.902 -0.6931  2.8229  0.4716
   54CHL1   C22 5158   3.436   3.867   4.196 -0.1425  0.4482  0.2528
   54CHL1  H22A 5159   3.445   3.782   4.267  1.9009 -0.0696 -0.5413
   54CHL1  H22B 5160   3.535   3.907   4.165  0.1881  0.7954  1.7115
   54CHL1   C23 5161   3.353   3.970   4.278 -0.3908  0.7716  0.1491
   54CHL1  H23A 5162   3.331   4.063   4.222 -0.2802  1.5112  1.2964
   54CHL1  H23B 5163   3.261   3.915   4.308 -0.4507  2.3305  3.2138
   54CHL1   C24 5164   3.433   3.994   4.405 -0.0110  0.2989 -0.3813
   54CHL1  H24A 5165   3.450   3.898   4.458 -1.5731  0.7119  0.9527
   54CHL1  H24B 5166   3.537   4.027   4.388 -0.1435  0.3588 -1.1362
   54CHL1   C25 5167   3.377   4.084   4.512 -1.1713  0.0843  0.4361
   54CHL1   H25 5168   3.272   4.054   4.535 -2.0800  1.1794 -1.9110
   54CHL1   C26 5169   3.464   4.071   4.642  0.2511  0.1463  0.0586
   54CHL1  H26A 5170   3.445   3.973   4.690 -1.2604  0.6276  0.5189
   54CHL1  H26B 5171   3.571   4.079   4.616  0.0527 -1.7741 -1.5799
   54CHL1  H26C 5172   3.425   4.147   4.714 -0.3755  0.3344 -0.4689
   54CHL1   C27 5173   3.377   4.227   4.464  0.8376 -0.6004  0.1688
   54CHL1  H27A 5174   3.345   4.303   4.538  1.2299 -0.3615  0.0959
   54CHL1  H27B 5175   3.471   4.279   4.437 -0.2075  2.0582  1.3412
   54CHL1  H27C 5176   3.311   4.235   4.374  1.2216  3.4619  0.0765
   55CHL1    C3 5177   5.054   6.509   3.550  0.6396 -0.0650 -0.3823
   55CHL1    H3 5178   5.103   6.443   3.625 -0.0437 -3.9607 -3.0717
   55CHL1    O3 5179   5.077   6.462   3.418 -0.3448 -0.4162 -0.5380
   55CHL1   H3' 5180   5.006   6.493   3.362 -0.3865 -2.1927 -1.5420
   55CHL1    C4 5181   4.903   6.523   3.579 -0.2817  0.1195  0.5205
   55CHL1   H4A 5182   4.868   6.605   3.512  0.4764 -0.8979 -1.1932
   55CHL1   H4B 5183   4.856   6.427   3.550 -2.5339  0.7156  1.9964
   55CHL1    C5 5184   4.882   6.568   3.719 -0.5827 -0.4118  0.3671
   55CHL1    C6 5185   4.830   6.479   3.813  0.0885 -0.2975  0.4846
   55CHL1    H6 5186   4.810   6.377   3.776  0.0260 -1.2283  2.9063
   55CHL1    C7 5187   4.827   6.509   3.963  0.6478  0.3913 -0.6612
   55CHL1   H7A 5188   4.734   6.477   4.014  1.9269 -0.8436  1.0154
   55CHL1   H7B 5189   4.914   6.461   4.013  0.2287 -1.2592 -1.4714
   55CHL1    C8 5190   4.823   6.665   3.989  0.1964 -0.3091 -0.3245
   55CHL1    H8 5191   4.727   6.694   3.943 -1.6581  0.2871  3.5302
   55CHL1   C14 5192   4.832   6.696   4.135 -0.3854 -0.3248 -0.5793
   55CHL1   H14 5193   4.914   6.642   4.186 -1.7572 -2.9156 -0.9269
   55CHL1   C15 5194   4.707   6.654   4.219  0.0067 -0.6846  0.5261
   55CHL1  H15A 5195   4.625   6.696   4.156 -0.9025  1.1915  2.7956
   55CHL1  H15B 5196   4.693   6.546   4.238 -0.8760 -0.7506 -0.4180
   55CHL1   C16 5197   4.716   6.747   4.349  0.4894  0.0579 -0.1735
   55CHL1  H16A 5198   4.626   6.801   4.385 -0.9430 -3.4124  1.8716
   55CHL1  H16B 5199   4.752   6.681   4.431  0.0061 -1.8929 -1.4490
   55CHL1   C17 5200   4.840   6.830   4.327 -0.0955  0.0825  0.4462
   55CHL1   H17 5201   4.927   6.769   4.359  0.3443  1.4252  1.9144
   55CHL1   C13 5202   4.853   6.839   4.172 -0.3027 -0.1295  0.1033
   55CHL1   C18 5203   4.743   6.938   4.118  0.0183 -0.0867 -0.3941
   55CHL1  H18A 5204   4.710   6.906   4.016 -1.2520 -1.1694  0.3251
   55CHL1  H18B 5205   4.657   6.938   4.187  0.8859 -0.3830  0.7191
   55CHL1  H18C 5206   4.773   7.044   4.131  0.3825 -0.4064  1.7041
   55CHL1   C12 5207   4.994   6.874   4.118 -0.0249 -0.6702  0.1162
   55CHL1  H12A 5208   5.027   6.977   4.144 -2.9865  0.6995 -1.1712
   55CHL1  H12B 5209   5.072   6.811   4.166 -0.3210 -0.0133  1.5196
   55CHL1   C11 5210   4.997   6.851   3.967  0.1293 -0.5614  0.0003
   55CHL1  H11A 5211   4.930   6.931   3.928 -0.2320 -1.0476 -0.3917
   55CHL1  H11B 5212   5.100   6.865   3.928 -0.6034 -1.5983 -2.5506
   55CHL1    C9 5213   4.947   6.718   3.908 -1.1437 -0.1516 -0.2312
   55CHL1    H9 5214   5.032   6.654   3.939 -0.8533 -0.4451 -1.5497
   55CHL1   C10 5215   4.948   6.707   3.752 -0.1710 -0.0631  0.3270
   55CHL1   C19 5216   4.865   6.822   3.694  1.2011 -0.1014  1.1997
   55CHL1  H19A 5217   4.825   6.806   3.592 -0.0250  1.3426  1.4209
   55CHL1  H19B 5218   4.780   6.835   3.764 -0.0983  0.8100 -0.4792
   55CHL1  H19C 5219   4.914   6.922   3.694 -1.0158  1.0618  0.0019
   55CHL1    C1 5220   5.096   6.710   3.701  0.2752  0.1915  0.4673
   55CHL1   H1A 5221   5.148   6.808   3.705  1.5847 -0.4126 -0.8746
   55CHL1   H1B 5222   5.159   6.637   3.756  1.2711  1.1659  0.6320
   55CHL1    C2 5223   5.109   6.655   3.559 -0.2134  0.6147  0.1318
   55CHL1   H2A 5224   5.218   6.658   3.537  1.0522 -1.6215  4.7428
   55CHL1   H2B 5225   5.051   6.723   3.493  0.1528 -0.7024 -1.5879
   55CHL1   C20 5226   4.836   6.960   4.410  1.3856  0.3699 -1.4398
   55CHL1   H20 5227   4.763   7.033   4.370 -1.1684 -0.6136  1.0968
   55CHL1   C21 5228   4.977   7.024   4.409 -0.3946 -0.0724  0.0518
   55CHL1  H21A 5229   4.975   7.114   4.475  0.6868  0.8028 -1.0442
   55CHL1  H21B 5230   5.004   7.068   4.311  1.5295  1.1262  1.0376
   55CHL1  H21C 5231   5.061   6.958   4.441  0.9019  0.8591 -1.2777
   55CHL1   C22 5232   4.787   6.941   4.557  0.1919  0.2023  0.2936
   55CHL1  H22A 5233   4.785   7.045   4.595 -1.9947  0.7024 -1.0497
   55CHL1  H22B 5234   4.679   6.914   4.557 -0.0859  1.2106  1.4512
   55CHL1   C23 5235   4.871   6.839   4.631 -0.1563 -0.1183 -0.0233
   55CHL1  H23A 5236   4.848   6.738   4.592  1.6162 -0.1663 -1.0319
   55CHL1  H23B 5237   4.978   6.864   4.617 -0.4819  0.5585 -1.4678
   55CHL1   C24 5238   4.853   6.843   4.783  0.5216 -0.7168  0.1151
   55CHL1  H24A 5239   4.842   6.947   4.821  0.8776 -0.9653  0.9091
   55CHL1  H24B 5240   4.763   6.782   4.806 -0.4960  1.1713  1.4253
   55CHL1   C25 5241   4.955   6.775   4.877 -0.4950  0.4223 -1.0395
   55CHL1   H25 5242   5.059   6.796   4.845 -0.0864  1.4173  0.7881
   55CHL1   C26 5243   4.942   6.823   5.020  0.2445  1.0094  0.0627
   55CHL1  H26A 5244   4.988   6.754   5.094  0.8020  1.9771  0.6423
   55CHL1  H26B 5245   4.982   6.926   5.034  1.7119  0.3908  0.5472
   55CHL1  H26C 5246   4.835   6.807   5.046  0.4726 -0.4404  0.1690
   55CHL1   C27 5247   4.931   6.624   4.874 -0.4848 -0.3625  0.2577
   55CHL1  H27A 5248   5.011   6.578   4.937  0.4150  1.4523  0.5120
   55CHL1  H27B 5249   4.829   6.599   4.909 -2.1574  0.2642 -3.7073
   55CHL1  H27C 5250   4.932   6.593   4.768  1.7898  2.7127 -0.7614
   56CHL1    C3 5251   0.926   1.783   3.452  0.6890  0.6486  0.4957
   56CHL1    H3 5252   0.896   1.887   3.480 -0.6478  0.8208 -1.4385
   56CHL1    O3 5253   0.928   1.769   3.313 -0.3496  0.4230 -0.3167
   56CHL1   H3' 5254   0.940   1.676   3.293 -1.5286  0.6120 -2.0908
   56CHL1    C4 5255   1.054   1.753   3.508 -0.1793  0.2420  0.2371
   56CHL1   H4A 5256   1.095   1.652   3.486 -0.4251 -0.3430  2.2693
   56CHL1   H4B 5257   1.134   1.818   3.464  1.1947 -1.7611 -0.3485
   56CHL1    C5 5258   1.063   1.768   3.659 -0.0029  0.5019 -0.8314
   56CHL1    C6 5259   1.159   1.830   3.722  0.0052 -0.1763 -0.5953
   56CHL1    H6 5260   1.241   1.882   3.670 -2.0522  1.1072 -2.7643
   56CHL1    C7 5261   1.171   1.835   3.874 -0.1334 -0.0840  0.0981
   56CHL1   H7A 5262   1.268   1.794   3.909  0.7672  1.6557 -0.2475
   56CHL1   H7B 5263   1.160   1.945   3.887  1.0734 -0.1098  1.7685
   56CHL1    C8 5264   1.068   1.758   3.953  1.4147  0.0829  0.1316
   56CHL1    H8 5265   1.091   1.650   3.968 -2.1592 -0.5823  2.0311
   56CHL1   C14 5266   1.053   1.830   4.080  0.3746  0.2193 -0.0557
   56CHL1   H14 5267   1.006   1.927   4.056  0.8950  0.7548  1.0571
   56CHL1   C15 5268   1.174   1.875   4.167  0.2311  0.3848  0.2256
   56CHL1  H15A 5269   1.245   1.790   4.176 -0.0819 -0.4585 -3.6307
   56CHL1  H15B 5270   1.235   1.960   4.130 -0.7525  0.3205 -1.6380
   56CHL1   C16 5271   1.104   1.906   4.299 -0.1912  0.9458 -0.4775
   56CHL1  H16A 5272   1.141   1.825   4.365 -3.8998 -0.0371  0.6123
   56CHL1  H16B 5273   1.128   2.009   4.335  2.0525  0.3908 -0.2311
   56CHL1   C17 5274   0.954   1.878   4.283  0.4946  0.8554 -0.3003
   56CHL1   H17 5275   0.907   1.974   4.253  0.9024  1.0468 -0.3363
   56CHL1   C13 5276   0.948   1.770   4.170 -0.1025 -0.2975 -0.2284
   56CHL1   C18 5277   0.986   1.629   4.228  0.0516 -0.0618  0.5027
   56CHL1  H18A 5278   0.902   1.598   4.295  0.5059 -0.1429  1.0419
   56CHL1  H18B 5279   1.000   1.557   4.145  1.5816  0.6998  0.0633
   56CHL1  H18C 5280   1.087   1.636   4.273  1.1327  0.5145 -1.8707
   56CHL1   C12 5281   0.810   1.768   4.098  0.6540 -0.2884  0.7995
   56CHL1  H12A 5282   0.727   1.717   4.153 -1.5134  2.6230  0.4431
   56CHL1  H12B 5283   0.785   1.871   4.066  0.0513 -0.9006 -0.7887
   56CHL1   C11 5284   0.824   1.692   3.961 -1.1265 -0.2017  0.0962
   56CHL1  H11A 5285   0.842   1.583   3.979  1.2372 -0.3440 -2.3651
   56CHL1  H11B 5286   0.724   1.709   3.918 -0.4217  3.2739 -0.4746
   56CHL1    C9 5287   0.939   1.763   3.878  0.3630  0.0250 -0.2221
   56CHL1    H9 5288   0.903   1.867   3.864  0.1064 -0.0506 -0.1387
   56CHL1   C10 5289   0.948   1.700   3.732 -0.0308  0.0988  0.0278
   56CHL1   C19 5290   0.984   1.550   3.735 -0.1845  0.7998  0.0110
   56CHL1  H19A 5291   0.981   1.513   3.630 -0.3437  2.0133 -0.4299
   56CHL1  H19B 5292   1.090   1.539   3.766 -0.6418  0.1384  1.4073
   56CHL1  H19C 5293   0.916   1.490   3.799 -1.7506 -1.2592 -3.2616
   56CHL1    C1 5294   0.810   1.713   3.657 -1.0693 -0.0007 -0.3590
   56CHL1   H1A 5295   0.745   1.628   3.688 -1.6892  0.1656 -1.1717
   56CHL1   H1B 5296   0.763   1.812   3.672  0.4310  0.5943  0.5776
   56CHL1    C2 5297   0.816   1.687   3.503  0.3993 -0.2967  0.2779
   56CHL1   H2A 5298   0.717   1.717   3.461  0.4353  4.2852  2.8547
   56CHL1   H2B 5299   0.843   1.579   3.496 -0.6764 -0.6300  1.0955
   56CHL1   C20 5300   0.889   1.839   4.423  0.4742 -0.5917  0.0026
   56CHL1   H20 5301   0.926   1.743   4.465  2.6191  1.1103  2.3513
   56CHL1   C21 5302   0.733   1.836   4.409 -0.0178  0.2671 -0.5444
   56CHL1  H21A 5303   0.707   1.911   4.331 -1.9478  0.1341 -0.0731
   56CHL1  H21B 5304   0.684   1.860   4.507  2.0810 -1.7502  1.1094
   56CHL1  H21C 5305   0.688   1.743   4.370 -1.2413  0.6332 -0.0458
   56CHL1   C22 5306   0.924   1.947   4.535 -0.6808  0.6614  0.2451
   56CHL1  H22A 5307   1.030   1.981   4.524  0.0241 -1.1701  1.1103
   56CHL1  H22B 5308   0.862   2.037   4.515 -1.3296  0.0512 -0.5425
   56CHL1   C23 5309   0.910   1.889   4.675 -0.0696 -0.1488  0.2762
   56CHL1  H23A 5310   0.815   1.831   4.678  1.3812 -2.6686  0.6341
   56CHL1  H23B 5311   0.993   1.821   4.702  0.3382  0.5463  0.7929
   56CHL1   C24 5312   0.915   1.991   4.785  0.0224  0.0882  0.2247
   56CHL1  H24A 5313   1.011   2.046   4.799 -0.0629  0.5431 -0.8943
   56CHL1  H24B 5314   0.838   2.065   4.756 -0.0851 -0.3584 -0.6692
   56CHL1   C25 5315   0.889   1.958   4.933  0.3702  0.1740  0.3708
   56CHL1   H25 5316   0.977   1.901   4.969  0.4392 -0.2798 -0.4971
   56CHL1   C26 5317   0.879   2.091   5.011 -0.1683 -0.0349 -0.4001
   56CHL1  H26A 5318   0.778   2.130   4.985  1.1770  1.6164 -3.7810
   56CHL1  H26B 5319   0.889   2.074   5.120  1.2463 -0.5926 -0.5905
   56CHL1  H26C 5320   0.962   2.145   4.962  0.2549 -0.6352 -0.3470
   56CHL1   C27 5321   0.766   1.865   4.950  0.7559  0.9013  0.0419
   56CHL1  H27A 5322   0.781   1.770   4.894 -0.4811  0.8692 -0.2819
   56CHL1  H27B 5323   0.771   1.843   5.059 -1.3519  1.0685  0.2122
   56CHL1  H27C 5324   0.669   1.908   4.915 -0.2915 -1.5610 -0.3161
   57CHL1    C3 5325   0.256   1.139   3.350 -0.7124  0.4488  0.4011
   57CHL1    H3 5326   0.254   1.234   3.291 -1.0956  1.1441  1.5020
   57CHL1    O3 5327   0.257   1.029   3.259  0.7364  0.1579  0.3921
   57CHL1   H3' 5328   0.249   0.951   3.313 -0.5821 -0.8120 -1.1505
   57CHL1    C4 5329   0.377   1.147   3.447 -0.0517 -0.3809 -0.2943
   57CHL1   H4A 5330   0.396   1.049   3.497 -1.1392 -0.8921 -0.8490
   57CHL1   H4B 5331   0.468   1.168   3.387  0.9009  0.5775  1.4161
   57CHL1    C5 5332   0.371   1.240   3.563  0.8287 -0.7565 -0.5345
   57CHL1    C6 5333   0.464   1.336   3.588  0.0022 -1.2220  0.2016
   57CHL1    H6 5334   0.555   1.345   3.528 -0.7418 -0.4147 -0.8329
   57CHL1    C7 5335   0.457   1.435   3.705  0.3064  0.3564  0.3263
   57CHL1   H7A 5336   0.557   1.443   3.752  1.1690 -0.7447 -1.1941
   57CHL1   H7B 5337   0.425   1.538   3.677 -0.5223  0.6446  2.1704
   57CHL1    C8 5338   0.358   1.389   3.811 -0.0278 -0.0617  0.5522
   57CHL1    H8 5339   0.396   1.299   3.864  2.5468 -1.8701 -3.8021
   57CHL1   C14 5340   0.339   1.509   3.900 -0.3636 -0.3387 -0.0154
   57CHL1   H14 5341   0.280   1.577   3.836 -1.8150 -0.9838  0.5870
   57CHL1   C15 5342   0.456   1.579   3.973  0.1454  0.1581 -0.6880
   57CHL1  H15A 5343   0.532   1.500   3.986 -0.3137 -0.4696 -1.6350
   57CHL1  H15B 5344   0.501   1.656   3.907 -0.3331  0.5689 -0.5479
   57CHL1   C16 5345   0.395   1.653   4.093 -1.0755  0.1156  0.4634
   57CHL1  H16A 5346   0.469   1.635   4.173  0.9304 -1.4010 -1.6014
   57CHL1  H16B 5347   0.391   1.761   4.068 -0.9529  0.0257  0.0490
   57CHL1   C17 5348   0.246   1.607   4.099  0.2504  0.7852  0.0414
   57CHL1   H17 5349   0.184   1.684   4.048 -0.3848  0.2028 -0.0805
   57CHL1   C13 5350   0.241   1.480   4.010  0.0035 -0.4173 -0.8094
   57CHL1   C18 5351   0.294   1.365   4.106 -0.3570 -0.5203  0.3546
   57CHL1  H18A 5352   0.274   1.268   4.056  2.6211 -0.4319 -1.2127
   57CHL1  H18B 5353   0.403   1.364   4.130 -0.7200 -0.0475  2.1613
   57CHL1  H18C 5354   0.240   1.375   4.202 -4.8138  0.3153 -1.9789
   57CHL1   C12 5355   0.102   1.443   3.952  0.3013  0.7334 -0.0619
   57CHL1  H12A 5356   0.030   1.419   4.034  1.7422  0.9439  1.3123
   57CHL1  H12B 5357   0.064   1.537   3.909 -2.8705 -0.8139 -0.9356
   57CHL1   C11 5358   0.113   1.329   3.853  0.7691 -0.2903 -0.4604
   57CHL1  H11A 5359   0.137   1.240   3.915 -0.9787 -0.3386  0.2054
   57CHL1  H11B 5360   0.012   1.314   3.810  0.8934  0.9420 -1.2560
   57CHL1    C9 5361   0.220   1.351   3.748 -0.5716 -0.6182  0.1389
   57CHL1    H9 5362   0.196   1.438   3.683  0.3238 -1.6504 -1.6509
   57CHL1   C10 5363   0.238   1.231   3.644 -0.1001  0.6098  0.1950
   57CHL1   C19 5364   0.250   1.108   3.734  0.1898  0.9170 -0.6084
   57CHL1  H19A 5365   0.165   1.093   3.804  0.4965  0.4968 -0.3197
   57CHL1  H19B 5366   0.265   1.016   3.675 -0.2827  0.8763 -0.6688
   57CHL1  H19C 5367   0.344   1.115   3.794 -1.0569  1.6189  1.3722
   57CHL1    C1 5368   0.117   1.226   3.551  0.2872 -0.1865 -0.0758
   57CHL1   H1A 5369   0.029   1.191   3.608 -1.0891  2.1443 -0.6718
   57CHL1   H1B 5370   0.091   1.326   3.512 -0.5429 -0.3394  0.0688
   57CHL1    C2 5371   0.125   1.124   3.429  0.2945 -0.0084  0.2922
   57CHL1   H2A 5372   0.041   1.130   3.356  0.7092  2.2304 -0.0964
   57CHL1   H2B 5373   0.124   1.023   3.475  0.2459 -0.4942 -0.7436
   57CHL1   C20 5374   0.192   1.612   4.243  0.2437  0.5105 -0.7649
   57CHL1   H20 5375   0.251   1.550   4.314  0.4524  0.3894 -1.0401
   57CHL1   C21 5376   0.049   1.577   4.251 -0.2219  0.3595 -0.5477
   57CHL1  H21A 5377   0.023   1.581   4.359  2.6953 -1.6934  0.3632
   57CHL1  H21B 5378   0.037   1.467   4.236 -0.6555  0.0707  1.5234
   57CHL1  H21C 5379  -0.016   1.638   4.185 -1.4294  0.8517  1.0426
   57CHL1   C22 5380   0.205   1.753   4.301 -0.0159 -0.3126  0.2180
   57CHL1  H22A 5381   0.312   1.784   4.292 -0.6581  1.6865 -1.5747
   57CHL1  H22B 5382   0.139   1.816   4.237 -0.5183 -1.2650 -0.2171
   57CHL1   C23 5383   0.167   1.766   4.447 -0.0836  0.5247 -0.4163
   57CHL1  H23A 5384   0.060   1.739   4.462 -0.6525  2.4889 -0.7675
   57CHL1  H23B 5385   0.226   1.685   4.496 -2.5191 -1.3523 -0.3864
   57CHL1   C24 5386   0.180   1.910   4.509  0.0473  0.0324 -0.8147
   57CHL1  H24A 5387   0.286   1.943   4.498  0.0385  0.6552  0.7556
   57CHL1  H24B 5388   0.123   1.985   4.451  0.0063  1.8974  1.5047
   57CHL1   C25 5389   0.126   1.925   4.655 -0.1097  0.3149 -0.4555
   57CHL1   H25 5390   0.019   1.895   4.653 -0.5200  0.9173  3.4118
   57CHL1   C26 5391   0.201   1.852   4.761 -0.0343  0.4444 -0.0087
   57CHL1  H26A 5392   0.307   1.885   4.754  0.2101 -0.4368 -0.5831
   57CHL1  H26B 5393   0.163   1.868   4.864  2.5274  2.1585  0.7828
   57CHL1  H26C 5394   0.190   1.746   4.732  0.4626  0.1825  0.7228
   57CHL1   C27 5395   0.126   2.077   4.692  0.0949 -0.5275 -0.3166
   57CHL1  H27A 5396   0.231   2.101   4.719 -0.1994  1.2404 -0.6309
   57CHL1  H27B 5397   0.105   2.145   4.607  2.2104  2.6978  1.5722
   57CHL1  H27C 5398   0.055   2.098   4.775  0.1466  0.5635 -0.5426
   58CHL1    C3 5399   5.688   6.719   3.599  0.6596 -0.3255 -0.0314
   58CHL1    H3 5400   5.677   6.828   3.617 -0.4838 -0.4482  0.1052
   58CHL1    O3 5401   5.734   6.701   3.471 -0.1675  0.3055  0.3436
   58CHL1   H3' 5402   5.699   6.612   3.459 -0.5931  0.2417  1.7644
   58CHL1    C4 5403   5.776   6.652   3.698  0.2912  0.3050  1.0830
   58CHL1   H4A 5404   5.791   6.545   3.674  0.3159  0.0911  2.0261
   58CHL1   H4B 5405   5.876   6.701   3.692  0.1057  0.6285  0.5116
   58CHL1    C5 5406   5.717   6.669   3.835 -0.7624  0.2614  0.3545
   58CHL1    C6 5407   5.795   6.732   3.929  0.6188 -0.2655  0.5025
   58CHL1    H6 5408   5.896   6.766   3.901 -0.1496  0.5369 -1.4768
   58CHL1    C7 5409   5.756   6.758   4.073 -0.3344 -0.6002  0.1900
   58CHL1   H7A 5410   5.851   6.740   4.128  0.7123 -1.3087 -1.7244
   58CHL1   H7B 5411   5.724   6.863   4.087 -0.2151 -0.5758  0.2822
   58CHL1    C8 5412   5.641   6.666   4.114 -0.1064  0.7187  1.0186
   58CHL1    H8 5413   5.674   6.562   4.131 -0.5273  0.5741  0.9609
   58CHL1   C14 5414   5.579   6.722   4.237 -0.3089 -0.3898 -0.4231
   58CHL1   H14 5415   5.526   6.815   4.210  0.0102 -0.1860 -0.3545
   58CHL1   C15 5416   5.669   6.761   4.355  0.7277  0.2489  0.2007
   58CHL1  H15A 5417   5.749   6.685   4.364 -0.3391 -0.9816 -0.3704
   58CHL1  H15B 5418   5.710   6.864   4.356  0.1638  0.4899 -0.5639
   58CHL1   C16 5419   5.573   6.749   4.480  0.1827 -0.1494  0.4012
   58CHL1  H16A 5420   5.616   6.667   4.540 -0.1757  1.1113  2.4661
   58CHL1  H16B 5421   5.587   6.842   4.539  0.6975 -1.2024  1.9930
   58CHL1   C17 5422   5.431   6.726   4.421  0.0403  0.1306  0.7120
   58CHL1   H17 5423   5.401   6.825   4.381  0.8593 -0.2918 -1.0253
   58CHL1   C13 5424   5.467   6.644   4.290  0.2146 -0.2002 -0.0426
   58CHL1   C18 5425   5.510   6.498   4.328  0.3128 -0.1192  0.6245
   58CHL1  H18A 5426   5.426   6.452   4.385  1.1367  0.8843  2.7400
   58CHL1  H18B 5427   5.513   6.425   4.244 -0.8332  0.5868 -0.0564
   58CHL1  H18C 5428   5.603   6.488   4.389 -1.1426  0.9781  3.1988
   58CHL1   C12 5429   5.354   6.635   4.187 -0.3203 -0.3572  0.2023
   58CHL1  H12A 5430   5.267   6.578   4.225 -0.5091  0.8783  1.7024
   58CHL1  H12B 5431   5.328   6.743   4.185  1.6820  0.1701 -0.0195
   58CHL1   C11 5432   5.400   6.585   4.051  0.2456 -0.1043  0.1670
   58CHL1  H11A 5433   5.424   6.478   4.065  0.2120 -0.1372 -0.0317
   58CHL1  H11B 5434   5.321   6.602   3.975 -0.4678  0.7440  1.0619
   58CHL1    C9 5435   5.532   6.658   4.004 -0.2392  0.7308  0.4546
   58CHL1    H9 5436   5.501   6.764   3.991 -0.8779  0.5440  0.4316
   58CHL1   C10 5437   5.578   6.615   3.863  0.2226 -0.8581 -0.3154
   58CHL1   C19 5438   5.570   6.462   3.849  0.4144  0.1335 -0.0418
   58CHL1  H19A 5439   5.617   6.409   3.935 -0.4167 -0.8681 -0.1762
   58CHL1  H19B 5440   5.465   6.424   3.853  0.6109 -0.5056 -0.8235
   58CHL1  H19C 5441   5.615   6.426   3.754  0.3112  2.6717 -1.1349
   58CHL1    C1 5442   5.487   6.676   3.749  0.4269  0.0871  1.1497
   58CHL1   H1A 5443   5.392   6.619   3.759 -0.8185  1.9231  0.3658
   58CHL1   H1B 5444   5.466   6.784   3.762  1.7790  0.3035  1.7691
   58CHL1    C2 5445   5.543   6.649   3.606 -0.2886  0.1209 -0.0046
   58CHL1   H2A 5446   5.482   6.691   3.523  1.0885 -0.6160 -1.4453
   58CHL1   H2B 5447   5.563   6.541   3.590 -2.4219 -0.3644  0.2346
   58CHL1   C20 5448   5.331   6.671   4.520  0.4256 -0.3441 -0.4595
   58CHL1   H20 5449   5.356   6.565   4.539  1.6350 -0.0666 -0.4253
   58CHL1   C21 5450   5.186   6.684   4.472 -0.0918 -0.1051  0.6076
   58CHL1  H21A 5451   5.107   6.664   4.547  1.0157  1.5339  2.2963
   58CHL1  H21B 5452   5.165   6.602   4.399  0.1410 -0.7356  1.2395
   58CHL1  H21C 5453   5.153   6.779   4.425 -1.2574 -0.6081  0.3814
   58CHL1   C22 5454   5.344   6.745   4.661  0.3768  0.5976  1.1343
   58CHL1  H22A 5455   5.275   6.692   4.730  1.3364  0.7609  2.2650
   58CHL1  H22B 5456   5.445   6.736   4.707  1.2647  1.0377 -0.6362
   58CHL1   C23 5457   5.310   6.892   4.649 -0.2856  0.7105  0.2072
   58CHL1  H23A 5458   5.369   6.946   4.573 -1.1690 -0.7076 -1.5532
   58CHL1  H23B 5459   5.201   6.908   4.631 -1.4304 -1.7435  3.6685
   58CHL1   C24 5460   5.331   6.956   4.785  0.0771  1.1249  0.2908
   58CHL1  H24A 5461   5.272   6.902   4.863 -1.4778  0.5282 -1.2452
   58CHL1  H24B 5462   5.438   6.945   4.812  0.2788  2.9408  0.3078
   58CHL1   C25 5463   5.297   7.104   4.799 -0.2586 -0.3577 -0.4598
   58CHL1   H25 5464   5.354   7.145   4.713  0.3714 -1.3338 -0.5209
   58CHL1   C26 5465   5.149   7.129   4.782  0.6764 -0.3707  0.4345
   58CHL1  H26A 5466   5.095   7.084   4.868  1.0018 -0.0061  0.8318
   58CHL1  H26B 5467   5.115   7.234   4.790 -3.2576 -1.2051 -2.2649
   58CHL1  H26C 5468   5.105   7.105   4.682 -0.3877 -1.6118  1.1719
   58CHL1   C27 5469   5.361   7.165   4.925 -0.1537  0.0624  0.4804
   58CHL1  H27A 5470   5.316   7.123   5.018 -0.8538  1.5229  0.8233
   58CHL1  H27B 5471   5.472   7.170   4.922 -0.1889  0.4956 -0.0375
   58CHL1  H27C 5472   5.337   7.273   4.936 -1.1230 -0.1773  0.8304
   59CHL1    C3 5473   5.235   3.602   2.992  0.9500  0.4778  0.1284
   59CHL1    H3 5474   5.128   3.572   2.987  0.8395  0.6789  1.1529
   59CHL1    O3 5475   5.272   3.613   2.853 -0.0901 -0.3264 -0.4170
   59CHL1   H3' 5476   5.192   3.644   2.807 -0.2520 -0.6851 -0.3779
   59CHL1    C4 5477   5.259   3.737   3.060  0.6062  0.2707  0.1745
   59CHL1   H4A 5478   5.367   3.760   3.049  1.0292 -0.9035  1.5349
   59CHL1   H4B 5479   5.192   3.806   3.006  0.5200 -0.3559 -0.5434
   59CHL1    C5 5480   5.241   3.730   3.215  0.7689  0.1667  0.3242
   59CHL1    C6 5481   5.160   3.822   3.269  0.5361  0.5018 -0.4735
   59CHL1    H6 5482   5.109   3.897   3.206 -0.8346 -0.3117 -0.3763
   59CHL1    C7 5483   5.126   3.827   3.414  0.4378 -0.2232 -0.6890
   59CHL1   H7A 5484   5.144   3.929   3.455  1.1469 -0.4029 -0.5336
   59CHL1   H7B 5485   5.023   3.800   3.444  0.6860  0.2636  0.7114
   59CHL1    C8 5486   5.212   3.732   3.503 -0.0441 -0.1964  0.0475
   59CHL1    H8 5487   5.307   3.787   3.514  0.8273 -1.6528  0.0754
   59CHL1   C14 5488   5.140   3.709   3.638  0.3734 -0.0770  0.7743
   59CHL1   H14 5489   5.040   3.670   3.610  0.1035  1.4560 -0.5685
   59CHL1   C15 5490   5.102   3.827   3.722  0.2638 -0.6019 -0.3236
   59CHL1  H15A 5491   5.189   3.897   3.730  0.7857 -0.6267 -3.9035
   59CHL1  H15B 5492   5.018   3.889   3.685  3.0983  2.9266 -1.3970
   59CHL1   C16 5493   5.078   3.765   3.859  0.0071  0.1641  0.4824
   59CHL1  H16A 5494   5.141   3.819   3.933 -2.3825  2.3085  1.0517
   59CHL1  H16B 5495   4.977   3.771   3.903 -0.3666  0.2127 -0.3710
   59CHL1   C17 5496   5.129   3.614   3.857  0.3805  0.5022  0.4069
   59CHL1   H17 5497   5.042   3.551   3.828  1.9268 -1.4611 -0.1910
   59CHL1   C13 5498   5.212   3.609   3.728 -0.2895  0.5531  0.3623
   59CHL1   C18 5499   5.351   3.661   3.769  0.7614  0.4270 -0.7574
   59CHL1  H18A 5500   5.417   3.677   3.681  1.3753  1.0309 -0.1883
   59CHL1  H18B 5501   5.352   3.747   3.839  1.0740  0.2214 -0.5039
   59CHL1  H18C 5502   5.394   3.576   3.826 -0.7652  1.0283  1.4272
   59CHL1   C12 5503   5.235   3.476   3.654  0.5003  0.5018 -0.3138
   59CHL1  H12A 5504   5.306   3.413   3.712  2.4966  1.8239 -1.2111
   59CHL1  H12B 5505   5.140   3.419   3.657 -0.4773  1.9225 -2.0565
   59CHL1   C11 5506   5.301   3.493   3.521 -0.0448  0.0691  0.4437
   59CHL1  H11A 5507   5.407   3.515   3.545  0.1611  0.9682 -1.1832
   59CHL1  H11B 5508   5.313   3.396   3.467 -1.2039  0.5941 -0.8071
   59CHL1    C9 5509   5.239   3.602   3.435 -0.2038  0.2838  0.7677
   59CHL1    H9 5510   5.143   3.554   3.409  1.0032 -1.3018 -1.1291
   59CHL1   C10 5511   5.302   3.615   3.293  0.3310  0.3389 -0.0064
   59CHL1   C19 5512   5.453   3.647   3.309  0.2349  0.9845  0.1734
   59CHL1  H19A 5513   5.492   3.658   3.205  0.3527 -1.1224 -0.0477
   59CHL1  H19B 5514   5.468   3.744   3.359  0.6836  1.2392 -0.4412
   59CHL1  H19C 5515   5.506   3.565   3.362 -1.3471  0.6668  1.3478
   59CHL1    C1 5516   5.284   3.479   3.217 -0.8904  1.4429 -0.6650
   59CHL1   H1A 5517   5.352   3.400   3.256 -1.3809  1.0338 -0.6272
   59CHL1   H1B 5518   5.182   3.439   3.238 -1.3076  0.7274 -3.6408
   59CHL1    C2 5519   5.308   3.491   3.067  0.5178  0.4802 -0.8943
   59CHL1   H2A 5520   5.269   3.401   3.015 -4.0208  1.1572  0.8314
   59CHL1   H2B 5521   5.418   3.498   3.062  0.5090  1.4844  0.0801
   59CHL1   C20 5522   5.177   3.567   3.995  0.7115 -0.0771  0.6631
   59CHL1   H20 5523   5.252   3.640   4.034  0.0934 -0.9632  3.8331
   59CHL1   C21 5524   5.230   3.417   3.979 -0.2814  0.6251  0.2531
   59CHL1  H21A 5525   5.141   3.356   3.951  1.2795 -0.4089 -3.0299
   59CHL1  H21B 5526   5.267   3.390   4.080  1.1188  1.4705 -0.0031
   59CHL1  H21C 5527   5.310   3.388   3.907 -2.8133 -2.6905 -1.5217
   59CHL1   C22 5528   5.069   3.584   4.101  0.1952  0.4012 -0.0005
   59CHL1  H22A 5529   5.056   3.693   4.116  0.6875  0.4989 -0.2842
   59CHL1  H22B 5530   4.976   3.535   4.064  0.8197 -0.2426 -0.7568
   59CHL1   C23 5531   5.115   3.516   4.234 -0.4283 -0.4617  1.1054
   59CHL1  H23A 5532   5.120   3.406   4.221 -0.0148 -0.2718 -0.6198
   59CHL1  H23B 5533   5.216   3.550   4.264  0.6002 -3.1093  0.8804
   59CHL1   C24 5534   5.010   3.552   4.344  0.2383  0.5982 -0.3458
   59CHL1  H24A 5535   5.010   3.661   4.365 -1.0646  0.1257  2.7437
   59CHL1  H24B 5536   4.910   3.517   4.311  0.0967 -0.7368  1.3056
   59CHL1   C25 5537   5.028   3.469   4.476 -0.1787 -0.1952 -0.2107
   59CHL1   H25 5538   5.019   3.361   4.449 -2.3249  0.4612 -2.4795
   59CHL1   C26 5539   5.157   3.509   4.546 -0.6542  0.4557  0.1767
   59CHL1  H26A 5540   5.167   3.617   4.572  1.4820 -0.1878  2.4187
   59CHL1  H26B 5541   5.168   3.446   4.637  0.8507  1.4576  0.7246
   59CHL1  H26C 5542   5.244   3.481   4.483 -1.0352 -0.0967 -0.1046
   59CHL1   C27 5543   4.914   3.508   4.560  0.3839  0.2651 -1.1058
   59CHL1  H27A 5544   4.918   3.611   4.601 -1.8317 -0.4240  1.1237
   59CHL1  H27B 5545   4.811   3.498   4.519 -0.2903  1.1997  0.2621
   59CHL1  H27C 5546   4.915   3.431   4.641  4.0127  1.0717 -0.2317
   60CHL1    C3 5547   5.974   6.063   3.379 -0.1111 -0.1451  0.0786
   60CHL1    H3 5548   6.041   6.093   3.462 -1.8966  0.8821  1.2205
   60CHL1    O3 5549   6.047   6.067   3.261  0.5700 -0.8599  0.2636
   60CHL1   H3' 5550   5.984   6.091   3.192  1.8363 -0.0273 -0.6401
   60CHL1    C4 5551   5.929   5.919   3.405 -0.3860 -0.0858  0.4999
   60CHL1   H4A 5552   5.873   5.894   3.313  1.2494 -2.5713  0.0794
   60CHL1   H4B 5553   6.029   5.870   3.415  1.2415  2.9783  0.3633
   60CHL1    C5 5554   5.844   5.903   3.530  0.0795 -0.1790 -0.3258
   60CHL1    C6 5555   5.883   5.812   3.627 -0.3588 -0.6950  0.6545
   60CHL1    H6 5556   5.967   5.747   3.601  0.0527  0.0260  0.1266
   60CHL1    C7 5557   5.810   5.783   3.751  0.8530 -0.3064  0.3550
   60CHL1   H7A 5558   5.794   5.673   3.754 -0.3672 -0.1277  1.3540
   60CHL1   H7B 5559   5.871   5.809   3.840  2.6908 -2.1952 -0.2900
   60CHL1    C8 5560   5.679   5.867   3.771 -0.0039 -0.5938  0.7225
   60CHL1    H8 5561   5.609   5.807   3.709 -0.1159  0.9650 -0.7528
   60CHL1   C14 5562   5.628   5.878   3.912  0.5790 -0.2301  0.1396
   60CHL1   H14 5563   5.702   5.939   3.968 -1.2231  2.2403  0.0387
   60CHL1   C15 5564   5.621   5.747   3.995  0.4469  0.2032 -0.2130
   60CHL1  H15A 5565   5.586   5.667   3.926 -0.3004  0.5889 -0.2957
   60CHL1  H15B 5566   5.722   5.724   4.034  1.0628  2.2127 -0.5114
   60CHL1   C16 5567   5.513   5.773   4.097 -0.1724 -0.5621 -0.6922
   60CHL1  H16A 5568   5.424   5.707   4.100  1.1830 -2.4323  1.2894
   60CHL1  H16B 5569   5.565   5.769   4.195  2.0609  1.3886 -1.7000
   60CHL1   C17 5570   5.472   5.919   4.074 -0.9652 -0.0389 -0.2795
   60CHL1   H17 5571   5.555   5.974   4.124 -1.7362 -0.6135  1.7116
   60CHL1   C13 5572   5.496   5.940   3.928 -1.2896 -0.7061  0.2796
   60CHL1   C18 5573   5.383   5.864   3.844 -0.5843 -0.3166 -0.3048
   60CHL1  H18A 5574   5.301   5.937   3.854  1.8403  2.3693  1.5398
   60CHL1  H18B 5575   5.405   5.860   3.735 -0.8821 -0.9930 -0.3452
   60CHL1  H18C 5576   5.347   5.766   3.883 -0.6029 -0.7753 -1.4374
   60CHL1   C12 5577   5.510   6.090   3.887 -0.4782  0.0670  0.1784
   60CHL1  H12A 5578   5.411   6.140   3.889 -0.0763  0.8972 -0.3469
   60CHL1  H12B 5579   5.568   6.143   3.965 -1.6015  2.5666 -0.5748
   60CHL1   C11 5580   5.579   6.107   3.743 -0.4297 -0.3797 -0.0394
   60CHL1  H11A 5581   5.493   6.081   3.677  1.3681 -2.7051 -1.6594
   60CHL1  H11B 5582   5.600   6.215   3.726 -0.7895 -0.3857 -0.5308
   60CHL1    C9 5583   5.692   6.007   3.703 -0.2734 -0.2355 -0.1238
   60CHL1    H9 5584   5.775   6.058   3.757  1.4643 -1.2245 -1.7471
   60CHL1   C10 5585   5.731   6.007   3.555  1.0105  0.2547  0.4899
   60CHL1   C19 5586   5.611   5.965   3.473  0.7169  0.4586  0.4819
   60CHL1  H19A 5587   5.528   6.038   3.482 -0.6266 -1.0761  1.0991
   60CHL1  H19B 5588   5.639   5.962   3.365 -1.2422 -2.0020 -0.0686
   60CHL1  H19C 5589   5.573   5.863   3.497 -0.6488  0.3215 -1.9352
   60CHL1    C1 5590   5.769   6.152   3.509  0.2450 -0.2590 -0.2649
   60CHL1   H1A 5591   5.685   6.225   3.516  1.0454  0.8838 -1.9554
   60CHL1   H1B 5592   5.836   6.188   3.590 -0.8792  1.3596 -0.0166
   60CHL1    C2 5593   5.849   6.157   3.377  0.1938  0.3355 -0.3418
   60CHL1   H2A 5594   5.893   6.256   3.352 -1.3397  1.1748  0.1817
   60CHL1   H2B 5595   5.782   6.127   3.294  1.0433  1.4381 -1.4588
   60CHL1   C20 5596   5.339   5.968   4.138 -0.3051  0.0543 -0.1220
   60CHL1   H20 5597   5.263   5.927   4.069  0.0193 -0.4261 -0.1974
   60CHL1   C21 5598   5.327   6.119   4.157 -0.2277 -0.0110  1.1297
   60CHL1  H21A 5599   5.278   6.167   4.070  0.6812  0.4079  0.8369
   60CHL1  H21B 5600   5.425   6.164   4.185 -0.2017 -0.3053  1.5255
   60CHL1  H21C 5601   5.252   6.149   4.233 -0.3682  2.3049  0.1872
   60CHL1   C22 5602   5.300   5.899   4.278 -0.0258 -0.6294 -0.0963
   60CHL1  H22A 5603   5.196   5.926   4.304 -0.6183 -1.9010 -1.0811
   60CHL1  H22B 5604   5.302   5.790   4.259 -0.1264 -0.3178 -2.0649
   60CHL1   C23 5605   5.387   5.931   4.398  0.0762  0.0087 -0.0123
   60CHL1  H23A 5606   5.492   5.906   4.374  0.7832  1.7689  1.0017
   60CHL1  H23B 5607   5.383   6.042   4.410 -0.8212  0.0404 -0.5212
   60CHL1   C24 5608   5.344   5.841   4.514  0.0605 -0.2270 -0.0794
   60CHL1  H24A 5609   5.233   5.833   4.520  0.1252 -0.7743  0.5705
   60CHL1  H24B 5610   5.389   5.739   4.506 -2.1336 -1.3506  1.0436
   60CHL1   C25 5611   5.398   5.894   4.642 -0.0526  0.4854 -0.8899
   60CHL1   H25 5612   5.498   5.933   4.612  1.0055 -1.3491  0.0373
   60CHL1   C26 5613   5.319   6.006   4.711  0.5189  0.8681  1.1377
   60CHL1  H26A 5614   5.303   6.087   4.637 -1.8430 -0.6043 -0.0515
   60CHL1  H26B 5615   5.219   5.970   4.742 -0.0897  2.0791  0.6179
   60CHL1  H26C 5616   5.368   6.045   4.803  0.7990 -0.5471  1.6219
   60CHL1   C27 5617   5.441   5.776   4.736  0.1322 -0.2217 -0.7141
   60CHL1  H27A 5618   5.483   5.688   4.683 -0.0530 -1.9681  1.8357
   60CHL1  H27B 5619   5.517   5.811   4.809 -0.8682  0.6874 -0.0757
   60CHL1  H27C 5620   5.348   5.748   4.790 -0.1655  0.4429 -0.8647
   61CHL1    C3 5621   0.657   6.718   3.259  0.1001  0.1406  0.4893
   61CHL1    H3 5622   0.701   6.820   3.253  2.1575 -0.6687  1.1781
   61CHL1    O3 5623   0.659   6.658   3.126 -0.4538  0.2707 -0.1010
   61CHL1   H3' 5624   0.639   6.567   3.147  1.7277  0.1024  1.7123
   61CHL1    C4 5625   0.730   6.626   3.359  0.7450 -0.0074  0.2719
   61CHL1   H4A 5626   0.706   6.523   3.326  2.0004  0.2434 -1.6056
   61CHL1   H4B 5627   0.835   6.628   3.321  0.8219 -2.1296  0.2587
   61CHL1    C5 5628   0.703   6.659   3.509 -0.2446 -0.5791  0.1945
   61CHL1    C6 5629   0.802   6.669   3.597 -0.2064  0.0475  0.1045
   61CHL1    H6 5630   0.905   6.657   3.562  0.5859 -1.9535  2.8815
   61CHL1    C7 5631   0.784   6.692   3.741  0.2023 -0.4766 -0.2700
   61CHL1   H7A 5632   0.842   6.618   3.800 -0.8410 -1.3301 -0.2825
   61CHL1   H7B 5633   0.819   6.790   3.778 -2.2363 -0.3525  2.0861
   61CHL1    C8 5634   0.635   6.684   3.786 -0.1959  0.5905  0.2798
   61CHL1    H8 5635   0.617   6.575   3.798 -0.5650  0.3039 -2.3287
   61CHL1   C14 5636   0.623   6.749   3.924 -0.0871 -0.4972  0.2245
   61CHL1   H14 5637   0.647   6.856   3.909  3.6088 -1.0152  1.3476
   61CHL1   C15 5638   0.721   6.719   4.031 -0.7873  0.3129 -0.7062
   61CHL1  H15A 5639   0.735   6.610   4.050 -1.1661  0.0595 -1.8392
   61CHL1  H15B 5640   0.823   6.763   4.026 -0.9591  0.8940  0.3751
   61CHL1   C16 5641   0.646   6.776   4.154 -0.0636 -0.4270  0.1060
   61CHL1  H16A 5642   0.635   6.698   4.232  1.5531 -0.5720  0.2392
   61CHL1  H16B 5643   0.706   6.863   4.189 -1.4182 -0.0524  1.6245
   61CHL1   C17 5644   0.504   6.819   4.112  0.9648  0.1122  0.6895
   61CHL1   H17 5645   0.524   6.926   4.087 -0.4599  0.8116  2.3058
   61CHL1   C13 5646   0.483   6.742   3.981 -0.1825  0.3921 -0.3422
   61CHL1   C18 5647   0.439   6.591   4.003 -0.1092 -0.0603  0.3509
   61CHL1  H18A 5648   0.512   6.540   4.070  0.3877  2.4407  1.8420
   61CHL1  H18B 5649   0.347   6.588   4.065 -0.2013 -0.5844  0.1932
   61CHL1  H18C 5650   0.438   6.540   3.904  2.1372 -1.1008  0.7894
   61CHL1   C12 5651   0.387   6.810   3.888  0.3889  0.2850  0.0569
   61CHL1  H12A 5652   0.282   6.810   3.924  0.0359 -0.9791 -0.9286
   61CHL1  H12B 5653   0.419   6.917   3.881  2.7886 -0.2513  1.5278
   61CHL1   C11 5654   0.390   6.750   3.744 -0.0627 -0.3450 -0.0609
   61CHL1  H11A 5655   0.352   6.646   3.758 -0.2550 -0.2863 -0.1446
   61CHL1  H11B 5656   0.330   6.811   3.674 -0.0975 -0.3077  0.0013
   61CHL1    C9 5657   0.536   6.737   3.684 -0.6187  0.0615  0.0625
   61CHL1    H9 5658   0.569   6.841   3.666 -0.1533  0.0051  0.5441
   61CHL1   C10 5659   0.555   6.670   3.549 -0.2906 -0.3654  0.8756
   61CHL1   C19 5660   0.496   6.528   3.541  0.1402 -0.1295 -0.3594
   61CHL1  H19A 5661   0.555   6.460   3.606  1.8731  2.1383  0.5983
   61CHL1  H19B 5662   0.387   6.524   3.561  0.2152 -3.6278 -0.0360
   61CHL1  H19C 5663   0.496   6.493   3.436 -0.9279  0.0649 -0.4345
   61CHL1    C1 5664   0.485   6.754   3.441  0.7498 -0.2519 -0.1062
   61CHL1   H1A 5665   0.380   6.719   3.452  1.0627 -1.1097  0.2502
   61CHL1   H1B 5666   0.487   6.864   3.456  2.8649  0.0348 -2.0064
   61CHL1    C2 5667   0.508   6.721   3.286  0.2052 -0.0629 -0.6993
   61CHL1   H2A 5668   0.434   6.783   3.233 -0.2703  0.1779  0.2283
   61CHL1   H2B 5669   0.463   6.620   3.279 -1.8706  0.7610  0.1360
   61CHL1   C20 5670   0.404   6.819   4.219 -0.0379 -0.0846 -0.0438
   61CHL1   H20 5671   0.352   6.721   4.227 -1.3316  0.5921  0.1552
   61CHL1   C21 5672   0.298   6.931   4.189 -0.0106 -0.4010 -0.1615
   61CHL1  H21A 5673   0.240   6.922   4.095 -3.2580  0.1658  1.6502
   61CHL1  H21B 5674   0.361   7.023   4.183  0.2568 -0.5123  0.8548
   61CHL1  H21C 5675   0.219   6.922   4.266  0.0827  1.6044  0.2436
   61CHL1   C22 5676   0.460   6.839   4.362  0.1737 -0.3354 -0.3854
   61CHL1  H22A 5677   0.556   6.787   4.382  1.8994  3.0199  1.0704
   61CHL1  H22B 5678   0.491   6.946   4.359 -0.3204 -0.2083 -1.0055
   61CHL1   C23 5679   0.364   6.817   4.480  0.7817 -0.4972  0.1762
   61CHL1  H23A 5680   0.278   6.883   4.455 -0.3939 -1.3591  1.7462
   61CHL1  H23B 5681   0.324   6.713   4.484 -0.6497 -0.0145 -0.6205
   61CHL1   C24 5682   0.433   6.853   4.612 -0.1612 -0.4487 -0.0120
   61CHL1  H24A 5683   0.535   6.811   4.604  0.1578  0.4745 -0.9258
   61CHL1  H24B 5684   0.449   6.962   4.603  1.3857 -0.7632 -1.2930
   61CHL1   C25 5685   0.372   6.800   4.736 -0.0885  0.3891 -0.3197
   61CHL1   H25 5686   0.367   6.692   4.711  3.1280 -0.3042  1.6049
   61CHL1   C26 5687   0.465   6.807   4.858  0.6816  0.2371  0.0042
   61CHL1  H26A 5688   0.552   6.743   4.834  0.1103  0.3599 -2.6582
   61CHL1  H26B 5689   0.503   6.907   4.890  0.9272  0.2707 -0.3869
   61CHL1  H26C 5690   0.412   6.763   4.945  0.4737  0.9073  0.2255
   61CHL1   C27 5691   0.233   6.860   4.770 -0.5583  0.2303  0.1788
   61CHL1  H27A 5692   0.244   6.966   4.803  1.1243 -0.5553  2.3808
   61CHL1  H27B 5693   0.156   6.843   4.691  0.1451  2.0412 -0.9633
   61CHL1  H27C 5694   0.207   6.810   4.865 -0.5171 -3.5813 -1.6531
   62CHL1    C3 5695   1.301   2.854   3.236 -0.4777 -0.0675 -0.5321
   62CHL1    H3 5696   1.192   2.876   3.241 -0.5332 -0.3086 -0.6569
   62CHL1    O3 5697   1.327   2.858   3.093 -0.2816 -0.2571 -0.7135
   62CHL1   H3' 5698   1.286   2.943   3.076 -2.2167 -0.9956 -0.0537
   62CHL1    C4 5699   1.380   2.968   3.315  0.2202  0.0653  0.2609
   62CHL1   H4A 5700   1.490   2.948   3.311  0.4033  1.1173 -0.1582
   62CHL1   H4B 5701   1.361   3.058   3.253  0.3080  0.0798  0.2547
   62CHL1    C5 5702   1.330   2.982   3.458 -0.5719 -0.0841  0.2052
   62CHL1    C6 5703   1.279   3.092   3.503 -0.2050 -1.5518  0.2609
   62CHL1    H6 5704   1.265   3.175   3.432 -0.9176 -1.6652  0.2582
   62CHL1    C7 5705   1.222   3.107   3.638 -0.1837  0.3407  0.2916
   62CHL1   H7A 5706   1.252   3.202   3.687  1.7926 -0.2293  0.2730
   62CHL1   H7B 5707   1.112   3.095   3.647 -0.2453  1.0658  0.5071
   62CHL1    C8 5708   1.289   3.000   3.732  0.4241 -0.1085  0.2348
   62CHL1    H8 5709   1.398   3.013   3.749  0.2482  0.8286  0.7122
   62CHL1   C14 5710   1.216   3.011   3.863 -0.1447 -0.4052 -0.4175
   62CHL1   H14 5711   1.115   2.986   3.824 -0.4300  2.9973 -2.2480
   62CHL1   C15 5712   1.208   3.147   3.934  0.0395  0.4862 -0.4386
   62CHL1  H15A 5713   1.309   3.191   3.929 -1.3307  3.8517 -1.7014
   62CHL1  H15B 5714   1.142   3.227   3.892 -1.0769  0.6546  1.5031
   62CHL1   C16 5715   1.191   3.120   4.080 -0.4050  0.0538 -0.1255
   62CHL1  H16A 5716   1.272   3.168   4.138  0.1218 -1.1329  0.1648
   62CHL1  H16B 5717   1.099   3.166   4.121  1.1044  1.4158  1.9272
   62CHL1   C17 5718   1.186   2.965   4.092  0.5119 -0.3052  0.2567
   62CHL1   H17 5719   1.078   2.944   4.076 -0.2593  1.1339  3.0155
   62CHL1   C13 5720   1.268   2.913   3.968  0.4691 -0.8317 -0.8128
   62CHL1   C18 5721   1.419   2.935   4.011  0.0030  0.4095  0.2201
   62CHL1  H18A 5722   1.447   2.860   4.088 -1.1793  0.0430  0.3143
   62CHL1  H18B 5723   1.479   2.904   3.923 -2.4326 -0.4132 -1.2291
   62CHL1  H18C 5724   1.445   3.038   4.042  0.7411  1.1424 -2.5921
   62CHL1   C12 5725   1.229   2.775   3.914 -0.2135  0.6470 -0.4463
   62CHL1  H12A 5726   1.255   2.689   3.979  0.3983 -0.7519 -2.4456
   62CHL1  H12B 5727   1.119   2.775   3.897 -0.2212  2.1238 -0.5453
   62CHL1   C11 5728   1.302   2.753   3.785  0.7864  0.8215 -0.3983
   62CHL1  H11A 5729   1.412   2.746   3.797  0.5361  0.7614  3.0691
   62CHL1  H11B 5730   1.273   2.657   3.737  3.0272 -0.6427  0.9849
   62CHL1    C9 5731   1.262   2.861   3.677  0.0629 -0.1084  0.6893
   62CHL1    H9 5732   1.154   2.847   3.655  0.3077  1.8501 -2.3499
   62CHL1   C10 5733   1.346   2.845   3.533  0.6740 -0.0873 -0.8671
   62CHL1   C19 5734   1.497   2.804   3.561 -0.3768  0.5319 -0.2254
   62CHL1  H19A 5735   1.507   2.704   3.608 -2.6273  0.1296 -0.5041
   62CHL1  H19B 5736   1.549   2.813   3.463 -2.1953 -2.6852 -1.6327
   62CHL1  H19C 5737   1.539   2.882   3.628  1.8854 -0.5185 -0.3265
   62CHL1    C1 5738   1.281   2.725   3.451 -0.5465  0.2153 -0.4076
   62CHL1   H1A 5739   1.313   2.631   3.500  0.3137  0.3993 -0.6004
   62CHL1   H1B 5740   1.170   2.739   3.448 -0.6040  0.4006  1.4653
   62CHL1    C2 5741   1.326   2.717   3.300  0.0342  0.2924  0.3302
   62CHL1   H2A 5742   1.266   2.641   3.246 -0.6045  1.1022 -0.1102
   62CHL1   H2B 5743   1.435   2.696   3.295  0.5886  2.5312  1.6649
   62CHL1   C20 5744   1.215   2.906   4.232 -0.0052 -0.4358  0.1154
   62CHL1   H20 5745   1.323   2.905   4.258 -0.0859  0.8529  0.5408
   62CHL1   C21 5746   1.170   2.753   4.228  0.8091  0.1584  0.4904
   62CHL1  H21A 5747   1.136   2.725   4.330 -0.3449  2.7310  0.8896
   62CHL1  H21B 5748   1.254   2.689   4.193 -0.1846 -0.8269 -0.1509
   62CHL1  H21C 5749   1.087   2.745   4.155  1.8582  2.3552 -1.0547
   62CHL1   C22 5750   1.143   2.981   4.347 -0.4824  0.6724  0.2906
   62CHL1  H22A 5751   1.178   3.086   4.354  2.5467 -0.3089  0.9859
   62CHL1  H22B 5752   1.033   2.979   4.327 -0.4655 -0.4222  0.2445
   62CHL1   C23 5753   1.151   2.925   4.493 -0.0679 -0.3537  0.1033
   62CHL1  H23A 5754   1.113   2.821   4.494 -0.1299 -0.3340 -0.0704
   62CHL1  H23B 5755   1.257   2.924   4.525 -0.2935 -0.9468  0.8534
   62CHL1   C24 5756   1.064   3.010   4.586 -0.4159  0.0237  0.1393
   62CHL1  H24A 5757   1.091   3.113   4.556  1.3372 -1.0438 -2.3488
   62CHL1  H24B 5758   0.958   2.982   4.570  0.1575 -1.1196 -2.1760
   62CHL1   C25 5759   1.084   2.989   4.738 -0.0284  0.4728 -0.0134
   62CHL1   H25 5760   1.073   2.880   4.753  0.4953  0.5326  0.9030
   62CHL1   C26 5761   1.228   3.020   4.771 -0.5308 -0.0940 -0.5013
   62CHL1  H26A 5762   1.307   2.958   4.723 -1.5414 -0.4610 -1.7566
   62CHL1  H26B 5763   1.266   3.124   4.760  0.7385 -0.4553  0.1718
   62CHL1  H26C 5764   1.230   2.998   4.880 -1.7800 -0.3196 -0.5100
   62CHL1   C27 5765   0.982   3.068   4.813  0.0822  0.4871  0.1721
   62CHL1  H27A 5766   0.880   3.037   4.781  0.0981  0.4436  0.1641
   62CHL1  H27B 5767   0.998   3.045   4.920  0.7092 -0.3186 -0.0831
   62CHL1  H27C 5768   1.001   3.176   4.796  2.7186 -0.0895 -0.9522
   63CHL1    C3 5769   6.876   4.679   3.291  0.0800  0.0627 -0.2278
   63CHL1    H3 5770   6.987   4.683   3.292  0.0626  0.9786 -0.6150
   63CHL1    O3 5771   6.855   4.694   3.151 -0.1701  0.0925 -0.0415
   63CHL1   H3' 5772   6.805   4.618   3.121 -1.4937  1.1657 -0.6418
   63CHL1    C4 5773   6.823   4.545   3.335 -0.7378  0.4584  0.2025
   63CHL1   H4A 5774   6.718   4.528   3.303 -0.4045 -0.2519 -0.5559
   63CHL1   H4B 5775   6.888   4.471   3.284 -1.1683 -1.3028  2.0615
   63CHL1    C5 5776   6.849   4.526   3.484  0.4391 -0.5483  0.1128
   63CHL1    C6 5777   6.928   4.427   3.530  0.1215  0.3602 -0.4796
   63CHL1    H6 5778   6.964   4.350   3.461 -3.7336 -2.2963  0.1574
   63CHL1    C7 5779   6.960   4.406   3.681 -0.2961 -0.6148  1.3011
   63CHL1   H7A 5780   6.971   4.299   3.709  0.8452 -0.4402  1.5926
   63CHL1   H7B 5781   7.063   4.448   3.687 -0.3659 -0.2734  0.2777
   63CHL1    C8 5782   6.871   4.485   3.769 -0.5107 -0.1575  0.0989
   63CHL1    H8 5783   6.773   4.435   3.781  0.3118 -2.0363 -0.6526
   63CHL1   C14 5784   6.928   4.501   3.909 -0.5797  0.3045  0.0076
   63CHL1   H14 5785   7.026   4.553   3.901  0.8385 -2.1687  0.3834
   63CHL1   C15 5786   6.973   4.368   3.979 -0.1888 -0.0121 -0.2927
   63CHL1  H15A 5787   6.900   4.287   3.963 -1.3353  1.1680 -1.2592
   63CHL1  H15B 5788   7.068   4.347   3.924  0.1593  2.3444 -0.7305
   63CHL1   C16 5789   7.003   4.419   4.117  0.5448  0.4083 -0.6981
   63CHL1  H16A 5790   6.947   4.348   4.181 -0.6095 -0.1879 -2.3001
   63CHL1  H16B 5791   7.111   4.416   4.144 -0.0632 -3.1853  2.0730
   63CHL1   C17 5792   6.942   4.562   4.137 -0.0355  0.2891 -0.1985
   63CHL1   H17 5793   7.028   4.632   4.131 -1.2160  1.7681 -0.4231
   63CHL1   C13 5794   6.844   4.575   4.014  0.5037  0.0586  0.1115
   63CHL1   C18 5795   6.713   4.500   4.050  0.1742 -0.3775  0.3531
   63CHL1  H18A 5796   6.655   4.477   3.958 -1.1744 -2.6382  1.6617
   63CHL1  H18B 5797   6.735   4.408   4.107  0.9344  0.2286  1.0606
   63CHL1  H18C 5798   6.656   4.566   4.119 -0.5498 -2.3272  1.6882
   63CHL1   C12 5799   6.801   4.718   3.962 -0.6985  0.3985 -0.3898
   63CHL1  H12A 5800   6.727   4.767   4.028 -1.4732  0.0735 -1.0033
   63CHL1  H12B 5801   6.893   4.780   3.950 -0.0314 -0.4547  0.1803
   63CHL1   C11 5802   6.741   4.701   3.819 -0.2120  0.1448  0.3375
   63CHL1  H11A 5803   6.639   4.657   3.825 -0.1680  0.0885  0.6483
   63CHL1  H11B 5804   6.721   4.802   3.777 -2.8798 -0.0328  1.0154
   63CHL1    C9 5805   6.833   4.629   3.718 -0.0244 -0.0054  0.3440
   63CHL1    H9 5806   6.928   4.686   3.715  1.7807 -2.7795  1.2256
   63CHL1   C10 5807   6.772   4.635   3.570  0.1757 -0.1017 -0.2312
   63CHL1   C19 5808   6.614   4.606   3.569  0.3014  0.4680 -0.3929
   63CHL1  H19A 5809   6.577   4.600   3.465  2.2560  2.7955 -1.3406
   63CHL1  H19B 5810   6.603   4.509   3.622  2.7947 -0.2663 -1.0732
   63CHL1  H19C 5811   6.554   4.680   3.627 -1.8416 -2.3305  1.2173
   63CHL1    C1 5812   6.801   4.776   3.514  0.4010 -0.0935 -0.4195
   63CHL1   H1A 5813   6.727   4.844   3.560  0.5521  0.8508 -1.5323
   63CHL1   H1B 5814   6.901   4.797   3.558  0.0259  0.8767 -0.0052
   63CHL1    C2 5815   6.799   4.791   3.363 -0.0378  0.1112 -0.2478
   63CHL1   H2A 5816   6.835   4.887   3.321  1.4318 -0.6023 -0.6937
   63CHL1   H2B 5817   6.690   4.788   3.339 -0.8477  0.3619  2.8734
   63CHL1   C20 5818   6.875   4.581   4.276 -0.4386 -0.1026 -0.0537
   63CHL1   H20 5819   6.793   4.507   4.290  0.9839 -1.6595  0.2710
   63CHL1   C21 5820   6.816   4.726   4.296 -0.1360 -0.4622 -0.0544
   63CHL1  H21A 5821   6.777   4.741   4.399 -0.2708  0.1225 -0.1834
   63CHL1  H21B 5822   6.732   4.744   4.225  0.1654  0.5610 -0.1738
   63CHL1  H21C 5823   6.889   4.809   4.290 -1.4104  1.1371  3.6741
   63CHL1   C22 5824   6.982   4.545   4.385  0.2135 -0.6335  0.4802
   63CHL1  H22A 5825   7.021   4.442   4.368  0.5314 -0.3219 -0.7570
   63CHL1  H22B 5826   7.076   4.603   4.380 -0.8775  1.3474  1.7772
   63CHL1   C23 5827   6.933   4.564   4.528 -0.1642  0.5348  0.2460
   63CHL1  H23A 5828   6.926   4.671   4.555  0.1537  0.7480 -0.5005
   63CHL1  H23B 5829   6.840   4.503   4.526  2.4226 -3.8685 -2.5850
   63CHL1   C24 5830   7.022   4.502   4.640 -0.2025  0.4686  0.0104
   63CHL1  H24A 5831   7.020   4.391   4.633  0.8784  0.3849  0.8029
   63CHL1  H24B 5832   7.125   4.536   4.620 -0.6606  1.8508 -0.0697
   63CHL1   C25 5833   6.991   4.545   4.788  0.2962 -0.2857  0.4373
   63CHL1   H25 5834   6.997   4.655   4.800 -0.2042 -0.3440  1.3007
   63CHL1   C26 5835   6.849   4.495   4.832  0.0774 -0.6284 -0.7496
   63CHL1  H26A 5836   6.768   4.534   4.767  1.6612  2.2139 -1.1868
   63CHL1  H26B 5837   6.846   4.384   4.830  0.2608 -0.6431 -0.3314
   63CHL1  H26C 5838   6.830   4.514   4.940  0.1457  1.0697 -1.0128
   63CHL1   C27 5839   7.100   4.485   4.881  0.3977 -0.1027 -0.7999
   63CHL1  H27A 5840   7.193   4.542   4.861  0.9063 -0.9044 -0.7629
   63CHL1  H27B 5841   7.079   4.485   4.990  0.8956 -0.1280 -0.7008
   63CHL1  H27C 5842   7.113   4.377   4.859  0.5550 -0.3569  0.4694
   64CHL1    C3 5843   4.890   3.370   3.134 -0.0659  0.2335  0.0401
   64CHL1    H3 5844   4.980   3.305   3.130 -1.5337 -1.8874 -0.2593
   64CHL1    O3 5845   4.877   3.428   2.998 -0.4278  0.6666 -0.6343
   64CHL1   H3' 5846   4.785   3.454   2.986 -1.0353 -0.9264  0.2557
   64CHL1    C4 5847   4.768   3.289   3.174 -0.2807 -0.8362 -0.1676
   64CHL1   H4A 5848   4.675   3.342   3.145 -1.9768 -1.3744  3.6278
   64CHL1   H4B 5849   4.761   3.197   3.112 -1.3233 -0.6996 -0.2752
   64CHL1    C5 5850   4.752   3.261   3.324 -0.1655  0.1687  0.5737
   64CHL1    C6 5851   4.727   3.134   3.362  0.4188 -0.3686 -0.0885
   64CHL1    H6 5852   4.685   3.064   3.288 -5.1664  2.4783 -0.1565
   64CHL1    C7 5853   4.703   3.101   3.506 -0.9089 -0.6252  1.2618
   64CHL1   H7A 5854   4.607   3.045   3.517 -0.7718 -1.6100 -1.5209
   64CHL1   H7B 5855   4.790   3.042   3.540  1.1769  0.9932 -0.9322
   64CHL1    C8 5856   4.690   3.220   3.603  0.2009 -0.2838 -0.2617
   64CHL1    H8 5857   4.587   3.257   3.584  0.1951  0.0890  0.4509
   64CHL1   C14 5858   4.704   3.177   3.747 -0.6697  0.5566 -0.3166
   64CHL1   H14 5859   4.807   3.137   3.753  0.4544  2.8936 -2.2516
   64CHL1   C15 5860   4.613   3.059   3.789  0.1949  0.1706  0.0292
   64CHL1  H15A 5861   4.509   3.079   3.756 -0.2273  0.7758  1.6171
   64CHL1  H15B 5862   4.651   2.959   3.760  1.2304  0.3005  0.8951
   64CHL1   C16 5863   4.612   3.066   3.939 -0.6706  0.2907  0.0310
   64CHL1  H16A 5864   4.508   3.082   3.976 -0.0741  0.2450  1.8359
   64CHL1  H16B 5865   4.642   2.979   4.001  0.0745  2.1240  2.3893
   64CHL1   C17 5866   4.712   3.185   3.979  0.2243  0.2586  0.2969
   64CHL1   H17 5867   4.805   3.127   3.995  0.6021  0.5467 -0.7301
   64CHL1   C13 5868   4.704   3.281   3.857  0.0398 -0.7568 -1.0230
   64CHL1   C18 5869   4.565   3.354   3.855  0.8719 -0.1656  0.2718
   64CHL1  H18A 5870   4.546   3.415   3.764 -0.8584  3.6973  2.9140
   64CHL1  H18B 5871   4.484   3.284   3.885  1.7178 -0.9841  0.7079
   64CHL1  H18C 5872   4.568   3.425   3.941 -0.6424 -0.1623  0.3541
   64CHL1   C12 5873   4.827   3.368   3.828  0.2088 -0.0254  0.1067
   64CHL1  H12A 5874   4.844   3.448   3.903  0.4659  0.9498 -0.9609
   64CHL1  H12B 5875   4.920   3.306   3.836 -0.0677 -0.2711  1.8048
   64CHL1   C11 5876   4.814   3.432   3.692 -0.4523 -0.0760  0.5222
   64CHL1  H11A 5877   4.737   3.511   3.701  0.4302  0.8992 -0.2069
   64CHL1  H11B 5878   4.908   3.485   3.666  0.0953 -1.3306 -0.1254
   64CHL1    C9 5879   4.797   3.327   3.575  0.1137 -0.5728  0.0169
   64CHL1    H9 5880   4.892   3.269   3.575  0.5618  0.1328 -0.6259
   64CHL1   C10 5881   4.774   3.376   3.422 -0.1750 -0.2279  0.2962
   64CHL1   C19 5882   4.660   3.481   3.428 -0.1410 -0.5533 -0.1420
   64CHL1  H19A 5883   4.638   3.510   3.322  2.1910 -0.0997 -0.5537
   64CHL1  H19B 5884   4.563   3.439   3.464 -0.0542 -0.2277  0.4748
   64CHL1  H19C 5885   4.686   3.580   3.469  0.5231 -0.3452 -1.0436
   64CHL1    C1 5886   4.897   3.460   3.370  0.0864  0.2877  0.3563
   64CHL1   H1A 5887   4.909   3.549   3.435 -1.0884 -0.3654  1.5365
   64CHL1   H1B 5888   4.986   3.395   3.385  1.0044  1.4043 -0.1472
   64CHL1    C2 5889   4.910   3.494   3.224 -0.1343  0.0422  0.6110
   64CHL1   H2A 5890   5.010   3.541   3.212 -2.0364  4.6207  0.7683
   64CHL1   H2B 5891   4.829   3.569   3.209  0.7116  0.6437 -1.3046
   64CHL1   C20 5892   4.675   3.239   4.120  0.2810 -0.3792 -0.5395
   64CHL1   H20 5893   4.571   3.278   4.118  0.1849 -0.6711 -1.2764
   64CHL1   C21 5894   4.756   3.366   4.163  0.0062 -0.7639 -0.1299
   64CHL1  H21A 5895   4.732   3.401   4.266 -0.0933 -0.4317 -0.2634
   64CHL1  H21B 5896   4.729   3.444   4.088  0.9063 -2.1252 -1.9425
   64CHL1  H21C 5897   4.862   3.337   4.148 -0.3908 -2.0793 -0.5271
   64CHL1   C22 5898   4.697   3.135   4.228  0.1472  0.1164  0.3028
   64CHL1  H22A 5899   4.669   3.031   4.201 -0.3973  0.6306 -1.1930
   64CHL1  H22B 5900   4.803   3.149   4.256  0.4552  2.2741 -1.6743
   64CHL1   C23 5901   4.623   3.156   4.366  0.1944  0.1982 -0.4419
   64CHL1  H23A 5902   4.659   3.256   4.399  1.7037  0.2750 -2.1789
   64CHL1  H23B 5903   4.514   3.153   4.348 -0.0778 -4.1331  0.6682
   64CHL1   C24 5904   4.664   3.061   4.477  0.5737 -0.3995 -0.4653
   64CHL1  H24A 5905   4.605   2.970   4.456 -1.8584  0.8995  0.3421
   64CHL1  H24B 5906   4.774   3.043   4.480  0.9118  1.4984  0.8216
   64CHL1   C25 5907   4.625   3.113   4.618  0.4144  0.1514  1.4426
   64CHL1   H25 5908   4.517   3.141   4.619  0.0372 -1.1995  1.1708
   64CHL1   C26 5909   4.644   3.002   4.715  0.0552 -0.5143 -0.3422
   64CHL1  H26A 5910   4.591   3.032   4.808 -0.5122 -0.0775 -0.7977
   64CHL1  H26B 5911   4.616   2.905   4.668  0.0077  0.3419 -2.1537
   64CHL1  H26C 5912   4.749   2.993   4.752  0.1893  0.0653 -0.5769
   64CHL1   C27 5913   4.705   3.231   4.662 -0.2437 -0.6524 -0.0692
   64CHL1  H27A 5914   4.702   3.250   4.771  2.6270 -0.9194  0.1164
   64CHL1  H27B 5915   4.811   3.218   4.633 -0.9797 -0.9524 -3.0197
   64CHL1  H27C 5916   4.674   3.325   4.611  0.3792  1.8603  3.7918
   65CHL1    C3 5917   2.555   2.109   2.928  0.2120 -0.1650  0.0765
   65CHL1    H3 5918   2.621   2.198   2.938 -0.3381  0.3792 -0.8941
   65CHL1    O3 5919   2.535   2.088   2.788  0.0458  1.2151 -0.2452
   65CHL1   H3' 5920   2.461   2.028   2.776 -0.9541  2.8193 -3.2641
   65CHL1    C4 5921   2.608   1.977   2.995  0.0780  0.1180  0.6054
   65CHL1   H4A 5922   2.541   1.890   2.976 -1.7182  1.5160  0.1506
   65CHL1   H4B 5923   2.704   1.955   2.945 -1.1545 -0.3555 -1.6869
   65CHL1    C5 5924   2.602   1.989   3.146 -0.3678  0.1496 -0.4540
   65CHL1    C6 5925   2.718   1.962   3.213  0.0861  0.3863  0.3698
   65CHL1    H6 5926   2.803   1.926   3.154  0.6334  0.9666  0.7891
   65CHL1    C7 5927   2.737   1.967   3.362  0.0401  0.2622  0.6361
   65CHL1   H7A 5928   2.788   1.873   3.393 -2.1370 -1.4274 -0.6709
   65CHL1   H7B 5929   2.805   2.050   3.391  2.8454 -0.9852 -1.8701
   65CHL1    C8 5930   2.600   1.983   3.437  0.1950  0.4360  1.0041
   65CHL1    H8 5931   2.550   1.883   3.439 -1.7104  1.2567 -0.9482
   65CHL1   C14 5932   2.621   2.013   3.583 -0.3311  0.2273  0.8040
   65CHL1   H14 5933   2.682   2.105   3.577  4.9373 -2.8925  0.7593
   65CHL1   C15 5934   2.709   1.916   3.669  1.6186  0.2561 -0.1657
   65CHL1  H15A 5935   2.692   1.811   3.635 -1.5271  0.8612 -0.7548
   65CHL1  H15B 5936   2.814   1.937   3.641  2.0403 -2.4029 -0.8496
   65CHL1   C16 5937   2.670   1.945   3.820  0.1073 -0.0153 -0.3807
   65CHL1  H16A 5938   2.636   1.849   3.865  1.4248 -0.7252 -0.8557
   65CHL1  H16B 5939   2.751   1.989   3.881  0.3336  0.8987 -1.3126
   65CHL1   C17 5940   2.561   2.056   3.802 -0.3750 -0.1535  0.4531
   65CHL1   H17 5941   2.621   2.150   3.792 -0.2288 -0.3859 -1.0753
   65CHL1   C13 5942   2.496   2.035   3.662  0.4644  0.6628  0.0104
   65CHL1   C18 5943   2.406   1.902   3.664  0.2547  1.1793 -0.0875
   65CHL1  H18A 5944   2.308   1.926   3.711  0.5239  1.0942  0.5232
   65CHL1  H18B 5945   2.376   1.869   3.563  0.5247  1.0101 -0.1150
   65CHL1  H18C 5946   2.457   1.823   3.724 -0.7271  2.8116  3.1199
   65CHL1   C12 5947   2.419   2.146   3.599  0.3681  0.2088  0.1794
   65CHL1  H12A 5948   2.319   2.156   3.646  0.2752 -1.2550  0.3527
   65CHL1  H12B 5949   2.474   2.242   3.608  0.7537  0.0032  0.0020
   65CHL1   C11 5950   2.385   2.124   3.447  0.7191  0.2925 -0.0216
   65CHL1  H11A 5951   2.319   2.035   3.437 -0.5387  1.3782 -2.3646
   65CHL1  H11B 5952   2.320   2.205   3.407 -0.3751 -1.2411 -1.5019
   65CHL1    C9 5953   2.510   2.090   3.367 -0.3379  0.4249  0.4020
   65CHL1    H9 5954   2.564   2.187   3.353  1.5510 -0.6523 -0.1002
   65CHL1   C10 5955   2.482   2.039   3.214  0.1656 -0.7903 -0.7451
   65CHL1   C19 5956   2.372   1.936   3.216 -0.4711 -0.2887 -0.3939
   65CHL1  H19A 5957   2.362   1.873   3.125  1.7939 -1.8106  0.3028
   65CHL1  H19B 5958   2.380   1.864   3.300  0.3206 -1.3721 -1.3648
   65CHL1  H19C 5959   2.275   1.989   3.227 -1.9077 -2.8121  0.0196
   65CHL1    C1 5960   2.431   2.168   3.134 -0.3725 -0.0784 -0.4793
   65CHL1   H1A 5961   2.328   2.199   3.161 -0.0669  3.5353 -2.6942
   65CHL1   H1B 5962   2.492   2.258   3.159  0.6221 -0.9247  0.1981
   65CHL1    C2 5963   2.421   2.144   2.988 -0.2554 -0.0970  0.1888
   65CHL1   H2A 5964   2.383   2.237   2.941  0.0204  0.5176  1.1425
   65CHL1   H2B 5965   2.353   2.058   2.972  1.7873 -1.7563 -0.1309
   65CHL1   C20 5966   2.464   2.074   3.922 -0.5666  0.0873 -0.1706
   65CHL1   H20 5967   2.385   1.995   3.923 -1.0880  0.5328 -2.3218
   65CHL1   C21 5968   2.395   2.216   3.914  0.0190 -0.9527 -0.7901
   65CHL1  H21A 5969   2.338   2.246   3.823  0.7996  2.7151 -0.2447
   65CHL1  H21B 5970   2.472   2.296   3.925 -1.3947  0.5694 -1.4709
   65CHL1  H21C 5971   2.324   2.221   3.999 -0.5041 -1.9301 -1.1617
   65CHL1   C22 5972   2.554   2.073   4.053 -0.4773 -0.4779 -0.4397
   65CHL1  H22A 5973   2.589   1.970   4.077  0.0753  0.5930  4.5826
   65CHL1  H22B 5974   2.648   2.131   4.040  0.5633 -1.8393  0.6283
   65CHL1   C23 5975   2.491   2.109   4.192 -0.0558 -0.1158  0.0208
   65CHL1  H23A 5976   2.444   2.209   4.179  0.2616 -0.0321 -0.4843
   65CHL1  H23B 5977   2.414   2.032   4.215  0.4943 -0.8656 -0.6089
   65CHL1   C24 5978   2.596   2.093   4.295 -0.1110 -0.3290  0.6983
   65CHL1  H24A 5979   2.643   1.995   4.313  1.0711  0.4731  2.1592
   65CHL1  H24B 5980   2.678   2.164   4.270  0.1999  0.1357  2.8543
   65CHL1   C25 5981   2.542   2.141   4.434  0.1598 -0.5504 -0.6673
   65CHL1   H25 5982   2.502   2.244   4.423 -0.5755 -0.6298  1.0476
   65CHL1   C26 5983   2.420   2.060   4.486  0.0895  0.6585 -0.6062
   65CHL1  H26A 5984   2.335   2.056   4.414 -1.1088  1.1251  0.7388
   65CHL1  H26B 5985   2.458   1.957   4.504 -1.3616  0.6150  3.1716
   65CHL1  H26C 5986   2.391   2.104   4.584  1.2464  0.3717 -0.1282
   65CHL1   C27 5987   2.658   2.146   4.533  0.1916 -0.0130 -0.1077
   65CHL1  H27A 5988   2.726   2.228   4.501 -0.5820  0.1009 -1.5371
   65CHL1  H27B 5989   2.619   2.187   4.629  0.7654  0.6682 -0.1574
   65CHL1  H27C 5990   2.713   2.051   4.544  2.1324  0.9687 -0.8726
   66CHL1    C3 5991   0.541   2.093   3.353  0.1989 -0.6638  0.1984
   66CHL1    H3 5992   0.432   2.115   3.357  0.3328 -0.0194  0.4892
   66CHL1    O3 5993   0.579   2.060   3.223  0.0353 -0.3703  0.1766
   66CHL1   H3' 5994   0.672   2.036   3.228  1.0868  2.9105 -1.1263
   66CHL1    C4 5995   0.625   2.215   3.396  0.9142  0.6462  0.2378
   66CHL1   H4A 5996   0.734   2.197   3.393  0.4856 -2.0441 -1.7744
   66CHL1   H4B 5997   0.608   2.297   3.323  1.8231 -0.5646 -1.3857
   66CHL1    C5 5998   0.576   2.264   3.527  0.0935  0.1954 -1.0045
   66CHL1    C6 5999   0.515   2.381   3.551 -0.2343 -0.4505 -1.0758
   66CHL1    H6 6000   0.508   2.458   3.472  0.4871  2.3689  1.4174
   66CHL1    C7 6001   0.460   2.435   3.681 -0.3309 -0.2248 -0.5918
   66CHL1   H7A 6002   0.494   2.540   3.699  1.1145 -0.4716 -1.6718
   66CHL1   H7B 6003   0.349   2.429   3.681 -0.2615 -1.7730 -0.9794
   66CHL1    C8 6004   0.516   2.342   3.801  0.0725 -0.1680  0.7890
   66CHL1    H8 6005   0.622   2.361   3.826 -0.0676 -0.9648  2.1053
   66CHL1   C14 6006   0.431   2.377   3.927 -0.0592  0.4175 -0.1193
   66CHL1   H14 6007   0.328   2.345   3.903 -0.0979 -0.8580  1.5183
   66CHL1   C15 6008   0.428   2.523   3.972  0.3510  0.3539  0.3074
   66CHL1  H15A 6009   0.532   2.561   3.980  0.1693  0.5033  3.6100
   66CHL1  H15B 6010   0.360   2.579   3.903 -0.6227 -1.6744 -0.4615
   66CHL1   C16 6011   0.374   2.521   4.117 -0.2333  0.3310  0.1876
   66CHL1  H16A 6012   0.438   2.571   4.194  0.8523 -0.2145 -0.3392
   66CHL1  H16B 6013   0.270   2.559   4.108 -0.0628  0.4132 -1.8551
   66CHL1   C17 6014   0.374   2.362   4.160  0.5663  0.3897 -0.4574
   66CHL1   H17 6015   0.272   2.322   4.138  1.0574 -0.4230 -1.3080
   66CHL1   C13 6016   0.467   2.292   4.056 -0.1165  0.4317  0.0890
   66CHL1   C18 6017   0.613   2.308   4.090  0.1212  0.0670 -0.9914
   66CHL1  H18A 6018   0.653   2.253   4.178 -1.7667 -0.1492 -0.2277
   66CHL1  H18B 6019   0.684   2.269   4.013  1.6091 -0.1946  0.4650
   66CHL1  H18C 6020   0.642   2.414   4.104  1.1818 -0.3359  0.0164
   66CHL1   C12 6021   0.437   2.150   4.020 -0.7582  0.5344  0.1285
   66CHL1  H12A 6022   0.457   2.069   4.093 -4.5305 -2.0938 -1.4429
   66CHL1  H12B 6023   0.328   2.137   4.003 -0.6805 -0.3113  0.2601
   66CHL1   C11 6024   0.494   2.099   3.884  0.6533 -0.1798 -0.1684
   66CHL1  H11A 6025   0.592   2.048   3.901  0.8226  0.3932  0.6599
   66CHL1  H11B 6026   0.432   2.013   3.852  1.6621 -0.7279 -0.6943
   66CHL1    C9 6027   0.490   2.197   3.763  0.1795  0.5416 -0.5607
   66CHL1    H9 6028   0.383   2.190   3.732 -0.4733 -0.8380  1.8354
   66CHL1   C10 6029   0.577   2.156   3.639 -0.2190 -0.5664 -0.4876
   66CHL1   C19 6030   0.726   2.131   3.681 -0.4517  0.4922  0.7733
   66CHL1  H19A 6031   0.785   2.217   3.719  1.1679 -1.2832  2.4401
   66CHL1  H19B 6032   0.726   2.052   3.759  0.1550  0.5721  0.8620
   66CHL1  H19C 6033   0.787   2.087   3.600 -1.1489  1.8937 -0.5782
   66CHL1    C1 6034   0.522   2.016   3.589  1.1119  0.1311  0.3608
   66CHL1   H1A 6035   0.543   1.934   3.660  0.9658 -0.5105 -0.3223
   66CHL1   H1B 6036   0.411   2.021   3.578  1.0588 -0.0529  0.8103
   66CHL1    C2 6037   0.577   1.980   3.446  0.1762  0.3512 -0.5973
   66CHL1   H2A 6038   0.526   1.886   3.416  0.3794  0.1661 -0.3626
   66CHL1   H2B 6039   0.687   1.963   3.444  0.3397  1.2210  0.2283
   66CHL1   C20 6040   0.409   2.333   4.307 -0.1205  0.4413  0.5577
   66CHL1   H20 6041   0.512   2.376   4.307 -0.0999  0.3948 -0.1873
   66CHL1   C21 6042   0.418   2.181   4.343  0.7066 -0.3377  0.3619
   66CHL1  H21A 6043   0.325   2.127   4.316  0.4010  0.4207 -0.1592
   66CHL1  H21B 6044   0.437   2.162   4.451 -1.1164 -1.5237  0.5164
   66CHL1  H21C 6045   0.512   2.140   4.301  0.4578 -0.0964 -0.4633
   66CHL1   C22 6046   0.330   2.426   4.409 -0.6286  0.6203  0.3756
   66CHL1  H22A 6047   0.336   2.534   4.381  1.3902  0.0851 -1.5612
   66CHL1  H22B 6048   0.221   2.408   4.405 -1.4567  4.0586  2.7960
   66CHL1   C23 6049   0.376   2.413   4.552 -0.3183 -0.2577 -0.8485
   66CHL1  H23A 6050   0.360   2.312   4.595  2.4501 -0.4372 -0.0530
   66CHL1  H23B 6051   0.482   2.445   4.567 -0.7702  1.2358 -0.6634
   66CHL1   C24 6052   0.285   2.509   4.634  0.1320  1.3383 -0.2097
   66CHL1  H24A 6053   0.297   2.614   4.599 -1.0209  2.1322  1.6420
   66CHL1  H24B 6054   0.179   2.479   4.619  1.0705 -1.9124 -1.2641
   66CHL1   C25 6055   0.318   2.510   4.787  0.1910  0.0071  0.0728
   66CHL1   H25 6056   0.426   2.534   4.802  0.2913  0.7536 -1.6804
   66CHL1   C26 6057   0.250   2.624   4.871 -0.0125  0.3293 -0.4648
   66CHL1  H26A 6058   0.286   2.620   4.976 -2.5391  0.6310  0.4868
   66CHL1  H26B 6059   0.268   2.723   4.826  0.2337  1.5287  2.0739
   66CHL1  H26C 6060   0.146   2.597   4.898 -0.0705 -2.5627 -3.0879
   66CHL1   C27 6061   0.284   2.371   4.854  0.2954 -0.3629 -0.0308
   66CHL1  H27A 6062   0.287   2.392   4.963  0.4510 -0.7373  0.0383
   66CHL1  H27B 6063   0.357   2.295   4.818  0.2551 -0.4829  0.1429
   66CHL1  H27C 6064   0.182   2.338   4.828  0.7168  0.6330 -3.4409
   67CHL1    C3 6065   6.218   4.507   3.506 -1.2611 -0.0289  0.6133
   67CHL1    H3 6066   6.297   4.580   3.480  0.4955 -1.9730  0.2558
   67CHL1    O3 6067   6.218   4.422   3.391  0.0825 -0.7737  0.3602
   67CHL1   H3' 6068   6.202   4.476   3.313 -0.5120  0.5908  1.3892
   67CHL1    C4 6069   6.257   4.431   3.632  0.0652  0.4412  0.4582
   67CHL1   H4A 6070   6.187   4.345   3.640  0.9878 -0.4556 -0.6114
   67CHL1   H4B 6071   6.353   4.378   3.612 -0.4696 -0.1328 -0.6900
   67CHL1    C5 6072   6.252   4.516   3.755 -0.2964  0.6417 -0.1109
   67CHL1    C6 6073   6.361   4.530   3.828  0.0588  0.7038  0.2390
   67CHL1    H6 6074   6.454   4.483   3.791 -0.6379 -1.0952  0.7032
   67CHL1    C7 6075   6.368   4.612   3.957 -0.4281  0.2851  0.3963
   67CHL1   H7A 6076   6.414   4.545   4.033 -1.1218 -2.5481 -1.5303
   67CHL1   H7B 6077   6.436   4.698   3.941  0.5697 -0.3206  1.2215
   67CHL1    C8 6078   6.227   4.647   4.003 -0.1445 -0.4114  0.2667
   67CHL1    H8 6079   6.178   4.553   4.035 -1.4878  0.2728  0.2963
   67CHL1   C14 6080   6.239   4.751   4.114  0.4761  0.5007  0.7583
   67CHL1   H14 6081   6.285   4.838   4.062  1.0502 -1.4487 -2.1829
   67CHL1   C15 6082   6.337   4.715   4.231 -0.1573  0.3515  0.5214
   67CHL1  H15A 6083   6.313   4.609   4.253  0.1030 -0.2593 -1.9092
   67CHL1  H15B 6084   6.440   4.733   4.195 -0.2729  0.0268  0.0205
   67CHL1   C16 6085   6.302   4.819   4.338  0.2963 -0.5202  0.1510
   67CHL1  H16A 6086   6.265   4.771   4.432  1.7398  0.6556  1.3751
   67CHL1  H16B 6087   6.385   4.886   4.370 -1.1129  0.2402  2.4899
   67CHL1   C17 6088   6.174   4.902   4.279  0.1404  0.4158  1.1386
   67CHL1   H17 6089   6.214   4.980   4.211  1.0125 -1.7031 -0.9085
   67CHL1   C13 6090   6.113   4.811   4.174  0.0705  0.0033  0.1280
   67CHL1   C18 6091   6.032   4.696   4.240 -0.1542 -0.2721  0.4342
   67CHL1  H18A 6092   5.936   4.731   4.284  0.3122 -0.3484  1.5357
   67CHL1  H18B 6093   5.999   4.626   4.160  0.0401 -1.4238  1.3419
   67CHL1  H18C 6094   6.087   4.636   4.317  2.2943  1.3458  0.0522
   67CHL1   C12 6095   6.044   4.873   4.047  0.3823 -0.0442 -0.4871
   67CHL1  H12A 6096   5.958   4.937   4.075  0.1363 -0.3888 -0.4503
   67CHL1  H12B 6097   6.110   4.950   4.001 -1.4197  0.3494 -2.6070
   67CHL1   C11 6098   6.010   4.776   3.931  0.2049 -0.4815  0.0310
   67CHL1  H11A 6099   5.928   4.706   3.959  0.5783 -0.6347  0.7561
   67CHL1  H11B 6100   5.980   4.829   3.839  3.9689  0.5869 -0.7771
   67CHL1    C9 6101   6.138   4.698   3.888  0.2641  0.5372  0.0710
   67CHL1    H9 6102   6.210   4.773   3.850  1.8905 -0.7362  0.4858
   67CHL1   C10 6103   6.120   4.591   3.776 -0.0544 -0.2319 -0.1015
   67CHL1   C19 6104   6.014   4.489   3.824 -0.3020  0.2126 -0.1446
   67CHL1  H19A 6105   6.032   4.440   3.922  2.4982 -0.2256 -0.7877
   67CHL1  H19B 6106   5.911   4.529   3.833 -0.8245 -1.3171  1.3356
   67CHL1  H19C 6107   5.997   4.410   3.747  0.6453  1.6117 -1.8613
   67CHL1    C1 6108   6.072   4.665   3.652 -0.2081  0.4326 -0.7180
   67CHL1   H1A 6109   5.964   4.691   3.657  0.0182  1.3800 -0.5721
   67CHL1   H1B 6110   6.138   4.753   3.636  0.3159  0.3266  0.7469
   67CHL1    C2 6111   6.082   4.591   3.522 -0.9667  0.8843  0.0186
   67CHL1   H2A 6112   6.079   4.670   3.444 -1.7224  1.6659  0.8103
   67CHL1   H2B 6113   6.003   4.513   3.510  1.2580 -2.0057  2.5321
   67CHL1   C20 6114   6.089   4.970   4.382  0.1624 -0.6052 -0.7186
   67CHL1   H20 6115   6.062   4.900   4.463 -0.9080 -1.9297 -2.1526
   67CHL1   C21 6116   5.955   5.022   4.331  0.0527  0.2336 -0.2978
   67CHL1  H21A 6117   5.910   5.092   4.404 -1.9045 -0.3262 -0.9194
   67CHL1  H21B 6118   5.888   4.948   4.284  1.1079  0.0273 -1.5470
   67CHL1  H21C 6119   5.979   5.084   4.242 -1.3234 -1.3768 -1.8614
   67CHL1   C22 6120   6.174   5.084   4.447 -0.1801  0.2535 -0.3181
   67CHL1  H22A 6121   6.282   5.056   4.455 -0.1246  0.9727  3.2282
   67CHL1  H22B 6122   6.182   5.173   4.381  0.7515  0.8969  0.6184
   67CHL1   C23 6123   6.136   5.119   4.590  0.2608  0.7829 -0.3565
   67CHL1  H23A 6124   6.027   5.120   4.612  0.2934  3.4984 -0.0573
   67CHL1  H23B 6125   6.163   5.022   4.637  0.4238 -0.3510 -2.6613
   67CHL1   C24 6126   6.217   5.222   4.661  0.3324 -0.2800  0.3247
   67CHL1  H24A 6127   6.322   5.198   4.632  0.7461 -0.5603  1.9258
   67CHL1  H24B 6128   6.195   5.322   4.617 -1.7178 -1.3397 -1.2294
   67CHL1   C25 6129   6.191   5.220   4.821  0.4580  0.1242 -0.0575
   67CHL1   H25 6130   6.085   5.201   4.850  0.1162  0.4361 -1.0496
   67CHL1   C26 6131   6.274   5.109   4.879 -0.1660  0.4653  0.5857
   67CHL1  H26A 6132   6.252   5.085   4.985  0.5720  1.4401  0.9674
   67CHL1  H26B 6133   6.271   5.012   4.824  0.9133  1.3997 -1.2111
   67CHL1  H26C 6134   6.383   5.133   4.878  0.4124 -1.8888  0.4868
   67CHL1   C27 6135   6.224   5.354   4.900  0.2585  0.4736  0.3991
   67CHL1  H27A 6136   6.161   5.429   4.849 -0.0695 -2.2464 -3.7180
   67CHL1  H27B 6137   6.205   5.346   5.009 -1.6534  2.7337  0.2986
   67CHL1  H27C 6138   6.332   5.372   4.877  0.3488 -0.6129 -0.1073
   68CHL1    C3 6139   3.870   5.206   3.373  0.3441 -0.2567 -0.6014
   68CHL1    H3 6140   3.950   5.280   3.393 -0.0491 -0.5929  2.6805
   68CHL1    O3 6141   3.829   5.225   3.238 -0.3367  0.4723  0.2756
   68CHL1   H3' 6142   3.822   5.321   3.235 -0.7028  0.4185 -1.0306
   68CHL1    C4 6143   3.910   5.062   3.385  0.1946  0.0291  0.1545
   68CHL1   H4A 6144   3.836   4.980   3.373  0.3607 -0.4839  2.3483
   68CHL1   H4B 6145   3.991   5.025   3.318  0.7794 -1.9106  1.8266
   68CHL1    C5 6146   3.966   5.041   3.522 -1.0850 -0.3407 -0.2715
   68CHL1    C6 6147   4.104   5.031   3.543  0.0999  0.3751  0.7429
   68CHL1    H6 6148   4.176   5.030   3.461  0.0435 -1.2996  0.6867
   68CHL1    C7 6149   4.163   5.012   3.680 -0.1126 -0.2085  0.3847
   68CHL1   H7A 6150   4.246   4.940   3.665  0.3469 -0.1740  2.5200
   68CHL1   H7B 6151   4.201   5.109   3.719 -0.6660 -0.1415  0.7630
   68CHL1    C8 6152   4.057   4.974   3.787  0.1724 -0.3342  0.0832
   68CHL1    H8 6153   4.024   4.869   3.775  0.0825 -0.6958  2.8019
   68CHL1   C14 6154   4.120   4.994   3.928 -0.4041  0.2797 -0.0162
   68CHL1   H14 6155   4.137   5.104   3.936  1.5301  0.2341 -2.3016
   68CHL1   C15 6156   4.256   4.928   3.964 -0.3502  0.4561 -0.3773
   68CHL1  H15A 6157   4.244   4.819   3.947  1.2924  0.4172 -1.4585
   68CHL1  H15B 6158   4.341   4.976   3.911  0.2613  0.4275  0.5543
   68CHL1   C16 6159   4.273   4.950   4.116  0.7967 -0.4554 -0.4740
   68CHL1  H16A 6160   4.293   4.851   4.163  0.6481 -1.0151 -1.5688
   68CHL1  H16B 6161   4.346   5.026   4.152  0.4086 -1.5909  3.1467
   68CHL1   C17 6162   4.130   4.997   4.168 -0.4571 -0.1079  0.0603
   68CHL1   H17 6163   4.137   5.108   4.169 -1.4687  0.0374 -2.1391
   68CHL1   C13 6164   4.032   4.965   4.050  0.0048 -0.2808  0.2520
   68CHL1   C18 6165   3.991   4.811   4.056 -0.1321 -0.4643  1.1173
   68CHL1  H18A 6166   3.932   4.793   4.148 -1.8785  0.5165  0.2256
   68CHL1  H18B 6167   3.934   4.784   3.965 -0.2537 -1.1938  1.4058
   68CHL1  H18C 6168   4.080   4.744   4.061 -1.3631 -2.1047  2.3310
   68CHL1   C12 6169   3.899   5.046   4.035  0.0013 -0.4937  0.4546
   68CHL1  H12A 6170   3.829   5.013   4.114  1.9811 -1.1827  1.9757
   68CHL1  H12B 6171   3.924   5.153   4.055 -0.1386 -0.3166 -0.2524
   68CHL1   C11 6172   3.840   5.039   3.893  0.7455 -0.5950  0.3524
   68CHL1  H11A 6173   3.805   4.934   3.886  0.6214 -0.5239 -0.1027
   68CHL1  H11B 6174   3.754   5.108   3.890 -0.8176 -2.4688  0.2039
   68CHL1    C9 6175   3.936   5.064   3.777  0.0093  0.0803  0.1992
   68CHL1    H9 6176   3.980   5.166   3.784  0.7134 -0.2276  0.3494
   68CHL1   C10 6177   3.865   5.061   3.644  0.1321 -0.4673  0.6225
   68CHL1   C19 6178   3.770   4.942   3.639 -0.5985 -0.0978 -0.1033
   68CHL1  H19A 6179   3.679   4.966   3.699 -0.6486  2.2605 -0.9942
   68CHL1  H19B 6180   3.728   4.922   3.538  1.1921  0.2132 -0.9393
   68CHL1  H19C 6181   3.819   4.853   3.683  0.8837  0.9960  0.5510
   68CHL1    C1 6182   3.776   5.194   3.619 -0.0108  0.0008  0.4376
   68CHL1   H1A 6183   3.694   5.186   3.693 -1.3240  0.2767 -0.9326
   68CHL1   H1B 6184   3.841   5.277   3.654 -0.3056  0.9167 -1.1158
   68CHL1    C2 6185   3.747   5.226   3.468 -0.4046 -0.3467  0.2219
   68CHL1   H2A 6186   3.699   5.326   3.462 -1.5456 -0.6756  2.5790
   68CHL1   H2B 6187   3.673   5.150   3.434  0.4863 -0.8417 -0.6646
   68CHL1   C20 6188   4.090   4.955   4.312 -0.4689  0.6194  0.5546
   68CHL1   H20 6189   4.059   4.850   4.328  1.4197 -0.3355 -1.5594
   68CHL1   C21 6190   3.960   5.033   4.349  0.0807  0.9447  0.0234
   68CHL1  H21A 6191   3.873   4.973   4.316 -1.0225  1.8730  1.1656
   68CHL1  H21B 6192   3.968   5.133   4.303 -2.8358  1.1283 -0.2428
   68CHL1  H21C 6193   3.961   5.050   4.459 -1.3490 -0.3236  0.2754
   68CHL1   C22 6194   4.213   4.989   4.402 -0.0643  0.0456  0.2758
   68CHL1  H22A 6195   4.306   4.939   4.369 -0.2089  0.2830 -0.5275
   68CHL1  H22B 6196   4.234   5.098   4.406  0.9177 -0.1581  0.8878
   68CHL1   C23 6197   4.180   4.944   4.543 -0.2978  0.5196 -0.4295
   68CHL1  H23A 6198   4.126   5.030   4.586  1.0931  1.6887 -0.9371
   68CHL1  H23B 6199   4.109   4.859   4.535 -0.7181  0.8399 -0.1414
   68CHL1   C24 6200   4.313   4.908   4.619 -0.6452  0.7602  0.5420
   68CHL1  H24A 6201   4.352   4.810   4.586 -1.9213 -0.0135  1.2653
   68CHL1  H24B 6202   4.391   4.981   4.589  0.1170  0.0077  0.6835
   68CHL1   C25 6203   4.307   4.899   4.772 -0.3425  0.1000  0.0224
   68CHL1   H25 6204   4.258   4.993   4.807  2.5440  1.8547 -0.2949
   68CHL1   C26 6205   4.234   4.769   4.824 -0.3619 -0.2009  1.0989
   68CHL1  H26A 6206   4.308   4.688   4.809  1.8821  1.9206 -0.2351
   68CHL1  H26B 6207   4.218   4.779   4.933 -3.5543  0.1014  0.7040
   68CHL1  H26C 6208   4.136   4.756   4.774 -0.3687  0.0128  1.0551
   68CHL1   C27 6209   4.454   4.884   4.828 -1.5895  0.2662 -0.1700
   68CHL1  H27A 6210   4.463   4.871   4.938  0.5855 -0.9159 -0.4235
   68CHL1  H27B 6211   4.497   4.800   4.769 -1.2201  0.9098 -0.8466
   68CHL1  H27C 6212   4.528   4.966   4.811  0.2828 -0.7339  2.4560
   69CHL1    C3 6213   1.423   5.986   3.348  0.0345  1.1174  0.4736
   69CHL1    H3 6214   1.460   6.091   3.358  1.1639  0.7393  0.4265
   69CHL1    O3 6215   1.381   5.957   3.215  0.2785 -0.4641 -0.6042
   69CHL1   H3' 6216   1.356   5.864   3.215 -1.0594 -0.2005  2.4948
   69CHL1    C4 6217   1.533   5.889   3.385 -0.3263  0.0936 -0.1450
   69CHL1   H4A 6218   1.492   5.786   3.376 -0.5558  0.3763 -2.9542
   69CHL1   H4B 6219   1.622   5.911   3.323 -0.2814  0.0293 -0.1047
   69CHL1    C5 6220   1.582   5.906   3.524  0.5294 -0.7091 -0.6713
   69CHL1    C6 6221   1.713   5.929   3.551  0.5115 -0.5748  0.3466
   69CHL1    H6 6222   1.784   5.934   3.468 -1.3459  0.2574 -1.2541
   69CHL1    C7 6223   1.776   5.941   3.689 -0.3153  0.3753  0.5200
   69CHL1   H7A 6224   1.851   5.861   3.708 -0.4692  0.1204  0.0571
   69CHL1   H7B 6225   1.828   6.039   3.685  1.5852 -0.5728 -3.4250
   69CHL1    C8 6226   1.671   5.907   3.799  0.4470 -0.0889 -0.4433
   69CHL1    H8 6227   1.660   5.797   3.802 -0.7308 -0.0198 -1.3964
   69CHL1   C14 6228   1.722   5.948   3.939 -0.4421 -0.0836  0.4329
   69CHL1   H14 6229   1.722   6.059   3.931 -0.8245 -0.0251  1.2223
   69CHL1   C15 6230   1.864   5.906   3.969 -0.3558 -0.5537 -0.2934
   69CHL1  H15A 6231   1.861   5.797   3.948  0.5320 -0.6540  0.0431
   69CHL1  H15B 6232   1.944   5.967   3.921  0.0059  1.0672  2.1795
   69CHL1   C16 6233   1.869   5.936   4.125 -0.2651 -0.2036  0.2562
   69CHL1  H16A 6234   1.894   5.842   4.178  0.9028  1.7141  3.3685
   69CHL1  H16B 6235   1.951   6.004   4.157 -0.6140  1.6819 -2.4538
   69CHL1   C17 6236   1.723   5.975   4.167  0.0389 -0.3386 -0.1963
   69CHL1   H17 6237   1.719   6.085   4.148 -0.9532  0.3759  3.4735
   69CHL1   C13 6238   1.633   5.917   4.059  0.3500 -0.5703  0.1174
   69CHL1   C18 6239   1.622   5.765   4.086 -0.0479  0.8731  0.0122
   69CHL1  H18A 6240   1.562   5.760   4.179  0.7932 -1.6822  0.4913
   69CHL1  H18B 6241   1.560   5.710   4.012 -0.7222  0.6902  0.6988
   69CHL1  H18C 6242   1.711   5.707   4.120 -1.2998 -0.9185  0.3644
   69CHL1   C12 6243   1.493   5.986   4.022 -0.6276 -0.7254  0.1667
   69CHL1  H12A 6244   1.417   5.961   4.099 -0.0607 -0.1724  0.9295
   69CHL1  H12B 6245   1.502   6.097   4.024 -1.6178 -0.6388  1.6926
   69CHL1   C11 6246   1.429   5.944   3.887 -0.0733  0.1350 -0.6693
   69CHL1  H11A 6247   1.392   5.842   3.910  0.3367  0.2754  0.6825
   69CHL1  H11B 6248   1.334   6.000   3.875 -2.3782 -2.1127  4.2469
   69CHL1    C9 6249   1.527   5.959   3.772 -0.7511  0.1396  0.9861
   69CHL1    H9 6250   1.535   6.070   3.765 -2.7055  0.3221  0.8699
   69CHL1   C10 6251   1.470   5.909   3.629 -0.4884  0.2433 -0.4148
   69CHL1   C19 6252   1.417   5.757   3.653  0.1669  0.1398  0.3130
   69CHL1  H19A 6253   1.342   5.758   3.735  0.2564 -0.3256  0.4010
   69CHL1  H19B 6254   1.368   5.712   3.565  0.9340 -2.0989  0.9571
   69CHL1  H19C 6255   1.502   5.698   3.694  0.5626  0.6297  0.2050
   69CHL1    C1 6256   1.345   5.992   3.590 -0.2835  0.6706  0.3547
   69CHL1   H1A 6257   1.262   5.951   3.651 -0.5316 -0.1167 -0.4929
   69CHL1   H1B 6258   1.359   6.101   3.603  1.6552  0.5574 -0.3946
   69CHL1    C2 6259   1.302   5.968   3.445 -0.5228 -0.1724 -0.2298
   69CHL1   H2A 6260   1.229   6.045   3.411  1.8901  3.0987  1.3901
   69CHL1   H2B 6261   1.254   5.868   3.436  2.1907 -1.6746  0.8759
   69CHL1   C20 6262   1.684   5.951   4.317  0.1322 -0.5307 -0.4149
   69CHL1   H20 6263   1.694   5.841   4.333  1.2209 -0.1526  1.7749
   69CHL1   C21 6264   1.539   5.995   4.347  0.4860 -0.3639  0.0400
   69CHL1  H21A 6265   1.518   6.103   4.330  2.3326 -0.0036 -0.0987
   69CHL1  H21B 6266   1.518   5.970   4.453 -0.1039 -0.3292 -0.0602
   69CHL1  H21C 6267   1.472   5.933   4.284  0.5923  1.0232 -1.5128
   69CHL1   C22 6268   1.789   6.024   4.409 -0.4443  0.2731  0.1913
   69CHL1  H22A 6269   1.887   5.989   4.371 -1.6125 -3.1897  0.0635
   69CHL1  H22B 6270   1.780   6.135   4.401  2.7861  0.5126 -2.8037
   69CHL1   C23 6271   1.789   5.984   4.554 -0.6089  0.1366 -0.8268
   69CHL1  H23A 6272   1.838   6.064   4.614  1.6842 -0.6449 -1.5535
   69CHL1  H23B 6273   1.683   5.971   4.585 -1.1798  0.2267 -2.6757
   69CHL1   C24 6274   1.855   5.852   4.595  0.1376  0.3036 -0.3190
   69CHL1  H24A 6275   1.815   5.776   4.525  1.0022 -1.0312  0.5965
   69CHL1  H24B 6276   1.966   5.860   4.593  0.1948  0.9254  2.1759
   69CHL1   C25 6277   1.818   5.796   4.732 -1.1593 -0.3951  0.0840
   69CHL1   H25 6278   1.708   5.778   4.731 -1.7888  2.7916  1.3173
   69CHL1   C26 6279   1.904   5.673   4.764  0.1798 -0.2208 -0.1909
   69CHL1  H26A 6280   1.863   5.592   4.701  1.5307 -1.1839  0.1176
   69CHL1  H26B 6281   2.010   5.695   4.739 -0.4766  6.4347  0.9821
   69CHL1  H26C 6282   1.903   5.643   4.871 -0.7867 -0.0510 -0.1476
   69CHL1   C27 6283   1.849   5.902   4.840  0.2460 -0.5097  0.1787
   69CHL1  H27A 6284   1.787   5.994   4.840  2.7193  1.2379 -0.2943
   69CHL1  H27B 6285   1.855   5.874   4.947 -0.5152 -0.5593  0.2159
   69CHL1  H27C 6286   1.951   5.938   4.817 -0.6851  1.1563 -1.5537
   70CHL1    C3 6287   0.513   5.956   3.601 -0.0539  0.2968  0.1561
   70CHL1    H3 6288   0.406   5.978   3.619  0.3131  1.9313  0.4647
   70CHL1    O3 6289   0.541   5.915   3.470  0.0276  0.4635  0.0407
   70CHL1   H3' 6290   0.633   5.938   3.464  0.5515 -1.2981  0.5479
   70CHL1    C4 6291   0.595   6.076   3.645 -0.1727 -0.3918 -0.6747
   70CHL1   H4A 6292   0.701   6.061   3.616 -0.0635 -0.3610 -0.2909
   70CHL1   H4B 6293   0.552   6.162   3.590 -2.4615 -2.7431 -2.8494
   70CHL1    C5 6294   0.609   6.098   3.794 -0.3491  0.0745 -0.3361
   70CHL1    C6 6295   0.601   6.223   3.845 -0.0837 -0.2176  0.6272
   70CHL1    H6 6296   0.592   6.311   3.781 -0.0044  0.5913  1.7055
   70CHL1    C7 6297   0.614   6.256   3.990  0.5691  0.5663  0.3197
   70CHL1   H7A 6298   0.677   6.348   3.994  0.8722  0.3157  1.8679
   70CHL1   H7B 6299   0.515   6.285   4.030  0.5310  0.1922  0.5040
   70CHL1    C8 6300   0.669   6.142   4.077  0.6854  0.4685  0.0273
   70CHL1    H8 6301   0.778   6.133   4.061  0.3740  0.4676 -2.4881
   70CHL1   C14 6302   0.632   6.171   4.224 -0.6493 -0.1748 -0.2505
   70CHL1   H14 6303   0.522   6.175   4.230 -0.7629 -0.6277 -1.7365
   70CHL1   C15 6304   0.680   6.307   4.287  0.3984 -0.0279  0.4935
   70CHL1  H15A 6305   0.780   6.330   4.244 -1.1780 -0.7883 -4.0586
   70CHL1  H15B 6306   0.616   6.392   4.257 -0.9259 -2.0585 -3.0674
   70CHL1   C16 6307   0.692   6.280   4.437  0.1271 -0.5364 -0.7164
   70CHL1  H16A 6308   0.791   6.309   4.477 -0.2207  0.7604 -0.7432
   70CHL1  H16B 6309   0.622   6.348   4.490 -1.6678 -1.8971 -1.2222
   70CHL1   C17 6310   0.652   6.133   4.458  0.1318 -0.5406 -0.0045
   70CHL1   H17 6311   0.541   6.129   4.457  0.0327  1.2558  0.6483
   70CHL1   C13 6312   0.683   6.063   4.318 -0.0132  1.0547  0.1146
   70CHL1   C18 6313   0.842   6.042   4.307 -0.0450  0.2475  0.0756
   70CHL1  H18A 6314   0.871   5.961   4.378 -1.4176 -1.5470 -1.2773
   70CHL1  H18B 6315   0.865   5.994   4.209  0.2823  1.1392 -0.2859
   70CHL1  H18C 6316   0.899   6.136   4.319 -1.9064  1.6598 -1.4959
   70CHL1   C12 6317   0.611   5.932   4.284 -0.3643 -0.8268  0.3403
   70CHL1  H12A 6318   0.659   5.852   4.344  2.0144  1.4508  1.6655
   70CHL1  H12B 6319   0.500   5.940   4.287 -0.4194  0.3254 -2.1901
   70CHL1   C11 6320   0.641   5.895   4.133 -0.3337  0.3604  0.3096
   70CHL1  H11A 6321   0.744   5.856   4.117 -0.8477  0.0132 -2.6884
   70CHL1  H11B 6322   0.579   5.806   4.112  0.1861  0.2248 -0.7186
   70CHL1    C9 6323   0.600   6.012   4.038  0.3221 -0.2966  0.0510
   70CHL1    H9 6324   0.490   6.019   4.048  0.1259 -1.5480 -0.9272
   70CHL1   C10 6325   0.625   5.973   3.885 -0.0430 -0.1154  0.0541
   70CHL1   C19 6326   0.773   5.930   3.871 -0.1538 -0.0861 -0.1237
   70CHL1  H19A 6327   0.790   5.826   3.905  2.7046  0.5529  0.6537
   70CHL1  H19B 6328   0.818   5.939   3.769  2.1609  1.1060  0.9238
   70CHL1  H19C 6329   0.837   6.004   3.923  0.8459 -0.7462 -0.3944
   70CHL1    C1 6330   0.520   5.871   3.841 -0.6578 -0.3425  0.2433
   70CHL1   H1A 6331   0.529   5.783   3.909 -0.7350  0.4102  1.2392
   70CHL1   H1B 6332   0.419   5.914   3.857 -1.3691 -1.9242  0.2077
   70CHL1    C2 6333   0.544   5.834   3.692  0.4693  0.1784  0.2243
   70CHL1   H2A 6334   0.479   5.746   3.675 -1.1691  1.4018 -0.0158
   70CHL1   H2B 6335   0.650   5.800   3.684  0.4648 -0.0086  0.9202
   70CHL1   C20 6336   0.691   6.059   4.582  0.9174 -0.0415 -0.4498
   70CHL1   H20 6337   0.719   5.957   4.550 -0.3777  0.0592 -2.0185
   70CHL1   C21 6338   0.573   6.048   4.685 -0.3467 -0.3097  0.4988
   70CHL1  H21A 6339   0.605   5.999   4.780  1.8826 -2.8429 -1.3700
   70CHL1  H21B 6340   0.494   5.988   4.636 -0.9942  0.1205  1.0086
   70CHL1  H21C 6341   0.534   6.151   4.695  1.7600  0.5706  0.1371
   70CHL1   C22 6342   0.812   6.124   4.649  0.3807  0.0965 -0.1747
   70CHL1  H22A 6343   0.887   6.141   4.570 -0.7559  2.6570 -0.8237
   70CHL1  H22B 6344   0.779   6.225   4.683 -2.8520 -0.9335  0.0951
   70CHL1   C23 6345   0.862   6.046   4.774  0.3800  0.1770 -0.0706
   70CHL1  H23A 6346   0.779   6.051   4.848  0.2794  1.5461 -0.2458
   70CHL1  H23B 6347   0.884   5.942   4.743 -2.1971 -0.5081  0.1756
   70CHL1   C24 6348   0.986   6.108   4.838  0.9413  0.0311 -0.0410
   70CHL1  H24A 6349   1.062   6.084   4.760 -0.5633  0.0692 -1.5925
   70CHL1  H24B 6350   0.966   6.214   4.863 -1.4606 -0.6260  1.0413
   70CHL1   C25 6351   1.015   6.040   4.976 -0.6291 -0.0599 -0.1635
   70CHL1   H25 6352   0.997   5.931   4.969 -0.5548 -0.1595  0.9880
   70CHL1   C26 6353   1.163   6.066   5.012 -0.1120 -0.3261 -0.1199
   70CHL1  H26A 6354   1.188   6.011   5.105 -0.1792 -1.0547 -0.5220
   70CHL1  H26B 6355   1.225   6.024   4.931 -0.7767  0.4341 -1.0451
   70CHL1  H26C 6356   1.185   6.175   5.011  3.2868 -0.9002 -2.6735
   70CHL1   C27 6357   0.921   6.098   5.084 -0.3122  0.1313 -0.0336
   70CHL1  H27A 6358   0.814   6.112   5.060 -0.2792 -0.7873 -0.7577
   70CHL1  H27B 6359   0.942   6.041   5.177 -1.3062  0.2476  0.2717
   70CHL1  H27C 6360   0.959   6.202   5.093 -0.8787  0.2423  1.4074
   71CHL1    C3 6361   3.144   6.661   3.157 -0.2818 -0.3219  0.0875
   71CHL1    H3 6362   3.126   6.552   3.173  0.4375 -0.3813  0.5261
   71CHL1    O3 6363   3.160   6.688   3.020 -0.0597 -0.3216 -0.3904
   71CHL1   H3' 6364   3.171   6.783   3.008 -2.8762 -0.0031 -1.1143
   71CHL1    C4 6365   3.035   6.736   3.221  0.0971  0.1958  0.7833
   71CHL1   H4A 6366   3.053   6.844   3.203  0.6133  0.0380  0.3004
   71CHL1   H4B 6367   2.955   6.710   3.148  1.1839  0.6717 -0.6163
   71CHL1    C5 6368   3.010   6.697   3.369  0.6827 -0.1797  0.6406
   71CHL1    C6 6369   2.894   6.658   3.417 -0.3426 -0.4382  0.3593
   71CHL1    H6 6370   2.809   6.634   3.352  0.0907 -1.9818  0.3207
   71CHL1    C7 6371   2.870   6.666   3.570  0.0827 -0.0332  0.2015
   71CHL1   H7A 6372   2.800   6.751   3.588  0.8459  0.8397 -0.8169
   71CHL1   H7B 6373   2.816   6.575   3.604  2.0966 -1.9107 -1.3246
   71CHL1    C8 6374   2.989   6.698   3.661 -0.7493  0.0247 -0.0359
   71CHL1    H8 6375   3.003   6.807   3.678  0.8190 -0.2506  0.5676
   71CHL1   C14 6376   2.970   6.625   3.793  0.2833 -0.1969 -0.2443
   71CHL1   H14 6377   2.964   6.516   3.772 -0.5748 -0.0472 -0.8811
   71CHL1   C15 6378   2.838   6.645   3.874 -0.1081 -0.0741 -0.8049
   71CHL1  H15A 6379   2.804   6.750   3.880 -3.6766 -1.1908  1.8127
   71CHL1  H15B 6380   2.759   6.580   3.829 -1.6272  1.1230  0.0651
   71CHL1   C16 6381   2.878   6.601   4.014  0.1338  0.1516 -0.5248
   71CHL1  H16A 6382   2.863   6.687   4.083  1.0890 -0.3875  0.3843
   71CHL1  H16B 6383   2.821   6.513   4.050  1.0086 -2.1289 -4.1042
   71CHL1   C17 6384   3.028   6.564   4.013  0.2366 -1.0607  0.0807
   71CHL1   H17 6385   3.037   6.459   3.975  0.5756  0.1608 -3.6171
   71CHL1   C13 6386   3.086   6.645   3.889 -0.5723 -0.1219  0.0483
   71CHL1   C18 6387   3.100   6.796   3.917 -0.5866  0.1080 -0.8014
   71CHL1  H18A 6388   3.148   6.856   3.836  1.8250  0.6269  0.8902
   71CHL1  H18B 6389   3.005   6.849   3.940 -1.3970 -1.5430 -0.1882
   71CHL1  H18C 6390   3.167   6.811   4.005 -1.2989 -1.6094  0.0624
   71CHL1   C12 6391   3.214   6.594   3.829 -0.8570  1.0996  0.0710
   71CHL1  H12A 6392   3.306   6.608   3.888  0.9938 -1.9165 -1.8325
   71CHL1  H12B 6393   3.207   6.484   3.813 -0.3312  1.1372 -0.4543
   71CHL1   C11 6394   3.238   6.652   3.690  0.1551 -0.4832  0.4025
   71CHL1  H11A 6395   3.279   6.752   3.714 -0.2227 -0.3775  0.6319
   71CHL1  H11B 6396   3.320   6.597   3.639 -0.9601 -0.0707 -1.9935
   71CHL1    C9 6397   3.111   6.646   3.596 -0.7481  0.0703  0.4293
   71CHL1    H9 6398   3.086   6.539   3.577 -0.8319 -0.1623  1.7608
   71CHL1   C10 6399   3.138   6.713   3.454 -0.8864 -0.6404 -0.5697
   71CHL1   C19 6400   3.163   6.862   3.475  0.1710 -0.1874 -0.1255
   71CHL1  H19A 6401   3.073   6.916   3.510 -1.0812 -0.7609 -2.2715
   71CHL1  H19B 6402   3.241   6.876   3.553 -0.1240  1.2355 -0.0600
   71CHL1  H19C 6403   3.194   6.913   3.381  0.0058  1.0455  0.4631
   71CHL1    C1 6404   3.263   6.653   3.381  0.3610  0.1178 -0.1011
   71CHL1   H1A 6405   3.357   6.681   3.433 -0.2239  0.9841  0.5102
   71CHL1   H1B 6406   3.248   6.543   3.387 -1.3703  0.2910 -0.8026
   71CHL1    C2 6407   3.272   6.694   3.231 -0.6633 -0.4176 -0.0631
   71CHL1   H2A 6408   3.358   6.644   3.181  1.8842  0.0204  3.4859
   71CHL1   H2B 6409   3.295   6.803   3.229 -2.6358  0.1053  1.8746
   71CHL1   C20 6410   3.091   6.564   4.156 -0.3726 -0.3726  0.3308
   71CHL1   H20 6411   3.107   6.670   4.186 -2.2338  0.3162 -0.8872
   71CHL1   C21 6412   3.223   6.486   4.150  0.1919  0.2577  0.1274
   71CHL1  H21A 6413   3.281   6.471   4.244 -0.0462 -2.8996 -0.1032
   71CHL1  H21B 6414   3.291   6.523   4.070  1.5303 -1.2489  0.5127
   71CHL1  H21C 6415   3.210   6.377   4.130  1.7429  0.4432 -2.3434
   71CHL1   C22 6416   3.004   6.507   4.274  0.3009  0.3061 -0.3983
   71CHL1  H22A 6417   3.052   6.542   4.368  0.9507  1.3845 -1.1133
   71CHL1  H22B 6418   2.901   6.548   4.271 -0.1903 -0.8844 -0.2774
   71CHL1   C23 6419   2.990   6.356   4.272 -0.1484 -0.7842  0.5372
   71CHL1  H23A 6420   2.981   6.326   4.166  1.5102  1.3749 -0.2898
   71CHL1  H23B 6421   3.087   6.313   4.304 -0.8772 -2.3084  0.7706
   71CHL1   C24 6422   2.884   6.296   4.368 -0.3275  0.1337  0.1576
   71CHL1  H24A 6423   2.783   6.329   4.334  0.2754 -0.8403 -2.8973
   71CHL1  H24B 6424   2.883   6.190   4.334 -0.5418  0.1118  0.2297
   71CHL1   C25 6425   2.898   6.310   4.519 -0.2783  0.4054 -0.3464
   71CHL1   H25 6426   2.867   6.412   4.550 -1.4666  0.0273 -0.2348
   71CHL1   C26 6427   2.801   6.219   4.598  0.7377 -0.1574 -0.4665
   71CHL1  H26A 6428   2.798   6.237   4.708 -0.6826  0.5312 -0.5968
   71CHL1  H26B 6429   2.697   6.235   4.564 -0.2640 -2.6295  1.1855
   71CHL1  H26C 6430   2.830   6.114   4.576  0.8472 -0.8435  2.4829
   71CHL1   C27 6431   3.040   6.283   4.569 -0.3161 -0.2767  0.0941
   71CHL1  H27A 6432   3.042   6.292   4.680  1.3320 -1.7489  0.2276
   71CHL1  H27B 6433   3.060   6.174   4.557 -2.0857 -0.5747 -0.4302
   71CHL1  H27C 6434   3.114   6.343   4.513 -1.6375  1.8425  0.5050
   72CHL1    C3 6435   0.479   4.236   3.528 -0.4392  0.2742  0.6048
   72CHL1    H3 6436   0.394   4.308   3.537 -0.8381  0.0068 -0.6986
   72CHL1    O3 6437   0.512   4.225   3.389  0.2666 -0.6324  0.4789
   72CHL1   H3' 6438   0.531   4.314   3.359  0.6063 -0.9690 -0.3276
   72CHL1    C4 6439   0.604   4.289   3.598  0.5934  0.2131  0.3295
   72CHL1   H4A 6440   0.689   4.221   3.577  0.7729  1.3510 -3.2652
   72CHL1   H4B 6441   0.638   4.382   3.547 -2.1528  1.9101  1.3635
   72CHL1    C5 6442   0.581   4.305   3.748  0.2816  0.3983 -0.3968
   72CHL1    C6 6443   0.615   4.420   3.810 -0.8125 -0.1472  0.3727
   72CHL1    H6 6444   0.648   4.505   3.748  1.8447 -0.8639  0.7040
   72CHL1    C7 6445   0.606   4.437   3.959  0.1253  0.7054 -0.7437
   72CHL1   H7A 6446   0.696   4.485   4.002  0.4546 -0.5271 -0.0110
   72CHL1   H7B 6447   0.525   4.508   3.986  0.0464  0.2178  0.3627
   72CHL1    C8 6448   0.595   4.302   4.036  0.3342  0.3298  0.1197
   72CHL1    H8 6449   0.688   4.246   4.010  0.7080  1.0262 -0.0874
   72CHL1   C14 6450   0.573   4.328   4.183 -0.2201  0.6895  0.0716
   72CHL1   H14 6451   0.480   4.388   4.179 -2.3816 -2.3566  0.8509
   72CHL1   C15 6452   0.687   4.406   4.258 -0.2757 -0.1793  0.0338
   72CHL1  H15A 6453   0.785   4.359   4.234 -0.8986 -1.4439 -0.1379
   72CHL1  H15B 6454   0.682   4.512   4.227 -0.5188 -0.1158  0.2912
   72CHL1   C16 6455   0.651   4.380   4.404 -0.1127  0.7807  0.1727
   72CHL1  H16A 6456   0.736   4.329   4.454 -1.3664 -0.4622  1.1464
   72CHL1  H16B 6457   0.624   4.469   4.466 -0.4282  0.6646  0.2022
   72CHL1   C17 6458   0.522   4.279   4.406 -0.6192 -0.4853 -0.4699
   72CHL1   H17 6459   0.429   4.339   4.403 -0.9931 -0.8691  1.7284
   72CHL1   C13 6460   0.536   4.209   4.272  0.0500  0.2054 -0.2892
   72CHL1   C18 6461   0.648   4.107   4.284  0.5860  0.7858  0.2193
   72CHL1  H18A 6462   0.593   4.016   4.315 -0.9165  1.4210 -0.4352
   72CHL1  H18B 6463   0.681   4.083   4.181 -2.3318  1.2203 -0.9203
   72CHL1  H18C 6464   0.731   4.142   4.349 -1.2708  0.9264  2.6754
   72CHL1   C12 6465   0.413   4.149   4.204 -0.1639 -0.3110 -0.1926
   72CHL1  H12A 6466   0.380   4.060   4.262 -2.0457  0.6640  0.3371
   72CHL1  H12B 6467   0.334   4.226   4.197 -0.9156 -1.1561 -1.5135
   72CHL1   C11 6468   0.438   4.110   4.058  0.2165  0.1120 -0.4579
   72CHL1  H11A 6469   0.517   4.032   4.058 -0.4177 -0.5410 -1.1976
   72CHL1  H11B 6470   0.347   4.059   4.022  1.6215 -1.2501 -2.2839
   72CHL1    C9 6471   0.488   4.222   3.966  0.1034 -0.0294 -0.3485
   72CHL1    H9 6472   0.404   4.293   3.950 -0.9283 -0.4824  2.4734
   72CHL1   C10 6473   0.529   4.177   3.820 -0.7099  0.7492 -0.7250
   72CHL1   C19 6474   0.640   4.069   3.826 -0.4365 -0.1563 -0.2068
   72CHL1  H19A 6475   0.678   4.050   3.723 -0.1269 -0.2919 -0.0693
   72CHL1  H19B 6476   0.726   4.089   3.893 -0.0693 -0.9447 -0.4287
   72CHL1  H19C 6477   0.590   3.985   3.879  1.0923  0.1091  1.7605
   72CHL1    C1 6478   0.403   4.133   3.738 -0.0963 -0.4414  0.2098
   72CHL1   H1A 6479   0.367   4.049   3.801  2.3164 -2.6243 -1.0936
   72CHL1   H1B 6480   0.322   4.208   3.747 -0.7001 -1.0100 -0.3305
   72CHL1    C2 6481   0.427   4.104   3.584  0.5074 -0.1521 -0.0523
   72CHL1   H2A 6482   0.330   4.076   3.536 -1.1182  1.7944  1.8866
   72CHL1   H2B 6483   0.498   4.018   3.585  1.1951  0.3742 -1.2732
   72CHL1   C20 6484   0.506   4.202   4.534  0.2689  0.5549 -0.1728
   72CHL1   H20 6485   0.576   4.116   4.538 -0.1200  0.1952 -0.9142
   72CHL1   C21 6486   0.368   4.137   4.537  0.4482  0.2014  0.4623
   72CHL1  H21A 6487   0.327   4.126   4.640  2.3078 -0.5162  1.1785
   72CHL1  H21B 6488   0.364   4.037   4.489 -0.7823  0.4936 -0.0669
   72CHL1  H21C 6489   0.295   4.195   4.477 -1.1036  0.7472  2.7423
   72CHL1   C22 6490   0.521   4.284   4.667  0.5699  0.2917 -0.1506
   72CHL1  H22A 6491   0.605   4.356   4.655 -0.0953  1.5283  2.0498
   72CHL1  H22B 6492   0.432   4.349   4.680  0.1252 -0.4237  0.4275
   72CHL1   C23 6493   0.554   4.205   4.791 -0.2163 -0.3550  0.2562
   72CHL1  H23A 6494   0.470   4.140   4.825  0.4890 -2.2654 -1.4524
   72CHL1  H23B 6495   0.631   4.131   4.761  1.2659  1.1616  0.1930
   72CHL1   C24 6496   0.596   4.298   4.901  0.2309  0.4409 -0.0658
   72CHL1  H24A 6497   0.656   4.383   4.862 -0.8407  0.8304 -0.9072
   72CHL1  H24B 6498   0.507   4.348   4.945  0.9246  0.5149  1.2788
   72CHL1   C25 6499   0.682   4.230   5.017 -0.0090  0.1374  0.0036
   72CHL1   H25 6500   0.696   4.305   5.098 -1.5807  0.8336 -0.3299
   72CHL1   C26 6501   0.625   4.112   5.092 -0.0158  0.3409 -0.6312
   72CHL1  H26A 6502   0.687   4.097   5.183 -0.0357 -0.0169 -0.6773
   72CHL1  H26B 6503   0.523   4.123   5.135 -0.1521 -2.1628 -0.1997
   72CHL1  H26C 6504   0.623   4.020   5.030 -2.8140  0.7105 -1.2387
   72CHL1   C27 6505   0.825   4.188   4.970  0.0598  0.1471 -0.6231
   72CHL1  H27A 6506   0.816   4.131   4.875  0.1423  0.5836 -0.8964
   72CHL1  H27B 6507   0.902   4.268   4.973 -0.5807  0.7542 -0.2659
   72CHL1  H27C 6508   0.879   4.117   5.036  0.2950  0.2305 -0.7221
   73CHL1    C3 6509   2.997   5.004   3.308  0.3075 -0.0586  0.3441
   73CHL1    H3 6510   3.024   5.080   3.231  2.4406 -1.6755 -0.6104
   73CHL1    O3 6511   2.957   4.886   3.235 -0.3277  0.1528 -0.3964
   73CHL1   H3' 6512   2.872   4.909   3.197 -0.0535 -0.5423 -1.4732
   73CHL1    C4 6513   3.120   4.960   3.387 -0.6595  0.3243 -0.0627
   73CHL1   H4A 6514   3.087   4.883   3.460  0.5054 -2.0825 -1.9243
   73CHL1   H4B 6515   3.199   4.909   3.327  0.4111 -0.4599  1.9028
   73CHL1    C5 6516   3.180   5.071   3.472  0.1855 -0.5898 -0.2403
   73CHL1    C6 6517   3.306   5.119   3.455  0.2590  0.2157  0.0874
   73CHL1    H6 6518   3.366   5.074   3.374  1.7058  1.4295  0.4451
   73CHL1    C7 6519   3.362   5.242   3.524 -0.2622  0.6553 -0.2574
   73CHL1   H7A 6520   3.463   5.224   3.565 -1.6672 -0.7987  2.9319
   73CHL1   H7B 6521   3.372   5.315   3.441  2.8231 -1.5082 -1.9959
   73CHL1    C8 6522   3.272   5.288   3.642 -0.1471  0.4879  0.3256
   73CHL1    H8 6523   3.292   5.226   3.731 -2.3654 -0.4636  0.2192
   73CHL1   C14 6524   3.303   5.434   3.669 -0.1833  0.0573  0.5598
   73CHL1   H14 6525   3.260   5.489   3.582 -1.6868 -0.9924  0.6016
   73CHL1   C15 6526   3.455   5.466   3.684  0.3451  0.1202  0.1698
   73CHL1  H15A 6527   3.480   5.384   3.754 -0.0176 -0.9034 -0.8646
   73CHL1  H15B 6528   3.527   5.462   3.599  1.6819  0.0260  1.2768
   73CHL1   C16 6529   3.454   5.608   3.748  0.2730 -0.5982 -0.1420
   73CHL1  H16A 6530   3.526   5.617   3.832 -0.9024 -0.9923  0.9411
   73CHL1  H16B 6531   3.486   5.686   3.676  1.3576  0.6144  1.5919
   73CHL1   C17 6532   3.303   5.638   3.778  0.4759  0.4504  0.2433
   73CHL1   H17 6533   3.275   5.685   3.682 -0.3127 -2.3001 -0.9848
   73CHL1   C13 6534   3.225   5.496   3.786 -0.1643 -0.2423 -0.1115
   73CHL1   C18 6535   3.250   5.429   3.917 -0.2105 -0.9021 -0.2412
   73CHL1  H18A 6536   3.212   5.324   3.922  0.6456 -1.3976 -2.7636
   73CHL1  H18B 6537   3.359   5.430   3.936 -0.3582  0.4220  0.6277
   73CHL1  H18C 6538   3.201   5.484   4.000  1.2461  0.6432 -0.3448
   73CHL1   C12 6539   3.069   5.490   3.760 -0.2967  0.2890 -0.7448
   73CHL1  H12A 6540   3.009   5.536   3.841 -0.3047 -0.5087 -0.2837
   73CHL1  H12B 6541   3.057   5.561   3.675 -0.2275  1.3053  0.0755
   73CHL1   C11 6542   3.039   5.340   3.729  0.1253  0.2032  0.5484
   73CHL1  H11A 6543   3.037   5.282   3.823  0.1282 -0.4698  0.1417
   73CHL1  H11B 6544   2.932   5.333   3.700 -0.1335 -3.1720  1.8295
   73CHL1    C9 6545   3.121   5.273   3.614 -0.7622  0.0232 -0.2024
   73CHL1    H9 6546   3.105   5.344   3.530  0.3123  0.2711 -0.2055
   73CHL1   C10 6547   3.071   5.137   3.563 -0.1812 -0.4692  0.2169
   73CHL1   C19 6548   3.034   5.051   3.691 -0.3499 -0.5495  0.7050
   73CHL1  H19A 6549   2.994   4.956   3.649 -1.7710 -0.3893  1.6194
   73CHL1  H19B 6550   3.125   5.027   3.750 -0.5714  0.4279  1.4740
   73CHL1  H19C 6551   2.963   5.100   3.761 -0.6091 -0.2258  0.2200
   73CHL1    C1 6552   2.936   5.170   3.486 -0.6663  0.6224  0.3853
   73CHL1   H1A 6553   2.858   5.177   3.564  0.3356 -0.0825  1.4832
   73CHL1   H1B 6554   2.934   5.255   3.414 -0.6293  0.7086  0.4866
   73CHL1    C2 6555   2.884   5.049   3.401  0.0276  0.4364  0.1226
   73CHL1   H2A 6556   2.802   5.090   3.338 -0.9540  0.0865  1.1428
   73CHL1   H2B 6557   2.844   4.966   3.463 -1.8459  1.1928 -0.0075
   73CHL1   C20 6558   3.288   5.740   3.897 -0.4037  0.6567 -0.0427
   73CHL1   H20 6559   3.304   5.679   3.988  0.6559  1.1774  0.1402
   73CHL1   C21 6560   3.138   5.785   3.908  0.9318  0.4447  0.7848
   73CHL1  H21A 6561   3.093   5.789   3.806 -0.4458  0.6720  1.3753
   73CHL1  H21B 6562   3.141   5.887   3.951  1.3023 -0.2396  2.4863
   73CHL1  H21C 6563   3.087   5.709   3.971  1.1679 -1.7060 -1.4414
   73CHL1   C22 6564   3.369   5.860   3.884 -0.5640 -0.1843 -0.1723
   73CHL1  H22A 6565   3.475   5.847   3.852 -0.2085 -0.7265  1.1557
   73CHL1  H22B 6566   3.327   5.929   3.808 -2.0027  0.2832  0.9989
   73CHL1   C23 6567   3.386   5.940   4.018 -0.6553  0.6422 -0.5710
   73CHL1  H23A 6568   3.289   5.983   4.050  0.2935  2.7231 -0.3293
   73CHL1  H23B 6569   3.409   5.870   4.101 -0.6631  1.8886  0.5200
   73CHL1   C24 6570   3.505   6.039   4.020 -0.0957 -0.0716 -0.0927
   73CHL1  H24A 6571   3.522   6.089   4.117  2.1480  0.7551 -0.8597
   73CHL1  H24B 6572   3.601   5.988   3.998 -1.0577 -1.8820 -0.2765
   73CHL1   C25 6573   3.492   6.156   3.916  0.0407  0.4388 -0.0420
   73CHL1   H25 6574   3.453   6.113   3.822 -1.5750 -0.3557  0.9497
   73CHL1   C26 6575   3.390   6.259   3.958  0.9566 -0.2829 -0.0110
   73CHL1  H26A 6576   3.308   6.203   4.008  1.0660 -0.9539 -0.5635
   73CHL1  H26B 6577   3.434   6.325   4.036 -1.8403  2.0924 -0.2897
   73CHL1  H26C 6578   3.353   6.313   3.869  0.1370 -2.9130 -1.3816
   73CHL1   C27 6579   3.628   6.224   3.906 -0.1672  0.6991  0.0878
   73CHL1  H27A 6580   3.614   6.318   3.847  0.0534  0.2542 -0.6871
   73CHL1  H27B 6581   3.678   6.254   4.001  1.0575  0.3289 -0.4265
   73CHL1  H27C 6582   3.690   6.143   3.862 -0.7210 -1.0376  2.3475
   74CHL1    C3 6583   0.638   5.329   3.625  0.6997  0.4068  0.4106
   74CHL1    H3 6584   0.745   5.298   3.621  1.0443  1.6963 -1.2687
   74CHL1    O3 6585   0.576   5.315   3.504 -0.1972  0.7888  0.9456
   74CHL1   H3' 6586   0.505   5.379   3.516  0.9855  2.6792 -1.3210
   74CHL1    C4 6587   0.556   5.254   3.731 -0.1515 -0.1985  0.1986
   74CHL1   H4A 6588   0.454   5.297   3.728  0.2190  0.6961 -0.3047
   74CHL1   H4B 6589   0.550   5.148   3.701  1.4488  0.1012 -1.3838
   74CHL1    C5 6590   0.610   5.262   3.874 -0.4696  0.6038 -0.3911
   74CHL1    C6 6591   0.648   5.154   3.947 -0.2012  0.0422  0.0097
   74CHL1    H6 6592   0.647   5.057   3.895 -0.1818 -0.1966  0.4518
   74CHL1    C7 6593   0.693   5.165   4.095  0.1276 -0.1043  0.0697
   74CHL1   H7A 6594   0.630   5.086   4.140  1.0395 -1.8457 -1.6077
   74CHL1   H7B 6595   0.796   5.129   4.117  0.9205  0.8249 -1.8929
   74CHL1    C8 6596   0.660   5.302   4.165  0.1049  0.4770  0.3132
   74CHL1    H8 6597   0.550   5.295   4.178  0.0868 -3.4755 -0.5686
   74CHL1   C14 6598   0.731   5.324   4.303  0.0769 -0.1347  1.3598
   74CHL1   H14 6599   0.838   5.322   4.274 -0.2862 -2.5779 -0.1303
   74CHL1   C15 6600   0.717   5.212   4.413 -0.3374 -0.2875 -0.4064
   74CHL1  H15A 6601   0.608   5.190   4.420 -0.3439  0.0191  0.6708
   74CHL1  H15B 6602   0.768   5.115   4.394 -1.2211 -0.3627 -2.6754
   74CHL1   C16 6603   0.766   5.285   4.537 -0.0895 -0.2644 -0.6164
   74CHL1  H16A 6604   0.686   5.271   4.613  0.9572 -1.4500  0.3258
   74CHL1  H16B 6605   0.862   5.246   4.577  1.1317  0.1852 -2.9263
   74CHL1   C17 6606   0.786   5.431   4.492 -0.5505 -0.1358 -0.1214
   74CHL1   H17 6607   0.892   5.445   4.462 -0.4635  1.6617  0.8795
   74CHL1   C13 6608   0.696   5.458   4.367 -0.1579  1.4684  0.1893
   74CHL1   C18 6609   0.548   5.467   4.399 -1.1172  0.4307 -1.0716
   74CHL1  H18A 6610   0.476   5.433   4.322 -0.6695 -0.1100 -1.2601
   74CHL1  H18B 6611   0.525   5.423   4.499 -2.2250  0.9680 -1.0756
   74CHL1  H18C 6612   0.517   5.573   4.412 -0.1321  0.7029 -0.8550
   74CHL1   C12 6613   0.740   5.566   4.274  0.2432  0.0212 -0.1391
   74CHL1  H12A 6614   0.709   5.667   4.310  0.1631  0.0459 -0.2748
   74CHL1  H12B 6615   0.851   5.568   4.275  0.3949 -3.1175  1.5024
   74CHL1   C11 6616   0.677   5.556   4.134 -0.2096  0.3946  0.2367
   74CHL1  H11A 6617   0.568   5.572   4.147 -0.1024  0.2856  1.3599
   74CHL1  H11B 6618   0.718   5.630   4.062 -0.1435 -1.7821 -2.0934
   74CHL1    C9 6619   0.690   5.414   4.066 -0.1822  0.8120  0.5201
   74CHL1    H9 6620   0.798   5.404   4.042 -0.5083  0.4081 -0.8472
   74CHL1   C10 6621   0.616   5.406   3.930  0.2825 -0.5494  0.1322
   74CHL1   C19 6622   0.473   5.466   3.947 -0.2421 -0.0098  0.7799
   74CHL1  H19A 6623   0.404   5.444   3.863 -1.1326  2.2886  0.8250
   74CHL1  H19B 6624   0.423   5.417   4.034  0.3507 -1.2318  0.4391
   74CHL1  H19C 6625   0.473   5.576   3.965  0.4133 -0.2429  2.3312
   74CHL1    C1 6626   0.693   5.483   3.816  0.0505  0.2937  0.1291
   74CHL1   H1A 6627   0.691   5.590   3.846 -1.3024  0.2465  0.2653
   74CHL1   H1B 6628   0.797   5.444   3.811  0.6238  1.6759  0.6625
   74CHL1    C2 6629   0.641   5.471   3.670  0.3443 -0.0568  0.4971
   74CHL1   H2A 6630   0.725   5.517   3.614  0.5817 -0.5321  0.4607
   74CHL1   H2B 6631   0.536   5.508   3.667 -0.7031 -2.8222  0.1830
   74CHL1   C20 6632   0.761   5.528   4.610 -0.4065 -0.8322  0.2657
   74CHL1   H20 6633   0.651   5.536   4.617 -0.5347 -0.9107 -1.3110
   74CHL1   C21 6634   0.814   5.668   4.575 -1.0356  0.1237 -0.7144
   74CHL1  H21A 6635   0.759   5.726   4.498 -4.7320 -2.5567 -0.3752
   74CHL1  H21B 6636   0.921   5.667   4.545 -0.0473  0.3881  2.4394
   74CHL1  H21C 6637   0.810   5.723   4.671  1.0186 -0.8499 -0.0211
   74CHL1   C22 6638   0.821   5.481   4.749  0.0885 -0.6200  0.4192
   74CHL1  H22A 6639   0.795   5.377   4.780  0.4018 -0.2225  2.1602
   74CHL1  H22B 6640   0.932   5.489   4.746  0.0996  2.3509  3.0932
   74CHL1   C23 6641   0.786   5.568   4.870  0.4748  0.4812 -0.4768
   74CHL1  H23A 6642   0.760   5.674   4.849  1.6002  0.3568 -2.9464
   74CHL1  H23B 6643   0.701   5.528   4.928  1.6749  0.6165  1.4521
   74CHL1   C24 6644   0.894   5.567   4.980 -0.7062 -0.0758  0.1251
   74CHL1  H24A 6645   0.917   5.462   5.006  1.1474  0.3709  0.4531
   74CHL1  H24B 6646   0.981   5.609   4.923 -2.2101  1.6105 -1.0325
   74CHL1   C25 6647   0.859   5.658   5.095  0.1883 -0.1316 -0.5958
   74CHL1   H25 6648   0.837   5.757   5.051  0.4382 -0.2127 -0.9048
   74CHL1   C26 6649   0.737   5.612   5.173  0.8118  0.2713  0.5547
   74CHL1  H26A 6650   0.654   5.627   5.101  0.4192 -0.2009  0.8983
   74CHL1  H26B 6651   0.755   5.504   5.193 -0.3602  0.1683  1.1661
   74CHL1  H26C 6652   0.712   5.668   5.266 -1.3855  2.1607 -1.0439
   74CHL1   C27 6653   0.980   5.678   5.190 -0.0310  1.0548 -0.7620
   74CHL1  H27A 6654   0.997   5.584   5.247 -1.5160  1.6691  0.7618
   74CHL1  H27B 6655   1.072   5.708   5.135  1.8356 -0.0049  1.6152
   74CHL1  H27C 6656   0.954   5.752   5.268  1.9159 -0.3207  1.3315
   75CHL1    C3 6657   2.741   3.939   3.825 -0.0633 -0.2916 -0.3568
   75CHL1    H3 6658   2.647   3.901   3.871 -1.3788  0.3593 -2.3696
   75CHL1    O3 6659   2.737   3.897   3.687  0.0902 -0.2554 -0.1223
   75CHL1   H3' 6660   2.820   3.935   3.657  1.2611 -3.0550 -0.7258
   75CHL1    C4 6661   2.735   4.086   3.849 -0.3417  0.1239  0.0653
   75CHL1   H4A 6662   2.817   4.140   3.797 -1.0136 -0.4600 -1.6977
   75CHL1   H4B 6663   2.640   4.117   3.799 -0.8124 -1.5454 -0.1300
   75CHL1    C5 6664   2.736   4.122   3.999  0.0514 -0.1708 -0.3539
   75CHL1    C6 6665   2.645   4.198   4.051  0.1606 -0.0665  1.2103
   75CHL1    H6 6666   2.560   4.223   3.985 -1.5765 -3.1118  2.0835
   75CHL1    C7 6667   2.649   4.248   4.195  0.1207  0.6013  1.1346
   75CHL1   H7A 6668   2.621   4.355   4.203  1.5598  0.8821  2.8356
   75CHL1   H7B 6669   2.577   4.202   4.266  0.4708  0.3573  1.3291
   75CHL1    C8 6670   2.783   4.225   4.264  0.6451 -0.9837 -0.4071
   75CHL1    H8 6671   2.853   4.299   4.219 -0.8074  0.9849  0.4057
   75CHL1   C14 6672   2.767   4.255   4.412 -0.6601 -0.3084  0.3810
   75CHL1   H14 6673   2.694   4.176   4.438 -0.2521 -0.7203  0.2864
   75CHL1   C15 6674   2.700   4.382   4.467 -0.1478 -0.1160 -0.0218
   75CHL1  H15A 6675   2.731   4.470   4.406 -0.4558  0.2295  0.3131
   75CHL1  H15B 6676   2.589   4.372   4.460 -0.0206 -2.2377  0.3093
   75CHL1   C16 6677   2.751   4.397   4.610 -0.4880  0.2123 -0.0117
   75CHL1  H16A 6678   2.814   4.488   4.612  0.2637 -0.2827 -0.3009
   75CHL1  H16B 6679   2.666   4.396   4.681  0.8968 -0.9451  1.7182
   75CHL1   C17 6680   2.837   4.264   4.628  0.2655  0.0329 -0.1060
   75CHL1   H17 6681   2.752   4.195   4.644 -0.4949  0.7539 -0.9091
   75CHL1   C13 6682   2.895   4.225   4.491  0.6758 -1.0899 -0.4826
   75CHL1   C18 6683   3.014   4.319   4.454  0.6537  0.2814  0.2873
   75CHL1  H18A 6684   2.986   4.427   4.449 -0.7161 -0.1000 -2.9850
   75CHL1  H18B 6685   3.104   4.304   4.518  1.6925  0.0427 -1.2004
   75CHL1  H18C 6686   3.035   4.298   4.347 -3.4029 -1.1186 -0.4222
   75CHL1   C12 6687   2.919   4.076   4.469  0.7970 -0.1322  0.7129
   75CHL1  H12A 6688   3.001   4.027   4.525  0.6224 -1.7362 -0.3550
   75CHL1  H12B 6689   2.827   4.019   4.496  1.3914 -1.8539 -0.6608
   75CHL1   C11 6690   2.946   4.037   4.320 -0.4707 -1.0754 -0.5600
   75CHL1  H11A 6691   3.042   4.088   4.295 -0.6159  1.8509  3.7247
   75CHL1  H11B 6692   2.969   3.930   4.302  1.0149 -1.0035  0.6872
   75CHL1    C9 6693   2.832   4.084   4.225 -0.7428  0.0509 -0.1640
   75CHL1    H9 6694   2.753   4.015   4.261  0.7489 -0.9741  1.3529
   75CHL1   C10 6695   2.859   4.065   4.080 -0.2670  0.1361  0.8737
   75CHL1   C19 6696   2.993   4.135   4.041  0.1177  0.3366 -0.7521
   75CHL1  H19A 6697   2.995   4.242   4.072 -1.7812  0.8676 -2.2903
   75CHL1  H19B 6698   3.084   4.087   4.082 -0.7247  0.2052  1.0693
   75CHL1  H19C 6699   2.990   4.153   3.931 -2.8163  1.8852 -0.5195
   75CHL1    C1 6700   2.867   3.913   4.041  0.0279 -0.2483 -0.4155
   75CHL1   H1A 6701   2.954   3.873   4.097 -2.2756 -1.1031  2.9252
   75CHL1   H1B 6702   2.776   3.861   4.079 -0.6621  0.1911 -1.4517
   75CHL1    C2 6703   2.874   3.884   3.893 -0.0747  0.2853 -0.5460
   75CHL1   H2A 6704   2.895   3.776   3.877  1.7740  0.4508  0.4005
   75CHL1   H2B 6705   2.957   3.941   3.845  1.3925 -0.5813  0.8584
   75CHL1   C20 6706   2.923   4.255   4.747  0.0596  0.4911  0.1154
   75CHL1   H20 6707   2.985   4.163   4.747 -1.4572 -0.5735  1.5218
   75CHL1   C21 6708   2.823   4.231   4.863  0.1626 -0.2958 -0.0473
   75CHL1  H21A 6709   2.777   4.130   4.875  2.0149 -1.4648 -2.0730
   75CHL1  H21B 6710   2.742   4.306   4.859 -0.9173 -1.4499 -0.5264
   75CHL1  H21C 6711   2.884   4.250   4.954  1.4733 -0.1065 -0.9377
   75CHL1   C22 6712   3.003   4.378   4.773  0.2303 -0.9385  0.0418
   75CHL1  H22A 6713   3.025   4.428   4.676 -1.4999  0.5697  0.3707
   75CHL1  H22B 6714   2.938   4.457   4.816  2.3556  0.8947  0.0709
   75CHL1   C23 6715   3.131   4.368   4.857 -0.2909  0.5249 -0.7085
   75CHL1  H23A 6716   3.110   4.312   4.951 -2.4681  0.2713 -1.2837
   75CHL1  H23B 6717   3.208   4.299   4.815 -1.0299 -0.8647  0.1299
   75CHL1   C24 6718   3.189   4.502   4.902 -0.6473 -0.2164 -0.0506
   75CHL1  H24A 6719   3.108   4.541   4.967 -1.4557 -0.7926 -0.6831
   75CHL1  H24B 6720   3.274   4.485   4.971 -0.2405  0.0609 -0.4724
   75CHL1   C25 6721   3.225   4.608   4.807  0.0508 -0.5751 -0.1012
   75CHL1   H25 6722   3.132   4.654   4.767 -0.4773 -1.2347  0.3439
   75CHL1   C26 6723   3.273   4.730   4.883  0.3420  0.3036  0.6151
   75CHL1  H26A 6724   3.328   4.789   4.806  0.4513 -0.0682  0.4012
   75CHL1  H26B 6725   3.193   4.791   4.929  0.9213  1.3667  0.2517
   75CHL1  H26C 6726   3.339   4.702   4.969  0.0344 -0.2588  0.6742
   75CHL1   C27 6727   3.325   4.567   4.697 -0.2341 -0.2670  0.4065
   75CHL1  H27A 6728   3.266   4.492   4.640 -1.9023  1.4938 -0.2920
   75CHL1  H27B 6729   3.361   4.656   4.642  1.6396 -1.9364 -1.2737
   75CHL1  H27C 6730   3.408   4.515   4.751  0.1363  0.0942  0.1911
   76CHL1    C3 6731   6.536   5.960   3.648 -0.4932 -0.5191  0.3776
   76CHL1    H3 6732   6.546   5.851   3.670  1.8869 -0.2604  0.8447
   76CHL1    O3 6733   6.564   5.981   3.512 -0.1833  0.2535  0.1488
   76CHL1   H3' 6734   6.568   6.077   3.511  0.5366  0.2433  0.9943
   76CHL1    C4 6735   6.398   6.024   3.678  1.0253 -0.6314  0.1731
   76CHL1   H4A 6736   6.388   6.127   3.639 -1.9124 -0.5046  1.0335
   76CHL1   H4B 6737   6.321   5.961   3.629  0.1577 -0.1281  0.8467
   76CHL1    C5 6738   6.365   6.030   3.826 -0.3422  0.1339 -0.3695
   76CHL1    C6 6739   6.251   5.983   3.879  0.5829 -0.2523  0.1708
   76CHL1    H6 6740   6.176   5.946   3.808 -0.4919  1.0499  0.6035
   76CHL1    C7 6741   6.216   5.979   4.026  0.8290  0.2616  0.5988
   76CHL1   H7A 6742   6.109   6.010   4.031  0.9187  0.8870 -0.9498
   76CHL1   H7B 6743   6.223   5.875   4.066  2.8296 -0.7367 -2.0855
   76CHL1    C8 6744   6.306   6.077   4.110 -0.0673  0.1966  0.1665
   76CHL1    H8 6745   6.261   6.178   4.110 -0.7045 -0.0813  0.4605
   76CHL1   C14 6746   6.310   6.034   4.259  0.6763 -0.5495 -0.0684
   76CHL1   H14 6747   6.344   5.928   4.268  0.4056 -0.4854  2.0013
   76CHL1   C15 6748   6.171   6.018   4.329  0.1748  0.0778 -0.5841
   76CHL1  H15A 6749   6.092   6.081   4.282 -1.2275 -0.4561  0.9442
   76CHL1  H15B 6750   6.134   5.913   4.327 -2.5338  0.9442 -3.0668
   76CHL1   C16 6751   6.193   6.059   4.484  0.6880 -0.2925 -0.2837
   76CHL1  H16A 6752   6.149   6.159   4.500  1.6548  0.4347 -1.9274
   76CHL1  H16B 6753   6.166   5.983   4.561  2.9067  2.0968  3.1040
   76CHL1   C17 6754   6.352   6.080   4.493  0.5548  0.2673  0.2850
   76CHL1   H17 6755   6.389   5.977   4.513 -0.4607  0.1156  1.5793
   76CHL1   C13 6756   6.397   6.121   4.347 -0.2660 -0.3855  0.0156
   76CHL1   C18 6757   6.359   6.274   4.347  0.6563  0.4013 -0.1811
   76CHL1  H18A 6758   6.264   6.306   4.393  1.9552  2.6980  1.0904
   76CHL1  H18B 6759   6.443   6.333   4.388 -0.6038  0.1816  2.9773
   76CHL1  H18C 6760   6.353   6.311   4.243 -2.5464  0.6552 -0.0057
   76CHL1   C12 6761   6.542   6.082   4.305  0.3736 -0.2588 -0.7124
   76CHL1  H12A 6762   6.609   6.141   4.371 -0.9545  0.2833  0.1994
   76CHL1  H12B 6763   6.555   5.973   4.324 -2.3058 -1.1838 -3.4490
   76CHL1   C11 6764   6.560   6.120   4.161 -0.1830 -0.2133  0.2633
   76CHL1  H11A 6765   6.565   6.230   4.145 -2.8204  0.0158  0.6918
   76CHL1  H11B 6766   6.661   6.082   4.133 -0.4904 -1.9528  1.4339
   76CHL1    C9 6767   6.454   6.064   4.064 -0.0752 -0.6849  0.5037
   76CHL1    H9 6768   6.460   5.954   4.073 -0.2243 -0.6906  0.5473
   76CHL1   C10 6769   6.482   6.096   3.914 -0.3988  0.6280 -0.3640
   76CHL1   C19 6770   6.466   6.245   3.893  0.3268  0.3569 -0.0677
   76CHL1  H19A 6771   6.468   6.274   3.785 -0.3210 -0.6869 -0.3767
   76CHL1  H19B 6772   6.374   6.282   3.943  0.2458 -0.5580  0.4697
   76CHL1  H19C 6773   6.546   6.304   3.943  0.1823  1.3087 -0.9103
   76CHL1    C1 6774   6.626   6.052   3.875 -0.1644 -0.2376  0.2789
   76CHL1   H1A 6775   6.702   6.115   3.927  0.2361 -0.3036 -0.2180
   76CHL1   H1B 6776   6.631   5.944   3.900  0.7008 -0.3452 -0.3072
   76CHL1    C2 6777   6.648   6.045   3.728  0.4453  0.0577 -0.2599
   76CHL1   H2A 6778   6.746   5.995   3.713 -0.1026 -0.8505 -1.0033
   76CHL1   H2B 6779   6.667   6.145   3.686  0.1045  0.5006  0.6152
   76CHL1   C20 6780   6.387   6.168   4.614  0.0149  0.0334  0.2600
   76CHL1   H20 6781   6.344   6.269   4.600  1.1797  0.3731 -1.1465
   76CHL1   C21 6782   6.539   6.173   4.635  0.1679 -0.6164  0.3927
   76CHL1  H21A 6783   6.589   6.081   4.598 -1.4899 -0.0869 -3.7739
   76CHL1  H21B 6784   6.558   6.177   4.744  0.3374  2.7727  0.3464
   76CHL1  H21C 6785   6.595   6.249   4.576  2.1192 -2.2093  0.0845
   76CHL1   C22 6786   6.324   6.115   4.749  0.3456  0.1036  0.0054
   76CHL1  H22A 6787   6.224   6.070   4.731  0.0692  0.5726  0.3252
   76CHL1  H22B 6788   6.396   6.035   4.776  1.7175  1.3875  0.2831
   76CHL1   C23 6789   6.330   6.211   4.864 -0.1105  0.3203  0.3206
   76CHL1  H23A 6790   6.433   6.251   4.870  0.6861 -1.2257 -1.8634
   76CHL1  H23B 6791   6.265   6.298   4.841  0.3892  0.1803 -1.8019
   76CHL1   C24 6792   6.283   6.137   4.991  0.2637 -0.1861 -0.0600
   76CHL1  H24A 6793   6.349   6.050   5.007 -0.2825 -0.6213 -0.1336
   76CHL1  H24B 6794   6.301   6.210   5.073 -3.1565  0.4238  0.3059
   76CHL1   C25 6795   6.131   6.095   5.003 -0.0962  0.1359  0.3761
   76CHL1   H25 6796   6.113   6.036   4.911  1.3650  0.5539 -0.2112
   76CHL1   C26 6797   6.118   5.989   5.115 -0.0101 -1.0558  0.6279
   76CHL1  H26A 6798   6.010   5.965   5.129  0.0326 -0.8554  1.3864
   76CHL1  H26B 6799   6.177   5.899   5.087 -0.8637 -1.0411 -1.3745
   76CHL1  H26C 6800   6.155   6.028   5.213  0.2827 -0.3732  0.2536
   76CHL1   C27 6801   6.040   6.216   5.010  0.3744  0.1265 -0.8856
   76CHL1  H27A 6802   6.057   6.280   5.099 -1.9080  0.4971 -0.6791
   76CHL1  H27B 6803   6.041   6.269   4.913  0.4884  0.3199 -0.7804
   76CHL1  H27C 6804   5.937   6.189   5.039  0.2069  1.8958  0.3332
   77SOPE     N 6805   5.588   2.839   7.244  0.2490  0.8133 -0.3278
   77SOPE   HN1 6806   5.529   2.780   7.305  0.8215  0.4742 -0.0969
   77SOPE   HN2 6807   5.532   2.879   7.166 -1.0692  0.3268  0.3433
   77SOPE   HN3 6808   5.653   2.777   7.192 -1.7012 -0.9966 -0.7328
   77SOPE   C12 6809   5.670   2.941   7.309  0.4091  0.2272 -0.1925
   77SOPE  H12A 6810   5.736   2.890   7.383  1.0444 -0.0972 -0.9772
   77SOPE  H12B 6811   5.612   3.012   7.372  3.9584  2.2935  1.0079
   77SOPE   C11 6812   5.753   3.019   7.206 -0.7775  0.5830  0.1970
   77SOPE  H11A 6813   5.803   3.098   7.266 -0.0772  0.0806  0.2891
   77SOPE  H11B 6814   5.677   3.064   7.139 -0.2287  3.0820  1.1524
   77SOPE     P 6815   5.842   2.861   7.005  0.3858 -0.4291 -0.7387
   77SOPE   O13 6816   5.976   2.804   6.981 -0.5609  0.0609  0.1654
   77SOPE   O14 6817   5.779   2.949   6.908  0.5581  0.0487  0.5502
   77SOPE   O12 6818   5.854   2.943   7.137 -0.0692 -0.3207 -0.6467
   77SOPE   O11 6819   5.743   2.739   7.040 -0.1590 -0.2681 -0.0930
   77SOPE    C1 6820   5.666   2.679   6.943  0.1576  1.1187  0.4707
   77SOPE    HA 6821   5.600   2.750   6.886 -0.4604  0.0282 -0.2171
   77SOPE    HB 6822   5.589   2.614   6.990  0.4156 -0.2379 -0.8811
   77SOPE    C2 6823   5.745   2.595   6.843  0.5139  0.7261  0.2345
   77SOPE    HS 6824   5.822   2.536   6.897 -0.3827  0.0895  0.8586
   77SOPE   O21 6825   5.816   2.682   6.755 -0.4204  0.5741  0.4780
   77SOPE   C21 6826   5.923   2.620   6.704 -0.4419 -0.6557 -0.7720
   77SOPE   O22 6827   5.956   2.506   6.718  0.5494 -0.1246  0.1517
   77SOPE   C22 6828   6.004   2.728   6.627 -0.1686  1.0746 -0.5232
   77SOPE   H2R 6829   6.003   2.821   6.687  2.3334  0.2414  0.9398
   77SOPE   H2S 6830   5.949   2.736   6.530 -0.5622  1.5121 -0.2667
   77SOPE    C3 6831   5.652   2.495   6.772  0.2239  0.0271 -0.0576
   77SOPE    HX 6832   5.612   2.420   6.844 -0.7270  1.1506  0.6183
   77SOPE    HY 6833   5.706   2.438   6.694  3.2781  2.0948  0.3682
   77SOPE   O31 6834   5.535   2.568   6.720 -0.2387  0.0305 -0.5214
   77SOPE   C31 6835   5.539   2.608   6.595  0.2408  0.1510 -0.9452
   77SOPE   O32 6836   5.633   2.611   6.520  0.3109 -0.2884  0.4894
   77SOPE   C32 6837   5.392   2.635   6.569  0.1819  0.0606 -0.4424
   77SOPE   H2X 6838   5.346   2.685   6.657 -0.4681  3.3615 -2.4883
   77SOPE   H2Y 6839   5.349   2.534   6.551 -1.2137  0.1173  2.0803
   77SOPE   C23 6840   6.151   2.689   6.592 -0.2051  0.1979 -0.2222
   77SOPE   H3R 6841   6.143   2.614   6.511 -1.1483  0.8370 -0.7407
   77SOPE   H3S 6842   6.194   2.627   6.673 -0.5346  0.9425  0.5436
   77SOPE   C24 6843   6.231   2.809   6.535  0.1839  0.0146 -0.5124
   77SOPE   H4R 6844   6.154   2.884   6.505 -0.0944  1.1374  2.5794
   77SOPE   H4S 6845   6.294   2.864   6.608  0.4425 -0.3272 -0.4796
   77SOPE   C25 6846   6.324   2.763   6.425  0.5194 -0.4883  0.8477
   77SOPE   H5R 6847   6.398   2.846   6.427  0.6425 -0.5689  0.0134
   77SOPE   H5S 6848   6.372   2.667   6.450  2.2317  0.5242  1.5985
   77SOPE   C26 6849   6.259   2.753   6.284  0.1813 -0.4083  0.0972
   77SOPE   H6R 6850   6.183   2.672   6.283 -1.2279  0.8589 -0.2571
   77SOPE   H6S 6851   6.205   2.850   6.273 -1.5995 -1.4679 -0.8831
   77SOPE   C27 6852   6.365   2.750   6.178 -0.4829 -0.0335 -0.4436
   77SOPE   H7R 6853   6.424   2.845   6.181  2.4815 -1.7457 -0.6733
   77SOPE   H7S 6854   6.437   2.668   6.200 -1.6528 -0.7353  0.9008
   77SOPE   C28 6855   6.317   2.728   6.032  0.3469 -0.0478 -0.1931
   77SOPE   H8R 6856   6.267   2.629   6.028  2.1173 -0.9304 -3.1598
   77SOPE   H8S 6857   6.241   2.804   6.005  1.8926  1.6481  0.0134
   77SOPE   C29 6858   6.429   2.732   5.928 -1.0919 -0.4160  0.3042
   77SOPE   H91 6859   6.522   2.686   5.964 -0.9298 -0.7787 -0.5536
   77SOPE  C210 6860   6.422   2.798   5.814 -0.3383 -0.1266 -0.1164
   77SOPE  H101 6861   6.504   2.798   5.741 -2.1994  0.1940 -2.3179
   77SOPE  C211 6862   6.295   2.872   5.765 -0.2828  0.3811 -0.6523
   77SOPE  H11R 6863   6.296   2.975   5.807  1.7705  0.7938 -1.5632
   77SOPE  H11S 6864   6.206   2.811   5.790 -0.4390  0.8963  0.0744
   77SOPE  C212 6865   6.298   2.890   5.610 -0.0032  0.4603 -0.1857
   77SOPE  H12R 6866   6.196   2.929   5.589 -0.7995 -2.2353 -1.8458
   77SOPE  H12S 6867   6.294   2.797   5.549  2.0535  1.2661 -1.6656
   77SOPE  C213 6868   6.397   2.990   5.548 -0.4923  0.3328  0.3151
   77SOPE  H13R 6869   6.500   2.950   5.558 -0.2500  0.6706 -0.7452
   77SOPE  H13S 6870   6.394   3.083   5.610  0.4035 -0.5935  1.8288
   77SOPE  C214 6871   6.350   3.025   5.407  0.1471  0.0470 -0.0946
   77SOPE  H14R 6872   6.367   3.132   5.381 -1.3782  0.5023  0.6456
   77SOPE  H14S 6873   6.240   3.015   5.396  0.3191 -1.8286 -0.3580
   77SOPE  C215 6874   6.424   2.933   5.307 -0.4477  0.0765 -0.7059
   77SOPE  H15R 6875   6.386   2.832   5.334  0.2505 -0.0248 -0.0688
   77SOPE  H15S 6876   6.535   2.929   5.314 -0.4422  1.5403  0.5507
   77SOPE  C216 6877   6.386   2.940   5.156  0.4284  0.4960 -1.1891
   77SOPE  H16R 6878   6.279   2.908   5.158  0.3441  0.7749  0.8216
   77SOPE  H16S 6879   6.444   2.858   5.107 -0.7653  0.1932 -2.1527
   77SOPE  C217 6880   6.406   3.062   5.080  0.0192 -0.0760 -1.2347
   77SOPE  H17R 6881   6.509   3.056   5.038  1.3390  1.2571  1.5506
   77SOPE  H17S 6882   6.398   3.144   5.154  0.1623  0.2415 -1.5672
   77SOPE  C218 6883   6.303   3.073   4.967  0.3093  0.1994 -0.1982
   77SOPE  H18R 6884   6.200   3.060   5.006  0.4904  0.9008  0.5451
   77SOPE  H18S 6885   6.329   3.003   4.885 -0.9188 -1.3559  0.6900
   77SOPE  H18T 6886   6.289   3.178   4.933 -1.5170 -0.6070 -2.1671
   77SOPE   C33 6887   5.361   2.723   6.449 -0.5057 -0.1841  0.3078
   77SOPE   H3X 6888   5.436   2.805   6.441 -1.1826  0.5756  1.4596
   77SOPE   H3Y 6889   5.262   2.771   6.464 -0.8357  0.5136 -3.3152
   77SOPE   C34 6890   5.364   2.639   6.315  0.0925  0.1520  0.0860
   77SOPE   H4X 6891   5.279   2.568   6.302  0.5102 -0.3475  0.0576
   77SOPE   H4Y 6892   5.458   2.582   6.329 -0.0335 -0.0373  0.1547
   77SOPE   C35 6893   5.376   2.721   6.189 -0.9670  0.1063  0.2482
   77SOPE   H5X 6894   5.471   2.778   6.197 -0.4686 -0.2538 -2.3897
   77SOPE   H5Y 6895   5.293   2.794   6.178  1.5651  2.8454 -2.6083
   77SOPE   C36 6896   5.376   2.620   6.068  0.4288 -0.1713 -0.5174
   77SOPE   H6X 6897   5.269   2.593   6.056 -0.1994 -0.8699  4.6282
   77SOPE   H6Y 6898   5.444   2.536   6.092  0.6975 -0.9454 -3.6130
   77SOPE   C37 6899   5.435   2.680   5.940 -0.3289 -0.5144 -0.1850
   77SOPE   H7X 6900   5.543   2.699   5.954 -0.7037  0.5180  1.5200
   77SOPE   H7Y 6901   5.398   2.782   5.916 -1.1443 -1.4072 -3.2142
   77SOPE   C38 6902   5.429   2.589   5.813 -0.1260  0.0177 -0.5995
   77SOPE   H8X 6903   5.321   2.570   5.796 -0.7613  2.1447  0.6639
   77SOPE   H8Y 6904   5.482   2.497   5.843 -0.3062 -0.0874 -0.6028
   77SOPE   C39 6905   5.507   2.658   5.691  0.0633 -0.4231 -0.0039
   77SOPE   H9X 6906   5.608   2.702   5.702  0.9405 -2.4523  0.5945
   77SOPE   H9Y 6907   5.449   2.751   5.671  0.7336 -0.0591 -0.2839
   77SOPE  C310 6908   5.498   2.560   5.570  0.0526 -0.0110 -0.4263
   77SOPE  H10X 6909   5.394   2.520   5.558  0.2025 -0.5556  0.0653
   77SOPE  H10Y 6910   5.557   2.472   5.603 -1.4251 -0.3526  1.4530
   77SOPE  C311 6911   5.550   2.615   5.437 -0.3954  0.6038 -0.3383
   77SOPE  H11X 6912   5.575   2.526   5.376 -0.0577 -0.4128  1.2183
   77SOPE  H11Y 6913   5.649   2.660   5.459 -0.4144  1.2541 -1.5186
   77SOPE  C312 6914   5.456   2.707   5.356  0.6122  0.8873 -0.4561
   77SOPE  H12X 6915   5.405   2.779   5.423  0.7161  1.4103 -0.9324
   77SOPE  H12Y 6916   5.382   2.634   5.318 -0.9427  2.8331 -1.2748
   77SOPE  C313 6917   5.524   2.772   5.240  0.3034  0.1694 -0.3938
   77SOPE  H13X 6918   5.571   2.861   5.288 -0.6955  1.0249 -0.9524
   77SOPE  H13Y 6919   5.454   2.808   5.161  0.3247 -0.2867 -0.6262
   77SOPE  C314 6920   5.622   2.688   5.157  0.4585  0.4976 -0.0125
   77SOPE  H14X 6921   5.574   2.591   5.137 -1.8374  1.2026  1.6738
   77SOPE  H14Y 6922   5.701   2.650   5.225 -1.9911  0.2421  2.8793
   77SOPE  C315 6923   5.681   2.752   5.026 -0.0168  0.1630 -0.3284
   77SOPE  H15X 6924   5.604   2.820   4.984  0.7329  0.7938 -0.6971
   77SOPE  H15Y 6925   5.692   2.669   4.953 -1.1965 -2.8259  2.6174
   77SOPE  C316 6926   5.818   2.827   5.051  0.3659 -0.6146  0.1246
   77SOPE  H16X 6927   5.850   2.887   4.963  0.7747  0.9844  1.3126
   77SOPE  H16Y 6928   5.899   2.752   5.053  0.7649 -0.1695  0.8534
   77SOPE  C317 6929   5.821   2.910   5.179 -0.4685  0.3121  0.6457
   77SOPE  H17X 6930   5.804   2.843   5.266  2.2829 -1.5565 -0.1345
   77SOPE  H17Y 6931   5.742   2.987   5.169  2.1409  3.0335 -0.8129
   77SOPE  C318 6932   5.952   2.993   5.198 -1.1557  0.2530  0.3567
   77SOPE  H18X 6933   5.936   3.056   5.288 -0.6638  0.0080  0.6201
   77SOPE  H18Y 6934   5.965   3.054   5.106 -2.4476 -0.8424 -0.6091
   77SOPE  H18Z 6935   6.045   2.937   5.222 -0.1882  1.7223  0.1895
   78SOPE     N 6936   5.137   3.612   7.395  0.2014  0.2499 -0.3924
   78SOPE   HN1 6937   5.116   3.678   7.317 -0.7873  2.6960  1.8086
   78SOPE   HN2 6938   5.055   3.608   7.459  0.8429 -2.8026  0.3830
   78SOPE   HN3 6939   5.220   3.645   7.448 -0.9620 -1.6151  2.8389
   78SOPE   C12 6940   5.155   3.466   7.355 -0.7992  0.4858  0.2736
   78SOPE  H12A 6941   5.205   3.413   7.438  1.6103  0.1884 -1.2830
   78SOPE  H12B 6942   5.221   3.455   7.266  0.5063 -0.5765  1.3414
   78SOPE   C11 6943   5.019   3.392   7.326 -0.2625 -0.5684 -0.8500
   78SOPE  H11A 6944   4.951   3.377   7.412  0.1099 -2.4576 -0.8597
   78SOPE  H11B 6945   5.049   3.293   7.287 -0.4151 -0.3512 -1.5461
   78SOPE     P 6946   4.982   3.414   7.065 -0.1264 -0.1845  0.1496
   78SOPE   O13 6947   4.880   3.328   6.994  0.4864 -0.1903  0.0430
   78SOPE   O14 6948   5.120   3.367   7.063 -0.3090 -0.3805 -0.7541
   78SOPE   O12 6949   4.944   3.448   7.215  0.1750  0.4176  0.0461
   78SOPE   O11 6950   4.977   3.555   6.998 -0.5949 -0.7921 -0.6173
   78SOPE    C1 6951   4.861   3.611   6.924 -0.7904  0.4557 -0.6541
   78SOPE    HA 6952   4.810   3.687   6.987  1.2313  0.2216  1.3934
   78SOPE    HB 6953   4.786   3.532   6.902 -0.4803  0.1535 -0.6315
   78SOPE    C2 6954   4.896   3.650   6.777 -0.2241  0.7944 -0.1755
   78SOPE    HS 6955   4.795   3.674   6.737 -0.7083 -1.2714 -0.3027
   78SOPE   O21 6956   4.967   3.550   6.706  0.3376  0.5565 -0.1584
   78SOPE   C21 6957   4.909   3.431   6.666  1.3171  0.2470  0.3551
   78SOPE   O22 6958   4.793   3.400   6.692 -0.7268  0.6736  0.2077
   78SOPE   C22 6959   5.014   3.347   6.592  0.7084  0.7246  0.7114
   78SOPE   H2R 6960   5.021   3.252   6.648  1.7274 -0.4367 -1.2956
   78SOPE   H2S 6961   5.111   3.402   6.588  0.7105  0.6595 -0.6410
   78SOPE    C3 6962   4.971   3.785   6.766  0.4206  0.5751  0.8360
   78SOPE    HX 6963   5.033   3.789   6.857  0.6579  1.3299  0.6483
   78SOPE    HY 6964   4.890   3.862   6.774 -0.2283 -0.0518  0.4051
   78SOPE   O31 6965   5.040   3.806   6.645 -0.2293 -0.0355  0.0319
   78SOPE   C31 6966   5.164   3.751   6.642  0.3405  0.1327 -0.3014
   78SOPE   O32 6967   5.229   3.711   6.736  0.6578 -0.5244 -0.6798
   78SOPE   C32 6968   5.206   3.743   6.491  0.4518  0.8272 -0.3763
   78SOPE   H2X 6969   5.129   3.776   6.418  1.6461  1.6219 -1.3201
   78SOPE   H2Y 6970   5.216   3.634   6.476 -0.0010  0.4837  1.5433
   78SOPE   C23 6971   4.982   3.333   6.446 -0.0673  0.2226 -0.4843
   78SOPE   H3R 6972   4.875   3.307   6.431 -0.0309 -0.6031  0.5859
   78SOPE   H3S 6973   5.043   3.248   6.408 -0.1298 -0.6497  1.2898
   78SOPE   C24 6974   5.017   3.457   6.364  0.2911 -0.0480 -0.7443
   78SOPE   H4R 6975   4.977   3.549   6.411 -0.7705 -1.4857  1.3472
   78SOPE   H4S 6976   5.126   3.476   6.361  0.4686 -1.0641 -1.0011
   78SOPE   C25 6977   4.985   3.431   6.216  0.6369 -0.7040  0.3872
   78SOPE   H5R 6978   5.050   3.349   6.179 -0.6522 -1.2460 -0.7851
   78SOPE   H5S 6979   4.877   3.406   6.224 -0.5669  3.4002 -0.8292
   78SOPE   C26 6980   4.994   3.550   6.132 -0.4114 -0.1998 -0.1841
   78SOPE   H6R 6981   4.945   3.525   6.035 -1.8119 -1.8638  0.8818
   78SOPE   H6S 6982   4.954   3.641   6.180  1.3187  1.1792 -1.2517
   78SOPE   C27 6983   5.144   3.575   6.088  0.0142  0.0898 -0.4667
   78SOPE   H7R 6984   5.213   3.607   6.169 -0.8936 -0.7400  0.6765
   78SOPE   H7S 6985   5.185   3.483   6.040  3.4632  0.9247  0.5935
   78SOPE   C28 6986   5.160   3.676   5.976 -0.1659  0.3673  0.5480
   78SOPE   H8R 6987   5.070   3.676   5.911  0.6424  1.7092 -0.6284
   78SOPE   H8S 6988   5.174   3.780   6.010  1.3632  0.8516 -1.3224
   78SOPE   C29 6989   5.288   3.651   5.895  0.1357  0.4018 -0.5024
   78SOPE   H91 6990   5.375   3.682   5.955  1.1350  2.2376 -2.7365
   78SOPE  C210 6991   5.301   3.627   5.766 -0.4177 -0.0467  0.4088
   78SOPE  H101 6992   5.401   3.607   5.724  1.0738  0.9097  3.2511
   78SOPE  C211 6993   5.194   3.607   5.666 -0.4576 -0.0078 -0.2724
   78SOPE  H11R 6994   5.095   3.616   5.715 -0.4086  1.4841 -0.4242
   78SOPE  H11S 6995   5.194   3.503   5.627  0.3622 -1.4150  3.0610
   78SOPE  C212 6996   5.194   3.705   5.542 -0.4148  0.3509 -0.9506
   78SOPE  H12R 6997   5.294   3.703   5.494 -0.3237  0.8526 -0.7797
   78SOPE  H12S 6998   5.173   3.798   5.599  0.7143 -0.9778  1.8128
   78SOPE  C213 6999   5.082   3.681   5.448 -0.4587  0.3606  0.0022
   78SOPE  H13R 7000   5.081   3.776   5.390 -0.6103 -0.3730 -1.2414
   78SOPE  H13S 7001   4.987   3.671   5.504 -0.8677 -0.4696 -0.8216
   78SOPE  C214 7002   5.084   3.558   5.359 -0.1367  0.8097 -0.0763
   78SOPE  H14R 7003   5.038   3.475   5.418  0.6030 -0.1426 -0.8168
   78SOPE  H14S 7004   5.186   3.528   5.329 -0.5032 -1.0160  0.3615
   78SOPE  C215 7005   5.006   3.582   5.237 -0.0182  0.2785 -0.1838
   78SOPE  H15R 7006   4.919   3.646   5.261 -0.0961  0.9679 -2.1502
   78SOPE  H15S 7007   4.973   3.486   5.192  0.2789  1.2799 -2.6940
   78SOPE  C216 7008   5.095   3.647   5.120  0.4822 -0.1138 -0.2910
   78SOPE  H16R 7009   5.175   3.572   5.103 -0.9592 -2.0198  0.8159
   78SOPE  H16S 7010   5.135   3.745   5.155  0.0228 -0.1318  0.3159
   78SOPE  C217 7011   5.011   3.644   4.991 -0.0536  0.2131 -0.2607
   78SOPE  H17R 7012   4.907   3.682   5.006 -0.2388  0.4999 -2.0782
   78SOPE  H17S 7013   4.997   3.536   4.969  0.1142 -0.2883  1.8659
   78SOPE  C218 7014   5.071   3.710   4.874  0.4395  0.1792 -0.2726
   78SOPE  H18R 7015   5.178   3.682   4.858  0.7966  2.3446 -2.2089
   78SOPE  H18S 7016   5.068   3.820   4.881 -0.0624  0.3405 -2.4031
   78SOPE  H18T 7017   5.015   3.692   4.780 -1.6567  3.3200  0.2363
   78SOPE   C33 7018   5.343   3.808   6.464 -0.6367  0.2088 -0.0537
   78SOPE   H3X 7019   5.422   3.741   6.504 -1.9177 -2.4171 -1.5963
   78SOPE   H3Y 7020   5.347   3.905   6.517  0.8047  1.2816 -1.9982
   78SOPE   C34 7021   5.380   3.840   6.315  0.0687 -0.2112  0.9065
   78SOPE   H4X 7022   5.367   3.746   6.257 -1.9846 -0.3481  1.5086
   78SOPE   H4Y 7023   5.486   3.867   6.297 -0.2600  0.4166 -0.1763
   78SOPE   C35 7024   5.292   3.944   6.265  0.4058 -0.2737  0.8743
   78SOPE   H5X 7025   5.296   4.030   6.335  0.6947 -0.4960  1.1279
   78SOPE   H5Y 7026   5.185   3.915   6.262  0.5066 -0.7305 -2.3101
   78SOPE   C36 7027   5.333   3.999   6.132 -0.1149  0.0187 -0.0503
   78SOPE   H6X 7028   5.340   3.924   6.050  0.2880 -0.7663  0.6750
   78SOPE   H6Y 7029   5.437   4.032   6.153 -0.2817  0.6043 -0.1413
   78SOPE   C37 7030   5.246   4.113   6.087 -0.0081  0.7137 -0.8406
   78SOPE   H7X 7031   5.244   4.187   6.169 -0.6475  0.2395 -0.4277
   78SOPE   H7Y 7032   5.141   4.087   6.065 -0.7047  2.4914  0.2105
   78SOPE   C38 7033   5.285   4.175   5.951 -0.9145  0.3564  0.5661
   78SOPE   H8X 7034   5.360   4.252   5.979 -2.0209  1.1596  1.4106
   78SOPE   H8Y 7035   5.199   4.222   5.899  0.0977  1.8962  0.1885
   78SOPE   C39 7036   5.344   4.086   5.844  0.1166 -0.0031 -0.1169
   78SOPE   H9X 7037   5.257   4.024   5.814 -0.5587 -0.3949  2.4176
   78SOPE   H9Y 7038   5.423   4.015   5.879 -1.2103 -1.0439  0.8581
   78SOPE  C310 7039   5.407   4.172   5.720  0.6342 -0.1469  0.0418
   78SOPE  H10X 7040   5.474   4.246   5.768  0.7488 -0.5971  0.5962
   78SOPE  H10Y 7041   5.325   4.236   5.682  1.3378  0.2277 -0.8582
   78SOPE  C311 7042   5.477   4.095   5.610 -0.0062 -0.7871 -0.1414
   78SOPE  H11X 7043   5.551   4.035   5.667  2.0326  1.8215  0.1001
   78SOPE  H11Y 7044   5.538   4.169   5.554  1.5604 -1.9888 -0.1034
   78SOPE  C312 7045   5.387   4.018   5.515 -0.4239 -0.1274  0.0331
   78SOPE  H12X 7046   5.337   3.936   5.572  2.5645 -1.9867  0.1826
   78SOPE  H12Y 7047   5.454   3.963   5.446 -0.2419 -0.5392  0.5291
   78SOPE  C313 7048   5.283   4.099   5.435 -0.3761  0.2329 -0.3386
   78SOPE  H13X 7049   5.207   4.149   5.499  0.3510  1.9942 -0.7767
   78SOPE  H13Y 7050   5.221   4.036   5.368  0.5424 -0.8202 -0.2179
   78SOPE  C314 7051   5.350   4.190   5.332 -0.4627 -0.4635 -0.2747
   78SOPE  H14X 7052   5.397   4.270   5.394 -0.8578 -1.9723  2.1242
   78SOPE  H14Y 7053   5.267   4.227   5.269 -1.0253 -1.1058  0.0766
   78SOPE  C315 7054   5.454   4.122   5.234  0.4758 -1.1267 -0.4290
   78SOPE  H15X 7055   5.400   4.047   5.173  1.4055 -2.4208  0.2999
   78SOPE  H15Y 7056   5.536   4.068   5.285 -0.5231 -0.6140  1.8450
   78SOPE  C316 7057   5.492   4.234   5.133 -0.2239 -0.1674 -0.9474
   78SOPE  H16X 7058   5.571   4.293   5.185 -0.8924  0.1784 -0.3118
   78SOPE  H16Y 7059   5.409   4.308   5.124 -1.4682 -0.8215  3.2160
   78SOPE  C317 7060   5.523   4.180   4.991  0.3920 -0.0815  0.1722
   78SOPE  H17X 7061   5.471   4.083   4.976 -1.0787  0.6658  0.1850
   78SOPE  H17Y 7062   5.629   4.160   5.016  0.4037  0.1927  0.3493
   78SOPE  C318 7063   5.499   4.271   4.873  0.2418  0.4450 -0.4601
   78SOPE  H18X 7064   5.396   4.261   4.833  0.1694 -1.2833  0.0677
   78SOPE  H18Y 7065   5.571   4.245   4.792 -0.4969  0.2398 -1.0638
   78SOPE  H18Z 7066   5.516   4.376   4.905  0.6067  0.6913 -1.4160
   79SOPE     N 7067   1.229   0.430   7.725  0.1542 -0.2708 -0.1034
   79SOPE   HN1 7068   1.198   0.330   7.726 -1.3182  0.1648  1.2034
   79SOPE   HN2 7069   1.333   0.430   7.731  0.3607  1.4359 -2.3375
   79SOPE   HN3 7070   1.191   0.483   7.807 -0.5679  1.5111 -1.5321
   79SOPE   C12 7071   1.191   0.482   7.588 -0.0617  0.0179  0.1393
   79SOPE  H12A 7072   1.239   0.582   7.585  0.0523 -0.0509 -2.1133
   79SOPE  H12B 7073   1.080   0.494   7.586 -0.2577 -1.5832  0.3657
   79SOPE   C11 7074   1.238   0.390   7.471 -0.0866  0.3599 -0.0699
   79SOPE  H11A 7075   1.226   0.438   7.371  0.3518  0.9889  0.1783
   79SOPE  H11B 7076   1.182   0.295   7.487  1.4832 -0.3147  1.8283
   79SOPE     P 7077   1.429   0.214   7.431  0.0123 -0.1212  0.2786
   79SOPE   O13 7078   1.338   0.108   7.468  0.2720  0.3970  0.0028
   79SOPE   O14 7079   1.568   0.187   7.478 -0.0449 -0.1435 -0.0392
   79SOPE   O12 7080   1.378   0.348   7.497 -0.2420 -0.2438  0.1253
   79SOPE   O11 7081   1.428   0.229   7.273 -0.1643  0.3549  0.4956
   79SOPE    C1 7082   1.438   0.357   7.207  0.0148  0.5047 -0.0285
   79SOPE    HA 7083   1.526   0.358   7.140  1.4270 -2.7010  1.5772
   79SOPE    HB 7084   1.437   0.438   7.283  0.5184  1.8183 -1.3638
   79SOPE    C2 7085   1.327   0.375   7.105  0.6057 -0.1907 -0.2092
   79SOPE    HS 7086   1.231   0.376   7.162 -0.2862  1.6993 -1.6349
   79SOPE   O21 7087   1.325   0.257   7.025  0.4495  0.0559 -0.3484
   79SOPE   C21 7088   1.224   0.229   6.952  0.4855 -0.8664  0.1277
   79SOPE   O22 7089   1.119   0.299   6.944 -0.3353  0.4985 -0.0219
   79SOPE   C22 7090   1.243   0.107   6.869 -0.0293 -0.0319  0.1999
   79SOPE   H2R 7091   1.165   0.035   6.903 -0.0991  1.0804  2.5915
   79SOPE   H2S 7092   1.342   0.062   6.892 -0.2935 -0.8502 -0.2316
   79SOPE    C3 7093   1.339   0.507   7.024  0.2245  0.4225 -0.5536
   79SOPE    HX 7094   1.343   0.583   7.104 -0.2383  0.4023 -0.5087
   79SOPE    HY 7095   1.240   0.517   6.974 -0.1232 -0.5989 -0.0979
   79SOPE   O31 7096   1.454   0.525   6.949 -0.1369  0.2957 -0.2939
   79SOPE   C31 7097   1.456   0.465   6.831 -0.0421  0.8373 -0.0372
   79SOPE   O32 7098   1.360   0.411   6.774 -0.2300 -0.5339 -0.5542
   79SOPE   C32 7099   1.595   0.464   6.769 -0.3242 -0.4061 -0.0767
   79SOPE   H2X 7100   1.669   0.456   6.851  0.3864  0.9511 -0.5611
   79SOPE   H2Y 7101   1.616   0.559   6.715  0.9687 -1.6826 -1.9514
   79SOPE   C23 7102   1.235   0.114   6.711 -0.6351  0.1172  0.3849
   79SOPE   H3R 7103   1.298   0.196   6.670  0.8635 -2.9032 -4.0826
   79SOPE   H3S 7104   1.126   0.130   6.693 -1.0998 -1.3808  1.6236
   79SOPE   C24 7105   1.282  -0.020   6.645 -0.0821 -0.5849  0.6237
   79SOPE   H4R 7106   1.389  -0.008   6.621 -0.2473  0.9619  0.5356
   79SOPE   H4S 7107   1.282  -0.106   6.716 -1.6507  1.2003  2.9372
   79SOPE   C25 7108   1.210  -0.046   6.514  0.7153  0.3737 -0.1956
   79SOPE   H5R 7109   1.231  -0.153   6.494 -1.4094  0.6013 -5.0700
   79SOPE   H5S 7110   1.109  -0.052   6.558  0.8089 -0.5412 -0.0874
   79SOPE   C26 7111   1.237   0.054   6.398 -1.2401 -0.2043  0.1877
   79SOPE   H6R 7112   1.228   0.158   6.435 -3.0475  0.0038 -0.7280
   79SOPE   H6S 7113   1.342   0.038   6.365 -0.4853 -0.7590  2.6575
   79SOPE   C27 7114   1.142   0.057   6.277  0.4495 -0.8657  0.2787
   79SOPE   H7R 7115   1.041   0.051   6.323  0.4450 -2.4980  0.0900
   79SOPE   H7S 7116   1.152   0.154   6.224 -0.1308 -0.7076  0.4513
   79SOPE   C28 7117   1.154  -0.059   6.171  0.2728 -0.4519  1.1389
   79SOPE   H8R 7118   1.166  -0.156   6.224  3.4715 -0.6511  0.2512
   79SOPE   H8S 7119   1.058  -0.054   6.115  0.4369 -1.7659  0.6948
   79SOPE   C29 7120   1.267  -0.042   6.065  0.6106 -0.1039 -0.1433
   79SOPE   H91 7121   1.353  -0.109   6.074  1.4873  0.7461 -1.7197
   79SOPE  C210 7122   1.275   0.053   5.969  0.1834 -0.0693 -0.0307
   79SOPE  H101 7123   1.359   0.058   5.898 -1.2739  3.0502 -1.7585
   79SOPE  C211 7124   1.177   0.168   5.933  0.0537  0.3020 -0.0568
   79SOPE  H11R 7125   1.220   0.266   5.961 -1.3567  1.2444 -1.0559
   79SOPE  H11S 7126   1.090   0.153   6.001  1.0457 -3.7065  0.6069
   79SOPE  C212 7127   1.133   0.167   5.780  0.4290 -0.4666 -0.5336
   79SOPE  H12R 7128   1.042   0.230   5.772  0.7364 -0.1104 -1.2942
   79SOPE  H12S 7129   1.100   0.066   5.750  1.3087 -1.4761  1.6477
   79SOPE  C213 7130   1.230   0.225   5.686  0.1015  0.2245  0.1964
   79SOPE  H13R 7131   1.304   0.143   5.667 -0.6373 -0.3261 -0.3926
   79SOPE  H13S 7132   1.283   0.317   5.718 -1.4556  0.9287  0.8198
   79SOPE  C214 7133   1.163   0.263   5.554  0.0863 -0.1726 -0.3395
   79SOPE  H14R 7134   1.089   0.342   5.578  0.0212 -0.0979 -0.7749
   79SOPE  H14S 7135   1.102   0.176   5.522 -0.8397 -0.9179  2.9905
   79SOPE  C215 7136   1.256   0.314   5.445 -0.6947  0.2978  0.0406
   79SOPE  H15R 7137   1.343   0.246   5.449  0.1125  1.2204 -1.1339
   79SOPE  H15S 7138   1.297   0.416   5.462  0.8111 -0.1428 -0.8078
   79SOPE  C216 7139   1.197   0.308   5.303  0.6836  0.5286  0.3024
   79SOPE  H16R 7140   1.096   0.352   5.302  1.2051  1.7762  0.6882
   79SOPE  H16S 7141   1.189   0.203   5.267  0.4459  0.7870 -0.4070
   79SOPE  C217 7142   1.282   0.378   5.195 -0.2975  1.2040  0.1235
   79SOPE  H17R 7143   1.357   0.299   5.172 -1.8198  0.0195 -1.0457
   79SOPE  H17S 7144   1.333   0.465   5.241 -1.9708  1.6083  1.2908
   79SOPE  C218 7145   1.186   0.423   5.087  0.0256 -0.0546  0.2388
   79SOPE  H18R 7146   1.125   0.341   5.043 -1.6570  0.6057  1.2777
   79SOPE  H18S 7147   1.242   0.479   5.009  1.0249 -0.5404  0.5914
   79SOPE  H18T 7148   1.110   0.490   5.131 -0.6652 -0.4410 -0.3327
   79SOPE   C33 7149   1.606   0.355   6.662 -0.2040 -0.5353  0.1798
   79SOPE   H3X 7150   1.596   0.251   6.701  1.1012 -0.5321  0.5739
   79SOPE   H3Y 7151   1.714   0.348   6.636 -0.0011  0.7371  0.6331
   79SOPE   C34 7152   1.527   0.375   6.534 -0.5041  0.4843  0.8198
   79SOPE   H4X 7153   1.556   0.473   6.489 -3.0275 -0.0384 -2.2901
   79SOPE   H4Y 7154   1.417   0.381   6.552 -0.8166  0.8932 -1.0151
   79SOPE   C35 7155   1.570   0.264   6.433  0.1261 -0.9046 -0.1088
   79SOPE   H5X 7156   1.540   0.164   6.471 -4.6936  0.4585  0.2869
   79SOPE   H5Y 7157   1.681   0.261   6.429  0.5408 -0.2651  4.5096
   79SOPE   C36 7158   1.524   0.294   6.291  0.4516 -0.9105 -0.3787
   79SOPE   H6X 7159   1.522   0.404   6.273  1.8619 -0.8373 -0.2538
   79SOPE   H6Y 7160   1.422   0.253   6.280  0.5314 -1.5293  0.9483
   79SOPE   C37 7161   1.620   0.243   6.183  0.6371 -0.3287 -0.1456
   79SOPE   H7X 7162   1.638   0.133   6.182  1.2647 -0.2272 -0.0173
   79SOPE   H7Y 7163   1.719   0.282   6.211 -0.3360 -0.4556  4.1383
   79SOPE   C38 7164   1.571   0.285   6.048  0.4627  0.5092 -0.1153
   79SOPE   H8X 7165   1.538   0.391   6.056 -0.7719  0.0646  0.9020
   79SOPE   H8Y 7166   1.480   0.229   6.020  1.5182 -1.9479  1.0992
   79SOPE   C39 7167   1.679   0.285   5.941 -0.2931  0.3758  0.3519
   79SOPE   H9X 7168   1.706   0.185   5.900 -0.0636  0.8703 -0.7299
   79SOPE   H9Y 7169   1.771   0.335   5.978 -1.4247  1.7332  1.4308
   79SOPE  C310 7170   1.638   0.366   5.818  0.3665 -0.3026  0.0419
   79SOPE  H10X 7171   1.635   0.476   5.834 -0.3309 -0.0309 -1.8011
   79SOPE  H10Y 7172   1.537   0.330   5.789 -0.1722  0.3637  1.0179
   79SOPE  C311 7173   1.743   0.356   5.702  0.4404  0.0649  0.0464
   79SOPE  H11X 7174   1.819   0.280   5.729  0.8016  1.0541  1.9997
   79SOPE  H11Y 7175   1.781   0.461   5.695  0.5486  0.2292  2.4574
   79SOPE  C312 7176   1.678   0.309   5.567 -0.2330 -0.7883  0.7323
   79SOPE  H12X 7177   1.596   0.379   5.539 -0.7163 -1.3605  0.7077
   79SOPE  H12Y 7178   1.615   0.219   5.583  2.1680 -3.3812 -2.8002
   79SOPE  C313 7179   1.791   0.283   5.464  0.7635  0.5297  0.2407
   79SOPE  H13X 7180   1.878   0.252   5.524 -0.4784 -1.5060  1.1100
   79SOPE  H13Y 7181   1.810   0.380   5.412 -2.2508  0.6553 -0.8819
   79SOPE  C314 7182   1.754   0.165   5.369  0.4756 -0.3079 -0.4776
   79SOPE  H14X 7183   1.702   0.088   5.429  2.9307 -0.0974  2.1477
   79SOPE  H14Y 7184   1.840   0.109   5.326 -0.2299 -0.2207 -2.0644
   79SOPE  C315 7185   1.665   0.208   5.250  0.0995 -0.1887 -0.2101
   79SOPE  H15X 7186   1.583   0.271   5.292 -1.6592 -1.1266 -2.0279
   79SOPE  H15Y 7187   1.623   0.119   5.197  0.4211  0.7305 -2.1229
   79SOPE  C316 7188   1.729   0.306   5.149  0.3272  0.2530 -0.4443
   79SOPE  H16X 7189   1.812   0.253   5.099  0.5834  1.9283 -1.9053
   79SOPE  H16Y 7190   1.772   0.388   5.210 -0.4564 -1.7192  3.0216
   79SOPE  C317 7191   1.624   0.363   5.054  0.0440  0.2172  0.2057
   79SOPE  H17X 7192   1.559   0.427   5.118 -2.7239 -1.8263 -0.4135
   79SOPE  H17Y 7193   1.566   0.278   5.012  0.8557  0.1783 -0.8783
   79SOPE  C318 7194   1.676   0.453   4.940 -0.1001  0.8893  0.2843
   79SOPE  H18X 7195   1.598   0.500   4.875  0.6279  1.6815 -0.0390
   79SOPE  H18Y 7196   1.741   0.398   4.869 -0.8306  0.9993 -0.4852
   79SOPE  H18Z 7197   1.735   0.536   4.985  2.8815 -1.3247  0.7601
   80SOPE     N 7198   5.599   1.537   6.988 -0.3765 -0.6875 -0.2306
   80SOPE   HN1 7199   5.641   1.624   7.026  1.4770 -1.3870 -0.5716
   80SOPE   HN2 7200   5.501   1.550   7.018  0.3561 -0.8249  2.4393
   80SOPE   HN3 7201   5.643   1.454   7.032 -2.1662 -1.5715 -0.0096
   80SOPE   C12 7202   5.598   1.530   6.840 -0.0497 -0.6785 -0.2846
   80SOPE  H12A 7203   5.528   1.450   6.810 -0.3513  0.3640 -2.5706
   80SOPE  H12B 7204   5.698   1.501   6.802  1.1878 -1.3474  3.1610
   80SOPE   C11 7205   5.529   1.649   6.774 -0.1110 -0.1280 -0.3847
   80SOPE  H11A 7206   5.422   1.651   6.802 -0.8980  2.3254 -3.1456
   80SOPE  H11B 7207   5.530   1.630   6.665  0.1054 -2.2744 -0.0508
   80SOPE     P 7208   5.550   1.889   6.889  0.0516  0.7397 -0.0673
   80SOPE   O13 7209   5.670   1.967   6.911  0.1782 -0.1133 -0.2363
   80SOPE   O14 7210   5.481   1.831   7.010 -0.1963 -0.8647 -0.7785
   80SOPE   O12 7211   5.593   1.770   6.788  0.0499  0.3240  0.6369
   80SOPE   O11 7212   5.444   1.961   6.800  0.0678 -0.4475  0.2944
   80SOPE    C1 7213   5.476   1.995   6.660  0.4656  0.0497  0.3175
   80SOPE    HA 7214   5.485   1.906   6.595 -4.9836  0.6156 -1.8115
   80SOPE    HB 7215   5.567   2.059   6.664 -0.6012  1.6705  4.3313
   80SOPE    C2 7216   5.362   2.075   6.605  0.0508 -0.8172 -0.5991
   80SOPE    HS 7217   5.274   2.008   6.591 -0.9133  0.8329 -2.8243
   80SOPE   O21 7218   5.399   2.127   6.480 -0.7805  0.1809  0.2176
   80SOPE   C21 7219   5.402   2.041   6.374  0.4509  0.6039 -0.5830
   80SOPE   O22 7220   5.369   1.926   6.373 -0.1470  0.1412 -0.6833
   80SOPE   C22 7221   5.455   2.120   6.245 -0.1106 -0.0841 -0.4630
   80SOPE   H2R 7222   5.563   2.143   6.260  0.0373 -1.5602  1.0731
   80SOPE   H2S 7223   5.394   2.212   6.232  0.6085  0.3059 -1.1968
   80SOPE    C3 7224   5.329   2.200   6.695  0.5044  0.1716  0.2569
   80SOPE    HX 7225   5.427   2.251   6.690  1.6334 -2.0059 -1.6626
   80SOPE    HY 7226   5.304   2.162   6.797 -2.4887 -1.0081 -0.8018
   80SOPE   O31 7227   5.225   2.293   6.657 -0.0215  0.3212  0.4575
   80SOPE   C31 7228   5.102   2.250   6.663  0.1974 -0.3282 -0.4369
   80SOPE   O32 7229   5.075   2.134   6.694  0.0462  0.0391  0.3066
   80SOPE   C32 7230   5.009   2.373   6.634 -0.2179  0.8235  0.3864
   80SOPE   H2X 7231   5.069   2.466   6.646  0.9324  0.1247  0.1553
   80SOPE   H2Y 7232   4.919   2.366   6.699 -1.3877 -0.3628 -1.2620
   80SOPE   C23 7233   5.450   2.024   6.125 -0.3907  0.5939 -0.3795
   80SOPE   H3R 7234   5.342   2.002   6.109 -1.6357  2.9423  3.4450
   80SOPE   H3S 7235   5.512   1.934   6.145 -0.2380  0.9074  0.5803
   80SOPE   C24 7236   5.507   2.094   6.004  0.3126  0.7920 -0.1694
   80SOPE   H4R 7237   5.455   2.192   6.001 -1.2095  0.0105 -0.0038
   80SOPE   H4S 7238   5.617   2.094   6.023  0.2378 -1.6210  0.5700
   80SOPE   C25 7239   5.485   2.011   5.871 -0.7889  0.2200 -0.2351
   80SOPE   H5R 7240   5.514   1.905   5.883  1.3915  0.4880 -2.4106
   80SOPE   H5S 7241   5.376   2.008   5.848 -0.4283 -0.5274 -1.9685
   80SOPE   C26 7242   5.554   2.095   5.764 -0.5259 -0.1610  0.5094
   80SOPE   H6R 7243   5.523   2.201   5.781 -2.0131 -0.5472  0.3786
   80SOPE   H6S 7244   5.665   2.089   5.773 -0.3896  0.3357 -0.7317
   80SOPE   C27 7245   5.511   2.050   5.624 -0.8549 -0.6155 -0.2599
   80SOPE   H7R 7246   5.531   1.941   5.617 -0.5274 -0.4380 -3.1307
   80SOPE   H7S 7247   5.400   2.054   5.617 -0.9264 -0.2255  0.8997
   80SOPE   C28 7248   5.576   2.126   5.508 -0.0165  1.0177  0.0482
   80SOPE   H8R 7249   5.512   2.090   5.424  2.4733 -3.6505 -0.1679
   80SOPE   H8S 7250   5.556   2.233   5.531 -2.3470  0.3490  1.4870
   80SOPE   C29 7251   5.726   2.104   5.480  0.4340 -0.2148  0.2493
   80SOPE   H91 7252   5.790   2.165   5.546 -0.1026  3.8262 -2.5665
   80SOPE  C210 7253   5.775   2.022   5.384  0.3575 -0.0210  0.1023
   80SOPE  H101 7254   5.884   2.023   5.367  0.7263 -2.8109  1.7528
   80SOPE  C211 7255   5.696   1.924   5.292 -1.0992 -0.1804 -0.3936
   80SOPE  H11R 7256   5.604   1.890   5.344 -1.1259  0.6396  0.1060
   80SOPE  H11S 7257   5.763   1.836   5.280 -1.5012 -0.6565  0.7715
   80SOPE  C212 7258   5.662   1.991   5.155  0.0278  0.3798  0.3045
   80SOPE  H12R 7259   5.745   2.039   5.099 -0.4695  1.6808  0.6436
   80SOPE  H12S 7260   5.595   2.076   5.177 -0.4698  0.2373 -0.5867
   80SOPE  C213 7261   5.583   1.904   5.051  0.2340 -0.3857 -0.0571
   80SOPE  H13R 7262   5.489   1.861   5.092 -0.1542  0.1666 -0.3490
   80SOPE  H13S 7263   5.630   1.814   5.005  0.0089 -0.8732  0.6507
   80SOPE  C214 7264   5.542   2.003   4.939 -0.2474 -0.0616 -0.0770
   80SOPE  H14R 7265   5.635   2.056   4.910  0.6652 -1.7172 -0.2804
   80SOPE  H14S 7266   5.458   2.067   4.973  1.2758  2.6008 -1.0308
   80SOPE  C215 7267   5.492   1.929   4.816  0.1930 -0.4402  0.1065
   80SOPE  H15R 7268   5.393   1.884   4.842 -0.4264  0.6235 -0.3142
   80SOPE  H15S 7269   5.567   1.854   4.783 -0.6719  0.2621 -4.0377
   80SOPE  C216 7270   5.481   2.031   4.701  0.2359  0.0162  0.5206
   80SOPE  H16R 7271   5.589   2.042   4.676  0.6156 -3.0181  0.4953
   80SOPE  H16S 7272   5.436   2.126   4.736 -1.5584 -1.3685  2.1878
   80SOPE  C217 7273   5.394   1.989   4.576  0.0178  0.2227  0.3788
   80SOPE  H17R 7274   5.293   1.950   4.600  0.0277 -0.5305 -0.7175
   80SOPE  H17S 7275   5.442   1.906   4.519 -1.3395 -1.2605  1.3054
   80SOPE  C218 7276   5.380   2.098   4.458 -0.0084 -0.2595 -0.1101
   80SOPE  H18R 7277   5.331   2.188   4.501  0.4471  0.1102 -0.3544
   80SOPE  H18S 7278   5.325   2.055   4.372  0.4188  0.6947 -0.8801
   80SOPE  H18T 7279   5.477   2.127   4.413 -0.9147  0.7736 -1.4968
   80SOPE   C33 7280   4.965   2.377   6.481 -0.0304 -0.1128 -0.6274
   80SOPE   H3X 7281   4.914   2.472   6.455  0.9637  0.6205  0.0428
   80SOPE   H3Y 7282   4.892   2.294   6.465 -0.1436  0.1355 -1.4489
   80SOPE   C34 7283   5.087   2.358   6.380  0.8396 -0.2043 -0.1397
   80SOPE   H4X 7284   5.129   2.256   6.394  0.4075 -0.6005 -1.5700
   80SOPE   H4Y 7285   5.158   2.436   6.413  0.3590 -0.5071  1.7480
   80SOPE   C35 7286   5.024   2.376   6.244 -0.7465 -0.2933 -0.5257
   80SOPE   H5X 7287   5.001   2.485   6.239 -0.9774 -0.2759  0.6397
   80SOPE   H5Y 7288   4.935   2.311   6.238 -0.4392 -0.9016  1.0209
   80SOPE   C36 7289   5.124   2.333   6.132  0.0561 -0.5294 -0.1227
   80SOPE   H6X 7290   5.132   2.224   6.156 -2.0986 -0.3322  1.8291
   80SOPE   H6Y 7291   5.221   2.385   6.127  0.0066 -0.3227  0.9080
   80SOPE   C37 7292   5.056   2.342   5.993 -0.1717  0.0507 -0.3456
   80SOPE   H7X 7293   5.031   2.441   5.949  1.4841 -0.0936 -1.7282
   80SOPE   H7Y 7294   4.967   2.276   5.998 -0.1212  0.0665  1.3487
   80SOPE   C38 7295   5.162   2.291   5.884  0.2219 -0.1914 -0.3383
   80SOPE   H8X 7296   5.188   2.184   5.902  2.0363  0.6637  2.9672
   80SOPE   H8Y 7297   5.250   2.355   5.904  0.5605 -1.0880  1.2356
   80SOPE   C39 7298   5.113   2.313   5.739 -0.4888  0.2184  0.0965
   80SOPE   H9X 7299   5.097   2.421   5.720  1.4560  0.6825  0.8676
   80SOPE   H9Y 7300   5.016   2.259   5.732 -2.0903  2.8895  0.4498
   80SOPE  C310 7301   5.217   2.272   5.628  0.1036 -0.1034  0.5349
   80SOPE  H10X 7302   5.224   2.162   5.642  2.8811  0.1365  1.8111
   80SOPE  H10Y 7303   5.312   2.321   5.658 -0.7811  0.3002  2.9924
   80SOPE  C311 7304   5.173   2.307   5.483  0.6601  0.5997 -0.4330
   80SOPE  H11X 7305   5.189   2.412   5.451  0.6182  0.1117 -2.1874
   80SOPE  H11Y 7306   5.064   2.300   5.466  0.5976  1.3929 -0.3867
   80SOPE  C312 7307   5.232   2.226   5.377 -0.4208  0.4653 -0.8366
   80SOPE  H12X 7308   5.205   2.118   5.371  2.7163 -0.3629 -2.5097
   80SOPE  H12Y 7309   5.343   2.231   5.380 -0.4271  1.1126 -1.4564
   80SOPE  C313 7310   5.186   2.275   5.235  0.0747 -0.5199 -0.5758
   80SOPE  H13X 7311   5.195   2.386   5.230 -0.2162 -0.5549 -4.1910
   80SOPE  H13Y 7312   5.081   2.249   5.210 -1.0316  1.2025  1.8520
   80SOPE  C314 7313   5.276   2.224   5.124 -0.0301  0.2368  0.0087
   80SOPE  H14X 7314   5.245   2.119   5.103 -2.4958  1.4685 -3.4232
   80SOPE  H14Y 7315   5.382   2.223   5.156 -0.0107  2.3441  0.0911
   80SOPE  C315 7316   5.265   2.294   4.987 -0.0578 -0.4046  0.2137
   80SOPE  H15X 7317   5.159   2.292   4.952 -0.0715  0.2952  0.2054
   80SOPE  H15Y 7318   5.331   2.248   4.910  0.8668 -1.3885  1.5561
   80SOPE  C316 7319   5.320   2.437   4.995 -0.5184  0.0400  0.4608
   80SOPE  H16X 7320   5.429   2.429   5.014 -0.8958 -0.1784  2.7868
   80SOPE  H16Y 7321   5.273   2.490   5.081 -0.3249  1.4847 -0.2784
   80SOPE  C317 7322   5.283   2.516   4.863  0.0869 -0.2863  0.0064
   80SOPE  H17X 7323   5.178   2.519   4.826  1.4345 -1.4222 -4.3861
   80SOPE  H17Y 7324   5.331   2.451   4.787  0.7361 -0.8966  0.9122
   80SOPE  C318 7325   5.345   2.660   4.869  0.1972 -0.2015 -0.7429
   80SOPE  H18X 7326   5.455   2.656   4.884 -0.0138  0.1243  1.0234
   80SOPE  H18Y 7327   5.307   2.717   4.956  2.7478 -1.1098  1.0774
   80SOPE  H18Z 7328   5.323   2.721   4.778 -0.1207  1.7700  0.6011
   81SOPE     N 7329   3.015   6.311   7.170 -0.4908 -0.2229  0.3332
   81SOPE   HN1 7330   3.103   6.350   7.209  0.7858 -0.1720 -2.3723
   81SOPE   HN2 7331   3.039   6.223   7.119  1.5024 -0.1563  1.0793
   81SOPE   HN3 7332   2.971   6.376   7.102  0.6212 -1.0934 -1.3229
   81SOPE   C12 7333   2.920   6.291   7.287  0.0153 -0.7894 -0.3080
   81SOPE  H12A 7334   2.821   6.260   7.245 -1.0738 -0.2386  1.7179
   81SOPE  H12B 7335   2.918   6.395   7.324  0.8618 -0.0529 -2.2150
   81SOPE   C11 7336   2.973   6.200   7.394 -0.1623 -0.1609  0.0334
   81SOPE  H11A 7337   2.916   6.232   7.485 -1.4669 -0.8917 -0.4931
   81SOPE  H11B 7338   3.082   6.216   7.406 -0.1534  0.2278 -0.5306
   81SOPE     P 7339   3.048   5.951   7.308 -0.1627 -0.1786  0.3182
   81SOPE   O13 7340   2.972   5.837   7.250 -0.2329 -0.5223  0.1338
   81SOPE   O14 7341   3.143   5.926   7.420  0.1375  0.6351 -0.6879
   81SOPE   O12 7342   2.949   6.065   7.347 -0.1779 -0.1848 -0.6293
   81SOPE   O11 7343   3.125   6.025   7.197 -0.2071  0.3724  0.2488
   81SOPE    C1 7344   3.264   6.006   7.160 -0.6168  0.1383 -0.1689
   81SOPE    HA 7345   3.299   5.902   7.180 -2.7261 -1.0226 -1.9824
   81SOPE    HB 7346   3.330   6.073   7.219 -1.1350  1.5768 -1.1817
   81SOPE    C2 7347   3.292   6.023   7.008  0.8153 -0.5238 -0.2749
   81SOPE    HS 7348   3.280   6.129   6.977  0.0964 -0.6284 -0.3607
   81SOPE   O21 7349   3.208   5.934   6.931  0.5118  0.7248  0.3656
   81SOPE   C21 7350   3.088   5.997   6.918  0.2303  0.4994  0.2629
   81SOPE   O22 7351   3.066   6.112   6.944  0.2549 -0.1511  0.5317
   81SOPE   C22 7352   2.995   5.904   6.838  0.3079  0.2521  0.3765
   81SOPE   H2R 7353   2.894   5.949   6.830  0.5483  0.4598 -2.0285
   81SOPE   H2S 7354   2.981   5.811   6.897  0.6382 -1.0174 -1.4634
   81SOPE    C3 7355   3.443   5.979   6.975  0.7613  0.7297 -0.0255
   81SOPE    HX 7356   3.456   5.872   7.003 -2.2817  0.0926 -0.7736
   81SOPE    HY 7357   3.519   6.032   7.037  0.9413  0.9724 -0.4478
   81SOPE   O31 7358   3.483   6.010   6.839 -0.0087  0.6436 -0.1183
   81SOPE   C31 7359   3.464   5.915   6.755 -0.1477 -0.1034 -0.4681
   81SOPE   O32 7360   3.415   5.807   6.778 -0.6099  0.1971 -0.1084
   81SOPE   C32 7361   3.492   5.965   6.617  0.7418  0.6354  0.5750
   81SOPE   H2X 7362   3.578   6.033   6.634  0.1650  1.0122  2.3028
   81SOPE   H2Y 7363   3.410   6.031   6.581 -0.5923 -0.4015  1.5993
   81SOPE   C23 7364   3.049   5.854   6.702 -0.0919 -0.1908 -0.2898
   81SOPE   H3R 7365   2.981   5.780   6.655 -1.8376  1.9435 -1.3511
   81SOPE   H3S 7366   3.145   5.802   6.718 -0.3134 -0.8972 -1.1772
   81SOPE   C24 7367   3.063   5.970   6.601 -0.4058  0.0738 -0.3642
   81SOPE   H4R 7368   2.974   6.036   6.602 -0.5240 -0.0840 -0.3977
   81SOPE   H4S 7369   3.144   6.032   6.644  1.4191 -0.9035 -2.1661
   81SOPE   C25 7370   3.100   5.925   6.466 -0.1033 -0.2106  0.8424
   81SOPE   H5R 7371   3.189   5.859   6.469  0.6140  0.4708 -2.0350
   81SOPE   H5S 7372   3.024   5.860   6.418  1.9397 -2.0048 -0.1340
   81SOPE   C26 7373   3.133   6.045   6.372  0.0803  0.0193 -0.8300
   81SOPE   H6R 7374   3.047   6.114   6.372 -0.3274 -0.4719 -1.7322
   81SOPE   H6S 7375   3.220   6.102   6.412 -0.0933 -0.7364  0.7050
   81SOPE   C27 7376   3.176   5.994   6.231 -0.3283 -0.1541 -0.1178
   81SOPE   H7R 7377   3.268   5.931   6.230  1.1009  1.7860 -2.6410
   81SOPE   H7S 7378   3.087   5.939   6.192 -1.1253  1.0259 -0.0171
   81SOPE   C28 7379   3.202   6.102   6.130  0.3254 -0.4201  0.0791
   81SOPE   H8R 7380   3.205   6.052   6.031 -0.0973 -0.4065  0.0559
   81SOPE   H8S 7381   3.108   6.160   6.119 -0.4276 -1.5727  0.2420
   81SOPE   C29 7382   3.319   6.188   6.158  0.5913 -0.3640  0.0487
   81SOPE   H91 7383   3.314   6.258   6.243 -0.3474  0.4840 -0.6787
   81SOPE  C210 7384   3.425   6.205   6.073 -0.5246  0.6291 -0.3569
   81SOPE  H101 7385   3.508   6.270   6.103 -0.2072  1.0550 -2.0634
   81SOPE  C211 7386   3.437   6.139   5.936 -0.9918  0.2344  1.3974
   81SOPE  H11R 7387   3.378   6.045   5.937 -2.6319  1.2267  0.6620
   81SOPE  H11S 7388   3.546   6.118   5.933 -0.9918  0.3596 -0.3320
   81SOPE  C212 7389   3.358   6.225   5.834 -1.0846  0.0297  0.2770
   81SOPE  H12R 7390   3.412   6.322   5.833 -0.2744 -0.4096  0.5570
   81SOPE  H12S 7391   3.251   6.234   5.864 -0.8072  0.1626  1.2694
   81SOPE  C213 7392   3.350   6.156   5.693  0.1969  0.4176 -0.0252
   81SOPE  H13R 7393   3.284   6.218   5.629  0.9774  0.0959 -1.1774
   81SOPE  H13S 7394   3.290   6.064   5.712  0.3683  0.6040  1.5971
   81SOPE  C214 7395   3.489   6.117   5.625  0.3387  0.0196 -0.4287
   81SOPE  H14R 7396   3.552   6.054   5.691 -3.2304 -2.5434  0.8881
   81SOPE  H14S 7397   3.556   6.202   5.605  0.2217  0.5326  1.2378
   81SOPE  C215 7398   3.466   6.043   5.490 -0.5286 -0.3263  0.1758
   81SOPE  H15R 7399   3.417   5.945   5.509  1.8499 -2.0086 -1.7518
   81SOPE  H15S 7400   3.566   6.011   5.456 -1.2052 -1.5003 -0.7761
   81SOPE  C216 7401   3.413   6.126   5.372  0.0493  0.2072 -0.6223
   81SOPE  H16R 7402   3.468   6.222   5.366 -1.5487  1.2282  0.5821
   81SOPE  H16S 7403   3.306   6.144   5.393  0.6861  2.1429  1.2379
   81SOPE  C217 7404   3.414   6.050   5.239 -0.4336 -0.3171  0.1265
   81SOPE  H17R 7405   3.339   5.968   5.236  0.9363 -1.6829  1.4423
   81SOPE  H17S 7406   3.510   5.996   5.226  0.1678  0.4920  1.0163
   81SOPE  C218 7407   3.392   6.145   5.123  0.0442 -0.1115 -0.5025
   81SOPE  H18R 7408   3.294   6.196   5.121  0.2121  0.1731 -1.5496
   81SOPE  H18S 7409   3.414   6.085   5.032 -2.6885 -0.3024 -1.1212
   81SOPE  H18T 7410   3.467   6.226   5.124 -0.4733  0.3746 -0.7918
   81SOPE   C33 7411   3.530   5.859   6.510  0.1328  0.6077  0.8776
   81SOPE   H3X 7412   3.459   5.773   6.507 -1.0764  1.6096 -1.0074
   81SOPE   H3Y 7413   3.626   5.813   6.542 -0.4239 -0.2612  1.3407
   81SOPE   C34 7414   3.550   5.924   6.371 -0.7794  0.0394  0.1347
   81SOPE   H4X 7415   3.485   6.011   6.349 -1.6436 -0.0001  2.2721
   81SOPE   H4Y 7416   3.515   5.848   6.297  1.5933 -0.8626 -0.1520
   81SOPE   C35 7417   3.698   5.963   6.341 -0.3307  0.1052  0.4508
   81SOPE   H5X 7418   3.774   5.889   6.376  2.6053  2.7859  0.2267
   81SOPE   H5Y 7419   3.726   6.042   6.414 -1.0647 -0.2731  1.1651
   81SOPE   C36 7420   3.713   5.996   6.191  0.1903  0.2268 -0.0687
   81SOPE   H6X 7421   3.626   6.060   6.167  1.0900  0.5756 -2.6264
   81SOPE   H6Y 7422   3.715   5.911   6.119  0.2193  0.1249  0.0505
   81SOPE   C37 7423   3.834   6.094   6.167  0.3667 -0.0771 -0.1748
   81SOPE   H7X 7424   3.928   6.050   6.209  1.5186  1.0778 -1.4603
   81SOPE   H7Y 7425   3.811   6.178   6.236 -2.6823 -0.1782 -0.9553
   81SOPE   C38 7426   3.835   6.149   6.024  0.0671 -0.0009 -0.0084
   81SOPE   H8X 7427   3.929   6.206   6.009 -0.5507  0.5381 -2.1708
   81SOPE   H8Y 7428   3.749   6.219   6.012  2.3506  2.8994 -0.7589
   81SOPE   C39 7429   3.836   6.035   5.912 -0.0724 -0.2160 -0.3086
   81SOPE   H9X 7430   3.744   5.974   5.914 -0.4159  0.2985  1.4725
   81SOPE   H9Y 7431   3.922   5.970   5.940  0.4432  0.3409 -0.5627
   81SOPE  C310 7432   3.862   6.098   5.774  0.3437 -0.2169 -0.1459
   81SOPE  H10X 7433   3.959   6.151   5.766  2.0399 -2.6605  2.4255
   81SOPE  H10Y 7434   3.775   6.165   5.755  0.9304  0.7388  0.4511
   81SOPE  C311 7435   3.869   5.982   5.666 -0.1084 -0.5946 -0.1699
   81SOPE  H11X 7436   3.779   5.919   5.672  1.2638 -2.5851  0.3792
   81SOPE  H11Y 7437   3.962   5.925   5.687  0.7932  1.1196  0.7843
   81SOPE  C312 7438   3.883   6.035   5.523  0.6821  0.1977 -0.4359
   81SOPE  H12X 7439   3.973   6.097   5.504  1.2593 -1.3946 -3.3826
   81SOPE  H12Y 7440   3.795   6.097   5.497  0.7439 -0.2796 -1.8624
   81SOPE  C313 7441   3.875   5.921   5.425 -0.1215  0.3691  0.1061
   81SOPE  H13X 7442   3.795   5.851   5.459  0.4812 -0.0514  0.6826
   81SOPE  H13Y 7443   3.965   5.856   5.433 -0.8838 -0.7708 -0.2276
   81SOPE  C314 7444   3.843   5.971   5.287  0.6568  0.8227 -0.5962
   81SOPE  H14X 7445   3.933   6.017   5.242  1.4250  1.3099  1.3254
   81SOPE  H14Y 7446   3.766   6.048   5.307 -0.3282 -0.2940  0.0693
   81SOPE  C315 7447   3.789   5.855   5.195  0.5404  0.1035 -0.1823
   81SOPE  H15X 7448   3.702   5.799   5.235  0.5749 -0.7207 -1.2221
   81SOPE  H15Y 7449   3.867   5.776   5.188 -1.3759 -1.7302 -2.4085
   81SOPE  C316 7450   3.754   5.910   5.055  0.0911  0.0886  0.4359
   81SOPE  H16X 7451   3.837   5.897   4.982 -0.4612 -2.7687  0.1690
   81SOPE  H16Y 7452   3.727   6.017   5.052 -0.1421  0.0137 -0.8549
   81SOPE  C317 7453   3.638   5.835   4.990 -0.1633  1.1909 -0.1035
   81SOPE  H17X 7454   3.541   5.842   5.044  0.4100 -0.1374  1.1595
   81SOPE  H17Y 7455   3.665   5.728   5.000 -1.6415  0.9719  2.4174
   81SOPE  C318 7456   3.624   5.870   4.843  0.2331  0.7350  0.0047
   81SOPE  H18X 7457   3.541   5.813   4.797 -0.0035  1.2173 -0.1720
   81SOPE  H18Y 7458   3.720   5.850   4.790 -0.4572 -0.2864 -0.9210
   81SOPE  H18Z 7459   3.611   5.980   4.836  2.0563  1.0108  0.5110
   82SOPE     N 7460   5.109   5.524   7.215  0.1276 -0.3377 -0.5370
   82SOPE   HN1 7461   5.057   5.610   7.240 -0.1527 -0.5620 -0.3475
   82SOPE   HN2 7462   5.210   5.546   7.229  0.0915 -0.5723  0.1005
   82SOPE   HN3 7463   5.095   5.497   7.115  0.7515  1.5008 -1.1557
   82SOPE   C12 7464   5.064   5.413   7.312 -0.2975 -0.4205  0.5824
   82SOPE  H12A 7465   4.956   5.424   7.337 -0.3492 -0.7524  0.5053
   82SOPE  H12B 7466   5.131   5.433   7.398  0.7815  2.2555 -0.7379
   82SOPE   C11 7467   5.085   5.277   7.243  0.0495 -0.7145  0.3434
   82SOPE  H11A 7468   5.084   5.194   7.315 -0.6630  0.0962  1.2865
   82SOPE  H11B 7469   5.192   5.284   7.211 -0.1479  1.3370 -0.0197
   82SOPE     P 7470   4.911   5.137   7.112  0.1464 -0.0712  0.5332
   82SOPE   O13 7471   4.795   5.175   7.035  0.0677 -0.0801  0.0935
   82SOPE   O14 7472   4.879   5.072   7.244  0.1538  0.1468  0.2732
   82SOPE   O12 7473   4.998   5.273   7.130  0.3190  0.3608 -0.7628
   82SOPE   O11 7474   4.997   5.038   7.033  0.0430  0.0864  0.4428
   82SOPE    C1 7475   5.092   5.073   6.936 -0.1786  0.6043  0.1166
   82SOPE    HA 7476   5.176   5.000   6.935  0.8952  1.8146 -0.9612
   82SOPE    HB 7477   5.145   5.165   6.968 -0.9719  1.0290  0.2412
   82SOPE    C2 7478   5.032   5.089   6.792  0.1968  0.0464 -1.0716
   82SOPE    HS 7479   4.954   5.167   6.809  0.2832 -0.1282  0.2757
   82SOPE   O21 7480   4.962   4.969   6.742 -0.4214  0.2312 -0.2028
   82SOPE   C21 7481   4.922   4.964   6.612  1.0443  0.3843 -0.3647
   82SOPE   O22 7482   4.917   5.054   6.539  0.0401  0.0640  0.9461
   82SOPE   C22 7483   4.883   4.822   6.574  0.4707  0.6142  0.0180
   82SOPE   H2R 7484   4.793   4.782   6.626 -0.2630 -0.6610 -2.1247
   82SOPE   H2S 7485   4.964   4.748   6.589 -1.1827 -0.9110  1.9549
   82SOPE    C3 7486   5.143   5.140   6.695  0.1019 -0.4543  0.4795
   82SOPE    HX 7487   5.193   5.225   6.745 -0.0147  0.4139 -0.8186
   82SOPE    HY 7488   5.090   5.173   6.603  0.9748 -2.4806 -0.8337
   82SOPE   O31 7489   5.238   5.042   6.657  0.2508  0.2883 -0.3016
   82SOPE   C31 7490   5.314   5.077   6.552 -0.2266 -0.4926  0.4062
   82SOPE   O32 7491   5.303   5.185   6.492  0.5753  0.0782 -0.2191
   82SOPE   C32 7492   5.410   4.968   6.500  0.1831  0.0850 -1.0216
   82SOPE   H2X 7493   5.395   4.878   6.563  0.2050 -0.3082 -1.5719
   82SOPE   H2Y 7494   5.514   5.004   6.516  0.4906 -1.2462  0.1589
   82SOPE   C23 7495   4.845   4.810   6.420 -0.3462  0.2299 -0.2751
   82SOPE   H3R 7496   4.838   4.701   6.402  0.1362  0.2899 -0.8652
   82SOPE   H3S 7497   4.928   4.857   6.362 -0.3645  0.0120 -0.4781
   82SOPE   C24 7498   4.714   4.865   6.378  0.2457 -0.4463  0.7326
   82SOPE   H4R 7499   4.633   4.861   6.454 -0.5582 -0.4908 -0.1096
   82SOPE   H4S 7500   4.728   4.973   6.357  2.0693 -0.7356  0.3490
   82SOPE   C25 7501   4.653   4.796   6.252 -0.5801 -0.0960 -0.0115
   82SOPE   H5R 7502   4.729   4.823   6.175 -0.8040 -0.9157 -0.5338
   82SOPE   H5S 7503   4.635   4.688   6.265  0.6860 -0.5591 -1.7257
   82SOPE   C26 7504   4.524   4.863   6.207 -1.1334  0.0938 -0.2364
   82SOPE   H6R 7505   4.452   4.858   6.292 -1.7373 -2.0142 -0.8091
   82SOPE   H6S 7506   4.542   4.968   6.176 -0.0106  0.3081  1.0618
   82SOPE   C27 7507   4.454   4.795   6.094 -0.2543  0.2591 -0.2181
   82SOPE   H7R 7508   4.443   4.692   6.132  0.6224  1.0853  2.5432
   82SOPE   H7S 7509   4.362   4.855   6.077  0.3390  1.5947  1.0499
   82SOPE   C28 7510   4.542   4.776   5.964 -0.9519 -0.1842  0.3665
   82SOPE   H8R 7511   4.568   4.882   5.945 -2.3419 -0.3416 -3.1960
   82SOPE   H8S 7512   4.638   4.728   5.991  1.1572  3.8342  0.6859
   82SOPE   C29 7513   4.473   4.729   5.842  0.3009 -0.2700  0.3040
   82SOPE   H91 7514   4.468   4.619   5.838 -1.8072 -0.1980 -0.3246
   82SOPE  C210 7515   4.401   4.796   5.753 -0.2909  0.0458  0.7881
   82SOPE  H101 7516   4.357   4.752   5.663  1.9662 -1.4754  0.3408
   82SOPE  C211 7517   4.393   4.946   5.768  0.0660 -0.0710  0.4632
   82SOPE  H11R 7518   4.465   4.992   5.697  0.3306 -1.6333 -0.3210
   82SOPE  H11S 7519   4.401   4.993   5.868 -1.0381  1.9275 -0.3252
   82SOPE  C212 7520   4.262   5.003   5.715  0.5796 -0.6898 -0.1070
   82SOPE  H12R 7521   4.245   5.104   5.757 -0.5770 -1.2843  0.9436
   82SOPE  H12S 7522   4.179   4.942   5.757  0.3446 -1.4319 -1.5939
   82SOPE  C213 7523   4.238   5.020   5.567 -0.4106  0.2457  0.8234
   82SOPE  H13R 7524   4.140   5.069   5.546 -0.3859 -0.3158 -0.7318
   82SOPE  H13S 7525   4.233   4.917   5.527  0.3427 -0.0001  1.3471
   82SOPE  C214 7526   4.344   5.097   5.482  0.0758 -0.5223  0.1484
   82SOPE  H14R 7527   4.440   5.042   5.489 -0.6691 -1.8263  0.5586
   82SOPE  H14S 7528   4.354   5.196   5.533  1.0167 -1.3449  1.6411
   82SOPE  C215 7529   4.299   5.110   5.341 -0.0100  0.0607 -0.4519
   82SOPE  H15R 7530   4.211   5.177   5.339  1.0749  1.8452  2.8142
   82SOPE  H15S 7531   4.258   5.013   5.306  0.4460 -0.0560 -0.6674
   82SOPE  C216 7532   4.404   5.174   5.251 -0.4669 -0.2951 -0.0402
   82SOPE  H16R 7533   4.489   5.103   5.262 -0.2038  0.2825  2.1215
   82SOPE  H16S 7534   4.424   5.279   5.279 -1.3557  0.8230 -3.1788
   82SOPE  C217 7535   4.365   5.163   5.105  0.2764  0.4685  0.1657
   82SOPE  H17R 7536   4.349   5.062   5.060  3.5435 -0.6178  1.1556
   82SOPE  H17S 7537   4.456   5.199   5.051  1.0674 -0.4630  0.8316
   82SOPE  C218 7538   4.249   5.260   5.081 -0.1683 -0.1638 -0.0293
   82SOPE  H18R 7539   4.234   5.283   4.974  0.8021  0.4394 -0.0400
   82SOPE  H18S 7540   4.263   5.362   5.122 -0.3415 -0.2270  0.1926
   82SOPE  H18T 7541   4.150   5.218   5.112 -0.6870  0.6057 -0.6186
   82SOPE   C33 7542   5.391   4.937   6.353 -0.1825 -0.0736  0.1611
   82SOPE   H3X 7543   5.459   4.851   6.335 -1.8275 -1.5913  0.9046
   82SOPE   H3Y 7544   5.429   5.022   6.293  2.1113 -0.5130  0.8707
   82SOPE   C34 7545   5.248   4.906   6.308 -0.2201 -0.3592 -0.1609
   82SOPE   H4X 7546   5.169   4.978   6.339 -0.1323  1.1339 -3.0670
   82SOPE   H4Y 7547   5.219   4.809   6.354  2.8622 -1.3622 -0.1190
   82SOPE   C35 7548   5.242   4.887   6.157  0.6482 -0.3534  0.6670
   82SOPE   H5X 7549   5.334   4.830   6.130  0.5260 -0.5409  0.6421
   82SOPE   H5Y 7550   5.258   4.989   6.116  1.2434 -0.7198 -0.0298
   82SOPE   C36 7551   5.118   4.824   6.105  0.4990 -0.3750 -0.4258
   82SOPE   H6X 7552   5.030   4.861   6.162  0.4774 -2.0768  0.7030
   82SOPE   H6Y 7553   5.131   4.717   6.129 -0.8288 -0.2095  1.1661
   82SOPE   C37 7554   5.094   4.851   5.958 -0.2573 -0.2946  0.1619
   82SOPE   H7X 7555   5.184   4.820   5.901 -0.7104 -3.4486  0.9630
   82SOPE   H7Y 7556   5.088   4.960   5.941  1.4129  0.0094  1.2225
   82SOPE   C38 7557   4.977   4.775   5.892  0.2699 -0.4855 -0.4661
   82SOPE   H8X 7558   4.886   4.803   5.950 -0.3865 -1.0896 -1.1730
   82SOPE   H8Y 7559   4.987   4.665   5.895  2.6076 -0.2922  0.3202
   82SOPE   C39 7560   4.969   4.828   5.744 -0.2052  0.3197  0.5468
   82SOPE   H9X 7561   5.066   4.804   5.695 -0.4278  1.3710 -0.4577
   82SOPE   H9Y 7562   4.964   4.939   5.739  1.0997  0.4537  1.6454
   82SOPE  C310 7563   4.851   4.767   5.662 -0.5365  0.2255  0.1195
   82SOPE  H10X 7564   4.753   4.806   5.697 -0.2457  2.1213 -1.0083
   82SOPE  H10Y 7565   4.855   4.656   5.670  0.6878  0.1635 -1.0136
   82SOPE  C311 7566   4.869   4.803   5.510 -0.4704 -0.3538 -0.1254
   82SOPE  H11X 7567   4.968   4.767   5.473 -2.0786 -2.0410 -3.1933
   82SOPE  H11Y 7568   4.860   4.913   5.509 -0.7738 -0.3301  1.7284
   82SOPE  C312 7569   4.746   4.746   5.431 -0.3254 -0.1522 -0.0539
   82SOPE  H12X 7570   4.657   4.772   5.494 -1.5776 -3.3563 -0.3319
   82SOPE  H12Y 7571   4.764   4.637   5.432  2.0163  0.0697 -3.2469
   82SOPE  C313 7572   4.738   4.789   5.285  0.0160 -0.4739  0.2353
   82SOPE  H13X 7573   4.834   4.753   5.243 -0.2530 -0.3492 -0.5129
   82SOPE  H13Y 7574   4.742   4.899   5.277  1.7306 -0.5871 -1.2412
   82SOPE  C314 7575   4.632   4.720   5.197 -0.0710  0.5982  0.2600
   82SOPE  H14X 7576   4.648   4.611   5.193 -2.4709  0.2008  0.2155
   82SOPE  H14Y 7577   4.645   4.750   5.091  2.3022 -0.2620  0.2468
   82SOPE  C315 7578   4.492   4.759   5.232 -0.2524  0.3860 -0.3434
   82SOPE  H15X 7579   4.476   4.868   5.243  1.1081  0.5280  0.4046
   82SOPE  H15Y 7580   4.466   4.721   5.334 -2.8667 -0.3227 -1.1923
   82SOPE  C316 7581   4.379   4.702   5.144 -0.0328  0.2050  0.3236
   82SOPE  H16X 7582   4.418   4.709   5.040 -0.9105 -0.2225 -0.0430
   82SOPE  H16Y 7583   4.283   4.757   5.149 -1.2151 -1.8313  1.5689
   82SOPE  C317 7584   4.349   4.563   5.192  0.1263 -0.6859  0.2106
   82SOPE  H17X 7585   4.307   4.566   5.295 -0.4087  2.9804 -0.0014
   82SOPE  H17Y 7586   4.451   4.522   5.205 -0.0149 -1.1603 -0.1183
   82SOPE  C318 7587   4.269   4.480   5.087 -0.8960 -0.1845  0.0173
   82SOPE  H18X 7588   4.224   4.385   5.122 -2.7607 -0.1236 -1.9691
   82SOPE  H18Y 7589   4.339   4.463   5.002  0.9646 -1.8684  1.8001
   82SOPE  H18Z 7590   4.184   4.542   5.052 -0.5791 -0.3183 -1.0277
   83SOPE     N 7591   2.725   3.903   2.867 -0.7845 -0.3995  0.4995
   83SOPE   HN1 7592   2.642   3.946   2.912 -1.1795 -0.8668  0.2238
   83SOPE   HN2 7593   2.705   3.804   2.890 -1.6014 -0.5545 -0.7333
   83SOPE   HN3 7594   2.816   3.929   2.910 -0.1201  0.5838 -1.3690
   83SOPE   C12 7595   2.721   3.929   2.719  0.1216  0.3892 -0.0757
   83SOPE  H12A 7596   2.795   3.863   2.669 -0.5485  1.1971 -2.2720
   83SOPE  H12B 7597   2.759   4.033   2.709 -2.3090  1.2133 -1.8140
   83SOPE   C11 7598   2.580   3.928   2.666  0.7588 -0.0594  0.2288
   83SOPE  H11A 7599   2.538   3.825   2.660  0.0301  0.2472 -0.0137
   83SOPE  H11B 7600   2.590   3.977   2.567  1.1804 -0.9423 -0.1730
   83SOPE     P 7601   2.363   3.958   2.800  0.1455 -0.2654  0.1133
   83SOPE   O13 7602   2.274   3.925   2.684 -0.2058 -0.2927 -0.4885
   83SOPE   O14 7603   2.307   4.065   2.889  0.5613  0.6053 -0.0876
   83SOPE   O12 7604   2.508   4.006   2.749  0.7141  0.1117  0.0906
   83SOPE   O11 7605   2.404   3.835   2.890 -0.2428  0.4707  0.1504
   83SOPE    C1 7606   2.300   3.743   2.933 -0.3936 -0.2394 -0.0712
   83SOPE    HA 7607   2.347   3.651   2.973  0.1195 -0.3582 -0.9261
   83SOPE    HB 7608   2.232   3.703   2.854 -0.6720 -0.3945  0.2451
   83SOPE    C2 7609   2.208   3.807   3.051 -0.0528  0.5898  0.4873
   83SOPE    HS 7610   2.162   3.893   2.998 -0.4973 -0.4069 -0.7789
   83SOPE   O21 7611   2.303   3.836   3.152 -0.9567 -0.7455 -0.0210
   83SOPE   C21 7612   2.264   3.934   3.241 -0.8158 -0.0057 -0.0024
   83SOPE   O22 7613   2.178   4.023   3.215  0.3652  0.7471 -0.3185
   83SOPE   C22 7614   2.341   3.926   3.370  0.4070  0.5186  0.1179
   83SOPE   H2R 7615   2.445   3.964   3.358 -0.2675  1.7826 -2.1887
   83SOPE   H2S 7616   2.344   3.822   3.410 -0.6461  1.2961  2.4181
   83SOPE    C3 7617   2.109   3.707   3.107  0.1104 -0.2129  0.0076
   83SOPE    HX 7618   2.163   3.616   3.141 -0.6074 -0.5558  0.2497
   83SOPE    HY 7619   2.043   3.674   3.023 -0.8353  1.3586  0.0947
   83SOPE   O31 7620   2.021   3.760   3.215 -0.5190 -0.0265 -0.4352
   83SOPE   C31 7621   1.921   3.834   3.176 -0.0815 -0.1473 -0.4966
   83SOPE   O32 7622   1.899   3.852   3.059 -0.3493 -0.5398 -0.3777
   83SOPE   C32 7623   1.846   3.881   3.296 -0.0757 -0.1447  0.5118
   83SOPE   H2X 7624   1.772   3.957   3.264  0.9330 -0.0810 -1.8969
   83SOPE   H2Y 7625   1.915   3.930   3.368  0.9914  0.6151 -0.9990
   83SOPE   C23 7626   2.268   4.011   3.472 -0.3153 -0.2038 -0.2656
   83SOPE   H3R 7627   2.159   3.992   3.484 -0.3090 -1.2666 -1.6007
   83SOPE   H3S 7628   2.282   4.118   3.447 -2.2922 -0.6072 -3.9481
   83SOPE   C24 7629   2.321   3.978   3.618  0.4475  0.3131  0.7284
   83SOPE   H4R 7630   2.285   3.876   3.644 -0.1920  0.6356  1.1443
   83SOPE   H4S 7631   2.431   3.992   3.618  0.5566 -0.4956  0.4466
   83SOPE   C25 7632   2.258   4.082   3.706  0.4195  0.4746  0.2375
   83SOPE   H5R 7633   2.265   4.184   3.663 -1.3801 -0.1104 -1.6334
   83SOPE   H5S 7634   2.148   4.067   3.715  0.7996 -4.2868 -0.4290
   83SOPE   C26 7635   2.323   4.074   3.850 -0.6568  0.2941 -0.4052
   83SOPE   H6R 7636   2.431   4.099   3.857 -0.5931 -0.4002  3.2668
   83SOPE   H6S 7637   2.261   4.152   3.901  0.1899  0.5850  0.2127
   83SOPE   C27 7638   2.298   3.942   3.923 -0.3429  0.6497 -0.1221
   83SOPE   H7R 7639   2.346   3.858   3.868 -1.5752 -0.9704  1.1864
   83SOPE   H7S 7640   2.347   3.944   4.023  2.1063 -0.4825 -1.1905
   83SOPE   C28 7641   2.149   3.901   3.945  0.3264 -0.4357  0.0183
   83SOPE   H8R 7642   2.106   3.990   3.993 -2.0625 -1.0914 -0.7872
   83SOPE   H8S 7643   2.110   3.891   3.841  1.1494 -3.2129 -0.1055
   83SOPE   C29 7644   2.125   3.772   4.019 -0.0767  0.3488 -0.2090
   83SOPE   H91 7645   2.144   3.676   3.968  0.3184 -1.2268  2.6723
   83SOPE  C210 7646   2.073   3.758   4.142  0.1588 -0.8282  1.1796
   83SOPE  H101 7647   2.069   3.661   4.194 -0.1944 -1.4366  0.0474
   83SOPE  C211 7648   2.043   3.887   4.226  0.5293  0.0133 -0.2640
   83SOPE  H11R 7649   2.002   3.965   4.158  2.7094 -0.2838 -2.0468
   83SOPE  H11S 7650   2.136   3.923   4.273 -0.7235  2.4416  0.5456
   83SOPE  C212 7651   1.949   3.852   4.342  0.2600 -0.0166 -0.0214
   83SOPE  H12R 7652   1.858   3.799   4.306 -0.9489 -0.5787  3.4142
   83SOPE  H12S 7653   1.915   3.944   4.394  1.3333  0.6994 -0.5619
   83SOPE  C213 7654   2.002   3.757   4.442 -0.6578  0.3355  0.0240
   83SOPE  H13R 7655   2.091   3.804   4.490 -1.2407  0.0231  1.4754
   83SOPE  H13S 7656   2.021   3.660   4.391  0.0297  0.5751 -0.1832
   83SOPE  C214 7657   1.901   3.710   4.548  0.6495 -0.5500  0.2531
   83SOPE  H14R 7658   1.807   3.688   4.494 -0.5953 -0.3122  2.2397
   83SOPE  H14S 7659   1.878   3.794   4.617 -0.4156  0.7215 -1.5676
   83SOPE  C215 7660   1.956   3.584   4.618 -0.0229 -0.0516  0.1654
   83SOPE  H15R 7661   2.061   3.594   4.651 -0.0399  1.0556 -0.0670
   83SOPE  H15S 7662   1.944   3.496   4.551 -0.9608  0.4393 -0.3461
   83SOPE  C216 7663   1.873   3.558   4.748 -0.5945 -0.3621  0.2621
   83SOPE  H16R 7664   1.771   3.596   4.724  0.5463  1.6151 -1.7745
   83SOPE  H16S 7665   1.917   3.614   4.833 -0.4143 -0.2378  0.0864
   83SOPE  C217 7666   1.863   3.407   4.768  0.2955  1.1280 -0.3074
   83SOPE  H17R 7667   1.966   3.369   4.783  0.1299  0.3422 -1.0748
   83SOPE  H17S 7668   1.836   3.368   4.668  1.4087  1.2434 -0.6638
   83SOPE  C218 7669   1.781   3.354   4.888  0.4949 -0.1044  0.5291
   83SOPE  H18R 7670   1.674   3.383   4.882  0.4322 -0.5811 -2.7763
   83SOPE  H18S 7671   1.833   3.391   4.980  0.1553 -0.5507  0.9013
   83SOPE  H18T 7672   1.781   3.244   4.898  1.0556 -0.1060  0.5706
   83SOPE   C33 7673   1.776   3.763   3.351  0.1262  0.0294  0.0559
   83SOPE   H3X 7674   1.839   3.673   3.364 -0.3422 -0.3226 -0.0760
   83SOPE   H3Y 7675   1.692   3.732   3.285  0.4469 -0.4844 -0.1145
   83SOPE   C34 7676   1.718   3.790   3.493  0.5971 -0.3107 -0.3291
   83SOPE   H4X 7677   1.660   3.700   3.524 -0.7741  0.8931  0.7251
   83SOPE   H4Y 7678   1.638   3.867   3.490 -0.2599 -1.0987  1.0669
   83SOPE   C35 7679   1.821   3.803   3.614 -0.3020  0.5047  0.2079
   83SOPE   H5X 7680   1.876   3.898   3.593 -0.8554  0.6376 -0.6990
   83SOPE   H5Y 7681   1.887   3.713   3.610 -1.5114 -0.5112  1.9699
   83SOPE   C36 7682   1.750   3.814   3.750 -0.8583 -0.0713 -0.3668
   83SOPE   H6X 7683   1.816   3.782   3.834 -1.1958 -2.0265 -0.7883
   83SOPE   H6Y 7684   1.657   3.753   3.748 -1.9136  1.5052 -1.5424
   83SOPE   C37 7685   1.694   3.960   3.774 -0.3141 -0.6853 -0.5120
   83SOPE   H7X 7686   1.619   3.983   3.695 -0.3783 -0.0994 -0.2783
   83SOPE   H7Y 7687   1.776   4.034   3.776 -0.6618 -0.3138  0.2183
   83SOPE   C38 7688   1.620   3.977   3.918  0.3934  0.2078  0.1899
   83SOPE   H8X 7689   1.586   4.083   3.920 -1.0289 -0.2305  1.0071
   83SOPE   H8Y 7690   1.680   3.955   4.009 -1.2338 -1.7153  0.8768
   83SOPE   C39 7691   1.498   3.884   3.939 -0.1104  0.7011 -0.6603
   83SOPE   H9X 7692   1.527   3.777   3.938 -1.2780  0.2906  1.6771
   83SOPE   H9Y 7693   1.436   3.917   3.852  0.7624  0.1260 -1.5235
   83SOPE  C310 7694   1.423   3.907   4.075 -0.4838  0.2311 -0.2144
   83SOPE  H10X 7695   1.319   3.868   4.065  0.3692 -2.1444 -0.5761
   83SOPE  H10Y 7696   1.410   4.015   4.096 -0.9834  0.2385 -0.5406
   83SOPE  C311 7697   1.504   3.835   4.192 -0.2067  0.2831  0.7162
   83SOPE  H11X 7698   1.608   3.872   4.188 -0.1211  0.0451  0.7187
   83SOPE  H11Y 7699   1.496   3.730   4.155 -3.7198  0.7739 -0.2896
   83SOPE  C312 7700   1.442   3.862   4.331 -0.3795  0.3549  0.1817
   83SOPE  H12X 7701   1.367   3.782   4.345 -0.1619  0.0438 -0.4178
   83SOPE  H12Y 7702   1.396   3.963   4.324 -0.3045  0.6879  2.9877
   83SOPE  C313 7703   1.547   3.876   4.443 -0.1018  0.2636  0.0528
   83SOPE  H13X 7704   1.614   3.952   4.396 -2.3052  1.1153 -1.9024
   83SOPE  H13Y 7705   1.591   3.775   4.458 -1.3074 -0.6689 -2.2447
   83SOPE  C314 7706   1.475   3.938   4.567 -0.6713 -0.0294  0.7828
   83SOPE  H14X 7707   1.407   3.864   4.613 -1.3963  1.1555  1.6679
   83SOPE  H14Y 7708   1.419   4.029   4.537  0.4346 -0.1545 -1.9830
   83SOPE  C315 7709   1.573   3.962   4.675  0.7127  0.7695  0.6437
   83SOPE  H15X 7710   1.637   4.048   4.646  0.6082  0.8739  0.7237
   83SOPE  H15Y 7711   1.639   3.873   4.685  0.8719  0.7939 -0.1272
   83SOPE  C316 7712   1.517   3.990   4.815  0.3447 -0.4585  0.3147
   83SOPE  H16X 7713   1.588   4.047   4.878  0.7896  1.8275 -2.0959
   83SOPE  H16Y 7714   1.497   3.893   4.865  0.0035 -0.4820  0.1386
   83SOPE  C317 7715   1.388   4.078   4.812  0.7551  0.1586 -0.8562
   83SOPE  H17X 7716   1.309   4.031   4.750 -0.3322 -1.1294  1.3594
   83SOPE  H17Y 7717   1.428   4.164   4.755  0.8741 -1.0551 -2.6825
   83SOPE  C318 7718   1.332   4.135   4.943  0.1753 -0.9165  0.9788
   83SOPE  H18X 7719   1.313   4.054   5.017  1.5821  0.1527  2.5798
   83SOPE  H18Y 7720   1.234   4.183   4.924 -0.5078 -3.2791 -2.4303
   83SOPE  H18Z 7721   1.403   4.209   4.985  1.0605  0.6640 -2.8692
   84SOPE     N 7722   1.406   3.087   2.588  0.3077  0.3208  0.3982
   84SOPE   HN1 7723   1.326   3.148   2.559  1.2907  1.2724 -0.4303
   84SOPE   HN2 7724   1.428   3.097   2.689 -1.0029 -1.1286  0.8693
   84SOPE   HN3 7725   1.485   3.129   2.535 -1.0427  1.1367 -1.0953
   84SOPE   C12 7726   1.377   2.946   2.561 -0.1624  0.4679  0.7229
   84SOPE  H12A 7727   1.341   2.936   2.457  0.4979 -2.2715  0.6775
   84SOPE  H12B 7728   1.307   2.907   2.638  0.1273  0.6020  1.0591
   84SOPE   C11 7729   1.511   2.865   2.568 -0.9004  0.0682  0.8842
   84SOPE  H11A 7730   1.490   2.756   2.561  2.6336 -0.7289  0.7829
   84SOPE  H11B 7731   1.567   2.847   2.662  0.4349 -0.4486  0.0361
   84SOPE     P 7732   1.735   2.817   2.440  0.1017 -0.1371 -0.0001
   84SOPE   O13 7733   1.828   2.882   2.342 -0.2030 -0.3386  0.2956
   84SOPE   O14 7734   1.702   2.679   2.410 -0.0234 -0.5361  0.1913
   84SOPE   O12 7735   1.605   2.903   2.458  0.8379  0.5573  0.2571
   84SOPE   O11 7736   1.811   2.822   2.585 -0.1286  0.1393 -0.3096
   84SOPE    C1 7737   1.837   2.954   2.629  0.2108 -0.0237  0.9687
   84SOPE    HA 7738   1.746   3.017   2.635 -0.2821 -0.4815 -0.8890
   84SOPE    HB 7739   1.905   3.002   2.555 -1.0027  0.3031  0.0207
   84SOPE    C2 7740   1.896   2.965   2.765  0.4155  0.7439  0.1545
   84SOPE    HS 7741   1.991   2.908   2.772  1.6796  2.9226  2.0285
   84SOPE   O21 7742   1.791   2.910   2.858 -0.3251 -0.4463  0.6476
   84SOPE   C21 7743   1.820   2.800   2.921 -0.3345  0.5027  0.0748
   84SOPE   O22 7744   1.928   2.739   2.907 -0.5474 -0.0033 -0.2196
   84SOPE   C22 7745   1.707   2.745   3.008 -0.3367 -0.6314  0.1670
   84SOPE   H2R 7746   1.664   2.655   2.959  0.1443 -0.8795  0.1959
   84SOPE   H2S 7747   1.622   2.818   3.008  0.7625  0.7353 -1.5426
   84SOPE    C3 7748   1.933   3.106   2.812 -0.4955  0.1100  0.1475
   84SOPE    HX 7749   1.842   3.169   2.814  0.6545  2.0049 -1.9707
   84SOPE    HY 7750   1.995   3.164   2.740  0.5574 -0.8781  0.2300
   84SOPE   O31 7751   1.998   3.097   2.944  0.7686 -0.6294  0.9905
   84SOPE   C31 7752   2.129   3.081   2.955  0.5488  0.5528  0.0739
   84SOPE   O32 7753   2.202   3.056   2.860 -0.8115  0.1527 -0.6715
   84SOPE   C32 7754   2.171   3.098   3.104 -0.2476  0.2718  1.0830
   84SOPE   H2X 7755   2.137   3.194   3.147 -3.2533 -0.3572  0.3336
   84SOPE   H2Y 7756   2.282   3.096   3.109 -0.2001 -0.0122  0.1454
   84SOPE   C23 7757   1.732   2.730   3.160 -0.2020  0.2267  0.3203
   84SOPE   H3R 7758   1.632   2.724   3.207 -0.8770 -2.7935 -1.2290
   84SOPE   H3S 7759   1.781   2.820   3.204 -2.2358  1.6730 -0.2222
   84SOPE   C24 7760   1.795   2.590   3.185 -0.3948 -0.0799  0.9467
   84SOPE   H4R 7761   1.716   2.517   3.156 -0.8085  0.6657  0.1292
   84SOPE   H4S 7762   1.885   2.571   3.123 -1.6189 -1.4198 -0.5052
   84SOPE   C25 7763   1.843   2.572   3.330  0.4761  0.1406 -0.8528
   84SOPE   H5R 7764   1.933   2.507   3.332  1.3209  1.1148 -3.2160
   84SOPE   H5S 7765   1.870   2.670   3.375  1.7308 -0.5906  0.0503
   84SOPE   C26 7766   1.727   2.517   3.423 -0.1550  0.2563  0.0671
   84SOPE   H6R 7767   1.651   2.598   3.422 -0.8775 -0.3768  1.5276
   84SOPE   H6S 7768   1.681   2.424   3.383 -0.3236  0.4572 -0.2088
   84SOPE   C27 7769   1.772   2.494   3.564  0.9294 -0.4325 -0.3502
   84SOPE   H7R 7770   1.843   2.409   3.555 -0.7212 -1.8386 -0.6108
   84SOPE   H7S 7771   1.814   2.587   3.607  0.9042 -1.1726  1.3408
   84SOPE   C28 7772   1.667   2.439   3.666 -0.2955  0.4100 -0.4155
   84SOPE   H8R 7773   1.579   2.506   3.674 -1.7447 -1.5239  0.5513
   84SOPE   H8S 7774   1.614   2.352   3.623  1.5144 -0.2125 -1.5112
   84SOPE   C29 7775   1.730   2.420   3.805  0.9422 -0.2338  0.1206
   84SOPE   H91 7776   1.827   2.367   3.809  1.7671  1.1283 -0.8823
   84SOPE  C210 7777   1.699   2.486   3.925 -0.0505  0.1036 -0.0325
   84SOPE  H101 7778   1.748   2.456   4.019  0.2443 -2.0461 -0.8161
   84SOPE  C211 7779   1.584   2.578   3.959  1.1393 -0.1715  0.7714
   84SOPE  H11R 7780   1.494   2.557   3.899  0.2758  0.9359  1.6374
   84SOPE  H11S 7781   1.603   2.683   3.929 -2.2957 -0.0114 -1.3725
   84SOPE  C212 7782   1.554   2.580   4.112  0.9460 -0.1387  0.4123
   84SOPE  H12R 7783   1.473   2.654   4.128  1.7096  1.2418 -1.6317
   84SOPE  H12S 7784   1.644   2.607   4.170  0.6555 -1.2138  1.3903
   84SOPE  C213 7785   1.497   2.447   4.164 -0.7148  0.0512  0.5836
   84SOPE  H13R 7786   1.590   2.388   4.151  0.1115  1.6392 -1.2206
   84SOPE  H13S 7787   1.408   2.414   4.105 -0.8209  0.1699  0.6765
   84SOPE  C214 7788   1.453   2.442   4.311  1.2796 -0.0457  0.0172
   84SOPE  H14R 7789   1.352   2.485   4.321  0.0365 -3.1583  2.5580
   84SOPE  H14S 7790   1.527   2.504   4.366  0.9514 -0.7602  1.3068
   84SOPE  C215 7791   1.452   2.296   4.357  0.4976  0.1453 -1.8367
   84SOPE  H15R 7792   1.549   2.249   4.331  0.2621 -0.4115 -1.7150
   84SOPE  H15S 7793   1.361   2.252   4.311 -2.2511  3.0804  0.3293
   84SOPE  C216 7794   1.432   2.274   4.516  0.0404  0.2986  0.4381
   84SOPE  H16R 7795   1.325   2.297   4.536 -0.0029 -0.5157  1.2190
   84SOPE  H16S 7796   1.495   2.358   4.554 -0.1667  1.0800 -0.8619
   84SOPE  C217 7797   1.472   2.134   4.564 -0.0901  0.0376  0.6257
   84SOPE  H17R 7798   1.497   2.133   4.672  0.8332  1.0764  0.4428
   84SOPE  H17S 7799   1.565   2.115   4.506 -0.1330  1.4243  0.0814
   84SOPE  C218 7800   1.359   2.033   4.535 -0.6787  0.4468  0.2524
   84SOPE  H18R 7801   1.378   1.946   4.601  0.6087 -0.8690 -1.7575
   84SOPE  H18S 7802   1.374   2.001   4.430  0.5279 -0.2907  0.6282
   84SOPE  H18T 7803   1.259   2.080   4.536 -0.5535  0.7134  0.2421
   84SOPE   C33 7804   2.106   2.979   3.185 -0.9887 -0.5120  0.0066
   84SOPE   H3X 7805   2.166   2.886   3.177  2.0306  1.2784  0.4778
   84SOPE   H3Y 7806   2.004   2.962   3.143 -1.8593  1.4171  1.2073
   84SOPE   C34 7807   2.094   3.014   3.341 -0.0619  0.1903  0.7930
   84SOPE   H4X 7808   2.035   3.108   3.347  0.0129  0.2119  1.1675
   84SOPE   H4Y 7809   2.198   3.031   3.376  0.6499  1.5910 -1.7175
   84SOPE   C35 7810   2.036   2.908   3.432 -0.7502  0.1874  0.9696
   84SOPE   H5X 7811   2.106   2.822   3.437 -0.4223  0.3038 -0.9617
   84SOPE   H5Y 7812   1.933   2.878   3.403 -0.1096 -1.6608  0.4634
   84SOPE   C36 7813   2.016   2.960   3.582 -0.2629  0.1621 -0.2547
   84SOPE   H6X 7814   1.953   3.050   3.568  2.2179  1.9910 -0.3855
   84SOPE   H6Y 7815   2.104   3.006   3.631 -0.2531  0.4171 -0.5067
   84SOPE   C37 7816   1.949   2.868   3.689 -1.0054 -0.8879 -0.3979
   84SOPE   H7X 7817   1.989   2.765   3.677 -1.4141 -0.8605 -2.4191
   84SOPE   H7Y 7818   1.840   2.859   3.668 -1.2030 -0.3092  0.3723
   84SOPE   C38 7819   1.964   2.928   3.824 -0.8205 -1.1152  0.4294
   84SOPE   H8X 7820   1.898   3.017   3.827  1.2956  0.5915 -0.5744
   84SOPE   H8Y 7821   2.062   2.975   3.845 -1.0440  0.2728 -1.3984
   84SOPE   C39 7822   1.945   2.823   3.937  0.7778 -0.1344  0.4535
   84SOPE   H9X 7823   1.975   2.726   3.892 -2.9005 -0.7590 -1.0934
   84SOPE   H9Y 7824   1.834   2.815   3.929  0.8500 -0.2111 -0.7188
   84SOPE  C310 7825   1.998   2.856   4.071  0.3422 -0.1520  0.3788
   84SOPE  H10X 7826   2.109   2.859   4.063  0.3318 -1.2237 -0.4131
   84SOPE  H10Y 7827   1.983   2.772   4.142 -2.1763 -0.3483 -0.2773
   84SOPE  C311 7828   1.942   2.980   4.137 -0.8404 -0.7329 -0.7580
   84SOPE  H11X 7829   1.840   2.968   4.179 -0.5568 -0.1303  0.1536
   84SOPE  H11Y 7830   1.945   3.060   4.060 -1.8709  0.2819  0.2248
   84SOPE  C312 7831   2.022   3.032   4.258 -0.3499  0.4255  0.1561
   84SOPE  H12X 7832   1.977   3.129   4.288 -1.5632  0.0131 -0.2556
   84SOPE  H12Y 7833   2.126   3.047   4.222 -0.2910  2.8412  1.1829
   84SOPE  C313 7834   2.026   2.939   4.375  0.1182 -0.1121  0.7014
   84SOPE  H13X 7835   2.064   2.836   4.360  0.9241  0.0662  1.3688
   84SOPE  H13Y 7836   1.925   2.922   4.419  0.3134 -1.8819  0.5282
   84SOPE  C314 7837   2.117   2.999   4.487  0.3043 -0.5013  0.8171
   84SOPE  H14X 7838   2.082   3.101   4.513  0.6083 -0.8632  2.8712
   84SOPE  H14Y 7839   2.223   2.993   4.453  0.3401 -0.8164  0.9804
   84SOPE  C315 7840   2.101   2.920   4.612 -0.0352 -0.0970  0.3765
   84SOPE  H15X 7841   2.116   2.810   4.606 -0.6159 -0.1684  0.1087
   84SOPE  H15Y 7842   1.992   2.928   4.633 -0.5131 -0.5998 -1.6570
   84SOPE  C316 7843   2.168   2.983   4.734 -0.6958 -0.1127 -0.5319
   84SOPE  H16X 7844   2.279   2.978   4.728 -0.7499 -2.1378 -0.4601
   84SOPE  H16Y 7845   2.145   2.917   4.820  2.1944 -0.8000 -0.1619
   84SOPE  C317 7846   2.111   3.118   4.779 -0.3298  0.3318 -0.2973
   84SOPE  H17X 7847   2.005   3.096   4.805 -0.6570  0.8415 -1.1851
   84SOPE  H17Y 7848   2.118   3.196   4.701 -1.5350  2.6931  1.8230
   84SOPE  C318 7849   2.191   3.165   4.905 -0.1491 -0.3880 -0.1238
   84SOPE  H18X 7850   2.177   3.269   4.943 -2.4281 -0.6917  0.0248
   84SOPE  H18Y 7851   2.300   3.152   4.888 -0.1326  0.1000 -0.4363
   84SOPE  H18Z 7852   2.147   3.102   4.985 -2.5098 -1.0755 -1.8529
   85SOPE     N 7853   0.628   3.423   2.475 -0.0225  0.0909  0.3057
   85SOPE   HN1 7854   0.673   3.507   2.517  1.0741 -0.7292  0.8356
   85SOPE   HN2 7855   0.567   3.445   2.394  0.6574 -0.2350 -0.3091
   85SOPE   HN3 7856   0.556   3.396   2.545 -0.7617  2.3083  0.4731
   85SOPE   C12 7857   0.718   3.306   2.478 -0.0513  0.5642 -1.1473
   85SOPE  H12A 7858   0.820   3.345   2.463 -0.4652  1.8256 -0.7943
   85SOPE  H12B 7859   0.690   3.235   2.397  2.0091 -0.0510 -1.3668
   85SOPE   C11 7860   0.710   3.229   2.607 -0.1948 -0.1669  0.1145
   85SOPE  H11A 7861   0.769   3.135   2.595  0.1062  0.2104 -1.4948
   85SOPE  H11B 7862   0.602   3.204   2.612 -0.4247  0.9262  1.2406
   85SOPE     P 7863   0.888   3.343   2.772  0.3447  0.0476 -0.0093
   85SOPE   O13 7864   0.893   3.471   2.849  0.8498  0.0833  0.1889
   85SOPE   O14 7865   0.978   3.343   2.652 -0.0291  0.5760  0.3028
   85SOPE   O12 7866   0.740   3.312   2.723  0.1636  0.5306 -0.8306
   85SOPE   O11 7867   0.914   3.221   2.876  0.0496 -0.1092 -0.1102
   85SOPE    C1 7868   0.824   3.137   2.938 -0.3320  0.3867 -0.4505
   85SOPE    HA 7869   0.881   3.053   2.983  0.1927  0.7055 -0.5080
   85SOPE    HB 7870   0.745   3.107   2.866  1.6987  0.6966 -2.9413
   85SOPE    C2 7871   0.747   3.216   3.050 -0.1546  0.5536 -0.1109
   85SOPE    HS 7872   0.693   3.299   3.001  2.2268  1.6101 -1.0939
   85SOPE   O21 7873   0.851   3.270   3.139  0.3544  0.1870 -0.0283
   85SOPE   C21 7874   0.826   3.386   3.204  0.1795 -0.2232 -0.3530
   85SOPE   O22 7875   0.725   3.455   3.192 -0.0932 -0.1299  0.1507
   85SOPE   C22 7876   0.945   3.419   3.297 -0.8165 -0.0081 -0.0252
   85SOPE   H2R 7877   0.958   3.529   3.301 -0.5769 -0.0597  3.1691
   85SOPE   H2S 7878   1.037   3.382   3.247 -1.6762  0.2149 -1.8645
   85SOPE    C3 7879   0.654   3.123   3.126  0.2684 -0.0848  0.3045
   85SOPE    HX 7880   0.579   3.078   3.057  0.5897  0.6740 -0.5547
   85SOPE    HY 7881   0.581   3.170   3.195  1.0538  0.3948  0.8109
   85SOPE   O31 7882   0.733   3.015   3.184  0.4272 -0.9051 -0.0811
   85SOPE   C31 7883   0.755   3.027   3.318  0.6067  0.3255 -0.0478
   85SOPE   O32 7884   0.727   3.120   3.388 -0.3017 -0.5224  0.7416
   85SOPE   C32 7885   0.832   2.906   3.355  0.5844 -0.6903  0.1089
   85SOPE   H2X 7886   0.928   2.899   3.299  0.8736  3.0414 -0.1198
   85SOPE   H2Y 7887   0.773   2.812   3.349 -0.3337 -0.2552  1.7486
   85SOPE   C23 7888   0.926   3.363   3.442  0.3710 -0.1295  0.2153
   85SOPE   H3R 7889   1.012   3.395   3.504  0.3293  0.6858 -0.1312
   85SOPE   H3S 7890   0.921   3.252   3.441 -3.5186 -0.1198  1.0168
   85SOPE   C24 7891   0.795   3.418   3.511 -0.4301 -0.4389  0.6537
   85SOPE   H4R 7892   0.815   3.526   3.529  0.4920 -0.5036  0.0849
   85SOPE   H4S 7893   0.710   3.406   3.441 -0.5340 -1.1521  0.8970
   85SOPE   C25 7894   0.735   3.351   3.638 -0.0034  0.2121  0.4565
   85SOPE   H5R 7895   0.628   3.378   3.656 -0.6788 -3.2402  2.4166
   85SOPE   H5S 7896   0.728   3.241   3.624 -0.2223  0.1196  1.2535
   85SOPE   C26 7897   0.821   3.389   3.758  0.6050  0.5095 -0.4385
   85SOPE   H6R 7898   0.929   3.374   3.737  0.3315 -1.2546 -0.7788
   85SOPE   H6S 7899   0.810   3.496   3.782 -4.0993  0.0761  0.3574
   85SOPE   C27 7900   0.788   3.293   3.870 -0.3498  0.1197 -0.8686
   85SOPE   H7R 7901   0.678   3.284   3.881  0.0089 -0.9949  3.1819
   85SOPE   H7S 7902   0.825   3.192   3.841  1.1680  0.7987 -1.3541
   85SOPE   C28 7903   0.840   3.358   4.007  0.7341  0.2181  0.2342
   85SOPE   H8R 7904   0.946   3.389   3.995  1.0221 -0.6020  0.5757
   85SOPE   H8S 7905   0.775   3.447   4.024 -2.4348 -1.5045 -1.9032
   85SOPE   C29 7906   0.818   3.265   4.121  0.8818 -0.4631 -0.5459
   85SOPE   H91 7907   0.807   3.165   4.075 -0.6784  0.1921 -1.7001
   85SOPE  C210 7908   0.808   3.289   4.258  0.1102 -0.1387 -0.1645
   85SOPE  H101 7909   0.797   3.204   4.327  0.2826  0.3227  0.4392
   85SOPE  C211 7910   0.828   3.431   4.315 -0.5764  0.2810  0.0396
   85SOPE  H11R 7911   0.844   3.501   4.230 -0.7792 -0.7811 -0.8960
   85SOPE  H11S 7912   0.921   3.419   4.375 -0.0221 -3.3371 -1.3175
   85SOPE  C212 7913   0.713   3.485   4.410 -1.5239 -0.4893 -0.5069
   85SOPE  H12R 7914   0.613   3.475   4.363 -1.3867  2.5185 -1.6274
   85SOPE  H12S 7915   0.731   3.593   4.428  0.4026 -0.4639 -2.2088
   85SOPE  C213 7916   0.697   3.417   4.545  0.2669 -0.9300  0.1456
   85SOPE  H13R 7917   0.786   3.443   4.605  0.0521  2.4561 -0.7731
   85SOPE  H13S 7918   0.699   3.307   4.535 -2.4608 -1.0466  0.1705
   85SOPE  C214 7919   0.571   3.457   4.621 -0.0009 -0.2930 -0.0067
   85SOPE  H14R 7920   0.486   3.459   4.550  2.3213 -1.2485 -3.0456
   85SOPE  H14S 7921   0.574   3.561   4.660 -1.3965 -0.9659  2.0741
   85SOPE  C215 7922   0.521   3.375   4.739  0.0960 -0.2134 -0.2604
   85SOPE  H15R 7923   0.592   3.377   4.825  1.7819 -1.6213 -1.5374
   85SOPE  H15S 7924   0.517   3.274   4.695 -1.6730 -1.4348  2.4359
   85SOPE  C216 7925   0.386   3.423   4.790  0.3607 -0.1119 -1.0698
   85SOPE  H16R 7926   0.309   3.425   4.710 -1.4041  0.3864  0.5715
   85SOPE  H16S 7927   0.384   3.525   4.834  2.8790 -1.1074  1.6488
   85SOPE  C217 7928   0.324   3.337   4.903  0.0129 -0.6439  0.4479
   85SOPE  H17R 7929   0.406   3.335   4.978  2.1131 -0.2800 -1.6990
   85SOPE  H17S 7930   0.307   3.232   4.872  0.4483  0.0800 -2.5070
   85SOPE  C218 7931   0.188   3.380   4.964 -0.0790 -0.2493  0.4008
   85SOPE  H18R 7932   0.194   3.461   5.040  1.7877  0.1435 -0.1214
   85SOPE  H18S 7933   0.138   3.292   5.009 -0.3006 -1.7612 -2.5224
   85SOPE  H18T 7934   0.124   3.412   4.878  1.0816 -2.4939 -1.4319
   85SOPE   C33 7935   0.889   2.910   3.503 -0.1540 -0.3375  0.5668
   85SOPE   H3X 7936   0.938   3.009   3.513 -0.3780 -0.2699  1.0463
   85SOPE   H3Y 7937   0.972   2.837   3.506 -0.1522 -0.4288 -0.9486
   85SOPE   C34 7938   0.795   2.888   3.615  0.2453  0.0442 -0.1524
   85SOPE   H4X 7939   0.741   2.792   3.600  0.0239 -0.0727  1.2483
   85SOPE   H4Y 7940   0.723   2.972   3.607  1.4552  0.9385 -2.6637
   85SOPE   C35 7941   0.853   2.876   3.754 -0.6585  0.3741  0.6653
   85SOPE   H5X 7942   0.906   2.968   3.787  1.5547 -0.7043  0.3705
   85SOPE   H5Y 7943   0.942   2.810   3.738  0.3664  2.0056 -0.7773
   85SOPE   C36 7944   0.754   2.820   3.860  0.0827 -0.1669 -0.2345
   85SOPE   H6X 7945   0.735   2.711   3.855  2.0100 -0.5140 -0.8294
   85SOPE   H6Y 7946   0.659   2.871   3.835 -0.1732 -0.2098  0.6062
   85SOPE   C37 7947   0.807   2.844   3.998 -0.0647  0.5005 -0.1721
   85SOPE   H7X 7948   0.806   2.953   4.022  0.3600  0.6022 -0.6035
   85SOPE   H7Y 7949   0.911   2.804   3.999 -0.8922 -1.8091 -0.0712
   85SOPE   C38 7950   0.742   2.761   4.112  0.6247 -0.2023  0.2280
   85SOPE   H8X 7951   0.771   2.656   4.091 -1.5023 -0.5140 -1.4778
   85SOPE   H8Y 7952   0.632   2.764   4.096  0.8050 -1.2412 -1.5477
   85SOPE   C39 7953   0.799   2.805   4.245  0.2240 -0.1165  0.0550
   85SOPE   H9X 7954   0.806   2.915   4.246  0.7363 -0.1135 -1.2771
   85SOPE   H9Y 7955   0.899   2.760   4.260  0.0007 -0.2668  1.1817
   85SOPE  C310 7956   0.686   2.767   4.351  0.3158  0.3620  0.3369
   85SOPE  H10X 7957   0.680   2.657   4.365  1.3949  0.0478 -1.4249
   85SOPE  H10Y 7958   0.592   2.806   4.307  0.4565  1.6320  1.0932
   85SOPE  C311 7959   0.693   2.844   4.486 -0.2010  0.8605 -0.7397
   85SOPE  H11X 7960   0.688   2.953   4.465 -1.7029  0.7755 -0.9326
   85SOPE  H11Y 7961   0.783   2.818   4.547 -0.0057  0.7670 -1.0639
   85SOPE  C312 7962   0.575   2.806   4.578 -0.0267  0.5203  0.0662
   85SOPE  H12X 7963   0.578   2.699   4.610 -0.2758  0.4648 -0.0920
   85SOPE  H12Y 7964   0.483   2.827   4.520 -0.6849  0.5552  1.0982
   85SOPE  C313 7965   0.571   2.893   4.703 -0.5039 -0.3480 -0.0832
   85SOPE  H13X 7966   0.463   2.915   4.717 -0.3502  2.8665 -2.7458
   85SOPE  H13Y 7967   0.625   2.987   4.683 -0.1770 -0.2701  1.1033
   85SOPE  C314 7968   0.648   2.838   4.823 -0.1694 -0.5964  0.0228
   85SOPE  H14X 7969   0.753   2.840   4.788 -0.9368 -0.3956 -2.4562
   85SOPE  H14Y 7970   0.607   2.738   4.847 -2.2387 -0.0541 -1.0377
   85SOPE  C315 7971   0.621   2.920   4.947 -0.0264 -0.1562  0.0332
   85SOPE  H15X 7972   0.639   3.027   4.925  0.3810  0.1078  1.5508
   85SOPE  H15Y 7973   0.700   2.891   5.019 -0.2869 -2.4888 -0.5330
   85SOPE  C316 7974   0.486   2.881   5.010  0.1371 -0.0172  0.2377
   85SOPE  H16X 7975   0.504   2.796   5.079 -1.4204  0.8014  1.7502
   85SOPE  H16Y 7976   0.405   2.850   4.942  0.4339 -1.8916  0.6831
   85SOPE  C317 7977   0.420   2.994   5.092  0.2465  0.0250 -0.0320
   85SOPE  H17X 7978   0.444   3.098   5.060  2.6336  0.1713  1.8902
   85SOPE  H17Y 7979   0.469   2.989   5.192  0.2399 -1.9234 -0.0841
   85SOPE  C318 7980   0.263   2.979   5.109 -0.0553  0.5751 -0.6472
   85SOPE  H18X 7981   0.229   3.003   5.212  0.7139  1.1407 -0.5170
   85SOPE  H18Y 7982   0.228   2.880   5.071  1.6645  0.4168 -1.9425
   85SOPE  H18Z 7983   0.219   3.064   5.052  0.5826 -0.0137 -2.0649
   86SOPE     N 7984   0.470   0.378   2.197  0.3319  0.4361 -0.0504
   86SOPE   HN1 7985   0.414   0.366   2.110 -0.4138  0.7830  0.3760
   86SOPE   HN2 7986   0.565   0.340   2.179 -0.6287 -0.7552 -3.3504
   86SOPE   HN3 7987   0.424   0.313   2.264  2.3846  0.6445  1.6839
   86SOPE   C12 7988   0.486   0.518   2.248 -0.1436  0.0451  0.1274
   86SOPE  H12A 7989   0.384   0.558   2.264 -0.3523 -1.1098  1.9829
   86SOPE  H12B 7990   0.534   0.585   2.173 -1.5856  0.5593 -0.3768
   86SOPE   C11 7991   0.571   0.537   2.378 -0.6654 -0.5081  0.7830
   86SOPE  H11A 7992   0.529   0.470   2.455  0.7163 -0.7050  1.3950
   86SOPE  H11B 7993   0.544   0.639   2.414 -2.6834  0.1383 -2.1563
   86SOPE     P 7994   0.822   0.623   2.360  0.2043 -0.2745 -0.3266
   86SOPE   O13 7995   0.774   0.728   2.270  0.6244  0.0803 -0.0862
   86SOPE   O14 7996   0.954   0.573   2.312  0.4470  0.3139 -0.0554
   86SOPE   O12 7997   0.709   0.513   2.367  0.0960  0.0225 -0.4432
   86SOPE   O11 7998   0.848   0.672   2.511  0.4001 -0.1254  0.3895
   86SOPE    C1 7999   0.853   0.575   2.616 -0.3028 -0.1632 -0.0390
   86SOPE    HA 8000   0.921   0.494   2.583 -1.1182 -0.4210 -1.1776
   86SOPE    HB 8001   0.758   0.518   2.626  0.0104 -0.7068 -0.1328
   86SOPE    C2 8002   0.910   0.624   2.758  0.2346  0.0030 -0.5959
   86SOPE    HS 8003   0.857   0.718   2.787  0.9933 -0.3803  2.3365
   86SOPE   O21 8004   1.050   0.657   2.746 -0.2419  0.2021  0.6737
   86SOPE   C21 8005   1.087   0.762   2.819 -0.2067 -0.5052 -0.0495
   86SOPE   O22 8006   1.021   0.847   2.867  0.1840 -0.4015  0.6532
   86SOPE   C22 8007   1.238   0.738   2.850  0.2220  0.0938 -0.0896
   86SOPE   H2R 8008   1.292   0.733   2.753  0.8663 -0.5615  0.2961
   86SOPE   H2S 8009   1.234   0.633   2.885 -0.2221 -1.1632 -3.4984
   86SOPE    C3 8010   0.898   0.518   2.874  0.2734 -0.3653  0.3290
   86SOPE    HX 8011   0.963   0.432   2.847 -0.8476 -0.8707 -0.8934
   86SOPE    HY 8012   0.794   0.479   2.872  0.2807 -0.4194  1.0061
   86SOPE   O31 8013   0.946   0.567   3.003 -0.5482  0.1922  0.1402
   86SOPE   C31 8014   0.857   0.632   3.068  0.1767 -0.8571  0.5721
   86SOPE   O32 8015   0.741   0.654   3.033 -0.0672 -0.0422  0.2804
   86SOPE   C32 8016   0.913   0.691   3.192 -0.0595  0.1683 -0.0580
   86SOPE   H2X 8017   0.892   0.800   3.180 -3.1800 -0.2874  0.5305
   86SOPE   H2Y 8018   1.023   0.673   3.199 -0.3536 -1.8263 -0.1288
   86SOPE   C23 8019   1.308   0.836   2.955  0.1144 -0.1000 -0.2393
   86SOPE   H3R 8020   1.311   0.945   2.935 -1.3782 -0.2648 -1.6416
   86SOPE   H3S 8021   1.415   0.808   2.953  0.9417  2.7470  0.0192
   86SOPE   C24 8022   1.259   0.813   3.099  0.3322  0.3962 -0.4614
   86SOPE   H4R 8023   1.152   0.841   3.109 -0.4197 -1.5751 -2.2943
   86SOPE   H4S 8024   1.251   0.706   3.127  1.7061 -0.0492 -1.6019
   86SOPE   C25 8025   1.348   0.879   3.205 -0.1283 -0.9864  0.1330
   86SOPE   H5R 8026   1.447   0.829   3.203 -0.5753 -1.8665 -0.0900
   86SOPE   H5S 8027   1.372   0.972   3.149 -2.3566 -0.7801 -0.5512
   86SOPE   C26 8028   1.284   0.890   3.346 -0.0090  0.3153  0.2014
   86SOPE   H6R 8029   1.176   0.915   3.341 -0.3340 -1.1825 -1.0706
   86SOPE   H6S 8030   1.293   0.792   3.398 -0.0039 -0.1381 -0.6387
   86SOPE   C27 8031   1.346   0.997   3.426  0.8360  0.2313 -0.0740
   86SOPE   H7R 8032   1.455   1.003   3.405  1.0092  0.8920  0.9360
   86SOPE   H7S 8033   1.308   1.096   3.393  1.0875  0.6740  0.9435
   86SOPE   C28 8034   1.349   0.962   3.582  0.9601 -0.1956  0.0428
   86SOPE   H8R 8035   1.409   0.870   3.598  2.4693  0.9106  1.1117
   86SOPE   H8S 8036   1.392   1.046   3.642 -1.0333  0.0802  1.1657
   86SOPE   C29 8037   1.209   0.928   3.629  0.2496 -0.0414 -0.2343
   86SOPE   H91 8038   1.170   0.838   3.580  0.2205 -0.3822  0.4101
   86SOPE  C210 8039   1.150   0.980   3.739  0.4222 -0.5512 -0.7044
   86SOPE  H101 8040   1.046   0.958   3.768  1.4711 -1.5806  2.8608
   86SOPE  C211 8041   1.196   1.098   3.831 -0.1231 -0.3130  0.3695
   86SOPE  H11R 8042   1.156   1.193   3.792 -1.2108 -0.9016 -0.0018
   86SOPE  H11S 8043   1.303   1.127   3.833 -0.6150  1.6059  1.2985
   86SOPE  C212 8044   1.148   1.092   3.980 -0.4158  0.1563  0.2737
   86SOPE  H12R 8045   1.041   1.062   3.989 -0.6347  0.9225  0.3079
   86SOPE  H12S 8046   1.151   1.193   4.027  3.3580  0.5160 -0.4475
   86SOPE  C213 8047   1.233   0.998   4.066 -0.4346 -0.3845  0.3689
   86SOPE  H13R 8048   1.337   1.013   4.030 -0.3856  2.0195  1.2996
   86SOPE  H13S 8049   1.193   0.896   4.048  0.5609 -0.6478 -0.4302
   86SOPE  C214 8050   1.215   1.046   4.215  0.6538 -0.2867 -0.6760
   86SOPE  H14R 8051   1.110   1.065   4.248  1.5428 -1.0029  3.1107
   86SOPE  H14S 8052   1.262   1.143   4.243  0.1562 -0.8192  2.3698
   86SOPE  C215 8053   1.267   0.941   4.319  0.0357 -0.3640  0.0734
   86SOPE  H15R 8054   1.362   0.901   4.277 -0.2699 -1.0627  0.0333
   86SOPE  H15S 8055   1.197   0.855   4.323  0.7432 -1.0466 -1.4999
   86SOPE  C216 8056   1.288   1.002   4.460 -0.3611 -0.1126 -0.1275
   86SOPE  H16R 8057   1.352   1.093   4.451 -2.7910  1.4573 -3.3576
   86SOPE  H16S 8058   1.348   0.928   4.518  0.3212  0.7088  0.2409
   86SOPE  C217 8059   1.154   1.033   4.528 -0.1670 -0.2293 -0.0137
   86SOPE  H17R 8060   1.112   0.931   4.544 -0.1172 -0.2794 -0.1996
   86SOPE  H17S 8061   1.086   1.100   4.471 -0.2039  1.2265  1.6548
   86SOPE  C218 8062   1.173   1.083   4.666  0.3643  0.6144 -0.5641
   86SOPE  H18R 8063   1.210   1.188   4.671 -1.2232  1.2057 -0.5664
   86SOPE  H18S 8064   1.243   1.011   4.713  0.5045 -0.5803 -2.5008
   86SOPE  H18T 8065   1.082   1.074   4.730  0.3830 -0.9551 -0.7163
   86SOPE   C33 8066   0.840   0.629   3.310  0.9408  0.2722  0.3092
   86SOPE   H3X 8067   0.841   0.518   3.309 -0.1751  0.2513 -1.1852
   86SOPE   H3Y 8068   0.735   0.665   3.317  0.7191 -0.6283  2.6363
   86SOPE   C34 8069   0.905   0.683   3.439  0.2212  1.1644  0.2956
   86SOPE   H4X 8070   0.922   0.792   3.428  0.2178  1.3657  1.9668
   86SOPE   H4Y 8071   1.005   0.642   3.467 -0.4727  0.6812  2.2120
   86SOPE   C35 8072   0.828   0.661   3.564  0.4457 -0.4240  0.1830
   86SOPE   H5X 8073   0.784   0.559   3.563  1.5676 -0.9211 -1.3783
   86SOPE   H5Y 8074   0.747   0.737   3.571  1.1212  0.4094 -0.8249
   86SOPE   C36 8075   0.913   0.675   3.684 -0.1302  0.2609 -0.1864
   86SOPE   H6X 8076   0.956   0.778   3.685  1.9356 -0.5483  0.9563
   86SOPE   H6Y 8077   1.000   0.607   3.679  1.2482  1.8375  1.0827
   86SOPE   C37 8078   0.836   0.676   3.812 -0.5996  0.3007 -0.4935
   86SOPE   H7X 8079   0.819   0.568   3.828 -0.1230  0.3326  0.3115
   86SOPE   H7Y 8080   0.739   0.730   3.818  0.1372  1.4834  2.1943
   86SOPE   C38 8081   0.908   0.737   3.932 -0.1807  0.5774 -0.0988
   86SOPE   H8X 8082   0.904   0.847   3.923 -2.5886  0.5608  0.2890
   86SOPE   H8Y 8083   1.014   0.702   3.927  0.0631  1.4137 -1.1755
   86SOPE   C39 8084   0.843   0.706   4.066 -0.2695  0.0343 -0.2650
   86SOPE   H9X 8085   0.865   0.599   4.089  0.9328  0.0324 -1.3421
   86SOPE   H9Y 8086   0.733   0.721   4.056 -0.4485 -1.1886 -0.2576
   86SOPE  C310 8087   0.897   0.787   4.177 -0.4652 -0.0033 -0.4491
   86SOPE  H10X 8088   0.894   0.895   4.149  0.0306  0.2773  0.5366
   86SOPE  H10Y 8089   1.001   0.753   4.198 -0.1281  1.3284  0.1322
   86SOPE  C311 8090   0.809   0.778   4.301  0.0782 -0.2676 -0.5137
   86SOPE  H11X 8091   0.816   0.671   4.332  0.4292  0.6043  2.7548
   86SOPE  H11Y 8092   0.701   0.804   4.292  0.0145 -0.4831 -0.3948
   86SOPE  C312 8093   0.865   0.864   4.413 -0.2635 -0.3390 -0.6875
   86SOPE  H12X 8094   0.846   0.972   4.400  3.0796  0.6800  1.5598
   86SOPE  H12Y 8095   0.976   0.858   4.406 -0.2210  1.2187 -1.6780
   86SOPE  C313 8096   0.823   0.824   4.557  0.0146  0.0190  0.1266
   86SOPE  H13X 8097   0.875   0.883   4.635  0.9048 -0.2889 -0.2279
   86SOPE  H13Y 8098   0.864   0.721   4.566  0.9178  0.1933 -1.6332
   86SOPE  C314 8099   0.667   0.842   4.580 -0.0864 -0.6197  0.4599
   86SOPE  H14X 8100   0.614   0.772   4.512 -1.8741 -0.5306  1.6910
   86SOPE  H14Y 8101   0.623   0.940   4.550 -1.3422 -1.4994 -0.7000
   86SOPE  C315 8102   0.632   0.803   4.725  0.7096  0.0054 -0.6021
   86SOPE  H15X 8103   0.696   0.869   4.788  0.9793  0.9454 -1.8096
   86SOPE  H15Y 8104   0.657   0.698   4.753  2.0351  0.2374 -0.8238
   86SOPE  C316 8105   0.482   0.821   4.766  0.6905  0.4050 -0.0039
   86SOPE  H16X 8106   0.422   0.768   4.689  0.6376  0.7766 -0.2243
   86SOPE  H16Y 8107   0.447   0.926   4.771 -1.3699 -0.3185  1.9047
   86SOPE  C317 8108   0.437   0.768   4.898 -0.1545  0.6072 -0.1819
   86SOPE  H17X 8109   0.442   0.657   4.898  1.4140  0.6433 -1.6250
   86SOPE  H17Y 8110   0.328   0.779   4.914 -0.4172 -0.8382 -0.8166
   86SOPE  C318 8111   0.511   0.831   5.010 -1.1085 -0.0765 -0.1615
   86SOPE  H18X 8112   0.619   0.807   5.005 -1.0593 -0.0135  0.5483
   86SOPE  H18Y 8113   0.472   0.789   5.105 -1.9184  0.9121 -0.0369
   86SOPE  H18Z 8114   0.499   0.941   5.013  2.6235  0.4269  1.8945
   87SOPE     N 8115   6.711   0.619   2.584 -0.1852  0.0048  0.1236
   87SOPE   HN1 8116   6.615   0.634   2.620 -0.6543 -0.3739 -0.9563
   87SOPE   HN2 8117   6.711   0.579   2.488 -1.7740  1.2584 -0.4432
   87SOPE   HN3 8118   6.740   0.541   2.647 -1.2942  0.0069  0.6555
   87SOPE   C12 8119   6.794   0.743   2.605  0.5907  0.7136  0.0386
   87SOPE  H12A 8120   6.769   0.821   2.531  1.5590  0.4353 -0.5961
   87SOPE  H12B 8121   6.898   0.706   2.590  0.0983 -0.5579 -0.4047
   87SOPE   C11 8122   6.766   0.793   2.751  0.5321  0.1205 -0.4509
   87SOPE  H11A 8123   6.661   0.821   2.771  0.8365  0.8410  0.2002
   87SOPE  H11B 8124   6.814   0.891   2.772 -3.1733  2.1364 -0.6339
   87SOPE     P 8125   6.969   0.673   2.884  0.5501 -0.1105  0.0770
   87SOPE   O13 8126   7.048   0.740   2.770 -0.8654  0.2806 -0.4417
   87SOPE   O14 8127   6.981   0.531   2.903 -0.0629  0.9449  0.3037
   87SOPE   O12 8128   6.817   0.693   2.847  0.5928  0.3736  0.0482
   87SOPE   O11 8129   6.986   0.747   3.017  0.3262  0.2307 -0.5416
   87SOPE    C1 8130   6.892   0.809   3.097  0.1127  0.2842 -0.5635
   87SOPE    HA 8131   6.811   0.850   3.034  1.4981  1.7173 -1.4928
   87SOPE    HB 8132   6.933   0.892   3.158 -0.5430  0.2541 -0.0711
   87SOPE    C2 8133   6.847   0.709   3.208  0.0537  0.1173  0.4977
   87SOPE    HS 8134   6.805   0.774   3.288  0.2196  1.1210 -0.2116
   87SOPE   O21 8135   6.954   0.619   3.252 -0.3692 -0.0959  0.0881
   87SOPE   C21 8136   7.052   0.689   3.302  0.9198  0.4072  0.3535
   87SOPE   O22 8137   7.055   0.805   3.344  0.4697  0.6035  0.0453
   87SOPE   C22 8138   7.179   0.597   3.315  0.8496 -0.4617 -0.3568
   87SOPE   H2R 8139   7.207   0.582   3.209  0.0266 -0.8937 -0.5208
   87SOPE   H2S 8140   7.148   0.494   3.343  0.6748 -0.6818 -1.3355
   87SOPE    C3 8141   6.725   0.624   3.163  0.1675 -0.0116  0.1815
   87SOPE    HX 8142   6.772   0.572   3.077  0.9030 -0.1543  0.6525
   87SOPE    HY 8143   6.643   0.689   3.127 -0.9265 -0.7860  1.1890
   87SOPE   O31 8144   6.681   0.533   3.274  0.0429 -0.1544  0.4093
   87SOPE   C31 8145   6.620   0.420   3.244  0.0433  0.1437  0.3058
   87SOPE   O32 8146   6.596   0.384   3.132  0.1486 -0.1817 -0.2384
   87SOPE   C32 8147   6.579   0.345   3.374  0.1002 -0.3789  0.5672
   87SOPE   H2X 8148   6.490   0.283   3.349 -0.4027  0.0452  1.2560
   87SOPE   H2Y 8149   6.548   0.419   3.450 -1.5233 -0.9503  0.5102
   87SOPE   C23 8150   7.285   0.655   3.403  0.1136  0.1773  0.1987
   87SOPE   H3R 8151   7.324   0.749   3.356  1.0969 -1.9712 -3.7777
   87SOPE   H3S 8152   7.380   0.598   3.412  1.4348  2.2567  0.2072
   87SOPE   C24 8153   7.231   0.670   3.547 -0.5178  0.1769 -0.9190
   87SOPE   H4R 8154   7.154   0.749   3.556  1.0259  1.5959  0.4922
   87SOPE   H4S 8155   7.188   0.574   3.583  0.3986  0.1281  0.0947
   87SOPE   C25 8156   7.334   0.704   3.661 -0.3644 -0.0759  0.7810
   87SOPE   H5R 8157   7.413   0.626   3.669 -1.3001 -1.1367 -0.0745
   87SOPE   H5S 8158   7.388   0.797   3.631 -0.8489 -0.1399 -0.3314
   87SOPE   C26 8159   7.264   0.719   3.798 -0.1512  0.1114  0.0108
   87SOPE   H6R 8160   7.186   0.797   3.782  0.5727  0.3799 -2.7002
   87SOPE   H6S 8161   7.208   0.625   3.821 -1.0447  0.7789  0.6147
   87SOPE   C27 8162   7.358   0.775   3.899 -0.9679 -0.7393 -0.0897
   87SOPE   H7R 8163   7.433   0.698   3.926  0.0652  0.1707 -0.2692
   87SOPE   H7S 8164   7.406   0.861   3.847  0.0799  0.1595  2.2207
   87SOPE   C28 8165   7.288   0.817   4.027  0.4760 -0.7007 -0.3752
   87SOPE   H8R 8166   7.202   0.883   4.002  2.7551  1.8902 -1.8909
   87SOPE   H8S 8167   7.237   0.726   4.068 -0.1381 -0.8035 -1.3289
   87SOPE   C29 8168   7.377   0.882   4.123  0.5577 -0.2710  0.5124
   87SOPE   H91 8169   7.486   0.883   4.103  0.5776  1.7376  0.5432
   87SOPE  C210 8170   7.328   0.941   4.231  0.3094 -0.3609  0.3167
   87SOPE  H101 8171   7.392   1.008   4.290 -0.2705  2.1181 -1.6830
   87SOPE  C211 8172   7.185   0.939   4.275 -0.5271  0.0688  0.1990
   87SOPE  H11R 8173   7.126   0.870   4.211  0.7594  0.0585 -0.9930
   87SOPE  H11S 8174   7.143   1.039   4.255  2.6964  1.3745 -0.5785
   87SOPE  C212 8175   7.172   0.910   4.422  0.4241 -0.2003  0.6458
   87SOPE  H12R 8176   7.241   0.974   4.481 -2.8417  3.0765  1.2888
   87SOPE  H12S 8177   7.191   0.801   4.429  4.1434  0.1256 -1.6500
   87SOPE  C213 8178   7.027   0.949   4.465 -0.1663 -0.0141  0.0139
   87SOPE  H13R 8179   6.965   0.882   4.401  0.0212  0.0318 -0.2158
   87SOPE  H13S 8180   7.006   1.056   4.444  0.9660  0.5164  1.4385
   87SOPE  C214 8181   7.005   0.912   4.616 -0.2778  0.4654  0.2879
   87SOPE  H14R 8182   7.091   0.956   4.671  0.8029 -0.4342 -0.6466
   87SOPE  H14S 8183   7.010   0.801   4.616  0.1437  0.4855  0.5851
   87SOPE  C215 8184   6.875   0.944   4.687  0.1358  0.6681  0.0712
   87SOPE  H15R 8185   6.874   1.053   4.711 -0.1592  0.7472 -0.2950
   87SOPE  H15S 8186   6.879   0.889   4.784 -1.1738 -2.0406 -1.3016
   87SOPE  C216 8187   6.742   0.896   4.615  0.6533  0.2352 -0.4579
   87SOPE  H16R 8188   6.745   0.785   4.613  0.0393  0.2337 -1.4656
   87SOPE  H16S 8189   6.738   0.927   4.509 -0.5644 -2.5114 -1.2837
   87SOPE  C217 8190   6.613   0.957   4.672 -0.0330  0.7483 -0.4499
   87SOPE  H17R 8191   6.595   0.921   4.775 -0.3138 -0.3360 -0.8550
   87SOPE  H17S 8192   6.527   0.912   4.617 -0.1191  0.0475  0.2463
   87SOPE  C218 8193   6.612   1.104   4.653  0.5080  0.2918 -0.3803
   87SOPE  H18R 8194   6.511   1.151   4.654  0.5750  0.4393 -0.4275
   87SOPE  H18S 8195   6.654   1.132   4.554  0.8357 -0.8749 -0.5782
   87SOPE  H18T 8196   6.675   1.161   4.724 -0.6182  1.5804 -0.3562
   87SOPE   C33 8197   6.684   0.244   3.435 -0.8492  0.2380 -0.5873
   87SOPE   H3X 8198   6.786   0.285   3.449 -0.8003 -0.7042  2.4774
   87SOPE   H3Y 8199   6.701   0.152   3.374 -2.5740 -0.0748 -0.6313
   87SOPE   C34 8200   6.653   0.201   3.577  0.5461 -0.4643  0.1601
   87SOPE   H4X 8201   6.712   0.111   3.606 -0.1960 -0.0025  3.5878
   87SOPE   H4Y 8202   6.547   0.170   3.573  0.6466 -0.6597 -1.3999
   87SOPE   C35 8203   6.672   0.308   3.688  0.0671  0.2763  0.2163
   87SOPE   H5X 8204   6.589   0.382   3.683 -0.2686 -0.1852 -1.8175
   87SOPE   H5Y 8205   6.776   0.348   3.689  0.0412  0.3322  0.4795
   87SOPE   C36 8206   6.651   0.236   3.825 -0.0181  0.3182  0.4964
   87SOPE   H6X 8207   6.713   0.145   3.826 -2.7998 -1.7049  0.4279
   87SOPE   H6Y 8208   6.549   0.193   3.832  0.6936 -1.5911 -0.2803
   87SOPE   C37 8209   6.681   0.321   3.940 -0.2874 -0.2707 -0.9104
   87SOPE   H7X 8210   6.612   0.408   3.938 -0.8827 -0.6657  0.5306
   87SOPE   H7Y 8211   6.786   0.356   3.932 -0.3440 -0.0232 -0.6164
   87SOPE   C38 8212   6.665   0.258   4.081 -0.7149  0.2355 -0.6148
   87SOPE   H8X 8213   6.724   0.320   4.152 -0.2831 -0.7113 -0.1214
   87SOPE   H8Y 8214   6.714   0.159   4.067 -1.0240  0.1303 -0.9679
   87SOPE   C39 8215   6.529   0.231   4.130  0.4781  0.4020  0.5528
   87SOPE   H9X 8216   6.466   0.175   4.058  2.1394 -1.6327  0.5736
   87SOPE   H9Y 8217   6.481   0.329   4.150  1.0635  0.6375  0.8345
   87SOPE  C310 8218   6.530   0.161   4.265  0.0293  0.1990  0.2588
   87SOPE  H10X 8219   6.593   0.217   4.338  1.4115  1.3931 -1.7350
   87SOPE  H10Y 8220   6.571   0.058   4.260  0.6829  0.4904 -0.6103
   87SOPE  C311 8221   6.385   0.158   4.331  0.6409 -0.2915 -0.3498
   87SOPE  H11X 8222   6.323   0.082   4.279 -2.5002  1.1285  1.0708
   87SOPE  H11Y 8223   6.341   0.257   4.308  0.4516 -0.3947 -0.4274
   87SOPE  C312 8224   6.374   0.150   4.478  0.6780  0.8097  0.0225
   87SOPE  H12X 8225   6.437   0.232   4.518  2.5588  0.1286 -1.4484
   87SOPE  H12Y 8226   6.422   0.058   4.517  1.4748  0.9988 -0.4986
   87SOPE  C313 8227   6.235   0.157   4.527 -0.3113  0.2718  0.9069
   87SOPE  H13X 8228   6.173   0.067   4.508  2.6510 -1.6876 -0.1304
   87SOPE  H13Y 8229   6.183   0.248   4.489  0.4980  0.4637  0.2346
   87SOPE  C314 8230   6.236   0.187   4.678  0.0381 -0.0317  0.3059
   87SOPE  H14X 8231   6.284   0.287   4.686 -1.7867  0.9000  0.0493
   87SOPE  H14Y 8232   6.279   0.108   4.744  0.0387  0.8327  1.3793
   87SOPE  C315 8233   6.097   0.220   4.741  0.3434 -0.0415  0.5151
   87SOPE  H15X 8234   6.077   0.322   4.702 -0.3768  0.3467  1.8293
   87SOPE  H15Y 8235   6.099   0.221   4.852 -2.2538 -2.3300  0.6687
   87SOPE  C316 8236   5.988   0.123   4.702 -0.2399 -0.6972 -0.5621
   87SOPE  H16X 8237   6.026   0.024   4.734 -1.1390 -0.6651  0.7047
   87SOPE  H16Y 8238   5.975   0.113   4.592 -1.8956  1.6863 -0.6472
   87SOPE  C317 8239   5.856   0.146   4.782  0.3454 -0.7507 -0.2095
   87SOPE  H17X 8240   5.877   0.128   4.889  0.9317  0.9773 -0.0086
   87SOPE  H17Y 8241   5.768   0.084   4.755 -0.6124 -0.4271  1.9856
   87SOPE  C318 8242   5.803   0.286   4.758 -0.1219  0.3228 -0.0407
   87SOPE  H18X 8243   5.821   0.310   4.652  1.2779 -2.8158 -0.6266
   87SOPE  H18Y 8244   5.851   0.361   4.825 -1.9718  0.9470  0.6678
   87SOPE  H18Z 8245   5.692   0.286   4.761 -0.2679  0.1054 -2.9801
   88SOPE     N 8246   3.252   0.438   2.719  0.0025  0.3173 -0.1122
   88SOPE   HN1 8247   3.202   0.377   2.787 -1.4740  0.1003 -1.3375
   88SOPE   HN2 8248   3.257   0.392   2.626  2.8001 -0.6640  0.4423
   88SOPE   HN3 8249   3.353   0.430   2.742 -0.2576 -3.1668  0.3810
   88SOPE   C12 8250   3.201   0.579   2.712  0.3914  0.0404  0.5077
   88SOPE  H12A 8251   3.177   0.606   2.817 -0.6778  0.1788  0.2383
   88SOPE  H12B 8252   3.108   0.583   2.652  0.8300  0.9070 -0.1391
   88SOPE   C11 8253   3.308   0.672   2.655 -0.4008 -0.7963 -0.2211
   88SOPE  H11A 8254   3.257   0.764   2.619  1.4406 -0.6464 -2.7331
   88SOPE  H11B 8255   3.348   0.638   2.557 -0.2967 -2.5750  0.4047
   88SOPE     P 8256   3.547   0.631   2.745 -0.1707  0.8442  0.1357
   88SOPE   O13 8257   3.613   0.674   2.624 -0.4724 -0.0554 -0.4261
   88SOPE   O14 8258   3.519   0.485   2.753  0.1122 -0.6482  0.0951
   88SOPE   O12 8259   3.408   0.704   2.752  0.1649 -0.0837  0.6180
   88SOPE   O11 8260   3.627   0.674   2.877 -0.5850 -0.4111  0.3853
   88SOPE    C1 8261   3.556   0.721   2.991 -0.9888 -0.0520  0.2607
   88SOPE    HA 8262   3.454   0.679   2.996 -0.3560 -1.5164  1.8244
   88SOPE    HB 8263   3.550   0.832   2.990 -0.5423 -0.0227  0.3481
   88SOPE    C2 8264   3.633   0.676   3.113 -0.5176  0.5562  0.1475
   88SOPE    HS 8265   3.557   0.656   3.191 -0.1318 -1.4459  0.0505
   88SOPE   O21 8266   3.707   0.784   3.161 -0.1596 -0.1225 -0.1439
   88SOPE   C21 8267   3.647   0.887   3.217  0.4982  0.1790 -1.0332
   88SOPE   O22 8268   3.531   0.896   3.249 -0.1439 -0.0299  0.2939
   88SOPE   C22 8269   3.747   1.001   3.225 -0.0846  0.1704 -0.1327
   88SOPE   H2R 8270   3.689   1.092   3.254 -0.7275  0.0083 -0.8837
   88SOPE   H2S 8271   3.787   1.026   3.124 -1.8930  1.1401 -0.6595
   88SOPE    C3 8272   3.725   0.556   3.100 -0.6869  0.0919  0.1994
   88SOPE    HX 8273   3.820   0.600   3.063 -0.3960 -1.9833 -1.7289
   88SOPE    HY 8274   3.698   0.478   3.026  0.1861 -0.4399  0.4210
   88SOPE   O31 8275   3.732   0.488   3.228 -0.0261  0.4156 -0.6935
   88SOPE   C31 8276   3.852   0.452   3.271  0.1165 -0.8929 -0.3928
   88SOPE   O32 8277   3.953   0.483   3.210 -0.8298 -0.2557 -0.3076
   88SOPE   C32 8278   3.849   0.366   3.392  0.4796  0.1814 -0.2488
   88SOPE   H2X 8279   3.934   0.295   3.381  0.5948  0.4792 -1.4834
   88SOPE   H2Y 8280   3.749   0.319   3.400  0.4485  0.3728  0.5219
   88SOPE   C23 8281   3.868   0.984   3.320 -0.2634  0.2861  0.1346
   88SOPE   H3R 8282   3.933   1.074   3.313  1.5811 -0.8808  1.3550
   88SOPE   H3S 8283   3.916   0.898   3.268 -1.8775 -1.2862  1.1097
   88SOPE   C24 8284   3.828   0.958   3.461 -0.4629  0.2420  0.0109
   88SOPE   H4R 8285   3.801   1.057   3.504  0.1097  0.6903 -0.6467
   88SOPE   H4S 8286   3.732   0.902   3.457 -0.3686  0.1413 -2.4258
   88SOPE   C25 8287   3.933   0.877   3.535 -0.1784 -0.4071  0.3119
   88SOPE   H5R 8288   3.946   0.770   3.506 -2.6336 -0.9984  1.1153
   88SOPE   H5S 8289   4.033   0.925   3.537  0.1899 -1.1215 -0.5649
   88SOPE   C26 8290   3.883   0.877   3.682  0.0290 -0.4929  0.2937
   88SOPE   H6R 8291   3.912   0.975   3.726 -2.0233  0.5493 -0.5132
   88SOPE   H6S 8292   3.772   0.883   3.678  0.1217  0.9090 -0.9979
   88SOPE   C27 8293   3.942   0.765   3.759 -0.4650  0.1180 -1.1087
   88SOPE   H7R 8294   3.917   0.665   3.718  1.2456 -1.4639  1.4313
   88SOPE   H7S 8295   4.051   0.778   3.743 -0.1750 -1.7062 -0.8136
   88SOPE   C28 8296   3.929   0.782   3.913 -0.1702 -0.5096  0.1266
   88SOPE   H8R 8297   3.982   0.876   3.939  0.3171 -0.4603 -0.9547
   88SOPE   H8S 8298   3.822   0.792   3.940 -0.5939 -0.7835 -1.3519
   88SOPE   C29 8299   3.997   0.683   4.002  0.0412 -0.0563 -0.1289
   88SOPE   H91 8300   4.038   0.598   3.946  1.3039 -0.6182  1.5635
   88SOPE  C210 8301   4.007   0.682   4.138  0.4781  0.2996 -0.6404
   88SOPE  H101 8302   4.040   0.591   4.192  0.4305  0.9007  0.4216
   88SOPE  C211 8303   3.954   0.795   4.227 -0.8220  0.7846 -0.4759
   88SOPE  H11R 8304   3.850   0.771   4.258 -0.9308 -2.3240 -2.7725
   88SOPE  H11S 8305   3.943   0.890   4.172 -0.7600  0.1337 -1.6479
   88SOPE  C212 8306   4.036   0.822   4.356  0.7731 -0.1665  0.9592
   88SOPE  H12R 8307   4.007   0.925   4.387  1.4146 -0.3248  2.1401
   88SOPE  H12S 8308   4.144   0.814   4.330  0.3927  0.0625 -0.7867
   88SOPE  C213 8309   4.026   0.724   4.470  0.6193  0.2489  0.9952
   88SOPE  H13R 8310   4.042   0.624   4.424 -0.7776  0.7473 -0.6832
   88SOPE  H13S 8311   3.923   0.728   4.512  1.7384  1.2373  3.9514
   88SOPE  C214 8312   4.117   0.742   4.596  1.0223 -1.0768  0.7352
   88SOPE  H14R 8313   4.217   0.704   4.566  0.9066 -1.4730  0.8492
   88SOPE  H14S 8314   4.094   0.677   4.683 -0.4887 -1.2531  0.2219
   88SOPE  C215 8315   4.135   0.893   4.644 -0.2652  0.4225  0.9651
   88SOPE  H15R 8316   4.159   0.947   4.551  2.0175 -3.3657 -0.9093
   88SOPE  H15S 8317   4.229   0.903   4.703  1.3561 -0.6437 -1.3141
   88SOPE  C216 8318   4.027   0.956   4.728  0.2445  0.1932  0.6375
   88SOPE  H16R 8319   4.025   0.914   4.831 -1.3463  0.8255  0.8927
   88SOPE  H16S 8320   3.923   0.939   4.690  0.1119  0.9896  0.6392
   88SOPE  C217 8321   4.056   1.099   4.754 -0.1497 -0.1409  0.4312
   88SOPE  H17R 8322   4.158   1.128   4.787  0.0783 -0.9565  0.4539
   88SOPE  H17S 8323   3.991   1.114   4.843  0.6465 -1.7150  1.3187
   88SOPE  C218 8324   4.023   1.188   4.629  0.5770  0.0893  0.4022
   88SOPE  H18R 8325   4.021   1.295   4.656 -1.6327 -0.1197  1.2612
   88SOPE  H18S 8326   3.921   1.157   4.596  0.7791  1.2322 -1.4272
   88SOPE  H18T 8327   4.102   1.177   4.551  0.7191  0.4409  0.4964
   88SOPE   C33 8328   3.862   0.446   3.524 -0.2869  0.6262 -0.2668
   88SOPE   H3X 8329   3.814   0.545   3.530 -1.2532  0.2237 -1.0065
   88SOPE   H3Y 8330   3.970   0.467   3.538 -0.4636  0.2946  1.9909
   88SOPE   C34 8331   3.807   0.356   3.637  0.5661 -0.2129  0.0491
   88SOPE   H4X 8332   3.846   0.253   3.628  2.0581  0.1802  1.5728
   88SOPE   H4Y 8333   3.697   0.340   3.629  0.1483  1.9809  0.5243
   88SOPE   C35 8334   3.857   0.403   3.774 -0.0647 -0.0993  0.7090
   88SOPE   H5X 8335   3.794   0.490   3.801  0.4468  0.7760 -0.8180
   88SOPE   H5Y 8336   3.963   0.437   3.765 -1.2529  4.2206  0.8208
   88SOPE   C36 8337   3.869   0.287   3.879  0.3674 -0.4755 -0.3057
   88SOPE   H6X 8338   3.933   0.211   3.829 -0.7009 -0.3659 -1.9272
   88SOPE   H6Y 8339   3.769   0.242   3.896 -0.2453  0.9811  0.0620
   88SOPE   C37 8340   3.929   0.329   4.011  0.4256 -0.2757  0.1726
   88SOPE   H7X 8341   3.867   0.405   4.062 -0.8328 -1.7038  0.8483
   88SOPE   H7Y 8342   4.032   0.367   3.992 -0.6553  2.6125 -0.3622
   88SOPE   C38 8343   3.941   0.207   4.096  0.1911  0.4173 -0.2000
   88SOPE   H8X 8344   4.004   0.137   4.037 -0.7292 -0.2775 -0.3770
   88SOPE   H8Y 8345   3.839   0.166   4.108 -0.6428  2.7027  1.1825
   88SOPE   C39 8346   4.021   0.240   4.229 -0.2763  0.3056  0.8095
   88SOPE   H9X 8347   4.098   0.317   4.209 -0.4654  0.3233  0.0954
   88SOPE   H9Y 8348   4.073   0.153   4.275  0.3568  0.8647  1.1570
   88SOPE  C310 8349   3.925   0.294   4.327  0.5227  0.1531 -1.0706
   88SOPE  H10X 8350   3.863   0.208   4.358  0.4636  0.4478 -0.3467
   88SOPE  H10Y 8351   3.864   0.381   4.293  0.2060  0.4312  0.1587
   88SOPE  C311 8352   4.003   0.344   4.456 -0.1423 -0.9182  0.2741
   88SOPE  H11X 8353   4.060   0.433   4.420 -2.7267  0.8796  0.4073
   88SOPE  H11Y 8354   4.086   0.272   4.475  0.8072  0.8183  3.4207
   88SOPE  C312 8355   3.915   0.379   4.575  0.2169  0.5260 -0.4320
   88SOPE  H12X 8356   3.830   0.439   4.536  0.0788  1.7005  1.5651
   88SOPE  H12Y 8357   3.957   0.443   4.655 -2.2367  3.1361 -1.0725
   88SOPE  C313 8358   3.858   0.247   4.639  0.5703  0.0098 -0.1214
   88SOPE  H13X 8359   3.938   0.175   4.665  1.7841  1.9867  2.0034
   88SOPE  H13Y 8360   3.791   0.206   4.561 -1.3353  0.2581  1.2999
   88SOPE  C314 8361   3.762   0.265   4.759 -0.0681  0.3876 -0.7095
   88SOPE  H14X 8362   3.794   0.345   4.829  0.2302 -1.0845  0.9078
   88SOPE  H14Y 8363   3.758   0.169   4.815  0.2415  1.3358  0.9915
   88SOPE  C315 8364   3.621   0.282   4.711  0.3875  0.5705 -0.4812
   88SOPE  H15X 8365   3.580   0.198   4.651  2.3346 -0.6104 -0.2288
   88SOPE  H15Y 8366   3.621   0.373   4.648 -1.4740  2.5840  2.1738
   88SOPE  C316 8367   3.520   0.321   4.820  0.3181 -0.0650  0.2626
   88SOPE  H16X 8368   3.561   0.386   4.900 -0.3699 -2.8279  3.0564
   88SOPE  H16Y 8369   3.483   0.233   4.877 -1.5796 -0.0544 -0.8612
   88SOPE  C317 8370   3.400   0.388   4.758  0.8932  0.1431  0.3091
   88SOPE  H17X 8371   3.435   0.476   4.700  3.1093 -1.2957 -0.6567
   88SOPE  H17Y 8372   3.331   0.422   4.838 -1.9902  0.9418 -2.3146
   88SOPE  C318 8373   3.323   0.301   4.660  0.1951  0.6163 -0.2498
   88SOPE  H18X 8374   3.287   0.218   4.724  1.6030  0.8068  0.8429
   88SOPE  H18Y 8375   3.379   0.261   4.574 -2.4863 -1.4075 -1.2028
   88SOPE  H18Z 8376   3.231   0.350   4.620 -0.7649 -0.1529  0.9178
   89SAPC     N 8377   6.771   1.569   7.436 -0.4899 -0.7669  0.0019
   89SAPC   C12 8378   6.697   1.580   7.307 -0.1532 -0.2694 -0.2216
   89SAPC  H12A 8379   6.736   1.667   7.256  2.5010 -0.7076  0.8467
   89SAPC  H12B 8380   6.597   1.606   7.338 -0.5288 -1.5709 -0.2763
   89SAPC   C13 8381   6.706   1.473   7.525  0.3710  0.5199 -0.0943
   89SAPC  H13A 8382   6.717   1.369   7.498 -0.0670 -0.0048  1.6196
   89SAPC  H13B 8383   6.745   1.479   7.625 -0.6954 -0.1871  0.3827
   89SAPC  H13C 8384   6.599   1.484   7.533 -0.3721 -2.5461 -3.2371
   89SAPC   C14 8385   6.904   1.522   7.399 -0.2044 -0.4017 -0.2382
   89SAPC  H14A 8386   6.971   1.519   7.484 -1.9979 -0.1172  1.2462
   89SAPC  H14B 8387   6.911   1.431   7.341  1.8042 -0.1452 -0.4761
   89SAPC  H14C 8388   6.945   1.593   7.328  0.5376  0.1739  0.7318
   89SAPC   C15 8389   6.776   1.700   7.502  0.5684  0.2633  1.0176
   89SAPC  H15A 8390   6.820   1.687   7.600 -2.1690  0.3540  2.3436
   89SAPC  H15B 8391   6.818   1.777   7.440 -1.8044 -0.3140 -1.4898
   89SAPC  H15C 8392   6.676   1.736   7.518 -0.4998 -0.9980 -2.0960
   89SAPC   C11 8393   6.692   1.458   7.209 -0.2543 -0.3930 -0.2789
   89SAPC  H11A 8394   6.614   1.477   7.132  0.2409  0.9459 -0.4701
   89SAPC  H11B 8395   6.658   1.374   7.273  0.1677  0.0883  0.5962
   89SAPC     P 8396   6.881   1.503   7.042  0.6438 -0.4431  0.0669
   89SAPC   O13 8397   6.964   1.613   7.105 -0.8707 -0.2955 -0.0294
   89SAPC   O14 8398   6.950   1.410   6.950 -0.2064  0.3555 -0.1342
   89SAPC   O12 8399   6.814   1.415   7.158  0.1403  0.8345 -0.2782
   89SAPC   O11 8400   6.759   1.577   6.971  0.2211  0.0073 -0.5132
   89SAPC    C1 8401   6.669   1.516   6.884 -0.5150  0.4040  0.0089
   89SAPC    HA 8402   6.649   1.409   6.906  1.9344 -0.2221 -0.4862
   89SAPC    HB 8403   6.576   1.575   6.875 -1.8300 -1.6852 -0.7737
   89SAPC    C2 8404   6.735   1.521   6.749  0.1814 -0.0067 -0.1818
   89SAPC    HS 8405   6.829   1.462   6.745 -0.1881 -0.5452 -1.9074
   89SAPC   O21 8406   6.764   1.660   6.725  0.0982  1.1074  0.7571
   89SAPC   C21 8407   6.883   1.704   6.707 -0.2060  0.6978  0.2195
   89SAPC   O22 8408   6.981   1.633   6.679  0.0932 -0.3719 -0.0104
   89SAPC   C22 8409   6.886   1.854   6.711  0.1952  1.0768  0.0378
   89SAPC   H2R 8410   6.785   1.886   6.680  0.5832  2.3648  0.0379
   89SAPC   H2S 8411   6.924   1.893   6.808  1.7736 -0.6007  0.1552
   89SAPC    C3 8412   6.646   1.469   6.632 -0.0585 -0.1059 -0.4443
   89SAPC    HX 8413   6.567   1.546   6.622 -0.8197 -0.8191 -0.0385
   89SAPC    HY 8414   6.606   1.369   6.660 -0.6446 -0.4642 -2.3901
   89SAPC   O31 8415   6.719   1.449   6.510 -0.4157 -0.7192 -0.1542
   89SAPC   C31 8416   6.821   1.359   6.516 -0.7817  0.2954 -0.7972
   89SAPC   O32 8417   6.842   1.279   6.605  0.5415  0.2255 -0.2713
   89SAPC   C32 8418   6.901   1.366   6.390 -0.0384 -0.0390 -0.3062
   89SAPC   H2X 8419   6.828   1.316   6.323 -0.5418  0.3592 -0.0558
   89SAPC   H2Y 8420   6.993   1.306   6.406  1.4338  2.5942  1.9609
   89SAPC   C23 8421   6.996   1.897   6.604 -0.1883 -0.1092 -0.1070
   89SAPC   H3R 8422   6.961   1.865   6.504  0.7176 -1.5752  0.0019
   89SAPC   H3S 8423   7.095   1.846   6.607 -0.2149 -0.2140 -0.8507
   89SAPC   C24 8424   7.029   2.046   6.595 -0.3834  0.3238  0.0436
   89SAPC   H4R 8425   7.102   2.058   6.512  0.0441 -2.7774 -0.1532
   89SAPC   H4S 8426   7.083   2.079   6.687  0.6700  1.2668 -0.8737
   89SAPC   C25 8427   6.905   2.124   6.580  0.4979  0.2873  1.3136
   89SAPC   H5R 8428   6.849   2.141   6.673 -1.6577 -1.5299  0.4171
   89SAPC   C26 8429   6.852   2.173   6.470  0.3094  0.3450  0.6356
   89SAPC   H6R 8430   6.748   2.208   6.482 -0.4905 -1.7885  0.4249
   89SAPC   C27 8431   6.905   2.165   6.325 -0.2771  0.1742 -0.0514
   89SAPC   H7R 8432   7.003   2.112   6.330 -1.2523 -1.7957 -0.7334
   89SAPC   H7S 8433   6.913   2.268   6.284 -0.3405 -0.3267 -1.3987
   89SAPC   C28 8434   6.826   2.064   6.245  0.3528 -0.4987 -0.3800
   89SAPC   H8R 8435   6.761   1.995   6.300  0.5926  0.0027  0.5698
   89SAPC   C29 8436   6.848   2.034   6.117 -0.1637  0.1141  0.5936
   89SAPC   H9R 8437   6.780   1.959   6.074  1.4792  0.0954 -2.1665
   89SAPC  C210 8438   6.941   2.098   6.011  0.2821  0.2495 -0.5332
   89SAPC  H10R 8439   7.037   2.043   6.004 -1.0122 -2.1918 -0.3154
   89SAPC  H10S 8440   6.952   2.203   6.047 -0.0767 -0.2290  1.0609
   89SAPC  C211 8441   6.882   2.104   5.871  0.4073  0.3266 -0.3845
   89SAPC  H11R 8442   6.784   2.055   5.865  0.6527 -0.3001  0.5134
   89SAPC  C212 8443   6.937   2.157   5.759 -0.7668  0.1229 -0.3465
   89SAPC  H12R 8444   6.876   2.149   5.668 -2.0934 -1.6874  0.6188
   89SAPC  C213 8445   7.072   2.239   5.743  1.2246  0.4038 -0.8466
   89SAPC  H13R 8446   7.089   2.289   5.841  0.9127 -0.4842 -0.3286
   89SAPC  H13S 8447   7.058   2.320   5.669  0.6504 -0.2719 -1.4974
   89SAPC  C214 8448   7.198   2.159   5.713 -0.4673 -0.5183 -0.2857
   89SAPC  H14R 8449   7.277   2.161   5.790  0.2201 -0.0867 -0.9961
   89SAPC  C215 8450   7.224   2.093   5.591  0.3250  0.8912 -0.1945
   89SAPC  H15R 8451   7.314   2.030   5.586 -1.0034 -1.0665 -0.2744
   89SAPC  C216 8452   7.141   2.093   5.468  0.6022 -0.1040  0.8456
   89SAPC  H16R 8453   7.034   2.114   5.484  0.7821  0.9067  0.7973
   89SAPC  H16S 8454   7.159   1.995   5.419 -0.1230 -0.3536  1.0840
   89SAPC  C217 8455   7.200   2.200   5.373 -0.2305 -0.2692  0.6537
   89SAPC  H17R 8456   7.309   2.184   5.358 -0.1373  1.4654 -1.0466
   89SAPC  H17S 8457   7.189   2.295   5.430  1.6769  0.8905 -0.7891
   89SAPC  C218 8458   7.131   2.209   5.231 -0.1328 -0.2320 -0.2850
   89SAPC  H18R 8459   7.166   2.301   5.179  2.2074  1.5479  3.9613
   89SAPC  H18S 8460   7.021   2.211   5.251 -0.4283 -4.0624 -0.7947
   89SAPC  C219 8461   7.157   2.095   5.128  0.4834 -0.1302  0.2640
   89SAPC  H19R 8462   7.089   2.115   5.041 -0.6331 -1.7101  0.7353
   89SAPC  H19S 8463   7.135   1.994   5.169  2.8995 -0.3718  1.0916
   89SAPC  C220 8464   7.303   2.076   5.079 -0.0849  0.4611  0.2598
   89SAPC  H20R 8465   7.309   2.019   4.984  0.9088 -1.6449  1.5151
   89SAPC  H20S 8466   7.361   2.022   5.157 -0.1184 -0.3864 -0.2864
   89SAPC  H20T 8467   7.345   2.177   5.061 -0.8655  0.4428 -1.9304
   89SAPC   C33 8468   6.943   1.503   6.346 -0.4563  0.2732  1.0570
   89SAPC   H3X 8469   7.008   1.560   6.416 -0.8036 -0.4287  1.9655
   89SAPC   H3Y 8470   6.857   1.564   6.310 -1.4072 -1.7895 -0.3884
   89SAPC   C34 8471   7.031   1.482   6.221  0.0581  0.4053  0.1678
   89SAPC   H4X 8472   6.990   1.394   6.168 -1.8251  0.7613  0.9641
   89SAPC   H4Y 8473   7.134   1.453   6.251 -0.0163  1.3146  1.3646
   89SAPC   C35 8474   7.042   1.600   6.127 -0.2015  0.5360  0.3693
   89SAPC   H5X 8475   7.118   1.677   6.153  1.3499 -0.7902 -0.0460
   89SAPC   H5Y 8476   6.940   1.643   6.126 -0.1412  0.6806 -0.2809
   89SAPC   C36 8477   7.073   1.565   5.985  0.1364 -0.1532 -0.6395
   89SAPC   H6X 8478   7.000   1.484   5.959 -0.1846 -1.1024  2.7413
   89SAPC   H6Y 8479   7.179   1.537   5.971  0.8252  3.0381 -2.7182
   89SAPC   C37 8480   7.065   1.684   5.887  0.4260 -0.2312  0.4901
   89SAPC   H7X 8481   7.150   1.754   5.893 -3.2574  4.8403  0.1671
   89SAPC   H7Y 8482   6.978   1.751   5.905  0.2658 -0.6497  1.3098
   89SAPC   C38 8483   7.059   1.640   5.746 -0.2492  0.3039 -0.3420
   89SAPC   H8X 8484   6.969   1.576   5.737  0.0163 -0.3415  1.2055
   89SAPC   H8Y 8485   7.143   1.573   5.716  0.8596  0.5588  2.0210
   89SAPC   C39 8486   7.059   1.765   5.655 -0.2088 -0.0543 -0.0779
   89SAPC   H9X 8487   7.159   1.812   5.667 -0.2050  0.9066 -3.0970
   89SAPC   H9Y 8488   6.978   1.829   5.695  2.6460  2.7665  1.5979
   89SAPC  C310 8489   7.036   1.729   5.500 -0.4247  0.3570 -0.5336
   89SAPC  H10X 8490   7.011   1.829   5.459  1.2295  0.7484 -0.6716
   89SAPC  H10Y 8491   6.950   1.659   5.491  1.2302 -2.0987  1.3292
   89SAPC  C311 8492   7.156   1.689   5.413  0.2950  0.3274  0.6144
   89SAPC  H11X 8493   7.201   1.593   5.447  3.5400  1.4911 -0.0184
   89SAPC  H11Y 8494   7.240   1.761   5.423 -0.1465  1.0584 -0.7175
   89SAPC  C312 8495   7.126   1.681   5.266  0.0653  0.1251 -0.8844
   89SAPC  H12X 8496   7.085   1.782   5.243  1.1670  0.7248 -0.3400
   89SAPC  H12Y 8497   7.058   1.601   5.231  1.1123  0.2850 -3.5255
   89SAPC  C313 8498   7.245   1.653   5.174  0.0795 -0.1921  0.6444
   89SAPC  H13X 8499   7.336   1.714   5.195 -0.1503 -0.0006  1.0882
   89SAPC  H13Y 8500   7.219   1.664   5.066 -1.3575 -0.2971  0.9720
   89SAPC  C314 8501   7.299   1.515   5.184 -0.4430  0.0934  0.1496
   89SAPC  H14X 8502   7.221   1.444   5.149 -0.1072  0.2616 -0.9636
   89SAPC  H14Y 8503   7.325   1.500   5.291 -0.1657  0.9628  0.2046
   89SAPC  C315 8504   7.420   1.481   5.104  0.2638  0.3541  0.1912
   89SAPC  H15X 8505   7.511   1.539   5.131 -0.1784  1.8948 -1.4100
   89SAPC  H15Y 8506   7.395   1.504   4.998 -0.4982  1.0903  0.5144
   89SAPC  C316 8507   7.456   1.330   5.117 -0.0764  0.2971  0.5608
   89SAPC  H16X 8508   7.374   1.261   5.086 -0.7181  1.6117 -0.7932
   89SAPC  H16Y 8509   7.479   1.312   5.225 -0.9388  1.8186  1.0256
   89SAPC  C317 8510   7.585   1.293   5.043  0.3857 -0.8451  0.1707
   89SAPC  H17X 8511   7.671   1.351   5.082  0.6900 -2.3618  1.8983
   89SAPC  H17Y 8512   7.580   1.334   4.940  0.1667  0.7450  0.7849
   89SAPC  C318 8513   7.618   1.144   5.040  0.0470 -0.3407  0.0817
   89SAPC  H18X 8514   7.577   1.100   4.946  0.6501 -0.9676  0.1026
   89SAPC  H18Y 8515   7.571   1.085   5.122 -0.7655  1.3377  0.8699
   89SAPC  H18Z 8516   7.729   1.136   5.034  0.2182  1.2827  0.4401
   90SAPC     N 8517   5.947   4.840   7.372  0.6998 -0.0264 -0.4366
   90SAPC   C12 8518   5.912   4.989   7.367  0.0387  0.3840  0.5871
   90SAPC  H12A 8519   5.979   5.049   7.426 -0.5497 -0.1479  1.8129
   90SAPC  H12B 8520   5.818   5.005   7.416  1.1328  2.4292  2.1555
   90SAPC   C13 8521   5.939   4.785   7.509  0.0543 -0.4837 -0.5848
   90SAPC  H13A 8522   5.992   4.848   7.578 -0.1903 -3.2986  2.4008
   90SAPC  H13B 8523   5.837   4.792   7.545 -0.0490 -0.3532 -0.8980
   90SAPC  H13C 8524   5.976   4.684   7.500  0.4815 -0.2876 -1.1422
   90SAPC   C14 8525   5.853   4.755   7.286 -0.7100 -0.0505  0.4377
   90SAPC  H14A 8526   5.856   4.782   7.181  1.5433  1.3956  0.8057
   90SAPC  H14B 8527   5.870   4.648   7.292 -1.1878 -0.2144 -0.7588
   90SAPC  H14C 8528   5.753   4.768   7.323 -1.8184  1.1722 -2.6423
   90SAPC   C15 8529   6.084   4.823   7.319  0.2843 -0.1378  0.1810
   90SAPC  H15A 8530   6.145   4.888   7.379 -0.8222  2.4560 -1.3610
   90SAPC  H15B 8531   6.119   4.721   7.326 -0.6661 -0.5283 -0.4896
   90SAPC  H15C 8532   6.094   4.867   7.220  2.6740 -0.5726  0.1728
   90SAPC   C11 8533   5.918   5.047   7.224  0.4499 -0.1521  0.1053
   90SAPC  H11A 8534   5.842   5.128   7.214 -0.9031 -1.3595  0.4563
   90SAPC  H11B 8535   5.889   4.971   7.149  0.3762  0.9054 -0.9855
   90SAPC     P 8536   6.081   5.242   7.257 -0.0416  0.3787  0.0204
   90SAPC   O13 8537   5.975   5.331   7.204  0.0233 -0.3940  0.6925
   90SAPC   O14 8538   6.091   5.223   7.403  0.9250 -0.3987  0.0521
   90SAPC   O12 8539   6.053   5.094   7.204 -0.5174 -0.2733 -0.0659
   90SAPC   O11 8540   6.221   5.282   7.199 -0.1258  0.1821  0.6266
   90SAPC    C1 8541   6.325   5.183   7.202  0.1435 -0.0775 -0.5343
   90SAPC    HA 8542   6.386   5.194   7.294 -2.3849 -0.5577  1.3137
   90SAPC    HB 8543   6.296   5.076   7.210  1.5509 -0.3516  1.5016
   90SAPC    C2 8544   6.399   5.179   7.062 -0.3197  0.4290  0.1178
   90SAPC    HS 8545   6.449   5.278   7.067 -0.8996  0.8779 -1.9942
   90SAPC   O21 8546   6.321   5.181   6.946  0.3282  0.0905  0.2295
   90SAPC   C21 8547   6.357   5.247   6.846  0.0633  0.7358 -0.3928
   90SAPC   O22 8548   6.456   5.312   6.833 -0.8194 -0.0534  0.6741
   90SAPC   C22 8549   6.245   5.245   6.746 -0.3330  0.1556 -0.7355
   90SAPC   H2R 8550   6.184   5.153   6.759  0.9812 -0.9523 -1.9979
   90SAPC   H2S 8551   6.176   5.330   6.761  0.3110  0.5163  0.2394
   90SAPC    C3 8552   6.501   5.059   7.060 -0.0212 -0.3406  0.3600
   90SAPC    HX 8553   6.445   4.966   7.087 -1.1862 -0.6436 -2.7098
   90SAPC    HY 8554   6.573   5.089   7.139  1.5470 -0.2910 -1.0444
   90SAPC   O31 8555   6.574   5.057   6.941 -0.3383 -0.1723 -0.0360
   90SAPC   C31 8556   6.530   4.964   6.861  0.4798 -0.3604  0.9232
   90SAPC   O32 8557   6.455   4.873   6.883 -0.4036  0.0870  0.3149
   90SAPC   C32 8558   6.592   4.996   6.724 -0.8221  0.3015 -0.2181
   90SAPC   H2X 8559   6.698   4.963   6.728 -0.8778  0.2047  0.9161
   90SAPC   H2Y 8560   6.577   5.103   6.699 -2.7202  0.0189 -0.4364
   90SAPC   C23 8561   6.295   5.248   6.598  0.2346  1.1591 -0.3032
   90SAPC   H3R 8562   6.356   5.155   6.595  0.1762  1.0249  1.5312
   90SAPC   H3S 8563   6.347   5.344   6.579  2.7091  0.3527  1.8182
   90SAPC   C24 8564   6.175   5.229   6.499 -0.7136 -0.1049 -0.9137
   90SAPC   H4R 8565   6.227   5.255   6.405  1.7409 -1.2953  0.0437
   90SAPC   H4S 8566   6.098   5.308   6.520 -0.1190 -0.1550  1.8033
   90SAPC   C25 8567   6.121   5.088   6.497  0.2700  0.6575  0.6471
   90SAPC   H5R 8568   6.075   5.053   6.590  0.7595 -1.1138  0.2459
   90SAPC   C26 8569   6.111   4.996   6.394  0.3745  0.3555 -0.5477
   90SAPC   H6R 8570   6.069   4.899   6.423  1.2736  0.3141  0.7231
   90SAPC   C27 8571   6.146   5.012   6.249 -0.3168  1.3756 -0.6003
   90SAPC   H7R 8572   6.107   4.917   6.207  0.5714  0.2108  1.0793
   90SAPC   H7S 8573   6.254   5.001   6.227 -0.6244 -0.3108 -1.5164
   90SAPC   C28 8574   6.080   5.130   6.190  0.2410 -0.2769 -0.2539
   90SAPC   H8R 8575   6.016   5.197   6.250  0.1825  0.4906 -1.1483
   90SAPC   C29 8576   6.092   5.158   6.057  0.1942  0.4893 -0.4526
   90SAPC   H9R 8577   6.042   5.249   6.020  1.2136  2.0493  1.7454
   90SAPC  C210 8578   6.170   5.080   5.954  0.5774  0.3587 -0.4897
   90SAPC  H10R 8579   6.131   5.109   5.854 -0.0922 -1.9826 -0.9668
   90SAPC  H10S 8580   6.156   4.970   5.952  1.1786  0.2728 -0.2690
   90SAPC  C211 8581   6.319   5.106   5.958  0.1944 -0.3639 -0.8581
   90SAPC  H11R 8582   6.359   5.127   6.058 -2.5877 -0.0006  0.2741
   90SAPC  C212 8583   6.400   5.116   5.848  0.4542  0.0199  0.0302
   90SAPC  H12R 8584   6.507   5.138   5.851  0.2810  1.9728 -3.3824
   90SAPC  C213 8585   6.347   5.091   5.712  0.7528  0.0876 -0.4606
   90SAPC  H13R 8586   6.298   5.183   5.673  1.0220  0.4209 -0.0173
   90SAPC  H13S 8587   6.274   5.009   5.727 -1.9095  1.7852 -2.9986
   90SAPC  C214 8588   6.451   5.050   5.615  0.1116  0.6598  0.8473
   90SAPC  H14R 8589   6.539   5.009   5.667  0.7434 -0.1597 -0.8132
   90SAPC  C215 8590   6.441   5.064   5.475 -0.1024  0.2047  0.7437
   90SAPC  H15R 8591   6.523   5.023   5.414 -1.5467  0.1426 -1.2191
   90SAPC  C216 8592   6.319   5.112   5.399  0.4951 -0.0801  0.5633
   90SAPC  H16R 8593   6.223   5.101   5.454 -0.0441  0.7856 -0.1772
   90SAPC  H16S 8594   6.309   5.053   5.306 -1.8126 -1.5468  1.6485
   90SAPC  C217 8595   6.321   5.262   5.359  0.0036 -0.4614 -0.0828
   90SAPC  H17R 8596   6.331   5.315   5.456 -1.4920 -1.5521  0.7027
   90SAPC  H17S 8597   6.220   5.275   5.315  1.5284  1.2200 -3.5283
   90SAPC  C218 8598   6.420   5.314   5.248 -0.8035  0.1845 -0.3904
   90SAPC  H18R 8599   6.411   5.253   5.156 -2.2148  1.0634 -0.8738
   90SAPC  H18S 8600   6.521   5.289   5.286 -1.9946 -3.6685  0.6873
   90SAPC  C219 8601   6.396   5.454   5.217 -0.2198  0.0340 -0.3022
   90SAPC  H19R 8602   6.299   5.449   5.163 -0.3097 -0.2748 -0.1155
   90SAPC  H19S 8603   6.467   5.479   5.136  0.3840 -0.8864 -0.0699
   90SAPC  C220 8604   6.403   5.550   5.328 -0.6472 -0.5800 -0.4505
   90SAPC  H20R 8605   6.428   5.648   5.282  0.5653 -0.4231  0.5066
   90SAPC  H20S 8606   6.489   5.512   5.386 -2.6132 -2.0475  1.6923
   90SAPC  H20T 8607   6.321   5.554   5.403 -0.7498 -1.2984 -0.5214
   90SAPC   C33 8608   6.510   4.928   6.612  0.4322  0.1715  0.3262
   90SAPC   H3X 8609   6.405   4.964   6.620  0.8859  1.5062  0.5016
   90SAPC   H3Y 8610   6.516   4.822   6.645 -2.8629 -0.0112  0.6549
   90SAPC   C34 8611   6.559   4.945   6.467  0.5616 -0.1938  0.1916
   90SAPC   H4X 8612   6.510   4.869   6.402 -0.5235  1.1422 -0.5968
   90SAPC   H4Y 8613   6.668   4.927   6.475  0.8238  0.4204 -1.5807
   90SAPC   C35 8614   6.549   5.087   6.411 -0.2421 -1.1108 -0.2814
   90SAPC   H5X 8615   6.584   5.164   6.483 -1.1956 -0.7515 -0.1945
   90SAPC   H5Y 8616   6.443   5.110   6.390 -0.2422  0.3529  1.2165
   90SAPC   C36 8617   6.648   5.098   6.292 -0.1891 -1.2994  0.3898
   90SAPC   H6X 8618   6.622   5.025   6.213  0.3571 -0.6678 -0.3823
   90SAPC   H6Y 8619   6.749   5.070   6.328  0.1080 -0.2692  0.3807
   90SAPC   C37 8620   6.651   5.243   6.226  0.1518  0.4879  0.2078
   90SAPC   H7X 8621   6.694   5.320   6.294 -0.4556 -0.2786  1.4694
   90SAPC   H7Y 8622   6.548   5.280   6.210 -0.8001 -2.1786 -0.3385
   90SAPC   C38 8623   6.719   5.237   6.082  0.5607 -0.2240  0.2989
   90SAPC   H8X 8624   6.650   5.168   6.028  0.9052  1.1744 -2.0693
   90SAPC   H8Y 8625   6.820   5.192   6.090  0.6296 -0.4796 -1.4498
   90SAPC   C39 8626   6.716   5.370   6.011  0.1037  0.5690 -0.4488
   90SAPC   H9X 8627   6.781   5.444   6.063 -0.6722  0.4765  0.7004
   90SAPC   H9Y 8628   6.614   5.412   6.019 -0.9570 -2.0826  4.4073
   90SAPC  C310 8629   6.779   5.369   5.874  0.1156 -0.4802  0.8315
   90SAPC  H10X 8630   6.720   5.299   5.811  2.7303  0.9169 -3.6849
   90SAPC  H10Y 8631   6.885   5.341   5.889 -0.0258 -2.1757 -0.9172
   90SAPC  C311 8632   6.762   5.497   5.797  0.3084 -0.2528  0.3193
   90SAPC  H11X 8633   6.725   5.570   5.872  2.1167 -0.3018  1.3164
   90SAPC  H11Y 8634   6.672   5.480   5.733 -0.2838  0.1922  1.0110
   90SAPC  C312 8635   6.885   5.548   5.720 -0.8655  0.8561 -0.7229
   90SAPC  H12X 8636   6.930   5.456   5.677 -2.5905 -1.8385  2.7154
   90SAPC  H12Y 8637   6.959   5.606   5.780 -2.1578  3.4084 -1.4908
   90SAPC  C313 8638   6.860   5.651   5.609  0.2822 -0.1694 -0.0551
   90SAPC  H13X 8639   6.838   5.752   5.650 -0.8716 -0.2789 -0.3686
   90SAPC  H13Y 8640   6.772   5.622   5.548  0.2271  0.5456 -0.3349
   90SAPC  C314 8641   6.975   5.663   5.507  0.5644 -0.2552 -0.2244
   90SAPC  H14X 8642   7.073   5.686   5.554  2.2082 -1.8648 -2.6168
   90SAPC  H14Y 8643   6.958   5.754   5.446 -2.4180  0.0960  0.9524
   90SAPC  C315 8644   6.996   5.545   5.417 -0.1522  0.0468  0.1071
   90SAPC  H15X 8645   7.024   5.456   5.478  0.4194  0.5935  0.6512
   90SAPC  H15Y 8646   7.081   5.566   5.349 -0.0724  1.8164  0.7048
   90SAPC  C316 8647   6.882   5.499   5.322 -0.2627  0.2879 -0.0063
   90SAPC  H16X 8648   6.856   5.585   5.255  0.6359  1.2353  0.8301
   90SAPC  H16Y 8649   6.794   5.454   5.373  0.4312 -1.3808 -0.2400
   90SAPC  C317 8650   6.932   5.395   5.211  0.4740 -0.1850 -0.5852
   90SAPC  H17X 8651   7.010   5.444   5.149 -0.0396  0.9662 -0.3554
   90SAPC  H17Y 8652   6.845   5.374   5.145 -1.6632  2.7886  1.0060
   90SAPC  C318 8653   6.955   5.254   5.269  0.0277  0.0793  0.1277
   90SAPC  H18X 8654   6.873   5.230   5.340 -0.1849  0.1556 -0.0880
   90SAPC  H18Y 8655   7.050   5.242   5.324  0.4645  2.7632  0.1127
   90SAPC  H18Z 8656   6.961   5.180   5.186  1.2099  1.0921 -0.7308
   91SAPC     N 8657   3.433   0.407   7.092 -0.9871  0.1875  0.3258
   91SAPC   C12 8658   3.294   0.384   7.061  0.5442  0.3906  0.2939
   91SAPC  H12A 8659   3.277   0.317   6.978  3.3006  1.5309 -1.2957
   91SAPC  H12B 8660   3.253   0.477   7.024  1.1931  0.5474 -0.0432
   91SAPC   C13 8661   3.491   0.272   7.132 -0.2239 -0.7775 -0.0745
   91SAPC  H13A 8662   3.583   0.286   7.186  0.2235 -0.0645 -0.9807
   91SAPC  H13B 8663   3.412   0.230   7.193 -1.3267 -0.4400 -1.2304
   91SAPC  H13C 8664   3.509   0.212   7.044 -0.7743  0.8281 -1.3217
   91SAPC   C14 8665   3.508   0.466   6.980 -0.0161  0.1649 -0.0124
   91SAPC  H14A 8666   3.614   0.474   7.000 -0.3535 -0.5424  2.4179
   91SAPC  H14B 8667   3.504   0.415   6.885  2.6330  1.1079 -0.7067
   91SAPC  H14C 8668   3.464   0.564   6.965  0.7607  0.6043  0.5393
   91SAPC   C15 8669   3.455   0.501   7.210 -0.0031 -0.1698 -0.1525
   91SAPC  H15A 8670   3.556   0.538   7.216  0.5922 -0.6950 -4.1440
   91SAPC  H15B 8671   3.380   0.579   7.213  1.0101  0.8389 -0.7217
   91SAPC  H15C 8672   3.445   0.441   7.300  0.9991 -1.4681 -0.8831
   91SAPC   C11 8673   3.203   0.328   7.178 -0.3258  0.1519  0.0257
   91SAPC  H11A 8674   3.102   0.364   7.151 -0.3766  2.2505  2.5565
   91SAPC  H11B 8675   3.227   0.392   7.266 -0.9897 -1.1378  1.1912
   91SAPC     P 8676   3.143   0.083   7.122 -0.0510 -0.1503  0.4034
   91SAPC   O13 8677   3.203  -0.048   7.156  0.5308 -0.1991  0.0067
   91SAPC   O14 8678   2.993   0.088   7.128 -0.3645 -0.8368 -0.2362
   91SAPC   O12 8679   3.220   0.189   7.208 -1.0798 -0.1591 -0.5707
   91SAPC   O11 8680   3.193   0.114   6.971  0.2066 -0.4494 -0.0249
   91SAPC    C1 8681   3.113   0.094   6.856 -0.3316  0.1633 -0.2099
   91SAPC    HA 8682   3.030   0.167   6.850 -3.2655 -2.7774  1.4055
   91SAPC    HB 8683   3.173   0.120   6.766 -1.1241 -0.6344 -0.9853
   91SAPC    C2 8684   3.071  -0.056   6.820 -0.0756  0.0829 -0.3800
   91SAPC    HS 8685   2.992  -0.080   6.894  0.4794 -0.7429 -0.0377
   91SAPC   O21 8686   3.195  -0.132   6.835 -0.2047  0.2966 -0.0864
   91SAPC   C21 8687   3.169  -0.268   6.829  0.2975  0.2864 -0.5888
   91SAPC   O22 8688   3.061  -0.319   6.828 -0.1743  0.2246  0.3300
   91SAPC   C22 8689   3.303  -0.340   6.839  0.3548  0.4786  0.1548
   91SAPC   H2R 8690   3.378  -0.290   6.774 -0.1802  0.6030 -0.3769
   91SAPC   H2S 8691   3.335  -0.345   6.945  1.2424 -1.5530 -0.1562
   91SAPC    C3 8692   3.012  -0.066   6.680 -0.0773  0.5073 -0.2282
   91SAPC    HX 8693   2.958  -0.162   6.666 -0.8892  0.5301  2.3244
   91SAPC    HY 8694   3.094  -0.071   6.606 -0.3292  1.5281 -0.5922
   91SAPC   O31 8695   2.934   0.052   6.655 -0.7047 -0.6154  0.0173
   91SAPC   C31 8696   2.814   0.058   6.705  0.4701 -0.3470  0.0389
   91SAPC   O32 8697   2.765  -0.014   6.788 -0.1917 -0.0738 -0.0338
   91SAPC   C32 8698   2.750   0.182   6.653  0.0794  0.2915  0.3644
   91SAPC   H2X 8699   2.808   0.203   6.560 -1.1656 -0.4454 -0.6269
   91SAPC   H2Y 8700   2.773   0.265   6.723  0.3929  0.9727 -0.5117
   91SAPC   C23 8701   3.290  -0.489   6.806  0.1642 -0.2075  0.2404
   91SAPC   H3R 8702   3.211  -0.525   6.875 -1.2622  0.2358 -1.1133
   91SAPC   H3S 8703   3.390  -0.536   6.819  1.2875  1.4698 -1.8007
   91SAPC   C24 8704   3.257  -0.513   6.656  0.5945  0.1360 -0.1484
   91SAPC   H4R 8705   3.170  -0.450   6.628  0.7726 -0.7672 -3.0725
   91SAPC   H4S 8706   3.228  -0.620   6.649  0.2469  0.1459  0.9807
   91SAPC   C25 8707   3.368  -0.491   6.562  0.1548 -0.5303  0.3293
   91SAPC   H5R 8708   3.423  -0.585   6.548 -0.7174 -1.1487  0.9199
   91SAPC   C26 8709   3.398  -0.384   6.480  0.7178  0.5007 -0.1407
   91SAPC   H6R 8710   3.487  -0.397   6.417  0.6441  1.0103 -0.3609
   91SAPC   C27 8711   3.325  -0.249   6.478 -0.1707 -0.0957  0.0195
   91SAPC   H7R 8712   3.227  -0.249   6.529 -0.1364  2.5749  0.2353
   91SAPC   H7S 8713   3.295  -0.222   6.374 -1.5193 -3.2032 -0.5058
   91SAPC   C28 8714   3.404  -0.134   6.545  0.0180  0.3891  0.6242
   91SAPC   H8R 8715   3.461  -0.177   6.629  0.1524 -1.6799 -0.4427
   91SAPC   C29 8716   3.402   0.001   6.523  0.6473 -0.0817  0.5556
   91SAPC   H9R 8717   3.459   0.059   6.598 -1.9067  3.4953 -0.0180
   91SAPC  C210 8718   3.322   0.071   6.411 -0.8436  0.1090  0.5319
   91SAPC  H10R 8719   3.275  -0.004   6.344  2.1359  0.0364 -1.6917
   91SAPC  H10S 8720   3.395   0.135   6.357 -0.8774  0.3946  0.8269
   91SAPC  C211 8721   3.217   0.168   6.460 -0.1402  0.9484  0.1876
   91SAPC  H11R 8722   3.217   0.180   6.569  0.7688 -1.4456  0.5064
   91SAPC  C212 8723   3.119   0.221   6.382  0.7381  0.0014 -0.8067
   91SAPC  H12R 8724   3.047   0.290   6.428  1.0384  1.0880 -1.9125
   91SAPC  C213 8725   3.107   0.205   6.230  0.0084 -0.0494 -0.3281
   91SAPC  H13R 8726   3.026   0.274   6.201  0.1881  0.5048  0.4415
   91SAPC  H13S 8727   3.083   0.103   6.191 -1.1099  0.6229 -1.4625
   91SAPC  C214 8728   3.235   0.246   6.154 -0.1210 -0.1409 -0.8393
   91SAPC  H14R 8729   3.267   0.349   6.177 -0.9749 -0.4368  2.1127
   91SAPC  C215 8730   3.307   0.174   6.067  0.6508  0.2885 -0.3969
   91SAPC  H15R 8731   3.391   0.227   6.018  2.2907 -1.0756  0.7944
   91SAPC  C216 8732   3.278   0.033   6.022  0.3144  0.4364 -0.4711
   91SAPC  H16R 8733   3.195   0.030   5.948 -1.8391  1.2194  1.7680
   91SAPC  H16S 8734   3.248  -0.030   6.108  0.8348  0.9777  0.1126
   91SAPC  C217 8735   3.402  -0.036   5.949  0.5928 -0.0436 -0.5191
   91SAPC  H17R 8736   3.495  -0.021   6.008  0.8077  2.1931 -1.3503
   91SAPC  H17S 8737   3.414   0.017   5.853 -1.1303  2.5966  0.6088
   91SAPC  C218 8738   3.370  -0.177   5.902 -0.4872 -0.4474  0.1629
   91SAPC  H18R 8739   3.464  -0.222   5.863 -2.1040 -2.8088 -1.2609
   91SAPC  H18S 8740   3.304  -0.187   5.814  0.4163 -2.3441 -0.3655
   91SAPC  C219 8741   3.318  -0.278   6.003  0.1021 -0.0995  0.2909
   91SAPC  H19R 8742   3.304  -0.375   5.952 -2.2272 -0.2357  1.0977
   91SAPC  H19S 8743   3.222  -0.242   6.046  1.3936  2.0252  1.6327
   91SAPC  C220 8744   3.415  -0.295   6.118 -0.6599 -0.8787  0.0937
   91SAPC  H20R 8745   3.364  -0.358   6.194 -1.3217 -0.9050 -0.3726
   91SAPC  H20S 8746   3.445  -0.197   6.162 -1.6209 -0.2687 -0.5694
   91SAPC  H20T 8747   3.516  -0.327   6.083  0.1686  2.9395 -1.5607
   91SAPC   C33 8748   2.597   0.174   6.633 -0.1742  0.2348 -0.0481
   91SAPC   H3X 8749   2.552   0.276   6.622  0.0071  0.2928 -0.2570
   91SAPC   H3Y 8750   2.557   0.145   6.733  0.4400  1.1694  0.4941
   91SAPC   C34 8751   2.564   0.088   6.513  0.6241 -0.5409  0.3612
   91SAPC   H4X 8752   2.459   0.054   6.528  0.2710  1.0585  1.8802
   91SAPC   H4Y 8753   2.634   0.003   6.501  1.5492  0.4879 -2.1824
   91SAPC   C35 8754   2.572   0.164   6.381 -0.2459 -0.0483 -0.5155
   91SAPC   H5X 8755   2.670   0.213   6.369  0.6065 -1.7699 -0.8342
   91SAPC   H5Y 8756   2.495   0.245   6.378 -0.8872 -0.4494  2.1270
   91SAPC   C36 8757   2.567   0.075   6.255  0.2723 -0.6116  0.8020
   91SAPC   H6X 8758   2.487   0.004   6.285 -0.7531  0.2607  0.2115
   91SAPC   H6Y 8759   2.664   0.022   6.257 -0.1208 -1.3316  1.1933
   91SAPC   C37 8760   2.546   0.161   6.129  0.7822 -0.2699 -0.0311
   91SAPC   H7X 8761   2.645   0.205   6.108  0.1462  1.6193  0.7164
   91SAPC   H7Y 8762   2.474   0.240   6.159  3.0707  0.7746  3.3559
   91SAPC   C38 8763   2.519   0.082   6.001 -0.2347 -0.4748  0.9204
   91SAPC   H8X 8764   2.421   0.030   6.007 -0.5606  0.0904  0.5724
   91SAPC   H8Y 8765   2.599   0.005   6.007 -0.7408 -0.9698  1.4024
   91SAPC   C39 8766   2.530   0.154   5.873 -0.7422 -0.1763  0.1824
   91SAPC   H9X 8767   2.634   0.190   5.851 -1.1058  1.8316  1.4735
   91SAPC   H9Y 8768   2.452   0.233   5.874  0.5562  1.1883  1.7681
   91SAPC  C310 8769   2.517   0.063   5.745 -0.3783  0.6604  0.2963
   91SAPC  H10X 8770   2.415   0.020   5.751 -0.0640  0.0656  1.9086
   91SAPC  H10Y 8771   2.580  -0.028   5.753 -2.4975 -1.1040 -1.8122
   91SAPC  C311 8772   2.548   0.128   5.617 -0.0940 -0.2729 -1.0793
   91SAPC  H11X 8773   2.652   0.166   5.617  0.4780 -1.7578 -0.9926
   91SAPC  H11Y 8774   2.481   0.216   5.603 -2.3755 -2.0179 -1.8161
   91SAPC  C312 8775   2.516   0.049   5.490 -0.4422  0.2274  0.5205
   91SAPC  H12X 8776   2.413   0.010   5.503 -0.1448 -1.4359 -1.5386
   91SAPC  H12Y 8777   2.593  -0.030   5.482 -0.3093  0.3951  0.0350
   91SAPC  C313 8778   2.524   0.139   5.362  0.1450 -0.2752  0.1997
   91SAPC  H13X 8779   2.488   0.243   5.378 -1.3218 -0.7869  0.4165
   91SAPC  H13Y 8780   2.464   0.099   5.277  1.1886  1.4070 -1.3966
   91SAPC  C314 8781   2.669   0.142   5.300  0.5798  0.5392  0.6426
   91SAPC  H14X 8782   2.655   0.182   5.198  1.9330  0.0114  0.2391
   91SAPC  H14Y 8783   2.693   0.035   5.283  2.4316  0.7632  1.5588
   91SAPC  C315 8784   2.776   0.218   5.378 -0.0123 -0.2628 -1.1594
   91SAPC  H15X 8785   2.865   0.242   5.316  1.5705  1.3569  1.5009
   91SAPC  H15Y 8786   2.807   0.158   5.466 -0.3763  1.4951  0.2347
   91SAPC  C316 8787   2.735   0.357   5.434  0.5061  0.8445  0.2420
   91SAPC  H16X 8788   2.826   0.397   5.485  0.9309 -1.1156  1.1067
   91SAPC  H16Y 8789   2.651   0.353   5.507 -0.1894 -0.6269 -0.5997
   91SAPC  C317 8790   2.695   0.460   5.328 -0.3524 -0.2316  0.6276
   91SAPC  H17X 8791   2.622   0.413   5.260 -0.2555 -3.0788  2.3384
   91SAPC  H17Y 8792   2.783   0.493   5.269 -0.5568  0.5960  0.7699
   91SAPC  C318 8793   2.635   0.583   5.397 -0.5240  0.3739 -1.0296
   91SAPC  H18X 8794   2.611   0.654   5.316  1.7812  0.9859 -1.2234
   91SAPC  H18Y 8795   2.715   0.623   5.464  0.4952 -2.5710 -0.3412
   91SAPC  H18Z 8796   2.545   0.564   5.461 -1.8483 -0.4612 -3.0467
   92SAPC     N 8797   1.938   4.573   7.302  0.1878 -0.0025  0.1094
   92SAPC   C12 8798   2.061   4.661   7.305  0.4999 -1.0762  0.4984
   92SAPC  H12A 8799   2.150   4.607   7.334  1.2889 -0.5134 -0.7773
   92SAPC  H12B 8800   2.055   4.737   7.381  1.9324 -1.3236  0.8874
   92SAPC   C13 8801   1.957   4.454   7.218 -0.4203  0.2474  0.7535
   92SAPC  H13A 8802   1.965   4.474   7.112  0.8872 -0.2466  0.7422
   92SAPC  H13B 8803   2.043   4.392   7.238 -0.6810 -1.4056 -2.4340
   92SAPC  H13C 8804   1.868   4.393   7.234 -2.3600  2.9408  0.8530
   92SAPC   C14 8805   1.908   4.525   7.445  0.0121  0.4684 -0.1709
   92SAPC  H14A 8806   1.992   4.476   7.493 -0.6565  2.6949  3.6718
   92SAPC  H14B 8807   1.884   4.604   7.514 -0.4587  0.4152 -0.2696
   92SAPC  H14C 8808   1.819   4.464   7.437 -0.1668  0.5289  1.1711
   92SAPC   C15 8809   1.812   4.639   7.257  0.3984 -0.3114  0.0507
   92SAPC  H15A 8810   1.834   4.682   7.161 -0.3343  0.5965  0.2764
   92SAPC  H15B 8811   1.737   4.563   7.241 -0.5588  0.6886 -0.3512
   92SAPC  H15C 8812   1.778   4.719   7.321 -1.8368 -0.2619 -1.0854
   92SAPC   C11 8813   2.099   4.732   7.173  0.1876  0.1352 -0.2826
   92SAPC  H11A 8814   2.177   4.808   7.198  0.4594 -0.4642  0.7809
   92SAPC  H11B 8815   2.010   4.783   7.132 -0.1720  0.9264  1.3795
   92SAPC     P 8816   2.264   4.556   7.056  0.3039 -0.5651  0.2811
   92SAPC   O13 8817   2.358   4.580   7.167 -0.1407  0.7316  0.1119
   92SAPC   O14 8818   2.229   4.416   7.020 -0.0749 -0.5495  0.2839
   92SAPC   O12 8819   2.135   4.641   7.070 -0.3885  0.1796  0.1010
   92SAPC   O11 8820   2.339   4.609   6.930 -0.1224 -0.1603  0.1119
   92SAPC    C1 8821   2.372   4.748   6.914  0.4892 -0.2611 -0.1289
   92SAPC    HA 8822   2.355   4.812   7.004 -0.5074  1.1104 -1.2391
   92SAPC    HB 8823   2.480   4.752   6.886  0.1858  0.3466 -1.2655
   92SAPC    C2 8824   2.294   4.808   6.794 -0.1275 -0.3774  0.0172
   92SAPC    HS 8825   2.192   4.839   6.825 -0.3350  0.4385 -1.3936
   92SAPC   O21 8826   2.307   4.733   6.674 -0.4231 -0.0770 -0.4469
   92SAPC   C21 8827   2.194   4.681   6.627  0.6923 -0.0515 -0.4497
   92SAPC   O22 8828   2.083   4.703   6.677 -0.0152  0.2709  0.2249
   92SAPC   C22 8829   2.207   4.583   6.513 -1.0010  0.5057  0.8106
   92SAPC   H2R 8830   2.296   4.519   6.530 -1.6581  0.2216  3.5712
   92SAPC   H2S 8831   2.118   4.518   6.516  0.6838 -1.9089  1.9399
   92SAPC    C3 8832   2.372   4.942   6.754 -0.1064 -0.4279  0.2149
   92SAPC    HX 8833   2.477   4.919   6.726 -0.2003  0.2507 -0.7491
   92SAPC    HY 8834   2.383   5.014   6.838  0.3086  0.6201 -0.7023
   92SAPC   O31 8835   2.306   5.008   6.640  0.3975 -0.1434  0.0756
   92SAPC   C31 8836   2.197   5.080   6.680 -0.1407 -0.0828 -0.6034
   92SAPC   O32 8837   2.163   5.104   6.798 -0.2352  0.3999  0.0878
   92SAPC   C32 8838   2.121   5.126   6.555  0.3205 -0.0610 -0.7773
   92SAPC   H2X 8839   2.036   5.190   6.589 -0.5350 -1.5475  0.0257
   92SAPC   H2Y 8840   2.073   5.032   6.521 -2.9290  1.5326 -1.0208
   92SAPC   C23 8841   2.199   4.650   6.372  0.0850  0.0874 -0.6298
   92SAPC   H3R 8842   2.221   4.568   6.300 -0.9477 -1.0606  0.2980
   92SAPC   H3S 8843   2.285   4.719   6.364 -0.6221  1.3891  1.9343
   92SAPC   C24 8844   2.072   4.733   6.338 -0.9210  0.4161 -0.2375
   92SAPC   H4R 8845   2.037   4.789   6.427 -0.2011 -0.3320  0.5410
   92SAPC   H4S 8846   1.990   4.661   6.317 -0.3305 -0.2458 -0.3185
   92SAPC   C25 8847   2.099   4.835   6.230  0.0056 -0.2755 -0.3764
   92SAPC   H5R 8848   2.171   4.912   6.263  1.0601 -0.9487 -1.0592
   92SAPC   C26 8849   2.055   4.836   6.107 -0.0466  0.1806  0.3297
   92SAPC   H6R 8850   2.088   4.917   6.039 -0.1457 -0.1660 -0.1362
   92SAPC   C27 8851   1.958   4.755   6.034  0.6641  0.1952  0.7128
   92SAPC   H7R 8852   1.873   4.814   5.992  0.4245 -1.2843 -1.0002
   92SAPC   H7S 8853   1.909   4.680   6.099  1.3223  0.7406  1.8621
   92SAPC   C28 8854   2.013   4.677   5.914  0.2001 -0.1040 -0.1318
   92SAPC   H8R 8855   2.099   4.612   5.935  0.4393 -0.0149 -0.7952
   92SAPC   C29 8856   1.961   4.655   5.787 -0.1314  0.0227 -0.2879
   92SAPC   H9R 8857   2.016   4.610   5.704 -2.3261 -0.1130 -1.7419
   92SAPC  C210 8858   1.839   4.740   5.731  0.3770 -0.0801  0.2009
   92SAPC  H10R 8859   1.770   4.783   5.806  0.2119 -0.2854  0.1700
   92SAPC  H10S 8860   1.769   4.676   5.672 -0.0687  1.5456 -1.0903
   92SAPC  C211 8861   1.879   4.865   5.655 -0.5766 -0.0415 -0.0508
   92SAPC  H11R 8862   1.986   4.891   5.662 -0.4003 -0.9974  1.7198
   92SAPC  C212 8863   1.812   4.948   5.578  0.2563 -0.5550  0.0957
   92SAPC  H12R 8864   1.870   5.023   5.522 -0.3318 -0.8971 -0.9847
   92SAPC  C213 8865   1.667   4.948   5.534 -0.1350  0.1362  0.5736
   92SAPC  H13R 8866   1.587   4.934   5.610 -0.9287 -1.3922 -0.4791
   92SAPC  H13S 8867   1.644   4.858   5.472  0.8904  0.0349  0.3275
   92SAPC  C214 8868   1.638   5.068   5.455 -0.0292 -0.3991  0.3371
   92SAPC  H14R 8869   1.684   5.069   5.355 -3.5475 -1.9393 -1.4672
   92SAPC  C215 8870   1.571   5.185   5.491 -0.3411 -0.1767 -0.3006
   92SAPC  H15R 8871   1.562   5.265   5.416  0.9130 -1.2078 -1.6169
   92SAPC  C216 8872   1.530   5.211   5.628 -0.0195  0.0770  0.1288
   92SAPC  H16R 8873   1.587   5.300   5.663 -0.9915  0.1412  1.6703
   92SAPC  H16S 8874   1.555   5.134   5.704 -1.4660  1.2192  1.8584
   92SAPC  C217 8875   1.378   5.232   5.655  0.1112 -0.7920 -0.2936
   92SAPC  H17R 8876   1.327   5.136   5.629  0.8661 -0.7682 -2.0843
   92SAPC  H17S 8877   1.319   5.294   5.584 -2.6268 -3.0515 -0.1346
   92SAPC  C218 8878   1.348   5.264   5.804 -0.4582  0.7772 -0.5206
   92SAPC  H18R 8879   1.420   5.202   5.861  1.0064  0.0925 -2.9589
   92SAPC  H18S 8880   1.239   5.249   5.820 -0.2451  0.6849  0.9364
   92SAPC  C219 8881   1.354   5.418   5.819  0.8375 -0.2813 -0.4185
   92SAPC  H19R 8882   1.278   5.457   5.750  0.1410 -2.6022 -1.0635
   92SAPC  H19S 8883   1.457   5.459   5.804  1.9946 -3.0739 -0.8245
   92SAPC  C220 8884   1.298   5.462   5.961  0.0404  0.4165  0.6783
   92SAPC  H20R 8885   1.287   5.573   5.960 -0.7957  0.3391  0.8973
   92SAPC  H20S 8886   1.367   5.434   6.044 -0.0158  1.3069  1.0395
   92SAPC  H20T 8887   1.197   5.419   5.975  0.7510 -1.3249  0.6260
   92SAPC   C33 8888   2.184   5.188   6.429 -0.2649 -1.0887  0.0162
   92SAPC   H3X 8889   2.267   5.126   6.390  0.2873 -0.3425 -0.0257
   92SAPC   H3Y 8890   2.230   5.285   6.459  1.1278 -1.8057  0.2733
   92SAPC   C34 8891   2.090   5.214   6.316 -0.2681 -0.2351  0.0760
   92SAPC   H4X 8892   2.027   5.303   6.337  0.4811 -0.0674  1.8530
   92SAPC   H4Y 8893   2.022   5.126   6.307 -0.5132  0.1589 -2.6991
   92SAPC   C35 8894   2.153   5.237   6.180  0.2787  0.3081  0.8661
   92SAPC   H5X 8895   2.233   5.161   6.168  0.5477  0.6373  0.5199
   92SAPC   H5Y 8896   2.199   5.338   6.189 -0.3162  0.8286 -1.2878
   92SAPC   C36 8897   2.066   5.233   6.052 -0.2312 -0.0266 -0.1834
   92SAPC   H6X 8898   1.987   5.310   6.064 -0.2127 -0.0980  0.4208
   92SAPC   H6Y 8899   2.010   5.137   6.049  1.7407 -1.2144 -2.0055
   92SAPC   C37 8900   2.145   5.267   5.926 -0.0575 -0.1323 -0.0954
   92SAPC   H7X 8901   2.235   5.205   5.944 -0.9264 -0.6284  3.3250
   92SAPC   H7Y 8902   2.180   5.372   5.925  0.6291 -0.3175  1.5010
   92SAPC   C38 8903   2.088   5.226   5.791 -0.4258 -0.2908 -0.3445
   92SAPC   H8X 8904   1.988   5.269   5.766  0.2477  1.3161 -0.3497
   92SAPC   H8Y 8905   2.090   5.115   5.801  1.7704 -0.2351  0.3238
   92SAPC   C39 8906   2.194   5.245   5.682  0.1516 -0.4673 -0.1780
   92SAPC   H9X 8907   2.179   5.173   5.599  0.8143 -0.9697  0.1299
   92SAPC   H9Y 8908   2.295   5.219   5.720 -0.8943 -0.7813  2.5796
   92SAPC  C310 8909   2.188   5.387   5.609  0.4274 -0.1876 -0.6542
   92SAPC  H10X 8910   2.178   5.458   5.695  0.1437 -3.1394  1.9155
   92SAPC  H10Y 8911   2.091   5.406   5.558  1.4948  2.8091 -1.7789
   92SAPC  C311 8912   2.312   5.414   5.518  0.3436  0.0561  0.0770
   92SAPC  H11X 8913   2.405   5.400   5.577  1.3614  1.8092 -1.0307
   92SAPC  H11Y 8914   2.305   5.523   5.499 -0.1439  0.0585  0.2607
   92SAPC  C312 8915   2.310   5.337   5.387  0.4471 -0.1818 -0.4774
   92SAPC  H12X 8916   2.205   5.334   5.353 -0.2455 -0.3415  1.5848
   92SAPC  H12Y 8917   2.350   5.234   5.392  4.1483  1.1618  1.4750
   92SAPC  C313 8918   2.381   5.407   5.269  0.2538 -0.4228 -0.2413
   92SAPC  H13X 8919   2.488   5.423   5.293  0.5522 -1.7024 -0.6525
   92SAPC  H13Y 8920   2.340   5.510   5.261  0.3286 -0.5374 -2.4661
   92SAPC  C314 8921   2.364   5.330   5.140  0.0411  0.9994  0.2175
   92SAPC  H14X 8922   2.265   5.281   5.133  0.2233  0.2230  2.4829
   92SAPC  H14Y 8923   2.437   5.246   5.143 -1.6304 -0.4861  0.7103
   92SAPC  C315 8924   2.408   5.413   5.013  0.0028  0.4613 -0.2497
   92SAPC  H15X 8925   2.421   5.346   4.926 -0.1370  1.2118 -0.8537
   92SAPC  H15Y 8926   2.503   5.467   5.032 -0.0375  0.5992 -0.4421
   92SAPC  C316 8927   2.310   5.519   4.957  0.9676  0.1185 -0.4761
   92SAPC  H16X 8928   2.249   5.563   5.039 -0.6368 -0.4121 -1.3352
   92SAPC  H16Y 8929   2.233   5.472   4.892  1.5964  1.8582 -2.6474
   92SAPC  C317 8930   2.370   5.628   4.883 -0.8208 -0.0814 -0.0440
   92SAPC  H17X 8931   2.400   5.599   4.781  0.5383  1.0566  0.0113
   92SAPC  H17Y 8932   2.462   5.658   4.937 -1.3714  0.2047  0.7715
   92SAPC  C318 8933   2.291   5.762   4.867  0.0353 -0.0229 -0.1101
   92SAPC  H18X 8934   2.214   5.754   4.787 -0.7604  0.5602  0.5838
   92SAPC  H18Y 8935   2.363   5.845   4.848  0.6804 -0.6433 -0.4306
   92SAPC  H18Z 8936   2.230   5.781   4.958 -2.0719 -2.4570 -0.8910
   93SAPC     N 8937   4.276   4.865   7.265 -0.0433  0.2180  0.3792
   93SAPC   C12 8938   4.316   4.934   7.134 -0.5867  0.1812 -0.2888
   93SAPC  H12A 8939   4.421   4.957   7.143 -0.8037  0.9093  0.4199
   93SAPC  H12B 8940   4.266   5.029   7.135 -0.1224  0.5080 -2.4738
   93SAPC   C13 8941   4.129   4.829   7.252  0.3637 -0.2045 -0.4346
   93SAPC  H13A 8942   4.111   4.768   7.165  0.6000 -0.7756 -0.0848
   93SAPC  H13B 8943   4.095   4.758   7.326 -2.3524 -0.6433 -1.9495
   93SAPC  H13C 8944   4.065   4.917   7.247 -1.0213 -0.9512  2.1673
   93SAPC   C14 8945   4.347   4.737   7.292 -0.2396 -0.5851  0.1976
   93SAPC  H14A 8946   4.451   4.764   7.284 -0.7722  1.2760 -1.1616
   93SAPC  H14B 8947   4.325   4.700   7.391 -1.7277  2.0141  0.9400
   93SAPC  H14C 8948   4.333   4.658   7.220  2.4341 -0.7306 -0.2389
   93SAPC   C15 8949   4.299   4.955   7.383 -0.2119 -0.3545 -1.0882
   93SAPC  H15A 8950   4.280   4.894   7.470  0.3346 -0.0264 -0.7387
   93SAPC  H15B 8951   4.401   4.983   7.404 -0.8018  0.2570  1.3036
   93SAPC  H15C 8952   4.234   5.042   7.384 -1.3721 -1.1898 -0.1105
   93SAPC   C11 8953   4.285   4.867   7.000  0.0284  0.1829  0.0542
   93SAPC  H11A 8954   4.339   4.917   6.916 -0.4128 -0.5579 -0.6817
   93SAPC  H11B 8955   4.176   4.879   6.981  0.4317  1.4330 -1.7738
   93SAPC     P 8956   4.245   4.618   6.945  0.2798 -0.4268  0.5269
   93SAPC   O13 8957   4.332   4.499   6.934 -0.2838  0.3026  0.3780
   93SAPC   O14 8958   4.133   4.604   7.035 -0.1774 -0.0216  0.9498
   93SAPC   O12 8959   4.339   4.731   6.999  0.1998 -0.0386 -0.8179
   93SAPC   O11 8960   4.212   4.673   6.798 -0.2600  0.3720  0.1008
   93SAPC    C1 8961   4.084   4.730   6.768 -0.3607  0.2423  0.0973
   93SAPC    HA 8962   4.003   4.703   6.839 -1.2946 -1.3834 -1.5007
   93SAPC    HB 8963   4.080   4.841   6.772 -0.5115  0.2030  1.0814
   93SAPC    C2 8964   4.035   4.678   6.630 -0.1152  0.1805  0.0685
   93SAPC    HS 8965   3.943   4.618   6.648  0.0379 -0.4324 -1.1132
   93SAPC   O21 8966   4.124   4.590   6.556 -0.3028 -0.0004 -0.3010
   93SAPC   C21 8967   4.116   4.465   6.596  1.0207 -0.5257  0.3018
   93SAPC   O22 8968   4.034   4.425   6.677 -0.1813  0.3190  0.6321
   93SAPC   C22 8969   4.217   4.389   6.527  0.6738  0.3105  0.9054
   93SAPC   H2R 8970   4.317   4.414   6.569  1.4620  3.1622 -2.2386
   93SAPC   H2S 8971   4.199   4.280   6.531  0.2159  0.3026 -0.6398
   93SAPC    C3 8972   4.005   4.806   6.537 -0.2297 -0.0961  0.2342
   93SAPC    HX 8973   4.099   4.865   6.533  0.3474 -0.9449  0.9212
   93SAPC    HY 8974   3.935   4.875   6.589  1.6189  1.5940  0.5977
   93SAPC   O31 8975   3.970   4.760   6.407  0.4491 -0.5890 -0.9292
   93SAPC   C31 8976   3.915   4.845   6.336  0.1377  0.1296  0.8521
   93SAPC   O32 8977   3.918   4.968   6.361  0.1105 -0.5789  0.8446
   93SAPC   C32 8978   3.869   4.775   6.210  0.5758  0.4606  0.5301
   93SAPC   H2X 8979   3.761   4.798   6.206  0.8337  1.9080  1.1557
   93SAPC   H2Y 8980   3.864   4.665   6.222 -0.5136  0.4971  0.4634
   93SAPC   C23 8981   4.206   4.419   6.375 -0.4477 -0.1887 -0.2646
   93SAPC   H3R 8982   4.243   4.522   6.356 -2.3822  0.4162 -1.0374
   93SAPC   H3S 8983   4.101   4.431   6.340  0.2858  0.9063 -2.2490
   93SAPC   C24 8984   4.287   4.315   6.296  0.2256 -0.1900  0.4545
   93SAPC   H4R 8985   4.217   4.263   6.227  1.6103 -3.2983  1.2074
   93SAPC   H4S 8986   4.326   4.231   6.358 -1.3091 -0.9340  0.4606
   93SAPC   C25 8987   4.397   4.375   6.207  0.0754 -0.5002 -0.7168
   93SAPC   H5R 8988   4.498   4.373   6.250  0.0270  0.5874 -0.5259
   93SAPC   C26 8989   4.378   4.429   6.088 -0.8080 -0.0150  0.2516
   93SAPC   H6R 8990   4.455   4.477   6.026 -3.9595  3.5070 -1.2853
   93SAPC   C27 8991   4.248   4.440   6.013  0.0890  0.4712 -0.2280
   93SAPC   H7R 8992   4.263   4.527   5.946 -0.1052  1.1349  0.5743
   93SAPC   H7S 8993   4.175   4.477   6.088  1.3646 -0.3118  1.4645
   93SAPC   C28 8994   4.201   4.312   5.952  0.2116 -0.0070 -0.0365
   93SAPC   H8R 8995   4.228   4.214   5.993  3.5717  1.5310  1.8254
   93SAPC   C29 8996   4.129   4.306   5.844 -0.1269 -0.3742  0.1677
   93SAPC   H9R 8997   4.098   4.206   5.808  0.8990  0.1581 -2.4270
   93SAPC  C210 8998   4.066   4.432   5.776 -0.0128  0.7103  0.5133
   93SAPC  H10R 8999   4.053   4.515   5.849 -1.8823  1.3646 -0.4772
   93SAPC  H10S 9000   3.964   4.398   5.744 -0.2344  0.3337  1.5896
   93SAPC  C211 9001   4.148   4.480   5.658  0.4491 -0.3004 -0.3938
   93SAPC  H11R 9002   4.225   4.557   5.674  1.9032 -1.9187  0.7280
   93SAPC  C212 9003   4.121   4.434   5.531  0.3267  0.8818 -0.1296
   93SAPC  H12R 9004   4.185   4.467   5.449  0.1390 -0.3569 -0.8073
   93SAPC  C213 9005   4.017   4.337   5.481  0.6111 -0.1900  0.7222
   93SAPC  H13R 9006   3.918   4.388   5.483 -0.7905 -2.8020  1.2544
   93SAPC  H13S 9007   4.002   4.244   5.540 -2.4210 -0.6138 -0.5227
   93SAPC  C214 9008   4.046   4.278   5.345 -0.5506 -0.1933  0.0864
   93SAPC  H14R 9009   4.151   4.248   5.335 -0.8650 -1.3475  0.0847
   93SAPC  C215 9010   3.964   4.251   5.241 -0.1528  0.0898  0.7138
   93SAPC  H15R 9011   3.999   4.228   5.140 -0.5369 -1.5529  0.9353
   93SAPC  C216 9012   3.816   4.280   5.241 -0.9786 -0.2651  0.1483
   93SAPC  H16R 9013   3.793   4.324   5.340 -0.0448  0.3821  0.0915
   93SAPC  H16S 9014   3.764   4.182   5.231  2.5713 -2.3146 -0.2187
   93SAPC  C217 9015   3.773   4.380   5.138 -1.1148  0.0270 -0.1045
   93SAPC  H17R 9016   3.794   4.349   5.034  2.4395 -0.0367  0.5152
   93SAPC  H17S 9017   3.823   4.478   5.154 -2.8370  1.0707 -0.7759
   93SAPC  C218 9018   3.625   4.406   5.140  0.3166 -0.7745 -0.2003
   93SAPC  H18R 9019   3.610   4.499   5.081 -0.1155 -0.5936  0.1899
   93SAPC  H18S 9020   3.596   4.425   5.245 -1.7788 -1.5921 -0.5881
   93SAPC  C219 9021   3.538   4.283   5.095 -0.1086 -0.7571  0.5552
   93SAPC  H19R 9022   3.439   4.325   5.125  0.1894  0.2066  0.2556
   93SAPC  H19S 9023   3.556   4.193   5.157 -0.5090  0.9500  3.3368
   93SAPC  C220 9024   3.545   4.241   4.951 -0.0703 -0.7962 -0.4236
   93SAPC  H20R 9025   3.650   4.211   4.933  0.7996 -0.3615  3.0968
   93SAPC  H20S 9026   3.511   4.327   4.889  0.7610 -0.4508 -0.4092
   93SAPC  H20T 9027   3.482   4.152   4.933  0.0990 -1.3902  1.6392
   93SAPC   C33 9028   3.941   4.801   6.072  0.2559  0.4281  0.0080
   93SAPC   H3X 9029   4.046   4.767   6.082  0.2818  0.3207 -0.5890
   93SAPC   H3Y 9030   3.947   4.909   6.048 -0.6393  0.6641  0.7985
   93SAPC   C34 9031   3.867   4.747   5.945 -0.2209 -1.0503  0.8692
   93SAPC   H4X 9032   3.760   4.775   5.935  0.0691 -0.3820 -0.7479
   93SAPC   H4Y 9033   3.875   4.637   5.949  0.8752 -1.0685 -0.7206
   93SAPC   C35 9034   3.938   4.799   5.816  0.9332  0.8296 -0.1635
   93SAPC   H5X 9035   4.042   4.759   5.814  1.0890  1.0234  1.8067
   93SAPC   H5Y 9036   3.958   4.908   5.805  2.6102  0.4637 -1.1082
   93SAPC   C36 9037   3.859   4.763   5.689 -0.2502 -1.1323 -0.0594
   93SAPC   H6X 9038   3.756   4.803   5.699  0.1394 -0.3222  0.8664
   93SAPC   H6Y 9039   3.847   4.652   5.679 -2.0211 -0.8969 -1.1427
   93SAPC   C37 9040   3.929   4.817   5.560 -0.1307 -0.1814  0.6748
   93SAPC   H7X 9041   4.021   4.756   5.571 -0.4635 -0.6456  0.9211
   93SAPC   H7Y 9042   3.945   4.927   5.567 -1.7647  0.1573 -0.3517
   93SAPC   C38 9043   3.866   4.777   5.424 -0.2833 -0.6815  0.1082
   93SAPC   H8X 9044   3.757   4.797   5.428  0.2404  2.5127  1.1668
   93SAPC   H8Y 9045   3.886   4.668   5.407  2.9645 -0.1516 -0.1726
   93SAPC   C39 9046   3.911   4.869   5.308 -1.0807 -0.0612  0.3863
   93SAPC   H9X 9047   4.018   4.846   5.287 -0.7980  1.0910  0.5118
   93SAPC   H9Y 9048   3.902   4.978   5.324  1.7513  0.4524 -0.9184
   93SAPC  C310 9049   3.832   4.836   5.178  0.1249  0.6576 -0.3668
   93SAPC  H10X 9050   3.852   4.730   5.154  0.5070  0.5611  0.3380
   93SAPC  H10Y 9051   3.885   4.893   5.098  2.1155 -0.0345  0.3989
   93SAPC  C311 9052   3.691   4.893   5.191  0.0439 -0.7453 -0.2778
   93SAPC  H11X 9053   3.694   4.979   5.261  0.8525 -0.1980 -0.9672
   93SAPC  H11Y 9054   3.622   4.820   5.238 -1.5279  0.1499 -1.1030
   93SAPC  C312 9055   3.632   4.930   5.055  0.5365 -0.0980 -0.8914
   93SAPC  H12X 9056   3.606   4.835   5.005  0.1326 -1.3605  1.5803
   93SAPC  H12Y 9057   3.714   4.984   5.001  0.4805  0.0774 -0.8026
   93SAPC  C313 9058   3.506   5.016   5.059  0.1372 -0.6626 -0.3398
   93SAPC  H13X 9059   3.521   5.116   5.104  1.0283 -0.9747  0.0715
   93SAPC  H13Y 9060   3.434   4.954   5.116  0.2118 -0.1719  0.2939
   93SAPC  C314 9061   3.447   5.051   4.924 -0.5001  0.0225  0.3744
   93SAPC  H14X 9062   3.447   4.960   4.860 -0.0294 -1.2037  2.0394
   93SAPC  H14Y 9063   3.498   5.138   4.877  0.9112 -0.6449  0.6199
   93SAPC  C315 9064   3.306   5.090   4.953 -0.5541  0.2894 -0.0528
   93SAPC  H15X 9065   3.301   5.172   5.028 -1.5778 -0.1738  0.4059
   93SAPC  H15Y 9066   3.255   5.000   4.994 -1.3416  1.2501  1.1387
   93SAPC  C316 9067   3.229   5.138   4.826  0.3544 -0.2643 -0.7646
   93SAPC  H16X 9068   3.199   5.049   4.767 -0.7109  0.4321 -1.3096
   93SAPC  H16Y 9069   3.295   5.198   4.761  2.4392  0.9998  2.2813
   93SAPC  C317 9070   3.099   5.219   4.852  0.4346 -0.6149 -0.6789
   93SAPC  H17X 9071   3.123   5.324   4.879 -0.2987 -1.0810  2.0852
   93SAPC  H17Y 9072   3.057   5.157   4.934 -1.4647 -0.5366 -1.5296
   93SAPC  C318 9073   3.004   5.219   4.739  0.7321  0.1087  0.2747
   93SAPC  H18X 9074   3.007   5.116   4.696  0.8773  0.5198 -0.7288
   93SAPC  H18Y 9075   3.035   5.287   4.656 -1.5697 -1.6608 -2.2338
   93SAPC  H18Z 9076   2.898   5.244   4.762 -0.4434 -3.5913 -0.4090
   94SAPC     N 9077   1.791   2.951   7.043 -0.3511 -0.2403  0.6364
   94SAPC   C12 9078   1.770   3.062   6.940 -0.7974  0.1339  0.1989
   94SAPC  H12A 9079   1.707   3.009   6.871 -0.5857 -2.3757  1.8121
   94SAPC  H12B 9080   1.861   3.084   6.885  0.3616 -2.4112  0.9585
   94SAPC   C13 9081   1.884   2.852   6.981  0.2996  0.2512  0.0063
   94SAPC  H13A 9082   1.904   2.765   7.042  0.1004 -1.8925 -2.7747
   94SAPC  H13B 9083   1.856   2.806   6.887  0.8016 -0.1412  0.0416
   94SAPC  H13C 9084   1.979   2.900   6.961 -0.6500  2.5433  0.6754
   94SAPC   C14 9085   1.849   3.008   7.168  0.4181  0.4046 -0.4805
   94SAPC  H14A 9086   1.778   3.078   7.209  1.9302  1.3678  0.5812
   94SAPC  H14B 9087   1.874   2.932   7.240  1.1209 -0.9849 -2.1113
   94SAPC  H14C 9088   1.937   3.069   7.152  0.8294 -0.1507 -0.3568
   94SAPC   C15 9089   1.666   2.882   7.083  0.5087  0.6653  0.3891
   94SAPC  H15A 9090   1.672   2.844   7.184  1.6758 -0.7708 -0.1932
   94SAPC  H15B 9091   1.583   2.950   7.069 -1.5319 -1.6840  0.3913
   94SAPC  H15C 9092   1.647   2.799   7.017  0.2871  1.6061 -0.7674
   94SAPC   C11 9093   1.701   3.199   6.981 -0.8273  0.4275 -0.1685
   94SAPC  H11A 9094   1.614   3.162   7.040 -0.9710  0.6360 -0.2486
   94SAPC  H11B 9095   1.666   3.240   6.884  1.2417  0.6874 -0.8646
   94SAPC     P 9096   1.885   3.378   6.987 -0.0844 -0.0990 -0.6325
   94SAPC   O13 9097   1.819   3.475   6.902 -0.0372  0.3810  0.6824
   94SAPC   O14 9098   1.981   3.430   7.083 -0.4600 -0.0320  0.2141
   94SAPC   O12 9099   1.773   3.287   7.062 -0.1917 -0.3859  0.6121
   94SAPC   O11 9100   1.948   3.267   6.894 -0.2750 -0.5706  0.3344
   94SAPC    C1 9101   2.083   3.219   6.913  0.3863  0.5483 -0.5353
   94SAPC    HA 9102   2.149   3.297   6.958 -0.1344  0.1322  0.9944
   94SAPC    HB 9103   2.080   3.126   6.973 -0.7386  1.4680  0.9039
   94SAPC    C2 9104   2.136   3.181   6.775  0.0646  0.1138  0.6644
   94SAPC    HS 9105   2.142   3.270   6.709  0.2362 -0.4406 -0.0771
   94SAPC   O21 9106   2.050   3.081   6.716  0.3873 -0.1412  0.3705
   94SAPC   C21 9107   2.051   3.080   6.584  0.0067  0.8296  0.4597
   94SAPC   O22 9108   2.133   3.140   6.518 -1.0425  1.0687  0.4444
   94SAPC   C22 9109   1.934   2.998   6.532  0.6542 -0.0874 -0.2228
   94SAPC   H2R 9110   1.855   3.002   6.610  0.2390 -0.6273 -0.6125
   94SAPC   H2S 9111   1.894   3.048   6.441 -1.9105 -0.4638  0.6146
   94SAPC    C3 9112   2.284   3.132   6.794 -0.0799 -0.1941 -0.0496
   94SAPC    HX 9113   2.337   3.123   6.697  1.9260 -1.7150  1.1091
   94SAPC    HY 9114   2.291   3.042   6.859 -0.9848 -0.8181 -0.7783
   94SAPC   O31 9115   2.348   3.235   6.865  0.4192 -0.7416 -0.1897
   94SAPC   C31 9116   2.480   3.232   6.864  0.3474  0.1310  0.0399
   94SAPC   O32 9117   2.555   3.150   6.811  0.3143 -0.2387  0.3896
   94SAPC   C32 9118   2.530   3.362   6.912  0.4453 -0.3454  0.1919
   94SAPC   H2X 9119   2.580   3.340   7.008  3.0159 -3.4506 -1.6592
   94SAPC   H2Y 9120   2.451   3.440   6.923  0.8095  0.0318  0.1815
   94SAPC   C23 9121   1.964   2.850   6.506 -0.2143  0.8440 -0.0422
   94SAPC   H3R 9122   1.866   2.801   6.491 -0.9503  2.2214  0.0409
   94SAPC   H3S 9123   2.017   2.812   6.596 -0.1166  1.3632  0.1285
   94SAPC   C24 9124   2.051   2.830   6.379 -0.0540  0.4432  0.0291
   94SAPC   H4R 9125   2.086   2.725   6.385 -0.6517  0.3264  2.7441
   94SAPC   H4S 9126   2.134   2.903   6.386 -1.6707  2.4305 -0.5036
   94SAPC   C25 9127   1.985   2.849   6.244  0.6459 -0.0564 -0.2707
   94SAPC   H5R 9128   1.878   2.872   6.258  1.2344  2.6528  0.4056
   94SAPC   C26 9129   2.052   2.870   6.123  0.0075 -0.4116  0.1388
   94SAPC   H6R 9130   1.998   2.881   6.028 -0.2486  1.6839  0.4697
   94SAPC   C27 9131   2.196   2.891   6.110 -0.3468  0.3355  0.3140
   94SAPC   H7R 9132   2.220   2.870   6.003 -3.9125  2.5982 -1.1219
   94SAPC   H7S 9133   2.251   2.819   6.174  0.1784  2.7758  2.7742
   94SAPC   C28 9134   2.253   3.019   6.151  0.2822 -0.0518  0.2758
   94SAPC   H8R 9135   2.203   3.071   6.234 -1.0049  2.1792 -1.7767
   94SAPC   C29 9136   2.361   3.076   6.098  0.3968  0.5312 -0.1017
   94SAPC   H9R 9137   2.407   3.168   6.136  1.7629  0.2205 -0.9270
   94SAPC  C210 9138   2.439   3.026   5.984 -0.4658  0.7661  0.9103
   94SAPC  H10R 9139   2.432   2.916   5.969  2.2777  0.4626  1.2696
   94SAPC  H10S 9140   2.546   3.023   6.015 -0.1011 -1.6836 -0.3190
   94SAPC  C211 9141   2.413   3.109   5.857 -0.5226 -0.7008  0.1892
   94SAPC  H11R 9142   2.428   3.215   5.878 -2.3084 -0.3433 -0.1636
   94SAPC  C212 9143   2.400   3.062   5.730 -0.4101  0.5707  0.0466
   94SAPC  H12R 9144   2.364   3.139   5.659 -0.5367 -2.0346 -2.9456
   94SAPC  C213 9145   2.401   2.923   5.674  0.0392 -0.9267  0.1659
   94SAPC  H13R 9146   2.398   2.848   5.756 -1.7724 -1.0028  0.0725
   94SAPC  H13S 9147   2.504   2.916   5.635  1.5725  1.5979  3.2543
   94SAPC  C214 9148   2.280   2.889   5.586 -0.9609  0.3730 -0.5554
   94SAPC  H14R 9149   2.181   2.896   5.634 -0.1813  3.6475  0.8490
   94SAPC  C215 9150   2.283   2.875   5.453  0.2216 -0.2223  0.4738
   94SAPC  H15R 9151   2.194   2.852   5.393  1.0331  1.0604 -1.2836
   94SAPC  C216 9152   2.411   2.896   5.383 -0.0417 -0.4874 -0.3761
   94SAPC  H16R 9153   2.472   2.804   5.397 -0.5455 -0.7872 -0.1164
   94SAPC  H16S 9154   2.469   2.980   5.427  1.2348 -2.0569  1.0688
   94SAPC  C217 9155   2.410   2.920   5.228  0.1167 -0.0852 -0.6182
   94SAPC  H17R 9156   2.334   2.995   5.200  0.8202 -0.2240 -3.1900
   94SAPC  H17S 9157   2.387   2.822   5.180  1.7377 -0.5602 -0.5028
   94SAPC  C218 9158   2.548   2.956   5.160 -0.2613  0.8016 -0.2268
   94SAPC  H18R 9159   2.605   2.861   5.171 -1.6498  0.0934  1.4728
   94SAPC  H18S 9160   2.606   3.025   5.225 -0.3066 -0.8039  1.6208
   94SAPC  C219 9161   2.565   3.001   5.011 -0.3536 -0.8205 -0.3450
   94SAPC  H19R 9162   2.674   3.005   4.989 -0.3114 -1.9357 -0.4010
   94SAPC  H19S 9163   2.509   3.097   5.006 -0.9636 -1.1523 -0.0533
   94SAPC  C220 9164   2.494   2.906   4.912  0.0995 -0.0173  0.4122
   94SAPC  H20R 9165   2.540   2.804   4.910  1.7657  0.7171 -1.6075
   94SAPC  H20S 9166   2.497   2.955   4.813  1.9285  0.5635  0.7242
   94SAPC  H20T 9167   2.386   2.909   4.938 -0.3026  0.6282 -1.2262
   94SAPC   C33 9168   2.645   3.411   6.821 -0.3746 -0.4896  0.0890
   94SAPC   H3X 9169   2.729   3.339   6.816  0.9771  0.7746  2.3639
   94SAPC   H3Y 9170   2.690   3.498   6.875 -0.2710 -0.0843 -0.6448
   94SAPC   C34 9171   2.587   3.445   6.687  0.3087  0.2418  0.3445
   94SAPC   H4X 9172   2.492   3.502   6.693 -0.9224 -1.8114  1.2360
   94SAPC   H4Y 9173   2.579   3.354   6.624  0.0281  1.3529 -1.2639
   94SAPC   C35 9174   2.687   3.527   6.602 -0.1897 -0.0355  0.8160
   94SAPC   H5X 9175   2.784   3.474   6.598 -0.2082 -0.0304  0.2874
   94SAPC   H5Y 9176   2.694   3.629   6.647  1.3766 -0.1572  0.8755
   94SAPC   C36 9177   2.649   3.554   6.451  0.7276  0.3671 -0.2547
   94SAPC   H6X 9178   2.710   3.637   6.411  2.6910 -1.2920 -0.8098
   94SAPC   H6Y 9179   2.542   3.584   6.448  0.2784 -1.2458 -1.5937
   94SAPC   C37 9180   2.658   3.432   6.355  0.2054  0.7229  0.5356
   94SAPC   H7X 9181   2.596   3.347   6.391 -1.7586  1.5826 -0.6846
   94SAPC   H7Y 9182   2.761   3.390   6.341  0.0098 -0.0772  1.4020
   94SAPC   C38 9183   2.601   3.472   6.217 -0.0443  0.6027  0.3536
   94SAPC   H8X 9184   2.643   3.573   6.197 -0.2373  0.3798 -1.3300
   94SAPC   H8Y 9185   2.490   3.478   6.215 -0.2826 -1.7143 -3.6595
   94SAPC   C39 9186   2.645   3.365   6.109  0.0837  0.3844  0.2858
   94SAPC   H9X 9187   2.564   3.326   6.043  0.2048 -0.2724  0.5195
   94SAPC   H9Y 9188   2.680   3.272   6.158 -0.9427 -0.5978 -0.7686
   94SAPC  C310 9189   2.766   3.398   6.027 -0.6447  0.1126  0.1902
   94SAPC  H10X 9190   2.857   3.366   6.083  0.3123 -1.1508 -1.9505
   94SAPC  H10Y 9191   2.774   3.508   6.021 -1.7467  0.3954  2.8542
   94SAPC  C311 9192   2.764   3.333   5.891  0.5150  0.0880 -0.8249
   94SAPC  H11X 9193   2.734   3.226   5.889  0.9479 -0.0997  1.2891
   94SAPC  H11Y 9194   2.871   3.334   5.859  1.0133  2.4161  0.7388
   94SAPC  C312 9195   2.683   3.411   5.776  0.8967  0.1190  0.2158
   94SAPC  H12X 9196   2.689   3.522   5.782  1.1452  0.0653  1.0524
   94SAPC  H12Y 9197   2.574   3.391   5.776  0.9582 -0.2506 -0.5182
   94SAPC  C313 9198   2.734   3.368   5.639 -0.2480 -0.1902  0.1509
   94SAPC  H13X 9199   2.753   3.258   5.636 -0.7015 -0.2581 -0.5258
   94SAPC  H13Y 9200   2.832   3.414   5.616 -0.1874  0.6847  2.0057
   94SAPC  C314 9201   2.649   3.397   5.503 -0.2745  0.0513 -0.5898
   94SAPC  H14X 9202   2.654   3.508   5.493  2.0418  0.1624  0.8794
   94SAPC  H14Y 9203   2.545   3.360   5.513 -0.2433 -0.9900 -3.3205
   94SAPC  C315 9204   2.700   3.329   5.380  0.4165  0.2854 -0.3107
   94SAPC  H15X 9205   2.645   3.235   5.362  1.2158 -0.0135 -1.2398
   94SAPC  H15Y 9206   2.804   3.294   5.399 -0.4389 -1.6926  0.9981
   94SAPC  C316 9207   2.680   3.411   5.252 -0.6531  0.6240 -0.1125
   94SAPC  H16X 9208   2.731   3.507   5.274 -0.0380  0.8325 -2.2460
   94SAPC  H16Y 9209   2.571   3.424   5.232 -1.0766 -2.7107 -0.5528
   94SAPC  C317 9210   2.751   3.333   5.142 -0.6770  0.4557 -0.1209
   94SAPC  H17X 9211   2.718   3.227   5.154 -2.2241  0.8541 -0.6032
   94SAPC  H17Y 9212   2.860   3.326   5.161 -0.6217  1.0149 -0.2137
   94SAPC  C318 9213   2.738   3.370   4.995 -0.1484  0.1121  0.7258
   94SAPC  H18X 9214   2.762   3.280   4.934 -3.2800 -1.3515  1.4598
   94SAPC  H18Y 9215   2.800   3.458   4.970  1.3204 -1.6034 -2.2894
   94SAPC  H18Z 9216   2.631   3.397   4.982 -0.5469 -1.6350  0.0414
   95SAPC     N 9217   3.394   4.708   2.496  0.1760 -0.1681  0.2595
   95SAPC   C12 9218   3.381   4.857   2.526  0.0307  0.1255  0.2218
   95SAPC  H12A 9219   3.313   4.861   2.609  1.4149 -5.2569  2.0499
   95SAPC  H12B 9220   3.329   4.905   2.444  0.2403 -0.5271 -0.3021
   95SAPC   C13 9221   3.492   4.690   2.384 -0.3320 -0.3201 -0.1645
   95SAPC  H13A 9222   3.448   4.732   2.295 -0.0170  0.7833  0.1747
   95SAPC  H13B 9223   3.586   4.741   2.401  1.1600 -2.4036 -1.6453
   95SAPC  H13C 9224   3.514   4.587   2.361  1.7119 -0.0478  0.3405
   95SAPC   C14 9225   3.452   4.639   2.621  0.2068  0.7601  0.0020
   95SAPC  H14A 9226   3.393   4.653   2.710  0.0758  0.7414 -0.0832
   95SAPC  H14B 9227   3.460   4.533   2.601  0.5895  0.3158  2.2348
   95SAPC  H14C 9228   3.552   4.673   2.647  0.6098  0.1310 -0.6818
   95SAPC   C15 9229   3.260   4.646   2.465  0.6709  0.4501 -0.1250
   95SAPC  H15A 9230   3.275   4.540   2.451  0.1687  0.3209  0.2491
   95SAPC  H15B 9231   3.197   4.653   2.553 -1.4368  0.8806 -1.5918
   95SAPC  H15C 9232   3.203   4.687   2.383  0.8203  0.8944 -0.0084
   95SAPC   C11 9233   3.505   4.940   2.562 -0.8773  0.1441 -0.1246
   95SAPC  H11A 9234   3.478   5.048   2.549 -0.1799  0.5025  1.2512
   95SAPC  H11B 9235   3.580   4.924   2.482 -0.5048 -0.2593  0.2974
   95SAPC     P 9236   3.525   4.992   2.816 -0.0933 -0.2458 -0.0620
   95SAPC   O13 9237   3.636   5.057   2.885 -0.7335 -0.4764  0.2196
   95SAPC   O14 9238   3.399   5.058   2.782 -0.4916  0.7782 -0.5381
   95SAPC   O12 9239   3.572   4.912   2.686  0.2383 -0.5262 -0.3427
   95SAPC   O11 9240   3.482   4.874   2.904  0.4517 -0.0514  0.4084
   95SAPC    C1 9241   3.585   4.765   2.925 -0.1120 -0.1412  0.5826
   95SAPC    HA 9242   3.610   4.712   2.830  0.1603 -3.3328  2.3019
   95SAPC    HB 9243   3.680   4.806   2.965  1.4736 -2.8607 -0.1318
   95SAPC    C2 9244   3.531   4.663   3.030 -0.6089  0.2557 -0.4171
   95SAPC    HS 9245   3.441   4.617   2.985 -0.3037 -1.0649  0.2805
   95SAPC   O21 9246   3.486   4.727   3.153 -0.3594 -0.4686  0.2253
   95SAPC   C21 9247   3.434   4.637   3.242 -0.0303 -0.3121  0.1459
   95SAPC   O22 9248   3.407   4.522   3.217  0.6975 -0.0205  0.1647
   95SAPC   C22 9249   3.403   4.713   3.372 -0.4068 -0.2687  0.2930
   95SAPC   H2R 9250   3.497   4.752   3.416 -0.7578 -0.9301  1.6855
   95SAPC   H2S 9251   3.338   4.800   3.351 -0.0772  0.5331  2.3354
   95SAPC    C3 9252   3.641   4.558   3.052  0.3697 -0.2498  0.3873
   95SAPC    HX 9253   3.659   4.492   2.964 -0.1635 -2.8696  2.1315
   95SAPC    HY 9254   3.605   4.482   3.125  0.2757 -0.4123  0.1743
   95SAPC   O31 9255   3.768   4.615   3.088 -0.3606 -0.3825 -0.3865
   95SAPC   C31 9256   3.790   4.654   3.208 -0.7724  0.2652 -0.1559
   95SAPC   O32 9257   3.712   4.643   3.300 -0.1466 -0.3177 -0.8286
   95SAPC   C32 9258   3.924   4.730   3.217  0.4568  0.1773 -0.5021
   95SAPC   H2X 9259   3.912   4.838   3.197  2.7753  0.5630 -0.0273
   95SAPC   H2Y 9260   3.991   4.684   3.141 -1.3260  1.7075 -3.1484
   95SAPC   C23 9261   3.348   4.629   3.486  0.2002  0.7360  0.2398
   95SAPC   H3R 9262   3.422   4.547   3.492  0.2171  0.7074 -0.2750
   95SAPC   H3S 9263   3.247   4.586   3.470 -0.2424  1.7463  0.2161
   95SAPC   C24 9264   3.344   4.710   3.617 -0.0133 -0.2185 -0.1985
   95SAPC   H4R 9265   3.266   4.662   3.680  0.9043 -1.0479  0.3488
   95SAPC   H4S 9266   3.308   4.812   3.592 -0.6008 -0.4874 -0.4906
   95SAPC   C25 9267   3.475   4.706   3.692  1.2161 -0.2071  0.4659
   95SAPC   H5R 9268   3.556   4.671   3.627  0.2082 -0.1145 -0.8876
   95SAPC   C26 9269   3.491   4.766   3.809 -0.1727 -0.5586 -0.2674
   95SAPC   H6R 9270   3.592   4.768   3.851  0.4518  0.2548 -1.7512
   95SAPC   C27 9271   3.391   4.850   3.885  0.0292  0.1659 -0.4788
   95SAPC   H7R 9272   3.399   4.815   3.990  0.8215  0.5316 -0.4088
   95SAPC   H7S 9273   3.285   4.829   3.857 -0.0348 -0.2124  0.0372
   95SAPC   C28 9274   3.411   4.999   3.881  0.2297 -0.4943  0.0631
   95SAPC   H8R 9275   3.420   5.027   3.775  0.9258 -1.9337 -0.2906
   95SAPC   C29 9276   3.391   5.088   3.977 -0.1953  0.2835 -0.6389
   95SAPC   H9R 9277   3.409   5.196   3.965 -1.0223  0.7466  1.6678
   95SAPC  C210 9278   3.348   5.057   4.115  0.4578  0.0147 -0.0704
   95SAPC  H10R 9279   3.431   5.007   4.170  0.9437 -2.0615 -2.5131
   95SAPC  H10S 9280   3.261   4.988   4.107  0.7488 -0.1492 -2.5809
   95SAPC  C211 9281   3.298   5.184   4.183  0.5189 -0.5367  0.2885
   95SAPC  H11R 9282   3.218   5.237   4.130 -0.3840 -0.8712  1.2541
   95SAPC  C212 9283   3.336   5.228   4.304  0.0192 -0.1599  0.0425
   95SAPC  H12R 9284   3.273   5.306   4.348  2.3747  1.9254 -0.0779
   95SAPC  C213 9285   3.437   5.166   4.402  0.4981 -0.0046  0.4547
   95SAPC  H13R 9286   3.441   5.235   4.490  3.0765  0.0010  0.4049
   95SAPC  H13S 9287   3.541   5.158   4.364  0.7351  0.2603  1.0228
   95SAPC  C214 9288   3.395   5.035   4.466 -0.0894  0.4005  0.1677
   95SAPC  H14R 9289   3.294   5.043   4.507  1.2016 -0.0420  3.8753
   95SAPC  C215 9290   3.470   4.923   4.488 -0.4264  0.0493  0.9518
   95SAPC  H15R 9291   3.430   4.836   4.543  1.0142 -0.2983  1.5054
   95SAPC  C216 9292   3.609   4.897   4.437 -0.4196  0.2073 -0.6865
   95SAPC  H16R 9293   3.679   4.980   4.461 -0.1702  0.6380 -2.7216
   95SAPC  H16S 9294   3.605   4.906   4.326 -4.5014 -2.9015 -1.0407
   95SAPC  C217 9295   3.676   4.760   4.477 -0.5242 -0.0981 -0.6913
   95SAPC  H17R 9296   3.776   4.753   4.428 -0.0834  1.2652 -0.0296
   95SAPC  H17S 9297   3.600   4.693   4.432  1.1189 -1.8341 -0.9819
   95SAPC  C218 9298   3.691   4.751   4.628  0.1084  0.1157  0.2527
   95SAPC  H18R 9299   3.589   4.774   4.667 -0.5669  0.1800 -1.4840
   95SAPC  H18S 9300   3.752   4.831   4.674  2.1216 -1.6010  0.7227
   95SAPC  C219 9301   3.725   4.618   4.697  0.4435  0.0795  0.8440
   95SAPC  H19R 9302   3.823   4.587   4.656 -0.1845  1.1094 -1.6035
   95SAPC  H19S 9303   3.662   4.538   4.653  0.1651  1.3946 -1.3113
   95SAPC  C220 9304   3.719   4.614   4.849 -0.1630 -0.3300 -0.4963
   95SAPC  H20R 9305   3.794   4.685   4.889  1.4479 -1.6252 -1.0718
   95SAPC  H20S 9306   3.739   4.512   4.887 -2.8824 -1.3144 -1.4541
   95SAPC  H20T 9307   3.619   4.640   4.889  1.5398  2.2793  2.4896
   95SAPC   C33 9308   3.985   4.701   3.351 -0.2996 -0.4911  0.0692
   95SAPC   H3X 9309   3.924   4.741   3.434  0.1464 -0.4247  0.3725
   95SAPC   H3Y 9310   4.084   4.753   3.353 -0.7667  0.4626 -0.7958
   95SAPC   C34 9311   4.031   4.554   3.368 -0.4714 -0.6195  0.1574
   95SAPC   H4X 9312   4.052   4.513   3.267 -0.3055  0.7409 -0.3800
   95SAPC   H4Y 9313   3.939   4.505   3.406 -0.2421  0.5146  2.4050
   95SAPC   C35 9314   4.154   4.530   3.454  0.3337 -0.1839 -0.0109
   95SAPC   H5X 9315   4.233   4.604   3.431 -0.7172  0.3249 -2.3027
   95SAPC   H5Y 9316   4.191   4.430   3.421 -0.8116 -0.5429 -0.2916
   95SAPC   C36 9317   4.114   4.515   3.605 -0.6414  0.1583  0.3393
   95SAPC   H6X 9318   4.042   4.432   3.622 -2.2498  1.3444 -0.4790
   95SAPC   H6Y 9319   4.058   4.604   3.641 -3.0604 -1.9458  2.1561
   95SAPC   C37 9320   4.236   4.498   3.690  0.3523 -0.7934  0.3346
   95SAPC   H7X 9321   4.302   4.585   3.672  0.6042 -0.7417  1.4595
   95SAPC   H7Y 9322   4.290   4.410   3.648  0.1568 -0.6741 -0.1783
   95SAPC   C38 9323   4.208   4.495   3.839 -0.1159 -0.2170  0.4555
   95SAPC   H8X 9324   4.139   4.412   3.865  0.4219 -0.8766 -0.1849
   95SAPC   H8Y 9325   4.156   4.585   3.876  0.7566  1.1434 -1.5038
   95SAPC   C39 9326   4.328   4.476   3.926 -0.3182  0.4441 -0.9519
   95SAPC   H9X 9327   4.395   4.561   3.899 -1.7020  1.1252 -2.4485
   95SAPC   H9Y 9328   4.386   4.385   3.899  1.6127  1.1963  0.4466
   95SAPC  C310 9329   4.294   4.466   4.074  0.1572 -0.0565 -0.7634
   95SAPC  H10X 9330   4.224   4.384   4.101  0.9725 -0.3586  0.5580
   95SAPC  H10Y 9331   4.239   4.553   4.118 -2.6709 -1.7033 -0.8213
   95SAPC  C311 9332   4.426   4.463   4.160 -0.1242 -0.1174  0.0136
   95SAPC  H11X 9333   4.489   4.544   4.118 -1.4265 -0.2418 -2.3802
   95SAPC  H11Y 9334   4.473   4.363   4.147  0.2308 -0.2180  1.8368
   95SAPC  C312 9335   4.396   4.485   4.314  0.1310  0.2954  0.4662
   95SAPC  H12X 9336   4.323   4.404   4.337 -1.6027  1.2601 -1.3038
   95SAPC  H12Y 9337   4.330   4.573   4.326 -0.7818 -0.1831 -0.8145
   95SAPC  C313 9338   4.531   4.482   4.394  0.2699  0.2181  0.3466
   95SAPC  H13X 9339   4.593   4.568   4.361  0.2930 -0.0973 -0.4691
   95SAPC  H13Y 9340   4.589   4.388   4.383 -1.0338 -0.4622 -1.2670
   95SAPC  C314 9341   4.501   4.508   4.544  0.0945 -0.0552 -0.2567
   95SAPC  H14X 9342   4.415   4.443   4.572 -2.2050  2.3341 -1.3382
   95SAPC  H14Y 9343   4.474   4.614   4.562 -1.0364 -0.2514 -0.6522
   95SAPC  C315 9344   4.612   4.474   4.639 -0.5171  1.2587  0.5064
   95SAPC  H15X 9345   4.692   4.551   4.629 -0.9127  1.5071 -1.1153
   95SAPC  H15Y 9346   4.648   4.371   4.622 -1.8187  0.9966 -0.9453
   95SAPC  C316 9347   4.564   4.478   4.786  0.7199 -0.7755  0.3930
   95SAPC  H16X 9348   4.466   4.434   4.814  0.6117  0.9843  3.2067
   95SAPC  H16Y 9349   4.543   4.586   4.800 -2.6709 -1.3062  0.0639
   95SAPC  C317 9350   4.665   4.445   4.897 -0.2292  0.1496 -0.3878
   95SAPC  H17X 9351   4.663   4.335   4.915  0.9856 -0.0437 -1.3230
   95SAPC  H17Y 9352   4.625   4.480   4.995 -0.6391 -1.7007  0.1477
   95SAPC  C318 9353   4.810   4.498   4.889  0.6316  0.2255  0.8359
   95SAPC  H18X 9354   4.853   4.429   4.814 -0.5446 -0.6625  0.9460
   95SAPC  H18Y 9355   4.858   4.491   4.989  0.5470 -1.0013  0.8077
   95SAPC  H18Z 9356   4.820   4.606   4.863  0.2677  0.3868  1.3603
   96SAPC     N 9357   5.267   1.659   2.026  0.2606 -0.1307  0.5254
   96SAPC   C12 9358   5.396   1.735   1.993 -0.4065 -0.0846 -1.1325
   96SAPC  H12A 9359   5.396   1.822   2.056 -1.6605 -1.1566  0.4115
   96SAPC  H12B 9360   5.384   1.763   1.889 -4.4520 -0.3163 -0.8891
   96SAPC   C13 9361   5.150   1.722   1.946  0.2290  0.4459 -0.6430
   96SAPC  H13A 9362   5.168   1.713   1.839  2.4933 -2.8591 -0.1583
   96SAPC  H13B 9363   5.055   1.685   1.981  0.3670 -0.0295 -0.7534
   96SAPC  H13C 9364   5.144   1.828   1.965 -1.3302  0.3302 -0.3595
   96SAPC   C14 9365   5.273   1.513   1.982  0.0592 -0.8478 -0.3439
   96SAPC  H14A 9366   5.188   1.456   2.019 -2.6009  3.0775  0.1878
   96SAPC  H14B 9367   5.283   1.503   1.875  1.5308 -1.4803 -0.1610
   96SAPC  H14C 9368   5.368   1.474   2.015 -1.0771 -1.5874  2.3149
   96SAPC   C15 9369   5.242   1.656   2.176 -0.3021 -0.4084  0.4099
   96SAPC  H15A 9370   5.159   1.588   2.181 -1.4858  0.6702 -2.3253
   96SAPC  H15B 9371   5.328   1.621   2.232  1.3805  0.8967 -1.1977
   96SAPC  H15C 9372   5.226   1.755   2.215  1.5565 -0.0579  0.4000
   96SAPC   C11 9373   5.525   1.655   2.015  0.2871  0.1964  0.0666
   96SAPC  H11A 9374   5.603   1.717   1.966 -0.4913  1.3887  0.2640
   96SAPC  H11B 9375   5.520   1.553   1.972  0.9280  0.1532  0.0937
   96SAPC     P 9376   5.631   1.776   2.213  0.1242 -0.0244  0.1578
   96SAPC   O13 9377   5.767   1.772   2.161 -0.3845 -0.1241  0.4330
   96SAPC   O14 9378   5.539   1.891   2.185  0.3204 -0.4180 -0.1048
   96SAPC   O12 9379   5.555   1.645   2.158 -0.0340  0.1476  0.1859
   96SAPC   O11 9380   5.632   1.746   2.366  0.2739 -0.1125  0.0875
   96SAPC    C1 9381   5.633   1.617   2.419 -0.7074  0.6266 -0.2052
   96SAPC    HA 9382   5.538   1.564   2.397  0.5677 -1.4659 -0.9297
   96SAPC    HB 9383   5.707   1.553   2.367 -0.7170 -0.1405  0.7045
   96SAPC    C2 9384   5.668   1.607   2.565  0.3463 -0.2036  0.4049
   96SAPC    HS 9385   5.667   1.504   2.605  1.2516 -0.4117 -0.0947
   96SAPC   O21 9386   5.583   1.687   2.651 -0.0358  0.1720 -0.2387
   96SAPC   C21 9387   5.461   1.640   2.657 -0.4114 -0.5878 -0.1330
   96SAPC   O22 9388   5.420   1.535   2.612 -0.1799  0.2662 -0.1353
   96SAPC   C22 9389   5.381   1.738   2.745 -0.1161  0.2330  0.2359
   96SAPC   H2R 9390   5.446   1.818   2.788 -2.5027  2.7996 -0.6117
   96SAPC   H2S 9391   5.313   1.796   2.679 -0.3755 -0.0364  0.2640
   96SAPC    C3 9392   5.819   1.637   2.581 -0.8992 -0.7028 -0.3161
   96SAPC    HX 9393   5.824   1.746   2.560 -2.1909 -0.4742  0.4635
   96SAPC    HY 9394   5.880   1.581   2.506  0.2788  1.4784 -1.0856
   96SAPC   O31 9395   5.850   1.593   2.714 -0.3366 -0.0456  0.4347
   96SAPC   C31 9396   5.911   1.683   2.795  0.4118 -0.5252  0.1590
   96SAPC   O32 9397   5.952   1.788   2.752  0.0166 -0.2981  0.4714
   96SAPC   C32 9398   5.890   1.635   2.946 -0.4353  0.3535  0.0320
   96SAPC   H2X 9399   5.953   1.698   3.012 -0.0752 -1.8350  1.9273
   96SAPC   H2Y 9400   5.916   1.527   2.951 -0.4403  0.3426 -0.1601
   96SAPC   C23 9401   5.295   1.661   2.846 -1.0021 -0.1391  0.4892
   96SAPC   H3R 9402   5.356   1.597   2.913 -0.7764  0.7538  1.1543
   96SAPC   H3S 9403   5.226   1.596   2.787 -0.6806 -1.6131  1.6856
   96SAPC   C24 9404   5.215   1.741   2.951  0.0893  0.0954  0.3612
   96SAPC   H4R 9405   5.280   1.818   2.999  0.0154  0.2407  0.2270
   96SAPC   H4S 9406   5.176   1.667   3.024 -0.3891 -1.2743 -1.2157
   96SAPC   C25 9407   5.102   1.813   2.884  0.4383 -0.8247 -0.8020
   96SAPC   H5R 9408   5.141   1.886   2.811  2.1454  1.0972  1.8317
   96SAPC   C26 9409   4.968   1.805   2.901  0.9140  0.8153  0.0533
   96SAPC   H6R 9410   4.912   1.864   2.827 -0.0860 -2.2176 -1.7552
   96SAPC   C27 9411   4.902   1.693   2.983  0.3025  0.6062 -0.0375
   96SAPC   H7R 9412   4.826   1.728   3.056 -1.3733  0.3259 -1.5960
   96SAPC   H7S 9413   4.978   1.634   3.039 -1.2418 -2.9987 -1.4277
   96SAPC   C28 9414   4.820   1.604   2.884  1.0028  0.0033  0.4922
   96SAPC   H8R 9415   4.876   1.569   2.796  0.6272  0.5760  0.0108
   96SAPC   C29 9416   4.691   1.569   2.889 -0.2520 -0.0157 -0.2783
   96SAPC   H9R 9417   4.667   1.498   2.808  0.2452 -1.1241  0.5320
   96SAPC  C210 9418   4.584   1.595   2.991  0.3757  0.9493 -0.7742
   96SAPC  H10R 9419   4.507   1.658   2.943  0.2639  1.2783 -0.1714
   96SAPC  H10S 9420   4.634   1.647   3.075  2.3971  1.5792 -2.3011
   96SAPC  C211 9421   4.512   1.468   3.035 -0.6002  0.1991  0.1061
   96SAPC  H11R 9422   4.455   1.418   2.956 -0.6881  1.7565 -0.8573
   96SAPC  C212 9423   4.515   1.404   3.150 -0.8171 -0.7265  0.3419
   96SAPC  H12R 9424   4.439   1.325   3.155 -1.6605  0.0656  0.0981
   96SAPC  C213 9425   4.581   1.443   3.278 -0.3035 -0.1898 -0.0764
   96SAPC  H13R 9426   4.689   1.429   3.256 -0.2405 -1.7862  1.0903
   96SAPC  H13S 9427   4.556   1.368   3.356 -0.4382 -1.2163 -1.0773
   96SAPC  C214 9428   4.541   1.581   3.324  0.1526  0.2124 -0.5147
   96SAPC  H14R 9429   4.505   1.655   3.251 -0.2398 -0.8137 -1.3871
   96SAPC  C215 9430   4.547   1.624   3.457  0.0956 -0.1911 -0.5472
   96SAPC  H15R 9431   4.522   1.731   3.472 -0.2342 -0.3489  0.0758
   96SAPC  C216 9432   4.587   1.553   3.583 -0.3260 -0.2379 -0.2921
   96SAPC  H16R 9433   4.541   1.452   3.584 -1.6521  0.3396  0.1708
   96SAPC  H16S 9434   4.532   1.601   3.667 -1.3971  0.6366 -1.4594
   96SAPC  C217 9435   4.736   1.545   3.617 -0.4024 -0.0574  0.6050
   96SAPC  H17R 9436   4.758   1.654   3.624  2.5143 -0.4634 -0.8250
   96SAPC  H17S 9437   4.795   1.504   3.533  2.0947  2.5741  0.8978
   96SAPC  C218 9438   4.774   1.467   3.740 -0.8584  0.4241  0.2125
   96SAPC  H18R 9439   4.737   1.363   3.733 -0.6821  0.2696  1.3393
   96SAPC  H18S 9440   4.719   1.499   3.831 -0.4415 -0.1739  0.6829
   96SAPC  C219 9441   4.936   1.451   3.756 -0.3293 -0.4901 -0.3956
   96SAPC  H19R 9442   4.976   1.554   3.752  0.7682 -0.9283 -1.8726
   96SAPC  H19S 9443   4.966   1.393   3.666 -2.4083 -0.0985 -1.4167
   96SAPC  C220 9444   4.976   1.372   3.879  0.0631 -0.3062 -0.6476
   96SAPC  H20R 9445   4.937   1.269   3.870  0.3827 -0.5194  0.3215
   96SAPC  H20S 9446   4.943   1.411   3.977 -2.4789  1.0394 -1.9347
   96SAPC  H20T 9447   5.086   1.365   3.892 -0.1900 -2.7447  0.7418
   96SAPC   C33 9448   5.749   1.660   2.997 -0.2131  0.0808  0.4041
   96SAPC   H3X 9449   5.726   1.604   3.090 -0.4742 -0.5746 -0.0445
   96SAPC   H3Y 9450   5.676   1.626   2.919 -0.5737 -0.8655  1.1305
   96SAPC   C34 9451   5.728   1.810   3.028  0.1456  0.6082 -0.2909
   96SAPC   H4X 9452   5.735   1.883   2.944 -1.5664  1.8385  0.5611
   96SAPC   H4Y 9453   5.810   1.836   3.097  2.3950  0.0925 -2.6215
   96SAPC   C35 9454   5.589   1.830   3.096  0.1578  0.7345 -0.7152
   96SAPC   H5X 9455   5.575   1.747   3.169  2.0239  1.4692  0.5564
   96SAPC   H5Y 9456   5.515   1.818   3.014  1.1756 -1.9354 -1.3289
   96SAPC   C36 9457   5.556   1.969   3.154  0.3445 -0.1747  0.0647
   96SAPC   H6X 9458   5.469   2.017   3.105  0.5221  0.1967  0.1147
   96SAPC   H6Y 9459   5.637   2.040   3.129  2.0277 -1.7722  0.7415
   96SAPC   C37 9460   5.543   1.969   3.304 -0.0319 -0.1135 -0.1821
   96SAPC   H7X 9461   5.638   1.954   3.361  0.4404  2.1699 -0.2904
   96SAPC   H7Y 9462   5.473   1.885   3.325  1.6937 -1.5969 -0.0236
   96SAPC   C38 9463   5.481   2.098   3.368 -0.5538  0.4018  0.1201
   96SAPC   H8X 9464   5.378   2.110   3.327  0.7674 -1.1164 -4.2070
   96SAPC   H8Y 9465   5.540   2.189   3.343  0.8662 -0.5131  0.0521
   96SAPC   C39 9466   5.460   2.083   3.526 -0.3594  0.2093  0.5990
   96SAPC   H9X 9467   5.405   1.989   3.546 -0.9886 -0.1119 -2.2139
   96SAPC   H9Y 9468   5.395   2.170   3.550 -0.7927  0.4241 -1.1852
   96SAPC  C310 9469   5.586   2.086   3.613  0.5651  0.3649 -0.8270
   96SAPC  H10X 9470   5.663   2.162   3.586  2.5172 -0.8806  0.9293
   96SAPC  H10Y 9471   5.627   1.984   3.598 -3.1370 -1.4424  0.1256
   96SAPC  C311 9472   5.548   2.079   3.761  0.3024 -0.3281  0.0090
   96SAPC  H11X 9473   5.474   1.998   3.779  0.4715 -0.0701  2.1030
   96SAPC  H11Y 9474   5.501   2.177   3.785  4.5139  1.6105  1.3459
   96SAPC  C312 9475   5.669   2.075   3.856 -0.4709  0.0942  0.3695
   96SAPC  H12X 9476   5.726   2.169   3.839 -1.6802  0.2891 -3.3233
   96SAPC  H12Y 9477   5.726   1.983   3.832 -1.5878 -0.3808 -0.5199
   96SAPC  C313 9478   5.635   2.073   4.005 -0.0130  0.3183 -0.1676
   96SAPC  H13X 9479   5.568   1.987   4.027  1.0589 -0.6843 -0.6997
   96SAPC  H13Y 9480   5.578   2.164   4.032  0.3653  1.9720 -4.3418
   96SAPC  C314 9481   5.759   2.063   4.100 -0.1179  0.5267  0.3692
   96SAPC  H14X 9482   5.824   2.148   4.071  0.2053  0.4042  0.7273
   96SAPC  H14Y 9483   5.816   1.971   4.075  1.3108  0.9830  1.7994
   96SAPC  C315 9484   5.733   2.052   4.252 -0.4757  0.0119  0.5509
   96SAPC  H15X 9485   5.624   2.061   4.268 -0.8009 -1.6753 -0.5115
   96SAPC  H15Y 9486   5.789   2.139   4.294  0.5144  0.1365 -0.9622
   96SAPC  C316 9487   5.767   1.916   4.314 -0.3505  0.7130  0.5160
   96SAPC  H16X 9488   5.865   1.887   4.269 -0.1810  0.9051  0.7580
   96SAPC  H16Y 9489   5.693   1.843   4.276  2.2447 -1.5295 -0.6069
   96SAPC  C317 9490   5.775   1.913   4.471 -0.0221 -0.5708 -0.3007
   96SAPC  H17X 9491   5.673   1.929   4.512  0.4195  0.6752  0.3404
   96SAPC  H17Y 9492   5.836   1.998   4.506  0.5971 -0.1733 -2.2201
   96SAPC  C318 9493   5.839   1.779   4.523  0.6032  0.1189 -0.0066
   96SAPC  H18X 9494   5.775   1.694   4.491  2.1096 -0.8641 -0.5044
   96SAPC  H18Y 9495   5.844   1.784   4.634  0.8287  0.3963 -0.0280
   96SAPC  H18Z 9496   5.941   1.777   4.479  0.2820 -0.4620 -0.7481
   97SAPC     N 9497   4.532   0.227   2.526 -0.0136  0.7002 -0.3296
   97SAPC   C12 9498   4.491   0.196   2.666  0.1198  0.4970 -0.1666
   97SAPC  H12A 9499   4.556   0.114   2.694  0.2488  0.3201 -0.9495
   97SAPC  H12B 9500   4.396   0.146   2.657  0.4966 -0.5933  1.3907
   97SAPC   C13 9501   4.553   0.096   2.445 -0.1951 -0.1400 -0.1472
   97SAPC  H13A 9502   4.462   0.038   2.452 -2.5286  3.0081 -1.8328
   97SAPC  H13B 9503   4.581   0.117   2.343 -1.6401 -0.1597 -0.5795
   97SAPC  H13C 9504   4.638   0.047   2.491 -1.3330  0.3712  2.6970
   97SAPC   C14 9505   4.423   0.310   2.458 -0.3532  0.1556  0.0977
   97SAPC  H14A 9506   4.330   0.262   2.481  0.4679 -0.8065  1.5661
   97SAPC  H14B 9507   4.415   0.411   2.495  0.1697  0.2559 -0.0495
   97SAPC  H14C 9508   4.445   0.310   2.352  0.2750  0.3313  0.2199
   97SAPC   C15 9509   4.652   0.305   2.522 -0.2575 -0.6947 -0.1339
   97SAPC  H15A 9510   4.663   0.334   2.419 -1.6116  0.8190  0.1090
   97SAPC  H15B 9511   4.642   0.396   2.579 -1.2701  0.2771 -1.7742
   97SAPC  H15C 9512   4.745   0.260   2.555  0.9618  0.9993 -1.1021
   97SAPC   C11 9513   4.490   0.310   2.773  0.2875  0.6195  0.1679
   97SAPC  H11A 9514   4.594   0.343   2.792  0.1954  0.9523  0.1064
   97SAPC  H11B 9515   4.456   0.256   2.864  2.8119 -2.3631 -0.4842
   97SAPC     P 9516   4.434   0.559   2.761  0.3158  0.3845 -0.2041
   97SAPC   O13 9517   4.578   0.569   2.747  0.3995  0.3647  0.0985
   97SAPC   O14 9518   4.350   0.644   2.674  0.6266  0.3301  0.0553
   97SAPC   O12 9519   4.400   0.409   2.732  0.0913  0.2073 -0.1088
   97SAPC   O11 9520   4.389   0.572   2.909  0.6736  0.3523 -0.2782
   97SAPC    C1 9521   4.265   0.623   2.950  0.5059  0.6673 -0.4730
   97SAPC    HA 9522   4.189   0.608   2.870 -0.5699  2.9466  0.0436
   97SAPC    HB 9523   4.232   0.565   3.038 -0.5345  1.0668 -0.5860
   97SAPC    C2 9524   4.267   0.770   2.987  0.7447  0.0794 -0.1840
   97SAPC    HS 9525   4.268   0.831   2.894  2.1166  0.4448  0.0541
   97SAPC   O21 9526   4.391   0.790   3.062  0.5610  0.0794 -0.2452
   97SAPC   C21 9527   4.433   0.914   3.071 -0.4289 -0.1681 -0.2260
   97SAPC   O22 9528   4.375   1.014   3.027 -0.3128 -0.7594 -0.3755
   97SAPC   C22 9529   4.568   0.915   3.151  0.2791  0.9094 -0.1848
   97SAPC   H2R 9530   4.553   0.894   3.260  1.8854 -0.3462 -0.1680
   97SAPC   H2S 9531   4.628   0.832   3.109 -0.6381  0.2246 -0.2008
   97SAPC    C3 9532   4.145   0.809   3.072 -0.2086  0.7068 -0.1172
   97SAPC    HX 9533   4.051   0.794   3.014 -0.8126 -1.6161  1.3448
   97SAPC    HY 9534   4.159   0.918   3.091 -0.7720  0.4970  1.6088
   97SAPC   O31 9535   4.150   0.721   3.187 -0.5242 -0.2570  0.1101
   97SAPC   C31 9536   4.219   0.754   3.300 -0.0905  0.2110  0.0779
   97SAPC   O32 9537   4.268   0.865   3.324 -0.9433  0.4301  0.5474
   97SAPC   C32 9538   4.201   0.638   3.398 -0.4131 -0.5024  0.3114
   97SAPC   H2X 9539   4.233   0.555   3.331 -0.5104  1.6922 -2.6838
   97SAPC   H2Y 9540   4.098   0.613   3.429 -1.6718  1.1704 -2.1120
   97SAPC   C23 9541   4.633   1.052   3.140  0.3766  0.3621 -0.6373
   97SAPC   H3R 9542   4.570   1.124   3.196 -0.7229 -1.2429  0.2836
   97SAPC   H3S 9543   4.651   1.094   3.039  2.7475  1.1687  0.0597
   97SAPC   C24 9544   4.770   1.069   3.205  0.4769  0.4485 -0.1800
   97SAPC   H4R 9545   4.765   1.049   3.314  1.5309 -0.8161 -0.3408
   97SAPC   H4S 9546   4.790   1.177   3.191 -0.3611  0.5853 -0.3755
   97SAPC   C25 9547   4.873   0.975   3.144  0.0431 -0.0511 -0.3467
   97SAPC   H5R 9548   4.902   0.994   3.039  1.3478  0.3683  0.0712
   97SAPC   C26 9549   4.942   0.871   3.193  0.2499 -0.3418 -0.1099
   97SAPC   H6R 9550   5.001   0.816   3.118  2.9254 -0.6357  2.0695
   97SAPC   C27 9551   4.918   0.800   3.322 -0.2495  0.7044 -0.0117
   97SAPC   H7R 9552   4.944   0.857   3.413 -2.5439  1.5258  0.1956
   97SAPC   H7S 9553   4.997   0.722   3.319  0.5079  1.4791 -0.8642
   97SAPC   C28 9554   4.781   0.732   3.341 -0.8493  0.4581  0.4156
   97SAPC   H8R 9555   4.764   0.655   3.265  1.5071  0.2650 -0.0154
   97SAPC   C29 9556   4.699   0.742   3.448  0.2401  0.1386  0.1434
   97SAPC   H9R 9557   4.601   0.693   3.445 -0.8352  2.2084 -0.0301
   97SAPC  C210 9558   4.712   0.831   3.571  0.7169 -0.3292 -0.5466
   97SAPC  H10R 9559   4.644   0.919   3.567 -0.3150 -1.1526 -2.1295
   97SAPC  H10S 9560   4.811   0.883   3.576  0.7405 -0.4756  3.1679
   97SAPC  C211 9561   4.695   0.777   3.710 -0.1422  0.1934  0.1136
   97SAPC  H11R 9562   4.636   0.685   3.701  1.1430 -0.7120  0.5275
   97SAPC  C212 9563   4.739   0.821   3.834  0.7685  0.7482 -0.2120
   97SAPC  H12R 9564   4.719   0.763   3.924  0.0104  1.5833  0.1742
   97SAPC  C213 9565   4.834   0.935   3.858  0.0229 -0.0974  0.2032
   97SAPC  H13R 9566   4.840   0.994   3.764  0.3692 -0.8947 -0.2787
   97SAPC  H13S 9567   4.939   0.899   3.864 -0.3088 -0.9608  1.1031
   97SAPC  C214 9568   4.793   1.021   3.983 -0.1737 -0.4093  0.6801
   97SAPC  H14R 9569   4.684   1.022   3.993 -0.4235 -1.4140 -1.3136
   97SAPC  C215 9570   4.873   1.071   4.075  0.3530 -0.2866  0.1538
   97SAPC  H15R 9571   4.833   1.132   4.157  2.7113 -0.1632  1.3056
   97SAPC  C216 9572   5.026   1.071   4.076 -0.0007  0.4960 -0.4639
   97SAPC  H16R 9573   5.061   1.174   4.101 -0.0376  1.0276 -2.4644
   97SAPC  H16S 9574   5.059   1.063   3.970 -1.4610  1.5385 -1.0347
   97SAPC  C217 9575   5.098   0.967   4.163 -0.3214  0.4927  0.8497
   97SAPC  H17R 9576   5.207   0.968   4.143 -0.1826 -2.1036  1.1701
   97SAPC  H17S 9577   5.070   0.872   4.112  1.0403  0.3003  0.4058
   97SAPC  C218 9578   5.069   0.970   4.310  0.0010  0.0144  0.3490
   97SAPC  H18R 9579   5.116   0.885   4.364 -0.9644  0.0686  1.3181
   97SAPC  H18S 9580   4.959   0.952   4.319  0.1621 -1.8450 -0.8360
   97SAPC  C219 9581   5.135   1.091   4.380 -0.3921 -0.0836  0.0533
   97SAPC  H19R 9582   5.098   1.094   4.485 -0.5328 -0.0131  0.0016
   97SAPC  H19S 9583   5.106   1.170   4.308 -0.7602 -2.5670 -2.7164
   97SAPC  C220 9584   5.291   1.088   4.389 -0.0023  0.0715  0.0134
   97SAPC  H20R 9585   5.332   1.183   4.431  0.2892 -1.1115  2.6280
   97SAPC  H20S 9586   5.345   1.058   4.296 -1.6270 -0.3345 -0.8292
   97SAPC  H20T 9587   5.311   1.010   4.465 -1.7781 -0.7795 -0.3643
   97SAPC   C33 9588   4.274   0.666   3.537 -0.4935  0.6266 -0.3294
   97SAPC   H3X 9589   4.201   0.718   3.602 -1.4348 -0.0083 -0.8527
   97SAPC   H3Y 9590   4.363   0.732   3.531  1.0381 -1.4838 -3.0599
   97SAPC   C34 9591   4.323   0.540   3.619 -0.1980 -0.3864 -1.3904
   97SAPC   H4X 9592   4.409   0.492   3.568  1.3015  0.0812  0.5578
   97SAPC   H4Y 9593   4.249   0.459   3.638  0.5603 -0.7048  0.4140
   97SAPC   C35 9594   4.358   0.579   3.770  0.1375  0.4934  0.4358
   97SAPC   H5X 9595   4.269   0.635   3.808 -0.6677 -0.3237 -0.2151
   97SAPC   H5Y 9596   4.447   0.646   3.772 -0.9785  2.0651 -0.2070
   97SAPC   C36 9597   4.366   0.458   3.865 -0.5168 -0.0270  0.2979
   97SAPC   H6X 9598   4.437   0.387   3.817 -1.8045 -0.1110 -1.6076
   97SAPC   H6Y 9599   4.269   0.404   3.868 -1.0057  0.7286 -0.8992
   97SAPC   C37 9600   4.400   0.506   4.001 -0.2525 -0.0090  0.4825
   97SAPC   H7X 9601   4.325   0.578   4.041  0.6616  1.6557 -0.7125
   97SAPC   H7Y 9602   4.496   0.562   3.992 -0.3199 -0.2437 -2.5415
   97SAPC   C38 9603   4.427   0.388   4.090  0.5373 -0.1389 -0.0939
   97SAPC   H8X 9604   4.509   0.325   4.048  0.8736  0.5855 -0.5390
   97SAPC   H8Y 9605   4.337   0.324   4.100 -0.8839  2.0821  2.3666
   97SAPC   C39 9606   4.450   0.422   4.235 -0.2769  0.2316  0.0670
   97SAPC   H9X 9607   4.381   0.507   4.254 -2.0148 -0.9608 -0.7210
   97SAPC   H9Y 9608   4.554   0.461   4.246 -0.0377 -0.1707 -0.7165
   97SAPC  C310 9609   4.428   0.316   4.343 -0.2991 -0.4963 -0.0800
   97SAPC  H10X 9610   4.499   0.231   4.341 -0.2897 -0.4928  0.0763
   97SAPC  H10Y 9611   4.328   0.271   4.326 -0.6703  0.1637  0.2729
   97SAPC  C311 9612   4.431   0.371   4.485 -0.7603  0.0155 -0.0165
   97SAPC  H11X 9613   4.364   0.460   4.486 -0.5951  0.1464 -0.6786
   97SAPC  H11Y 9614   4.530   0.412   4.514 -1.0292  0.2147  0.6464
   97SAPC  C312 9615   4.390   0.269   4.592 -0.1970 -1.0741  0.2493
   97SAPC  H12X 9616   4.464   0.187   4.602 -0.6424 -1.4692  0.3183
   97SAPC  H12Y 9617   4.295   0.226   4.552 -2.1608  1.9447  1.2972
   97SAPC  C313 9618   4.363   0.334   4.729  0.3170  0.2616 -0.3705
   97SAPC  H13X 9619   4.319   0.249   4.786  1.2809  0.6183  0.9384
   97SAPC  H13Y 9620   4.284   0.412   4.731 -1.1149 -1.1494  1.2868
   97SAPC  C314 9621   4.488   0.393   4.797  0.1974 -0.3128 -0.6477
   97SAPC  H14X 9622   4.513   0.486   4.742  0.0735 -0.3319 -0.7369
   97SAPC  H14Y 9623   4.575   0.325   4.783  1.3841  0.2180  3.0700
   97SAPC  C315 9624   4.481   0.414   4.948 -0.3655  0.3564  0.2016
   97SAPC  H15X 9625   4.583   0.427   4.989  0.2644 -1.4875 -0.6638
   97SAPC  H15Y 9626   4.456   0.316   4.995  2.6424  0.0477  1.3719
   97SAPC  C316 9627   4.381   0.520   4.995 -0.2131  0.2592 -0.3532
   97SAPC  H16X 9628   4.278   0.486   4.974 -0.0756 -0.1602 -0.3688
   97SAPC  H16Y 9629   4.395   0.611   4.934 -1.9771 -0.4675 -1.9044
   97SAPC  C317 9630   4.367   0.567   5.144 -0.8155 -0.1564  0.0499
   97SAPC  H17X 9631   4.340   0.473   5.197 -1.3121  0.8516  1.6618
   97SAPC  H17Y 9632   4.283   0.641   5.143 -0.9520 -0.2882 -2.3776
   97SAPC  C318 9633   4.488   0.632   5.207  0.2644  0.0638 -0.8187
   97SAPC  H18X 9634   4.566   0.554   5.210  0.5089  0.3498  1.5751
   97SAPC  H18Y 9635   4.472   0.637   5.317 -0.6199  1.6822 -0.9772
   97SAPC  H18Z 9636   4.524   0.728   5.163  0.1170  0.5841  0.1643
   98SAPC     N 9637   0.746   6.298   2.735 -0.4605 -0.3650  0.0231
   98SAPC   C12 9638   0.828   6.375   2.836 -0.0839  0.4345  0.1440
   98SAPC  H12A 9639   0.930   6.352   2.810  0.4032  1.0579  1.4259
   98SAPC  H12B 9640   0.807   6.347   2.938  1.7173 -0.4295  0.3119
   98SAPC   C13 9641   0.598   6.320   2.764 -0.3030  0.4555  0.1250
   98SAPC  H13A 9642   0.574   6.425   2.764 -2.6015  0.0202  2.1095
   98SAPC  H13B 9643   0.541   6.276   2.684  0.4107  1.3141 -0.8837
   98SAPC  H13C 9644   0.581   6.294   2.868  0.5137 -1.5960 -0.2012
   98SAPC   C14 9645   0.788   6.325   2.588 -1.3290 -0.2185 -0.3704
   98SAPC  H14A 9646   0.784   6.429   2.559 -2.3798 -0.4131 -0.9462
   98SAPC  H14B 9647   0.890   6.299   2.564 -1.5580  0.1600 -1.8262
   98SAPC  H14C 9648   0.729   6.264   2.522 -1.9261 -1.4804  1.2505
   98SAPC   C15 9649   0.774   6.155   2.751  0.5578  0.0527 -0.6213
   98SAPC  H15A 9650   0.729   6.124   2.844 -0.4466 -0.3789 -1.2333
   98SAPC  H15B 9651   0.714   6.096   2.683  1.1066 -0.4793 -0.6580
   98SAPC  H15C 9652   0.879   6.132   2.740  0.7720  0.0868  1.0637
   98SAPC   C11 9653   0.818   6.532   2.828  0.3801 -0.6398 -0.5695
   98SAPC  H11A 9654   0.873   6.574   2.916  0.2457  0.9589 -1.2106
   98SAPC  H11B 9655   0.712   6.553   2.854  0.8353 -1.2827  2.1167
   98SAPC     P 9656   1.014   6.592   2.673 -0.2679 -0.1242  0.2609
   98SAPC   O13 9657   1.086   6.466   2.711 -0.2287 -0.4857 -0.0957
   98SAPC   O14 9658   1.024   6.640   2.533  0.1682 -0.4031  0.4347
   98SAPC   O12 9659   0.859   6.583   2.705 -0.3166  0.0255  0.0218
   98SAPC   O11 9660   1.053   6.716   2.772 -0.1895 -0.0541 -0.4040
   98SAPC    C1 9661   0.992   6.844   2.734  0.0585 -0.0960 -0.8039
   98SAPC    HA 9662   1.040   6.898   2.650  0.1067  1.5163  0.2229
   98SAPC    HB 9663   0.883   6.834   2.717  0.2527 -0.3920 -1.9760
   98SAPC    C2 9664   1.010   6.947   2.856 -0.4803  0.1535  0.1442
   98SAPC    HS 9665   0.978   7.046   2.819  1.2507  0.6967  0.0284
   98SAPC   O21 9666   1.154   6.949   2.894 -0.0126  0.5172  0.4887
   98SAPC   C21 9667   1.220   7.037   2.810 -0.5003  0.6705  0.1826
   98SAPC   O22 9668   1.177   7.087   2.711 -0.0397 -0.2631  0.0287
   98SAPC   C22 9669   1.357   7.062   2.866  0.6381 -0.3434 -0.7502
   98SAPC   H2R 9670   1.387   6.992   2.947 -0.2517 -2.1629 -1.9240
   98SAPC   H2S 9671   1.432   7.050   2.785  2.9208  3.1937  0.5596
   98SAPC    C3 9672   0.922   6.900   2.973 -0.3669  0.2378 -0.6708
   98SAPC    HX 9673   0.939   6.795   3.004  3.7811  0.5050 -1.5107
   98SAPC    HY 9674   0.814   6.907   2.946 -0.0980  3.1538 -1.3237
   98SAPC   O31 9675   0.935   6.994   3.088  0.3196 -0.3167 -0.1933
   98SAPC   C31 9676   1.042   6.968   3.168 -0.3606 -0.2696  0.7568
   98SAPC   O32 9677   1.118   6.876   3.147  0.1762 -0.1030 -0.0650
   98SAPC   C32 9678   1.040   7.055   3.292  0.5443 -0.1701 -0.5007
   98SAPC   H2X 9679   0.956   7.124   3.271 -0.9354 -2.6162 -3.4539
   98SAPC   H2Y 9680   1.137   7.105   3.311 -0.4141  1.5178  0.1526
   98SAPC   C23 9681   1.361   7.210   2.925 -0.1096  0.5617 -1.1793
   98SAPC   H3R 9682   1.306   7.285   2.864  1.3257  1.7860 -1.0516
   98SAPC   H3S 9683   1.466   7.248   2.928  0.2362 -0.2407 -2.6230
   98SAPC   C24 9684   1.313   7.204   3.077 -0.3741 -0.9365  0.1823
   98SAPC   H4R 9685   1.380   7.142   3.139  0.4240  1.4353  1.8139
   98SAPC   H4S 9686   1.210   7.163   3.073  0.0090 -1.8209 -2.2306
   98SAPC   C25 9687   1.332   7.334   3.149 -0.0506  0.0676 -0.4160
   98SAPC   H5R 9688   1.369   7.417   3.086 -1.3858 -0.3056 -1.7698
   98SAPC   C26 9689   1.335   7.353   3.286 -0.2203 -0.4469 -0.0044
   98SAPC   H6R 9690   1.349   7.455   3.325  0.4936 -0.8600  0.8589
   98SAPC   C27 9691   1.321   7.253   3.403  0.3151 -0.0680 -0.0831
   98SAPC   H7R 9692   1.321   7.146   3.373 -0.8471 -0.2420  0.4918
   98SAPC   H7S 9693   1.222   7.264   3.453 -0.4783 -0.2593 -1.5681
   98SAPC   C28 9694   1.435   7.269   3.495  0.2603  0.1393  0.3466
   98SAPC   H8R 9695   1.534   7.276   3.449  0.2784 -0.7074  0.2409
   98SAPC   C29 9696   1.430   7.274   3.631  0.3322  0.2116  0.4299
   98SAPC   H9R 9697   1.532   7.288   3.670  1.7954 -1.4326 -2.4694
   98SAPC  C210 9698   1.305   7.293   3.715 -0.7928  0.5063  0.1345
   98SAPC  H10R 9699   1.336   7.226   3.798 -0.7262  0.8134  0.3617
   98SAPC  H10S 9700   1.216   7.250   3.664 -0.6078  0.5868 -0.2576
   98SAPC  C211 9701   1.286   7.440   3.743 -0.1073 -0.1082  0.5049
   98SAPC  H11R 9702   1.289   7.507   3.656  1.3387 -1.2550 -0.3792
   98SAPC  C212 9703   1.260   7.497   3.860 -0.4539 -0.4194  0.0923
   98SAPC  H12R 9704   1.248   7.607   3.860  2.2230 -0.0263 -1.6134
   98SAPC  C213 9705   1.256   7.425   3.998 -0.8650 -0.2574 -0.1426
   98SAPC  H13R 9706   1.308   7.327   3.991  3.4705  1.8772 -1.6694
   98SAPC  H13S 9707   1.155   7.406   4.042 -0.5312  0.5528  1.0303
   98SAPC  C214 9708   1.340   7.511   4.086 -0.4997  0.1755 -1.1007
   98SAPC  H14R 9709   1.421   7.572   4.044  0.7468 -0.8729 -0.2631
   98SAPC  C215 9710   1.324   7.493   4.224 -0.0399  0.1761 -0.5330
   98SAPC  H15R 9711   1.373   7.554   4.301 -3.4155  0.2297  1.7714
   98SAPC  C216 9712   1.230   7.397   4.295  0.4283 -0.8208 -0.1958
   98SAPC  H16R 9713   1.229   7.295   4.250 -0.7268 -1.6785  1.6341
   98SAPC  H16S 9714   1.129   7.443   4.300 -0.2364 -2.3425  3.3629
   98SAPC  C217 9715   1.275   7.384   4.448 -0.2054  0.2888  0.5096
   98SAPC  H17R 9716   1.386   7.379   4.456  0.2576  3.8572 -1.8374
   98SAPC  H17S 9717   1.225   7.294   4.492 -0.0442 -0.3227 -0.5312
   98SAPC  C218 9718   1.209   7.498   4.533 -0.0610  0.3139  0.1072
   98SAPC  H18R 9719   1.098   7.491   4.539 -0.0031  0.6288  2.6352
   98SAPC  H18S 9720   1.227   7.603   4.502  0.6977 -0.3609 -1.9117
   98SAPC  C219 9721   1.248   7.495   4.685 -0.4459 -0.3554 -0.0255
   98SAPC  H19R 9722   1.225   7.404   4.745 -0.8365 -0.4222 -0.2729
   98SAPC  H19S 9723   1.209   7.589   4.730 -0.0283  0.5066 -1.4110
   98SAPC  C220 9724   1.398   7.514   4.687 -0.3912 -0.8823  0.3950
   98SAPC  H20R 9725   1.428   7.596   4.618  3.2035 -1.5968  0.9569
   98SAPC  H20S 9726   1.452   7.424   4.651  1.5175 -0.4080  1.9658
   98SAPC  H20T 9727   1.427   7.524   4.794 -3.1237 -1.7728  1.3127
   98SAPC   C33 9728   1.013   6.964   3.411 -0.1036  0.3014 -0.3650
   98SAPC   H3X 9729   1.082   6.877   3.404 -0.1367  0.3294 -1.0983
   98SAPC   H3Y 9730   0.904   6.947   3.418  0.0688 -0.6562  0.0243
   98SAPC   C34 9731   1.055   7.031   3.539 -0.3144  0.0872 -0.4354
   98SAPC   H4X 9732   1.012   7.134   3.545 -0.3078  0.1008 -0.6327
   98SAPC   H4Y 9733   1.165   7.043   3.548 -0.5324  1.7068  0.4676
   98SAPC   C35 9734   0.999   6.970   3.671 -0.9454  0.3553 -0.2596
   98SAPC   H5X 9735   1.027   6.863   3.678 -0.1343  0.5746 -0.1313
   98SAPC   H5Y 9736   0.888   6.979   3.672 -1.0024  0.5797 -2.7092
   98SAPC   C36 9737   1.054   7.049   3.791 -0.2098  0.6683 -0.5479
   98SAPC   H6X 9738   1.030   7.156   3.774 -0.3570  0.4179 -2.1716
   98SAPC   H6Y 9739   1.163   7.046   3.812 -0.1406  0.0593 -0.9668
   98SAPC   C37 9740   0.977   7.011   3.922 -0.6354  0.1370  0.4272
   98SAPC   H7X 9741   1.011   6.907   3.943 -2.2733 -0.4686  0.2504
   98SAPC   H7Y 9742   0.867   6.999   3.912 -0.6650  0.1272  0.7501
   98SAPC   C38 9743   1.003   7.098   4.040 -0.0294  0.1035  0.1503
   98SAPC   H8X 9744   0.920   7.172   4.040  1.7715  2.3036  2.6573
   98SAPC   H8Y 9745   1.098   7.152   4.020 -1.4103  3.0245  0.9440
   98SAPC   C39 9746   0.991   7.029   4.171  0.1227  0.1322 -0.3356
   98SAPC   H9X 9747   1.076   6.958   4.186  2.7277  2.8983 -0.8616
   98SAPC   H9Y 9748   0.892   6.979   4.177 -0.8721  2.0882  0.6111
   98SAPC  C310 9749   0.986   7.111   4.304 -0.0182  0.6455 -0.3019
   98SAPC  H10X 9750   0.890   7.163   4.325 -0.8312 -0.8327 -0.2268
   98SAPC  H10Y 9751   1.070   7.184   4.303  0.0340  0.6145 -2.1995
   98SAPC  C311 9752   1.011   7.027   4.432 -0.4881  0.2127 -0.1300
   98SAPC  H11X 9753   1.010   7.089   4.525 -0.7107 -2.0056  1.4123
   98SAPC  H11Y 9754   1.111   6.983   4.416 -0.7159  0.1875 -1.6547
   98SAPC  C312 9755   0.911   6.909   4.444  0.6253 -0.2679  0.4072
   98SAPC  H12X 9756   0.930   6.836   4.363  1.7171 -1.7281  1.9261
   98SAPC  H12Y 9757   0.812   6.959   4.437  0.8443  0.1172  0.0588
   98SAPC  C313 9758   0.927   6.827   4.570 -0.1869  0.2380  0.3275
   98SAPC  H13X 9759   0.910   6.881   4.665  1.2141  0.1379  0.6594
   98SAPC  H13Y 9760   1.033   6.794   4.581  0.0251  0.0387 -1.8314
   98SAPC  C314 9761   0.835   6.699   4.575  0.2264 -0.5375  0.0906
   98SAPC  H14X 9762   0.863   6.627   4.495  2.8637 -0.3787  0.7925
   98SAPC  H14Y 9763   0.734   6.742   4.559  0.4671 -0.2307 -0.6842
   98SAPC  C315 9764   0.845   6.635   4.710 -0.3177 -0.3251  0.1468
   98SAPC  H15X 9765   0.845   6.713   4.788 -1.6934 -1.4215  1.2802
   98SAPC  H15Y 9766   0.939   6.576   4.718 -1.1101 -1.7240 -0.3918
   98SAPC  C316 9767   0.725   6.541   4.731  0.7034  0.1790  0.7221
   98SAPC  H16X 9768   0.714   6.463   4.652  0.2466 -2.0170  2.8147
   98SAPC  H16Y 9769   0.641   6.613   4.721  0.8199  0.3943  1.2469
   98SAPC  C317 9770   0.728   6.477   4.870 -0.2027  0.0690 -0.1591
   98SAPC  H17X 9771   0.748   6.552   4.950 -2.6630  0.4111  0.2227
   98SAPC  H17Y 9772   0.810   6.403   4.876  0.3773  0.7354  0.3830
   98SAPC  C318 9773   0.598   6.404   4.893  0.3510  0.1303 -0.0679
   98SAPC  H18X 9774   0.575   6.331   4.812  0.3554  1.2310 -1.1043
   98SAPC  H18Y 9775   0.514   6.475   4.904  0.6452  0.2978  1.1913
   98SAPC  H18Z 9776   0.607   6.357   4.993  0.1861  1.0172  0.3753
   99SAPC     N 9777   6.129   3.207   2.205  0.1136  0.8685  0.2808
   99SAPC   C12 9778   6.275   3.244   2.214  0.2259 -0.4909 -0.3781
   99SAPC  H12A 9779   6.308   3.233   2.112 -2.3532 -0.0568 -1.3329
   99SAPC  H12B 9780   6.333   3.169   2.266  0.6571  0.2105  0.1745
   99SAPC   C13 9781   6.073   3.196   2.341 -0.8176  0.3365 -0.6640
   99SAPC  H13A 9782   6.049   3.295   2.376 -0.5537  0.5552 -1.1044
   99SAPC  H13B 9783   5.978   3.143   2.342 -0.3537 -0.6259  2.2950
   99SAPC  H13C 9784   6.140   3.153   2.415 -1.2934  0.6907 -0.0125
   99SAPC   C14 9785   6.054   3.317   2.130 -0.5870  0.6704 -0.0095
   99SAPC  H14A 9786   5.952   3.294   2.101  0.2694  1.1553 -4.0009
   99SAPC  H14B 9787   6.048   3.406   2.190  0.5981  1.7789 -1.4662
   99SAPC  H14C 9788   6.102   3.352   2.040 -1.9636 -0.4825 -1.2489
   99SAPC   C15 9789   6.101   3.073   2.144  0.4171 -0.0135  0.7238
   99SAPC  H15A 9790   6.142   2.987   2.195  1.8805  0.4460  0.3867
   99SAPC  H15B 9791   5.994   3.059   2.143  0.2376  1.2762 -0.5154
   99SAPC  H15C 9792   6.126   3.066   2.039 -0.9008  0.6045  0.3535
   99SAPC   C11 9793   6.320   3.384   2.268  0.3586  0.6166 -0.7438
   99SAPC  H11A 9794   6.269   3.474   2.227 -2.1777  0.0392  0.9016
   99SAPC  H11B 9795   6.430   3.387   2.258  0.5275  0.6376  0.8352
   99SAPC     P 9796   6.246   3.500   2.495 -0.1837  0.0286  0.0794
   99SAPC   O13 9797   6.338   3.617   2.470  0.6755 -0.3161 -0.0094
   99SAPC   O14 9798   6.101   3.523   2.473  0.3029  0.7301  0.0852
   99SAPC   O12 9799   6.301   3.377   2.412 -0.2773 -0.5375  0.3686
   99SAPC   O11 9800   6.273   3.453   2.646  0.2997  0.0619  0.4636
   99SAPC    C1 9801   6.220   3.333   2.711  0.3072 -0.5583  0.3654
   99SAPC    HA 9802   6.137   3.297   2.646 -1.5362 -0.0380  2.3254
   99SAPC    HB 9803   6.300   3.256   2.715  1.3472  0.5089  0.7279
   99SAPC    C2 9804   6.160   3.368   2.854  0.2966 -0.5360  0.1368
   99SAPC    HS 9805   6.105   3.463   2.835  1.3001 -0.2996 -1.8085
   99SAPC   O21 9806   6.263   3.396   2.953  0.4243 -0.5066  0.5006
   99SAPC   C21 9807   6.214   3.454   3.068  0.1472  0.8952  1.0117
   99SAPC   O22 9808   6.119   3.527   3.077 -0.1532  0.1267  0.7845
   99SAPC   C22 9809   6.299   3.408   3.190  0.0236 -0.5085  0.1441
   99SAPC   H2R 9810   6.337   3.308   3.161 -2.3064 -1.1338 -1.0041
   99SAPC   H2S 9811   6.389   3.473   3.195  0.5010 -1.0801 -0.7096
   99SAPC    C3 9812   6.058   3.256   2.899 -1.1032 -0.0128 -0.1118
   99SAPC    HX 9813   5.990   3.222   2.819 -0.2790 -0.1328 -0.7751
   99SAPC    HY 9814   5.987   3.312   2.964  0.9584  1.4000  1.0879
   99SAPC   O31 9815   6.123   3.149   2.973  0.3269 -0.1363 -0.2874
   99SAPC   C31 9816   6.159   3.048   2.895 -0.0475  0.0962  0.1178
   99SAPC   O32 9817   6.139   3.039   2.777  0.8014  0.7395 -0.3394
   99SAPC   C32 9818   6.196   2.933   2.988  0.1281  0.0305  0.0890
   99SAPC   H2X 9819   6.274   2.960   3.062  0.5916  0.1725 -0.4425
   99SAPC   H2Y 9820   6.248   2.855   2.927  2.9715  2.2391 -0.5097
   99SAPC   C23 9821   6.206   3.401   3.312 -0.2314 -0.6494  0.9540
   99SAPC   H3R 9822   6.129   3.477   3.337  1.6003  0.3704  4.0525
   99SAPC   H3S 9823   6.274   3.410   3.400 -1.8577 -2.6568  2.5088
   99SAPC   C24 9824   6.140   3.263   3.324  0.1214  0.2260 -0.7092
   99SAPC   H4R 9825   6.081   3.253   3.230  0.6999  1.3543 -1.2160
   99SAPC   H4S 9826   6.064   3.278   3.404 -0.6222 -1.9309 -0.9529
   99SAPC   C25 9827   6.236   3.143   3.344  0.1501 -1.4743  0.5040
   99SAPC   H5R 9828   6.275   3.105   3.248  0.8552  2.3782 -0.8953
   99SAPC   C26 9829   6.268   3.069   3.454 -0.0900  0.7351 -0.4582
   99SAPC   H6R 9830   6.346   2.991   3.449  1.0460  1.5529  2.4970
   99SAPC   C27 9831   6.206   3.084   3.596  0.0820  0.0582 -0.4686
   99SAPC   H7R 9832   6.190   2.986   3.646 -0.8441  0.2614 -0.3458
   99SAPC   H7S 9833   6.102   3.119   3.580  0.0301 -0.6667 -1.8869
   99SAPC   C28 9834   6.279   3.183   3.682 -0.3117  0.2399 -0.2824
   99SAPC   H8R 9835   6.347   3.257   3.637  1.4740 -0.0919  1.7060
   99SAPC   C29 9836   6.284   3.178   3.824  0.2656 -0.7087  0.4558
   99SAPC   H9R 9837   6.336   3.263   3.870  2.6817  0.0286 -3.2101
   99SAPC  C210 9838   6.225   3.073   3.912  1.1691  0.8959  0.8201
   99SAPC  H10R 9839   6.202   2.982   3.852  2.6239  2.2409 -2.0096
   99SAPC  H10S 9840   6.128   3.106   3.955  0.0666  1.2081 -1.7273
   99SAPC  C211 9841   6.315   3.020   4.027  0.4327  0.4559 -0.1877
   99SAPC  H11R 9842   6.399   2.961   3.987 -0.1375 -0.9581  0.6067
   99SAPC  C212 9843   6.300   3.027   4.163 -0.8737  0.4034  0.3590
   99SAPC  H12R 9844   6.388   3.003   4.223  1.5587  0.8683 -2.7639
   99SAPC  C213 9845   6.188   3.106   4.225 -0.2819  0.0567  0.4697
   99SAPC  H13R 9846   6.100   3.038   4.220 -0.2994 -0.0145  1.5802
   99SAPC  H13S 9847   6.173   3.200   4.168 -0.4390  0.2455  0.8173
   99SAPC  C214 9848   6.224   3.153   4.361 -0.9168 -0.2793 -0.1883
   99SAPC  H14R 9849   6.311   3.220   4.353  1.2488 -3.1240 -3.6990
   99SAPC  C215 9850   6.165   3.115   4.477 -0.2623 -0.6321  0.2643
   99SAPC  H15R 9851   6.193   3.164   4.571 -1.1986  1.1049 -0.3214
   99SAPC  C216 9852   6.064   3.002   4.492 -0.2674  0.1608  0.1353
   99SAPC  H16R 9853   6.105   2.936   4.572  0.9453  1.0042  0.2302
   99SAPC  H16S 9854   6.060   2.945   4.397 -0.2914 -1.7822  1.2293
   99SAPC  C217 9855   5.936   3.055   4.543  0.5400  0.5551 -0.3803
   99SAPC  H17R 9856   5.881   2.963   4.573  0.5440  0.7385  0.1997
   99SAPC  H17S 9857   5.883   3.105   4.459  0.9210  1.3660 -0.1525
   99SAPC  C218 9858   5.963   3.153   4.657 -0.1403  0.5773  0.2716
   99SAPC  H18R 9859   6.001   3.250   4.619  2.6775 -1.4918 -2.7741
   99SAPC  H18S 9860   6.037   3.108   4.727  2.1222  0.2410 -2.1812
   99SAPC  C219 9861   5.828   3.189   4.727 -0.4345 -0.7206  0.6035
   99SAPC  H19R 9862   5.791   3.089   4.758  1.1406 -0.8002  2.4887
   99SAPC  H19S 9863   5.757   3.248   4.666 -2.4373 -3.6563 -0.1263
   99SAPC  C220 9864   5.849   3.271   4.861 -0.4513  0.4542  0.7408
   99SAPC  H20R 9865   5.894   3.368   4.828 -0.4562  0.3632  0.4652
   99SAPC  H20S 9866   5.921   3.223   4.931 -1.5756 -0.6299  1.1759
   99SAPC  H20T 9867   5.750   3.283   4.910 -0.5643 -1.2054  0.9460
   99SAPC   C33 9868   6.075   2.867   3.058  0.4127  0.3844  0.5680
   99SAPC   H3X 9869   6.040   2.780   2.998  1.3993 -1.9669  3.2049
   99SAPC   H3Y 9870   6.000   2.946   3.078 -0.1825 -0.2166  0.7464
   99SAPC   C34 9871   6.104   2.801   3.200 -0.2212 -0.4214 -0.1967
   99SAPC   H4X 9872   6.107   2.881   3.276 -3.2203  0.4098 -0.8112
   99SAPC   H4Y 9873   6.189   2.729   3.196  0.1699 -0.0697  1.2931
   99SAPC   C35 9874   5.982   2.713   3.236  0.2817 -0.2093  0.1362
   99SAPC   H5X 9875   5.980   2.636   3.157 -1.5051 -1.9695  1.7824
   99SAPC   H5Y 9876   5.892   2.776   3.226  0.4176 -0.2410 -1.5395
   99SAPC   C36 9877   5.979   2.648   3.369 -0.2186  1.4668 -0.3071
   99SAPC   H6X 9878   6.055   2.569   3.383 -2.0221 -0.1837  0.7128
   99SAPC   H6Y 9879   5.880   2.598   3.381  0.5594  0.0079  0.2869
   99SAPC   C37 9880   5.966   2.753   3.480 -0.2379  0.0525  0.3895
   99SAPC   H7X 9881   5.879   2.815   3.452 -2.8397 -3.0028  1.1918
   99SAPC   H7Y 9882   6.052   2.824   3.474 -0.9951  0.8878 -1.3760
   99SAPC   C38 9883   5.931   2.713   3.621 -0.1164  0.2627  0.3707
   99SAPC   H8X 9884   6.030   2.695   3.669  0.0651  2.2372  0.8176
   99SAPC   H8Y 9885   5.870   2.620   3.626  0.5342 -0.1084  1.7720
   99SAPC   C39 9886   5.872   2.830   3.698  0.8690 -0.2522 -0.0955
   99SAPC   H9X 9887   5.776   2.874   3.664  0.9311 -0.4374 -0.5181
   99SAPC   H9Y 9888   5.936   2.920   3.695 -0.4251  0.7056  0.2154
   99SAPC  C310 9889   5.865   2.794   3.850 -0.7087 -0.0300 -0.1077
   99SAPC  H10X 9890   5.970   2.784   3.886 -1.3148 -0.5444  1.6084
   99SAPC  H10Y 9891   5.821   2.693   3.867 -0.5123 -0.1732 -0.4562
   99SAPC  C311 9892   5.788   2.892   3.939 -0.0321  0.4976 -0.0350
   99SAPC  H11X 9893   5.692   2.914   3.887  0.8051  0.9482 -1.4114
   99SAPC  H11Y 9894   5.836   2.988   3.965  0.4239  0.1845  0.3011
   99SAPC  C312 9895   5.765   2.826   4.081  0.3803  0.2098  0.2082
   99SAPC  H12X 9896   5.838   2.858   4.157  0.0673 -0.6352  0.8854
   99SAPC  H12Y 9897   5.755   2.716   4.069 -2.7205  0.4459 -0.3670
   99SAPC  C313 9898   5.647   2.896   4.139 -0.2479  0.1412  0.6104
   99SAPC  H13X 9899   5.560   2.856   4.083 -0.2274 -1.2796  1.5359
   99SAPC  H13Y 9900   5.637   3.006   4.127 -3.1125 -0.1154 -0.2105
   99SAPC  C314 9901   5.628   2.863   4.289 -0.0242  0.0948 -0.2195
   99SAPC  H14X 9902   5.705   2.919   4.347  0.0505  1.3293 -1.4505
   99SAPC  H14Y 9903   5.655   2.756   4.300  1.8150  0.4131 -1.2505
   99SAPC  C315 9904   5.493   2.895   4.351  0.4612 -0.8817  0.4065
   99SAPC  H15X 9905   5.496   2.835   4.444 -0.3712 -1.1029  0.2964
   99SAPC  H15Y 9906   5.416   2.864   4.277 -1.1477  1.5851  0.9371
   99SAPC  C316 9907   5.478   3.049   4.391  0.5273  0.0592 -0.0743
   99SAPC  H16X 9908   5.443   3.101   4.300  0.9444  1.2752  0.4313
   99SAPC  H16Y 9909   5.575   3.084   4.432  1.6216 -2.3028 -0.4887
   99SAPC  C317 9910   5.361   3.078   4.489 -0.0516 -0.5503 -0.3048
   99SAPC  H17X 9911   5.389   3.098   4.595 -2.7997 -0.3102  0.4610
   99SAPC  H17Y 9912   5.310   2.981   4.506 -1.1724  0.2148  1.0520
   99SAPC  C318 9913   5.260   3.182   4.452  0.2419  0.2251 -0.3520
   99SAPC  H18X 9914   5.317   3.277   4.439 -0.3049  0.4972 -0.7703
   99SAPC  H18Y 9915   5.179   3.189   4.527 -0.2683  0.3840 -0.9149
   99SAPC  H18Z 9916   5.220   3.170   4.349  0.7977  1.0201 -0.6689
  100SAPC     N 9917   1.675   5.577   3.003  0.4239  0.1159 -0.2476
  100SAPC   C12 9918   1.619   5.460   3.086  0.3485  0.0573  0.3152
  100SAPC  H12A 9919   1.519   5.433   3.053  1.2481 -3.1518 -0.0882
  100SAPC  H12B 9920   1.606   5.493   3.188 -0.7098 -1.6238  0.7683
  100SAPC   C13 9921   1.586   5.704   3.019 -0.3588 -0.3775 -0.0889
  100SAPC  H13A 9922   1.483   5.678   2.999 -0.1909 -1.5968  0.5077
  100SAPC  H13B 9923   1.594   5.749   3.117  1.6894 -0.7055 -0.0661
  100SAPC  H13C 9924   1.610   5.773   2.940 -1.6258 -1.2079 -1.2502
  100SAPC   C14 9925   1.809   5.612   3.044  0.0472  0.0406  0.4546
  100SAPC  H14A 9926   1.857   5.516   3.043  1.9920  0.9314  1.2389
  100SAPC  H14B 9927   1.850   5.686   2.977  0.6476  1.0490  1.8690
  100SAPC  H14C 9928   1.812   5.655   3.144 -1.2913 -1.3589  1.1411
  100SAPC   C15 9929   1.686   5.545   2.856  0.9249  0.3808 -0.0514
  100SAPC  H15A 9930   1.592   5.530   2.804  0.3966  1.1670  0.6358
  100SAPC  H15B 9931   1.744   5.620   2.805  0.2275  0.9619 -0.0135
  100SAPC  H15C 9932   1.734   5.449   2.854 -1.6108 -1.0715  2.1024
  100SAPC   C11 9933   1.688   5.321   3.082 -0.2159 -0.4111 -0.1082
  100SAPC  H11A 9934   1.635   5.265   3.162 -0.4472 -0.0960 -0.0424
  100SAPC  H11B 9935   1.792   5.348   3.112 -0.6026  1.9199 -0.6607
  100SAPC     P 9936   1.566   5.158   2.913 -0.2009  0.1685  0.0664
  100SAPC   O13 9937   1.492   5.185   2.794 -0.5618 -0.5885  0.3697
  100SAPC   O14 9938   1.625   5.022   2.907  0.5229 -0.7102  0.4418
  100SAPC   O12 9939   1.675   5.269   2.946  0.1012  0.1536  0.1749
  100SAPC   O11 9940   1.466   5.167   3.032  0.5555 -0.2844 -0.0945
  100SAPC    C1 9941   1.401   5.041   3.078 -0.4030  0.0659 -0.6030
  100SAPC    HA 9942   1.295   5.060   3.106 -0.4235 -0.9008  0.0192
  100SAPC    HB 9943   1.407   4.961   3.001  3.1453 -1.2091  0.7661
  100SAPC    C2 9944   1.470   4.991   3.211  0.0791 -1.0808 -0.6924
  100SAPC    HS 9945   1.463   5.074   3.284  2.3448 -2.4863  1.2549
  100SAPC   O21 9946   1.608   4.969   3.180  0.5992  0.2388  0.0148
  100SAPC   C21 9947   1.699   4.987   3.272 -0.8462  0.6505  0.8618
  100SAPC   O22 9948   1.677   5.019   3.386  0.6964 -0.7010  0.6554
  100SAPC   C22 9949   1.843   4.966   3.217  0.7077 -0.1285  0.1805
  100SAPC   H2R 9950   1.856   5.037   3.133 -3.4184  1.6556  0.7905
  100SAPC   H2S 9951   1.908   5.004   3.299 -1.2141 -0.5079  1.9878
  100SAPC    C3 9952   1.404   4.864   3.268  0.0797 -0.1704 -0.4350
  100SAPC    HX 9953   1.431   4.777   3.205 -0.6060 -0.0292 -0.9283
  100SAPC    HY 9954   1.294   4.878   3.262  0.4808  4.0231 -1.6794
  100SAPC   O31 9955   1.436   4.842   3.408 -0.3460 -0.2545  0.3275
  100SAPC   C31 9956   1.395   4.933   3.494 -0.1497 -0.2982 -0.5077
  100SAPC   O32 9957   1.316   5.023   3.469 -0.4194  0.1065 -0.0205
  100SAPC   C32 9958   1.463   4.908   3.627 -0.3071  0.1638 -0.2448
  100SAPC   H2X 9959   1.452   5.005   3.682  4.4026  0.9522 -0.2435
  100SAPC   H2Y 9960   1.570   4.886   3.606  0.4691  2.8840  0.4244
  100SAPC   C23 9961   1.882   4.821   3.191  0.3609 -0.4602 -0.2583
  100SAPC   H3R 9962   1.982   4.829   3.143  1.3220  0.7261  1.7763
  100SAPC   H3S 9963   1.810   4.771   3.123 -0.2269  1.7728 -1.3668
  100SAPC   C24 9964   1.889   4.734   3.320  0.3342 -0.7157  0.4660
  100SAPC   H4R 9965   1.888   4.627   3.288  1.2853 -0.3736 -0.8043
  100SAPC   H4S 9966   1.795   4.754   3.376  0.6190 -0.5247  0.8774
  100SAPC   C25 9967   2.019   4.756   3.389  0.2564 -0.0716 -0.7184
  100SAPC   H5R 9968   2.104   4.800   3.335 -0.5232  0.4933 -1.5040
  100SAPC   C26 9969   2.044   4.747   3.520  0.4788 -0.3146 -0.7049
  100SAPC   H6R 9970   2.145   4.779   3.551  1.0194 -1.7336 -0.8890
  100SAPC   C27 9971   1.952   4.702   3.627  0.4055 -0.1756  0.5910
  100SAPC   H7R 9972   2.008   4.666   3.716  0.6355  1.5697  1.1836
  100SAPC   H7S 9973   1.896   4.614   3.589  0.7334  0.1255 -0.6315
  100SAPC   C28 9974   1.863   4.809   3.672 -0.3823 -0.1293  0.4250
  100SAPC   H8R 9975   1.794   4.848   3.595  1.0223  1.4140 -0.1067
  100SAPC   C29 9976   1.881   4.883   3.787  1.4065 -0.2177  0.2725
  100SAPC   H9R 9977   1.804   4.962   3.798  2.4767  0.6780  1.7588
  100SAPC  C210 9978   1.974   4.867   3.902  0.3318 -0.0391  0.2106
  100SAPC  H10R 9979   2.073   4.910   3.875  0.6582 -1.9324 -1.9689
  100SAPC  H10S 9980   1.988   4.757   3.904 -1.5772 -0.2933  1.7093
  100SAPC  C211 9981   1.907   4.919   4.029 -0.8027 -0.6974 -1.5766
  100SAPC  H11R 9982   1.851   5.012   4.017 -0.8276  0.2423  3.5362
  100SAPC  C212 9983   1.901   4.865   4.153  0.1466  0.0802 -0.6452
  100SAPC  H12R 9984   1.863   4.925   4.238  1.3210 -0.1930  0.0984
  100SAPC  C213 9985   1.984   4.744   4.192 -0.1625  0.2553 -0.2182
  100SAPC  H13R 9986   2.083   4.778   4.228  0.0629  0.9889 -1.5058
  100SAPC  H13S 9987   2.007   4.671   4.112  0.9541  1.1567 -0.7395
  100SAPC  C214 9988   1.921   4.683   4.315  0.6155  0.1606  0.2582
  100SAPC  H14R 9989   1.850   4.605   4.283  1.0862 -0.0991 -0.1695
  100SAPC  C215 9990   1.954   4.720   4.442 -0.6453  0.0528 -0.4617
  100SAPC  H15R 9991   1.901   4.684   4.531  0.8087 -1.6668 -0.2189
  100SAPC  C216 9992   2.053   4.824   4.491 -0.2783 -0.3506  0.1539
  100SAPC  H16R 9993   2.008   4.903   4.555  1.9224  0.7581  0.4285
  100SAPC  H16S 9994   2.106   4.866   4.402 -0.0145 -1.1119 -0.0532
  100SAPC  C217 9995   2.158   4.754   4.586 -0.2179  0.1727  0.1432
  100SAPC  H17R 9996   2.221   4.838   4.622 -2.7864  0.8736  3.5287
  100SAPC  H17S 9997   2.211   4.681   4.521 -2.8597 -0.8369 -1.0199
  100SAPC  C218 9998   2.106   4.693   4.714  0.1732 -0.4989 -0.7280
  100SAPC  H18R 9999   2.021   4.623   4.700 -0.2609 -0.4512  1.4054
  100SAPC  H18S10000   2.066   4.773   4.780  0.9011 -0.7196 -0.0058
  100SAPC  C21910001   2.217   4.637   4.808  0.0535 -0.3301  0.0773
  100SAPC  H19R10002   2.289   4.715   4.843 -0.3444 -0.9100  2.3791
  100SAPC  H19S10003   2.273   4.562   4.749  2.0891 -1.4198  3.1405
  100SAPC  C22010004   2.150   4.577   4.934 -0.0556 -0.0121  0.0802
  100SAPC  H20R10005   2.229   4.543   5.005  3.1031  1.0597 -2.6408
  100SAPC  H20S10006   2.087   4.495   4.894 -0.6353  0.4550  0.0312
  100SAPC  H20T10007   2.082   4.654   4.976 -0.3949 -0.9510  1.2860
  100SAPC   C3310008   1.397   4.788   3.707 -0.0180 -0.1151  0.2647
  100SAPC   H3X10009   1.410   4.697   3.645 -0.6837 -0.2462  0.3115
  100SAPC   H3Y10010   1.288   4.809   3.711 -0.0612 -0.2161 -0.2598
  100SAPC   C3410011   1.449   4.766   3.848  0.3459  0.1088  0.0464
  100SAPC   H4X10012   1.553   4.727   3.842  0.3672 -0.0295  1.1700
  100SAPC   H4Y10013   1.377   4.696   3.895 -1.1180  0.9266 -0.8897
  100SAPC   C3510014   1.452   4.895   3.937  0.6257  0.1284  0.2440
  100SAPC   H5X10015   1.348   4.934   3.942 -1.4040 -4.3091 -2.1274
  100SAPC   H5Y10016   1.530   4.959   3.890  3.3929  0.6121  4.8958
  100SAPC   C3610017   1.514   4.862   4.077 -0.1306 -0.3134  0.7321
  100SAPC   H6X10018   1.540   4.966   4.106  0.2788 -0.0317 -0.6086
  100SAPC   H6Y10019   1.613   4.811   4.071  0.2900  0.5406  0.2451
  100SAPC   C3710020   1.413   4.812   4.178  0.4889 -0.3931 -0.0473
  100SAPC   H7X10021   1.369   4.716   4.145  1.0391 -0.1781 -1.4915
  100SAPC   H7Y10022   1.335   4.890   4.189 -0.4481 -1.4756  1.3132
  100SAPC   C3810023   1.461   4.784   4.327 -0.0049  0.2673  0.4087
  100SAPC   H8X10024   1.510   4.684   4.323  0.2644  0.4385 -1.6346
  100SAPC   H8Y10025   1.360   4.772   4.373 -0.8088  0.7203 -1.1671
  100SAPC   C3910026   1.548   4.883   4.397 -0.1477  0.7922  0.7312
  100SAPC   H9X10027   1.503   4.984   4.395  0.0050  0.8714  1.3511
  100SAPC   H9Y10028   1.647   4.885   4.346 -1.0422 -0.5311 -1.1904
  100SAPC  C31010029   1.562   4.862   4.541 -0.0098 -0.1601 -0.4290
  100SAPC  H10X10030   1.616   4.767   4.562 -0.0786  0.3554  2.4721
  100SAPC  H10Y10031   1.460   4.849   4.581 -0.0836  0.6047 -0.3460
  100SAPC  C31110032   1.638   4.975   4.605 -1.0592  0.7762  0.2593
  100SAPC  H11X10033   1.578   5.068   4.598 -3.3204 -0.5541  0.9188
  100SAPC  H11Y10034   1.738   4.986   4.558 -0.9627  1.2097  0.5558
  100SAPC  C31210035   1.649   4.947   4.754 -0.3687 -0.1125  0.0324
  100SAPC  H12X10036   1.549   4.924   4.796  0.6984 -3.0824  1.1787
  100SAPC  H12Y10037   1.681   5.029   4.823 -0.3920 -1.3390  1.5455
  100SAPC  C31310038   1.742   4.835   4.795 -0.1052 -0.3679  0.1367
  100SAPC  H13X10039   1.849   4.856   4.775 -0.1976  0.4976  0.5208
  100SAPC  H13Y10040   1.729   4.749   4.725  2.7647 -0.1931 -0.7365
  100SAPC  C31410041   1.712   4.782   4.937  0.6549 -0.4294  0.6628
  100SAPC  H14X10042   1.748   4.677   4.934  0.7934 -0.3694  0.0770
  100SAPC  H14Y10043   1.602   4.772   4.953  0.6744 -0.5038  0.7506
  100SAPC  C31510044   1.775   4.858   5.060  0.4350  0.3773  0.1257
  100SAPC  H15X10045   1.736   4.962   5.067  1.4784  0.7434  0.7531
  100SAPC  H15Y10046   1.883   4.857   5.033  1.1813  1.5807  2.6631
  100SAPC  C31610047   1.740   4.792   5.199 -0.5794  0.0068 -0.4880
  100SAPC  H16X10048   1.644   4.828   5.242 -0.7789  0.2389 -1.1215
  100SAPC  H16Y10049   1.815   4.833   5.271 -0.4958 -1.3549  0.2298
  100SAPC  C31710050   1.754   4.637   5.191 -0.3467  0.1494  0.6230
  100SAPC  H17X10051   1.854   4.624   5.144 -0.0503  2.3762  0.5042
  100SAPC  H17Y10052   1.670   4.589   5.137 -0.5140  2.6480 -1.5473
  100SAPC  C31810053   1.759   4.568   5.327  0.9676  0.7313 -0.6952
  100SAPC  H18X10054   1.827   4.623   5.396 -0.7063  1.2998  0.5619
  100SAPC  H18Y10055   1.774   4.458   5.324 -1.2157  0.3876 -0.4790
  100SAPC  H18Z10056   1.661   4.575   5.378  1.3882 -1.0592  0.4889
  101OSM      N10057   5.436   1.157   7.337  0.2794 -0.2218 -1.0874
  101OSM    C1510058   5.483   1.287   7.395 -0.3518  0.2517 -0.4940
  101OSM   H15A10059   5.432   1.303   7.489  0.6893  0.5119  0.0396
  101OSM   H15B10060   5.461   1.370   7.330 -0.5213  0.4933 -0.1331
  101OSM   H15C10061   5.588   1.281   7.416 -0.8478 -0.8377  2.0017
  101OSM    C1410062   5.461   1.050   7.444 -0.1195 -0.0893  0.3406
  101OSM   H14A10063   5.565   1.022   7.447 -0.4065 -1.0392  2.1549
  101OSM   H14B10064   5.400   0.969   7.407 -0.7090  1.2289 -1.8429
  101OSM   H14C10065   5.427   1.081   7.541 -0.6278 -0.9727  0.4563
  101OSM    C1310066   5.291   1.181   7.321 -0.7803  0.2515 -0.0320
  101OSM   H13A10067   5.233   1.097   7.285 -3.0617  0.9141  1.8936
  101OSM   H13B10068   5.287   1.251   7.239  1.6210 -0.8714 -1.2247
  101OSM   H13C10069   5.250   1.215   7.415 -1.8050 -2.9822  0.8318
  101OSM    C1210070   5.502   1.123   7.204 -0.2447 -0.0240 -0.2706
  101OSM   H12A10071   5.516   1.204   7.134  0.2239  0.0218 -0.1285
  101OSM   H12B10072   5.443   1.052   7.148 -1.0874  0.5784 -0.1598
  101OSM    C1110073   5.645   1.058   7.213  0.1053  1.2078  0.2957
  101OSM   H11A10074   5.686   1.037   7.112  0.3234  0.1331  0.5993
  101OSM   H11B10075   5.643   0.955   7.255 -3.5988 -0.0374 -2.4139
  101OSM      P10076   5.802   1.259   7.203 -0.2569  0.1115  0.2025
  101OSM    O1310077   5.694   1.342   7.142  0.7519  0.2789 -0.4230
  101OSM    O1410078   5.909   1.336   7.278 -0.2828  0.0955  0.1484
  101OSM    O1110079   5.874   1.179   7.084  0.3466 -0.7229  0.4111
  101OSM    O1210080   5.744   1.135   7.284  0.4962  0.0232  0.1614
  101OSM    C1S10081   6.013   1.189   7.059 -0.2352 -0.5952 -0.2959
  101OSM    H1S10082   6.064   1.108   7.116 -0.9432 -0.6391  0.3005
  101OSM    H1T10083   6.058   1.286   7.088  1.5161 -1.7260  0.9859
  101OSM     NF10084   6.199   1.195   6.897 -0.8450  0.3307  0.0289
  101OSM    HNF10085   6.234   1.272   6.844 -1.3762  1.1048  0.7801
  101OSM    C2S10086   6.054   1.192   6.905 -0.2151 -0.0691  0.2383
  101OSM    H2S10087   6.029   1.089   6.871 -0.1224 -0.4499  1.2737
  101OSM    C3S10088   5.976   1.303   6.829 -0.0232  0.1338 -0.2757
  101OSM    H3S10089   6.016   1.398   6.868  1.1184 -0.9588  1.3421
  101OSM     O310090   5.837   1.312   6.857  0.1968  0.0654 -0.2488
  101OSM    HO310091   5.832   1.248   6.928  1.0315 -2.5234 -2.3694
  101OSM    C4S10092   6.002   1.285   6.680 -0.5767 -0.1477 -0.2360
  101OSM    H4S10093   6.091   1.337   6.643  0.6287 -0.4899  2.0069
  101OSM    C5S10094   5.938   1.214   6.588 -0.4000  0.0562 -0.3902
  101OSM    H5S10095   5.848   1.168   6.631 -0.7194  0.4742 -0.6199
  101OSM    C6S10096   5.953   1.206   6.439  0.7579  0.6158  0.2512
  101OSM    H6S10097   5.903   1.292   6.389  0.0087  0.1205  0.1340
  101OSM    H6T10098   5.896   1.118   6.404  1.5381  0.4051 -0.5169
  101OSM    C7S10099   6.103   1.206   6.401  0.4401 -0.3920  0.6513
  101OSM    H7S10100   6.144   1.111   6.443 -1.1698 -1.5613 -0.2844
  101OSM    H7T10101   6.156   1.295   6.440 -1.1999  1.5190 -1.2471
  101OSM    C8S10102   6.124   1.193   6.246  0.4171 -0.0726 -0.0303
  101OSM    H8S10103   6.083   1.094   6.220 -1.9411  0.8271  0.0636
  101OSM    H8T10104   6.234   1.189   6.228  0.3641 -0.0997 -0.3428
  101OSM    C9S10105   6.055   1.296   6.158  1.3236  0.4916  0.1261
  101OSM    H9S10106   6.086   1.395   6.197 -1.2269  0.3692  2.7780
  101OSM    H9T10107   5.945   1.288   6.155  1.3949 -0.2323 -0.9439
  101OSM   C10S10108   6.090   1.277   6.015  0.4363 -0.9152 -0.0586
  101OSM   H10S10109   6.195   1.241   6.018  0.6663 -0.3899 -1.1686
  101OSM   H10T10110   6.076   1.371   5.957 -1.6510  1.4489  3.8849
  101OSM   C11S10111   6.018   1.153   5.956  0.2671 -0.3542  0.2593
  101OSM   H11S10112   5.920   1.197   5.930  1.2726  3.0644  1.7505
  101OSM   H11T10113   6.013   1.074   6.033  0.8170 -0.8040 -0.1526
  101OSM   C12S10114   6.088   1.100   5.833 -0.5389  0.5660  0.4600
  101OSM   H12S10115   6.023   1.015   5.802  0.2464 -0.1830  0.8309
  101OSM   H12T10116   6.183   1.051   5.861 -1.1756 -0.9721  0.0175
  101OSM   C13S10117   6.122   1.192   5.721  0.2706 -0.2888  0.7073
  101OSM   H13S10118   6.187   1.271   5.764  0.5941 -0.9909  1.5547
  101OSM   H13T10119   6.030   1.237   5.680  0.6771  0.0811  0.1924
  101OSM   C14S10120   6.203   1.109   5.623 -0.0654 -0.0148 -0.2890
  101OSM   H14S10121   6.273   1.044   5.679  1.1744  1.1765 -0.3902
  101OSM   H14T10122   6.275   1.183   5.581 -1.5590  0.8365 -1.4386
  101OSM   C15S10123   6.134   1.039   5.515  0.7887  0.1250 -0.0819
  101OSM   H15S10124   6.076   1.109   5.451  1.4088 -1.3890 -2.4111
  101OSM   H15T10125   6.063   0.963   5.550 -0.7058  1.5994  0.2093
  101OSM   C16S10126   6.233   0.985   5.413 -0.9936  0.1241  0.2773
  101OSM   H16S10127   6.279   0.896   5.460  0.0081  0.7564  0.5229
  101OSM   H16T10128   6.312   1.057   5.383 -0.0651 -0.4403  1.2884
  101OSM   C17S10129   6.163   0.940   5.286 -0.3149  0.1564 -0.4980
  101OSM   H17S10130   6.250   0.932   5.217 -1.2559 -0.6192 -1.6365
  101OSM   H17T10131   6.105   1.024   5.243  0.0317 -0.0777 -1.4449
  101OSM   C18S10132   6.086   0.812   5.295  0.3234 -0.1041 -0.2788
  101OSM   H18S10133   5.988   0.829   5.344  1.1686  2.5239  0.6923
  101OSM   H18T10134   6.127   0.727   5.352 -0.0163 -1.5093 -2.0505
  101OSM   H18U10135   6.043   0.785   5.196  1.5650  0.1402 -0.9095
  101OSM    C1F10136   6.291   1.096   6.932 -0.3101  0.1615  0.3630
  101OSM     OF10137   6.251   0.986   6.958  0.0284  0.5362 -0.5829
  101OSM    C2F10138   6.431   1.136   6.937 -0.6268 -0.8537  0.2812
  101OSM    H2F10139   6.463   1.122   7.043 -2.0230 -0.1065  0.8261
  101OSM    H2G10140   6.449   1.245   6.926  1.0101 -0.9947  1.1446
  101OSM    C3F10141   6.522   1.055   6.842 -0.0271  0.6491 -0.6285
  101OSM    H3F10142   6.515   0.944   6.843  0.9844  0.5629 -1.3871
  101OSM    H3G10143   6.629   1.084   6.853  0.5548 -1.4313 -0.3353
  101OSM    C4F10144   6.495   1.085   6.691 -0.0039  1.0849 -0.1388
  101OSM    H4F10145   6.480   1.191   6.659  1.0716  0.3804 -3.3862
  101OSM    H4G10146   6.404   1.031   6.659 -0.6228  1.2280  1.3251
  101OSM    C5F10147   6.602   1.031   6.590  0.1124 -0.5575 -0.5206
  101OSM    H5F10148   6.592   0.921   6.598 -0.1953 -0.6467 -1.9446
  101OSM    H5G10149   6.699   1.075   6.619 -1.2763  1.7366  0.9725
  101OSM    C6F10150   6.571   1.073   6.442 -0.1432  0.1229 -0.1450
  101OSM    H6F10151   6.580   1.181   6.419 -1.0726 -0.0624 -1.4510
  101OSM    H6G10152   6.468   1.041   6.417 -0.5165  0.0640  1.3815
  101OSM    C7F10153   6.685   1.007   6.361  0.7273 -0.3117  0.0335
  101OSM    H7F10154   6.703   0.901   6.385 -1.6328 -0.7890 -0.0105
  101OSM    H7G10155   6.776   1.071   6.367 -0.8194  1.9540  0.9553
  101OSM    C8F10156   6.661   1.004   6.211 -0.7123 -0.0957  0.3063
  101OSM    H8F10157   6.608   1.097   6.185 -0.7057 -0.3464 -0.6360
  101OSM    H8G10158   6.596   0.915   6.200 -1.4783  0.6622 -1.6669
  101OSM    C9F10159   6.785   0.980   6.126  0.6962 -0.0197 -1.2166
  101OSM    H9F10160   6.828   0.884   6.158 -0.7687  0.2853  2.1369
  101OSM   C10F10161   6.820   1.027   6.006  0.2433  0.9656 -0.0906
  101OSM   H10F10162   6.918   1.001   5.964  0.4667 -1.4674  1.7363
  101OSM   C11F10163   6.748   1.139   5.938 -0.5799  0.4191 -1.0112
  101OSM   H11F10164   6.785   1.240   5.967 -0.3270 -0.0665  0.3921
  101OSM   H11G10165   6.644   1.147   5.977  0.3969  0.8323  1.7349
  101OSM   C12F10166   6.743   1.144   5.785  0.0454 -0.3536  0.3079
  101OSM   H12F10167   6.846   1.146   5.743 -0.1706  1.1350 -0.1877
  101OSM   H12G10168   6.696   1.242   5.763  3.6633  2.2169  2.8056
  101OSM   C13F10169   6.664   1.024   5.725 -0.7658 -0.4018  0.4354
  101OSM   H13F10170   6.564   1.020   5.772 -0.1756 -0.6713  1.7206
  101OSM   H13G10171   6.729   0.937   5.751  0.4761  0.3558 -0.0385
  101OSM   C14F10172   6.654   1.039   5.570  0.0179 -0.2051 -0.7107
  101OSM   H14F10173   6.750   1.079   5.531 -0.1803  1.5368  0.4546
  101OSM   H14G10174   6.577   1.117   5.558  0.4011  0.1735 -0.7200
  101OSM   C15F10175   6.599   0.918   5.487 -0.1521  0.1987 -0.4009
  101OSM   H15F10176   6.593   0.960   5.384 -3.6207  1.1026  0.0374
  101OSM   H15G10177   6.497   0.878   5.507 -0.5690  0.6797 -1.4572
  101OSM   C16F10178   6.706   0.805   5.489  0.4310 -0.2938  0.4738
  101OSM   H16F10179   6.730   0.774   5.593  0.7779 -0.4503  0.3498
  101OSM   H16G10180   6.790   0.855   5.436 -0.1782  0.3823  0.1368
  101OSM   C17F10181   6.653   0.684   5.409 -0.3018  0.7315 -0.9016
  101OSM   H17F10182   6.739   0.614   5.405  2.0891  3.3454  0.8018
  101OSM   H17G10183   6.634   0.719   5.306 -0.5674  1.4797 -0.6099
  101OSM   C18F10184   6.527   0.621   5.481 -0.6218  0.5256  0.3323
  101OSM   H18F10185   6.445   0.690   5.508 -1.0792 -0.1454  0.6782
  101OSM   H18G10186   6.562   0.589   5.582  0.3194  0.8884  0.1310
  101OSM   H18H10187   6.482   0.525   5.448  2.0777 -1.7424  2.7118
  102OSM      N10188   6.098   1.344   7.657 -0.8882 -0.1703 -0.6208
  102OSM    C1510189   6.064   1.437   7.547  0.2730 -0.3329  0.2740
  102OSM   H15A10190   6.108   1.409   7.452  0.7315 -2.0698  0.9616
  102OSM   H15B10191   6.107   1.535   7.560  1.4379 -0.7274 -0.4017
  102OSM   H15C10192   5.958   1.429   7.529  0.4096 -0.0715 -0.7090
  102OSM    C1410193   6.245   1.354   7.693  0.1470  0.5963 -0.1979
  102OSM   H14A10194   6.311   1.322   7.614 -0.0414  0.0672 -0.1423
  102OSM   H14B10195   6.264   1.284   7.772 -0.3475 -0.0726 -0.6603
  102OSM   H14C10196   6.270   1.453   7.729 -1.3192  0.3566  1.6473
  102OSM    C1310197   6.021   1.388   7.779  0.4127 -0.5809  0.3752
  102OSM   H13A10198   6.026   1.494   7.796  3.2662 -0.9661  2.7965
  102OSM   H13B10199   6.055   1.345   7.872 -0.2877  1.6283  1.7261
  102OSM   H13C10200   5.919   1.360   7.757  1.3469 -1.8932 -2.9190
  102OSM    C1210201   6.067   1.208   7.636 -0.2784 -0.2603  0.7707
  102OSM   H12A10202   5.960   1.205   7.616  0.0715  0.5714 -1.5749
  102OSM   H12B10203   6.087   1.147   7.723  0.3768  0.1203  0.8850
  102OSM    C1110204   6.140   1.141   7.513 -0.2725 -0.7808 -0.1896
  102OSM   H11A10205   6.126   1.200   7.420 -1.0923  1.0129  1.0098
  102OSM   H11B10206   6.076   1.052   7.499 -0.0679 -0.8076 -1.0487
  102OSM      P10207   6.337   0.966   7.576 -0.0388 -0.1627  0.2491
  102OSM    O1310208   6.485   0.968   7.552 -0.4704  0.1083  0.1994
  102OSM    O1410209   6.292   0.942   7.713 -0.3942 -0.3387 -0.8412
  102OSM    O1110210   6.275   0.853   7.482  0.5662  0.5156 -0.0927
  102OSM    O1210211   6.280   1.104   7.522 -0.1968  0.4336 -0.2861
  102OSM    C1S10212   6.314   0.852   7.347 -0.8752 -0.3682  0.3461
  102OSM    H1S10213   6.420   0.818   7.340 -0.9993 -0.5916 -0.5933
  102OSM    H1T10214   6.321   0.954   7.304  0.7292 -0.6715 -0.1765
  102OSM     NF10215   6.267   0.741   7.126  0.2600 -0.0791  0.4291
  102OSM    HNF10216   6.233   0.808   7.060 -0.2791 -1.0150 -0.2552
  102OSM    C2S10217   6.222   0.761   7.261  0.2554 -0.1861 -0.8296
  102OSM    H2S10218   6.225   0.661   7.311  0.4250 -0.7315 -1.8953
  102OSM    C3S10219   6.083   0.823   7.274  0.5626  0.0993  0.1719
  102OSM    H3S10220   6.097   0.933   7.267  1.0194  0.1543  1.6672
  102OSM     O310221   6.029   0.813   7.405  0.1639  0.2412  0.5159
  102OSM    HO310222   6.111   0.804   7.455  0.9219  0.3026 -0.6935
  102OSM    C4S10223   5.978   0.767   7.182 -0.1424  0.3906 -0.4539
  102OSM    H4S10224   5.953   0.665   7.216 -0.2551 -0.4264 -2.7967
  102OSM    C5S10225   5.897   0.825   7.097 -0.0532 -0.1933 -0.0183
  102OSM    H5S10226   5.916   0.928   7.064  0.3163 -0.8752 -2.0633
  102OSM    C6S10227   5.795   0.752   7.009 -0.5220  0.1547 -0.3484
  102OSM    H6S10228   5.689   0.781   7.025 -1.7582 -2.5326 -2.6892
  102OSM    H6T10229   5.790   0.641   7.013 -2.7439  0.2286 -0.0395
  102OSM    C7S10230   5.826   0.788   6.861  0.7348 -0.1495 -0.0823
  102OSM    H7S10231   5.850   0.896   6.845  1.9731  0.0756  2.7255
  102OSM    H7T10232   5.743   0.759   6.793  1.6662  0.6396 -1.6295
  102OSM    C8S10233   5.942   0.709   6.807 -0.1531 -0.1299 -0.4819
  102OSM    H8S10234   5.917   0.600   6.808  1.0913 -0.4251 -0.2716
  102OSM    H8T10235   6.029   0.728   6.874  0.2361 -1.4860 -0.5645
  102OSM    C9S10236   5.965   0.751   6.670  0.3397  0.0270  0.7457
  102OSM    H9S10237   5.977   0.861   6.665 -1.6406  0.2621  0.3345
  102OSM    H9T10238   5.879   0.724   6.605  0.7903 -1.2954  0.6462
  102OSM   C10S10239   6.093   0.685   6.609  0.8648 -0.0705 -0.8239
  102OSM   H10S10240   6.093   0.574   6.606 -0.3127 -0.1840  1.3331
  102OSM   H10T10241   6.177   0.711   6.678 -0.9868  1.4563  0.9754
  102OSM   C11S10242   6.130   0.751   6.477  0.2954  0.1116 -0.0663
  102OSM   H11S10243   6.166   0.853   6.502 -0.6517  0.1142  1.4813
  102OSM   H11T10244   6.035   0.763   6.422  0.5760  1.9201 -0.1988
  102OSM   C12S10245   6.230   0.671   6.388 -0.0341 -0.6930  1.0226
  102OSM   H12S10246   6.196   0.566   6.384  0.0448 -0.6811 -2.2771
  102OSM   H12T10247   6.328   0.684   6.438  1.4003 -1.8914 -1.3039
  102OSM   C13S10248   6.231   0.708   6.237 -0.8570 -0.0460 -0.2607
  102OSM   H13S10249   6.127   0.719   6.200 -1.4036  0.1327  1.2820
  102OSM   H13T10250   6.280   0.623   6.183  3.2700  3.1371 -2.1204
  102OSM   C14S10251   6.308   0.839   6.221 -0.2498  0.0508  0.6350
  102OSM   H14S10252   6.400   0.819   6.279  0.1533 -2.6582 -0.7711
  102OSM   H14T10253   6.241   0.917   6.262 -3.0878 -0.9514 -1.6420
  102OSM   C15S10254   6.326   0.884   6.071  0.1953 -0.7284 -0.2039
  102OSM   H15S10255   6.389   0.975   6.081 -2.1331  0.8596  0.9930
  102OSM   H15T10256   6.230   0.911   6.022  0.3860 -0.0705 -0.2254
  102OSM   C16S10257   6.407   0.782   5.979  0.0784 -0.0733 -0.2581
  102OSM   H16S10258   6.368   0.678   5.991 -0.6858  0.2976  0.5207
  102OSM   H16T10259   6.512   0.780   6.016  0.1497  0.7207 -0.4025
  102OSM   C17S10260   6.407   0.830   5.838  0.7306 -0.4440 -0.2838
  102OSM   H17S10261   6.504   0.793   5.798  1.9426  1.6983  0.5306
  102OSM   H17T10262   6.398   0.941   5.842 -0.2886 -0.5449  0.3439
  102OSM   C18S10263   6.285   0.784   5.758  0.1079  0.4322  0.0519
  102OSM   H18S10264   6.302   0.677   5.732 -1.0344  0.1684  0.3419
  102OSM   H18T10265   6.275   0.838   5.662 -2.7235 -3.2457 -1.9805
  102OSM   H18U10266   6.195   0.790   5.823 -0.9496  0.2102 -1.3499
  102OSM    C1F10267   6.363   0.667   7.088  0.4783  0.5658 -0.3310
  102OSM     OF10268   6.407   0.584   7.168 -0.6366 -0.1732  0.3983
  102OSM    C2F10269   6.425   0.699   6.953 -0.2108 -0.2884  0.0365
  102OSM    H2F10270   6.479   0.796   6.962 -1.4747  0.7754 -2.5630
  102OSM    H2G10271   6.342   0.716   6.881 -0.6934  1.8106  1.0088
  102OSM    C3F10272   6.508   0.578   6.900  0.1118  0.1516 -0.2439
  102OSM    H3F10273   6.464   0.481   6.930  0.8267 -0.2824 -0.5852
  102OSM    H3G10274   6.607   0.567   6.947 -0.1008 -2.5397 -0.2956
  102OSM    C4F10275   6.515   0.587   6.747 -0.0223  0.0736 -1.1038
  102OSM    H4F10276   6.556   0.681   6.704  1.7137 -0.0545  0.1718
  102OSM    H4G10277   6.423   0.561   6.691 -0.5290  0.2505 -0.3591
  102OSM    C5F10278   6.608   0.475   6.706  0.3857 -0.0112  0.6666
  102OSM    H5F10279   6.574   0.383   6.758 -1.2490  0.4270  0.4375
  102OSM    H5G10280   6.710   0.502   6.742  0.5644  1.3945 -0.7710
  102OSM    C6F10281   6.596   0.450   6.552 -0.4063 -0.4482 -0.1679
  102OSM    H6F10282   6.492   0.433   6.517 -0.2532 -1.8669 -0.0209
  102OSM    H6G10283   6.651   0.357   6.524 -0.5485  0.1356 -2.5814
  102OSM    C7F10284   6.658   0.563   6.468 -0.0722 -0.1586  0.2356
  102OSM    H7F10285   6.769   0.564   6.480 -0.1509 -1.9328  1.6000
  102OSM    H7G10286   6.648   0.666   6.509 -1.7595 -0.3553  0.4015
  102OSM    C8F10287   6.613   0.557   6.319  0.1008 -0.2693 -0.1469
  102OSM    H8F10288   6.644   0.652   6.269  1.7269 -1.7438 -2.0862
  102OSM    H8G10289   6.502   0.555   6.315  0.1577 -0.9542 -2.3515
  102OSM    C9F10290   6.690   0.451   6.251  0.0168  0.1294  0.3106
  102OSM    H9F10291   6.795   0.444   6.284 -0.2128 -0.2635  0.9896
  102OSM   C10F10292   6.652   0.385   6.136  0.3657  0.3349 -0.5110
  102OSM   H10F10293   6.716   0.301   6.104 -1.2026 -0.6690 -1.1372
  102OSM   C11F10294   6.520   0.391   6.060  0.2243 -0.0961  0.2177
  102OSM   H11F10295   6.445   0.464   6.096 -0.0918 -0.6068  0.6157
  102OSM   H11G10296   6.460   0.300   6.081 -2.6137  2.0412  2.2039
  102OSM   C12F10297   6.533   0.404   5.909  0.0890 -0.1431 -0.1222
  102OSM   H12F10298   6.591   0.496   5.886 -1.0153  0.2982 -1.2620
  102OSM   H12G10299   6.434   0.405   5.858 -0.6601  0.1831  1.2977
  102OSM   C13F10300   6.613   0.290   5.841 -0.3438 -0.5808  0.3526
  102OSM   H13F10301   6.554   0.196   5.832  1.6250 -1.9661  1.3446
  102OSM   H13G10302   6.706   0.269   5.897  0.5312 -0.1300 -0.8828
  102OSM   C14F10303   6.645   0.334   5.691  0.9247  0.5537  0.3734
  102OSM   H14F10304   6.724   0.412   5.691  1.4541  0.0267  0.1888
  102OSM   H14G10305   6.553   0.380   5.648 -0.9382 -2.4788  0.8756
  102OSM   C15F10306   6.689   0.214   5.606  0.0605 -0.6885  0.3521
  102OSM   H15F10307   6.615   0.131   5.597 -0.9892  0.2065  0.4759
  102OSM   H15G10308   6.772   0.169   5.664 -0.8176 -0.2726  2.0052
  102OSM   C16F10309   6.750   0.248   5.473  0.2495  0.1488 -0.3484
  102OSM   H16F10310   6.860   0.236   5.477  0.3472  1.3283  1.9692
  102OSM   H16G10311   6.730   0.356   5.458 -0.5251  0.4177  2.1286
  102OSM   C17F10312   6.685   0.178   5.351  0.3676  0.4017  0.7367
  102OSM   H17F10313   6.579   0.209   5.337  0.3365  0.0812  0.2393
  102OSM   H17G10314   6.686   0.070   5.375  0.2300  0.3572  0.5399
  102OSM   C18F10315   6.766   0.198   5.227  0.0284  0.4265 -0.0087
  102OSM   H18F10316   6.868   0.156   5.243  0.7013  1.9992  0.1043
  102OSM   H18G10317   6.776   0.308   5.215 -0.2177  0.4261 -0.2218
  102OSM   H18H10318   6.728   0.168   5.128  0.2023  2.4537 -0.7487
  103OSM      N10319   5.077   1.852   6.940 -0.7391 -0.2805  0.4411
  103OSM    C1510320   5.088   1.792   7.072  0.5624 -0.2966 -0.6119
  103OSM   H15A10321   5.193   1.788   7.097  0.3281 -1.2586  0.2937
  103OSM   H15B10322   5.056   1.689   7.060  2.9553 -0.7771 -4.2571
  103OSM   H15C10323   5.032   1.839   7.151 -0.6114 -0.5645 -1.2641
  103OSM    C1410324   4.928   1.851   6.909  0.1949 -0.5253  0.1765
  103OSM   H14A10325   4.881   1.904   6.991  0.6187 -3.0828  2.1876
  103OSM   H14B10326   4.887   1.753   6.895  0.3170 -0.3094 -2.1071
  103OSM   H14C10327   4.902   1.896   6.814 -2.8401 -0.9892  0.6748
  103OSM    C1310328   5.127   1.992   6.936 -0.2318  0.4836 -0.6186
  103OSM   H13A10329   5.099   2.041   6.844 -0.2261 -1.9229 -1.9888
  103OSM   H13B10330   5.234   1.992   6.949 -0.2977  0.4721 -0.0330
  103OSM   H13C10331   5.076   2.043   7.017 -0.2859 -3.1296  1.8518
  103OSM    C1210332   5.157   1.760   6.848  0.8910  0.6502  0.0093
  103OSM   H12A10333   5.261   1.766   6.879  1.5846 -2.4462 -1.3142
  103OSM   H12B10334   5.143   1.795   6.747 -2.7191 -2.9449 -0.9810
  103OSM    C1110335   5.120   1.612   6.830 -0.5040  0.0227 -0.1735
  103OSM   H11A10336   5.195   1.570   6.760  0.5082  0.3538  0.6715
  103OSM   H11B10337   5.019   1.617   6.783 -1.1552  2.0157  1.2942
  103OSM      P10338   5.226   1.431   6.996 -0.3132 -0.0866 -0.3570
  103OSM    O1310339   5.349   1.495   7.051  0.1686  0.0095 -0.1929
  103OSM    O1410340   5.149   1.328   7.073 -0.2469 -0.4171 -0.5364
  103OSM    O1110341   5.272   1.354   6.864  0.3849  0.0816 -0.2382
  103OSM    O1210342   5.122   1.536   6.948 -0.0700 -0.1303  0.0322
  103OSM    C1S10343   5.186   1.295   6.773  0.8766  0.5737 -0.7471
  103OSM    H1S10344   5.120   1.370   6.725  0.9846  1.7464  0.8683
  103OSM    H1T10345   5.114   1.232   6.830  1.7600 -0.3782 -0.6492
  103OSM     NF10346   5.164   1.186   6.555 -0.0788 -0.2316 -1.0835
  103OSM    HNF10347   5.117   1.098   6.553 -1.1688  0.3408 -1.0892
  103OSM    C2S10348   5.254   1.212   6.665 -0.9697 -0.7907 -0.8444
  103OSM    H2S10349   5.327   1.286   6.627 -0.2964 -1.0095  0.0069
  103OSM    C3S10350   5.324   1.089   6.739  0.4904  0.3163 -0.1733
  103OSM    H3S10351   5.235   1.029   6.770 -0.2069  0.7735 -1.2430
  103OSM     O310352   5.384   1.105   6.868  0.2818  0.3770  0.8498
  103OSM    HO310353   5.367   1.196   6.891 -0.5124  0.2701  0.7075
  103OSM    C4S10354   5.400   1.007   6.648  0.7155 -0.3669 -0.6333
  103OSM    H4S10355   5.349   0.916   6.615  0.9870 -1.2335  1.2276
  103OSM    C5S10356   5.532   1.021   6.628 -0.1926 -0.0342 -0.3509
  103OSM    H5S10357   5.588   1.106   6.670 -0.9861  0.5975 -0.5298
  103OSM    C6S10358   5.599   0.925   6.532  0.0299 -0.1633  0.3598
  103OSM    H6S10359   5.532   0.837   6.517 -0.9871  0.6743 -0.1399
  103OSM    H6T10360   5.695   0.889   6.576  0.6101  1.2217  0.2671
  103OSM    C7S10361   5.637   0.981   6.395  0.0632 -0.5351 -0.1011
  103OSM    H7S10362   5.705   1.068   6.401  0.5826 -1.0527  2.2435
  103OSM    H7T10363   5.543   1.011   6.343  0.7361 -1.9259 -2.2876
  103OSM    C8S10364   5.696   0.863   6.304  0.4231  0.1911 -0.2565
  103OSM    H8S10365   5.627   0.777   6.289 -1.3840  1.3627  0.8143
  103OSM    H8T10366   5.789   0.834   6.358 -1.3154 -1.0819  2.2879
  103OSM    C9S10367   5.725   0.918   6.165  0.3576  0.5450 -0.0453
  103OSM    H9S10368   5.811   0.988   6.165  1.3137 -0.5973 -0.3912
  103OSM    H9T10369   5.627   0.963   6.138  0.0410  1.6112  2.6414
  103OSM   C10S10370   5.771   0.806   6.071 -0.8973  0.2801 -0.3588
  103OSM   H10S10371   5.697   0.725   6.085  0.4002 -0.8997 -0.1548
  103OSM   H10T10372   5.868   0.770   6.109 -0.3635  2.2919  0.2999
  103OSM   C11S10373   5.794   0.847   5.927 -0.3135 -0.0017  0.4304
  103OSM   H11S10374   5.891   0.900   5.913 -0.7462  1.1376  1.6400
  103OSM   H11T10375   5.718   0.923   5.901  1.4265  2.2551  1.5729
  103OSM   C12S10376   5.794   0.720   5.832  0.2094 -0.1991 -0.9874
  103OSM   H12S10377   5.714   0.654   5.874 -0.9704  0.6690 -1.8022
  103OSM   H12T10378   5.892   0.672   5.854  0.1580 -0.5751 -1.5630
  103OSM   C13S10379   5.769   0.754   5.686 -0.8064 -0.7600 -0.3919
  103OSM   H13S10380   5.855   0.816   5.653 -0.4320 -0.7157  0.6376
  103OSM   H13T10381   5.686   0.826   5.665 -2.0202 -2.0850 -0.3294
  103OSM   C14S10382   5.749   0.629   5.592 -0.5294  1.1608 -0.3955
  103OSM   H14S10383   5.639   0.616   5.588 -0.3380 -1.1748  0.4413
  103OSM   H14T10384   5.805   0.541   5.632  2.2839  1.9251 -2.3057
  103OSM   C15S10385   5.802   0.653   5.449 -0.0507 -0.0294  0.2435
  103OSM   H15S10386   5.911   0.633   5.435 -0.4455 -1.6838 -0.7378
  103OSM   H15T10387   5.778   0.756   5.414 -0.4566  0.7642  2.7177
  103OSM   C16S10388   5.747   0.560   5.343 -0.5029  0.1213 -0.1641
  103OSM   H16S10389   5.639   0.547   5.364 -0.4379  1.1131  0.9355
  103OSM   H16T10390   5.807   0.467   5.342 -0.0320  0.3829  1.1341
  103OSM   C17S10391   5.766   0.615   5.203 -0.1972  0.0999 -0.0685
  103OSM   H17S10392   5.873   0.627   5.176 -0.0331  1.7762  1.2088
  103OSM   H17T10393   5.734   0.721   5.199  2.4523  0.9355 -0.9900
  103OSM   C18S10394   5.700   0.524   5.096 -0.0538  0.1849  0.1097
  103OSM   H18S10395   5.733   0.548   4.993 -1.9405  2.5101 -0.0244
  103OSM   H18T10396   5.592   0.547   5.099  0.0160  0.4464  2.3246
  103OSM   H18U10397   5.707   0.418   5.130  1.9524  0.0884 -0.4517
  103OSM    C1F10398   5.122   1.266   6.457  0.5862 -0.0331  0.3903
  103OSM     OF10399   5.141   1.388   6.453  0.0016  0.3551 -0.2505
  103OSM    C2F10400   5.030   1.205   6.352  0.2703  0.4910  0.1491
  103OSM    H2F10401   4.935   1.183   6.405  1.1517  2.9477  2.9921
  103OSM    H2G10402   5.080   1.112   6.316  1.9724  1.6154 -0.5197
  103OSM    C3F10403   5.009   1.308   6.232 -0.3016 -0.0826 -0.6417
  103OSM    H3F10404   5.111   1.332   6.198  0.3494  1.3915  2.0141
  103OSM    H3G10405   4.960   1.404   6.260  2.2405  1.2031 -0.3826
  103OSM    C4F10406   4.929   1.246   6.110  0.2635 -0.1729 -0.1901
  103OSM    H4F10407   4.839   1.309   6.095  1.8350  2.4596  0.6977
  103OSM    H4G10408   4.912   1.144   6.150  1.3433 -0.4213 -0.3328
  103OSM    C5F10409   5.005   1.221   5.983  0.1010  0.4074  0.2953
  103OSM    H5F10410   5.107   1.179   5.995  0.4287  0.5221 -1.6761
  103OSM    H5G10411   5.019   1.314   5.924  0.5773 -1.2384 -2.3705
  103OSM    C6F10412   4.951   1.114   5.880  0.2102  0.2987  0.0219
  103OSM    H6F10413   4.843   1.131   5.860  0.0737 -0.9117 -0.3515
  103OSM    H6G10414   4.955   1.013   5.925 -0.7608  0.3087  0.1339
  103OSM    C7F10415   5.045   1.108   5.755 -0.1170 -0.4408 -0.5000
  103OSM    H7F10416   5.015   1.027   5.686 -0.2384 -0.3518 -0.5521
  103OSM    H7G10417   5.146   1.076   5.788 -0.6343 -0.8181  0.7846
  103OSM    C8F10418   5.044   1.233   5.677  0.1887 -0.0452  0.6886
  103OSM    H8F10419   5.134   1.231   5.613  0.4838  0.6873  1.0673
  103OSM    H8G10420   5.058   1.328   5.732  2.3066 -0.7075  1.3869
  103OSM    C9F10421   4.927   1.243   5.583  0.2095  0.3044 -0.6009
  103OSM    H9F10422   4.837   1.275   5.639  2.2464  4.1911  0.8801
  103OSM   C10F10423   4.922   1.216   5.449 -0.0931  0.8460 -0.2125
  103OSM   H10F10424   4.826   1.218   5.395 -0.5822  0.4424  0.6106
  103OSM   C11F10425   5.034   1.171   5.371 -1.0084  0.4236 -0.1902
  103OSM   H11F10426   5.013   1.106   5.284 -1.0220 -0.7370  0.6565
  103OSM   H11G10427   5.105   1.109   5.429 -0.4572 -0.3392 -1.6409
  103OSM   C12F10428   5.115   1.301   5.319 -0.1478  0.0211  0.1934
  103OSM   H12F10429   5.148   1.367   5.402 -3.1473  2.8166 -0.6173
  103OSM   H12G10430   5.048   1.366   5.258 -0.3381  0.1491  0.5369
  103OSM   C13F10431   5.242   1.258   5.243 -0.2524 -0.3983 -0.0328
  103OSM   H13F10432   5.239   1.181   5.164  1.0859  0.7567 -1.2606
  103OSM   H13G10433   5.315   1.226   5.320  0.4909 -0.4379 -0.7428
  103OSM   C14F10434   5.298   1.380   5.170 -0.1535  0.5685  0.3705
  103OSM   H14F10435   5.328   1.454   5.247  0.1619  1.2629 -0.4124
  103OSM   H14G10436   5.219   1.415   5.100 -0.0792 -0.8831 -0.4875
  103OSM   C15F10437   5.417   1.346   5.074 -0.2776 -0.2031 -0.0351
  103OSM   H15F10438   5.385   1.266   5.004  2.8432  0.4670 -2.4163
  103OSM   H15G10439   5.488   1.286   5.133 -1.8528 -3.7917 -1.5005
  103OSM   C16F10440   5.469   1.472   5.009 -0.5764  0.0145  0.4372
  103OSM   H16F10441   5.539   1.531   5.072 -1.8082 -0.2616  2.1043
  103OSM   H16G10442   5.384   1.537   4.977 -1.3290 -1.4949 -0.7563
  103OSM   C17F10443   5.558   1.422   4.894 -0.0284 -0.1670  0.5260
  103OSM   H17F10444   5.497   1.354   4.829  0.4084 -1.0062  0.9716
  103OSM   H17G10445   5.643   1.366   4.938 -0.2604  0.1032  1.3173
  103OSM   C18F10446   5.633   1.531   4.807  0.0819  0.4698 -0.0954
  103OSM   H18F10447   5.702   1.484   4.733 -1.0736  1.4389 -1.8518
  103OSM   H18G10448   5.684   1.597   4.880  0.7773 -1.3764  1.1652
  103OSM   H18H10449   5.561   1.594   4.751  0.1264 -0.9724 -1.8897
  104OSM      N10450   6.144   3.158   7.062  0.3863 -0.4006 -0.0095
  104OSM    C1510451   6.261   3.247   7.080 -0.3598 -0.8180 -0.0727
  104OSM   H15A10452   6.296   3.287   6.985  0.3465 -1.2515 -0.0037
  104OSM   H15B10453   6.342   3.190   7.123 -0.1714  0.1890  0.9472
  104OSM   H15C10454   6.254   3.324   7.156  2.6354  0.1592 -0.6138
  104OSM    C1410455   6.018   3.244   7.050 -0.2099 -1.2118 -0.2499
  104OSM   H14A10456   6.016   3.309   7.137  2.6519 -3.1778  1.4258
  104OSM   H14B10457   5.932   3.178   7.051 -2.4610  1.4991 -0.6388
  104OSM   H14C10458   6.015   3.310   6.964 -0.1366 -1.7084 -0.6333
  104OSM    C1310459   6.151   3.077   6.936  0.0895  0.5222  0.4128
  104OSM   H13A10460   6.247   3.028   6.933 -0.0401  0.2800 -2.0067
  104OSM   H13B10461   6.145   3.143   6.850  0.2253  0.0425  0.0322
  104OSM   H13C10462   6.076   3.002   6.920  0.6589 -0.1599  0.9049
  104OSM    C1210463   6.134   3.064   7.176 -0.0180 -0.6724  0.3571
  104OSM   H12A10464   6.042   3.008   7.168 -0.0285 -0.6620  0.4014
  104OSM   H12B10465   6.119   3.112   7.272  1.7623 -0.0584  0.3759
  104OSM    C1110466   6.250   2.972   7.201  0.1616 -0.1269  0.1949
  104OSM   H11A10467   6.260   2.898   7.119  1.9301 -1.4467  1.5082
  104OSM   H11B10468   6.228   2.908   7.289 -0.8382 -1.6931 -1.1501
  104OSM      P10469   6.490   2.956   7.302  0.8174 -0.3723  0.0705
  104OSM    O1310470   6.580   3.038   7.384  0.3559  0.2430  0.2697
  104OSM    O1410471   6.432   2.835   7.368  0.1922  0.4092  0.1546
  104OSM    O1110472   6.567   2.910   7.168 -0.3945  0.3067  0.1734
  104OSM    O1210473   6.372   3.041   7.233  0.4678  0.0955 -0.5501
  104OSM    C1S10474   6.594   3.009   7.067  0.0779  0.1055 -0.2704
  104OSM    H1S10475   6.676   3.074   7.104 -0.5209 -0.9868  3.3552
  104OSM    H1T10476   6.497   3.057   7.041 -0.7978 -2.3346 -1.8961
  104OSM     NF10477   6.674   3.043   6.837  0.3000 -0.4149  0.2123
  104OSM    HNF10478   6.606   3.071   6.770  0.3479  0.6069  0.5756
  104OSM    C2S10479   6.638   2.941   6.940  0.3648  0.4084  0.0690
  104OSM    H2S10480   6.726   2.877   6.959 -0.1382 -0.0322  0.9526
  104OSM    C3S10481   6.530   2.835   6.895  0.2302  0.5275 -0.5814
  104OSM    H3S10482   6.441   2.888   6.856  1.4686  1.2699 -2.5432
  104OSM     O310483   6.473   2.750   6.996  0.1572  0.0067  0.6639
  104OSM    HO310484   6.521   2.776   7.075  3.3471  1.0931 -1.4211
  104OSM    C4S10485   6.579   2.756   6.774  0.5062  0.3110  0.4860
  104OSM    H4S10486   6.573   2.808   6.678  2.7616  0.3039  0.3070
  104OSM    C5S10487   6.638   2.638   6.774  0.1385  0.4398 -0.2458
  104OSM    H5S10488   6.639   2.588   6.872 -2.1739  1.6311  0.4409
  104OSM    C6S10489   6.665   2.552   6.652 -0.3446 -0.1748 -0.3407
  104OSM    H6S10490   6.568   2.506   6.625 -2.1451  2.4161  1.1689
  104OSM    H6T10491   6.745   2.477   6.668 -0.3544 -0.3230 -0.9858
  104OSM    C7S10492   6.715   2.633   6.522  0.2611  1.0171 -0.2375
  104OSM    H7S10493   6.810   2.684   6.548 -0.2680  1.6745  0.4268
  104OSM    H7T10494   6.636   2.709   6.503 -1.3170 -0.6883 -0.8474
  104OSM    C8S10495   6.734   2.539   6.399 -0.0769  0.0668 -0.0643
  104OSM    H8S10496   6.640   2.499   6.355 -0.7026 -1.5932  2.5638
  104OSM    H8T10497   6.791   2.446   6.421 -0.5735 -0.4524 -0.9430
  104OSM    C9S10498   6.809   2.609   6.282  0.2278 -0.0598 -0.8321
  104OSM    H9S10499   6.917   2.614   6.305  0.1624 -0.9937 -0.2743
  104OSM    H9T10500   6.759   2.709   6.282  1.7852  0.7524 -0.0680
  104OSM   C10S10501   6.786   2.551   6.144 -0.4845 -0.3222 -0.3268
  104OSM   H10S10502   6.675   2.554   6.141 -0.4854  1.4402  0.0684
  104OSM   H10T10503   6.840   2.455   6.147  0.3437  0.0742 -1.7710
  104OSM   C11S10504   6.842   2.637   6.027  0.0674 -0.0993  0.7714
  104OSM   H11S10505   6.951   2.654   6.034  0.1064  0.9478 -1.4281
  104OSM   H11T10506   6.792   2.736   6.025  1.6614  0.8815  3.8382
  104OSM   C12S10507   6.810   2.566   5.891  0.1464  0.2708 -0.4729
  104OSM   H12S10508   6.700   2.555   5.881  0.2641 -1.1777 -0.3526
  104OSM   H12T10509   6.869   2.473   5.880  1.6784  1.1383  0.0660
  104OSM   C13S10510   6.861   2.651   5.774 -0.1978 -0.0002  0.0587
  104OSM   H13S10511   6.972   2.662   5.769 -0.2512  0.3199 -3.4100
  104OSM   H13T10512   6.830   2.757   5.783  0.5443  0.2602 -0.3024
  104OSM   C14S10513   6.804   2.602   5.635  0.0562  0.4105 -0.1127
  104OSM   H14S10514   6.695   2.590   5.651  0.0587  1.4553  0.8482
  104OSM   H14T10515   6.849   2.502   5.618 -2.2712 -0.2500 -3.5667
  104OSM   C15S10516   6.833   2.699   5.523  0.0990  0.1820  0.6291
  104OSM   H15S10517   6.940   2.730   5.519  1.0765 -2.9166  0.2771
  104OSM   H15T10518   6.781   2.797   5.535 -0.3597  0.0552 -0.2380
  104OSM   C16S10519   6.784   2.659   5.384 -0.6292 -0.3304 -0.7526
  104OSM   H16S10520   6.674   2.674   5.386 -0.7008 -0.8833  0.1525
  104OSM   H16T10521   6.807   2.551   5.367  0.3727  0.0705 -2.1437
  104OSM   C17S10522   6.843   2.745   5.267 -0.0838  0.8931  0.2892
  104OSM   H17S10523   6.793   2.719   5.172  1.7685  0.4546 -0.6070
  104OSM   H17T10524   6.950   2.718   5.260  0.1490  1.3508  1.7122
  104OSM   C18S10525   6.842   2.898   5.299 -0.3010  0.1527  0.6484
  104OSM   H18S10526   6.753   2.914   5.363 -0.1221 -2.5988  1.6924
  104OSM   H18T10527   6.848   2.959   5.206  0.4803  0.6897  1.0516
  104OSM   H18U10528   6.936   2.911   5.356  1.2504 -2.2786 -1.1208
  104OSM    C1F10529   6.779   3.118   6.842 -0.1263 -1.0112  0.2626
  104OSM     OF10530   6.861   3.111   6.928  0.2800 -0.4310  0.5788
  104OSM    C2F10531   6.779   3.227   6.740  0.4734  0.1216 -0.0219
  104OSM    H2F10532   6.678   3.265   6.714  0.5770  1.3721  1.2300
  104OSM    H2G10533   6.847   3.206   6.655 -1.9020 -0.0870 -1.9363
  104OSM    C3F10534   6.856   3.343   6.804  0.3330 -0.3124 -0.2954
  104OSM    H3F10535   6.940   3.312   6.870 -3.3513 -2.4596  3.9788
  104OSM    H3G10536   6.781   3.392   6.870  1.2461  1.0371 -0.2043
  104OSM    C4F10537   6.905   3.455   6.711  0.4790 -0.5673 -0.2647
  104OSM    H4F10538   6.936   3.545   6.770 -0.8749 -1.5420  2.0544
  104OSM    H4G10539   6.819   3.473   6.643  0.3964  0.3635  0.0703
  104OSM    C5F10540   7.031   3.412   6.627  0.5406  1.1609 -0.0588
  104OSM    H5F10541   6.990   3.322   6.576 -0.8633  2.3987 -1.2242
  104OSM    H5G10542   7.116   3.384   6.693  0.4627 -0.8090 -0.7319
  104OSM    C6F10543   7.082   3.504   6.525 -0.0894  1.0159  0.2443
  104OSM    H6F10544   7.004   3.540   6.455 -0.4873 -0.3097 -0.0110
  104OSM    H6G10545   7.159   3.456   6.460  1.4624  1.8634  1.3788
  104OSM    C7F10546   7.147   3.633   6.581  0.0920  0.5960 -0.1641
  104OSM    H7F10547   7.253   3.610   6.607  0.3232  0.4384 -1.2239
  104OSM    H7G10548   7.086   3.662   6.669 -1.7050 -0.3247 -1.0466
  104OSM    C8F10549   7.165   3.747   6.483 -0.1448  0.5813  0.0768
  104OSM    H8F10550   7.194   3.835   6.544 -0.8155  1.3609 -0.6953
  104OSM    H8G10551   7.070   3.787   6.442  0.3779 -0.6726 -2.6564
  104OSM    C9F10552   7.262   3.727   6.373 -0.2295  0.0900 -0.1156
  104OSM    H9F10553   7.345   3.658   6.398  0.6462  0.9641 -0.5173
  104OSM   C10F10554   7.253   3.779   6.252 -0.1892  0.7315 -0.1965
  104OSM   H10F10555   7.329   3.755   6.176 -0.3145  0.0812 -0.1224
  104OSM   C11F10556   7.143   3.864   6.196 -0.0433 -0.3917 -0.5638
  104OSM   H11F10557   7.046   3.847   6.249  1.0174  0.3824  1.7250
  104OSM   H11G10558   7.117   3.823   6.096 -2.3272  1.2320 -0.7085
  104OSM   C12F10559   7.169   4.015   6.180  0.2480  0.5173 -0.1303
  104OSM   H12F10560   7.171   4.056   6.283  1.6868 -1.5181  0.7266
  104OSM   H12G10561   7.081   4.072   6.146  0.3607  0.5033 -0.4466
  104OSM   C13F10562   7.290   4.058   6.099  0.3499  0.4745 -0.0034
  104OSM   H13F10563   7.373   3.987   6.119 -0.9600 -1.3428 -0.6423
  104OSM   H13G10564   7.308   4.161   6.134 -0.5757  1.0158 -1.0428
  104OSM   C14F10565   7.261   4.067   5.950 -0.4799  0.6961 -0.1294
  104OSM   H14F10566   7.170   4.124   5.922  1.5886  2.4470 -4.0305
  104OSM   H14G10567   7.253   3.961   5.919 -0.0065  0.0825  1.7224
  104OSM   C15F10568   7.379   4.129   5.872  0.5936  0.0965 -0.1032
  104OSM   H15F10569   7.462   4.058   5.890  0.0901  0.0884  2.6405
  104OSM   H15G10570   7.398   4.227   5.920 -0.3685  0.4200 -0.3501
  104OSM   C16F10571   7.342   4.165   5.724 -0.5052  0.3466 -0.5486
  104OSM   H16F10572   7.257   4.237   5.725  0.4563  1.6153 -2.9993
  104OSM   H16G10573   7.313   4.072   5.672  2.8803  0.2192 -2.4908
  104OSM   C17F10574   7.462   4.220   5.650  0.0330 -0.5093  0.6044
  104OSM   H17F10575   7.538   4.141   5.632 -1.6776 -2.3233  0.9863
  104OSM   H17G10576   7.506   4.306   5.705  0.0298  1.0738 -1.6812
  104OSM   C18F10577   7.422   4.278   5.505 -0.3921  0.4954 -0.0192
  104OSM   H18F10578   7.481   4.369   5.482  0.8724  0.0018  1.1360
  104OSM   H18G10579   7.316   4.307   5.491  0.0375  1.2568 -1.8702
  104OSM   H18H10580   7.443   4.202   5.427  3.0344  1.1033  0.1452
  105OSM      N10581   0.190   3.345   7.125 -0.6082 -0.3130  0.3066
  105OSM    C1510582   0.043   3.348   7.124 -0.9846 -1.3100 -0.3321
  105OSM   H15A10583  -0.006   3.325   7.031 -1.2690 -0.6679 -0.3447
  105OSM   H15B10584   0.017   3.449   7.152  1.9006 -0.9062  1.2895
  105OSM   H15C10585  -0.002   3.279   7.195 -0.3062 -1.8742 -0.4424
  105OSM    C1410586   0.237   3.381   7.265  0.1112 -0.2589  0.8514
  105OSM   H14A10587   0.172   3.322   7.329  0.0858 -0.6897  0.4316
  105OSM   H14B10588   0.214   3.486   7.254  2.7080  0.2237 -0.5853
  105OSM   H14C10589   0.341   3.363   7.286  0.0472  0.0675  1.4827
  105OSM    C1310590   0.227   3.202   7.100  0.6151 -0.2882  0.2817
  105OSM   H13A10591   0.199   3.138   7.183 -1.2423  1.2857  0.9553
  105OSM   H13B10592   0.334   3.192   7.098  0.9873  2.2331  2.1919
  105OSM   H13C10593   0.186   3.162   7.008 -0.7662 -1.2757  1.2774
  105OSM    C1210594   0.257   3.434   7.019  0.2423 -0.5868 -0.7839
  105OSM   H12A10595   0.220   3.402   6.922  0.4790 -0.1209 -1.0328
  105OSM   H12B10596   0.364   3.416   7.018  0.2860 -0.4717 -2.7129
  105OSM    C1110597   0.233   3.587   7.034 -0.0460  0.4971 -0.0979
  105OSM   H11A10598   0.125   3.589   7.057  0.0245 -1.3396  0.5464
  105OSM   H11B10599   0.249   3.641   6.938 -0.6279  0.6931 -0.0883
  105OSM      P10600   0.349   3.784   7.170  0.2817  0.3137 -0.1755
  105OSM    O1310601   0.228   3.864   7.159 -0.3156 -0.5425  0.1016
  105OSM    O1410602   0.423   3.795   7.300 -0.1614 -0.4806 -0.0842
  105OSM    O1110603   0.452   3.818   7.052  0.9148 -0.3038 -0.3127
  105OSM    O1210604   0.312   3.637   7.147  0.2295 -0.3742 -0.3629
  105OSM    C1S10605   0.562   3.729   7.033 -0.1329  0.2127  0.0120
  105OSM    H1S10606   0.536   3.623   7.050  1.3388 -0.3094 -0.8517
  105OSM    H1T10607   0.649   3.762   7.093  0.0576  1.8471 -1.0965
  105OSM     NF10608   0.684   3.621   6.845  0.3546 -0.0713 -0.3982
  105OSM    HNF10609   0.779   3.640   6.825  0.9956 -1.2204  1.3572
  105OSM    C2S10610   0.604   3.734   6.881  0.4193  0.0797 -0.5760
  105OSM    H2S10611   0.512   3.726   6.820 -1.7352  1.9248  2.1592
  105OSM    C3S10612   0.675   3.867   6.856 -0.1790 -0.1493 -0.7566
  105OSM    H3S10613   0.771   3.863   6.913 -1.0611 -1.5482  0.7128
  105OSM     O310614   0.612   3.984   6.911  0.0813  0.1222  0.4490
  105OSM    HO310615   0.530   3.956   6.954 -0.4131 -2.0428 -1.7002
  105OSM    C4S10616   0.695   3.880   6.704  0.0769 -0.6964 -0.2174
  105OSM    H4S10617   0.798   3.860   6.672 -0.1738 -0.5577 -1.1438
  105OSM    C5S10618   0.605   3.924   6.613  0.9478 -0.2170 -0.2806
  105OSM    H5S10619   0.506   3.948   6.656  0.3274 -0.9529 -1.2713
  105OSM    C6S10620   0.628   3.934   6.467  1.0183 -0.5831 -0.1225
  105OSM    H6S10621   0.535   3.971   6.419  0.8384  0.3752  0.9262
  105OSM    H6T10622   0.651   3.830   6.435  0.9439 -1.0960  1.3711
  105OSM    C7S10623   0.736   4.036   6.435  0.3313  0.5387 -0.1904
  105OSM    H7S10624   0.840   4.006   6.462  0.0543 -1.3237 -1.1024
  105OSM    H7T10625   0.716   4.110   6.515 -2.9518 -0.6903  0.2484
  105OSM    C8S10626   0.732   4.100   6.294 -0.7967 -0.5627  0.3664
  105OSM    H8S10627   0.634   4.151   6.282 -0.9172 -0.7436  0.5681
  105OSM    H8T10628   0.748   4.016   6.224 -2.1524 -0.0613 -0.5794
  105OSM    C9S10629   0.846   4.196   6.258 -0.3735 -0.8930  0.2557
  105OSM    H9S10630   0.942   4.140   6.269  0.4873  0.7312  1.2954
  105OSM    H9T10631   0.857   4.291   6.314 -2.2101  0.0042 -0.8050
  105OSM   C10S10632   0.834   4.232   6.106 -0.1494  0.6814 -0.1890
  105OSM   H10S10633   0.749   4.303   6.101  0.6929  1.8261  0.9785
  105OSM   H10T10634   0.786   4.145   6.057  0.5452 -0.6837  1.4284
  105OSM   C11S10635   0.953   4.291   6.039 -0.2403 -0.0514  0.8551
  105OSM   H11S10636   1.034   4.218   6.020 -0.3112  0.1066 -0.0988
  105OSM   H11T10637   1.004   4.367   6.101 -0.0151  0.9453 -0.5029
  105OSM   C12S10638   0.929   4.329   5.899  0.0211 -0.3732 -0.1256
  105OSM   H12S10639   0.856   4.412   5.907  1.6775  1.0012  1.7402
  105OSM   H12T10640   0.865   4.255   5.848 -2.2994 -0.2516  2.3665
  105OSM   C13S10641   1.055   4.380   5.821 -0.2536  0.7333 -0.7039
  105OSM   H13S10642   1.128   4.300   5.845 -1.5877 -1.6824 -3.8755
  105OSM   H13T10643   1.087   4.476   5.867 -0.0053  0.4558 -0.2946
  105OSM   C14S10644   1.044   4.414   5.675  0.7748  0.1312  0.1516
  105OSM   H14S10645   1.137   4.467   5.646  3.1654 -3.5452  0.4261
  105OSM   H14T10646   0.961   4.487   5.671 -0.1198 -0.7134  2.1196
  105OSM   C15S10647   1.016   4.303   5.579 -0.1217  0.1635  0.1510
  105OSM   H15S10648   0.936   4.231   5.608  0.1420 -0.5894 -0.9328
  105OSM   H15T10649   1.114   4.252   5.566  0.3217  0.4614  2.0354
  105OSM   C16S10650   0.950   4.359   5.446  0.0940 -0.2505 -0.3450
  105OSM   H16S10651   0.885   4.440   5.486  2.4339  0.8053  1.6175
  105OSM   H16T10652   0.886   4.287   5.391 -0.0439 -0.0129 -0.4949
  105OSM   C17S10653   1.048   4.429   5.355 -0.4573 -0.1855 -0.3191
  105OSM   H17S10654   1.094   4.360   5.281 -0.6316  1.1440 -1.7255
  105OSM   H17T10655   1.132   4.478   5.409 -1.2309  2.3904 -1.3091
  105OSM   C18S10656   0.976   4.538   5.273 -0.1825 -0.0078 -0.7393
  105OSM   H18S10657   1.032   4.633   5.287  0.7012 -0.3895 -1.5513
  105OSM   H18T10658   0.883   4.567   5.326 -0.1494  0.7836 -1.0897
  105OSM   H18U10659   0.955   4.503   5.169  0.2216  0.8425 -1.1229
  105OSM    C1F10660   0.640   3.496   6.831 -0.4144  0.6544  0.4058
  105OSM     OF10661   0.524   3.464   6.849  0.2711 -0.3961  0.5051
  105OSM    C2F10662   0.748   3.400   6.787 -0.0387  0.2956  0.6071
  105OSM    H2F10663   0.781   3.339   6.874 -0.4084  0.1621  0.6546
  105OSM    H2G10664   0.829   3.454   6.734  0.7357 -0.7518  0.6949
  105OSM    C3F10665   0.694   3.303   6.680  0.4743 -0.5887 -0.7997
  105OSM    H3F10666   0.620   3.237   6.731 -0.8711  1.6861  0.3979
  105OSM    H3G10667   0.786   3.249   6.649  1.9096  1.5391 -0.4357
  105OSM    C4F10668   0.634   3.366   6.550  0.1547  0.0069 -0.8829
  105OSM    H4F10669   0.707   3.426   6.491 -1.2584  0.9539 -1.7278
  105OSM    H4G10670   0.546   3.429   6.574 -0.7401 -1.8448  1.0477
  105OSM    C5F10671   0.579   3.252   6.453  0.5657 -0.4983  0.0756
  105OSM    H5F10672   0.503   3.191   6.507 -0.1992  0.2966 -0.0766
  105OSM    H5G10673   0.670   3.192   6.431 -0.4495 -1.3510 -2.1528
  105OSM    C6F10674   0.522   3.292   6.315  0.2248  0.3628  0.0063
  105OSM    H6F10675   0.421   3.336   6.323 -0.0708 -0.1125 -0.9461
  105OSM    H6G10676   0.492   3.200   6.261 -0.9062  0.0022  1.2263
  105OSM    C7F10677   0.617   3.375   6.227 -0.9060  0.2585  0.4626
  105OSM    H7F10678   0.713   3.327   6.196 -1.1941  1.5983 -2.9988
  105OSM    H7G10679   0.635   3.469   6.283 -0.6562  0.9703 -0.7574
  105OSM    C8F10680   0.554   3.404   6.097 -0.1722 -0.1052 -0.3541
  105OSM    H8F10681   0.460   3.458   6.120 -1.3670 -2.0548 -0.4767
  105OSM    H8G10682   0.517   3.305   6.061 -3.9005  0.2494  1.9823
  105OSM    C9F10683   0.635   3.479   5.991  0.8289  0.3855 -0.0461
  105OSM    H9F10684   0.744   3.490   5.994  0.6428  2.9137 -0.8802
  105OSM   C10F10685   0.592   3.536   5.877  0.2935  0.4393 -1.3008
  105OSM   H10F10686   0.670   3.589   5.819  2.6054 -0.0070  1.2064
  105OSM   C11F10687   0.440   3.554   5.844  0.0869 -0.2974  0.0400
  105OSM   H11F10688   0.371   3.520   5.925  0.1395 -0.6466 -0.0599
  105OSM   H11G10689   0.409   3.489   5.759 -4.6799  0.0440  1.1925
  105OSM   C12F10690   0.399   3.697   5.809  0.8845  0.3925 -0.4290
  105OSM   H12F10691   0.376   3.752   5.903  1.7410 -1.2134  0.7647
  105OSM   H12G10692   0.299   3.684   5.765 -0.1306  0.5628  1.6829
  105OSM   C13F10693   0.495   3.771   5.716  0.2452 -0.0728 -0.2812
  105OSM   H13F10694   0.597   3.774   5.759 -0.6454  1.8725  1.8601
  105OSM   H13G10695   0.464   3.876   5.701  2.3716  0.2336 -3.7906
  105OSM   C14F10696   0.501   3.717   5.574  0.0387 -0.7904  0.3638
  105OSM   H14F10697   0.402   3.739   5.529  0.7084  1.1755 -0.2545
  105OSM   H14G10698   0.524   3.608   5.574  0.7676 -0.6512 -0.1105
  105OSM   C15F10699   0.598   3.788   5.487  0.4600 -0.1009  1.0017
  105OSM   H15F10700   0.703   3.755   5.502  0.5046 -0.6673 -0.4106
  105OSM   H15G10701   0.594   3.898   5.503  1.4984 -0.1342  1.6309
  105OSM   C16F10702   0.578   3.773   5.334  0.2320  0.6815 -0.1320
  105OSM   H16F10703   0.652   3.836   5.280  1.9650 -0.7189  0.5107
  105OSM   H16G10704   0.477   3.809   5.305 -1.2844 -3.0053 -0.0767
  105OSM   C17F10705   0.582   3.623   5.292  0.3549  0.6022  0.7711
  105OSM   H17F10706   0.515   3.559   5.353  0.3077 -1.4033 -1.2372
  105OSM   H17G10707   0.684   3.580   5.300 -0.2521 -1.0740  0.1370
  105OSM   C18F10708   0.524   3.604   5.148 -0.5119  0.1937  0.0380
  105OSM   H18F10709   0.416   3.578   5.155 -1.1462  1.7486 -2.8232
  105OSM   H18G10710   0.567   3.516   5.096 -1.6551  0.3906 -1.3050
  105OSM   H18H10711   0.533   3.699   5.093  1.0742 -0.4214 -0.8221
  106OSM      N10712   5.263   6.818   7.399 -0.3794  0.0762  0.5266
  106OSM    C1510713   5.149   6.858   7.314  0.2937 -0.8760  0.5498
  106OSM   H15A10714   5.056   6.850   7.368  0.1416 -0.8495  0.2909
  106OSM   H15B10715   5.140   6.800   7.223  0.2562  1.0037 -0.6826
  106OSM   H15C10716   5.147   6.961   7.284 -0.6629 -1.1102 -0.2123
  106OSM    C1410717   5.231   6.883   7.531  0.1919 -0.0777 -0.2431
  106OSM   H14A10718   5.229   6.989   7.509  0.4865  0.3438  1.6291
  106OSM   H14B10719   5.305   6.862   7.607  0.7900  1.0420 -0.4925
  106OSM   H14C10720   5.139   6.845   7.572 -0.3475  2.7343  1.3643
  106OSM    C1310721   5.252   6.673   7.415 -0.2863  0.1430  0.2197
  106OSM   H13A10722   5.167   6.646   7.477  0.6241  0.8075  1.8314
  106OSM   H13B10723   5.339   6.627   7.459 -0.3554  0.9925  1.2828
  106OSM   H13C10724   5.240   6.624   7.319  2.2714 -1.5207  0.6581
  106OSM    C1210725   5.394   6.856   7.335 -0.2102  0.1957 -0.2160
  106OSM   H12A10726   5.393   6.959   7.303 -0.8377  0.7556  1.5326
  106OSM   H12B10727   5.408   6.793   7.248 -0.9247 -1.2826  0.6977
  106OSM    C1110728   5.526   6.835   7.426  0.2424 -0.4163  0.2144
  106OSM   H11A10729   5.515   6.734   7.472 -2.8652 -0.5613 -0.5896
  106OSM   H11B10730   5.511   6.908   7.507  3.9643  1.0596 -0.2463
  106OSM      P10731   5.729   6.749   7.290  0.2838  0.1855 -0.2292
  106OSM    O1310732   5.842   6.739   7.386 -0.4738 -0.3125  0.2044
  106OSM    O1410733   5.650   6.628   7.264 -0.1109 -0.2314  0.3746
  106OSM    O1110734   5.786   6.799   7.157 -0.5273  0.2675 -0.0973
  106OSM    O1210735   5.641   6.864   7.350 -0.3452 -0.8082  0.1981
  106OSM    C1S10736   5.818   6.939   7.116  0.1234 -0.6427  0.3074
  106OSM    H1S10737   5.921   6.972   7.142 -1.4719  2.4560  3.7381
  106OSM    H1T10738   5.761   7.019   7.169  1.8109  0.3897  0.6442
  106OSM     NF10739   5.848   7.087   6.913 -0.2656 -0.3694  0.3625
  106OSM    HNF10740   5.795   7.162   6.874  0.2440  0.1762  0.7061
  106OSM    C2S10741   5.784   6.962   6.964  0.2145 -0.6987  0.0188
  106OSM    H2S10742   5.826   6.881   6.901  0.8342  0.2878 -0.8775
  106OSM    C3S10743   5.632   6.964   6.940  0.6252  0.0914  0.0229
  106OSM    H3S10744   5.600   7.065   6.972 -0.4077  0.5746 -2.3583
  106OSM     O310745   5.566   6.859   7.019  0.1198  0.5094 -0.2004
  106OSM    HO310746   5.635   6.838   7.082 -0.5091  1.3831  0.8037
  106OSM    C4S10747   5.599   6.963   6.793  0.3075 -0.1994  0.1977
  106OSM    H4S10748   5.633   7.050   6.735 -1.2848  0.0552 -0.3976
  106OSM    C5S10749   5.523   6.870   6.730  0.5606 -0.1405  0.2066
  106OSM    H5S10750   5.477   6.791   6.791 -0.2461 -1.1333 -1.6078
  106OSM    C6S10751   5.469   6.886   6.585  0.2289  0.2304  0.4458
  106OSM    H6S10752   5.361   6.911   6.589  0.0899  0.2978 -1.9992
  106OSM    H6T10753   5.477   6.794   6.523  0.9584  2.0293 -2.3286
  106OSM    C7S10754   5.510   7.011   6.503 -0.7043  0.0372  0.0919
  106OSM    H7S10755   5.620   7.022   6.516 -0.9926  0.0724  3.2678
  106OSM    H7T10756   5.459   7.103   6.540 -0.2066  0.0548  0.7650
  106OSM    C8S10757   5.470   7.001   6.346 -0.3578  0.2546  0.1054
  106OSM    H8S10758   5.362   7.025   6.335  0.5105  3.7284 -2.2986
  106OSM    H8T10759   5.497   6.896   6.322 -2.3636 -1.1042  3.0305
  106OSM    C9S10760   5.544   7.101   6.266  0.1629 -0.0886 -0.2607
  106OSM    H9S10761   5.654   7.106   6.284 -0.1415 -0.7443  2.1198
  106OSM    H9T10762   5.504   7.197   6.306 -0.7992 -1.1337  1.3575
  106OSM   C10S10763   5.529   7.101   6.117 -0.0109 -0.3985  0.4442
  106OSM   H10S10764   5.428   7.113   6.074  0.6420 -1.6027 -1.5463
  106OSM   H10T10765   5.563   7.000   6.083 -1.7219 -0.1691 -2.1920
  106OSM   C11S10766   5.613   7.212   6.054  0.0493  0.1232 -0.2721
  106OSM   H11S10767   5.718   7.175   6.050 -0.3615 -1.3619  1.4449
  106OSM   H11T10768   5.610   7.295   6.127  1.9267 -1.3264  1.5440
  106OSM   C12S10769   5.560   7.246   5.914 -0.1786 -0.1595  0.3455
  106OSM   H12S10770   5.607   7.341   5.881 -0.9253  0.2318  0.3646
  106OSM   H12T10771   5.453   7.276   5.907 -0.0906 -0.1107 -1.2165
  106OSM   C13S10772   5.598   7.133   5.814 -0.0533 -0.2542  0.0921
  106OSM   H13S10773   5.565   7.032   5.846  2.1646 -0.9285  0.4117
  106OSM   H13T10774   5.709   7.125   5.814 -0.1472 -1.8785  0.4253
  106OSM   C14S10775   5.558   7.155   5.670  0.5575 -0.4546  0.0856
  106OSM   H14S10776   5.578   7.258   5.632  1.7354  0.6717  3.4051
  106OSM   H14T10777   5.447   7.155   5.666  0.5313  0.2667  0.6655
  106OSM   C15S10778   5.622   7.059   5.567  0.3237 -0.3211 -0.3445
  106OSM   H15S10779   5.605   6.955   5.604  0.9800 -0.4638 -0.4218
  106OSM   H15T10780   5.732   7.074   5.566  0.1868  1.0163  0.8237
  106OSM   C16S10781   5.564   7.086   5.426  0.1125 -0.1577  0.2027
  106OSM   H16S10782   5.585   7.188   5.388 -2.0659  1.2647  2.5345
  106OSM   H16T10783   5.453   7.085   5.435  0.2139 -0.0340  1.6400
  106OSM   C17S10784   5.607   6.987   5.322 -0.1547  0.3774 -0.4099
  106OSM   H17S10785   5.625   6.888   5.369  2.1554  0.8061 -0.2992
  106OSM   H17T10786   5.708   7.022   5.294 -0.7697  1.7803 -1.0090
  106OSM   C18S10787   5.514   6.973   5.206  0.3857  0.0912  0.0216
  106OSM   H18S10788   5.525   6.885   5.138 -2.0899  0.3423 -0.8345
  106OSM   H18T10789   5.513   7.062   5.139 -0.8998  0.1700  0.1072
  106OSM   H18U10790   5.409   6.963   5.241 -0.0486  3.4168 -0.0630
  106OSM    C1F10791   5.986   7.105   6.911  0.5568 -0.4797 -1.0123
  106OSM     OF10792   6.062   7.021   6.949  0.3804 -0.2884 -0.4230
  106OSM    C2F10793   6.037   7.240   6.873  0.1472 -0.7420  0.0835
  106OSM    H2F10794   6.061   7.305   6.960 -1.2543  1.1436 -0.8370
  106OSM    H2G10795   5.962   7.288   6.806  2.1546 -0.1015 -1.8278
  106OSM    C3F10796   6.163   7.238   6.788  0.6009  0.4784 -1.0733
  106OSM    H3F10797   6.256   7.221   6.846  1.2691  2.5470 -1.4501
  106OSM    H3G10798   6.183   7.340   6.749  0.6492  0.4087 -1.2292
  106OSM    C4F10799   6.171   7.143   6.669 -0.3706  0.0269  0.1882
  106OSM    H4F10800   6.077   7.160   6.612 -0.1225 -0.9166 -0.5340
  106OSM    H4G10801   6.172   7.033   6.688  0.2603 -0.1315 -0.6923
  106OSM    C5F10802   6.290   7.156   6.570  0.4397 -0.8952  0.2032
  106OSM    H5F10803   6.386   7.145   6.625  1.3148 -1.3830 -1.3285
  106OSM    H5G10804   6.286   7.257   6.523  1.4236 -0.8160  0.2624
  106OSM    C6F10805   6.297   7.045   6.471 -0.0620  0.0062 -0.0177
  106OSM    H6F10806   6.198   7.058   6.423 -0.1821  1.6754  0.6136
  106OSM    H6G10807   6.312   6.946   6.518  0.4439 -0.2985 -0.7954
  106OSM    C7F10808   6.399   7.061   6.369  0.4185 -0.2058  0.4068
  106OSM    H7F10809   6.504   7.064   6.405  0.5495 -0.2155  0.0378
  106OSM    H7G10810   6.390   7.159   6.318  0.0302 -0.4790 -0.0614
  106OSM    C8F10811   6.381   6.954   6.259 -0.2555  0.5478 -0.3445
  106OSM    H8F10812   6.397   6.851   6.297 -0.3006  0.3145 -0.9400
  106OSM    H8G10813   6.464   6.986   6.193 -0.0052  0.0931 -0.2551
  106OSM    C9F10814   6.251   6.952   6.183 -0.0036 -0.4105 -0.2607
  106OSM    H9F10815   6.156   6.945   6.240  0.5548  0.8669  0.8797
  106OSM   C10F10816   6.243   6.950   6.051  0.7257 -0.1914  0.5341
  106OSM   H10F10817   6.142   6.923   6.017  0.0842  1.8683  0.6656
  106OSM   C11F10818   6.345   6.930   5.946 -0.1889 -0.6955  0.3441
  106OSM   H11F10819   6.435   6.988   5.976  2.1769 -3.2915 -1.1946
  106OSM   H11G10820   6.310   6.967   5.848 -1.0982 -0.1408  0.8654
  106OSM   C12F10821   6.374   6.779   5.915 -0.2919  0.5371 -0.0371
  106OSM   H12F10822   6.284   6.725   5.878  0.2244  0.1645 -0.7708
  106OSM   H12G10823   6.403   6.735   6.012 -1.9183 -0.2746  0.1101
  106OSM   C13F10824   6.477   6.760   5.800 -0.5554 -0.1183  0.1386
  106OSM   H13F10825   6.574   6.807   5.827  0.7702 -1.3390 -2.1989
  106OSM   H13G10826   6.458   6.832   5.718 -0.7386  1.5386  1.5678
  106OSM   C14F10827   6.520   6.622   5.761  0.0295  0.6486  0.5763
  106OSM   H14F10828   6.579   6.609   5.668 -0.0911 -1.1246  0.7145
  106OSM   H14G10829   6.431   6.557   5.752  1.8923 -2.3245  1.9082
  106OSM   C15F10830   6.623   6.567   5.861  0.1423 -0.0216  0.3905
  106OSM   H15F10831   6.580   6.592   5.960  0.4898 -0.1729  0.5820
  106OSM   H15G10832   6.712   6.634   5.857  0.0354  0.0833 -0.5212
  106OSM   C16F10833   6.650   6.418   5.843 -0.3429 -0.3270  0.7963
  106OSM   H16F10834   6.552   6.373   5.867 -0.2406 -1.6849 -1.0916
  106OSM   H16G10835   6.731   6.377   5.907  1.0410  0.5267 -0.3489
  106OSM   C17F10836   6.689   6.370   5.700 -0.3161  0.4617  0.3059
  106OSM   H17F10837   6.639   6.394   5.604  1.4369 -1.4226 -1.1779
  106OSM   H17G10838   6.685   6.259   5.714  3.2918 -0.2040 -2.5363
  106OSM   C18F10839   6.834   6.408   5.660 -0.2772  0.8821 -0.9310
  106OSM   H18F10840   6.870   6.330   5.590 -0.8400  0.0165 -0.2757
  106OSM   H18G10841   6.891   6.393   5.754 -3.3562  1.4770  1.1661
  106OSM   H18H10842   6.835   6.514   5.628 -0.5280  0.7157 -1.5007
  107OSM      N10843   1.323   4.783   7.611  0.3026 -0.1654  0.3257
  107OSM    C1510844   1.283   4.930   7.610 -0.8803  0.2221  0.2095
  107OSM   H15A10845   1.224   4.941   7.520 -0.5716  0.5728  0.0452
  107OSM   H15B10846   1.366   4.999   7.601 -0.0304 -0.4818  2.2315
  107OSM   H15C10847   1.220   4.957   7.693  1.3517  2.3007  1.3484
  107OSM    C1410848   1.411   4.751   7.731 -0.2237 -0.2371 -0.3250
  107OSM   H14A10849   1.366   4.784   7.823  1.8098  0.8239  0.3737
  107OSM   H14B10850   1.511   4.793   7.732  0.2931 -1.4070  1.1229
  107OSM   H14C10851   1.421   4.645   7.751 -1.7675 -0.3170  0.1282
  107OSM    C1310852   1.195   4.704   7.618  0.2450 -0.0396  0.1510
  107OSM   H13A10853   1.209   4.597   7.626 -1.0171 -0.3662 -1.3628
  107OSM   H13B10854   1.143   4.716   7.524  0.5849  0.4167  0.0201
  107OSM   H13C10855   1.137   4.725   7.706  2.1104 -0.6138  1.5767
  107OSM    C1210856   1.402   4.754   7.487 -1.0047  0.4899 -0.0844
  107OSM   H12A10857   1.336   4.746   7.402  0.3936 -1.4633 -1.0500
  107OSM   H12B10858   1.450   4.658   7.494  1.8112  1.6095 -2.0869
  107OSM    C1110859   1.526   4.844   7.453  0.8378 -0.2864  0.3376
  107OSM   H11A10860   1.498   4.952   7.448  1.6197 -0.0104  1.5659
  107OSM   H11B10861   1.564   4.818   7.352 -0.5808  2.2635 -0.9586
  107OSM      P10862   1.714   4.950   7.601 -0.3317  0.2401  0.2740
  107OSM    O1310863   1.647   4.991   7.731  0.5546  0.4710  0.4547
  107OSM    O1410864   1.853   4.906   7.627  0.0323 -0.2158 -0.1453
  107OSM    O1110865   1.710   5.068   7.494 -0.0415 -0.2478  0.4555
  107OSM    O1210866   1.634   4.828   7.548  0.4122 -0.2015 -0.1090
  107OSM    C1S10867   1.816   5.063   7.401 -0.1685 -0.5054  0.1537
  107OSM    H1S10868   1.819   4.959   7.361  0.1198 -0.5773  0.3673
  107OSM    H1T10869   1.914   5.092   7.445 -1.3830  1.5048  1.7504
  107OSM     NF10870   1.855   5.133   7.166 -0.3627 -0.2726  0.4701
  107OSM    HNF10871   1.943   5.167   7.133 -0.7505 -0.7642 -1.1840
  107OSM    C2S10872   1.794   5.174   7.292  0.6958  0.6813 -0.0576
  107OSM    H2S10873   1.685   5.174   7.270  1.0391  0.3988 -2.0026
  107OSM    C3S10874   1.831   5.313   7.347 -0.1783  0.3944  0.0450
  107OSM    H3S10875   1.941   5.315   7.364  0.1398 -0.2397 -1.7244
  107OSM     O310876   1.779   5.354   7.471 -0.0277  0.6750  0.3157
  107OSM    HO310877   1.729   5.280   7.506  0.0193 -1.0165 -2.8317
  107OSM    C4S10878   1.802   5.418   7.242  0.0319  0.9937  0.2087
  107OSM    H4S10879   1.696   5.443   7.225 -0.6202 -1.5972  0.1181
  107OSM    C5S10880   1.902   5.488   7.180  0.9564 -0.3323 -0.4008
  107OSM    H5S10881   2.006   5.471   7.209 -0.6936 -3.4601  5.0185
  107OSM    C6S10882   1.888   5.612   7.084  0.4436  0.8281  0.5335
  107OSM    H6S10883   1.983   5.612   7.026 -0.9912 -0.5790 -1.9849
  107OSM    H6T10884   1.866   5.708   7.136  0.6595  0.7034  0.8552
  107OSM    C7S10885   1.784   5.598   6.968 -0.0256  0.4859 -0.3384
  107OSM    H7S10886   1.683   5.573   7.008  0.5467  0.1421  0.9262
  107OSM    H7T10887   1.819   5.505   6.920 -0.2317 -2.0162  3.8888
  107OSM    C8S10888   1.789   5.716   6.874 -0.0168 -0.5523 -0.6034
  107OSM    H8S10889   1.897   5.730   6.855 -0.6323  0.1924 -4.2659
  107OSM    H8T10890   1.752   5.812   6.915 -0.4320 -0.3708 -1.3800
  107OSM    C9S10891   1.710   5.683   6.744  0.3924 -0.8313 -0.4937
  107OSM    H9S10892   1.621   5.624   6.774 -1.6806  2.3057 -0.0777
  107OSM    H9T10893   1.769   5.620   6.674  1.9329 -0.0575  0.0553
  107OSM   C10S10894   1.652   5.799   6.659  0.3810 -0.0266 -0.2081
  107OSM   H10S10895   1.594   5.741   6.583 -0.2314 -2.3626  1.8831
  107OSM   H10T10896   1.734   5.840   6.597  2.5448 -0.8021  1.9758
  107OSM   C11S10897   1.572   5.901   6.746  0.3819  0.0305 -0.3196
  107OSM   H11S10898   1.655   5.953   6.800  0.4200  0.9108 -1.1932
  107OSM   H11T10899   1.495   5.863   6.816  0.9958  2.4430  1.8450
  107OSM   C12S10900   1.506   6.015   6.663 -0.3959  0.8282  0.1725
  107OSM   H12S10901   1.434   5.966   6.593  0.4632  0.7749 -0.6903
  107OSM   H12T10902   1.576   6.073   6.599  0.0487 -0.2392 -0.3232
  107OSM   C13S10903   1.429   6.109   6.756  0.4512 -1.1945 -0.5415
  107OSM   H13S10904   1.498   6.158   6.828 -1.2263  0.7711 -0.1868
  107OSM   H13T10905   1.356   6.047   6.812  0.6189 -1.1805 -0.3065
  107OSM   C14S10906   1.358   6.213   6.673  0.2179 -0.5821  0.0151
  107OSM   H14S10907   1.294   6.165   6.597 -0.4514  1.1687 -0.5587
  107OSM   H14T10908   1.434   6.275   6.621  1.0918 -0.6165  1.1897
  107OSM   C15S10909   1.269   6.302   6.759  0.0489  1.1791 -0.0515
  107OSM   H15S10910   1.187   6.258   6.821  0.1025  0.6574 -0.3454
  107OSM   H15T10911   1.212   6.363   6.686  0.0750 -0.9946 -2.0155
  107OSM   C16S10912   1.355   6.392   6.850 -0.1092 -0.6191  0.4202
  107OSM   H16S10913   1.434   6.425   6.779 -1.9616 -3.5188 -3.3560
  107OSM   H16T10914   1.389   6.340   6.941  1.1620 -1.4490 -0.5031
  107OSM   C17S10915   1.263   6.519   6.887  0.6609 -0.1580 -0.6536
  107OSM   H17S10916   1.169   6.477   6.928  0.3224 -0.4767 -1.7195
  107OSM   H17T10917   1.224   6.560   6.791 -0.5465 -2.0717 -1.0413
  107OSM   C18S10918   1.323   6.607   6.991  0.0042 -0.3613 -0.1671
  107OSM   H18S10919   1.276   6.707   7.004 -0.3450 -0.2978 -1.7318
  107OSM   H18T10920   1.431   6.623   6.975 -0.0066  0.0801  0.1725
  107OSM   H18U10921   1.307   6.556   7.089 -0.6782 -0.8043 -0.5022
  107OSM    C1F10922   1.797   5.036   7.093 -0.5335  0.6345  0.3879
  107OSM     OF10923   1.719   4.953   7.135  1.0281 -0.7320 -0.1936
  107OSM    C2F10924   1.853   5.024   6.949  0.1718  0.8166  0.6743
  107OSM    H2F10925   1.908   4.927   6.954  0.6854  1.1540  3.0229
  107OSM    H2G10926   1.909   5.119   6.940  0.3790  0.6936  0.6833
  107OSM    C3F10927   1.740   5.015   6.834 -0.3848  0.2407 -1.3919
  107OSM    H3F10928   1.716   5.119   6.801  2.1211  0.9988 -1.0190
  107OSM    H3G10929   1.648   4.965   6.869 -2.9881  3.2420 -3.3825
  107OSM    C4F10930   1.796   4.947   6.714 -0.0867  0.4923 -0.1140
  107OSM    H4F10931   1.824   4.846   6.752  1.2181  0.8285 -0.1287
  107OSM    H4G10932   1.885   4.998   6.673 -0.8773 -0.0111 -2.6183
  107OSM    C5F10933   1.692   4.947   6.602  0.0289  0.3469 -0.1964
  107OSM    H5F10934   1.643   5.046   6.594 -1.3144 -0.2739  0.1695
  107OSM    H5G10935   1.610   4.878   6.632  1.1167 -1.8236 -1.8833
  107OSM    C6F10936   1.752   4.889   6.474  0.6092 -1.1977  1.1416
  107OSM    H6F10937   1.783   4.786   6.503  0.9245 -1.1225  1.0792
  107OSM    H6G10938   1.830   4.949   6.422 -0.3432  0.6356  1.7453
  107OSM    C7F10939   1.633   4.873   6.378  0.0014  0.1441 -0.2081
  107OSM    H7F10940   1.575   4.968   6.385  0.5125  0.4621 -0.2845
  107OSM    H7G10941   1.567   4.788   6.408  1.0865 -1.2964 -1.7039
  107OSM    C8F10942   1.680   4.845   6.238 -0.3272 -0.0100 -0.9401
  107OSM    H8F10943   1.723   4.743   6.232  0.9461  0.5001 -0.8253
  107OSM    H8G10944   1.762   4.917   6.219 -1.8998  2.0335 -0.3495
  107OSM    C9F10945   1.574   4.881   6.140  0.1863  0.5202  0.8651
  107OSM    H9F10946   1.563   4.989   6.128  0.5212  0.5018  0.3609
  107OSM   C10F10947   1.495   4.788   6.077 -0.2212 -0.2769 -0.0829
  107OSM   H10F10948   1.429   4.821   5.996 -1.3152 -1.2174  0.3967
  107OSM   C11F10949   1.490   4.642   6.106 -0.1162  0.6286  0.1615
  107OSM   H11F10950   1.387   4.599   6.105 -1.0834  2.8187  0.6374
  107OSM   H11G10951   1.536   4.602   6.199 -1.5274 -0.2126  0.5299
  107OSM   C12F10952   1.561   4.570   5.990 -0.1849  0.0942 -0.6988
  107OSM   H12F10953   1.579   4.471   6.038 -1.2708  0.7994  1.2835
  107OSM   H12G10954   1.665   4.608   5.977  0.4296 -1.4324 -0.5378
  107OSM   C13F10955   1.490   4.557   5.855  0.8909  0.8576 -0.2816
  107OSM   H13F10956   1.477   4.657   5.807 -4.3775 -0.2208 -1.7594
  107OSM   H13G10957   1.383   4.530   5.869  0.6797 -0.3194 -3.5138
  107OSM   C14F10958   1.556   4.464   5.757  0.0091 -0.1362 -0.4626
  107OSM   H14F10959   1.537   4.360   5.790  1.4270 -0.2684 -0.0122
  107OSM   H14G10960   1.664   4.487   5.746 -0.0349 -0.4983 -1.8633
  107OSM   C15F10961   1.494   4.480   5.617 -0.1053  0.1898 -0.3053
  107OSM   H15F10962   1.532   4.562   5.553  0.8626 -1.1363 -1.5138
  107OSM   H15G10963   1.383   4.479   5.629  0.0281 -0.1605  1.0118
  107OSM   C16F10964   1.513   4.354   5.531 -1.1435 -0.2725  0.2379
  107OSM   H16F10965   1.522   4.266   5.598  0.8309 -1.9514 -2.0072
  107OSM   H16G10966   1.614   4.359   5.483 -0.6956 -3.4041  0.6120
  107OSM   C17F10967   1.396   4.337   5.433 -0.2000 -0.2679 -0.2794
  107OSM   H17F10968   1.370   4.440   5.401  0.3729  0.2519  0.8558
  107OSM   H17G10969   1.308   4.307   5.495 -1.1329  1.6032 -0.6211
  107OSM   C18F10970   1.423   4.233   5.326 -0.2789 -0.4002  0.2287
  107OSM   H18F10971   1.504   4.258   5.254 -1.4557  1.0100 -0.6768
  107OSM   H18G10972   1.329   4.228   5.266  0.2661 -1.9975 -0.5340
  107OSM   H18H10973   1.450   4.133   5.366 -1.6717 -0.4123  1.2168
  108OSM      N10974   0.573   0.228   7.646 -0.9111 -0.7598  0.6099
  108OSM    C1510975   0.647   0.346   7.587  0.5719 -0.2242 -0.1034
  108OSM   H15A10976   0.579   0.389   7.515  1.8685 -1.6046 -2.3011
  108OSM   H15B10977   0.740   0.315   7.541  0.5027 -2.5424  1.1527
  108OSM   H15C10978   0.670   0.416   7.666 -0.7038 -0.1461  0.2080
  108OSM    C1410979   0.667   0.158   7.736 -0.2887 -0.1304 -0.3998
  108OSM   H14A10980   0.622   0.081   7.797 -1.3793 -0.6985 -1.8566
  108OSM   H14B10981   0.707   0.225   7.810 -0.0488  1.3923 -1.8546
  108OSM   H14C10982   0.746   0.103   7.688  1.8456  0.4760  2.1641
  108OSM    C1310983   0.458   0.277   7.721 -0.1093 -0.0208  0.4165
  108OSM   H13A10984   0.418   0.360   7.665  0.3118 -1.3425 -1.9848
  108OSM   H13B10985   0.478   0.310   7.822 -0.1965  1.0907  0.0806
  108OSM   H13C10986   0.383   0.199   7.722 -0.8302  0.6161  3.0579
  108OSM    C1210987   0.536   0.128   7.541  0.0558 -0.0114  0.0350
  108OSM   H12A10988   0.442   0.157   7.495 -0.2253  1.1783  1.2917
  108OSM   H12B10989   0.510   0.035   7.591  0.4546  0.0276  0.3180
  108OSM    C1110990   0.647   0.091   7.433 -0.0238 -0.0150  0.0073
  108OSM   H11A10991   0.669   0.187   7.380 -1.8890 -0.6401 -2.0810
  108OSM   H11B10992   0.595   0.026   7.359  0.5826 -1.9058  1.1813
  108OSM      P10993   0.912   0.074   7.480 -0.3610 -0.1002  0.1389
  108OSM    O1310994   0.952   0.131   7.609  0.4526  0.5337 -0.1773
  108OSM    O1410995   0.998  -0.019   7.411  0.1829  0.2641 -0.3646
  108OSM    O1110996   0.912   0.202   7.387 -0.0200  0.7750 -0.2152
  108OSM    O1210997   0.761   0.025   7.495  0.7262  0.3134  0.3433
  108OSM    C1S10998   0.914   0.202   7.242  0.2354 -0.4549 -0.0608
  108OSM    H1S10999   0.875   0.106   7.201  0.1815  0.3717 -2.0592
  108OSM    H1T11000   1.020   0.215   7.212 -0.2289  2.3684 -0.7611
  108OSM     NF11001   0.819   0.312   7.042 -0.2235  0.2967 -0.1683
  108OSM    HNF11002   0.887   0.358   6.986  0.1454 -0.9035 -0.7579
  108OSM    C2S11003   0.840   0.328   7.187  0.1681 -0.2823  0.4198
  108OSM    H2S11004   0.740   0.319   7.233  0.0045  0.3494  0.2018
  108OSM    C3S11005   0.904   0.465   7.229  0.3299  0.4938 -1.3623
  108OSM    H3S11006   1.014   0.470   7.211  0.6259 -1.1375 -0.2616
  108OSM     O311007   0.907   0.475   7.371  0.1840 -0.4226 -0.1587
  108OSM    HO311008   0.899   0.383   7.399  0.6896 -0.0434  1.3000
  108OSM    C4S11009   0.828   0.576   7.168  0.6601  0.3800 -0.4519
  108OSM    H4S11010   0.720   0.578   7.189  0.9148 -2.2726  1.7168
  108OSM    C5S11011   0.863   0.677   7.088 -0.4113  0.1178  0.1047
  108OSM    H5S11012   0.969   0.676   7.057 -0.3518  2.7078  0.0437
  108OSM    C6S11013   0.772   0.786   7.039 -0.1899 -0.0446  0.5460
  108OSM    H6S11014   0.797   0.886   7.079  0.1336  0.1280 -0.0789
  108OSM    H6T11015   0.664   0.773   7.062 -0.6028  0.2071 -1.1261
  108OSM    C7S11016   0.782   0.791   6.882  0.6979  0.3529  0.1256
  108OSM    H7S11017   0.887   0.818   6.855  0.7597 -1.1664 -1.3505
  108OSM    H7T11018   0.717   0.868   6.834 -0.8877 -2.1618 -2.0260
  108OSM    C8S11019   0.758   0.656   6.815  1.1681  0.2979 -0.1787
  108OSM    H8S11020   0.661   0.619   6.855  1.2920 -0.5227 -0.6194
  108OSM    H8T11021   0.829   0.577   6.846  0.6377 -1.3148 -2.8343
  108OSM    C9S11022   0.751   0.669   6.663  0.3446 -0.3295  0.7857
  108OSM    H9S11023   0.781   0.569   6.624 -0.9321 -0.3960 -0.0723
  108OSM    H9T11024   0.823   0.751   6.643  0.7011 -0.8778 -0.2293
  108OSM   C10S11025   0.617   0.724   6.614 -0.1268  0.2572  0.1874
  108OSM   H10S11026   0.605   0.832   6.635  0.1798  0.1729  0.8208
  108OSM   H10T11027   0.526   0.675   6.656 -0.3819  1.0227  0.5485
  108OSM   C11S11028   0.603   0.684   6.465 -0.2766  0.2205 -0.1736
  108OSM   H11S11029   0.493   0.686   6.450 -0.4803 -2.3159  0.5625
  108OSM   H11T11030   0.631   0.578   6.446 -0.5356 -0.1796  1.4909
  108OSM   C12S11031   0.658   0.785   6.367 -1.2523  0.3234  0.8011
  108OSM   H12S11032   0.625   0.886   6.397 -1.9553  0.8226 -1.4356
  108OSM   H12T11033   0.623   0.759   6.265  1.4446 -0.5978  0.0286
  108OSM   C13S11034   0.813   0.778   6.347 -0.1250  0.6818 -0.8523
  108OSM   H13S11035   0.835   0.669   6.346 -3.2199 -0.0527 -1.7112
  108OSM   H13T11036   0.860   0.824   6.436 -0.3201  0.2398 -0.5139
  108OSM   C14S11037   0.870   0.845   6.223 -0.0050  0.1303 -0.1049
  108OSM   H14S11038   0.978   0.867   6.236  0.0885  0.0726 -0.7340
  108OSM   H14T11039   0.832   0.949   6.211 -0.4768 -0.2513 -2.4954
  108OSM   C15S11040   0.842   0.760   6.102 -0.6633  0.1680  0.3462
  108OSM   H15S11041   0.733   0.740   6.110 -0.9126  1.4674  0.5612
  108OSM   H15T11042   0.891   0.661   6.113 -1.2086 -0.3649 -1.6517
  108OSM   C16S11043   0.876   0.822   5.970  0.0722 -0.0512  0.0958
  108OSM   H16S11044   0.848   0.755   5.886 -0.4158  0.0964  0.1381
  108OSM   H16T11045   0.986   0.834   5.960  0.4733 -2.2209  1.2340
  108OSM   C17S11046   0.799   0.956   5.937 -0.0902  0.7932  0.3168
  108OSM   H17S11047   0.856   1.046   5.971  0.6731 -0.3364  2.1578
  108OSM   H17T11048   0.704   0.960   5.993 -0.3364 -3.2438  0.4324
  108OSM   C18S11049   0.773   0.965   5.783  0.3738 -0.5739  0.5308
  108OSM   H18S11050   0.697   0.890   5.754 -0.2300  0.5581 -0.9228
  108OSM   H18T11051   0.872   0.948   5.735  1.1060 -0.7729  2.0502
  108OSM   H18U11052   0.738   1.063   5.745  0.6963 -0.9013 -0.6522
  108OSM    C1F11053   0.739   0.218   6.994 -0.4013 -1.2022 -0.5495
  108OSM     OF11054   0.685   0.134   7.063 -0.2279  0.4722 -0.0039
  108OSM    C2F11055   0.703   0.236   6.851 -0.4616 -0.3286 -0.1394
  108OSM    H2F11056   0.656   0.337   6.844 -0.6643 -0.4725 -1.1038
  108OSM    H2G11057   0.620   0.172   6.815 -1.0056  0.3654 -0.1262
  108OSM    C3F11058   0.825   0.225   6.751 -0.1997  0.5575  0.0922
  108OSM    H3F11059   0.877   0.132   6.781 -1.0932  0.0723  0.1768
  108OSM    H3G11060   0.891   0.311   6.774  0.9690 -0.2545 -0.1182
  108OSM    C4F11061   0.783   0.235   6.603 -0.7102  0.1329  0.0114
  108OSM    H4F11062   0.721   0.327   6.594  1.7718  1.7918 -1.4762
  108OSM    H4G11063   0.733   0.138   6.580 -2.2305  0.6401  1.0011
  108OSM    C5F11064   0.913   0.250   6.513 -0.3032 -0.0844 -0.3062
  108OSM    H5F11065   0.981   0.165   6.537 -0.6221  0.3165  2.2676
  108OSM    H5G11066   0.968   0.342   6.542 -0.7910 -0.7929  3.2831
  108OSM    C6F11067   0.880   0.252   6.362  0.7115 -0.2450  0.1151
  108OSM    H6F11068   0.843   0.151   6.334  1.7106 -0.5222 -0.2321
  108OSM    H6G11069   0.966   0.269   6.294 -0.9316  0.2507 -1.9513
  108OSM    C7F11070   0.764   0.346   6.311  0.1571  0.5286  0.2916
  108OSM    H7F11071   0.794   0.447   6.347 -1.9526  0.1090  3.6224
  108OSM    H7G11072   0.680   0.308   6.374  0.9862 -0.1244  1.0173
  108OSM    C8F11073   0.747   0.341   6.154 -0.7157  0.5082 -0.1333
  108OSM    H8F11074   0.655   0.391   6.117 -1.1972 -0.8614 -0.8500
  108OSM    H8G11075   0.721   0.236   6.130 -1.4674 -0.3147  3.5461
  108OSM    C9F11076   0.856   0.388   6.067  0.8966  0.3131  0.2304
  108OSM    H9F11077   0.943   0.442   6.108  2.9372 -2.0049 -0.8721
  108OSM   C10F11078   0.858   0.362   5.932 -0.6023  0.5327  0.0216
  108OSM   H10F11079   0.948   0.391   5.876  0.4563  0.5775  1.6885
  108OSM   C11F11080   0.743   0.312   5.846 -0.0765 -0.4372 -0.2300
  108OSM   H11F11081   0.643   0.337   5.887 -1.3860 -2.6416 -1.8516
  108OSM   H11G11082   0.762   0.203   5.830  2.4537 -0.1799  0.6590
  108OSM   C12F11083   0.737   0.378   5.708 -0.0546  0.2860 -0.0109
  108OSM   H12F11084   0.841   0.368   5.671  0.4464 -2.6320  1.7911
  108OSM   H12G11085   0.704   0.484   5.710  0.1839  0.3544  1.6024
  108OSM   C13F11086   0.644   0.317   5.600 -0.1764 -0.0368 -0.2963
  108OSM   H13F11087   0.547   0.311   5.654  1.1582 -0.5823  2.2240
  108OSM   H13G11088   0.680   0.214   5.581  1.4701 -0.2542  3.2464
  108OSM   C14F11089   0.628   0.398   5.472 -0.6609  0.1030 -0.1488
  108OSM   H14F11090   0.601   0.499   5.508  0.8125  0.5641 -0.2900
  108OSM   H14G11091   0.547   0.354   5.409  0.1337 -0.9745 -0.4558
  108OSM   C15F11092   0.751   0.418   5.382  1.0455 -0.0902 -0.3793
  108OSM   H15F11093   0.781   0.319   5.339 -1.9228 -0.9698 -0.6494
  108OSM   H15G11094   0.833   0.449   5.450  1.2667 -3.1056  0.9163
  108OSM   C16F11095   0.730   0.514   5.265 -0.1947 -0.5339 -0.8049
  108OSM   H16F11096   0.697   0.617   5.290  0.1777 -0.4490 -0.6638
  108OSM   H16G11097   0.649   0.476   5.199 -0.2990 -0.9784 -0.4354
  108OSM   C17F11098   0.855   0.527   5.186 -0.8587 -0.9626  0.0343
  108OSM   H17F11099   0.900   0.427   5.172  3.0916  0.8141 -1.8272
  108OSM   H17G11100   0.928   0.588   5.244 -0.0745  0.6034 -2.4311
  108OSM   C18F11101   0.835   0.579   5.039  0.2967  0.2326 -0.7990
  108OSM   H18F11102   0.794   0.682   5.043  0.1838  0.1557  1.2078
  108OSM   H18G11103   0.765   0.511   4.986 -1.9041  1.2313  0.6930
  108OSM   H18H11104   0.929   0.568   4.982  0.0256 -2.3490 -0.8906
  109OSM      N11105   5.756   0.441   7.371 -0.0599 -0.3894  0.9604
  109OSM    C1511106   5.750   0.446   7.224  1.0204 -0.8115 -0.1060
  109OSM   H15A11107   5.654   0.408   7.194  1.2483 -0.1024 -1.8975
  109OSM   H15B11108   5.833   0.391   7.183  0.9502 -0.2097 -1.0941
  109OSM   H15C11109   5.747   0.546   7.182 -2.1754 -1.1946 -0.9975
  109OSM    C1411110   5.740   0.296   7.401  0.0960  0.1269 -0.3061
  109OSM   H14A11111   5.822   0.243   7.356  1.0481  1.4553 -0.2172
  109OSM   H14B11112   5.647   0.258   7.360 -0.8766  1.5738  0.4409
  109OSM   H14C11113   5.744   0.275   7.507 -2.1042 -1.6060 -0.4867
  109OSM    C1311114   5.888   0.490   7.412 -0.3215 -0.1641 -0.2083
  109OSM   H13A11115   5.910   0.593   7.389 -0.0641 -0.0444  0.5332
  109OSM   H13B11116   5.971   0.434   7.372  0.6996  1.6267 -0.7002
  109OSM   H13C11117   5.909   0.477   7.517 -0.3593  0.3075 -0.1394
  109OSM    C1211118   5.651   0.524   7.442  0.5799 -0.4428  0.0291
  109OSM   H12A11119   5.680   0.520   7.546 -0.5546  1.4287  0.4838
  109OSM   H12B11120   5.553   0.482   7.425  0.0540  0.5922  0.4160
  109OSM    C1111121   5.646   0.669   7.394 -0.2401 -0.8072 -0.1190
  109OSM   H11A11122   5.749   0.710   7.397 -0.2942 -0.4978 -1.6287
  109OSM   H11B11123   5.603   0.734   7.473 -2.2779 -2.4703  0.2371
  109OSM      P11124   5.437   0.658   7.232  0.3389  0.2136 -0.0676
  109OSM    O1311125   5.372   0.625   7.364 -0.7980 -0.0817 -0.1124
  109OSM    O1411126   5.379   0.763   7.154  0.4253 -0.2546  0.3831
  109OSM    O1111127   5.437   0.533   7.134  0.3198  0.6226 -0.0362
  109OSM    O1211128   5.591   0.692   7.261 -0.8547  0.2140 -0.6805
  109OSM    C1S11129   5.493   0.545   7.003 -0.2172 -0.2799  0.2159
  109OSM    H1S11130   5.596   0.504   7.003 -0.0029  0.1297  2.7846
  109OSM    H1T11131   5.500   0.650   6.968  0.1995 -0.9594 -1.9158
  109OSM     NF11132   5.471   0.501   6.760 -0.3294 -0.3039  0.4508
  109OSM    HNF11133   5.433   0.569   6.698 -0.6528 -0.8583  0.0280
  109OSM    C2S11134   5.414   0.460   6.893 -0.5190 -0.6147  0.5013
  109OSM    H2S11135   5.436   0.352   6.908  0.1403 -1.3732 -4.3133
  109OSM    C3S11136   5.260   0.483   6.899  0.1361  0.4711 -0.0256
  109OSM    H3S11137   5.238   0.579   6.847  0.8282  0.6141 -0.0715
  109OSM     O311138   5.201   0.495   7.032 -0.0707  0.4467 -0.1448
  109OSM    HO311139   5.276   0.513   7.089 -1.9971  3.4505  1.7678
  109OSM    C4S11140   5.184   0.371   6.831  0.0759  0.2239 -0.3702
  109OSM    H4S11141   5.139   0.413   6.740  1.1270  3.3126  0.4402
  109OSM    C5S11142   5.189   0.239   6.866  0.4586 -0.2888  0.4317
  109OSM    H5S11143   5.267   0.207   6.936  1.8933  1.0750 -0.4813
  109OSM    C6S11144   5.119   0.125   6.789  0.4035 -0.1228 -0.4468
  109OSM    H6S11145   5.021   0.111   6.840  0.2849  1.8154 -0.0431
  109OSM    H6T11146   5.172   0.028   6.793  0.1252 -0.2439  0.4788
  109OSM    C7S11147   5.101   0.161   6.635 -0.8329 -0.3312  0.8826
  109OSM    H7S11148   5.199   0.188   6.589 -0.6779  0.4546  1.6371
  109OSM    H7T11149   5.035   0.249   6.625 -1.5966 -0.8369  1.3851
  109OSM    C8S11150   5.044   0.053   6.545  0.9504  0.8949 -0.1069
  109OSM    H8S11151   4.934   0.044   6.559  0.7557  0.0877 -1.9036
  109OSM    H8T11152   5.098  -0.044   6.543 -1.0992 -0.2890 -0.8741
  109OSM    C9S11153   5.058   0.087   6.391  0.2717  0.2847  0.2323
  109OSM    H9S11154   5.166   0.106   6.372 -0.0522  1.9783 -0.0867
  109OSM    H9T11155   5.004   0.184   6.377 -2.0040 -0.8262  0.8766
  109OSM   C10S11156   5.005  -0.016   6.295 -0.1851 -0.1738  0.7410
  109OSM   H10S11157   4.906  -0.028   6.342  0.0659 -1.9140  0.9018
  109OSM   H10T11158   5.058  -0.114   6.302 -0.8629 -0.6098 -0.0121
  109OSM   C11S11159   5.000   0.031   6.146  0.1784 -0.3370 -0.8355
  109OSM   H11S11160   4.940   0.125   6.142 -1.0568 -1.1203 -5.0188
  109OSM   H11T11161   4.936  -0.031   6.081 -1.6664  0.2582  0.3455
  109OSM   C12S11162   5.131   0.073   6.075  0.0834  0.5613 -0.0782
  109OSM   H12S11163   5.204  -0.000   6.115 -0.6115  0.0642  0.2956
  109OSM   H12T11164   5.164   0.171   6.117 -1.8724  1.2613 -0.0819
  109OSM   C13S11165   5.128   0.095   5.918  0.3784  0.4568 -0.2387
  109OSM   H13S11166   5.046   0.163   5.887 -0.4362 -1.1232 -1.6679
  109OSM   H13T11167   5.095  -0.004   5.880  2.5767  0.1549 -1.4796
  109OSM   C14S11168   5.257   0.122   5.847 -0.2318  0.2218  0.2219
  109OSM   H14S11169   5.338   0.058   5.889 -1.7308 -0.8233  1.6244
  109OSM   H14T11170   5.283   0.225   5.880  0.5123  0.0388  0.2289
  109OSM   C15S11171   5.247   0.098   5.693  0.0846  0.8316 -0.3007
  109OSM   H15S11172   5.182   0.010   5.678  1.1796 -0.7241  3.0660
  109OSM   H15T11173   5.348   0.076   5.654 -0.2457 -1.2032 -0.1068
  109OSM   C16S11174   5.182   0.214   5.612 -0.2371 -0.1291  0.1460
  109OSM   H16S11175   5.250   0.301   5.626 -0.3919 -0.0643  0.5039
  109OSM   H16T11176   5.080   0.230   5.651 -0.5000  0.9278 -0.9074
  109OSM   C17S11177   5.160   0.185   5.465  0.3228 -0.1488  0.2673
  109OSM   H17S11178   5.234   0.110   5.430  0.0672  0.3217 -1.3857
  109OSM   H17T11179   5.152   0.282   5.411 -2.1073  0.6840  1.9716
  109OSM   C18S11180   5.022   0.124   5.437 -0.1667  0.1258  0.6598
  109OSM   H18S11181   4.949   0.170   5.507  0.1863 -0.0698  1.1623
  109OSM   H18T11182   5.021   0.013   5.446 -2.7954 -0.0519 -0.8040
  109OSM   H18U11183   4.987   0.152   5.335  2.9511  0.8493 -0.3096
  109OSM    C1F11184   5.595   0.476   6.720 -0.0469 -0.4529  0.4774
  109OSM     OF11185   5.675   0.406   6.785  0.0685  0.6820  0.2310
  109OSM    C2F11186   5.628   0.533   6.582  0.1578  0.2046 -0.9674
  109OSM    H2F11187   5.666   0.636   6.600  0.8543 -0.0426 -0.9794
  109OSM    H2G11188   5.538   0.543   6.518 -0.4813 -1.4875 -0.4020
  109OSM    C3F11189   5.734   0.444   6.512  0.3017 -0.3015  0.8978
  109OSM    H3F11190   5.674   0.352   6.492 -1.2968  1.0221 -0.6983
  109OSM    H3G11191   5.825   0.415   6.568 -0.0764 -0.4875  1.4245
  109OSM    C4F11192   5.779   0.507   6.386 -0.2642  0.4599  0.0049
  109OSM    H4F11193   5.810   0.610   6.416  0.4718 -0.0883  1.2044
  109OSM    H4G11194   5.699   0.514   6.310 -1.3545 -0.7651  0.9879
  109OSM    C5F11195   5.887   0.422   6.319 -0.0036 -0.1360  0.1037
  109OSM    H5F11196   5.850   0.318   6.327 -1.0988  0.2050 -0.3559
  109OSM    H5G11197   5.980   0.431   6.379  0.1260  0.1107 -0.1268
  109OSM    C6F11198   5.929   0.468   6.179  0.3743  0.6303 -0.0653
  109OSM    H6F11199   5.970   0.570   6.188 -1.1504  1.3754 -1.1263
  109OSM    H6G11200   5.836   0.483   6.119 -0.8193 -1.2186  1.1851
  109OSM    C7F11201   6.022   0.369   6.108 -0.0845  0.5149 -0.3628
  109OSM    H7F11202   5.971   0.278   6.068  0.0532  0.7519 -1.0871
  109OSM    H7G11203   6.100   0.351   6.184  0.0270  0.6783 -0.4376
  109OSM    C8F11204   6.072   0.441   5.978  0.3665 -0.1097  0.0182
  109OSM    H8F11205   6.126   0.532   6.013 -2.1772  1.0268  1.2723
  109OSM    H8G11206   5.985   0.467   5.915  0.6208  0.1455 -0.2329
  109OSM    C9F11207   6.165   0.356   5.901  0.4878  0.2537 -0.4634
  109OSM    H9F11208   6.257   0.326   5.953  0.0748  1.7894  1.2590
  109OSM   C10F11209   6.154   0.336   5.768  0.2410 -0.4460 -0.2350
  109OSM   H10F11210   6.231   0.278   5.717  1.3787  2.4160 -2.0202
  109OSM   C11F11211   6.055   0.391   5.668  0.4751  0.6581 -0.4724
  109OSM   H11F11212   6.079   0.497   5.646 -0.0024  0.6508 -1.0524
  109OSM   H11G11213   5.957   0.392   5.719  1.3483  2.0535  1.2618
  109OSM   C12F11214   6.043   0.305   5.539 -0.6691 -0.6366 -0.4367
  109OSM   H12F11215   5.945   0.332   5.495 -1.0351 -0.1595  0.6325
  109OSM   H12G11216   6.045   0.197   5.567 -1.0499 -0.1308  1.7002
  109OSM   C13F11217   6.159   0.337   5.443  0.1851 -0.1011  0.0630
  109OSM   H13F11218   6.263   0.307   5.468  0.2423 -1.0888 -1.2734
  109OSM   H13G11219   6.158   0.448   5.433  0.2479 -0.0420  0.6917
  109OSM   C14F11220   6.127   0.295   5.296 -0.3923 -0.8441  0.5124
  109OSM   H14F11221   6.037   0.356   5.271  2.1938  2.8516 -0.5443
  109OSM   H14G11222   6.117   0.185   5.282  3.1934 -1.1848 -0.2943
  109OSM   C15F11223   6.236   0.339   5.190  0.1068 -0.1936  0.0207
  109OSM   H15F11224   6.195   0.298   5.095 -0.3421 -2.3543  1.0967
  109OSM   H15G11225   6.324   0.278   5.220  0.1494  0.0346  0.3588
  109OSM   C16F11226   6.270   0.486   5.182 -0.3819  0.1624 -0.4570
  109OSM   H16F11227   6.306   0.522   5.281  0.5557 -0.5176 -0.5394
  109OSM   H16G11228   6.178   0.541   5.152 -0.6361  0.5844  0.9924
  109OSM   C17F11229   6.369   0.524   5.069 -0.4698  0.1108 -0.3431
  109OSM   H17F11230   6.371   0.634   5.051  0.0004  0.0789 -0.5064
  109OSM   H17G11231   6.329   0.472   4.980  2.1943 -2.5659 -0.1357
  109OSM   C18F11232   6.519   0.493   5.092  0.2472  0.2841  0.2862
  109OSM   H18F11233   6.536   0.530   5.196 -1.5750 -1.4144  1.2583
  109OSM   H18G11234   6.579   0.550   5.018  0.2223  1.1873  0.9359
  109OSM   H18H11235   6.548   0.386   5.089  1.2193  0.5625 -1.0309
  110OSM      N11236   2.762   5.682   7.596 -0.0940 -0.3769 -0.0368
  110OSM    C1511237   2.864   5.582   7.655 -0.1648 -1.1442 -0.3556
  110OSM   H15A11238   2.823   5.486   7.628 -0.1289 -1.4659  0.7219
  110OSM   H15B11239   2.865   5.594   7.762  1.3087  1.1207 -0.5695
  110OSM   H15C11240   2.960   5.603   7.610 -0.4671 -0.8815 -0.8944
  110OSM    C1411241   2.625   5.653   7.625  0.0670 -1.1953 -0.2484
  110OSM   H14A11242   2.563   5.724   7.574 -0.7403 -1.0819  0.8469
  110OSM   H14B11243   2.594   5.662   7.728 -2.4587 -1.1732 -0.9550
  110OSM   H14C11244   2.601   5.554   7.588  1.8588 -1.9083  0.3783
  110OSM    C1311245   2.799   5.819   7.649 -0.3716  0.5721 -0.2739
  110OSM   H13A11246   2.906   5.834   7.645 -0.3859  0.3633 -2.2854
  110OSM   H13B11247   2.766   5.823   7.752 -0.1789  0.3566 -0.2020
  110OSM   H13C11248   2.744   5.899   7.602 -0.9415  0.4974  0.2595
  110OSM    C1211249   2.788   5.686   7.452 -0.1634  0.8235 -0.0888
  110OSM   H12A11250   2.893   5.700   7.432 -0.3666  2.0396 -0.3890
  110OSM   H12B11251   2.753   5.779   7.410 -0.3222  0.3921 -0.9349
  110OSM    C1111252   2.727   5.578   7.362 -0.5693  0.5088  0.0102
  110OSM   H11A11253   2.749   5.600   7.255  0.2121 -0.6597 -0.0862
  110OSM   H11B11254   2.617   5.586   7.371 -0.7095  2.8294 -2.4274
  110OSM      P11255   2.666   5.318   7.377  0.1893 -0.0820  0.4189
  110OSM    O1311256   2.748   5.190   7.360 -0.1444  0.2135  0.3548
  110OSM    O1411257   2.572   5.314   7.488 -0.3304  0.6472  0.2843
  110OSM    O1111258   2.582   5.336   7.244  0.3624 -0.5073  0.2444
  110OSM    O1211259   2.770   5.447   7.392  0.0044 -0.5497  0.3710
  110OSM    C1S11260   2.641   5.330   7.110  0.3257 -0.1926  0.4880
  110OSM    H1S11261   2.683   5.229   7.090  1.0187  0.3349 -0.8579
  110OSM    H1T11262   2.731   5.394   7.107 -0.4453  0.9122  0.4309
  110OSM     NF11263   2.613   5.365   6.863  0.4771  0.7001  0.1853
  110OSM    HNF11264   2.626   5.451   6.814 -0.5073  0.3130 -0.7824
  110OSM    C2S11265   2.544   5.372   6.991  0.7000  0.4085  0.3004
  110OSM    H2S11266   2.468   5.292   6.984  0.8304  0.4029 -1.8531
  110OSM    C3S11267   2.476   5.507   7.011 -0.7279  0.4144  0.0262
  110OSM    H3S11268   2.549   5.590   6.999  0.2578 -0.4302 -0.0368
  110OSM     O311269   2.434   5.526   7.141  0.0732 -0.0542 -0.5928
  110OSM    HO311270   2.470   5.450   7.188  1.3504  1.2944  0.7145
  110OSM    C4S11271   2.369   5.537   6.908  0.2065  0.1700  0.1748
  110OSM    H4S11272   2.394   5.592   6.816 -1.6894  0.2959 -0.2979
  110OSM    C5S11273   2.243   5.500   6.924 -0.3111 -0.0098  0.3218
  110OSM    H5S11274   2.217   5.443   7.015 -1.2231  0.4726  0.3804
  110OSM    C6S11275   2.128   5.514   6.827 -0.3879 -0.6159  0.1907
  110OSM    H6S11276   2.063   5.603   6.843  1.2054  0.9424 -1.5079
  110OSM    H6T11277   2.063   5.424   6.831  0.0912 -0.9618  0.2501
  110OSM    C7S11278   2.168   5.529   6.678 -0.1403  0.2901  0.4659
  110OSM    H7S11279   2.227   5.438   6.652 -0.8895  0.1836 -1.0003
  110OSM    H7T11280   2.231   5.616   6.654 -1.5484  0.4337 -3.5882
  110OSM    C8S11281   2.049   5.548   6.593 -0.1173 -0.1881 -0.0117
  110OSM    H8S11282   1.994   5.640   6.624 -1.9318 -0.1598 -2.9067
  110OSM    H8T11283   1.982   5.459   6.598 -1.6248  0.8268 -1.2437
  110OSM    C9S11284   2.089   5.561   6.438  0.9609  0.0207  0.3332
  110OSM    H9S11285   2.158   5.477   6.414  1.9942  1.1955 -0.9363
  110OSM    H9T11286   2.150   5.654   6.431  0.1598  0.6083  0.9577
  110OSM   C10S11287   1.976   5.566   6.327  0.5388 -0.1884  0.1432
  110OSM   H10S11288   1.905   5.644   6.364  0.5403 -0.0198 -0.2020
  110OSM   H10T11289   1.926   5.468   6.335 -1.5940  0.9382  1.7107
  110OSM   C11S11290   2.041   5.597   6.191  0.8060  0.2149  0.0717
  110OSM   H11S11291   2.072   5.504   6.138  2.7869 -0.9692  3.0326
  110OSM   H11T11292   2.137   5.646   6.218 -0.8729  2.4442  2.5571
  110OSM   C12S11293   1.957   5.681   6.088  0.5407  0.2690  0.4562
  110OSM   H12S11294   1.915   5.774   6.133  1.3546  1.0733 -0.4012
  110OSM   H12T11295   1.876   5.612   6.055 -1.3397  1.0908  3.0030
  110OSM   C13S11296   2.040   5.735   5.970  0.0078 -0.2411  0.3826
  110OSM   H13S11297   2.104   5.658   5.922  0.6067  2.3424 -3.4650
  110OSM   H13T11298   2.109   5.817   6.000  0.2957 -0.0907 -0.6219
  110OSM   C14S11299   1.960   5.804   5.851  0.1234  0.2314  0.4165
  110OSM   H14S11300   2.016   5.881   5.795 -5.4524  2.8697 -2.2436
  110OSM   H14T11301   1.878   5.861   5.899 -0.2948  0.3225 -0.4004
  110OSM   C15S11302   1.918   5.703   5.744  0.4758  0.1478 -0.6044
  110OSM   H15S11303   1.883   5.613   5.799 -0.1273  0.8952  0.2628
  110OSM   H15T11304   2.011   5.665   5.695  0.0515  0.7536 -1.9175
  110OSM   C16S11305   1.816   5.769   5.646  0.4660 -0.5245  0.0107
  110OSM   H16S11306   1.871   5.840   5.581 -2.5158 -0.3259 -2.4894
  110OSM   H16T11307   1.736   5.823   5.700  1.3148  0.8742 -0.0832
  110OSM   C17S11308   1.757   5.664   5.543 -0.0089  0.0910  0.9449
  110OSM   H17S11309   1.672   5.714   5.492  0.1015 -1.0941 -0.4660
  110OSM   H17T11310   1.717   5.583   5.608  0.6078 -0.7210  0.3323
  110OSM   C18S11311   1.867   5.609   5.452  0.9672 -0.2697  0.3582
  110OSM   H18S11312   1.924   5.686   5.395 -0.6820  0.0165 -0.9549
  110OSM   H18T11313   1.824   5.556   5.365  1.3666  1.8674 -1.2097
  110OSM   H18U11314   1.926   5.535   5.510 -0.9918 -0.3054  2.4451
  110OSM    C1F11315   2.651   5.249   6.822 -1.1580  0.6725 -0.5692
  110OSM     OF11316   2.615   5.145   6.872 -0.1139  0.1365 -0.0098
  110OSM    C2F11317   2.751   5.251   6.710 -0.7727  0.6361 -0.6456
  110OSM    H2F11318   2.840   5.191   6.737 -2.0175 -1.1965 -0.4402
  110OSM    H2G11319   2.783   5.354   6.683  1.1834  0.5293  1.0361
  110OSM    C3F11320   2.689   5.175   6.589 -0.2900 -0.5048  0.1755
  110OSM    H3F11321   2.643   5.080   6.621 -1.3522  0.1253  0.5637
  110OSM    H3G11322   2.774   5.154   6.521  0.8973  0.9319  1.1416
  110OSM    C4F11323   2.576   5.247   6.517 -0.0905  0.6138 -0.3164
  110OSM    H4F11324   2.548   5.346   6.560  0.6296  0.6185  0.1776
  110OSM    H4G11325   2.485   5.185   6.519  0.6402 -0.4808  1.1718
  110OSM    C5F11326   2.614   5.250   6.368  0.6266  0.2781  0.6367
  110OSM    H5F11327   2.646   5.146   6.346 -1.8237 -0.4222  0.1711
  110OSM    H5G11328   2.701   5.317   6.349  1.1726 -0.8075 -0.8395
  110OSM    C6F11329   2.500   5.283   6.266 -0.0564  0.2536 -0.4109
  110OSM    H6F11330   2.433   5.366   6.295  0.9241  0.8854  0.1269
  110OSM    H6G11331   2.442   5.189   6.257 -1.9613  1.3620 -0.2501
  110OSM    C7F11332   2.571   5.321   6.132 -0.0205 -0.4071 -0.7997
  110OSM    H7F11333   2.651   5.248   6.105  0.3239 -0.6732  0.7984
  110OSM    H7G11334   2.620   5.420   6.144  1.9134 -1.4177  0.2839
  110OSM    C8F11335   2.472   5.341   6.014 -1.3572 -0.0215  0.5778
  110OSM    H8F11336   2.416   5.435   6.036  0.7643  1.0059  1.9117
  110OSM    H8G11337   2.405   5.253   6.027 -1.1531 -0.2576  0.0462
  110OSM    C9F11338   2.536   5.351   5.872  0.5703 -0.9197 -1.5794
  110OSM    H9F11339   2.594   5.262   5.845  1.1874  0.0103 -3.5274
  110OSM   C10F11340   2.530   5.457   5.787  0.3976  0.3571 -0.2419
  110OSM   H10F11341   2.582   5.446   5.690 -0.9753  0.2053 -0.9844
  110OSM   C11F11342   2.461   5.589   5.803 -0.4883  0.5865 -0.1779
  110OSM   H11F11343   2.484   5.647   5.895 -0.4266  0.6325 -0.2228
  110OSM   H11G11344   2.351   5.578   5.799 -0.3698 -0.9493  0.3727
  110OSM   C12F11345   2.502   5.684   5.689 -0.0094  0.4938  0.1227
  110OSM   H12F11346   2.538   5.624   5.603  2.8643 -0.2972  1.7438
  110OSM   H12G11347   2.594   5.739   5.719  1.8085 -0.7621 -2.6808
  110OSM   C13F11348   2.388   5.788   5.664  0.7049  0.2134 -0.4072
  110OSM   H13F11349   2.389   5.863   5.746  2.5705  0.8776 -0.9984
  110OSM   H13G11350   2.284   5.750   5.667  0.3199  1.1404 -1.3611
  110OSM   C14F11351   2.415   5.847   5.527  0.7459 -0.9869  0.1422
  110OSM   H14F11352   2.432   5.769   5.450  0.2646 -0.9461 -0.0159
  110OSM   H14G11353   2.504   5.909   5.553  1.4038 -1.7671 -0.2232
  110OSM   C15F11354   2.292   5.940   5.487 -0.2010 -0.8227  0.8309
  110OSM   H15F11355   2.341   6.014   5.421  0.9726 -2.2761  0.0010
  110OSM   H15G11356   2.250   5.990   5.577 -1.5236 -2.4610  1.1809
  110OSM   C16F11357   2.187   5.866   5.413  0.8697  0.1231  0.8012
  110OSM   H16F11358   2.121   5.808   5.482 -2.6451  3.6633  0.7680
  110OSM   H16G11359   2.232   5.801   5.335  1.7969  0.4255  1.0712
  110OSM   C17F11360   2.101   5.964   5.339  0.6562 -0.0808  0.3598
  110OSM   H17F11361   2.167   6.042   5.296  1.5375 -0.0691  1.6755
  110OSM   H17G11362   2.048   6.027   5.413 -1.0747 -1.2014  0.1421
  110OSM   C18F11363   1.995   5.912   5.241  0.2847  0.0772 -0.6039
  110OSM   H18F11364   1.973   5.996   5.172 -1.2530  1.0204  0.9413
  110OSM   H18G11365   1.896   5.906   5.290  0.1252 -0.9435 -1.0173
  110OSM   H18H11366   2.033   5.817   5.197 -1.0230 -0.1159 -1.3387
  111OSM      N11367   1.411   1.612   7.212 -0.4865 -0.1232 -0.0069
  111OSM    C1511368   1.426   1.677   7.076 -0.0069  0.0260  0.1487
  111OSM   H15A11369   1.359   1.625   7.010  1.2881  0.4869 -1.5907
  111OSM   H15B11370   1.524   1.669   7.032  0.7141  4.3526  0.4549
  111OSM   H15C11371   1.416   1.784   7.086  1.2947  0.1365  0.4562
  111OSM    C1411372   1.524   1.669   7.295  0.6114 -0.7890  0.3987
  111OSM   H14A11373   1.612   1.669   7.232 -0.5694 -2.2513 -1.3865
  111OSM   H14B11374   1.541   1.619   7.390 -1.3946 -2.5008 -0.0602
  111OSM   H14C11375   1.502   1.774   7.308  0.4066 -0.5468 -1.5704
  111OSM    C1311376   1.280   1.651   7.271  0.0144  0.5424 -0.0284
  111OSM   H13A11377   1.200   1.630   7.202  1.7499 -3.4893 -1.1390
  111OSM   H13B11378   1.282   1.756   7.296  0.7643  0.0620  2.1554
  111OSM   H13C11379   1.267   1.604   7.368  2.1366 -0.4717 -0.1675
  111OSM    C1211380   1.423   1.457   7.205 -0.7820  0.1369 -0.2729
  111OSM   H12A11381   1.400   1.414   7.301 -0.8579 -0.3338 -0.4978
  111OSM   H12B11382   1.528   1.440   7.187 -0.4004  1.9432  0.0790
  111OSM    C1111383   1.348   1.370   7.106  0.7191  0.0524 -0.0522
  111OSM   H11A11384   1.241   1.370   7.136  0.9528 -0.1880  0.8107
  111OSM   H11B11385   1.385   1.267   7.122  1.8095  0.2062 -1.3884
  111OSM      P11386   1.279   1.399   6.847 -0.5822  0.2497  0.0864
  111OSM    O1311387   1.348   1.350   6.723  0.6089 -0.6919 -0.1214
  111OSM    O1411388   1.151   1.342   6.880  0.6239  0.8033  1.0982
  111OSM    O1111389   1.259   1.557   6.825  0.7733  0.0206 -0.4607
  111OSM    O1211390   1.382   1.405   6.972  0.2260 -0.1932 -0.2086
  111OSM    C1S11391   1.330   1.638   6.734  0.3638 -0.0518 -0.4309
  111OSM    H1S11392   1.424   1.590   6.701  2.3772  2.7895  0.6958
  111OSM    H1T11393   1.358   1.738   6.774 -1.0195 -0.1421  0.8497
  111OSM     NF11394   1.324   1.741   6.510  0.0576 -0.4676  1.1815
  111OSM    HNF11395   1.302   1.839   6.506  1.9720 -0.0500 -0.8550
  111OSM    C2S11396   1.251   1.654   6.604  0.0963 -0.4947 -0.0712
  111OSM    H2S11397   1.244   1.560   6.546  1.8510 -0.4449 -0.4315
  111OSM    C3S11398   1.107   1.704   6.620 -0.0650 -0.4491 -0.7027
  111OSM    H3S11399   1.118   1.792   6.688 -0.1065 -3.2559  3.3185
  111OSM     O311400   1.029   1.626   6.712 -0.3752 -0.0720 -0.1692
  111OSM    HO311401   1.095   1.569   6.753 -0.0754 -0.1939 -0.8213
  111OSM    C4S11402   1.026   1.730   6.496  0.2355  0.0968  0.2847
  111OSM    H4S11403   1.036   1.645   6.426  1.2702 -1.8806  2.6876
  111OSM    C5S11404   0.973   1.843   6.456  0.9117 -0.2970  0.5895
  111OSM    H5S11405   0.967   1.924   6.530 -0.4099  0.7406 -0.5799
  111OSM    C6S11406   0.915   1.860   6.319  0.5175 -0.2463 -0.7088
  111OSM    H6S11407   0.853   1.951   6.328  0.3836 -0.5184  2.5558
  111OSM    H6T11408   0.850   1.773   6.295  0.4574 -0.0642 -1.2120
  111OSM    C7S11409   1.027   1.862   6.216 -0.2405  0.2340 -0.2400
  111OSM    H7S11410   1.095   1.774   6.212  0.8418  1.0740 -0.8299
  111OSM    H7T11411   1.087   1.951   6.245 -0.5118  0.8126 -1.4014
  111OSM    C8S11412   0.984   1.904   6.073  0.0324  0.4222  0.6196
  111OSM    H8S11413   0.911   1.988   6.078 -2.6360 -1.5471 -2.0485
  111OSM    H8T11414   0.927   1.821   6.026 -0.0483  0.5437  0.5018
  111OSM    C9S11415   1.095   1.945   5.978 -0.5741 -0.9102 -1.2201
  111OSM    H9S11416   1.184   1.898   6.025 -0.4259  3.0742  3.2468
  111OSM    H9T11417   1.098   2.056   5.985  3.3043 -1.0083  2.3515
  111OSM   C10S11418   1.089   1.898   5.840 -0.2664 -0.2239 -0.2966
  111OSM   H10S11419   1.000   1.935   5.785 -0.0696  0.4468 -0.1770
  111OSM   H10T11420   1.080   1.788   5.838  2.1826 -0.4722 -1.8588
  111OSM   C11S11421   1.219   1.931   5.763  0.3502 -0.6416  0.3710
  111OSM   H11S11422   1.295   1.877   5.823 -0.0535  1.2024  2.6511
  111OSM   H11T11423   1.246   2.037   5.779  0.4947 -0.4208 -1.1869
  111OSM   C12S11424   1.215   1.897   5.612 -0.0043 -0.0696 -0.4461
  111OSM   H12S11425   1.112   1.930   5.586 -0.2899 -0.3507  0.3003
  111OSM   H12T11426   1.231   1.788   5.599 -0.0542 -0.0617 -0.5763
  111OSM   C13S11427   1.319   1.975   5.538 -0.4089  0.3577  0.8632
  111OSM   H13S11428   1.424   1.945   5.555 -0.4853 -1.4725 -1.3900
  111OSM   H13T11429   1.326   2.084   5.557 -1.0468  1.0904 -2.4482
  111OSM   C14S11430   1.281   1.967   5.390  0.7501 -0.4613 -0.0480
  111OSM   H14S11431   1.189   2.026   5.375  2.1005  0.9697 -3.9827
  111OSM   H14T11432   1.253   1.863   5.364 -3.4664  0.5959 -0.3655
  111OSM   C15S11433   1.401   2.005   5.301 -0.0862 -0.0278 -1.0389
  111OSM   H15S11434   1.484   1.943   5.341  0.3267  1.4857  0.5823
  111OSM   H15T11435   1.434   2.111   5.313  2.2033 -0.8021  0.1204
  111OSM   C16S11436   1.377   1.976   5.150 -0.0688  0.4849 -0.0688
  111OSM   H16S11437   1.337   1.874   5.135 -2.7742  1.5073 -0.4676
  111OSM   H16T11438   1.478   1.981   5.104  0.3648 -1.1653  0.6617
  111OSM   C17S11439   1.287   2.082   5.091 -0.0311 -0.3819 -0.1454
  111OSM   H17S11440   1.327   2.178   5.129 -0.4393 -0.7244  1.1846
  111OSM   H17T11441   1.178   2.084   5.114  0.1764 -0.0507  0.8634
  111OSM   C18S11442   1.293   2.076   4.939  0.0732  0.3679 -0.7769
  111OSM   H18S11443   1.226   2.159   4.906  0.6100  2.5111  2.9327
  111OSM   H18T11444   1.231   1.993   4.900  3.0474 -1.8486 -1.1678
  111OSM   H18U11445   1.396   2.088   4.899  0.0755  1.6490 -0.4483
  111OSM    C1F11446   1.432   1.697   6.448  0.0496  0.1053  0.1093
  111OSM     OF11447   1.459   1.577   6.452  0.0406  0.8158  0.6566
  111OSM    C2F11448   1.511   1.787   6.360 -0.1102 -0.9392  0.1180
  111OSM    H2F11449   1.618   1.801   6.384 -0.0575  1.7486 -1.1903
  111OSM    H2G11450   1.471   1.891   6.355  0.6985 -0.6615 -1.2859
  111OSM    C3F11451   1.479   1.742   6.218 -0.5796  0.1045  0.2124
  111OSM    H3F11452   1.369   1.752   6.206 -0.2609  1.1366 -2.8507
  111OSM    H3G11453   1.507   1.635   6.207  0.1367  0.0906  1.8776
  111OSM    C4F11454   1.545   1.830   6.116  0.3614  0.0636 -0.8291
  111OSM    H4F11455   1.638   1.868   6.164  0.2335 -0.2140 -0.3539
  111OSM    H4G11456   1.484   1.921   6.099 -0.4025 -0.5026 -1.1625
  111OSM    C5F11457   1.573   1.753   5.986  0.3196 -0.9887 -0.1498
  111OSM    H5F11458   1.475   1.712   5.953 -0.1320 -1.7241  1.9729
  111OSM    H5G11459   1.647   1.677   6.019 -0.9753 -1.5907  1.5387
  111OSM    C6F11460   1.630   1.852   5.880 -0.2219 -0.1603 -0.0992
  111OSM    H6F11461   1.724   1.893   5.922 -0.9555  0.2709  1.1783
  111OSM    H6G11462   1.545   1.923   5.866 -0.0069  0.4604  1.4652
  111OSM    C7F11463   1.663   1.777   5.746 -0.0873  0.8115  0.2014
  111OSM    H7F11464   1.569   1.719   5.737  2.0827 -3.0820  0.2161
  111OSM    H7G11465   1.743   1.701   5.763  0.9015  1.5692 -0.9168
  111OSM    C8F11466   1.686   1.863   5.623 -0.8153  0.3565  0.0579
  111OSM    H8F11467   1.600   1.932   5.607  0.4473  2.3999  1.6662
  111OSM    H8G11468   1.688   1.791   5.538  1.0504  0.2760  0.1278
  111OSM    C9F11469   1.822   1.933   5.639  0.7682 -0.3197  1.0498
  111OSM    H9F11470   1.856   1.945   5.743  0.4160  0.0050  1.1306
  111OSM   C10F11471   1.890   1.973   5.534 -0.6070 -0.0216  0.1289
  111OSM   H10F11472   1.993   2.010   5.549 -0.8249  0.5693  0.1936
  111OSM   C11F11473   1.840   1.981   5.389 -0.7705  0.0414  0.0992
  111OSM   H11F11474   1.877   2.079   5.352 -3.2655  0.7229 -0.7636
  111OSM   H11G11475   1.731   1.994   5.372 -0.1951  1.1455 -3.5993
  111OSM   C12F11476   1.888   1.851   5.314 -0.4286  0.5810  0.2458
  111OSM   H12F11477   1.830   1.842   5.219  0.4893 -0.0444 -0.2753
  111OSM   H12G11478   1.861   1.758   5.369  1.2083 -0.0799 -0.0253
  111OSM   C13F11479   2.043   1.834   5.315 -0.1708 -0.4706 -0.3227
  111OSM   H13F11480   2.095   1.813   5.411 -0.3338 -0.0125 -0.1287
  111OSM   H13G11481   2.086   1.932   5.284 -0.5504 -0.5543 -1.1289
  111OSM   C14F11482   2.103   1.734   5.221 -0.4926  0.4280  0.2927
  111OSM   H14F11483   2.213   1.733   5.236 -0.4652 -0.2629  0.0505
  111OSM   H14G11484   2.082   1.765   5.116  0.0019 -0.0414  0.0504
  111OSM   C15F11485   2.055   1.594   5.262 -0.3064  0.1715  0.1199
  111OSM   H15F11486   1.948   1.576   5.238  0.5476 -4.1741 -1.2629
  111OSM   H15G11487   2.074   1.592   5.371  0.9144 -1.3437 -0.0871
  111OSM   C16F11488   2.143   1.490   5.195 -0.0024  1.0063  0.2293
  111OSM   H16F11489   2.106   1.388   5.216  1.7374  0.0565 -1.0642
  111OSM   H16G11490   2.252   1.490   5.211 -0.0631  1.7723  0.7096
  111OSM   C17F11491   2.116   1.490   5.041  0.6288 -0.0231 -0.8121
  111OSM   H17F11492   2.180   1.575   5.010  0.6519 -0.1311 -1.0614
  111OSM   H17G11493   2.010   1.517   5.022  0.0200 -1.9828 -0.3956
  111OSM   C18F11494   2.158   1.369   4.966  0.7483  0.8128 -0.6224
  111OSM   H18F11495   2.130   1.381   4.859 -0.3217  0.5273 -0.3918
  111OSM   H18G11496   2.110   1.276   5.003 -0.1500  0.5054 -2.4059
  111OSM   H18H11497   2.266   1.346   4.978 -0.0160 -2.0558  1.8263
  112OSM      N11498   4.560   5.528   6.932  0.8506 -0.3530  0.0162
  112OSM    C1511499   4.653   5.593   6.833  0.0979  0.1148  0.1857
  112OSM   H15A11500   4.719   5.522   6.787 -0.8471  0.3452 -1.5995
  112OSM   H15B11501   4.712   5.668   6.884 -2.2650  0.6013  2.4670
  112OSM   H15C11502   4.606   5.651   6.754 -0.5228 -1.3127 -0.5181
  112OSM    C1411503   4.478   5.632   6.993  0.0131 -0.0500  0.0884
  112OSM   H14A11504   4.408   5.587   7.062  1.3941 -1.7471  0.4501
  112OSM   H14B11505   4.432   5.686   6.911  0.2894  0.1863  0.0852
  112OSM   H14C11506   4.537   5.700   7.053  1.5792  0.0760 -1.5225
  112OSM    C1311507   4.476   5.436   6.850 -0.5364 -0.4906 -0.3141
  112OSM   H13A11508   4.437   5.482   6.760  0.1292 -1.4743 -1.1179
  112OSM   H13B11509   4.387   5.419   6.909  0.0153  2.0863  1.4303
  112OSM   H13C11510   4.534   5.355   6.809  0.5448 -0.9152  1.9220
  112OSM    C1211511   4.641   5.461   7.039 -0.3279 -0.0265 -0.3605
  112OSM   H12A11512   4.699   5.379   6.997  0.4065 -0.2042  0.9446
  112OSM   H12B11513   4.582   5.424   7.121 -2.3700 -0.9641 -2.1579
  112OSM    C1111514   4.757   5.543   7.101 -0.5607 -0.0614 -0.2242
  112OSM   H11A11515   4.825   5.555   7.014 -0.4842  1.1095 -0.0129
  112OSM   H11B11516   4.822   5.489   7.174  0.3695  1.2231 -0.0620
  112OSM      P11517   4.832   5.783   7.148  0.2815  0.5418  1.1080
  112OSM    O1311518   4.775   5.912   7.175 -0.6020 -0.3959  0.6648
  112OSM    O1411519   4.937   5.746   7.243  0.2469  0.0134  0.4636
  112OSM    O1111520   4.895   5.773   7.002 -0.0178  0.2130  0.4686
  112OSM    O1211521   4.717   5.668   7.154 -0.1399  0.5254 -0.3932
  112OSM    C1S11522   5.021   5.835   6.977 -0.3814 -0.9693  0.0833
  112OSM    H1S11523   5.101   5.765   7.009  0.8449 -0.2902 -1.3755
  112OSM    H1T11524   5.032   5.922   7.045 -2.0833  0.2704 -1.1510
  112OSM     NF11525   5.181   5.920   6.801 -0.8852 -0.4128  0.0665
  112OSM    HNF11526   5.208   6.010   6.833 -0.3445 -0.8908  0.9877
  112OSM    C2S11527   5.042   5.877   6.827 -0.1473 -0.6442  0.0774
  112OSM    H2S11528   5.019   5.786   6.768  0.4120 -0.4426 -0.4708
  112OSM    C3S11529   4.936   5.989   6.796 -0.2517  0.0756  0.0164
  112OSM    H3S11530   4.958   6.071   6.868  2.0981 -0.0181 -0.5241
  112OSM     O311531   4.803   5.951   6.828  0.2498  0.3629  0.0461
  112OSM    HO311532   4.827   5.897   6.903  2.0395 -0.5024 -1.0678
  112OSM    C4S11533   4.942   6.045   6.658  0.4318  0.3855 -0.3386
  112OSM    H4S11534   4.927   5.971   6.578  0.7469 -0.1641  0.1025
  112OSM    C5S11535   4.972   6.171   6.617 -0.7869 -0.1522  0.7074
  112OSM    H5S11536   4.992   6.248   6.693  0.9768  0.4304 -0.2762
  112OSM    C6S11537   5.001   6.218   6.480 -0.7161 -0.4779  0.6111
  112OSM    H6S11538   5.109   6.204   6.459 -0.6598  0.6917  0.0878
  112OSM    H6T11539   4.987   6.328   6.485 -1.0020 -0.4857  0.0506
  112OSM    C7S11540   4.916   6.167   6.360 -0.3835  0.1352  0.0092
  112OSM    H7S11541   4.813   6.198   6.390 -0.2880  1.3796 -0.8266
  112OSM    H7T11542   4.923   6.057   6.354  0.2834  0.0842  1.3891
  112OSM    C8S11543   4.943   6.238   6.220 -0.2115 -0.2807 -0.2705
  112OSM    H8S11544   5.051   6.227   6.197 -0.5896  0.0681 -2.3500
  112OSM    H8T11545   4.917   6.345   6.231 -1.4997 -0.5954 -0.1101
  112OSM    C9S11546   4.866   6.167   6.104  0.1030 -0.2426  0.2319
  112OSM    H9S11547   4.905   6.063   6.109  0.9907  0.1205  1.6258
  112OSM    H9T11548   4.905   6.222   6.016 -0.8967  0.0853 -0.0210
  112OSM   C10S11549   4.706   6.177   6.097  0.7317 -0.3837  0.0659
  112OSM   H10S11550   4.683   6.284   6.114  1.7598 -0.0426 -0.5733
  112OSM   H10T11551   4.651   6.121   6.176 -0.9490  1.0706 -0.0090
  112OSM   C11S11552   4.658   6.132   5.955  0.0118 -0.8159 -0.3645
  112OSM   H11S11553   4.556   6.089   5.962  0.2674 -1.2135  1.1659
  112OSM   H11T11554   4.740   6.065   5.919  0.2568  0.8168 -3.1120
  112OSM   C12S11555   4.657   6.261   5.866  0.1205 -0.1366  0.0357
  112OSM   H12S11556   4.746   6.320   5.895  1.6006 -2.0261 -0.4980
  112OSM   H12T11557   4.562   6.313   5.893 -1.0278 -1.4989 -1.2041
  112OSM   C13S11558   4.685   6.240   5.713 -0.2084  0.5111  0.1222
  112OSM   H13S11559   4.600   6.178   5.678  0.3255  0.0989 -0.4409
  112OSM   H13T11560   4.780   6.187   5.693 -1.5072 -0.8153 -3.2525
  112OSM   C14S11561   4.667   6.366   5.627  0.1263  0.8178  0.1112
  112OSM   H14S11562   4.741   6.436   5.671  1.2003 -0.5804  0.6163
  112OSM   H14T11563   4.569   6.417   5.635 -0.1559  0.1426  1.2958
  112OSM   C15S11564   4.682   6.332   5.477 -0.0759 -0.1881 -0.5032
  112OSM   H15S11565   4.626   6.243   5.444 -0.5330  0.5137 -1.6779
  112OSM   H15T11566   4.793   6.319   5.482  0.1733  1.9083  2.3238
  112OSM   C16S11567   4.657   6.455   5.389 -0.1134  0.0183  1.1514
  112OSM   H16S11568   4.729   6.537   5.412  0.0033  1.0154 -2.2914
  112OSM   H16T11569   4.552   6.485   5.408 -0.5232  0.9035 -1.9653
  112OSM   C17S11570   4.678   6.450   5.232 -1.2123 -0.2638  0.8293
  112OSM   H17S11571   4.621   6.363   5.193  0.7279 -0.8722 -0.8350
  112OSM   H17T11572   4.784   6.451   5.198 -1.2371 -1.2600  0.6749
  112OSM   C18S11573   4.623   6.584   5.172 -0.2869  0.0714 -0.6801
  112OSM   H18S11574   4.514   6.582   5.195 -0.6389  2.2602 -1.8534
  112OSM   H18T11575   4.641   6.579   5.062  1.5912  0.0441 -0.4067
  112OSM   H18U11576   4.676   6.665   5.226  2.0168 -3.1059  2.1808
  112OSM    C1F11577   5.278   5.829   6.785  0.2660 -0.7559 -0.0113
  112OSM     OF11578   5.254   5.706   6.782 -0.0287  0.5193  0.4725
  112OSM    C2F11579   5.416   5.875   6.782 -0.5209  0.3359  0.1812
  112OSM    H2F11580   5.457   5.838   6.878  0.0593  0.4494 -0.0162
  112OSM    H2G11581   5.409   5.985   6.796  0.8538  0.3669  0.8535
  112OSM    C3F11582   5.521   5.831   6.676  0.0302  0.5849  0.5053
  112OSM    H3F11583   5.566   5.732   6.702  1.7411  1.5251  1.3347
  112OSM    H3G11584   5.608   5.899   6.691  0.0418  0.8505 -0.6656
  112OSM    C4F11585   5.479   5.830   6.522  0.6573 -0.0820  0.3335
  112OSM    H4F11586   5.393   5.762   6.506 -0.6298  1.6934 -0.5187
  112OSM    H4G11587   5.557   5.794   6.451  1.8292  1.0964  0.9773
  112OSM    C5F11588   5.446   5.973   6.466 -0.3384  0.0529  0.3080
  112OSM    H5F11589   5.532   6.042   6.476 -0.2710 -0.1139  0.8944
  112OSM    H5G11590   5.358   6.012   6.521  0.3875  2.6233 -0.2373
  112OSM    C6F11591   5.421   5.952   6.317 -0.5760  0.9561 -0.2635
  112OSM    H6F11592   5.349   5.870   6.300  2.2718 -1.2528 -2.7854
  112OSM    H6G11593   5.512   5.926   6.259 -0.8044  0.2376 -0.2993
  112OSM    C7F11594   5.364   6.083   6.254  0.1050  0.0394  0.1405
  112OSM    H7F11595   5.443   6.156   6.278 -1.2490  1.4551  0.4471
  112OSM    H7G11596   5.266   6.109   6.300  0.2681  0.2985  0.3397
  112OSM    C8F11597   5.362   6.075   6.102 -0.2025 -0.4613  0.7516
  112OSM    H8F11598   5.461   6.034   6.072 -0.4483 -0.1398 -0.5211
  112OSM    H8G11599   5.360   6.179   6.063  0.2102  0.5037  3.0709
  112OSM    C9F11600   5.241   5.998   6.061 -0.3925  0.4600 -0.4140
  112OSM    H9F11601   5.145   6.043   6.089  0.3912  1.4554  0.7346
  112OSM   C10F11602   5.243   5.873   5.993 -0.0670 -0.2204  0.3598
  112OSM   H10F11603   5.146   5.833   5.960  0.0542 -0.0693 -0.1915
  112OSM   C11F11604   5.372   5.803   5.963 -0.4680 -0.0810 -0.0079
  112OSM   H11F11605   5.354   5.695   5.981 -1.1438 -0.0391 -0.4171
  112OSM   H11G11606   5.458   5.842   6.022  2.4884 -1.2786 -3.2232
  112OSM   C12F11607   5.420   5.832   5.817  0.2441 -0.2159  0.0064
  112OSM   H12F11608   5.521   5.787   5.816  0.5586  0.4423  0.8401
  112OSM   H12G11609   5.426   5.942   5.808 -0.1491 -0.2104 -0.1852
  112OSM   C13F11610   5.351   5.745   5.711  0.9590 -0.0347 -0.2385
  112OSM   H13F11611   5.243   5.773   5.716  1.0357  0.0913  3.0971
  112OSM   H13G11612   5.363   5.642   5.749 -3.3641 -0.2402  1.1092
  112OSM   C14F11613   5.399   5.767   5.567 -0.1700  0.4460 -0.5477
  112OSM   H14F11614   5.505   5.748   5.539 -0.5094  0.6548 -2.0764
  112OSM   H14G11615   5.385   5.877   5.563  0.4145  0.5932  0.8742
  112OSM   C15F11616   5.315   5.709   5.451 -0.7229 -0.3482  0.4183
  112OSM   H15F11617   5.210   5.745   5.461 -1.0480  0.6120 -4.1233
  112OSM   H15G11618   5.316   5.599   5.466 -0.6786 -0.2200  1.4691
  112OSM   C16F11619   5.341   5.748   5.303 -0.5844 -0.5212 -0.3779
  112OSM   H16F11620   5.440   5.723   5.258  0.2385  3.2746 -1.0774
  112OSM   H16G11621   5.345   5.859   5.301 -1.5010 -0.4694 -2.9529
  112OSM   C17F11622   5.215   5.710   5.220  0.3119  0.3518 -0.0981
  112OSM   H17F11623   5.133   5.779   5.249  1.3166  1.5632 -0.0371
  112OSM   H17G11624   5.191   5.605   5.246  3.1642 -0.1966  0.7502
  112OSM   C18F11625   5.228   5.717   5.064 -0.1376 -0.0956 -0.2626
  112OSM   H18F11626   5.128   5.691   5.022  0.3596  0.5668 -1.9918
  112OSM   H18G11627   5.302   5.643   5.028 -0.9625 -1.3877  0.6286
  112OSM   H18H11628   5.253   5.818   5.024 -0.5741 -0.3335 -1.1744
  113OSM      N11629   3.220   1.633   7.272  0.4162 -0.3426 -0.3511
  113OSM    C1511630   3.203   1.499   7.214  0.5723 -0.7356 -0.3692
  113OSM   H15A11631   3.267   1.475   7.130 -0.6474 -0.9731 -1.2664
  113OSM   H15B11632   3.099   1.484   7.188  0.5228  0.8115 -1.1683
  113OSM   H15C11633   3.222   1.435   7.298 -2.1281  1.0766  1.7838
  113OSM    C1411634   3.132   1.636   7.396  0.1572 -0.5024 -0.1866
  113OSM   H14A11635   3.134   1.736   7.438  2.9201 -0.8520  0.7169
  113OSM   H14B11636   3.162   1.567   7.473 -1.5221 -0.6040  0.4220
  113OSM   H14C11637   3.027   1.616   7.381 -0.4025  0.6670  1.7094
  113OSM    C1311638   3.364   1.659   7.311  0.3529  0.3410 -0.4119
  113OSM   H13A11639   3.376   1.753   7.363 -3.3737  0.4551  0.5274
  113OSM   H13B11640   3.432   1.665   7.228  1.3934  3.2250  0.5119
  113OSM   H13C11641   3.402   1.573   7.365  1.2961  1.6099  1.0454
  113OSM    C1211642   3.185   1.737   7.173 -0.2748 -0.1475  0.0946
  113OSM   H12A11643   3.272   1.759   7.113 -1.3034 -0.9651 -1.8195
  113OSM   H12B11644   3.167   1.829   7.225 -1.3646 -0.0900 -0.3489
  113OSM    C1111645   3.074   1.711   7.071  0.0760 -0.8377  0.0138
  113OSM   H11A11646   3.104   1.636   6.995 -0.7716 -0.3969 -0.7804
  113OSM   H11B11647   3.060   1.803   7.011  0.1305 -0.9010 -0.0957
  113OSM      P11648   2.836   1.778   7.163 -0.2893 -0.5191  0.2935
  113OSM    O1311649   2.729   1.712   7.237 -0.2943 -0.1325  0.4785
  113OSM    O1411650   2.896   1.897   7.229 -0.0120  0.4962 -0.5201
  113OSM    O1111651   2.790   1.818   7.018  0.4222  0.2149  0.0162
  113OSM    O1211652   2.948   1.666   7.126  0.2581  0.1341  0.0467
  113OSM    C1S11653   2.762   1.713   6.926  0.0900 -0.0613  0.2699
  113OSM    H1S11654   2.668   1.674   6.968 -0.1038 -0.6751 -0.6937
  113OSM    H1T11655   2.838   1.631   6.922 -0.8726 -0.9643 -2.4279
  113OSM     NF11656   2.731   1.633   6.692 -0.2212 -0.2648 -0.3330
  113OSM    HNF11657   2.804   1.617   6.626  0.7708 -0.4936  0.7870
  113OSM    C2S11658   2.749   1.751   6.775  0.1362 -0.5154 -0.1860
  113OSM    H2S11659   2.662   1.819   6.768  1.2395  0.9325 -0.3230
  113OSM    C3S11660   2.870   1.836   6.725 -0.0176 -0.1158 -0.2917
  113OSM    H3S11661   2.947   1.764   6.688 -1.2414 -1.6094 -0.0210
  113OSM     O311662   2.931   1.920   6.819  0.6859 -0.3196 -0.1513
  113OSM    HO311663   2.880   1.897   6.897  0.1847 -1.1097 -0.6919
  113OSM    C4S11664   2.848   1.903   6.591  0.0854  0.0126 -0.1393
  113OSM    H4S11665   2.868   1.842   6.501  0.3085  1.3334 -1.0136
  113OSM    C5S11666   2.799   2.028   6.564  0.5554  0.1057  0.1197
  113OSM    H5S11667   2.775   2.089   6.651  0.8442  0.1208  0.1894
  113OSM    C6S11668   2.770   2.081   6.424 -0.3138  0.2726 -0.4815
  113OSM    H6S11669   2.845   2.161   6.404  0.0377  0.3602  1.0750
  113OSM    H6T11670   2.671   2.132   6.425 -0.3110  0.2704  0.4207
  113OSM    C7S11671   2.786   1.989   6.307  0.1089  0.2020  0.2377
  113OSM    H7S11672   2.717   1.904   6.323  1.3043 -0.6328  1.0852
  113OSM    H7T11673   2.884   1.939   6.296  1.1395  1.4133  3.0952
  113OSM    C8S11674   2.755   2.068   6.184 -0.0847  0.0868  0.9953
  113OSM    H8S11675   2.813   2.162   6.181 -1.0781  0.6945  0.2234
  113OSM    H8T11676   2.656   2.118   6.191  0.1097  0.9369 -1.3974
  113OSM    C9S11677   2.766   1.986   6.047 -0.0380 -0.9777  0.3191
  113OSM    H9S11678   2.697   1.898   6.048 -0.4142 -0.7210  2.4729
  113OSM    H9T11679   2.868   1.943   6.049  0.4160  0.0444  2.9578
  113OSM   C10S11680   2.744   2.072   5.927  0.3644 -0.6512  0.0881
  113OSM   H10S11681   2.816   2.157   5.934 -0.0188 -0.4343  2.7631
  113OSM   H10T11682   2.653   2.136   5.924  0.6392 -0.2383  0.3236
  113OSM   C11S11683   2.773   1.995   5.797  0.4876  0.1154 -0.6423
  113OSM   H11S11684   2.708   1.906   5.790 -1.9914  1.2558  4.0721
  113OSM   H11T11685   2.881   1.969   5.793 -0.1957 -2.9823 -2.7657
  113OSM   C12S11686   2.740   2.085   5.670 -0.2158  0.2840 -0.2494
  113OSM   H12S11687   2.786   2.183   5.697 -0.9060  0.3860  0.5976
  113OSM   H12T11688   2.632   2.100   5.650 -0.0589  2.3094  0.2499
  113OSM   C13S11689   2.803   2.023   5.547 -0.0621  0.7157 -0.7482
  113OSM   H13S11690   2.765   1.919   5.541 -0.2438  0.7292  0.1096
  113OSM   H13T11691   2.914   2.019   5.560 -0.3133 -1.4305  1.6150
  113OSM   C14S11692   2.765   2.093   5.418  0.0037 -0.1901 -0.6565
  113OSM   H14S11693   2.786   2.202   5.420  1.0135 -0.3735 -0.0936
  113OSM   H14T11694   2.659   2.080   5.388  0.5957 -2.0886 -2.1279
  113OSM   C15S11695   2.846   2.034   5.301  0.5367 -0.2201  0.3654
  113OSM   H15S11696   2.839   1.924   5.312  2.2806 -0.7300 -2.5350
  113OSM   H15T11697   2.950   2.072   5.312  0.3582 -0.0070  1.4235
  113OSM   C16S11698   2.783   2.065   5.166  0.5604 -0.3026  0.0700
  113OSM   H16S11699   2.761   2.174   5.163 -4.0818 -1.0614 -1.2912
  113OSM   H16T11700   2.684   2.014   5.170  0.5366 -0.2927 -0.3193
  113OSM   C17S11701   2.861   2.028   5.039 -0.3434 -0.6497  0.9811
  113OSM   H17S11702   2.885   1.920   5.041 -1.7804 -1.0501 -0.8134
  113OSM   H17T11703   2.950   2.094   5.028 -0.7668  0.2189  2.4662
  113OSM   C18S11704   2.765   2.055   4.922 -0.5575 -0.5301 -0.0435
  113OSM   H18S11705   2.727   2.160   4.920  0.6956 -0.0059  1.4299
  113OSM   H18T11706   2.684   1.980   4.910  0.1470 -0.9863 -2.3318
  113OSM   H18U11707   2.827   2.045   4.831 -1.4788 -0.0090 -0.7461
  113OSM    C1F11708   2.629   1.547   6.710  0.2264 -0.0468  0.2979
  113OSM     OF11709   2.549   1.551   6.804 -0.1920  0.0302 -0.1371
  113OSM    C2F11710   2.617   1.438   6.608 -0.0388  0.1105 -0.0320
  113OSM    H2F11711   2.711   1.379   6.612 -0.8636 -1.1462  1.9556
  113OSM    H2G11712   2.606   1.483   6.507 -0.8521  0.0988  0.0504
  113OSM    C3F11713   2.493   1.352   6.645 -0.0006  0.5621 -0.1570
  113OSM    H3F11714   2.409   1.410   6.688 -0.5533 -0.7215  0.5360
  113OSM    H3G11715   2.531   1.284   6.724 -1.1144 -0.3997 -0.4147
  113OSM    C4F11716   2.436   1.267   6.527  0.2492 -0.2719  0.6018
  113OSM    H4F11717   2.372   1.186   6.568  0.1847 -0.6798 -0.2846
  113OSM    H4G11718   2.523   1.223   6.476  0.6379  0.9328  0.1869
  113OSM    C5F11719   2.362   1.347   6.421  0.1080  0.2530  0.4057
  113OSM    H5F11720   2.412   1.444   6.399 -1.4670  0.9018 -0.4365
  113OSM    H5G11721   2.261   1.380   6.449 -1.1093 -2.2703 -0.6545
  113OSM    C6F11722   2.350   1.265   6.293 -0.1232 -0.4065 -0.4527
  113OSM    H6F11723   2.317   1.161   6.315  2.2204 -1.0966  0.0906
  113OSM    H6G11724   2.454   1.253   6.254 -0.0262  0.7618 -0.5720
  113OSM    C7F11725   2.262   1.333   6.190  0.5537  0.1886  0.6713
  113OSM    H7F11726   2.295   1.439   6.186 -1.4495  0.9359  2.3628
  113OSM    H7G11727   2.160   1.334   6.233  1.0866 -0.1188  1.9885
  113OSM    C8F11728   2.263   1.261   6.052  0.6588 -0.1036 -0.2809
  113OSM    H8F11729   2.190   1.319   5.990  0.4454 -1.9925 -1.9204
  113OSM    H8G11730   2.211   1.166   6.077 -0.7051  0.7780  0.3776
  113OSM    C9F11731   2.388   1.251   5.984  0.0319  0.8040 -0.4365
  113OSM    H9F11732   2.464   1.201   6.045 -0.0220  1.4049  0.1388
  113OSM   C10F11733   2.410   1.291   5.858  0.1139 -0.2215  0.2767
  113OSM   H10F11734   2.513   1.289   5.818 -1.4175 -1.4373 -4.1093
  113OSM   C11F11735   2.323   1.369   5.763 -0.7029  0.2096 -0.4881
  113OSM   H11F11736   2.394   1.447   5.726  2.7382 -2.2200  0.4753
  113OSM   H11G11737   2.238   1.417   5.816 -0.1885 -0.1513  0.7097
  113OSM   C12F11738   2.281   1.293   5.642 -0.3808 -1.0008  0.1088
  113OSM   H12F11739   2.219   1.361   5.579  0.6690  3.2942  3.2091
  113OSM   H12G11740   2.215   1.214   5.683  0.7075 -1.9390  0.1081
  113OSM   C13F11741   2.395   1.243   5.550  0.6688 -0.1226  0.1019
  113OSM   H13F11742   2.459   1.164   5.594 -1.8783 -2.6666 -0.3776
  113OSM   H13G11743   2.461   1.328   5.527 -0.7224  1.2218  0.8738
  113OSM   C14F11744   2.333   1.196   5.417 -0.5692  0.4494  0.9850
  113OSM   H14F11745   2.278   1.278   5.365 -1.0569  0.3847  1.3942
  113OSM   H14G11746   2.263   1.109   5.422  0.4681 -0.8831 -3.0392
  113OSM   C15F11747   2.443   1.144   5.314 -0.0464  0.5823 -0.1809
  113OSM   H15F11748   2.506   1.071   5.368 -1.1559 -0.9783 -0.8888
  113OSM   H15G11749   2.494   1.236   5.281 -0.0858  1.3188  1.6908
  113OSM   C16F11750   2.377   1.079   5.192 -0.0613 -0.7618 -0.9115
  113OSM   H16F11751   2.322   1.158   5.137  0.0557 -0.3492 -0.4440
  113OSM   H16G11752   2.304   1.002   5.225 -0.3279 -0.1840 -0.1360
  113OSM   C17F11753   2.477   1.016   5.091 -0.3462  0.3161  0.7845
  113OSM   H17F11754   2.557   1.087   5.062 -2.0530  1.8717 -0.3422
  113OSM   H17G11755   2.425   0.999   4.994  0.1500 -0.3391  0.6307
  113OSM   C18F11756   2.539   0.879   5.115 -0.4280 -0.4687 -0.4880
  113OSM   H18F11757   2.539   0.798   5.039  0.7601 -1.7827  0.8472
  113OSM   H18G11758   2.490   0.835   5.205 -2.0511 -0.3958 -1.2931
  113OSM   H18H11759   2.648   0.889   5.135  0.1934 -1.1650 -3.0623
  114OSM      N11760   4.150   0.206   7.370  0.5093  0.0951  0.0491
  114OSM    C1511761   4.191   0.351   7.370  0.8425  0.5082 -0.4386
  114OSM   H15A11762   4.114   0.416   7.331  1.2129  1.1182 -0.1643
  114OSM   H15B11763   4.276   0.364   7.304 -0.1650 -1.2849 -2.1764
  114OSM   H15C11764   4.222   0.383   7.469 -2.2505  0.9950  0.4738
  114OSM    C1411765   4.264   0.124   7.428 -0.3645  0.2651  0.6193
  114OSM   H14A11766   4.240   0.019   7.432 -1.0022  0.3040 -1.4321
  114OSM   H14B11767   4.297   0.168   7.521 -1.1498 -1.3344  1.6898
  114OSM   H14C11768   4.351   0.118   7.364 -0.4230  0.2596  0.5390
  114OSM    C1311769   4.035   0.200   7.459 -0.2418  0.9484  0.2275
  114OSM   H13A11770   3.955   0.265   7.428 -1.9978 -1.8918 -1.6796
  114OSM   H13B11771   4.061   0.221   7.562 -1.6148  3.6477  0.1066
  114OSM   H13C11772   3.990   0.102   7.455 -0.8959  1.2603 -0.2141
  114OSM    C1211773   4.113   0.154   7.232 -0.6635  0.1017  0.0358
  114OSM   H12A11774   4.086   0.050   7.231 -2.9014  0.6359  0.6423
  114OSM   H12B11775   4.202   0.165   7.171  0.4571  1.3286  1.8192
  114OSM    C1111776   4.004   0.225   7.153  0.6812 -0.0725  0.5401
  114OSM   H11A11777   3.908   0.227   7.208 -0.7778 -0.4005 -1.8445
  114OSM   H11B11778   3.992   0.170   7.057  1.2267  0.9931 -0.1543
  114OSM      P11779   3.935   0.484   7.108 -0.0321 -0.1190  0.2363
  114OSM    O1311780   3.837   0.472   7.219 -0.5830 -0.3071  0.9220
  114OSM    O1411781   4.018   0.605   7.105  0.3515  0.4567 -0.0226
  114OSM    O1111782   3.864   0.474   6.969  0.0682 -0.0587  0.1783
  114OSM    O1211783   4.029   0.353   7.115 -0.0088 -0.8136  0.0921
  114OSM    C1S11784   3.913   0.399   6.857 -0.8049  0.2440  0.6337
  114OSM    H1S11785   3.866   0.300   6.875 -0.1046  0.2465  2.7109
  114OSM    H1T11786   4.024   0.395   6.861 -0.6094  1.6824 -1.7214
  114OSM     NF11787   3.868   0.368   6.607  0.1304 -0.1927  0.0077
  114OSM    HNF11788   3.932   0.395   6.535 -1.9083  1.2850 -1.3662
  114OSM    C2S11789   3.851   0.459   6.726 -0.0735  0.1349 -0.0864
  114OSM    H2S11790   3.742   0.455   6.749  0.0116 -4.5845  0.4532
  114OSM    C3S11791   3.895   0.601   6.700 -0.1003 -0.2101 -0.0670
  114OSM    H3S11792   4.005   0.592   6.705 -0.1466 -1.1914 -0.6749
  114OSM     O311793   3.857   0.699   6.802  0.3579 -0.2418  0.2599
  114OSM    HO311794   3.826   0.642   6.873 -0.6148 -0.4982 -0.3544
  114OSM    C4S11795   3.866   0.647   6.562  0.4890 -0.4663 -0.1282
  114OSM    H4S11796   3.946   0.637   6.487 -0.3428 -1.3535 -0.9318
  114OSM    C5S11797   3.758   0.704   6.504  0.2621 -0.4317 -0.2047
  114OSM    H5S11798   3.670   0.728   6.566 -0.1738 -1.2022 -0.5158
  114OSM    C6S11799   3.742   0.745   6.358 -0.1396 -0.2177 -0.6806
  114OSM    H6S11800   3.713   0.852   6.348 -0.4522 -0.4217 -2.2904
  114OSM    H6T11801   3.653   0.691   6.319 -0.9564  1.1161 -0.7194
  114OSM    C7S11802   3.871   0.739   6.273 -0.6760  1.1047 -0.3470
  114OSM    H7S11803   3.897   0.631   6.273 -4.7688 -0.1275  2.3113
  114OSM    H7T11804   3.946   0.795   6.333 -0.3314 -0.2451  0.5433
  114OSM    C8S11805   3.866   0.791   6.132  0.7218  0.3287 -0.5860
  114OSM    H8S11806   3.965   0.783   6.082 -0.0053 -1.5210 -1.8914
  114OSM    H8T11807   3.829   0.895   6.132 -2.2351 -0.6285 -1.3504
  114OSM    C9S11808   3.755   0.709   6.053  0.4216 -0.3704 -0.4180
  114OSM    H9S11809   3.673   0.745   6.119  0.0574  1.5912 -1.8555
  114OSM    H9T11810   3.767   0.601   6.076  0.2510 -0.2799  0.1157
  114OSM   C10S11811   3.728   0.745   5.913 -0.1763 -0.3911  0.0312
  114OSM   H10S11812   3.626   0.703   5.894 -0.3826 -0.5952  1.4946
  114OSM   H10T11813   3.788   0.686   5.840 -1.6128 -1.2384 -0.5172
  114OSM   C11S11814   3.752   0.882   5.855  0.3404 -0.3905 -0.9769
  114OSM   H11S11815   3.852   0.929   5.863 -0.4462  1.0509  2.2317
  114OSM   H11T11816   3.686   0.953   5.911  0.0019  0.0199 -1.8698
  114OSM   C12S11817   3.719   0.885   5.706  0.3189 -0.1448 -0.1100
  114OSM   H12S11818   3.702   0.989   5.672 -3.4178 -0.9113 -1.0062
  114OSM   H12T11819   3.622   0.835   5.684  0.1499 -0.2531  0.8329
  114OSM   C13S11820   3.834   0.835   5.605  0.2729 -0.0008 -0.0785
  114OSM   H13S11821   3.882   0.747   5.653  1.5928  0.5018 -0.4404
  114OSM   H13T11822   3.903   0.920   5.584  0.5390 -0.3067 -0.4534
  114OSM   C14S11823   3.775   0.781   5.473  0.5802 -0.6011 -0.1045
  114OSM   H14S11824   3.722   0.869   5.433 -0.4074 -1.7866 -1.5298
  114OSM   H14T11825   3.703   0.697   5.485 -2.3223  1.7837  0.2914
  114OSM   C15S11826   3.877   0.737   5.367  0.1516  0.0480 -0.5585
  114OSM   H15S11827   3.963   0.696   5.423  0.2479  1.0256  0.0358
  114OSM   H15T11828   3.915   0.831   5.320 -0.4432  1.1838  1.1436
  114OSM   C16S11829   3.829   0.632   5.262  0.3065  0.4440 -0.4667
  114OSM   H16S11830   3.738   0.651   5.203  2.5241 -0.7453 -4.6689
  114OSM   H16T11831   3.815   0.540   5.322 -3.4762  0.3905 -1.1824
  114OSM   C17S11832   3.939   0.602   5.163 -0.1478  0.9036  0.0502
  114OSM   H17S11833   3.922   0.501   5.120 -2.3423  0.8875  0.8361
  114OSM   H17T11834   4.030   0.592   5.226  0.6577 -0.8412 -1.2971
  114OSM   C18S11835   3.946   0.710   5.057 -0.1529  0.1262  0.3852
  114OSM   H18S11836   4.042   0.703   5.002 -0.3650  0.5537 -0.0467
  114OSM   H18T11837   3.928   0.813   5.094  0.2646  1.2769 -2.3299
  114OSM   H18U11838   3.860   0.708   4.986  0.3309  0.4330 -0.2190
  114OSM    C1F11839   3.811   0.250   6.597 -1.0138  0.3754 -0.3760
  114OSM     OF11840   3.725   0.216   6.675  0.1906 -0.4545  0.2938
  114OSM    C2F11841   3.864   0.149   6.493 -0.1761  0.0052  0.1392
  114OSM    H2F11842   3.934   0.075   6.537  0.8375  0.6067 -0.4363
  114OSM    H2G11843   3.935   0.196   6.422  2.6227 -2.6435  0.9978
  114OSM    C3F11844   3.755   0.101   6.392 -0.2499  0.3026 -0.3809
  114OSM    H3F11845   3.687   0.026   6.436  1.7668 -1.3957 -0.0022
  114OSM    H3G11846   3.822   0.031   6.338  0.6094 -0.7295  1.9098
  114OSM    C4F11847   3.680   0.206   6.304  0.6772  0.2259  0.0685
  114OSM    H4F11848   3.627   0.266   6.381 -0.3602 -1.3476  0.6348
  114OSM    H4G11849   3.603   0.148   6.248  2.3527 -0.8468 -1.2410
  114OSM    C5F11850   3.768   0.282   6.196  0.0487  0.7942 -0.2990
  114OSM    H5F11851   3.859   0.327   6.242 -1.1229 -0.1944  3.3496
  114OSM    H5G11852   3.706   0.361   6.148 -3.4915 -2.4866 -1.6928
  114OSM    C6F11853   3.809   0.193   6.073  0.0420 -0.3008 -0.6712
  114OSM    H6F11854   3.823   0.089   6.110 -0.2871  0.3354  1.3435
  114OSM    H6G11855   3.906   0.227   6.032  1.3795 -1.9795  0.9411
  114OSM    C7F11856   3.707   0.194   5.961 -0.0014  0.5522  0.2483
  114OSM    H7F11857   3.710   0.292   5.910 -0.2775  0.7148  0.5394
  114OSM    H7G11858   3.609   0.193   6.014 -0.2187  0.2359 -0.1454
  114OSM    C8F11859   3.707   0.076   5.858 -1.0759 -0.3423  0.4257
  114OSM    H8F11860   3.616   0.094   5.795 -0.6502 -0.8394 -0.3522
  114OSM    H8G11861   3.702  -0.011   5.926  1.2685  1.6834  3.4486
  114OSM    C9F11862   3.838   0.079   5.780  0.9275  0.0808 -0.0145
  114OSM    H9F11863   3.909  -0.000   5.808 -0.1930 -1.0503 -0.2734
  114OSM   C10F11864   3.866   0.158   5.672  0.2637 -0.1131  0.2223
  114OSM   H10F11865   3.966   0.165   5.626  1.0909  0.4031  2.0049
  114OSM   C11F11866   3.779   0.267   5.619 -0.3489  0.0690 -0.2834
  114OSM   H11F11867   3.826   0.365   5.640  1.9408 -0.7511 -1.2174
  114OSM   H11G11868   3.674   0.256   5.653 -0.8311  0.7490 -1.5055
  114OSM   C12F11869   3.780   0.264   5.462 -0.3088 -0.2763 -0.1980
  114OSM   H12F11870   3.872   0.298   5.410  0.9532 -0.9589  1.4723
  114OSM   H12G11871   3.702   0.332   5.421 -0.0179 -0.1678 -0.5695
  114OSM   C13F11872   3.748   0.122   5.403  0.3360  0.2536 -0.1317
  114OSM   H13F11873   3.658   0.076   5.449  0.0891  0.4978 -0.3594
  114OSM   H13G11874   3.826   0.044   5.410 -1.0711 -1.1436  0.5842
  114OSM   C14F11875   3.717   0.137   5.252 -0.5106 -0.2989  0.1681
  114OSM   H14F11876   3.796   0.202   5.209 -1.0636  0.2638 -0.0067
  114OSM   H14G11877   3.624   0.196   5.237 -1.3226 -1.0375  2.0732
  114OSM   C15F11878   3.704   0.013   5.163 -0.1016 -0.1803 -0.2843
  114OSM   H15F11879   3.647   0.048   5.074  1.1925 -1.4389 -1.6495
  114OSM   H15G11880   3.657  -0.071   5.220 -1.0028  1.8981  2.2752
  114OSM   C16F11881   3.828  -0.046   5.094 -0.4662 -1.1667 -0.3930
  114OSM   H16F11882   3.875   0.031   5.029  2.6473 -1.5651  1.1642
  114OSM   H16G11883   3.794  -0.134   5.034  1.5314 -2.7932  0.7074
  114OSM   C17F11884   3.928  -0.099   5.198  0.7355 -0.1264  0.0269
  114OSM   H17F11885   3.881  -0.184   5.253 -1.1192  0.8734  0.0528
  114OSM   H17G11886   3.962  -0.013   5.259 -0.7015  1.2561 -1.0555
  114OSM   C18F11887   4.054  -0.161   5.128 -0.3082 -0.2367  0.5349
  114OSM   H18F11888   4.121  -0.082   5.088 -1.3735  1.0563  1.2133
  114OSM   H18G11889   4.028  -0.233   5.047 -1.0687 -0.2317  0.7688
  114OSM   H18H11890   4.126  -0.199   5.203  0.2790  2.3648  1.3898
  115OSM      N11891   1.753   0.617   7.420 -0.2454  0.1442 -0.3875
  115OSM    C1511892   1.630   0.579   7.497 -0.6143  0.1857  0.0296
  115OSM   H15A11893   1.555   0.532   7.435 -1.4334 -0.7349  1.6567
  115OSM   H15B11894   1.577   0.660   7.545  1.6872  2.2915 -0.7743
  115OSM   H15C11895   1.644   0.502   7.571  0.0083 -0.1141 -0.3938
  115OSM    C1411896   1.852   0.672   7.521  0.0048  0.3302  0.6317
  115OSM   H14A11897   1.820   0.770   7.552 -0.8094 -0.1539  1.3421
  115OSM   H14B11898   1.939   0.690   7.459 -0.7498  2.5099  0.1139
  115OSM   H14C11899   1.857   0.604   7.604 -0.2092 -0.5905 -0.0926
  115OSM    C1311900   1.812   0.497   7.349 -0.5656  0.5467  0.0329
  115OSM   H13A11901   1.839   0.409   7.406  0.5931 -0.4362 -1.9285
  115OSM   H13B11902   1.905   0.520   7.299 -0.0093 -2.0293 -0.2992
  115OSM   H13C11903   1.746   0.458   7.274 -0.8330 -1.8356  1.3843
  115OSM    C1211904   1.730   0.725   7.313  0.1507  0.0137 -0.1651
  115OSM   H12A11905   1.825   0.757   7.273  1.4558  0.5263  3.0162
  115OSM   H12B11906   1.688   0.814   7.358 -1.3472  0.9157 -3.1051
  115OSM    C1111907   1.634   0.701   7.194  0.5809  0.0304  0.8369
  115OSM   H11A11908   1.639   0.593   7.169  3.1809  0.3684 -0.3970
  115OSM   H11B11909   1.668   0.757   7.104  0.2725 -0.9940  0.0695
  115OSM      P11910   1.451   0.874   7.244 -0.2271  0.3657 -0.3180
  115OSM    O1311911   1.354   0.870   7.357  0.0351 -0.2984 -1.0693
  115OSM    O1411912   1.559   0.974   7.255  0.2032  0.1412  0.8330
  115OSM    O1111913   1.375   0.893   7.110 -0.0278  0.9894  0.6296
  115OSM    O1211914   1.502   0.727   7.236  0.8702 -0.2747 -0.4996
  115OSM    C1S11915   1.437   0.945   6.986  0.4726  1.3936 -0.4663
  115OSM    H1S11916   1.547   0.953   7.004  0.3704 -0.5563  1.4615
  115OSM    H1T11917   1.408   1.051   6.973 -1.7273  0.8926 -0.0508
  115OSM     NF11918   1.474   0.927   6.747 -0.7157 -0.1250  0.4587
  115OSM    HNF11919   1.425   0.999   6.699 -1.2798 -0.5880  0.3349
  115OSM    C2S11920   1.405   0.860   6.861  0.2073 -1.3611 -0.0994
  115OSM    H2S11921   1.436   0.755   6.876 -1.6860 -1.6165  2.6138
  115OSM    C3S11922   1.253   0.857   6.836  0.3173  0.4689  0.8323
  115OSM    H3S11923   1.238   0.962   6.804  0.8695 -0.0593 -1.3111
  115OSM     O311924   1.165   0.855   6.952  0.0511 -0.2262  0.2540
  115OSM    HO311925   1.228   0.874   7.022 -1.4259 -2.6834  2.4245
  115OSM    C4S11926   1.210   0.784   6.722  0.0782 -0.2730  0.5092
  115OSM    H4S11927   1.236   0.832   6.627 -2.0209 -0.5921 -0.2984
  115OSM    C5S11928   1.147   0.664   6.717  0.4274  0.1399  0.0445
  115OSM    H5S11929   1.119   0.609   6.808  3.1652  1.2471  1.6866
  115OSM    C6S11930   1.114   0.596   6.588 -0.4278  0.4093  0.0866
  115OSM    H6S11931   1.013   0.616   6.546 -0.7889 -1.6331 -0.1567
  115OSM    H6T11932   1.110   0.487   6.612  0.4295  0.5057  0.7138
  115OSM    C7S11933   1.208   0.617   6.469  0.6171  0.4344  0.4629
  115OSM    H7S11934   1.315   0.616   6.497  1.5743  1.5083 -2.7827
  115OSM    H7T11935   1.201   0.718   6.422  1.3481 -0.1797 -1.0337
  115OSM    C8S11936   1.198   0.509   6.358 -1.2032  0.0637 -0.1004
  115OSM    H8S11937   1.088   0.498   6.366 -1.1371  0.3208  1.4926
  115OSM    H8T11938   1.242   0.416   6.399 -1.6855 -0.0919  0.0637
  115OSM    C9S11939   1.258   0.544   6.227  1.1097 -1.2432  0.1889
  115OSM    H9S11940   1.262   0.458   6.158  3.8598  0.3318 -1.7960
  115OSM    H9T11941   1.362   0.574   6.253 -0.1594  1.8630  2.3992
  115OSM   C10S11942   1.178   0.646   6.143 -0.4269 -0.4653 -0.3471
  115OSM   H10S11943   1.149   0.742   6.191  1.4420 -0.9639  1.9681
  115OSM   H10T11944   1.087   0.586   6.122  0.6646 -2.1325 -0.5439
  115OSM   C11S11945   1.257   0.684   6.019 -0.0914  0.2615 -0.5763
  115OSM   H11S11946   1.364   0.693   6.050 -0.2010  2.7515 -0.7548
  115OSM   H11T11947   1.218   0.782   5.985  0.5470  1.5155  2.0513
  115OSM   C12S11948   1.250   0.583   5.909  0.1141 -0.8890  0.3091
  115OSM   H12S11949   1.253   0.483   5.957 -0.5998 -0.4157  1.3861
  115OSM   H12T11950   1.334   0.593   5.837 -0.4808 -1.9251 -0.5714
  115OSM   C13S11951   1.128   0.600   5.820 -0.2874 -0.3071 -0.3633
  115OSM   H13S11952   1.044   0.616   5.891 -2.0652  1.2263 -2.7020
  115OSM   H13T11953   1.110   0.507   5.762  0.0118 -0.7776  0.2729
  115OSM   C14S11954   1.150   0.721   5.730  0.1376 -0.6558  0.1541
  115OSM   H14S11955   1.246   0.718   5.673  1.0739 -1.1373  1.7006
  115OSM   H14T11956   1.156   0.814   5.790  2.5361 -1.2371  0.9281
  115OSM   C15S11957   1.041   0.729   5.625  0.3211  0.0555  0.4397
  115OSM   H15S11958   0.944   0.754   5.674  0.2054  1.5546 -0.4586
  115OSM   H15T11959   1.035   0.630   5.575  3.4379 -0.3642  0.7397
  115OSM   C16S11960   1.056   0.834   5.515 -0.5665 -0.0903  0.4172
  115OSM   H16S11961   1.147   0.814   5.454 -0.5121  1.3417 -0.0114
  115OSM   H16T11962   1.072   0.936   5.556 -0.4561  0.3293 -0.6415
  115OSM   C17S11963   0.944   0.842   5.415 -0.2664  0.2018 -0.1666
  115OSM   H17S11964   0.859   0.791   5.465  1.0464 -0.9912  0.9087
  115OSM   H17T11965   0.979   0.783   5.328 -0.2766  0.2965 -0.2357
  115OSM   C18S11966   0.907   0.989   5.376  0.3083 -0.4735  0.5444
  115OSM   H18S11967   0.801   1.000   5.344  0.5671 -1.6283 -0.8148
  115OSM   H18T11968   0.981   1.027   5.302 -2.3110  0.6286 -1.7040
  115OSM   H18U11969   0.913   1.056   5.464  1.1644 -0.2676  0.3457
  115OSM    C1F11970   1.604   0.903   6.734  0.4079 -0.3774 -0.3920
  115OSM     OF11971   1.666   0.834   6.810 -0.3715  0.0559  0.1573
  115OSM    C2F11972   1.674   0.984   6.634 -0.5985  0.2606 -0.2482
  115OSM    H2F11973   1.749   1.049   6.683  0.9885 -0.6200 -1.3922
  115OSM    H2G11974   1.607   1.039   6.565 -1.9450 -0.5621  0.3423
  115OSM    C3F11975   1.741   0.883   6.529  0.2322 -0.2823 -0.0334
  115OSM    H3F11976   1.832   0.846   6.581 -0.7952  0.2175  2.2144
  115OSM    H3G11977   1.779   0.935   6.438  1.5452 -1.0996  0.0088
  115OSM    C4F11978   1.643   0.774   6.476 -0.1008 -0.1167 -0.0433
  115OSM    H4F11979   1.545   0.818   6.447  0.3337  2.1695  1.5810
  115OSM    H4G11980   1.633   0.707   6.564  1.8555 -0.6761 -0.2119
  115OSM    C5F11981   1.705   0.702   6.357  0.8591 -0.2172 -0.3148
  115OSM    H5F11982   1.665   0.599   6.347  0.0208  0.1532 -0.9358
  115OSM    H5G11983   1.812   0.692   6.386  0.7209  0.6842  0.5460
  115OSM    C6F11984   1.676   0.769   6.225  0.5324 -1.9848  0.3407
  115OSM    H6F11985   1.762   0.839   6.214 -0.3777 -0.6487  1.4197
  115OSM    H6G11986   1.580   0.823   6.238  1.6309 -0.1542  1.1608
  115OSM    C7F11987   1.693   0.682   6.101 -0.1474 -0.6673 -1.6088
  115OSM    H7F11988   1.610   0.612   6.077 -0.6478 -1.3524  1.6317
  115OSM    H7G11989   1.779   0.617   6.126 -0.2229  0.0000  0.6624
  115OSM    C8F11990   1.730   0.763   5.974 -0.1100 -0.7904  0.1849
  115OSM    H8F11991   1.750   0.684   5.899 -2.7025  0.0389 -1.5373
  115OSM    H8G11992   1.828   0.812   5.991  1.2521 -2.2001 -2.8624
  115OSM    C9F11993   1.606   0.853   5.945 -0.2201 -0.2985 -0.4541
  115OSM    H9F11994   1.557   0.894   6.035 -0.4920 -0.3173 -0.5931
  115OSM   C10F11995   1.545   0.873   5.824  0.2289  0.0990  0.3019
  115OSM   H10F11996   1.457   0.939   5.821  0.4332  0.3447 -0.7788
  115OSM   C11F11997   1.587   0.799   5.703 -0.5225 -0.6105 -0.4888
  115OSM   H11F11998   1.582   0.690   5.724 -1.5859  0.0180  3.2201
  115OSM   H11G11999   1.693   0.816   5.674  0.2870 -0.6256  2.2033
  115OSM   C12F12000   1.514   0.821   5.570 -0.2340 -0.1837  0.6805
  115OSM   H12F12001   1.521   0.927   5.538  0.3549 -0.5304 -0.4043
  115OSM   H12G12002   1.407   0.792   5.579 -0.7681  1.6884  0.7386
  115OSM   C13F12003   1.573   0.731   5.459  0.0942 -0.3575  0.0731
  115OSM   H13F12004   1.621   0.646   5.512 -1.1015 -0.3413  1.2139
  115OSM   H13G12005   1.657   0.782   5.408 -0.7098 -0.1425 -1.0984
  115OSM   C14F12006   1.490   0.686   5.334  0.0692 -0.2757  0.3793
  115OSM   H14F12007   1.419   0.605   5.358  0.3540 -1.7963 -3.2937
  115OSM   H14G12008   1.556   0.634   5.261 -1.8202 -0.5225 -1.2242
  115OSM   C15F12009   1.415   0.799   5.275 -0.3081 -0.1775 -0.0964
  115OSM   H15F12010   1.482   0.883   5.246 -0.3666  0.9852  2.7977
  115OSM   H15G12011   1.357   0.840   5.360 -2.6477 -1.4426 -0.9917
  115OSM   C16F12012   1.302   0.759   5.181  0.3930  0.2830  0.0993
  115OSM   H16F12013   1.239   0.690   5.241  0.1277  0.8178  0.4511
  115OSM   H16G12014   1.338   0.699   5.095  0.2749  0.3950 -0.0272
  115OSM   C17F12015   1.233   0.881   5.131  0.7727  0.1409  0.0052
  115OSM   H17F12016   1.213   0.941   5.223  1.2302 -2.7013  2.0989
  115OSM   H17G12017   1.136   0.847   5.088  0.9560 -1.6413  0.9040
  115OSM   C18F12018   1.328   0.949   5.025 -0.0767 -0.4269  0.3671
  115OSM   H18F12019   1.435   0.944   5.055  0.6958 -2.2561 -2.3405
  115OSM   H18G12020   1.303   1.051   4.990  1.8827  0.0724  0.2827
  115OSM   H18H12021   1.326   0.886   4.933 -0.4624 -0.8903  0.6881
  116OSM      N12022   4.662   0.166   6.832 -0.2860 -0.3427 -0.3990
  116OSM    C1512023   4.758   0.164   6.936 -0.1754 -0.6221 -0.7157
  116OSM   H15A12024   4.808   0.069   6.934 -2.3226 -1.7998 -0.4897
  116OSM   H15B12025   4.719   0.181   7.036  0.9664 -0.6004 -0.2589
  116OSM   H15C12026   4.823   0.250   6.922 -2.4141  1.2561 -0.3181
  116OSM    C1412027   4.593   0.295   6.821  0.3688 -0.5932 -0.0127
  116OSM   H14A12028   4.513   0.287   6.750  2.5274  1.1793 -2.8899
  116OSM   H14B12029   4.652   0.382   6.794 -1.1898  0.0103 -1.6512
  116OSM   H14C12030   4.563   0.323   6.921  0.8277  0.5498 -0.1783
  116OSM    C1312031   4.737   0.129   6.705  0.1337  0.0398 -0.3201
  116OSM   H13A12032   4.829   0.182   6.687  1.9076 -3.4041 -2.6292
  116OSM   H13B12033   4.682   0.160   6.617  1.0196 -0.7021 -1.1555
  116OSM   H13C12034   4.769   0.026   6.702 -0.2437 -0.0615 -2.1913
  116OSM    C1212035   4.560   0.057   6.865  0.1476 -0.7054 -0.1369
  116OSM   H12A12036   4.508   0.086   6.955 -0.4191 -0.8017 -0.4285
  116OSM   H12B12037   4.615  -0.032   6.892 -0.9632 -1.7499 -1.1844
  116OSM    C1112038   4.473   0.008   6.746  0.1686 -0.5936  0.2659
  116OSM   H11A12039   4.404  -0.074   6.774  0.8665 -0.2435  3.5060
  116OSM   H11B12040   4.542  -0.033   6.670  0.3820 -1.9441  1.1613
  116OSM      P12041   4.257   0.144   6.741  0.6332  0.0032  0.2179
  116OSM    O1312042   4.174   0.053   6.655 -0.1125 -0.5997  0.2042
  116OSM    O1412043   4.242   0.141   6.885  0.6484  0.3808 -0.7435
  116OSM    O1112044   4.240   0.294   6.697 -0.0328 -0.6714  0.0530
  116OSM    O1212045   4.399   0.119   6.704  0.4908  0.1642 -0.2268
  116OSM    C1S12046   4.269   0.333   6.563  0.1382  0.3796 -0.3732
  116OSM    H1S12047   4.194   0.297   6.489  1.5267  1.7187 -2.5393
  116OSM    H1T12048   4.364   0.285   6.533 -0.1529 -2.1692  2.2148
  116OSM     NF12049   4.291   0.496   6.381 -0.1530 -0.7633  0.3569
  116OSM    HNF12050   4.380   0.510   6.339  0.5280 -0.8547  1.7125
  116OSM    C2S12051   4.278   0.482   6.528 -0.6453 -0.1772  0.0986
  116OSM    H2S12052   4.185   0.536   6.556 -1.3163 -0.2331 -1.8568
  116OSM    C3S12053   4.389   0.549   6.611  0.0281 -0.0610 -0.2086
  116OSM    H3S12054   4.490   0.513   6.581  0.5115  1.3775 -0.3730
  116OSM     O312055   4.377   0.530   6.754  0.3957  0.3465 -0.5872
  116OSM    HO312056   4.315   0.461   6.777  0.9780  0.2686  0.8545
  116OSM    C4S12057   4.403   0.699   6.579 -0.2204 -0.2976  0.5079
  116OSM    H4S12058   4.476   0.718   6.499  0.9084 -0.7756  1.3961
  116OSM    C5S12059   4.340   0.816   6.614  0.2577 -0.5556 -0.5615
  116OSM    H5S12060   4.254   0.823   6.682  1.6298 -2.4701  1.5152
  116OSM    C6S12061   4.381   0.946   6.558  0.3835  0.1291  0.6809
  116OSM    H6S12062   4.490   0.952   6.534  1.1531 -0.7753  3.6091
  116OSM    H6T12063   4.365   1.035   6.622  0.5075  0.4704  0.2451
  116OSM    C7S12064   4.299   0.974   6.428  0.6562 -0.3926  0.1808
  116OSM    H7S12065   4.329   1.079   6.407  0.0532 -0.3636 -0.5855
  116OSM    H7T12066   4.193   0.976   6.459  0.7122 -1.1033  0.4275
  116OSM    C8S12067   4.315   0.876   6.309 -0.4445  0.9873 -0.4239
  116OSM    H8S12068   4.276   0.779   6.344 -2.6727  2.2034  0.6318
  116OSM    H8T12069   4.424   0.866   6.291 -0.7711 -1.6847 -1.2409
  116OSM    C9S12070   4.237   0.915   6.187  0.2973 -0.5862 -0.1095
  116OSM    H9S12071   4.229   1.025   6.177  0.1217 -0.5602  0.2977
  116OSM    H9T12072   4.136   0.872   6.204  0.7443 -1.2676  0.9659
  116OSM   C10S12073   4.295   0.864   6.052 -0.2730  0.2785  0.8788
  116OSM   H10S12074   4.316   0.755   6.051 -2.3993 -0.1730  0.1645
  116OSM   H10T12075   4.390   0.915   6.024  0.3826 -1.6505 -0.6516
  116OSM   C11S12076   4.211   0.892   5.921  0.9056  0.2018 -0.3895
  116OSM   H11S12077   4.184   0.999   5.911 -1.3518 -0.3620 -0.9613
  116OSM   H11T12078   4.112   0.840   5.920 -0.6641  2.9791 -0.4657
  116OSM   C12S12079   4.278   0.838   5.791  0.0864  0.0430 -0.6842
  116OSM   H12S12080   4.315   0.737   5.817 -0.7680 -0.1312 -0.0742
  116OSM   H12T12081   4.375   0.891   5.783  0.2924 -0.1747  0.2427
  116OSM   C13S12082   4.199   0.860   5.662 -0.6111  0.3022  0.7471
  116OSM   H13S12083   4.143   0.957   5.666 -0.6321  0.2995  0.4749
  116OSM   H13T12084   4.117   0.787   5.647 -1.7202  1.4651  0.9085
  116OSM   C14S12085   4.286   0.869   5.536  0.6473 -0.0908 -0.2371
  116OSM   H14S12086   4.341   0.772   5.529 -0.8495 -1.0048  0.2318
  116OSM   H14T12087   4.365   0.947   5.540  2.1893 -1.5120 -1.4609
  116OSM   C15S12088   4.201   0.889   5.414 -0.1284  0.1236  0.1118
  116OSM   H15S12089   4.117   0.959   5.431 -1.0129 -0.9499  0.2897
  116OSM   H15T12090   4.158   0.788   5.396  3.2029 -1.7579  1.7836
  116OSM   C16S12091   4.279   0.922   5.284  0.7114  0.1413  0.1957
  116OSM   H16S12092   4.327   0.831   5.243 -1.0951  0.3620 -2.7291
  116OSM   H16T12093   4.354   1.002   5.298  1.5772 -0.3927 -1.2399
  116OSM   C17S12094   4.184   0.987   5.180  0.6991  0.4496 -0.1691
  116OSM   H17S12095   4.138   1.078   5.225 -1.1334 -1.1281  1.3426
  116OSM   H17T12096   4.093   0.937   5.142  1.4342 -0.1978 -1.1400
  116OSM   C18S12097   4.264   1.028   5.054 -0.3638 -0.0876 -1.0375
  116OSM   H18S12098   4.342   1.100   5.088 -0.1461  0.1841 -2.0924
  116OSM   H18T12099   4.187   1.074   4.988  0.6142  3.3951  0.0281
  116OSM   H18U12100   4.310   0.939   5.006 -0.2271  0.5061 -2.0348
  116OSM    C1F12101   4.184   0.477   6.302 -0.7005  0.8767 -0.3969
  116OSM     OF12102   4.076   0.479   6.355 -0.3783 -0.0516 -0.7931
  116OSM    C2F12103   4.200   0.438   6.154  0.0364  0.0395  0.2641
  116OSM    H2F12104   4.173   0.330   6.154  4.0313 -1.1316 -0.1880
  116OSM    H2G12105   4.309   0.443   6.134  0.4028  0.3389  2.1285
  116OSM    C3F12106   4.109   0.520   6.061 -0.3953 -0.0432  0.8829
  116OSM    H3F12107   4.119   0.628   6.085  0.3672  0.0361  0.2538
  116OSM    H3G12108   4.000   0.511   6.081 -1.6042  2.5654 -3.4323
  116OSM    C4F12109   4.157   0.511   5.912 -0.0243 -0.3432 -0.5026
  116OSM    H4F12110   4.267   0.503   5.917  0.1102  1.5967  1.0875
  116OSM    H4G12111   4.128   0.598   5.849  2.5844  0.7992 -0.2387
  116OSM    C5F12112   4.104   0.385   5.854 -0.1283 -0.0997  0.0831
  116OSM    H5F12113   3.994   0.378   5.837 -0.1146 -5.1432  0.5107
  116OSM    H5G12114   4.117   0.300   5.925  0.1642  0.8613  1.2222
  116OSM    C6F12115   4.179   0.351   5.720  0.2008  0.0715 -0.2481
  116OSM    H6F12116   4.132   0.256   5.688 -1.6774  0.9615 -0.2679
  116OSM    H6G12117   4.289   0.339   5.733 -0.0058 -1.5274  0.1888
  116OSM    C7F12118   4.149   0.459   5.611  0.3049  0.4167 -0.7655
  116OSM    H7F12119   4.192   0.554   5.651  1.1639 -0.0777 -0.4979
  116OSM    H7G12120   4.043   0.476   5.580  1.3144  1.8713 -3.7446
  116OSM    C8F12121   4.225   0.422   5.484 -0.1263 -0.2423  0.0801
  116OSM    H8F12122   4.325   0.384   5.516 -0.6132 -0.0712  1.9299
  116OSM    H8G12123   4.248   0.510   5.421 -0.6935 -0.0457  0.1456
  116OSM    C9F12124   4.155   0.318   5.391  0.0353 -0.1462  0.0869
  116OSM    H9F12125   4.072   0.361   5.332  0.8426  1.7711  0.2594
  116OSM   C10F12126   4.182   0.181   5.381  0.5461  0.0597  0.5760
  116OSM   H10F12127   4.115   0.121   5.318  1.3535  0.3994 -0.6614
  116OSM   C11F12128   4.298   0.102   5.439  0.6767 -0.5060 -0.4348
  116OSM   H11F12129   4.251   0.021   5.499 -0.3120 -0.2632 -0.8688
  116OSM   H11G12130   4.358   0.167   5.506  0.2469 -0.4241 -0.1218
  116OSM   C12F12131   4.385   0.037   5.335  0.0001 -0.6341  0.1255
  116OSM   H12F12132   4.321  -0.038   5.284 -1.9792 -1.3693  3.3748
  116OSM   H12G12133   4.461  -0.024   5.388  0.0805  0.2747  1.0928
  116OSM   C13F12134   4.446   0.133   5.240 -1.1445  0.4194  0.2941
  116OSM   H13F12135   4.524   0.194   5.290 -2.1758  0.8853  1.3855
  116OSM   H13G12136   4.364   0.200   5.206 -1.5471  0.2284  0.8737
  116OSM   C14F12137   4.512   0.069   5.115  0.3263  0.0126 -0.0842
  116OSM   H14F12138   4.585  -0.009   5.148  0.9128  0.0254 -1.3154
  116OSM   H14G12139   4.565   0.145   5.054  0.9696 -0.2610  0.1264
  116OSM   C15F12140   4.411   0.003   5.012 -0.7043 -0.1409 -0.1748
  116OSM   H15F12141   4.321   0.066   4.992 -2.3204 -2.0381  0.7869
  116OSM   H15G12142   4.381  -0.095   5.055  2.1058 -0.4218  1.3608
  116OSM   C16F12143   4.476  -0.036   4.884  0.2007  0.0790 -0.3028
  116OSM   H16F12144   4.574  -0.085   4.902 -0.1626 -0.0784  1.3606
  116OSM   H16G12145   4.504   0.056   4.828 -1.2747  0.2782 -0.7424
  116OSM   C17F12146   4.384  -0.122   4.800  0.1685 -0.2726 -0.1275
  116OSM   H17F12147   4.404  -0.098   4.693 -3.7610 -3.1529 -1.7696
  116OSM   H17G12148   4.282  -0.093   4.832  1.5000  0.6858  3.7718
  116OSM   C18F12149   4.418  -0.275   4.820  0.7126 -0.1054 -0.2202
  116OSM   H18F12150   4.398  -0.303   4.925 -0.4965 -1.9226 -0.8961
  116OSM   H18G12151   4.519  -0.297   4.779  0.7671  1.2298 -0.8765
  116OSM   H18H12152   4.348  -0.327   4.752 -2.1317  2.2210  0.7309
  117OSM      N12153   1.905   2.157   6.914 -0.0938  0.4883  0.0823
  117OSM    C1512154   1.909   2.269   6.819  1.3443 -0.6011 -0.4063
  117OSM   H15A12155   1.821   2.265   6.757  0.8605 -0.1433  0.2432
  117OSM   H15B12156   2.001   2.274   6.762  2.0079  0.5461  0.6805
  117OSM   H15C12157   1.896   2.366   6.864 -0.5840 -1.0462  0.0497
  117OSM    C1412158   1.896   2.023   6.845 -0.0194 -0.0589  0.2111
  117OSM   H14A12159   1.798   2.010   6.802  0.1856  0.1636 -0.3372
  117OSM   H14B12160   1.913   1.942   6.914 -1.5865 -1.2128 -0.6940
  117OSM   H14C12161   1.975   2.016   6.771 -0.6031  2.8982 -0.8384
  117OSM    C1312162   2.032   2.159   6.997 -0.6344 -0.5168 -0.0375
  117OSM   H13A12163   2.049   2.258   7.035 -3.4990  0.4240 -0.9571
  117OSM   H13B12164   2.111   2.118   6.934 -0.0296 -2.9918  2.1647
  117OSM   H13C12165   2.029   2.077   7.067  0.1294 -1.1424 -0.7131
  117OSM    C1212166   1.788   2.173   7.013  0.0417  0.0959 -0.3003
  117OSM   H12A12167   1.811   2.259   7.074  0.4607 -0.9609  1.0773
  117OSM   H12B12168   1.778   2.081   7.068 -1.9386  0.0293 -0.7014
  117OSM    C1112169   1.650   2.206   6.954 -0.1092  0.3053  0.4506
  117OSM   H11A12170   1.652   2.303   6.900 -2.8762  0.4925  0.5436
  117OSM   H11B12171   1.579   2.224   7.037 -0.5799 -1.0123  0.3561
  117OSM      P12172   1.523   1.984   6.913  0.0146  0.4308 -0.1025
  117OSM    O1312173   1.556   1.874   6.822 -0.1651  0.1896 -0.0818
  117OSM    O1412174   1.549   1.969   7.056  0.2243  0.1502  0.0287
  117OSM    O1112175   1.370   2.037   6.887  0.1249 -0.1955  0.7265
  117OSM    O1212176   1.611   2.099   6.866  0.2218 -0.0147  0.7667
  117OSM    C1S12177   1.335   2.134   6.793 -0.6329  1.0175 -0.6506
  117OSM    H1S12178   1.406   2.127   6.708  2.3537 -4.2952  1.7694
  117OSM    H1T12179   1.329   2.234   6.841  0.2401  2.3065 -3.0379
  117OSM     NF12180   1.192   2.194   6.609  0.0097  0.0431 -0.3995
  117OSM    HNF12181   1.143   2.280   6.617 -0.6545 -0.3275 -0.4452
  117OSM    C2S12182   1.198   2.115   6.729  0.6246  0.7236  0.4180
  117OSM    H2S12183   1.184   2.006   6.709  0.0406  0.8835 -0.0573
  117OSM    C3S12184   1.090   2.148   6.833 -0.3153 -0.6462 -0.2654
  117OSM    H3S12185   1.118   2.251   6.864 -1.7063 -0.4092  0.2948
  117OSM     O312186   1.115   2.082   6.958  0.3400 -0.5306 -0.1199
  117OSM    HO312187   1.210   2.067   6.961  0.2160 -1.4224  3.3301
  117OSM    C4S12188   0.947   2.139   6.788 -0.1884 -0.3322 -0.1342
  117OSM    H4S12189   0.905   2.234   6.752  0.2828  0.0606  0.3353
  117OSM    C5S12190   0.875   2.027   6.781 -0.1329 -0.0206  0.6788
  117OSM    H5S12191   0.912   1.927   6.807  0.6676  0.6018  2.0349
  117OSM    C6S12192   0.731   2.031   6.724 -0.1862 -0.0321  0.0818
  117OSM    H6S12193   0.647   2.039   6.796 -0.6464  1.9041 -0.6005
  117OSM    H6T12194   0.712   1.936   6.669 -1.2318  0.1601  0.0956
  117OSM    C7S12195   0.692   2.152   6.632  0.2135  0.2899  1.2913
  117OSM    H7S12196   0.701   2.252   6.679  1.3567  0.2418  1.2054
  117OSM    H7T12197   0.585   2.140   6.604  0.4944  0.2179  0.2013
  117OSM    C8S12198   0.777   2.145   6.499  0.4899  0.1035 -0.1504
  117OSM    H8S12199   0.743   2.057   6.441  2.8001 -1.6539  1.0150
  117OSM    H8T12200   0.887   2.141   6.515  0.7133  0.0178 -1.5971
  117OSM    C9S12201   0.751   2.260   6.391 -0.3749 -0.2478  0.0918
  117OSM    H9S12202   0.807   2.347   6.431 -0.4936  0.9861 -2.2835
  117OSM    H9T12203   0.645   2.288   6.375 -0.7028 -0.8674  1.0675
  117OSM   C10S12204   0.834   2.233   6.260 -0.1717  0.2082 -0.0996
  117OSM   H10S12205   0.784   2.143   6.218 -0.7989 -0.6159  2.2610
  117OSM   H10T12206   0.937   2.206   6.291  0.9849  3.4860 -0.6122
  117OSM   C11S12207   0.847   2.349   6.157 -0.3532  0.4099  0.2627
  117OSM   H11S12208   0.896   2.441   6.194 -2.2632  1.2208  0.9168
  117OSM   H11T12209   0.744   2.375   6.122  0.8218  1.4922 -2.6844
  117OSM   C12S12210   0.928   2.309   6.034 -0.8143  0.2188 -0.7293
  117OSM   H12S12211   0.886   2.209   6.012 -1.3705 -0.1725  1.7306
  117OSM   H12T12212   1.032   2.295   6.071 -0.7983 -0.9876 -1.1827
  117OSM   C13S12213   0.897   2.379   5.897 -0.7223  0.5052  0.1108
  117OSM   H13S12214   0.916   2.489   5.897 -0.4422  0.4678  1.0995
  117OSM   H13T12215   0.790   2.364   5.871 -0.3999 -1.5371 -0.1697
  117OSM   C14S12216   0.994   2.308   5.801 -0.3338 -0.3821  1.3070
  117OSM   H14S12217   0.968   2.200   5.800  0.5515 -0.6690  3.4667
  117OSM   H14T12218   1.099   2.306   5.838  0.0661  0.0447  0.2232
  117OSM   C15S12219   1.001   2.379   5.668 -0.0774 -0.1782 -0.2187
  117OSM   H15S12220   1.082   2.335   5.606  0.3705  1.6413 -0.9928
  117OSM   H15T12221   1.027   2.485   5.684 -1.9338  0.3247 -0.3592
  117OSM   C16S12222   0.867   2.368   5.594 -0.2589  0.5287 -0.3124
  117OSM   H16S12223   0.874   2.435   5.505 -0.1137  0.9693  0.0241
  117OSM   H16T12224   0.791   2.413   5.663 -0.2229  1.9179 -1.1239
  117OSM   C17S12225   0.827   2.229   5.549  0.4797 -0.5583  0.1833
  117OSM   H17S12226   0.838   2.159   5.634 -1.3751 -2.1068 -0.7608
  117OSM   H17T12227   0.896   2.185   5.473  0.5446  0.7050 -0.5152
  117OSM   C18S12228   0.686   2.224   5.482  0.3959  0.2334 -0.0765
  117OSM   H18S12229   0.666   2.123   5.440  0.8070 -0.9385  2.3408
  117OSM   H18T12230   0.678   2.302   5.404 -0.3044  1.1832  0.9152
  117OSM   H18U12231   0.615   2.242   5.565  1.2983  1.1463  0.5282
  117OSM    C1F12232   1.243   2.146   6.500 -0.8009 -0.3280  0.2761
  117OSM     OF12233   1.264   2.027   6.490 -0.5701  0.3001  0.2650
  117OSM    C2F12234   1.265   2.239   6.380  0.0559 -0.0506  0.4180
  117OSM    H2F12235   1.320   2.331   6.410 -0.9853  1.0576 -0.9485
  117OSM    H2G12236   1.168   2.260   6.330  0.1783 -0.3077  0.0739
  117OSM    C3F12237   1.362   2.180   6.274 -0.2764 -0.0455  0.0923
  117OSM    H3F12238   1.321   2.082   6.240  4.1452 -2.4284  0.9056
  117OSM    H3G12239   1.458   2.148   6.321 -0.6911 -0.4465  0.6874
  117OSM    C4F12240   1.369   2.257   6.141  0.8071 -0.1034  0.1662
  117OSM    H4F12241   1.385   2.364   6.166  0.0499 -0.2188  1.2622
  117OSM    H4G12242   1.270   2.248   6.090  0.1488 -3.3485  1.7344
  117OSM    C5F12243   1.469   2.203   6.037 -0.2769 -0.5972  0.7763
  117OSM    H5F12244   1.448   2.094   6.033  2.8793 -1.2914  0.4905
  117OSM    H5G12245   1.573   2.223   6.070  0.1083  0.5314 -0.9475
  117OSM    C6F12246   1.455   2.265   5.896 -0.5019 -0.3243  0.3013
  117OSM    H6F12247   1.472   2.373   5.912  0.0979 -0.5800  1.5872
  117OSM    H6G12248   1.352   2.241   5.862 -0.4956  0.3158 -0.1784
  117OSM    C7F12249   1.547   2.212   5.789 -0.3805 -0.4005  0.2716
  117OSM    H7F12250   1.502   2.126   5.735 -1.2216  0.5903 -0.6527
  117OSM    H7G12251   1.637   2.162   5.829  0.8787  0.7590 -0.9998
  117OSM    C8F12252   1.602   2.324   5.697 -0.0349  0.4700  0.2083
  117OSM    H8F12253   1.657   2.397   5.760 -2.5905  3.1530 -0.4271
  117OSM    H8G12254   1.518   2.382   5.652 -0.3221  0.5821  0.8761
  117OSM    C9F12255   1.705   2.277   5.609 -0.3429  0.1863  0.5630
  117OSM    H9F12256   1.779   2.210   5.655 -0.5160 -0.1413  0.3654
  117OSM   C10F12257   1.714   2.319   5.481  0.4212  0.2971 -0.1300
  117OSM   H10F12258   1.800   2.284   5.422 -0.2122 -1.0626 -0.2831
  117OSM   C11F12259   1.624   2.408   5.399  0.1897  0.3990 -0.4456
  117OSM   H11F12260   1.654   2.514   5.416 -0.1407  0.3085  0.8503
  117OSM   H11G12261   1.517   2.405   5.430  0.6607  2.6673  1.7684
  117OSM   C12F12262   1.637   2.370   5.248  0.3897 -0.3044  0.3523
  117OSM   H12F12263   1.634   2.260   5.234  0.7217 -0.3135  0.3286
  117OSM   H12G12264   1.730   2.422   5.214 -0.0275  2.0120  2.4261
  117OSM   C13F12265   1.525   2.431   5.164  0.0840 -0.0308 -0.3602
  117OSM   H13F12266   1.503   2.535   5.197 -0.6288  0.1291 -1.2938
  117OSM   H13G12267   1.435   2.367   5.164 -0.7478  1.0550  1.7144
  117OSM   C14F12268   1.562   2.439   5.013  0.1187  0.1845 -0.4391
  117OSM   H14F12269   1.591   2.341   4.971  0.7176  0.7270 -1.3304
  117OSM   H14G12270   1.644   2.514   5.006  1.8264 -1.6516 -0.9797
  117OSM   C15F12271   1.436   2.484   4.946  0.9034 -0.1219  0.4318
  117OSM   H15F12272   1.381   2.564   5.001  0.2123  2.1405 -3.1836
  117OSM   H15G12273   1.362   2.402   4.935  2.5447 -1.6574  0.3568
  117OSM   C16F12274   1.451   2.536   4.806 -0.8441  0.9255 -0.3985
  117OSM   H16F12275   1.531   2.479   4.753 -0.8361  1.2365 -0.7247
  117OSM   H16G12276   1.491   2.639   4.808  2.3562 -0.2019  0.1993
  117OSM   C17F12277   1.333   2.529   4.713 -0.5256  0.2949 -0.7651
  117OSM   H17F12278   1.286   2.428   4.719 -0.9299  0.5073 -0.2985
  117OSM   H17G12279   1.369   2.541   4.608  0.2016 -2.2255 -0.8676
  117OSM   C18F12280   1.221   2.630   4.741 -0.0827 -0.3933 -0.3946
  117OSM   H18F12281   1.138   2.622   4.668  0.7577  4.6428 -2.2643
  117OSM   H18G12282   1.259   2.732   4.722 -1.4314 -0.0832 -1.6249
  117OSM   H18H12283   1.187   2.622   4.847  0.6198  0.1318 -0.1214
  118OSM      N12284   4.589   2.962   6.965 -0.3961 -0.4482  0.9644
  118OSM    C1512285   4.502   2.843   6.907  0.1929 -0.1938  1.0061
  118OSM   H15A12286   4.422   2.807   6.969 -0.0509 -0.9696  0.2608
  118OSM   H15B12287   4.566   2.761   6.877 -0.1700 -0.2466  0.3617
  118OSM   H15C12288   4.451   2.875   6.818  0.6464 -1.4793  0.2463
  118OSM    C1412289   4.622   3.048   6.848  0.1279 -0.3447 -0.1615
  118OSM   H14A12290   4.532   3.087   6.802  0.2072 -1.7771 -1.6155
  118OSM   H14B12291   4.675   2.999   6.768 -0.7622  0.8761 -1.5486
  118OSM   H14C12292   4.686   3.127   6.885 -1.0227  0.5585 -0.0420
  118OSM    C1312293   4.500   3.035   7.058  0.4722 -0.6347  0.2416
  118OSM   H13A12294   4.438   3.099   6.996  2.2738  0.7199 -0.2265
  118OSM   H13B12295   4.561   3.103   7.116  0.1861  0.4463 -0.6753
  118OSM   H13C12296   4.446   2.964   7.119  0.1962 -0.8048 -0.1902
  118OSM    C1212297   4.713   2.902   7.033 -0.4866 -0.2936 -0.3750
  118OSM   H12A12298   4.671   2.836   7.108  0.4822 -1.6180 -0.9600
  118OSM   H12B12299   4.775   2.974   7.084  1.5032 -0.4054 -2.4859
  118OSM    C1112300   4.808   2.806   6.956  0.4894 -0.2820  0.0077
  118OSM   H11A12301   4.903   2.856   6.931 -1.1760  1.6204 -3.1990
  118OSM   H11B12302   4.763   2.791   6.855 -0.8258 -2.7369  0.8626
  118OSM      P12303   4.723   2.561   7.034 -0.0003  0.4337  0.0659
  118OSM    O1312304   4.797   2.432   7.033 -0.5560 -0.4811  0.2326
  118OSM    O1412305   4.635   2.594   7.150 -0.2213  0.0230  0.2024
  118OSM    O1112306   4.639   2.571   6.902  0.3912  0.0445 -0.0995
  118OSM    O1212307   4.833   2.681   7.019 -0.2417 -0.1077  0.3119
  118OSM    C1S12308   4.570   2.452   6.850 -0.0371 -0.0682 -0.1257
  118OSM    H1S12309   4.511   2.405   6.931  2.2564 -0.7861  1.2137
  118OSM    H1T12310   4.643   2.370   6.839  0.6113  0.4282  0.4228
  118OSM     NF12311   4.434   2.357   6.683 -0.0908  0.4455  0.1274
  118OSM    HNF12312   4.467   2.326   6.595 -2.7653  3.9247 -2.3995
  118OSM    C2S12313   4.485   2.485   6.726  0.7077 -0.3289 -0.1366
  118OSM    H2S12314   4.397   2.546   6.759  2.1194  0.8516  1.6492
  118OSM    C3S12315   4.567   2.559   6.615 -0.0485  0.2711  0.5265
  118OSM    H3S12316   4.642   2.490   6.571 -3.2856 -3.2855  0.0276
  118OSM     O312317   4.643   2.674   6.657  0.1319 -0.2681  0.2948
  118OSM    HO312318   4.662   2.665   6.750 -0.1554 -0.0324  0.3794
  118OSM    C4S12319   4.485   2.598   6.500 -0.4896  0.4460  0.0945
  118OSM    H4S12320   4.500   2.530   6.414  1.0988  1.1447 -0.2149
  118OSM    C5S12321   4.411   2.711   6.479 -0.0288  0.2190 -0.4736
  118OSM    H5S12322   4.410   2.785   6.560  0.1401  0.8978 -1.0795
  118OSM    C6S12323   4.350   2.760   6.351  0.1748  0.3065  0.1300
  118OSM    H6S12324   4.282   2.845   6.373 -1.5325 -1.0200  0.2592
  118OSM    H6T12325   4.286   2.675   6.316  0.4855  0.6398 -1.2908
  118OSM    C7S12326   4.444   2.782   6.224 -0.0707 -0.1601 -0.1379
  118OSM    H7S12327   4.527   2.708   6.218  0.6137  0.6599 -1.1302
  118OSM    H7T12328   4.491   2.883   6.224  1.5005 -0.8450  1.0412
  118OSM    C8S12329   4.363   2.772   6.092 -0.6447 -0.3111  0.5832
  118OSM    H8S12330   4.271   2.835   6.089 -1.2444 -1.1982 -1.1588
  118OSM    H8T12331   4.319   2.671   6.081  0.2054 -0.4722 -1.8754
  118OSM    C9S12332   4.447   2.807   5.967  0.5730 -0.3769 -0.2666
  118OSM    H9S12333   4.530   2.736   5.948 -0.4016 -1.7686  0.4879
  118OSM    H9T12334   4.496   2.905   5.986 -0.3613  0.2860 -1.1761
  118OSM   C10S12335   4.364   2.816   5.840 -0.4601  0.8868  0.7351
  118OSM   H10S12336   4.299   2.906   5.839 -0.7763  0.6676 -1.4551
  118OSM   H10T12337   4.309   2.722   5.822 -0.2525  1.3292 -2.7864
  118OSM   C11S12338   4.444   2.839   5.722 -0.5179  0.4370  0.9116
  118OSM   H11S12339   4.492   2.744   5.691  0.8060  1.3114  0.2090
  118OSM   H11T12340   4.513   2.926   5.733  1.2605 -0.8403  0.3158
  118OSM   C12S12341   4.362   2.875   5.597 -0.5181  0.5494  0.2269
  118OSM   H12S12342   4.318   2.972   5.627  0.6889  0.7985  1.2518
  118OSM   H12T12343   4.285   2.795   5.581  1.6365 -1.5177 -0.4365
  118OSM   C13S12344   4.444   2.865   5.471 -1.1383  0.3545  0.0723
  118OSM   H13S12345   4.480   2.761   5.453  3.4806  1.8387 -0.4850
  118OSM   H13T12346   4.538   2.921   5.460 -2.6921  2.9932 -0.6313
  118OSM   C14S12347   4.356   2.902   5.350  0.3073  0.3007 -0.0615
  118OSM   H14S12348   4.259   2.848   5.350  1.7690 -2.5974 -1.7810
  118OSM   H14T12349   4.409   2.861   5.261  0.2704  1.7420 -0.7830
  118OSM   C15S12350   4.326   3.052   5.332  0.4801 -0.2083 -0.3374
  118OSM   H15S12351   4.419   3.110   5.354 -0.9382  0.8812  3.5931
  118OSM   H15T12352   4.251   3.079   5.409  0.6607  0.3540 -0.3489
  118OSM   C16S12353   4.264   3.097   5.195  0.4082  0.4249  0.0242
  118OSM   H16S12354   4.224   3.200   5.206 -2.6327 -0.5064 -1.1927
  118OSM   H16T12355   4.175   3.034   5.175  0.0661  0.1886  2.0685
  118OSM   C17S12356   4.363   3.089   5.082 -0.1395 -1.0733 -0.3917
  118OSM   H17S12357   4.408   2.988   5.067  0.2618 -1.3578  2.1624
  118OSM   H17T12358   4.448   3.160   5.093  1.3157 -2.5484 -1.6434
  118OSM   C18S12359   4.297   3.137   4.958 -0.0746 -0.7545  0.4916
  118OSM   H18S12360   4.247   3.235   4.974  0.0298 -0.0810 -2.5731
  118OSM   H18T12361   4.224   3.062   4.920 -0.6425 -0.4618  0.9963
  118OSM   H18U12362   4.377   3.147   4.882 -0.0421 -1.9224  0.3486
  118OSM    C1F12363   4.329   2.291   6.731  0.0338 -0.7508  0.0587
  118OSM     OF12364   4.269   2.329   6.830 -0.3906 -0.5504  0.8441
  118OSM    C2F12365   4.291   2.167   6.657 -0.0138 -0.7658  0.1784
  118OSM    H2F12366   4.252   2.091   6.728 -0.3179 -1.1481 -0.3850
  118OSM    H2G12367   4.381   2.127   6.605  1.2630 -0.0129  1.7321
  118OSM    C3F12368   4.166   2.191   6.574 -0.3216 -0.1796  0.4943
  118OSM    H3F12369   4.085   2.221   6.644 -0.2677 -1.7111  1.2629
  118OSM    H3G12370   4.126   2.097   6.531  1.0914  0.3154 -2.0837
  118OSM    C4F12371   4.183   2.297   6.468  0.6416 -0.3699 -0.0734
  118OSM    H4F12372   4.225   2.246   6.378  0.4537  0.8738 -0.8902
  118OSM    H4G12373   4.260   2.375   6.485  0.1872  0.1943 -0.5651
  118OSM    C5F12374   4.047   2.370   6.433 -0.4918  0.4418  0.7601
  118OSM    H5F12375   4.022   2.447   6.509 -0.3784  1.0718  0.1742
  118OSM    H5G12376   3.964   2.298   6.446 -2.4737  2.4051 -0.2169
  118OSM    C6F12377   4.037   2.447   6.293  0.5550 -0.3037 -0.8001
  118OSM    H6F12378   4.072   2.374   6.217  0.9775  0.7509 -1.6409
  118OSM    H6G12379   4.106   2.534   6.299 -0.0538  0.0735  1.9020
  118OSM    C7F12380   3.903   2.492   6.260  0.4679  0.0102  0.1961
  118OSM    H7F12381   3.905   2.590   6.208  0.7510 -0.7463 -1.2455
  118OSM    H7G12382   3.848   2.503   6.356 -1.4196 -3.5433 -0.3249
  118OSM    C8F12383   3.818   2.389   6.181 -0.1553  0.5174 -0.3540
  118OSM    H8F12384   3.839   2.291   6.228 -0.0685 -0.0427 -1.5241
  118OSM    H8G12385   3.856   2.384   6.077 -2.6176 -3.1524 -1.2718
  118OSM    C9F12386   3.664   2.391   6.195 -0.5441  0.0420 -0.2609
  118OSM    H9F12387   3.634   2.388   6.300 -2.2151  0.3516 -0.6990
  118OSM   C10F12388   3.577   2.389   6.090 -0.4414  0.4572  0.2107
  118OSM   H10F12389   3.470   2.403   6.110 -0.8798 -2.0027  0.0020
  118OSM   C11F12390   3.608   2.396   5.942  0.1332  0.1662 -0.1811
  118OSM   H11F12391   3.713   2.422   5.915  1.2272 -1.9711  1.7349
  118OSM   H11G12392   3.541   2.464   5.885  0.0558 -1.2987 -1.9498
  118OSM   C12F12393   3.591   2.254   5.870  0.0901 -0.1995  0.2928
  118OSM   H12F12394   3.487   2.217   5.884  0.8910 -1.8945  2.3547
  118OSM   H12G12395   3.653   2.177   5.920  0.2884  0.5723  1.2678
  118OSM   C13F12396   3.638   2.245   5.721  0.8993 -1.1477 -0.4362
  118OSM   H13F12397   3.745   2.274   5.717  0.7838 -0.5444  0.5593
  118OSM   H13G12398   3.576   2.313   5.658  0.5332 -0.2912  0.8237
  118OSM   C14F12399   3.626   2.103   5.668  0.2037 -0.2271 -0.6299
  118OSM   H14F12400   3.518   2.083   5.650 -0.0314  2.2852 -2.7282
  118OSM   H14G12401   3.664   2.030   5.742  0.0300 -1.6438 -1.8947
  118OSM   C15F12402   3.699   2.081   5.535 -0.5374  0.4788 -0.2150
  118OSM   H15F12403   3.673   1.977   5.509 -3.0175  0.5934  1.4617
  118OSM   H15G12404   3.805   2.089   5.568 -0.9151  1.7371  0.8105
  118OSM   C16F12405   3.654   2.168   5.416  0.0061  0.0024  0.2918
  118OSM   H16F12406   3.677   2.266   5.462  2.1049 -0.5715  0.5497
  118OSM   H16G12407   3.546   2.150   5.396  0.5853 -0.4919 -2.9919
  118OSM   C17F12408   3.723   2.152   5.281  0.0191  0.0050 -0.3774
  118OSM   H17F12409   3.654   2.197   5.207 -0.2671 -0.7597 -0.5779
  118OSM   H17G12410   3.732   2.046   5.250 -2.7653 -0.5542  0.4561
  118OSM   C18F12411   3.857   2.229   5.266 -0.3432  0.1777  0.6493
  118OSM   H18F12412   3.849   2.340   5.259  3.0635  0.4858 -0.1513
  118OSM   H18G12413   3.903   2.196   5.170  1.4775 -1.0740  1.9000
  118OSM   H18H12414   3.924   2.216   5.353  1.3453 -0.5929 -0.7155
  119OSM      N12415   0.166   4.940   7.615  0.5598  0.0154 -0.0617
  119OSM    C1512416   0.020   4.942   7.661 -0.4142  0.4845  0.1279
  119OSM   H15A12417   0.005   4.913   7.764 -2.7409  1.7921  0.2119
  119OSM   H15B12418  -0.041   4.876   7.602 -0.1967 -0.6541  1.1556
  119OSM   H15C12419  -0.020   5.041   7.644  0.6860  0.9270  0.0197
  119OSM    C1412420   0.251   5.021   7.703  0.3523 -0.8406 -0.4161
  119OSM   H14A12421   0.252   4.989   7.806 -2.2815  1.4386  0.4286
  119OSM   H14B12422   0.213   5.121   7.697 -0.3870 -0.9233  1.8741
  119OSM   H14C12423   0.352   5.026   7.664 -0.0149 -0.1179 -1.2975
  119OSM    C1312424   0.214   4.800   7.627  0.2642 -0.1339  0.4182
  119OSM   H13A12425   0.320   4.791   7.612 -0.1577 -3.2320 -1.9992
  119OSM   H13B12426   0.174   4.735   7.550  1.1273 -0.9440  0.6344
  119OSM   H13C12427   0.186   4.758   7.723  1.8158  0.3259  1.0924
  119OSM    C1212428   0.178   4.982   7.473 -0.3092  0.3292  0.7823
  119OSM   H12A12429   0.110   4.919   7.417 -0.3891 -0.4564  1.7316
  119OSM   H12B12430   0.279   4.968   7.439 -0.3622  0.7301  0.4568
  119OSM    C1112431   0.140   5.136   7.445  0.3408 -0.1011  0.2164
  119OSM   H11A12432   0.181   5.167   7.346 -1.1516 -0.2222 -0.4534
  119OSM   H11B12433   0.196   5.202   7.514 -0.2043 -0.0361  0.6005
  119OSM      P12434  -0.121   5.121   7.371  0.2085  0.0321 -0.0204
  119OSM    O1312435  -0.173   4.993   7.430 -0.9463 -0.2280 -0.1779
  119OSM    O1412436  -0.215   5.237   7.356  0.0503 -0.0492 -0.1262
  119OSM    O1112437  -0.067   5.089   7.221  0.1556 -0.9130  0.3509
  119OSM    O1212438   0.005   5.175   7.458  0.1048  0.0402 -0.0892
  119OSM    C1S12439   0.027   4.992   7.177  0.5405  0.7217  0.7408
  119OSM    H1S12440  -0.001   4.892   7.218  1.7118 -0.2798 -0.7637
  119OSM    H1T12441   0.128   5.024   7.209  0.7417  0.5431  0.2939
  119OSM     NF12442   0.055   4.858   6.975  0.1425 -0.5582 -0.7962
  119OSM    HNF12443   0.153   4.849   6.964  0.6203  2.7562 -0.3946
  119OSM    C2S12444   0.018   4.992   7.023  0.1809 -0.1573  0.0733
  119OSM    H2S12445  -0.090   5.010   7.002 -0.5418 -1.7044  2.0810
  119OSM    C3S12446   0.102   5.113   6.978 -0.0848  1.4799  0.5306
  119OSM    H3S12447   0.211   5.094   6.989 -0.6417 -1.3935  1.9593
  119OSM     O312448   0.067   5.234   7.048 -0.0767  0.1387 -0.1080
  119OSM    HO312449   0.022   5.210   7.130 -1.0912  1.6444 -0.2025
  119OSM    C4S12450   0.102   5.130   6.828 -0.2744 -0.0442  0.1231
  119OSM    H4S12451   0.192   5.108   6.768 -0.1492  0.6217  0.0566
  119OSM    C5S12452   0.002   5.199   6.771  0.1303  0.0640  0.1465
  119OSM    H5S12453  -0.084   5.223   6.836 -0.5697 -2.7843  0.3731
  119OSM    C6S12454  -0.006   5.233   6.625 -0.1403 -0.4143  0.0582
  119OSM    H6S12455  -0.069   5.323   6.608  0.6779  0.1109 -0.2477
  119OSM    H6T12456  -0.050   5.150   6.566 -1.1647  0.0934  0.0750
  119OSM    C7S12457   0.128   5.281   6.562  0.0716  0.3010 -0.8825
  119OSM    H7S12458   0.192   5.192   6.543  0.6081  0.3680  0.5224
  119OSM    H7T12459   0.177   5.356   6.627 -0.1776 -0.8655  0.7084
  119OSM    C8S12460   0.102   5.343   6.425 -0.2449  0.1072  0.4746
  119OSM    H8S12461   0.074   5.449   6.442 -0.4147  0.0703  0.4254
  119OSM    H8T12462   0.012   5.297   6.379 -0.2033  0.1843  0.3170
  119OSM    C9S12463   0.215   5.330   6.322  0.3389  0.3272 -0.3260
  119OSM    H9S12464   0.226   5.221   6.310 -1.5434 -0.0586  0.9465
  119OSM    H9T12465   0.305   5.372   6.372 -1.0859 -0.1098  2.8841
  119OSM   C10S12466   0.182   5.397   6.186  0.7416 -0.0436 -0.9335
  119OSM   H10S12467   0.131   5.495   6.198 -2.2119 -1.6479  0.7558
  119OSM   H10T12468   0.102   5.337   6.139 -1.4819  3.0866 -1.4336
  119OSM   C11S12469   0.295   5.402   6.086 -0.8467 -0.4560  0.4413
  119OSM   H11S12470   0.328   5.305   6.045  2.8338  0.7123  0.2911
  119OSM   H11T12471   0.383   5.451   6.134 -0.3266  0.0712 -0.9863
  119OSM   C12S12472   0.271   5.494   5.965  0.0189 -0.3201 -0.2336
  119OSM   H12S12473   0.228   5.592   5.993  3.1375  1.2594 -0.4966
  119OSM   H12T12474   0.211   5.435   5.892  0.8432  1.0627 -2.1192
  119OSM   C13S12475   0.393   5.517   5.885 -0.1578 -0.6645 -0.0575
  119OSM   H13S12476   0.440   5.418   5.867 -1.3920 -1.2720 -0.0190
  119OSM   H13T12477   0.469   5.562   5.953  1.7163  1.3978 -3.2553
  119OSM   C14S12478   0.374   5.602   5.755 -0.5096  0.4423 -0.0431
  119OSM   H14S12479   0.297   5.679   5.778 -1.5892 -1.0090  1.4516
  119OSM   H14T12480   0.327   5.543   5.673 -1.5816 -0.6495  1.3005
  119OSM   C15S12481   0.496   5.686   5.711  0.1442 -0.3368  0.8687
  119OSM   H15S12482   0.585   5.619   5.714 -0.2390 -0.7974  3.0001
  119OSM   H15T12483   0.507   5.764   5.789  1.3723  0.6871 -0.2591
  119OSM   C16S12484   0.491   5.769   5.577 -0.3377 -0.0807 -0.0789
  119OSM   H16S12485   0.416   5.851   5.584 -2.1253 -1.6009 -0.7033
  119OSM   H16T12486   0.472   5.713   5.483  2.4555 -1.7940  0.2508
  119OSM   C17S12487   0.631   5.833   5.546 -0.6745 -0.2811 -0.4757
  119OSM   H17S12488   0.712   5.756   5.535 -0.7040 -0.6768  1.6732
  119OSM   H17T12489   0.662   5.884   5.640  2.9954 -2.4574 -0.2664
  119OSM   C18S12490   0.624   5.936   5.435 -0.1308 -0.2025 -0.0994
  119OSM   H18S12491   0.532   5.997   5.445  0.8759  1.1549  1.5489
  119OSM   H18T12492   0.626   5.889   5.334  1.2694 -1.6631  0.5670
  119OSM   H18U12493   0.711   6.006   5.430 -0.3139  0.2548  2.1514
  119OSM    C1F12494  -0.028   4.755   6.978 -0.0538 -0.3810 -0.0821
  119OSM     OF12495  -0.140   4.769   7.025 -1.0064  0.1031  0.1735
  119OSM    C2F12496   0.028   4.627   6.931  0.2531  0.3245  0.2884
  119OSM    H2F12497   0.030   4.568   7.025 -2.0733  1.1825  0.9718
  119OSM    H2G12498   0.131   4.638   6.893 -0.3950 -2.2763 -2.5676
  119OSM    C3F12499  -0.064   4.557   6.837 -0.1262  0.9500  0.0495
  119OSM    H3F12500  -0.170   4.552   6.871 -0.8497 -3.9929 -2.0787
  119OSM    H3G12501  -0.027   4.453   6.828 -2.7554 -0.0368 -0.4203
  119OSM    C4F12502  -0.065   4.610   6.694 -0.2100 -0.2227 -0.1889
  119OSM    H4F12503  -0.076   4.720   6.694  2.1887  0.1160 -2.3750
  119OSM    H4G12504  -0.162   4.581   6.648 -0.1695 -2.9437  1.2400
  119OSM    C5F12505   0.056   4.584   6.607  0.3376 -0.1869 -0.7618
  119OSM    H5F12506   0.047   4.481   6.568 -1.5505 -0.1068 -0.6358
  119OSM    H5G12507   0.147   4.589   6.670  1.2299  0.4445 -2.0727
  119OSM    C6F12508   0.062   4.675   6.480 -0.4099 -0.0809 -0.2064
  119OSM    H6F12509  -0.045   4.689   6.451 -0.4668  1.8260  0.7651
  119OSM    H6G12510   0.118   4.623   6.400 -1.5396  0.0740 -1.1319
  119OSM    C7F12511   0.131   4.804   6.506  0.0074 -0.8672  0.0658
  119OSM    H7F12512   0.231   4.792   6.552  0.7329  0.2026 -1.1589
  119OSM    H7G12513   0.074   4.856   6.586  1.5063 -1.5508  1.6371
  119OSM    C8F12514   0.144   4.896   6.385 -0.1205  0.3827  0.0397
  119OSM    H8F12515   0.169   5.002   6.410  2.9920  0.0414 -1.1157
  119OSM    H8G12516   0.049   4.898   6.328 -0.5032 -0.0962  0.6543
  119OSM    C9F12517   0.246   4.843   6.286 -0.0819  0.2991  0.3653
  119OSM    H9F12518   0.337   4.804   6.335 -0.4588 -0.0746  0.7639
  119OSM   C10F12519   0.233   4.829   6.155  0.2132  0.1296  0.7055
  119OSM   H10F12520   0.315   4.782   6.098  0.2988  0.7118  0.3391
  119OSM   C11F12521   0.116   4.873   6.071  0.1188 -0.4802 -0.5167
  119OSM   H11F12522   0.025   4.894   6.130  0.0271 -0.4068 -0.6833
  119OSM   H11G12523   0.096   4.797   5.993  0.2498 -0.1962 -0.8280
  119OSM   C12F12524   0.131   5.009   5.994  0.0826  0.1295  0.1561
  119OSM   H12F12525   0.129   5.099   6.060 -1.9791 -1.5644  2.6083
  119OSM   H12G12526   0.037   5.018   5.936 -0.7387 -1.2699  1.2119
  119OSM   C13F12527   0.258   5.011   5.898  0.9954 -0.5174  0.2641
  119OSM   H13F12528   0.252   4.922   5.832 -0.3359  2.0807 -3.5052
  119OSM   H13G12529   0.357   5.011   5.949  0.3561  0.2438  1.5529
  119OSM   C14F12530   0.243   5.133   5.799  0.2621  0.4949 -0.0125
  119OSM   H14F12531   0.268   5.226   5.855  0.4889 -0.4778  1.5665
  119OSM   H14G12532   0.142   5.144   5.756 -0.3182  0.4099  1.2837
  119OSM   C15F12533   0.352   5.113   5.687 -0.3693  0.0320  0.0768
  119OSM   H15F12534   0.312   5.043   5.610 -1.4801  0.1051  0.5652
  119OSM   H15G12535   0.449   5.076   5.727  0.1833  0.6433 -0.6791
  119OSM   C16F12536   0.364   5.250   5.613 -0.2094  0.1100 -0.1927
  119OSM   H16F12537   0.411   5.319   5.686 -0.9860  0.5162 -0.0599
  119OSM   H16G12538   0.262   5.274   5.575  0.4894  1.1069 -1.5113
  119OSM   C17F12539   0.455   5.242   5.483 -0.1382 -0.3722  0.5400
  119OSM   H17F12540   0.406   5.175   5.409 -0.2821  0.3113  0.0120
  119OSM   H17G12541   0.555   5.203   5.513  0.4958  2.7271  3.0376
  119OSM   C18F12542   0.484   5.376   5.420  0.4730 -0.2601 -0.5621
  119OSM   H18F12543   0.529   5.453   5.486  0.3131 -0.6214 -0.0262
  119OSM   H18G12544   0.391   5.427   5.385 -0.2366 -2.5700 -2.3188
  119OSM   H18H12545   0.553   5.359   5.335  1.0823 -2.1471  0.2614
  120OSM      N12546   0.634   2.067   7.125  0.0389  0.2192  0.1340
  120OSM    C1512547   0.778   2.048   7.107 -0.4247  0.4574  0.5179
  120OSM   H15A12548   0.827   1.994   7.187  0.4890  0.8127  0.2210
  120OSM   H15B12549   0.832   2.142   7.102 -0.9404  0.6928 -1.6460
  120OSM   H15C12550   0.802   1.987   7.021 -2.4898 -0.4240  0.5150
  120OSM    C1412551   0.562   1.935   7.124  0.1295  0.0560 -0.0859
  120OSM   H14A12552   0.578   1.865   7.044  0.1337 -1.2663  1.0415
  120OSM   H14B12553   0.457   1.957   7.142  0.0093 -0.1976 -0.4611
  120OSM   H14C12554   0.599   1.873   7.203 -1.5850 -2.6020 -1.2126
  120OSM    C1312555   0.610   2.127   7.261  0.4071  0.3091 -0.0086
  120OSM   H13A12556   0.507   2.149   7.284  0.3036 -0.7367  0.6406
  120OSM   H13B12557   0.661   2.221   7.263 -0.5750  0.8473  0.5157
  120OSM   H13C12558   0.651   2.069   7.343 -0.1518  1.5479  1.1822
  120OSM    C1212559   0.579   2.161   7.021 -0.0006  0.1401 -0.4907
  120OSM   H12A12560   0.487   2.204   7.059  0.3420 -0.8115  1.5949
  120OSM   H12B12561   0.560   2.102   6.932  0.1353 -0.0961 -0.3628
  120OSM    C1112562   0.661   2.282   6.981 -0.2094 -0.1635  0.0607
  120OSM   H11A12563   0.596   2.333   6.906  1.6868  0.9356 -0.9311
  120OSM   H11B12564   0.746   2.247   6.917 -0.9961 -0.6017 -0.7700
  120OSM      P12565   0.838   2.457   7.076  0.1397 -0.1473  0.1335
  120OSM    O1312566   0.818   2.561   7.181  0.0123  0.5999  1.1753
  120OSM    O1412567   0.956   2.372   7.086  0.3334  0.3775 -0.3354
  120OSM    O1112568   0.808   2.518   6.935 -0.2039  0.2685 -0.9723
  120OSM    O1212569   0.704   2.366   7.083 -0.3652  0.0207 -0.2829
  120OSM    C1S12570   0.913   2.559   6.853  0.0593  0.4815  0.1296
  120OSM    H1S12571   0.975   2.467   6.841 -0.3764  0.1431  0.4339
  120OSM    H1T12572   0.975   2.627   6.915 -2.4465  0.6605  2.6715
  120OSM     NF12573   0.984   2.672   6.647 -0.5162  0.0406  0.2643
  120OSM    HNF12574   0.984   2.771   6.633 -0.1521  0.3767  2.2712
  120OSM    C2S12575   0.869   2.622   6.722 -0.1963  0.8796 -0.0020
  120OSM    H2S12576   0.823   2.541   6.661  0.8810 -0.2874  0.6836
  120OSM    C3S12577   0.757   2.728   6.740 -0.4573 -0.7740  1.1512
  120OSM    H3S12578   0.812   2.797   6.808 -2.0544  1.9830 -0.1408
  120OSM     O312579   0.640   2.671   6.801 -0.2841 -0.1226 -0.6016
  120OSM    HO312580   0.677   2.597   6.849 -3.0219 -0.9294  0.4447
  120OSM    C4S12581   0.726   2.820   6.618  0.5095 -0.1410  0.7257
  120OSM    H4S12582   0.781   2.915   6.611  1.0715 -0.4539  0.8564
  120OSM    C5S12583   0.645   2.785   6.516 -0.7843  0.0802 -0.2614
  120OSM    H5S12584   0.583   2.695   6.518  0.4752 -0.8734 -1.7305
  120OSM    C6S12585   0.627   2.867   6.388 -0.6914 -0.1762  0.3419
  120OSM    H6S12586   0.656   2.974   6.393  2.3599 -0.9600  2.0084
  120OSM    H6T12587   0.519   2.856   6.363 -0.6412 -2.9434  1.0073
  120OSM    C7S12588   0.712   2.804   6.282 -0.3309  0.0585  0.4981
  120OSM    H7S12589   0.686   2.696   6.276  2.7920 -0.7020 -1.6475
  120OSM    H7T12590   0.821   2.818   6.299 -0.7603  2.6699  1.6629
  120OSM    C8S12591   0.686   2.860   6.144  0.3734  0.2635  0.6292
  120OSM    H8S12592   0.702   2.970   6.152 -1.9030  0.9539 -2.3335
  120OSM    H8T12593   0.576   2.853   6.128  0.6258  0.5664 -1.4021
  120OSM    C9S12594   0.758   2.776   6.036 -0.5023 -0.2325 -0.8392
  120OSM    H9S12595   0.716   2.673   6.026 -0.3737 -0.6058  1.7749
  120OSM    H9T12596   0.862   2.754   6.068 -0.7384 -0.5179 -0.2503
  120OSM   C10S12597   0.745   2.843   5.899 -0.4704  0.1209 -0.4097
  120OSM   H10S12598   0.789   2.945   5.896  0.7093 -0.2173  2.3068
  120OSM   H10T12599   0.635   2.844   5.885 -0.3987 -1.7944 -1.3990
  120OSM   C11S12600   0.794   2.752   5.792  0.7298 -0.0779 -0.2817
  120OSM   H11S12601   0.753   2.649   5.795 -1.4949  0.7618  2.6330
  120OSM   H11T12602   0.901   2.747   5.823  1.8882  4.0772 -2.8850
  120OSM   C12S12603   0.803   2.813   5.650  0.1764  0.3082  0.1474
  120OSM   H12S12604   0.871   2.901   5.644  0.7618 -0.1923 -0.9285
  120OSM   H12T12605   0.702   2.848   5.617 -0.1797  0.1382  1.0409
  120OSM   C13S12606   0.858   2.713   5.545  0.3112 -0.0321 -0.6061
  120OSM   H13S12607   0.782   2.632   5.551  1.2337 -1.1773 -2.9340
  120OSM   H13T12608   0.957   2.668   5.568  0.5865  0.3755 -1.0026
  120OSM   C14S12609   0.860   2.778   5.406 -0.0017 -0.4070  0.9169
  120OSM   H14S12610   0.945   2.849   5.401 -0.5325  0.1832  0.1194
  120OSM   H14T12611   0.773   2.838   5.373  0.8679 -0.5017 -1.7460
  120OSM   C15S12612   0.867   2.681   5.288  0.1829  0.0494 -0.7341
  120OSM   H15S12613   0.847   2.736   5.194 -2.0015  0.1071 -0.2994
  120OSM   H15T12614   0.798   2.595   5.301 -0.7009  0.9597  0.8640
  120OSM   C16S12615   1.013   2.622   5.282 -0.2282  0.0153  0.4986
  120OSM   H16S12616   1.044   2.591   5.385  0.7886 -0.5204  0.0558
  120OSM   H16T12617   1.088   2.699   5.255  1.3261 -1.4876  0.2972
  120OSM   C17S12618   1.021   2.501   5.181  0.4055 -0.3156 -0.2212
  120OSM   H17S12619   1.023   2.555   5.084 -2.5508  0.4394  0.0466
  120OSM   H17T12620   0.928   2.444   5.201 -0.8838  1.9619  0.7176
  120OSM   C18S12621   1.154   2.426   5.189 -0.2009 -0.3092 -0.6740
  120OSM   H18S12622   1.163   2.345   5.114  2.7514  0.5256 -1.3412
  120OSM   H18T12623   1.175   2.378   5.287  3.5941  1.3873 -0.4985
  120OSM   H18U12624   1.239   2.492   5.163 -0.0598 -0.9839 -2.0128
  120OSM    C1F12625   1.070   2.582   6.598  0.1040 -0.2383 -0.3154
  120OSM     OF12626   1.064   2.464   6.619 -0.3646  0.2470 -0.0455
  120OSM    C2F12627   1.174   2.629   6.502 -0.2866  0.0621 -1.0221
  120OSM    H2F12628   1.261   2.562   6.514  0.2305  0.8882  0.0296
  120OSM    H2G12629   1.188   2.737   6.525  0.4862 -0.5123  1.5030
  120OSM    C3F12630   1.122   2.623   6.356  0.1282  0.2445 -0.6970
  120OSM    H3F12631   1.028   2.680   6.343  0.5283  0.8415 -1.0059
  120OSM    H3G12632   1.099   2.516   6.338  1.4277 -0.2379  0.3109
  120OSM    C4F12633   1.218   2.667   6.248  0.1763 -0.3131 -0.1269
  120OSM    H4F12634   1.318   2.627   6.273  0.4635  0.8476  0.6565
  120OSM    H4G12635   1.225   2.778   6.237 -0.4125 -0.3079 -0.4863
  120OSM    C5F12636   1.160   2.622   6.116 -0.7576 -0.2949 -0.1805
  120OSM    H5F12637   1.060   2.665   6.094 -2.1644 -2.4350  1.5748
  120OSM    H5G12638   1.147   2.511   6.116 -2.2839 -0.1712  2.2778
  120OSM    C6F12639   1.269   2.653   6.005  0.7757 -0.4791  0.0411
  120OSM    H6F12640   1.359   2.588   6.010  1.5381  0.4916 -0.6938
  120OSM    H6G12641   1.312   2.755   6.018  2.1903 -1.0587  0.0408
  120OSM    C7F12642   1.221   2.629   5.855 -1.2268  0.0927 -0.1105
  120OSM    H7F12643   1.153   2.714   5.831 -0.4154  0.7121 -0.2351
  120OSM    H7G12644   1.169   2.531   5.855 -1.6004  0.2677  1.2955
  120OSM    C8F12645   1.340   2.629   5.753  0.3323  0.0150  0.1386
  120OSM    H8F12646   1.422   2.559   5.777  0.1057  0.1279  1.2980
  120OSM    H8G12647   1.378   2.731   5.774 -1.3231  0.6977 -0.0570
  120OSM    C9F12648   1.285   2.608   5.615  0.1875 -0.1660  0.4468
  120OSM    H9F12649   1.229   2.514   5.619 -0.7981  0.3217 -1.1370
  120OSM   C10F12650   1.288   2.675   5.500 -0.5529  0.1493 -0.4463
  120OSM   H10F12651   1.230   2.642   5.412 -1.6765 -2.0559  1.0159
  120OSM   C11F12652   1.350   2.808   5.481 -0.7660  0.3237  0.0680
  120OSM   H11F12653   1.378   2.851   5.580  0.9452  1.2138 -0.7575
  120OSM   H11G12654   1.283   2.878   5.427 -0.3120 -0.2036 -1.2289
  120OSM   C12F12655   1.477   2.801   5.389  0.3062  0.7017 -0.2657
  120OSM   H12F12656   1.445   2.741   5.302 -1.6550  1.3207 -0.0188
  120OSM   H12G12657   1.552   2.746   5.450 -1.9758 -1.4632  0.8117
  120OSM   C13F12658   1.530   2.938   5.331  0.6472  0.5369 -0.2832
  120OSM   H13F12659   1.448   2.985   5.273 -0.0339  0.5285  0.6389
  120OSM   H13G12660   1.611   2.927   5.256  0.5499 -0.3389 -0.2756
  120OSM   C14F12661   1.587   3.035   5.427 -0.1294  0.2210 -0.0701
  120OSM   H14F12662   1.691   3.005   5.454 -0.3457  0.4221  1.0072
  120OSM   H14G12663   1.533   3.035   5.524 -1.2821 -1.7989 -0.6545
  120OSM   C15F12664   1.591   3.173   5.355  0.0118 -0.3194  0.2182
  120OSM   H15F12665   1.602   3.253   5.431  2.1938 -0.9690  0.6369
  120OSM   H15G12666   1.500   3.199   5.296  0.9814  0.6355 -0.9053
  120OSM   C16F12667   1.712   3.197   5.259  0.2917  0.0493  0.2283
  120OSM   H16F12668   1.692   3.300   5.223  0.4177  0.1001  0.3050
  120OSM   H16G12669   1.703   3.115   5.185  2.1383 -1.6840  1.7833
  120OSM   C17F12670   1.859   3.183   5.324  0.4186 -0.0766  0.7591
  120OSM   H17F12671   1.875   3.078   5.355  0.5026 -0.2355  0.1864
  120OSM   H17G12672   1.858   3.252   5.411  0.3282 -1.5775  1.9930
  120OSM   C18F12673   1.973   3.213   5.236  0.1167 -0.0656 -0.1694
  120OSM   H18F12674   2.058   3.168   5.292 -0.0732  0.4758  0.5700
  120OSM   H18G12675   1.998   3.321   5.226  2.2625 -0.6105 -1.6749
  120OSM   H18H12676   1.958   3.169   5.135 -1.9493  2.4110 -1.0657
  121OSM      N12677   2.572   0.381   7.401  0.2646  0.1478  0.5022
  121OSM    C1512678   2.683   0.332   7.494 -0.1053  0.2763  0.3833
  121OSM   H15A12679   2.712   0.229   7.477 -2.4166 -0.2279 -1.0129
  121OSM   H15B12680   2.657   0.338   7.598  2.3329  0.6053  1.0397
  121OSM   H15C12681   2.773   0.387   7.472 -0.9170  1.3442 -0.4011
  121OSM    C1412682   2.453   0.291   7.418 -0.0558  0.6023  0.0360
  121OSM   H14A12683   2.479   0.186   7.416 -0.4234  0.4936  0.6743
  121OSM   H14B12684   2.381   0.306   7.339 -2.3347 -2.7724  1.2149
  121OSM   H14C12685   2.403   0.303   7.513 -1.8371 -1.0972 -0.6093
  121OSM    C1312686   2.537   0.521   7.452 -1.3186  0.6746  0.6741
  121OSM   H13A12687   2.511   0.518   7.557 -0.4058  1.0771  0.9180
  121OSM   H13B12688   2.460   0.560   7.387 -0.1474  2.0869  0.0830
  121OSM   H13C12689   2.627   0.580   7.455  0.7964 -2.2976  0.8278
  121OSM    C1212690   2.620   0.379   7.254  1.1955 -0.1657 -0.4088
  121OSM   H12A12691   2.635   0.274   7.234  2.0428 -0.0254 -0.5323
  121OSM   H12B12692   2.710   0.437   7.248  0.8268  0.7145  1.6541
  121OSM    C1112693   2.520   0.432   7.151 -0.1602 -0.4646  0.1103
  121OSM   H11A12694   2.418   0.398   7.178  0.3892 -1.1125  1.4943
  121OSM   H11B12695   2.543   0.395   7.049  2.1501 -0.4920  0.5781
  121OSM      P12696   2.659   0.652   7.124 -0.4184  0.5167 -0.1620
  121OSM    O1312697   2.651   0.786   7.194  0.3086  0.0500 -0.3020
  121OSM    O1412698   2.783   0.572   7.155 -0.0927 -0.3507  0.2625
  121OSM    O1112699   2.647   0.669   6.966 -0.4775 -0.4064  0.3684
  121OSM    O1212700   2.527   0.578   7.159 -0.2569 -0.3508 -0.6259
  121OSM    C1S12701   2.526   0.703   6.907  0.1203 -0.9786  1.0658
  121OSM    H1S12702   2.490   0.803   6.939  0.4071 -0.2924 -0.6076
  121OSM    H1T12703   2.437   0.640   6.927 -0.5013 -1.0060 -1.3956
  121OSM     NF12704   2.412   0.759   6.684 -0.2363 -0.1920 -0.5236
  121OSM    HNF12705   2.339   0.695   6.659 -0.8555  0.7219 -1.1510
  121OSM    C2S12706   2.532   0.712   6.747  0.5063 -0.0333 -0.4508
  121OSM    H2S12707   2.607   0.792   6.729 -0.9251  1.0631 -1.8573
  121OSM    C3S12708   2.576   0.576   6.696 -0.3144 -0.7029  0.8695
  121OSM    H3S12709   2.512   0.488   6.717  0.5663 -1.5393  0.1700
  121OSM     O312710   2.702   0.547   6.750 -0.0564  0.2767 -0.6710
  121OSM    HO312711   2.699   0.586   6.837  1.1398 -1.8668  0.4119
  121OSM    C4S12712   2.604   0.584   6.546 -0.2349  0.3118  0.3434
  121OSM    H4S12713   2.709   0.598   6.514 -0.4576  2.0997  0.3457
  121OSM    C5S12714   2.508   0.581   6.448  0.3414  0.7658 -0.6079
  121OSM    H5S12715   2.404   0.556   6.473  1.2594 -3.0178  0.1466
  121OSM    C6S12716   2.546   0.593   6.303 -0.6170 -0.0479  0.3433
  121OSM    H6S12717   2.551   0.697   6.264 -0.1491  0.4284  1.6198
  121OSM    H6T12718   2.480   0.530   6.239 -0.1137  0.5465 -0.7923
  121OSM    C7S12719   2.686   0.534   6.270 -0.4055 -0.1955  0.0003
  121OSM    H7S12720   2.700   0.433   6.312 -0.2210  0.3361  1.2430
  121OSM    H7T12721   2.769   0.598   6.306 -0.3981 -0.0786 -0.2177
  121OSM    C8S12722   2.696   0.526   6.114 -0.7241  0.6790  0.3595
  121OSM    H8S12723   2.682   0.628   6.072 -0.9506 -0.8548 -3.6331
  121OSM    H8T12724   2.613   0.461   6.082  1.0185 -1.6680  0.3887
  121OSM    C9S12725   2.829   0.458   6.076 -0.7476  0.2437  0.0915
  121OSM    H9S12726   2.824   0.359   6.127 -3.5457  0.4934  0.4591
  121OSM    H9T12727   2.915   0.520   6.110 -0.9188  1.1919 -1.1515
  121OSM   C10S12728   2.846   0.443   5.923 -0.1290 -0.3363 -0.1056
  121OSM   H10S12729   2.883   0.538   5.880  0.6183 -1.2871 -1.6705
  121OSM   H10T12730   2.746   0.425   5.877  0.5356  0.9789 -2.2155
  121OSM   C11S12731   2.947   0.330   5.883  0.3727 -0.6575  0.1144
  121OSM   H11S12732   2.938   0.227   5.923  0.9858 -2.1126 -3.1482
  121OSM   H11T12733   3.049   0.367   5.911 -0.1215  1.9212 -1.1801
  121OSM   C12S12734   2.955   0.313   5.738 -0.0909  0.2912  0.4525
  121OSM   H12S12735   2.982   0.406   5.683 -1.2220  0.6051  0.4028
  121OSM   H12T12736   2.866   0.269   5.687 -0.7702  1.5662  0.4948
  121OSM   C13S12737   3.077   0.215   5.707  0.4675  0.3191 -0.3868
  121OSM   H13S12738   3.057   0.117   5.755 -0.2746  0.9678  0.6790
  121OSM   H13T12739   3.162   0.265   5.759  0.1943 -0.5231  0.9369
  121OSM   C14S12740   3.107   0.190   5.563 -0.3605  0.1583  0.1516
  121OSM   H14S12741   3.118   0.285   5.506  0.3555 -0.0765 -0.1165
  121OSM   H14T12742   3.025   0.144   5.504 -1.5761  3.9421 -1.3992
  121OSM   C15S12743   3.235   0.105   5.545 -0.3831  0.1676 -0.4488
  121OSM   H15S12744   3.254   0.036   5.630  0.3479 -1.3520 -1.7931
  121OSM   H15T12745   3.326   0.169   5.548 -0.5297  0.3592  0.1144
  121OSM   C16S12746   3.238   0.026   5.413 -0.3750 -0.3667 -0.8501
  121OSM   H16S12747   3.201   0.087   5.327 -0.0293  0.6632 -0.2873
  121OSM   H16T12748   3.173  -0.063   5.426  0.0355 -0.4763  0.6184
  121OSM   C17S12749   3.380  -0.033   5.379 -0.0131  0.2095 -1.0625
  121OSM   H17S12750   3.437  -0.044   5.473  1.1473  0.9547 -1.6571
  121OSM   H17T12751   3.430   0.047   5.321 -0.5312  1.0460 -0.3792
  121OSM   C18S12752   3.377  -0.161   5.301 -0.2941  0.0885 -0.5716
  121OSM   H18S12753   3.318  -0.153   5.207 -1.0595 -0.6058 -0.1587
  121OSM   H18T12754   3.342  -0.238   5.372  0.9339  0.9292  0.9991
  121OSM   H18U12755   3.477  -0.183   5.257  0.7243  2.6612  0.2553
  121OSM    C1F12756   2.363   0.880   6.695 -0.4030 -0.0434 -0.0397
  121OSM     OF12757   2.422   0.964   6.763 -0.1199  0.5920  0.2236
  121OSM    C2F12758   2.246   0.914   6.608 -0.1696  0.1003 -0.6374
  121OSM    H2F12759   2.236   1.024   6.623  1.4236 -0.0348  2.0273
  121OSM    H2G12760   2.161   0.856   6.648 -1.3033  1.4514 -0.9961
  121OSM    C3F12761   2.275   0.878   6.467 -0.8066  0.1056  0.1855
  121OSM    H3F12762   2.303   0.770   6.468 -2.4816 -0.3574  1.0286
  121OSM    H3G12763   2.363   0.936   6.434  0.1547 -1.3644  0.0886
  121OSM    C4F12764   2.152   0.887   6.380  0.2795 -0.4261 -0.3424
  121OSM    H4F12765   2.134   0.993   6.354  2.0857  0.2401  0.9565
  121OSM    H4G12766   2.059   0.859   6.434  1.1713 -0.6010  1.1389
  121OSM    C5F12767   2.159   0.809   6.251 -1.2500  0.1956 -0.1116
  121OSM    H5F12768   2.063   0.771   6.210  0.3003 -1.7017 -2.2303
  121OSM    H5G12769   2.205   0.712   6.279  0.3507  1.0459  0.3592
  121OSM    C6F12770   2.244   0.870   6.137 -0.6741 -0.3344 -0.6806
  121OSM    H6F12771   2.341   0.903   6.180 -2.1968 -0.4200  3.2455
  121OSM    H6G12772   2.191   0.957   6.094 -4.1903 -2.4542 -0.9831
  121OSM    C7F12773   2.265   0.761   6.026  0.7075  0.0984 -0.4281
  121OSM    H7F12774   2.172   0.709   5.995  0.2994  1.4933 -1.6949
  121OSM    H7G12775   2.322   0.677   6.071 -1.8988 -2.7381 -2.0246
  121OSM    C8F12776   2.338   0.816   5.900  0.3927 -0.0968  0.6061
  121OSM    H8F12777   2.366   0.734   5.830  2.8850 -0.0801  1.4783
  121OSM    H8G12778   2.430   0.857   5.948  0.4779  0.4740 -0.0420
  121OSM    C9F12779   2.253   0.922   5.833  0.1464 -0.1262  0.0916
  121OSM    H9F12780   2.210   1.001   5.895 -1.5343 -0.7997 -0.1656
  121OSM   C10F12781   2.244   0.944   5.699  0.1412  0.6528  0.0207
  121OSM   H10F12782   2.182   1.027   5.664 -0.7135 -0.0725 -0.2220
  121OSM   C11F12783   2.325   0.877   5.591  0.2428  0.4938  0.2051
  121OSM   H11F12784   2.395   0.801   5.631 -0.4115 -0.2015  0.0458
  121OSM   H11G12785   2.371   0.955   5.526 -1.3616 -0.4494 -2.2356
  121OSM   C12F12786   2.237   0.780   5.496  0.1468 -0.1499 -0.2785
  121OSM   H12F12787   2.303   0.736   5.418  0.7476  2.9547 -1.6638
  121OSM   H12G12788   2.168   0.851   5.446  0.2589  1.6635  1.9933
  121OSM   C13F12789   2.173   0.665   5.573 -0.1059 -0.5737  0.0656
  121OSM   H13F12790   2.117   0.708   5.659 -0.9387  1.0912 -1.2508
  121OSM   H13G12791   2.255   0.602   5.613  1.4670  1.6125  0.4506
  121OSM   C14F12792   2.086   0.566   5.491 -1.3132  1.1090  0.0577
  121OSM   H14F12793   2.003   0.621   5.441 -2.0647 -1.8441 -2.1966
  121OSM   H14G12794   2.041   0.499   5.568 -0.4379 -1.1522 -1.2962
  121OSM   C15F12795   2.170   0.501   5.380 -0.1914  0.7348  0.9343
  121OSM   H15F12796   2.262   0.456   5.424  0.8858  1.7444 -0.1819
  121OSM   H15G12797   2.209   0.580   5.312  1.2882 -0.9710 -0.3185
  121OSM   C16F12798   2.096   0.399   5.297  0.2970 -0.8074 -0.6435
  121OSM   H16F12799   1.994   0.431   5.267 -0.3320 -1.1859  1.0032
  121OSM   H16G12800   2.086   0.313   5.367  0.0143  0.5267  1.0237
  121OSM   C17F12801   2.191   0.342   5.190  0.5368  0.2637  0.2342
  121OSM   H17F12802   2.161   0.238   5.164 -1.0072  0.5298  0.8238
  121OSM   H17G12803   2.293   0.345   5.234  0.7703  1.4659 -0.3298
  121OSM   C18F12804   2.189   0.432   5.066 -0.0103  0.1683  0.1225
  121OSM   H18F12805   2.219   0.535   5.093  0.3818  0.9805 -3.0272
  121OSM   H18G12806   2.087   0.428   5.023 -1.2893  1.9245  2.7878
  121OSM   H18H12807   2.267   0.390   4.998  0.0336 -1.8996  1.3640
  122OSM      N12808   0.389   1.169   7.100  0.1691  0.4222 -0.0808
  122OSM    C1512809   0.510   1.157   7.189 -0.0622  0.2861 -0.2326
  122OSM   H15A12810   0.516   1.231   7.267  1.5118  1.0777 -1.0570
  122OSM   H15B12811   0.603   1.165   7.134  0.4409  1.9371  0.7594
  122OSM   H15C12812   0.518   1.059   7.232  1.2585  0.4839  0.0187
  122OSM    C1412813   0.422   1.089   6.974  0.3432  0.1368 -0.7327
  122OSM   H14A12814   0.346   1.105   6.899 -1.5698  0.2019  1.1279
  122OSM   H14B12815   0.410   0.985   7.001  0.0328  0.3160 -0.1759
  122OSM   H14C12816   0.510   1.116   6.917  2.2508 -1.6644  1.1937
  122OSM    C1312817   0.265   1.121   7.169  0.0021  0.4192  0.0486
  122OSM   H13A12818   0.261   1.148   7.273  1.1271 -1.8657  0.7535
  122OSM   H13B12819   0.275   1.013   7.172 -0.4050  0.3685 -0.2253
  122OSM   H13C12820   0.174   1.152   7.119 -0.0713  2.0799  1.1406
  122OSM    C1212821   0.363   1.313   7.050 -0.6089 -0.7886 -0.3020
  122OSM   H12A12822   0.282   1.312   6.979 -0.4064  1.2976 -0.6063
  122OSM   H12B12823   0.452   1.345   6.998  1.4709 -2.6169  1.8324
  122OSM    C1112824   0.325   1.412   7.167  0.2558  0.3793  0.5937
  122OSM   H11A12825   0.239   1.380   7.229  0.9353 -2.2133  0.3047
  122OSM   H11B12826   0.306   1.514   7.126  0.4739  0.1103 -0.2000
  122OSM      P12827   0.537   1.535   7.257 -0.4711  0.1091 -0.1843
  122OSM    O1312828   0.477   1.658   7.317  0.1466  0.4214 -0.3128
  122OSM    O1412829   0.669   1.489   7.314 -0.4457  0.0444  0.2170
  122OSM    O1112830   0.554   1.553   7.099  0.0326 -0.6951  0.1151
  122OSM    O1212831   0.431   1.416   7.260  0.4121  0.0042 -0.3901
  122OSM    C1S12832   0.649   1.479   7.027 -0.0757  0.3922 -0.9702
  122OSM    H1S12833   0.634   1.371   7.047 -1.5216  0.7353  0.0006
  122OSM    H1T12834   0.742   1.503   7.083 -2.5683  2.8531  2.6239
  122OSM     NF12835   0.755   1.434   6.811  0.3951 -0.2759 -0.6998
  122OSM    HNF12836   0.842   1.475   6.785  1.1478  1.6549  3.8971
  122OSM    C2S12837   0.649   1.508   6.875  0.0889 -0.1464  0.4215
  122OSM    H2S12838   0.552   1.472   6.835  1.1380 -0.2155 -2.2892
  122OSM    C3S12839   0.638   1.664   6.851  0.6733  0.6837 -0.5158
  122OSM    H3S12840   0.724   1.723   6.889  0.6265  0.7945 -0.5834
  122OSM     O312841   0.520   1.722   6.912  0.3119  0.1211  0.0420
  122OSM    HO312842   0.506   1.660   6.984  1.4138 -3.6104 -2.6241
  122OSM    C4S12843   0.645   1.683   6.696 -0.3344 -0.9429 -0.3355
  122OSM    H4S12844   0.746   1.700   6.658 -0.0597 -0.1701  0.6724
  122OSM    C5S12845   0.542   1.680   6.607 -0.1679  0.6761  0.1383
  122OSM    H5S12846   0.441   1.663   6.649  0.0683 -1.7086 -0.1447
  122OSM    C6S12847   0.561   1.704   6.459  0.0261  1.1161  0.3008
  122OSM    H6S12848   0.515   1.613   6.415  0.3287 -0.0378  2.2597
  122OSM    H6T12849   0.668   1.698   6.427 -0.7577  1.4543 -2.7348
  122OSM    C7S12850   0.500   1.830   6.404 -1.4471 -0.6938 -0.3896
  122OSM    H7S12851   0.532   1.927   6.447 -1.4601 -0.4533 -0.9160
  122OSM    H7T12852   0.389   1.840   6.413 -1.2243  2.6643 -0.4307
  122OSM    C8S12853   0.535   1.825   6.257  0.4010  0.4618  0.0668
  122OSM    H8S12854   0.493   1.734   6.208  2.4798 -1.1561  1.1559
  122OSM    H8T12855   0.643   1.825   6.232  0.2654  3.2410 -0.8786
  122OSM    C9S12856   0.470   1.942   6.177  0.3562 -0.1283 -0.2128
  122OSM    H9S12857   0.511   2.038   6.215 -1.0956  0.5012 -0.1837
  122OSM    H9T12858   0.360   1.929   6.190 -0.0625  0.3054 -2.7840
  122OSM   C10S12859   0.489   1.950   6.026  0.1131  0.0623  0.0806
  122OSM   H10S12860   0.405   2.004   5.978  1.3130 -0.7180 -3.1632
  122OSM   H10T12861   0.461   1.846   5.999 -2.7363  0.5100  1.0259
  122OSM   C11S12862   0.629   2.000   5.986  0.8723  0.2544 -0.4798
  122OSM   H11S12863   0.706   1.951   6.050  0.0880  2.3075  2.1624
  122OSM   H11T12864   0.634   2.106   6.017 -0.2168  0.2626 -0.3058
  122OSM   C12S12865   0.684   1.972   5.844  0.5934 -0.3387 -0.0359
  122OSM   H12S12866   0.793   1.993   5.844  0.3555  0.9828  0.5888
  122OSM   H12T12867   0.640   2.041   5.770 -3.1452 -2.2643  0.1848
  122OSM   C13S12868   0.658   1.825   5.802 -0.8647 -0.6379  0.2533
  122OSM   H13S12869   0.558   1.784   5.830 -1.8935  1.6528  0.1940
  122OSM   H13T12870   0.724   1.754   5.856 -1.3900 -0.3611  1.2844
  122OSM   C14S12871   0.676   1.815   5.648 -0.5721 -0.4461  0.2521
  122OSM   H14S12872   0.765   1.875   5.617 -1.4573  0.4949 -0.5779
  122OSM   H14T12873   0.601   1.878   5.594  1.2875  0.7299 -1.0947
  122OSM   C15S12874   0.684   1.672   5.595 -0.3208 -0.2025  0.5150
  122OSM   H15S12875   0.594   1.606   5.593  1.7979 -3.2997  0.4168
  122OSM   H15T12876   0.751   1.619   5.666 -0.8083 -1.5256  0.0212
  122OSM   C16S12877   0.750   1.650   5.451 -0.0154 -0.3716  0.5389
  122OSM   H16S12878   0.693   1.696   5.367  1.0684 -0.8495 -0.4888
  122OSM   H16T12879   0.753   1.541   5.427  3.1078 -0.0039 -1.1632
  122OSM   C17S12880   0.891   1.706   5.426  0.6223 -0.3931 -0.4993
  122OSM   H17S12881   0.959   1.668   5.505  0.8373  1.3201  0.1804
  122OSM   H17T12882   0.891   1.817   5.418 -1.6750 -0.4014 -1.4703
  122OSM   C18S12883   0.947   1.661   5.292  0.7072  0.2328  0.2236
  122OSM   H18S12884   0.879   1.666   5.204 -0.1450  2.1228  0.9607
  122OSM   H18T12885   0.974   1.554   5.307  1.0516  0.0192 -1.6587
  122OSM   H18U12886   1.036   1.720   5.262  0.1226  0.6090 -0.8236
  122OSM    C1F12887   0.733   1.308   6.796  0.0505  0.4754  0.4556
  122OSM     OF12888   0.623   1.250   6.805  0.0014 -0.0932 -0.4542
  122OSM    C2F12889   0.850   1.224   6.754 -0.7518 -0.4087 -1.0713
  122OSM    H2F12890   0.868   1.162   6.845 -1.5766  0.1076 -0.5344
  122OSM    H2G12891   0.940   1.289   6.746 -0.5218 -0.4348  0.7358
  122OSM    C3F12892   0.820   1.129   6.633  0.3536 -0.2546 -0.1467
  122OSM    H3F12893   0.718   1.089   6.647  0.1312 -0.1139 -1.2983
  122OSM    H3G12894   0.883   1.037   6.634 -1.5941 -1.6429  0.6599
  122OSM    C4F12895   0.839   1.191   6.495  0.1748 -0.1881  0.1161
  122OSM    H4F12896   0.904   1.129   6.430  0.0846 -1.6203  1.3391
  122OSM    H4G12897   0.891   1.288   6.509 -1.1354  0.6757 -0.7432
  122OSM    C5F12898   0.710   1.218   6.432  0.1286  0.2342 -0.1720
  122OSM    H5F12899   0.652   1.296   6.485 -0.4626 -1.3446  1.6202
  122OSM    H5G12900   0.644   1.129   6.441 -0.6648  0.8870  0.6185
  122OSM    C6F12901   0.733   1.245   6.283  0.8801 -0.1987 -0.3690
  122OSM    H6F12902   0.631   1.249   6.239  0.6037 -2.6586 -0.1077
  122OSM    H6G12903   0.777   1.157   6.231 -0.7454 -0.4592 -1.3947
  122OSM    C7F12904   0.813   1.371   6.259  0.8099  0.0487 -0.7460
  122OSM    H7F12905   0.921   1.351   6.270  0.8692  0.1979 -1.0319
  122OSM    H7G12906   0.783   1.446   6.335 -0.8657 -0.1108 -1.2021
  122OSM    C8F12907   0.801   1.438   6.123 -0.6704 -0.1334  0.1235
  122OSM    H8F12908   0.814   1.361   6.043  0.9671 -0.2953  0.5146
  122OSM    H8G12909   0.893   1.499   6.111 -0.7395 -0.0333  0.1057
  122OSM    C9F12910   0.680   1.524   6.120 -0.7002  0.1986 -0.3765
  122OSM    H9F12911   0.695   1.621   6.169 -1.1981 -0.0893  0.3566
  122OSM   C10F12912   0.561   1.483   6.072  0.7233  0.0567  0.9308
  122OSM   H10F12913   0.465   1.537   6.078 -0.9830 -2.3262 -1.6510
  122OSM   C11F12914   0.539   1.354   6.003  0.4348 -0.3644 -0.2891
  122OSM   H11F12915   0.444   1.310   6.038  0.0731  1.7587  1.6625
  122OSM   H11G12916   0.615   1.275   6.020 -0.8781 -1.5480  0.2114
  122OSM   C12F12917   0.526   1.377   5.852 -0.2821 -0.4402  0.5119
  122OSM   H12F12918   0.619   1.418   5.809 -1.2407  0.5958 -0.6119
  122OSM   H12G12919   0.444   1.445   5.821 -1.6520 -2.8998 -1.6117
  122OSM   C13F12920   0.488   1.243   5.776 -0.4303  0.5592  0.0753
  122OSM   H13F12921   0.379   1.221   5.776 -0.1804 -0.8222 -0.5564
  122OSM   H13G12922   0.530   1.156   5.831  0.3105  1.2008  0.5475
  122OSM   C14F12923   0.531   1.248   5.631  0.1825 -0.5040  0.3056
  122OSM   H14F12924   0.541   1.144   5.594 -1.2816 -0.0768 -1.3920
  122OSM   H14G12925   0.631   1.294   5.615 -0.1361  0.4366  0.9611
  122OSM   C15F12926   0.438   1.314   5.530 -0.0238  0.1020 -0.1147
  122OSM   H15F12927   0.472   1.294   5.426  1.9106  0.4693  0.3919
  122OSM   H15G12928   0.437   1.424   5.540 -0.9538 -0.0472  1.9416
  122OSM   C16F12929   0.285   1.268   5.527  0.0335  0.7300 -0.0128
  122OSM   H16F12930   0.238   1.322   5.611 -0.6622  0.4232 -0.2004
  122OSM   H16G12931   0.289   1.160   5.553 -0.1446  0.5205 -0.8200
  122OSM   C17F12932   0.209   1.280   5.395 -0.0810 -0.7845 -0.6442
  122OSM   H17F12933   0.273   1.243   5.312  1.9797 -1.1289  1.0112
  122OSM   H17G12934   0.199   1.388   5.373 -0.5597 -0.5957  0.4244
  122OSM   C18F12935   0.067   1.215   5.386  0.1366  0.3704  0.2633
  122OSM   H18F12936   0.076   1.106   5.404  0.1604  0.2319 -0.5709
  122OSM   H18G12937   0.016   1.230   5.288  1.4431  1.9200 -0.2277
  122OSM   H18H12938  -0.001   1.250   5.467 -1.4629 -0.1087 -0.8201
  123OSM      N12939   3.844   2.624   2.715  0.0228 -0.0422 -0.4293
  123OSM    C1512940   3.846   2.712   2.592 -0.5799  0.1225 -0.5626
  123OSM   H15A12941   3.754   2.766   2.578  0.1397  1.6511  0.3112
  123OSM   H15B12942   3.870   2.661   2.500 -0.2370  1.3161 -1.1409
  123OSM   H15C12943   3.921   2.788   2.605 -1.3225  0.4763  2.2756
  123OSM    C1412944   3.856   2.720   2.826 -0.0920  0.1629 -0.2326
  123OSM   H14A12945   3.767   2.781   2.827 -0.5218 -0.4385 -0.7577
  123OSM   H14B12946   3.942   2.780   2.802  0.4708 -0.9445 -1.0580
  123OSM   H14C12947   3.850   2.662   2.918  0.1754 -1.2947 -1.0984
  123OSM    C1312948   3.723   2.539   2.715  0.0678 -0.7565  0.9390
  123OSM   H13A12949   3.687   2.498   2.808 -0.3245 -3.0165 -0.1392
  123OSM   H13B12950   3.744   2.463   2.641  2.9912  2.5696 -2.0086
  123OSM   H13C12951   3.635   2.593   2.682  1.0930  1.2556  1.3321
  123OSM    C1212952   3.969   2.536   2.715 -0.1041  0.4975  0.6851
  123OSM   H12A12953   3.953   2.447   2.775 -0.2959 -2.7439 -3.7239
  123OSM   H12B12954   4.049   2.585   2.769  1.6087 -1.2754 -0.1062
  123OSM    C1112955   4.009   2.476   2.580  0.2069  0.5003 -0.4528
  123OSM   H11A12956   4.102   2.416   2.592  0.7944  1.6483  1.0634
  123OSM   H11B12957   4.024   2.553   2.502  1.6267  0.8643  0.1468
  123OSM      P12958   3.917   2.232   2.538  0.3978 -0.4406 -0.3342
  123OSM    O1312959   3.785   2.174   2.514  0.0756 -0.2041  0.3732
  123OSM    O1412960   4.026   2.192   2.449  0.6995 -0.5124 -0.0927
  123OSM    O1112961   3.978   2.208   2.686  0.0330  0.0249 -0.3245
  123OSM    O1212962   3.900   2.390   2.534  0.1254  0.1822 -0.3939
  123OSM    C1S12963   3.881   2.185   2.784 -0.9940  0.6872  0.4968
  123OSM    H1S12964   3.830   2.087   2.780  1.4417 -0.7014  1.3378
  123OSM    H1T12965   3.811   2.271   2.793 -1.3448  0.4295  0.2340
  123OSM     NF12966   3.841   2.156   3.029  0.5921  0.5777 -0.2017
  123OSM    HNF12967   3.819   2.237   3.084  1.3740  0.6004  0.0840
  123OSM    C2S12968   3.946   2.178   2.932  0.0812  0.3243 -0.1427
  123OSM    H2S12969   4.014   2.091   2.944 -2.8849 -2.0561  0.7709
  123OSM    C3S12970   4.030   2.305   2.960 -0.2048 -0.3884  0.3962
  123OSM    H3S12971   3.963   2.387   2.927 -0.7017 -0.6140  0.8400
  123OSM     O312972   4.147   2.323   2.881 -0.2373 -0.2405 -0.1583
  123OSM    HO312973   4.143   2.251   2.817 -0.5060  0.1776 -0.6181
  123OSM    C4S12974   4.065   2.318   3.102 -0.5911 -0.2037 -0.2899
  123OSM    H4S12975   3.987   2.376   3.153 -0.2984 -0.5759  0.6132
  123OSM    C5S12976   4.174   2.269   3.172 -0.3343 -0.3732  1.1495
  123OSM    H5S12977   4.256   2.221   3.116  0.8481  1.3260  1.3435
  123OSM    C6S12978   4.198   2.282   3.320 -0.2238  0.2428  0.2667
  123OSM    H6S12979   4.125   2.348   3.372 -0.9245 -1.1739  1.1400
  123OSM    H6T12980   4.291   2.341   3.336 -0.1933  0.6675 -1.2590
  123OSM    C7S12981   4.203   2.157   3.409  0.1410  0.6283 -0.4952
  123OSM    H7S12982   4.288   2.089   3.389 -0.4947  0.1420 -1.6880
  123OSM    H7T12983   4.111   2.096   3.395  0.0965  0.5635  0.0843
  123OSM    C8S12984   4.219   2.196   3.555 -0.2337 -0.1587 -0.0022
  123OSM    H8S12985   4.135   2.261   3.590  0.2778 -0.0645  1.1063
  123OSM    H8T12986   4.314   2.254   3.566 -1.2457  1.3706  1.1500
  123OSM    C9S12987   4.226   2.080   3.649 -0.2531  0.1551  0.1446
  123OSM    H9S12988   4.303   2.008   3.616 -2.1435 -1.1185 -1.7880
  123OSM    H9T12989   4.127   2.030   3.642  0.2979 -0.8491 -0.8583
  123OSM   C10S12990   4.240   2.127   3.800  0.0870 -0.1454 -0.7155
  123OSM   H10S12991   4.162   2.191   3.847 -0.1343 -0.3525 -0.8031
  123OSM   H10T12992   4.339   2.171   3.827 -1.2516  1.3455  2.2225
  123OSM   C11S12993   4.247   2.010   3.899 -0.2235 -0.4021  0.4855
  123OSM   H11S12994   4.323   1.941   3.856  1.2633  1.7036 -0.3944
  123OSM   H11T12995   4.149   1.957   3.896  0.1044 -0.9841 -0.4686
  123OSM   C12S12996   4.282   2.060   4.038 -0.9364  0.9910 -0.6930
  123OSM   H12S12997   4.201   2.133   4.060 -0.4913  1.1750  0.3987
  123OSM   H12T12998   4.381   2.108   4.054 -1.8606  2.6980  0.2392
  123OSM   C13S12999   4.270   1.933   4.131  0.4707  0.3933 -0.2686
  123OSM   H13S13000   4.312   1.961   4.230 -1.2327  0.4142  0.4831
  123OSM   H13T13001   4.344   1.856   4.097  0.5587 -0.2348  1.2435
  123OSM   C14S13002   4.128   1.889   4.156  0.4823  0.1449  0.5098
  123OSM   H14S13003   4.138   1.802   4.223  1.4785  1.8025  2.6259
  123OSM   H14T13004   4.081   1.861   4.059  2.2248 -1.2772  0.0309
  123OSM   C15S13005   4.047   2.000   4.227  0.4488 -0.0407  0.5945
  123OSM   H15S13006   3.999   2.073   4.159 -1.0491 -1.7509 -0.2842
  123OSM   H15T13007   4.113   2.049   4.301  1.6558  0.1282 -0.5723
  123OSM   C16S13008   3.935   1.949   4.313  0.4484  0.0388 -0.5816
  123OSM   H16S13009   3.985   1.878   4.382  1.3810  0.2318 -1.0456
  123OSM   H16T13010   3.876   1.883   4.245 -0.5650 -0.0874  0.3865
  123OSM   C17S13011   3.844   2.059   4.367 -0.2338  0.0322 -0.3947
  123OSM   H17S13012   3.900   2.149   4.402 -0.5996  0.4917 -0.9600
  123OSM   H17T13013   3.786   2.017   4.451  0.3446  0.6585  0.3271
  123OSM   C18S13014   3.737   2.100   4.265  0.7283  0.1325  1.2165
  123OSM   H18S13015   3.677   2.182   4.309  1.1912  0.5463  1.0861
  123OSM   H18T13016   3.669   2.014   4.252 -0.4001  1.0166  1.1035
  123OSM   H18U13017   3.769   2.141   4.166 -1.1405 -0.8443  0.1510
  123OSM    C1F13018   3.775   2.041   3.053 -0.5140 -0.1504 -1.0830
  123OSM     OF13019   3.770   1.956   2.973  0.0458  0.2813  0.7865
  123OSM    C2F13020   3.687   2.031   3.171 -0.3120 -0.3338 -0.3343
  123OSM    H2F13021   3.621   1.943   3.155 -0.3565 -0.8668  2.3297
  123OSM    H2G13022   3.636   2.128   3.188  0.5490  0.1115 -0.2739
  123OSM    C3F13023   3.773   1.997   3.292 -0.0240 -0.1560  0.0306
  123OSM    H3F13024   3.845   2.080   3.305 -0.2806  0.0279  0.2998
  123OSM    H3G13025   3.832   1.905   3.270  0.5968  0.1990  0.1886
  123OSM    C4F13026   3.698   1.981   3.425 -0.6881 -0.9158 -0.5519
  123OSM    H4F13027   3.645   1.885   3.440  0.6873 -1.7403 -0.7408
  123OSM    H4G13028   3.634   2.071   3.439 -1.0568 -1.2641  0.0074
  123OSM    C5F13029   3.794   1.991   3.547 -0.3614  0.2951 -0.1170
  123OSM    H5F13030   3.839   2.093   3.549 -2.2436  1.1606 -0.1861
  123OSM    H5G13031   3.882   1.928   3.523 -2.0988 -2.0854 -0.6270
  123OSM    C6F13032   3.726   1.958   3.684 -0.4017  0.7214  0.2487
  123OSM    H6F13033   3.707   1.849   3.686  1.7745  0.2989  0.4961
  123OSM    H6G13034   3.633   2.017   3.700  0.0337  1.0835  1.5754
  123OSM    C7F13035   3.826   1.980   3.796 -0.1118 -0.2247 -0.7543
  123OSM    H7F13036   3.832   2.091   3.801  0.4910 -0.2678 -0.2922
  123OSM    H7G13037   3.924   1.940   3.760 -0.2051  0.4363 -1.7738
  123OSM    C8F13038   3.784   1.910   3.927  0.0456 -0.2300 -0.0167
  123OSM    H8F13039   3.692   1.949   3.977  0.4582 -0.6119  1.0718
  123OSM    H8G13040   3.865   1.950   3.991  1.1254  0.4202 -1.7350
  123OSM    C9F13041   3.768   1.762   3.932 -0.3941 -0.9722  0.2876
  123OSM    H9F13042   3.861   1.703   3.923 -0.8199 -1.7306  0.7926
  123OSM   C10F13043   3.655   1.680   3.948 -0.3842  0.1803 -0.5559
  123OSM   H10F13044   3.673   1.572   3.959  2.8396  0.6478 -0.1955
  123OSM   C11F13045   3.516   1.739   3.950  0.0419 -0.6994 -0.3557
  123OSM   H11F13046   3.523   1.842   3.909  1.6475 -0.6357  0.0391
  123OSM   H11G13047   3.475   1.742   4.053  0.8476  1.7580 -0.0289
  123OSM   C12F13048   3.422   1.665   3.846 -0.1999 -0.2683 -0.0719
  123OSM   H12F13049   3.406   1.561   3.882 -1.8934 -0.4952 -1.3449
  123OSM   H12G13050   3.465   1.672   3.744  1.2058 -1.8738  0.3752
  123OSM   C13F13051   3.288   1.740   3.836  0.1525 -0.1818 -0.7287
  123OSM   H13F13052   3.237   1.710   3.741 -0.2504 -0.9616 -0.2743
  123OSM   H13G13053   3.312   1.847   3.819  0.0651 -0.2327 -1.1865
  123OSM   C14F13054   3.206   1.723   3.965 -0.4033  0.1965  0.6779
  123OSM   H14F13055   3.267   1.743   4.055 -0.7688 -0.5386  1.0965
  123OSM   H14G13056   3.151   1.627   3.977  0.3815 -0.2955  0.3682
  123OSM   C15F13057   3.107   1.848   3.967  0.0963  0.7078 -0.4006
  123OSM   H15F13058   3.065   1.842   3.865  2.0785 -3.7475 -1.1886
  123OSM   H15G13059   3.171   1.939   3.978  0.1659  0.5983  0.1670
  123OSM   C16F13060   2.993   1.850   4.073 -0.5265  0.9867  0.0854
  123OSM   H16F13061   2.946   1.751   4.054 -1.1602  1.6310 -2.0456
  123OSM   H16G13062   2.925   1.936   4.054  0.2614  1.7486  0.6534
  123OSM   C17F13063   3.041   1.873   4.216  0.5895 -0.0968 -0.5355
  123OSM   H17F13064   3.106   1.963   4.223 -1.1643  1.3810 -2.2607
  123OSM   H17G13065   3.092   1.781   4.252  0.2536  0.4623  1.5112
  123OSM   C18F13066   2.927   1.878   4.321 -0.0717  0.2042 -0.3196
  123OSM   H18F13067   2.969   1.882   4.424  1.6130  1.2874 -0.9938
  123OSM   H18G13068   2.854   1.794   4.318  0.8592 -0.5996 -1.8996
  123OSM   H18H13069   2.872   1.974   4.319 -1.1650 -0.4093 -1.6640
  124OSM      N13070   3.508   3.447   2.526 -0.1179  0.7611 -0.0410
  124OSM    C1513071   3.412   3.335   2.514  0.7770 -0.2311 -0.0454
  124OSM   H15A13072   3.440   3.249   2.456  2.2557  2.7501 -4.2048
  124OSM   H15B13073   3.324   3.375   2.466  0.2560 -1.0482  0.2267
  124OSM   H15C13074   3.378   3.314   2.615 -0.2781  1.8448  0.1014
  124OSM    C1413075   3.551   3.495   2.387 -0.2541 -0.0903 -0.6105
  124OSM   H14A13076   3.630   3.569   2.390 -1.9503  1.8218 -1.5787
  124OSM   H14B13077   3.465   3.531   2.335 -0.1359  1.7442  0.3754
  124OSM   H14C13078   3.592   3.412   2.330  0.4548 -0.1264 -0.0789
  124OSM    C1313079   3.437   3.559   2.590  0.2536  0.0044  0.3270
  124OSM   H13A13080   3.493   3.651   2.587  1.5954 -0.7428  1.2863
  124OSM   H13B13081   3.419   3.527   2.692 -0.1784 -1.8349 -0.2844
  124OSM   H13C13082   3.347   3.589   2.538  0.9150 -0.4351 -1.1256
  124OSM    C1213083   3.633   3.395   2.601  0.2456 -0.9910 -0.2608
  124OSM   H12A13084   3.600   3.374   2.702 -1.9582  3.2596  0.1398
  124OSM   H12B13085   3.699   3.478   2.620  2.4127 -2.7571  0.4061
  124OSM    C1113086   3.722   3.292   2.528 -0.1395  0.6230  0.1996
  124OSM   H11A13087   3.821   3.282   2.577  0.0204  0.0354 -0.2349
  124OSM   H11B13088   3.759   3.348   2.440  0.2531 -0.7200 -0.5133
  124OSM      P13089   3.717   3.023   2.548 -0.2920 -0.1392  0.3087
  124OSM    O1313090   3.624   2.905   2.534 -0.1214 -0.5017  0.3329
  124OSM    O1413091   3.842   3.013   2.467 -0.0747 -0.1725 -0.3340
  124OSM    O1113092   3.759   3.045   2.695 -0.0292  0.4266  0.1833
  124OSM    O1213093   3.663   3.164   2.489  0.1968 -0.3213 -0.5631
  124OSM    C1S13094   3.655   3.029   2.788 -0.8221 -0.1951  0.2249
  124OSM    H1S13095   3.612   2.927   2.797  1.9972 -1.5828 -0.6808
  124OSM    H1T13096   3.576   3.102   2.759 -2.0002 -1.1190  1.0170
  124OSM     NF13097   3.617   3.029   3.029  0.0123  0.5470 -0.0293
  124OSM    HNF13098   3.528   3.074   3.028 -0.1654  0.1984 -0.6061
  124OSM    C2S13099   3.713   3.078   2.927  0.5575  0.8262  0.2143
  124OSM    H2S13100   3.812   3.031   2.945  0.4918  0.7759  0.4387
  124OSM    C3S13101   3.732   3.229   2.933 -0.1491 -0.3483 -0.0902
  124OSM    H3S13102   3.648   3.296   2.905 -0.3813 -0.2850  0.7430
  124OSM     O313103   3.831   3.264   2.841 -0.5834 -0.4524 -0.0360
  124OSM    HO313104   3.847   3.191   2.782  0.5304  1.1970 -1.9150
  124OSM    C4S13105   3.762   3.263   3.083  0.9223 -0.0413  0.1531
  124OSM    H4S13106   3.668   3.276   3.138  0.3470 -0.4560 -0.7018
  124OSM    C5S13107   3.877   3.277   3.145 -0.1219  0.5891  0.5710
  124OSM    H5S13108   3.969   3.256   3.088  0.3241  0.5923  1.2729
  124OSM    C6S13109   3.910   3.295   3.291  0.2055  0.3997  0.3380
  124OSM    H6S13110   3.987   3.372   3.309  0.8088  0.0685 -0.7430
  124OSM    H6T13111   3.953   3.200   3.331 -1.2800 -0.9150 -1.0075
  124OSM    C7S13112   3.780   3.310   3.376 -0.0678 -0.3343 -0.6575
  124OSM    H7S13113   3.719   3.220   3.355  0.8202 -1.2918  0.7548
  124OSM    H7T13114   3.735   3.407   3.344 -1.2481  0.3843  2.7363
  124OSM    C8S13115   3.811   3.319   3.525 -0.5858  0.0230 -0.0917
  124OSM    H8S13116   3.877   3.406   3.546  0.6681 -1.2281  1.4204
  124OSM    H8T13117   3.853   3.229   3.573 -1.2986 -0.3272 -0.1152
  124OSM    C9S13118   3.677   3.347   3.606 -0.4412 -0.0151  0.5709
  124OSM    H9S13119   3.628   3.248   3.620  1.0408 -0.8995 -0.1288
  124OSM    H9T13120   3.611   3.410   3.543 -0.6486 -3.1920 -2.7587
  124OSM   C10S13121   3.708   3.419   3.732  0.4523 -1.3357  0.9625
  124OSM   H10S13122   3.612   3.429   3.787 -0.2987 -0.5095 -0.4349
  124OSM   H10T13123   3.755   3.517   3.707  0.5543 -2.3236 -3.3552
  124OSM   C11S13124   3.811   3.341   3.820 -0.1214 -0.9585  0.0021
  124OSM   H11S13125   3.913   3.370   3.786  0.1463 -2.2481 -0.3642
  124OSM   H11T13126   3.785   3.233   3.817  0.2255 -1.0395 -0.0832
  124OSM   C12S13127   3.817   3.386   3.965 -0.1906 -0.7583 -0.8218
  124OSM   H12S13128   3.738   3.336   4.026  1.7552 -0.4436  2.2112
  124OSM   H12T13129   3.804   3.496   3.959 -0.5236 -0.7835 -0.6214
  124OSM   C13S13130   3.941   3.349   4.041 -0.7615 -0.0831 -0.6342
  124OSM   H13S13131   4.033   3.383   3.989  0.5122 -1.1067  0.8753
  124OSM   H13T13132   3.950   3.238   4.042 -0.6582 -0.0714  0.1835
  124OSM   C14S13133   3.925   3.397   4.179 -0.0914 -0.1285 -1.1543
  124OSM   H14S13134   3.817   3.391   4.206  0.2332  0.9297  0.5668
  124OSM   H14T13135   3.948   3.505   4.173  0.1882  0.0822  1.8640
  124OSM   C15S13136   4.007   3.320   4.286  0.2282  0.4731  0.0404
  124OSM   H15S13137   4.117   3.324   4.272  1.2903 -3.8559  4.4241
  124OSM   H15T13138   3.974   3.216   4.266  0.0525  0.3244  1.0177
  124OSM   C16S13139   3.978   3.336   4.434  0.4776 -0.2079 -0.4471
  124OSM   H16S13140   3.870   3.318   4.453  0.0471  1.6681 -0.8942
  124OSM   H16T13141   3.996   3.441   4.463  0.0085  0.9950 -4.0401
  124OSM   C17S13142   4.045   3.235   4.519  0.0879 -0.1795  0.2356
  124OSM   H17S13143   4.154   3.244   4.497 -0.2871 -0.8520 -2.1658
  124OSM   H17T13144   4.011   3.137   4.481 -1.6203  1.1968 -2.0526
  124OSM   C18S13145   4.010   3.242   4.666 -0.0442  0.5586 -0.4420
  124OSM   H18S13146   4.006   3.347   4.703 -1.1659 -0.2128  1.8257
  124OSM   H18T13147   4.091   3.192   4.724 -0.9394 -1.6014 -0.9921
  124OSM   H18U13148   3.913   3.193   4.686 -0.0102  0.1017 -1.3820
  124OSM    C1F13149   3.622   2.914   3.085 -1.2627  0.4073 -0.5253
  124OSM     OF13150   3.709   2.834   3.054 -0.1463  0.2337  0.1026
  124OSM    C2F13151   3.512   2.883   3.184  0.4094 -0.5968  0.4196
  124OSM    H2F13152   3.425   2.866   3.116  0.7839 -2.0716  0.2554
  124OSM    H2G13153   3.476   2.977   3.229 -2.8938 -1.6333  0.2196
  124OSM    C3F13154   3.547   2.766   3.271  0.4606 -0.0963 -0.7844
  124OSM    H3F13155   3.585   2.692   3.197  0.8937 -0.3850 -0.2741
  124OSM    H3G13156   3.460   2.730   3.330  1.1917  0.1242  0.4586
  124OSM    C4F13157   3.659   2.790   3.371  0.5822 -0.7225  0.1880
  124OSM    H4F13158   3.751   2.824   3.319  1.1434 -2.2776  0.1113
  124OSM    H4G13159   3.688   2.695   3.419 -0.6501 -0.1754  2.1240
  124OSM    C5F13160   3.624   2.892   3.480 -0.5759  0.3760  0.1390
  124OSM    H5F13161   3.549   2.963   3.439 -1.4202 -0.6146 -0.0651
  124OSM    H5G13162   3.717   2.945   3.510  0.3680 -0.0214 -1.9142
  124OSM    C6F13163   3.563   2.824   3.599 -0.3078  0.0970  0.2423
  124OSM    H6F13164   3.623   2.733   3.622 -0.0653  0.4506  1.0412
  124OSM    H6G13165   3.463   2.790   3.566 -0.9724  0.5748  1.7243
  124OSM    C7F13166   3.560   2.918   3.715  0.4546 -0.0862 -0.2149
  124OSM    H7F13167   3.510   3.012   3.684  2.0555 -0.0103 -2.8607
  124OSM    H7G13168   3.666   2.947   3.730  0.4523 -0.9351  1.7022
  124OSM    C8F13169   3.515   2.855   3.853  0.0003 -0.2613 -0.1337
  124OSM    H8F13170   3.582   2.770   3.878 -0.6327 -0.9002 -0.5453
  124OSM    H8G13171   3.416   2.809   3.832 -0.3096  0.7909 -1.0110
  124OSM    C9F13172   3.494   2.959   3.959  0.4242  0.5757  0.3557
  124OSM    H9F13173   3.390   2.985   3.985  1.4567  2.5086  2.9781
  124OSM   C10F13174   3.592   3.012   4.027 -0.4500  0.1366 -0.2982
  124OSM   H10F13175   3.571   3.086   4.105  2.1513  0.4008  0.2612
  124OSM   C11F13176   3.740   2.978   4.017 -0.5896 -0.1555  0.1579
  124OSM   H11F13177   3.797   3.063   3.974  0.8089 -2.0932 -2.0846
  124OSM   H11G13178   3.754   2.892   3.947 -1.4637 -1.7738  1.8632
  124OSM   C12F13179   3.800   2.928   4.157 -0.2386  0.2339 -0.3949
  124OSM   H12F13180   3.904   2.963   4.175 -0.5194  1.3783 -0.8754
  124OSM   H12G13181   3.801   2.817   4.158  3.2172  0.1668  0.1963
  124OSM   C13F13182   3.724   2.972   4.277  0.4380  0.2418  0.0100
  124OSM   H13F13183   3.628   2.919   4.258  0.0680  1.4460 -1.7398
  124OSM   H13G13184   3.692   3.078   4.287 -0.8163 -0.1739  0.5757
  124OSM   C14F13185   3.790   2.930   4.407  0.4323 -0.2798 -0.0239
  124OSM   H14F13186   3.887   2.982   4.420  0.9003 -0.8440 -1.1336
  124OSM   H14G13187   3.787   2.820   4.396  0.5547 -0.1314 -2.0311
  124OSM   C15F13188   3.704   2.970   4.530  0.5030  0.2802  0.6256
  124OSM   H15F13189   3.598   2.942   4.516  0.3108  0.1735  2.1480
  124OSM   H15G13190   3.717   3.077   4.558  1.8924  0.5145 -0.7582
  124OSM   C16F13191   3.766   2.895   4.648  0.4262  0.1446 -0.1713
  124OSM   H16F13192   3.875   2.893   4.626  0.4482 -2.1748 -0.1130
  124OSM   H16G13193   3.750   2.785   4.643  3.6025 -0.5457  1.5976
  124OSM   C17F13194   3.746   2.961   4.782 -0.2858  0.1720 -0.0125
  124OSM   H17F13195   3.638   2.977   4.805 -0.8790 -2.0641 -0.8910
  124OSM   H17G13196   3.791   3.062   4.779 -1.1405  0.5448 -1.7571
  124OSM   C18F13197   3.806   2.871   4.895  0.5307  0.4232 -0.3038
  124OSM   H18F13198   3.911   2.845   4.870 -0.4041 -4.1740 -0.3011
  124OSM   H18G13199   3.756   2.772   4.906  2.2637 -0.3420  1.2516
  124OSM   H18H13200   3.789   2.907   4.999 -1.1233 -0.3743 -0.2619
  125OSM      N13201   4.621   6.016   2.143 -0.2066  0.7225  0.3460
  125OSM    C1513202   4.486   6.078   2.136 -0.3704  0.1226  0.0355
  125OSM   H15A13203   4.465   6.142   2.220  0.0448 -0.8323  0.8860
  125OSM   H15B13204   4.412   6.003   2.160 -0.2920  0.1838  0.4684
  125OSM   H15C13205   4.447   6.114   2.042  0.2682 -2.7033 -1.4461
  125OSM    C1413206   4.625   5.918   2.036  1.6574  0.3741 -0.1015
  125OSM   H14A13207   4.545   5.845   2.047  1.7112 -0.3629 -3.4207
  125OSM   H14B13208   4.724   5.875   2.035  1.7457  0.5478 -1.6659
  125OSM   H14C13209   4.605   5.964   1.941  0.6681  1.4121  0.5814
  125OSM    C1313210   4.724   6.119   2.104 -0.0920  0.1821  0.0406
  125OSM   H13A13211   4.814   6.072   2.065 -0.9076 -0.1539 -1.5097
  125OSM   H13B13212   4.753   6.187   2.184  1.3280  0.7259 -0.8995
  125OSM   H13C13213   4.697   6.177   2.017 -0.0897  0.3216  0.1321
  125OSM    C1213214   4.648   5.949   2.277  0.9160  0.0327  0.5412
  125OSM   H12A13215   4.738   5.889   2.270  0.0000 -1.4597  1.0051
  125OSM   H12B13216   4.566   5.879   2.288  1.2384 -0.5577 -0.6687
  125OSM    C1113217   4.660   6.042   2.397  0.2368 -0.4417 -0.5133
  125OSM   H11A13218   4.727   6.128   2.376 -0.8385  0.2516 -1.2147
  125OSM   H11B13219   4.703   5.980   2.479  0.5272 -0.3941 -0.6301
  125OSM      P13220   4.434   6.005   2.524  0.1321 -0.1924  0.1853
  125OSM    O1313221   4.296   6.053   2.525 -0.0572  0.5102  0.3241
  125OSM    O1413222   4.443   5.862   2.480 -0.1881  0.0169 -0.1123
  125OSM    O1113223   4.494   6.017   2.674 -0.2023  0.3134 -0.0870
  125OSM    O1213224   4.526   6.091   2.430  0.2253  0.6405  0.0521
  125OSM    C1S13225   4.505   6.149   2.734  0.1047 -0.2634 -0.6557
  125OSM    H1S13226   4.421   6.218   2.713  1.1242  1.4075  0.5896
  125OSM    H1T13227   4.583   6.213   2.688 -1.3985  2.8461  0.7907
  125OSM     NF13228   4.542   6.265   2.945 -0.1344  0.6760  0.2193
  125OSM    HNF13229   4.629   6.314   2.949 -0.0293  0.4189  2.0919
  125OSM    C2S13230   4.550   6.136   2.879  1.5941  0.2212 -0.5449
  125OSM    H2S13231   4.473   6.070   2.925  0.8331  1.1989 -0.3717
  125OSM    C3S13232   4.690   6.073   2.892 -0.7961 -0.1641 -0.8197
  125OSM    H3S13233   4.764   6.149   2.857 -1.6015  0.7754 -0.5295
  125OSM     O313234   4.715   5.956   2.813 -0.4425 -0.2586 -0.0445
  125OSM    HO313235   4.633   5.939   2.768  0.0560  1.0023 -1.5023
  125OSM    C4S13236   4.726   6.056   3.040 -0.3070 -0.2895 -0.5459
  125OSM    H4S13237   4.774   6.145   3.085  0.9418 -2.3661  2.5966
  125OSM    C5S13238   4.708   5.947   3.117 -0.2647  0.3316 -0.2084
  125OSM    H5S13239   4.672   5.851   3.078 -0.9530 -0.7919  2.9251
  125OSM    C6S13240   4.744   5.933   3.262  0.1170 -0.0419 -0.0378
  125OSM    H6S13241   4.806   6.020   3.294  0.0780 -0.1004  0.1979
  125OSM    H6T13242   4.801   5.840   3.282 -0.8409 -1.5325 -3.4969
  125OSM    C7S13243   4.611   5.917   3.345 -0.4145  0.8406 -0.6184
  125OSM    H7S13244   4.563   5.819   3.324 -0.5981  0.8681 -0.3369
  125OSM    H7T13245   4.536   5.988   3.303 -1.9692 -1.3133 -1.7125
  125OSM    C8S13246   4.635   5.941   3.493  0.2329  0.6566  0.7188
  125OSM    H8S13247   4.655   6.050   3.504  2.7386  0.3674 -0.3364
  125OSM    H8T13248   4.727   5.889   3.526  1.0610  1.3025 -0.4931
  125OSM    C9S13249   4.529   5.887   3.583  0.5391  0.1375 -0.1490
  125OSM    H9S13250   4.510   5.783   3.551  0.9484 -0.4020  1.2908
  125OSM    H9T13251   4.438   5.946   3.560  1.3605  0.7348 -2.1196
  125OSM   C10S13252   4.565   5.897   3.734  0.5161  0.3433 -0.5265
  125OSM   H10S13253   4.622   5.992   3.740 -1.7153  1.9956 -3.2219
  125OSM   H10T13254   4.641   5.818   3.750  0.5829  0.5006 -0.0423
  125OSM   C11S13255   4.452   5.892   3.837 -0.1785  0.3234 -0.5099
  125OSM   H11S13256   4.394   5.803   3.805  0.1478 -0.3962  0.8134
  125OSM   H11T13257   4.387   5.981   3.826  1.0639  1.1705 -1.3031
  125OSM   C12S13258   4.510   5.862   3.977  0.2651  0.0288 -0.2646
  125OSM   H12S13259   4.575   5.950   3.996 -0.4939  0.3885  0.7572
  125OSM   H12T13260   4.569   5.768   3.973 -1.0773 -0.8845  0.4803
  125OSM   C13S13261   4.396   5.846   4.083  0.5958  0.4521  0.5667
  125OSM   H13S13262   4.311   5.784   4.050  0.9462 -0.0652  0.6218
  125OSM   H13T13263   4.356   5.949   4.092  0.6880  0.5541 -0.1649
  125OSM   C14S13264   4.432   5.803   4.222  0.1997  0.5015  0.3701
  125OSM   H14S13265   4.508   5.869   4.270  0.4006  0.3759  0.2251
  125OSM   H14T13266   4.482   5.707   4.199  0.3623  1.3593 -3.6209
  125OSM   C15S13267   4.328   5.793   4.326  1.0158  0.0908  0.8772
  125OSM   H15S13268   4.259   5.708   4.306 -0.9912  1.6198  0.9236
  125OSM   H15T13269   4.266   5.885   4.329  0.2770 -0.4040  1.1657
  125OSM   C16S13270   4.389   5.765   4.460 -0.3170  0.1792 -0.0195
  125OSM   H16S13271   4.464   5.844   4.483  1.7225 -0.7992 -2.7956
  125OSM   H16T13272   4.444   5.669   4.455  1.4724  1.2292 -1.7356
  125OSM   C17S13273   4.295   5.746   4.588 -0.2566  0.0247  0.1337
  125OSM   H17S13274   4.365   5.728   4.673  3.8195  1.5571 -2.5776
  125OSM   H17T13275   4.229   5.662   4.558 -0.3607  0.3885 -0.6709
  125OSM   C18S13276   4.203   5.864   4.606  0.4487  0.8855 -0.3322
  125OSM   H18S13277   4.251   5.964   4.606 -1.8419  2.0338 -0.1306
  125OSM   H18T13278   4.143   5.856   4.699  0.5973  3.3729  0.0493
  125OSM   H18U13279   4.141   5.875   4.515  2.2237  0.9010 -1.5807
  125OSM    C1F13280   4.429   6.323   2.970  0.1365  0.0627  0.4258
  125OSM     OF13281   4.317   6.280   2.947 -0.1870 -0.1931 -0.0348
  125OSM    C2F13282   4.454   6.459   3.028 -0.0043 -0.5883  0.1006
  125OSM    H2F13283   4.443   6.533   2.946  1.7595 -1.1672 -0.7030
  125OSM    H2G13284   4.558   6.464   3.068  0.0146  2.0945 -0.1061
  125OSM    C3F13285   4.352   6.485   3.147  0.6041  0.9757  0.5759
  125OSM    H3F13286   4.369   6.412   3.229 -2.4836 -1.6827 -0.9079
  125OSM    H3G13287   4.253   6.468   3.099  0.5331 -0.2722  1.1391
  125OSM    C4F13288   4.339   6.620   3.209  0.0686 -0.4850  0.1712
  125OSM    H4F13289   4.321   6.700   3.133  1.2329 -0.3775 -0.0122
  125OSM    H4G13290   4.437   6.651   3.250 -0.3708  0.5739  0.4605
  125OSM    C5F13291   4.241   6.626   3.317 -0.2967 -0.2505  0.0218
  125OSM    H5F13292   4.157   6.556   3.298 -0.7877  0.4015 -0.2317
  125OSM    H5G13293   4.208   6.727   3.350  1.2236  0.2266  0.1511
  125OSM    C6F13294   4.305   6.565   3.445 -0.5220 -0.2652  0.3680
  125OSM    H6F13295   4.355   6.470   3.415  0.8779  0.9490 -1.3483
  125OSM    H6G13296   4.232   6.543   3.525  0.1635  0.1248  1.1184
  125OSM    C7F13297   4.415   6.650   3.515  0.3730 -0.2079 -0.1061
  125OSM    H7F13298   4.362   6.745   3.537 -1.5916 -1.5077  1.1372
  125OSM    H7G13299   4.504   6.673   3.454 -0.7167  2.0814 -0.9542
  125OSM    C8F13300   4.475   6.579   3.639  0.0973  0.2669 -0.0955
  125OSM    H8F13301   4.388   6.561   3.706 -0.9167 -0.9598 -1.6638
  125OSM    H8G13302   4.552   6.646   3.682 -0.8791  1.7200 -0.5413
  125OSM    C9F13303   4.538   6.446   3.618  0.7759  0.8031 -0.2095
  125OSM    H9F13304   4.620   6.444   3.544  0.1195  1.4785 -0.9772
  125OSM   C10F13305   4.503   6.329   3.674  0.0646  0.2047  0.7699
  125OSM   H10F13306   4.553   6.245   3.624 -0.3118  1.2879 -1.5728
  125OSM   C11F13307   4.408   6.304   3.788  0.7606 -0.1381 -0.3437
  125OSM   H11F13308   4.361   6.204   3.777  0.1846  0.0992 -0.0484
  125OSM   H11G13309   4.326   6.377   3.801 -1.5800 -2.5202 -0.7176
  125OSM   C12F13310   4.482   6.297   3.929  0.3950  0.0633 -0.1866
  125OSM   H12F13311   4.554   6.381   3.938  2.9684 -2.0289 -0.0153
  125OSM   H12G13312   4.557   6.215   3.931  0.2597 -0.1043 -1.3262
  125OSM   C13F13313   4.390   6.274   4.058 -0.1186 -0.3589 -0.3470
  125OSM   H13F13314   4.347   6.172   4.065 -2.4883  0.5803 -0.2382
  125OSM   H13G13315   4.313   6.353   4.071  1.3329  0.8184  1.6751
  125OSM   C14F13316   4.483   6.260   4.185 -0.0704  0.0747 -0.1030
  125OSM   H14F13317   4.542   6.355   4.191  1.2185 -0.6855 -0.4007
  125OSM   H14G13318   4.559   6.180   4.178 -0.1444 -0.0928  0.8434
  125OSM   C15F13319   4.386   6.243   4.305 -0.5810  0.5917  0.3182
  125OSM   H15F13320   4.333   6.146   4.293  1.7618 -0.8286  0.8448
  125OSM   H15G13321   4.310   6.324   4.308 -1.2347  0.1484 -1.7850
  125OSM   C16F13322   4.472   6.242   4.439  0.6413  0.2411  0.0337
  125OSM   H16F13323   4.545   6.159   4.432  0.0447 -0.2316 -0.9622
  125OSM   H16G13324   4.393   6.208   4.509  0.6867  0.5516  0.2373
  125OSM   C17F13325   4.542   6.375   4.461  0.2297 -0.1915  0.3567
  125OSM   H17F13326   4.633   6.399   4.401  0.1339  0.4454  0.4602
  125OSM   H17G13327   4.569   6.362   4.568 -1.2568  0.8539  0.8835
  125OSM   C18F13328   4.460   6.496   4.462 -0.4633 -0.1154 -0.3017
  125OSM   H18F13329   4.355   6.478   4.496 -1.5926 -0.2305 -3.5577
  125OSM   H18G13330   4.445   6.534   4.359 -2.6856 -3.8765 -1.5737
  125OSM   H18H13331   4.517   6.568   4.524 -0.4769 -1.0028  0.7841
  126OSM      N13332   3.658   1.121   2.447 -0.1186 -0.6385  0.5923
  126OSM    C1513333   3.608   1.260   2.435 -0.2011  0.2713 -0.3460
  126OSM   H15A13334   3.622   1.301   2.336 -0.5364  2.4309  0.4517
  126OSM   H15B13335   3.656   1.330   2.502  1.4855 -0.6786 -0.5094
  126OSM   H15C13336   3.501   1.266   2.449 -0.3779 -0.8428 -1.1553
  126OSM    C1413337   3.599   1.046   2.328  0.3406  0.7564 -0.5616
  126OSM   H14A13338   3.666   0.962   2.315 -0.9873 -0.2919 -0.9104
  126OSM   H14B13339   3.584   1.108   2.241 -2.1059 -0.3846 -1.0477
  126OSM   H14C13340   3.499   1.015   2.354  0.8038  0.1864  0.6322
  126OSM    C1313341   3.809   1.133   2.419 -0.3419 -0.3573 -0.2147
  126OSM   H13A13342   3.851   1.195   2.496 -0.7941 -0.9884  0.5548
  126OSM   H13B13343   3.826   1.182   2.324 -0.7164 -1.5267 -0.9150
  126OSM   H13C13344   3.860   1.038   2.428 -1.6842 -1.1718 -0.8021
  126OSM    C1213345   3.622   1.058   2.581  0.3945 -0.1144  0.2527
  126OSM   H12A13346   3.673   1.118   2.655  0.7286 -0.0004 -0.0651
  126OSM   H12B13347   3.660   0.958   2.589 -0.3425 -0.8105 -3.2318
  126OSM    C1113348   3.472   1.060   2.613 -0.5243  0.0022  0.2033
  126OSM   H11A13349   3.454   0.991   2.699 -0.1369 -0.9383 -0.4613
  126OSM   H11B13350   3.409   1.009   2.537 -1.9809  2.1118 -0.1066
  126OSM      P13351   3.415   1.281   2.757 -0.0167 -0.0570  0.0548
  126OSM    O1313352   3.550   1.273   2.818 -0.0466 -0.0803  0.4724
  126OSM    O1413353   3.359   1.418   2.720  0.4819  0.1476 -0.1433
  126OSM    O1113354   3.314   1.209   2.859  0.0527 -0.2392  0.1405
  126OSM    O1213355   3.426   1.195   2.630  0.9004  0.1266  0.4718
  126OSM    C1S13356   3.366   1.171   2.985 -0.0443  0.1722 -0.2746
  126OSM    H1S13357   3.392   1.260   3.047 -0.8150 -0.9302  1.6910
  126OSM    H1T13358   3.458   1.111   2.969  1.0418  1.3809  1.1000
  126OSM     NF13359   3.324   1.070   3.196  0.1963  0.5519 -0.6161
  126OSM    HNF13360   3.388   0.994   3.208 -1.2657 -0.3147  2.8405
  126OSM    C2S13361   3.267   1.082   3.064 -0.4188  0.0974  0.1431
  126OSM    H2S13362   3.173   1.140   3.069 -0.2159  0.6842 -2.0605
  126OSM    C3S13363   3.226   0.949   2.994 -0.1323 -0.7918  0.1147
  126OSM    H3S13364   3.317   0.889   2.974  0.4668  0.6850 -1.9528
  126OSM     O313365   3.163   0.980   2.870 -0.0087  0.1574 -0.4424
  126OSM    HO313366   3.196   1.069   2.861  1.5439 -0.2284  0.8974
  126OSM    C4S13367   3.125   0.874   3.081  0.4913 -0.4516  1.1738
  126OSM    H4S13368   3.040   0.935   3.115 -0.4133 -1.6208  1.0718
  126OSM    C5S13369   3.131   0.753   3.130  0.3218 -0.3100  0.4260
  126OSM    H5S13370   3.221   0.694   3.106  0.3497  0.7136 -2.4214
  126OSM    C6S13371   3.038   0.701   3.238  0.5444  0.3618  0.6128
  126OSM    H6S13372   3.026   0.591   3.229  0.2675  0.2867  1.8183
  126OSM    H6T13373   2.938   0.750   3.240  0.5026  0.2562  1.3801
  126OSM    C7S13374   3.095   0.741   3.372 -0.9243 -0.6552 -0.4459
  126OSM    H7S13375   3.094   0.852   3.381  0.5108 -0.6311 -0.3576
  126OSM    H7T13376   3.204   0.717   3.371 -0.6561  0.2380  1.5498
  126OSM    C8S13377   3.032   0.669   3.486  0.3014  0.5167  0.5621
  126OSM    H8S13378   3.091   0.579   3.512 -0.2860 -0.0931 -0.1577
  126OSM    H8T13379   2.924   0.657   3.466  0.0366  2.2308  0.7851
  126OSM    C9S13380   3.033   0.761   3.605 -0.0746 -0.4818  0.5071
  126OSM    H9S13381   2.968   0.847   3.578 -0.3369 -0.6833  0.5001
  126OSM    H9T13382   3.135   0.802   3.622  0.7408 -2.1522 -0.1343
  126OSM   C10S13383   2.983   0.709   3.735 -0.4988  0.1640 -0.0635
  126OSM   H10S13384   3.050   0.623   3.759  0.5499  0.7810 -0.6808
  126OSM   H10T13385   2.879   0.675   3.716 -0.6384  1.7485 -2.6885
  126OSM   C11S13386   2.976   0.823   3.847 -0.6252  0.1279  0.2856
  126OSM   H11S13387   2.912   0.906   3.810 -0.1717 -0.2507 -1.4253
  126OSM   H11T13388   3.083   0.851   3.852  0.0255 -2.1745  0.0625
  126OSM   C12S13389   2.935   0.777   3.987  0.4564 -0.5577  0.7799
  126OSM   H12S13390   2.980   0.677   4.008 -1.0964 -2.1945 -2.8286
  126OSM   H12T13391   2.831   0.740   3.983  0.8128 -1.5076 -0.0359
  126OSM   C13S13392   2.927   0.878   4.100  0.2593  0.0686 -0.2415
  126OSM   H13S13393   2.866   0.842   4.185  0.9334 -0.4612  0.0291
  126OSM   H13T13394   2.877   0.964   4.051 -2.8043 -0.9095  0.9632
  126OSM   C14S13395   3.059   0.903   4.165  0.3379  0.3577 -0.4246
  126OSM   H14S13396   3.122   0.976   4.108  1.7429  0.8119  1.6053
  126OSM   H14T13397   3.115   0.808   4.170 -0.1762 -0.0270 -1.5466
  126OSM   C15S13398   3.039   0.945   4.310 -0.5939 -0.6053  0.8336
  126OSM   H15S13399   2.969   0.869   4.350  0.4230 -1.1623  1.6095
  126OSM   H15T13400   2.984   1.042   4.305 -1.9778 -1.4082 -1.0233
  126OSM   C16S13401   3.168   0.945   4.395 -0.0160 -0.0413 -0.0335
  126OSM   H16S13402   3.253   0.994   4.343  0.6813 -0.9706  0.1918
  126OSM   H16T13403   3.190   0.837   4.412 -1.0311 -0.1370  0.7543
  126OSM   C17S13404   3.141   1.015   4.531  0.0108 -0.1678  0.4790
  126OSM   H17S13405   3.044   0.982   4.575 -1.2977  0.6479 -1.6107
  126OSM   H17T13406   3.127   1.117   4.490  0.5194 -0.3365 -0.1318
  126OSM   C18S13407   3.264   1.013   4.617  0.4260 -0.2762 -0.2875
  126OSM   H18S13408   3.357   0.970   4.574  1.8291 -1.6174  3.6321
  126OSM   H18T13409   3.251   0.929   4.688  0.2673 -0.1328 -0.1464
  126OSM   H18U13410   3.270   1.114   4.663 -1.7460  0.5655 -1.7302
  126OSM    C1F13411   3.326   1.166   3.289 -0.6920  0.2981  0.1433
  126OSM     OF13412   3.273   1.274   3.267  0.0586  0.2350  0.2845
  126OSM    C2F13413   3.398   1.145   3.417 -0.4010  0.4643  1.0002
  126OSM    H2F13414   3.500   1.190   3.417 -0.9335  1.7277  1.7671
  126OSM    H2G13415   3.407   1.037   3.442  1.8173  0.8231  1.9794
  126OSM    C3F13416   3.311   1.199   3.534 -0.2393 -0.0388 -0.6002
  126OSM    H3F13417   3.204   1.169   3.524 -1.5273  3.6569  0.2910
  126OSM    H3G13418   3.304   1.310   3.532 -0.8607 -0.0408  0.6604
  126OSM    C4F13419   3.369   1.153   3.667 -0.4224 -0.3834 -0.5351
  126OSM    H4F13420   3.478   1.174   3.671 -0.7440  1.3248  2.3191
  126OSM    H4G13421   3.357   1.043   3.675 -0.6807 -0.2653  1.1264
  126OSM    C5F13422   3.312   1.229   3.790  0.2576  0.9080 -0.1842
  126OSM    H5F13423   3.201   1.234   3.795  0.1899 -0.7667  2.4856
  126OSM    H5G13424   3.348   1.334   3.789  0.1764  1.0152  1.9625
  126OSM    C6F13425   3.352   1.160   3.926  0.1298  0.2984  0.0496
  126OSM    H6F13426   3.447   1.106   3.909  1.1996  2.5085 -1.5145
  126OSM    H6G13427   3.273   1.083   3.943  0.7664 -0.1202  1.2549
  126OSM    C7F13428   3.377   1.267   4.037  0.6126 -0.3027 -0.5398
  126OSM    H7F13429   3.296   1.343   4.038  1.1617  0.2820  0.6078
  126OSM    H7G13430   3.460   1.326   3.992  0.0646  0.5289 -0.4767
  126OSM    C8F13431   3.400   1.215   4.179 -0.5391 -0.7999  0.5031
  126OSM    H8F13432   3.300   1.198   4.223 -1.6675  2.5536 -0.4959
  126OSM    H8G13433   3.449   1.294   4.240  1.2205 -0.6058 -1.0621
  126OSM    C9F13434   3.484   1.087   4.190  0.0020  0.4041  0.6114
  126OSM    H9F13435   3.438   1.000   4.140 -1.1091  0.1489  2.0215
  126OSM   C10F13436   3.600   1.059   4.255  0.4644  0.5439 -1.0055
  126OSM   H10F13437   3.643   0.959   4.243  1.0444  0.6031  0.3316
  126OSM   C11F13438   3.680   1.153   4.343  0.0394  0.4453  0.7948
  126OSM   H11F13439   3.652   1.259   4.324 -0.9053  0.0395 -0.1739
  126OSM   H11G13440   3.791   1.148   4.339 -0.0427 -1.1745 -0.4593
  126OSM   C12F13441   3.638   1.136   4.489 -0.9577  0.3158  0.1049
  126OSM   H12F13442   3.531   1.168   4.493 -1.4454 -0.7167 -2.6521
  126OSM   H12G13443   3.690   1.213   4.549  2.0506  0.3526 -2.3476
  126OSM   C13F13444   3.664   0.990   4.537  0.2056 -0.0525  0.0622
  126OSM   H13F13445   3.766   0.947   4.531  1.2305  2.1893  0.2868
  126OSM   H13G13446   3.595   0.920   4.487  1.4961 -1.9321  0.8082
  126OSM   C14F13447   3.623   0.985   4.684 -0.4498  0.0518  0.6894
  126OSM   H14F13448   3.529   1.041   4.704 -0.0987  0.5944  0.8362
  126OSM   H14G13449   3.710   1.019   4.744  0.6597 -1.0669 -0.2242
  126OSM   C15F13450   3.608   0.842   4.745  0.8073  0.3351 -0.1113
  126OSM   H15F13451   3.694   0.783   4.706  0.6316  0.6026 -0.9162
  126OSM   H15G13452   3.517   0.787   4.714  1.2201  0.2002 -1.1184
  126OSM   C16F13453   3.609   0.844   4.891 -0.2373  0.5985 -0.4718
  126OSM   H16F13454   3.698   0.892   4.938  0.4852 -0.2374 -0.9656
  126OSM   H16G13455   3.598   0.742   4.933 -0.1281  1.9813  3.3632
  126OSM   C17F13456   3.481   0.913   4.949  0.0371  0.1862 -0.0796
  126OSM   H17F13457   3.384   0.891   4.901  0.8539 -1.2030 -1.1653
  126OSM   H17G13458   3.496   1.023   4.938  1.6334  0.3366  2.5676
  126OSM   C18F13459   3.474   0.884   5.102 -0.4949  0.1228  0.4060
  126OSM   H18F13460   3.423   0.787   5.120 -1.4046  0.7280  1.1445
  126OSM   H18G13461   3.407   0.953   5.156 -2.1228  0.1764 -1.5784
  126OSM   H18H13462   3.574   0.890   5.150  0.1462  1.1633 -0.9901
  127OSM      N13463   4.727   3.025   2.348 -0.6005 -0.0194 -0.6532
  127OSM    C1513464   4.703   2.908   2.262  0.1718 -0.6219  0.3095
  127OSM   H15A13465   4.739   2.923   2.162  1.3600 -0.1071  0.7904
  127OSM   H15B13466   4.597   2.895   2.249  0.0636  0.5495 -0.0926
  127OSM   H15C13467   4.737   2.813   2.298 -0.4264 -1.0730 -0.2881
  127OSM    C1413468   4.882   3.038   2.351  0.0857  0.7444  0.0729
  127OSM   H14A13469   4.928   2.952   2.397  0.8969  1.7145  1.1181
  127OSM   H14B13470   4.910   3.123   2.411 -0.5055  1.0859 -0.1187
  127OSM   H14C13471   4.914   3.032   2.248  0.6104 -1.2104  0.3095
  127OSM    C1313472   4.668   3.149   2.274  1.0301  0.1703 -0.1475
  127OSM   H13A13473   4.677   3.139   2.167 -0.3377  0.5653 -0.3234
  127OSM   H13B13474   4.717   3.239   2.308  0.4998  0.2473  0.4551
  127OSM   H13C13475   4.560   3.158   2.281  0.1236 -2.9249 -5.1648
  127OSM    C1213476   4.667   3.018   2.485  0.2294  0.1323 -0.1468
  127OSM   H12A13477   4.692   3.105   2.545  1.4346  0.7305 -1.4558
  127OSM   H12B13478   4.716   2.933   2.531  3.2159  2.6143  1.6399
  127OSM    C1113479   4.510   3.018   2.501 -0.0070  0.4459  0.8495
  127OSM   H11A13480   4.481   3.007   2.608 -2.5069  0.4335  0.2210
  127OSM   H11B13481   4.467   2.932   2.446 -0.2281  0.1809  1.4270
  127OSM      P13482   4.311   3.182   2.468  0.0097 -0.2202 -0.0162
  127OSM    O1313483   4.305   3.326   2.481 -0.3141  0.4685  0.5147
  127OSM    O1413484   4.236   3.129   2.351 -0.3110  0.3738  0.2701
  127OSM    O1113485   4.266   3.109   2.602 -0.7496 -0.3995 -0.4955
  127OSM    O1213486   4.458   3.141   2.450  0.0059 -0.7750  0.0539
  127OSM    C1S13487   4.291   3.177   2.726  0.2226  0.0417 -0.1202
  127OSM    H1S13488   4.263   3.284   2.733  0.5496  0.0750  0.8829
  127OSM    H1T13489   4.400   3.172   2.747 -0.1739 -0.3358  2.1507
  127OSM     NF13490   4.278   3.138   2.954 -0.2421 -0.4920  0.0201
  127OSM    HNF13491   4.355   3.079   2.979 -0.8716 -1.2040  0.2983
  127OSM    C2S13492   4.209   3.097   2.833  0.4943  0.5335 -0.4778
  127OSM    H2S13493   4.102   3.126   2.837  0.2088 -0.5294  0.6225
  127OSM    C3S13494   4.203   2.945   2.797  0.3841  0.5496  0.3615
  127OSM    H3S13495   4.299   2.907   2.757 -1.1195  0.5858 -3.7584
  127OSM     O313496   4.110   2.904   2.691 -0.3746 -0.7693 -0.0710
  127OSM    HO313497   4.099   2.989   2.650 -1.9577 -0.9531 -0.0885
  127OSM    C4S13498   4.157   2.880   2.926  0.3024  0.3943  0.5087
  127OSM    H4S13499   4.071   2.939   2.960  0.2288  0.5501  0.0597
  127OSM    C5S13500   4.225   2.778   2.988 -0.0930  0.3599 -0.2334
  127OSM    H5S13501   4.323   2.742   2.955 -0.7585 -0.0995 -1.7688
  127OSM    C6S13502   4.175   2.736   3.127  0.6897  0.5414  0.2612
  127OSM    H6S13503   4.265   2.723   3.190  0.4874  2.9835  1.1949
  127OSM    H6T13504   4.129   2.635   3.119  2.5691 -0.2688 -0.7834
  127OSM    C7S13505   4.094   2.837   3.216 -0.3194  0.4040  1.0123
  127OSM    H7S13506   4.000   2.851   3.158  0.0671 -1.4125 -0.1459
  127OSM    H7T13507   4.146   2.935   3.211 -0.9557  0.8460  2.5340
  127OSM    C8S13508   4.067   2.788   3.357 -0.3440  0.3564 -0.2573
  127OSM    H8S13509   3.997   2.864   3.398 -0.1741  0.5933 -0.4075
  127OSM    H8T13510   4.153   2.809   3.424 -1.3548 -0.3549  1.3203
  127OSM    C9S13511   4.016   2.649   3.379 -0.4186 -0.6550  0.0047
  127OSM    H9S13512   4.104   2.585   3.357 -0.3270 -0.2686 -0.7655
  127OSM    H9T13513   3.937   2.633   3.302 -0.5247 -0.1463  0.0063
  127OSM   C10S13514   3.962   2.620   3.518 -0.9416 -0.4784  0.5288
  127OSM   H10S13515   3.894   2.696   3.563 -0.0918  1.0024 -0.5646
  127OSM   H10T13516   4.052   2.600   3.580 -0.3419  1.3443  0.3219
  127OSM   C11S13517   3.883   2.486   3.525  0.1459  0.3755 -0.8699
  127OSM   H11S13518   3.948   2.399   3.499  0.2497  0.1021  0.2612
  127OSM   H11T13519   3.800   2.507   3.456 -1.3233  0.6767  0.9135
  127OSM   C12S13520   3.818   2.461   3.661  0.3325  0.4198 -0.7484
  127OSM   H12S13521   3.765   2.363   3.660  0.3495  0.4119 -0.8548
  127OSM   H12T13522   3.734   2.532   3.677 -1.1401 -1.5819  1.2611
  127OSM   C13S13523   3.908   2.452   3.783 -0.1732  0.5344 -0.4120
  127OSM   H13S13524   3.973   2.542   3.783 -0.7346  0.9492 -0.7249
  127OSM   H13T13525   3.964   2.357   3.771 -1.8618 -0.6181  0.4512
  127OSM   C14S13526   3.832   2.468   3.913 -0.7556 -0.3919 -0.4012
  127OSM   H14S13527   3.740   2.405   3.916 -1.0460  0.0721  0.9983
  127OSM   H14T13528   3.779   2.565   3.921  0.6837  0.3324  0.7613
  127OSM   C15S13529   3.916   2.432   4.033 -0.4568 -0.2234 -0.0381
  127OSM   H15S13530   4.004   2.499   4.031 -0.0513 -0.7652 -0.6366
  127OSM   H15T13531   3.963   2.333   4.019  1.4320  0.4227  1.2667
  127OSM   C16S13532   3.825   2.448   4.157  0.4302  0.0961  0.7479
  127OSM   H16S13533   3.746   2.373   4.135  1.5608 -0.8512 -0.2347
  127OSM   H16T13534   3.781   2.550   4.153  1.6954  0.6671  1.1035
  127OSM   C17S13535   3.893   2.406   4.285  0.3213 -0.0169 -0.0134
  127OSM   H17S13536   3.956   2.315   4.277  1.9269  1.1403 -1.2082
  127OSM   H17T13537   3.817   2.381   4.362 -0.1556 -0.4059 -0.6130
  127OSM   C18S13538   3.981   2.520   4.339 -0.0627 -0.5960  0.2333
  127OSM   H18S13539   4.064   2.533   4.265  1.8128 -0.6855  2.2183
  127OSM   H18T13540   4.031   2.498   4.436  2.1065  0.7092 -0.5091
  127OSM   H18U13541   3.929   2.618   4.338  3.0637  1.2454 -1.6564
  127OSM    C1F13542   4.275   3.259   3.014  0.1833 -0.3281 -0.3490
  127OSM     OF13543   4.193   3.341   2.981 -0.3456 -0.4513 -0.0332
  127OSM    C2F13544   4.381   3.289   3.116 -0.4375 -0.2779  0.3785
  127OSM    H2F13545   4.386   3.393   3.153 -1.3125 -0.2630  0.4808
  127OSM    H2G13546   4.478   3.271   3.064  0.2549 -0.9695  1.8392
  127OSM    C3F13547   4.379   3.192   3.239 -0.2434  0.0245 -0.0299
  127OSM    H3F13548   4.469   3.216   3.300  0.0838  0.8667 -0.8227
  127OSM    H3G13549   4.401   3.088   3.207 -2.3271 -1.6166  3.3271
  127OSM    C4F13550   4.254   3.196   3.325 -0.5451 -0.0090  0.1185
  127OSM    H4F13551   4.164   3.153   3.277 -1.3293  0.5723  1.0218
  127OSM    H4G13552   4.231   3.302   3.346 -3.2146 -0.7239  1.2974
  127OSM    C5F13553   4.284   3.121   3.456  0.3283 -0.6410 -0.2423
  127OSM    H5F13554   4.370   3.162   3.513  0.3129 -2.2237  0.9727
  127OSM    H5G13555   4.328   3.027   3.416  2.1949 -0.4814  1.3015
  127OSM    C6F13556   4.167   3.095   3.546  0.0560 -0.1475  0.2589
  127OSM    H6F13557   4.093   3.045   3.480  0.7944 -2.3852  1.0395
  127OSM    H6G13558   4.102   3.179   3.580 -2.2788 -1.1231 -1.4958
  127OSM    C7F13559   4.203   2.995   3.655  0.4676 -0.3054 -0.6276
  127OSM    H7F13560   4.268   3.044   3.730 -0.2045  0.0999 -0.3048
  127OSM    H7G13561   4.247   2.902   3.613 -1.7035 -1.6319 -0.1734
  127OSM    C8F13562   4.084   2.935   3.737  0.2814 -1.1967  0.2845
  127OSM    H8F13563   4.012   2.894   3.662 -0.3456 -0.1135  0.2698
  127OSM    H8G13564   4.023   3.014   3.786  1.9811  0.2242  0.2183
  127OSM    C9F13565   4.120   2.837   3.843 -0.4623 -0.8898 -0.5863
  127OSM    H9F13566   4.121   2.732   3.808 -1.5788 -1.3384  0.6333
  127OSM   C10F13567   4.138   2.860   3.971  0.2704 -0.2426 -0.1268
  127OSM   H10F13568   4.174   2.777   4.035 -1.4977 -0.4649  0.6187
  127OSM   C11F13569   4.154   2.997   4.031  0.0646 -0.2542 -0.1685
  127OSM   H11F13570   4.050   3.029   4.055 -0.0983 -1.1083  0.2878
  127OSM   H11G13571   4.204   3.067   3.961 -1.8840  0.8898 -0.4946
  127OSM   C12F13572   4.244   2.996   4.159  0.4180 -0.2088  0.5194
  127OSM   H12F13573   4.269   3.102   4.180 -1.0805 -0.1338  2.0902
  127OSM   H12G13574   4.340   2.944   4.138 -0.4603 -2.0807  0.9806
  127OSM   C13F13575   4.174   2.942   4.280 -0.2387 -0.0133 -0.5153
  127OSM   H13F13576   4.143   2.838   4.257  3.1517 -1.3519  0.3457
  127OSM   H13G13577   4.086   3.007   4.297 -0.8031 -1.0840  0.8036
  127OSM   C14F13578   4.263   2.947   4.410 -0.0015 -0.0622 -0.1657
  127OSM   H14F13579   4.273   3.053   4.439 -1.1959 -0.4927  2.0416
  127OSM   H14G13580   4.364   2.904   4.391  1.4201  2.1047  2.0213
  127OSM   C15F13581   4.215   2.857   4.526 -0.2439 -0.0503 -0.5775
  127OSM   H15F13582   4.197   2.754   4.488  0.7748 -0.5610  0.2655
  127OSM   H15G13583   4.129   2.900   4.582  0.5518  0.7317  0.0655
  127OSM   C16F13584   4.330   2.849   4.632 -0.2464 -0.2829  0.0238
  127OSM   H16F13585   4.382   2.947   4.635  0.3054 -0.5608 -0.2361
  127OSM   H16G13586   4.410   2.784   4.589  0.3929 -0.6523  1.6940
  127OSM   C17F13587   4.277   2.788   4.763 -0.0097  0.2471  0.4819
  127OSM   H17F13588   4.206   2.707   4.736  0.5623  0.0290 -0.4152
  127OSM   H17G13589   4.223   2.867   4.820 -0.3346 -0.6334  1.4108
  127OSM   C18F13590   4.389   2.729   4.844 -0.7227  0.0873  0.5177
  127OSM   H18F13591   4.471   2.802   4.863  1.0534 -1.1310 -1.8975
  127OSM   H18G13592   4.440   2.646   4.791  1.5420  0.6139  1.7347
  127OSM   H18H13593   4.339   2.688   4.934  0.5543 -3.8735 -0.3731
  128OSM      N13594   4.446   1.086   2.402  0.0966  0.0919 -0.0047
  128OSM    C1513595   4.589   1.046   2.435  0.3362 -0.2911  0.6448
  128OSM   H15A13596   4.608   0.980   2.519  2.1983  1.1099  1.3986
  128OSM   H15B13597   4.642   1.138   2.455 -0.8504  0.4139  0.6245
  128OSM   H15C13598   4.640   1.012   2.346 -0.7177 -2.3582  0.7650
  128OSM    C1413599   4.462   1.166   2.273  0.8229 -0.3320 -0.1429
  128OSM   H14A13600   4.365   1.192   2.232  1.6096  0.1186 -1.8041
  128OSM   H14B13601   4.520   1.108   2.204  1.2457 -0.0989  0.0128
  128OSM   H14C13602   4.513   1.257   2.301  1.0680 -0.4966 -0.0497
  128OSM    C1313603   4.365   0.959   2.389  0.3215 -0.4138  0.3985
  128OSM   H13A13604   4.361   0.908   2.484 -1.3534 -0.3694  0.3784
  128OSM   H13B13605   4.413   0.891   2.321 -0.5740 -0.5044 -0.1519
  128OSM   H13C13606   4.265   0.988   2.360  0.3416  0.9065  1.5116
  128OSM    C1213607   4.392   1.172   2.526  0.2329  0.1523  0.1616
  128OSM   H12A13608   4.420   1.108   2.608 -1.2611 -2.2622 -1.0962
  128OSM   H12B13609   4.284   1.174   2.522  0.1656 -1.3381  0.7033
  128OSM    C1113610   4.448   1.319   2.526 -1.0450  0.6452 -0.5335
  128OSM   H11A13611   4.548   1.324   2.478 -1.8212  0.7969 -2.2081
  128OSM   H11B13612   4.458   1.345   2.633  0.5498  0.4905 -0.6133
  128OSM      P13613   4.362   1.561   2.450 -0.1617 -0.1132  0.1844
  128OSM    O1313614   4.503   1.600   2.430  0.2775  0.4639 -0.6858
  128OSM    O1413615   4.272   1.597   2.342  0.0358 -0.3675 -0.1032
  128OSM    O1113616   4.303   1.612   2.587 -0.2204  0.1772  0.3151
  128OSM    O1213617   4.359   1.405   2.453 -0.4378 -0.1820 -0.1317
  128OSM    C1S13618   4.193   1.562   2.662 -0.2855 -0.4284  0.6709
  128OSM    H1S13619   4.186   1.452   2.652 -0.5551 -0.4465  1.0542
  128OSM    H1T13620   4.094   1.598   2.628 -1.4744 -2.5170  1.7340
  128OSM     NF13621   4.089   1.536   2.884  0.6838 -0.2804 -0.7558
  128OSM    HNF13622   4.021   1.589   2.934  0.4038 -0.8253 -0.5535
  128OSM    C2S13623   4.200   1.596   2.811  0.1823  0.0958 -0.3975
  128OSM    H2S13624   4.293   1.558   2.858 -0.3332  0.1594  0.7067
  128OSM    C3S13625   4.205   1.749   2.830  0.0051  0.5468 -0.2680
  128OSM    H3S13626   4.112   1.801   2.797 -0.1391  0.5336  0.1041
  128OSM     O313627   4.313   1.813   2.761  0.6268  0.3093 -0.3491
  128OSM    HO313628   4.345   1.746   2.700 -1.2931 -0.8628 -0.1357
  128OSM    C4S13629   4.232   1.781   2.974  0.3514  0.1911  0.7710
  128OSM    H4S13630   4.336   1.802   3.004  0.1506  1.0634  0.8901
  128OSM    C5S13631   4.140   1.812   3.068  0.0274 -0.6310  0.5178
  128OSM    H5S13632   4.034   1.821   3.040 -0.4746 -1.2911  2.0967
  128OSM    C6S13633   4.158   1.847   3.213  0.8023 -1.1021  0.6232
  128OSM    H6S13634   4.073   1.915   3.238  0.8816 -1.0590  0.7756
  128OSM    H6T13635   4.247   1.913   3.225 -1.1599  1.9085 -0.1215
  128OSM    C7S13636   4.167   1.732   3.311 -0.0137  0.2961  0.4967
  128OSM    H7S13637   4.247   1.659   3.285 -2.8915 -2.9233  0.0686
  128OSM    H7T13638   4.067   1.684   3.316  1.1422 -2.8301 -2.3913
  128OSM    C8S13639   4.200   1.778   3.450 -0.7035 -1.1834  0.2052
  128OSM    H8S13640   4.130   1.863   3.464  1.0600  0.6918 -1.7596
  128OSM    H8T13641   4.301   1.823   3.457 -1.1128 -0.4139  1.3864
  128OSM    C9S13642   4.175   1.675   3.561  0.7132  0.7037  0.4669
  128OSM    H9S13643   4.256   1.602   3.540 -0.6742 -0.1445 -2.4481
  128OSM    H9T13644   4.078   1.623   3.545  0.9625  1.2889 -4.7768
  128OSM   C10S13645   4.186   1.738   3.698 -0.4876  0.4634 -0.9878
  128OSM   H10S13646   4.109   1.811   3.731 -0.7204 -0.5625  0.9411
  128OSM   H10T13647   4.283   1.789   3.715  0.8072 -1.5566 -1.7974
  128OSM   C11S13648   4.165   1.635   3.809  0.9673 -0.5116  0.0914
  128OSM   H11S13649   4.124   1.542   3.762  1.6609 -0.6218 -0.3129
  128OSM   H11T13650   4.100   1.660   3.895  2.7487  0.8468  1.1022
  128OSM   C12S13651   4.296   1.607   3.886  0.5090 -0.1896 -0.2515
  128OSM   H12S13652   4.353   1.691   3.932  4.0591  0.8379 -5.6175
  128OSM   H12T13653   4.374   1.577   3.812  1.9161  1.2731  0.5840
  128OSM   C13S13654   4.279   1.484   3.976 -0.1114 -0.5862 -0.6393
  128OSM   H13S13655   4.219   1.408   3.922 -1.9892 -0.7067  1.4808
  128OSM   H13T13656   4.213   1.508   4.062  0.9951  0.3548 -0.0291
  128OSM   C14S13657   4.414   1.418   4.023  0.7484 -0.6050  0.5987
  128OSM   H14S13658   4.475   1.376   3.939  1.7922  1.4810  0.2477
  128OSM   H14T13659   4.395   1.344   4.104  0.5750 -0.3620  0.7802
  128OSM   C15S13660   4.508   1.526   4.094 -0.3877 -0.0866  0.5389
  128OSM   H15S13661   4.453   1.580   4.174 -1.5468 -0.1670 -0.1672
  128OSM   H15T13662   4.529   1.608   4.022 -2.5158  0.0165 -0.0392
  128OSM   C16S13663   4.630   1.453   4.155 -0.4859 -0.4905 -0.1526
  128OSM   H16S13664   4.680   1.401   4.071 -1.8046 -0.4030 -1.0114
  128OSM   H16T13665   4.588   1.377   4.224 -0.4558 -1.9232 -1.6592
  128OSM   C17S13666   4.734   1.535   4.232  0.1817 -0.4650  0.6265
  128OSM   H17S13667   4.689   1.601   4.309 -0.0258 -0.5314  0.5610
  128OSM   H17T13668   4.798   1.594   4.164 -2.1137 -0.4258 -1.6365
  128OSM   C18S13669   4.820   1.429   4.307  0.0670 -0.5988 -0.5591
  128OSM   H18S13670   4.863   1.362   4.230  1.3115 -0.4065 -0.0434
  128OSM   H18T13671   4.753   1.376   4.379  1.9763 -0.2703  1.5521
  128OSM   H18U13672   4.912   1.465   4.356 -0.8740  0.2713  0.6428
  128OSM    C1F13673   4.071   1.405   2.897 -0.2613  0.4951  0.3635
  128OSM     OF13674   4.140   1.315   2.842 -0.3419 -0.4745  0.6213
  128OSM    C2F13675   3.958   1.363   2.981  0.0096  0.1090 -0.1821
  128OSM    H2F13676   3.928   1.259   2.955 -1.6920  0.1871  1.2874
  128OSM    H2G13677   3.870   1.418   2.944  1.2850  0.2327 -3.3769
  128OSM    C3F13678   3.976   1.375   3.132 -0.2383  0.2065  0.0830
  128OSM    H3F13679   3.889   1.333   3.187  0.2885 -0.2294  0.5952
  128OSM    H3G13680   4.005   1.478   3.161 -2.2057  1.5817 -2.4309
  128OSM    C4F13681   4.102   1.289   3.178  0.4671 -0.4351 -0.4794
  128OSM    H4F13682   4.191   1.312   3.115 -0.3339 -0.6532 -1.7251
  128OSM    H4G13683   4.079   1.181   3.164 -0.8811 -0.0541 -1.3431
  128OSM    C5F13684   4.140   1.311   3.330 -0.3396  0.3828  0.8707
  128OSM    H5F13685   4.056   1.292   3.401  0.8201 -0.6748  2.0144
  128OSM    H5G13686   4.165   1.419   3.340 -0.5913  0.4404  0.8783
  128OSM    C6F13687   4.265   1.232   3.365 -0.2212 -0.3248 -0.0456
  128OSM    H6F13688   4.334   1.224   3.279 -0.8962 -1.3835 -0.5060
  128OSM    H6G13689   4.230   1.127   3.366 -1.9852  0.2334 -0.1739
  128OSM    C7F13690   4.334   1.273   3.495  0.8165  0.0662 -0.5246
  128OSM    H7F13691   4.263   1.278   3.580  1.9054 -3.6433  0.7878
  128OSM    H7G13692   4.386   1.370   3.480  0.7479  0.3554  1.0050
  128OSM    C8F13693   4.429   1.163   3.527  0.3608  0.7718 -0.4076
  128OSM    H8F13694   4.495   1.145   3.440 -0.2058 -2.3818 -0.3069
  128OSM    H8G13695   4.370   1.069   3.523  0.2526  0.8384 -0.3595
  128OSM    C9F13696   4.499   1.168   3.659 -0.4774 -0.3584  0.1055
  128OSM    H9F13697   4.609   1.165   3.668 -0.6073 -1.2778  1.7220
  128OSM   C10F13698   4.444   1.138   3.780 -0.9376  0.2406  0.3219
  128OSM   H10F13699   4.507   1.146   3.870 -1.0496 -0.3225  0.4526
  128OSM   C11F13700   4.299   1.111   3.797  0.6835 -0.3301 -0.7559
  128OSM   H11F13701   4.237   1.100   3.706 -3.6964  2.4491  1.5554
  128OSM   H11G13702   4.252   1.197   3.850  0.3346 -2.2545  2.3389
  128OSM   C12F13703   4.264   0.988   3.876 -0.3674 -0.4328 -0.2679
  128OSM   H12F13704   4.324   0.902   3.839  0.9364  0.3563 -0.0346
  128OSM   H12G13705   4.161   0.950   3.854 -0.2938 -0.6494 -0.2362
  128OSM   C13F13706   4.293   1.007   4.024 -0.0399  0.2367 -0.1320
  128OSM   H13F13707   4.204   0.986   4.087 -0.3405  0.6207 -0.4183
  128OSM   H13G13708   4.324   1.112   4.044 -0.5582  0.2833  0.4673
  128OSM   C14F13709   4.410   0.924   4.082 -0.0454 -0.1137 -0.3592
  128OSM   H14F13710   4.494   0.952   4.015 -0.1730  1.9032  0.2616
  128OSM   H14G13711   4.377   0.819   4.066  0.3893 -0.1614 -1.0026
  128OSM   C15F13712   4.436   0.961   4.224 -0.3447 -0.3059 -0.1171
  128OSM   H15F13713   4.338   0.959   4.276 -0.0544 -0.8347  0.4345
  128OSM   H15G13714   4.478   1.064   4.223 -1.9948  0.4219  1.3929
  128OSM   C16F13715   4.537   0.862   4.279  0.5245  0.7396 -0.2484
  128OSM   H16F13716   4.633   0.862   4.223 -0.0599 -1.1473 -1.3050
  128OSM   H16G13717   4.508   0.755   4.282 -1.5953  1.2983  0.7877
  128OSM   C17F13718   4.601   0.896   4.421 -0.4516 -0.2070 -0.2834
  128OSM   H17F13719   4.641   0.999   4.417 -2.0210  0.5444  1.5940
  128OSM   H17G13720   4.683   0.827   4.450 -0.7969 -0.5959 -0.2198
  128OSM   C18F13721   4.505   0.906   4.536  0.5718 -0.5157 -0.3372
  128OSM   H18F13722   4.424   0.830   4.539 -1.1986  1.2990  0.2828
  128OSM   H18G13723   4.441   0.995   4.515 -0.6505 -1.1471  0.6031
  128OSM   H18H13724   4.540   0.921   4.640 -3.0713  1.3002  0.8418
  129OSM      N13725   3.850   4.263   2.469 -0.2004  0.4281 -0.0657
  129OSM    C1513726   3.868   4.176   2.346  0.4581 -0.3417  0.0157
  129OSM   H15A13727   3.941   4.223   2.282 -0.2088  0.7393  0.0272
  129OSM   H15B13728   3.778   4.185   2.287  1.7900  1.2390 -1.9097
  129OSM   H15C13729   3.901   4.075   2.361  0.0586 -1.0837 -3.3407
  129OSM    C1413730   3.978   4.293   2.544  0.1018  0.2080  0.2800
  129OSM   H14A13731   4.058   4.346   2.496  1.7097 -1.9657  0.4181
  129OSM   H14B13732   4.010   4.198   2.585 -0.7161 -0.1029  0.2277
  129OSM   H14C13733   3.943   4.355   2.625 -0.7041  0.7179 -0.4361
  129OSM    C1313734   3.786   4.389   2.426 -0.0884 -0.0469  0.0543
  129OSM   H13A13735   3.773   4.460   2.506 -1.1947 -2.3456  2.0528
  129OSM   H13B13736   3.697   4.381   2.366  0.4000 -2.6650 -0.4371
  129OSM   H13C13737   3.859   4.434   2.359 -0.5451  0.5476 -0.0527
  129OSM    C1213738   3.740   4.198   2.560  0.2939  0.2236 -0.1179
  129OSM   H12A13739   3.649   4.178   2.506 -0.7532 -1.1458  2.0163
  129OSM   H12B13740   3.719   4.280   2.628  0.7776 -0.0923  0.4164
  129OSM    C1113741   3.770   4.072   2.639 -0.3529  0.5924 -0.7610
  129OSM   H11A13742   3.687   4.037   2.704  0.9675 -2.6339 -0.6251
  129OSM   H11B13743   3.849   4.081   2.717 -2.2104 -0.9780  1.4550
  129OSM      P13744   3.705   3.844   2.529 -0.1036  0.0058  0.4120
  129OSM    O1313745   3.561   3.882   2.538 -0.1876 -0.6075 -0.5200
  129OSM    O1413746   3.742   3.771   2.402 -0.2392  0.0260 -0.2365
  129OSM    O1113747   3.723   3.742   2.650 -0.0261 -0.8796  0.7937
  129OSM    O1213748   3.799   3.966   2.550 -0.0313  0.3694  0.1788
  129OSM    C1S13749   3.853   3.739   2.718  0.3196  0.0743  0.0011
  129OSM    H1S13750   3.914   3.830   2.700  2.7375 -1.5345 -0.4007
  129OSM    H1T13751   3.917   3.653   2.686  0.5329 -0.2698  1.2739
  129OSM     NF13752   3.972   3.719   2.939  0.7692 -0.0626 -0.0602
  129OSM    HNF13753   4.012   3.627   2.944  1.2714  0.2089  1.3962
  129OSM    C2S13754   3.841   3.731   2.877 -0.2095  0.3003  0.3467
  129OSM    H2S13755   3.795   3.827   2.909  0.6223  1.0021 -0.5159
  129OSM    C3S13756   3.748   3.614   2.919 -0.0182 -0.1987  0.4544
  129OSM    H3S13757   3.795   3.514   2.903 -2.4502 -1.2324 -0.6384
  129OSM     O313758   3.629   3.611   2.846 -0.7177 -0.3926 -0.1660
  129OSM    HO313759   3.638   3.672   2.772 -3.6318 -1.7612 -1.8232
  129OSM    C4S13760   3.707   3.620   3.065 -0.9708 -0.3617  0.9496
  129OSM    H4S13761   3.773   3.561   3.129 -1.0296 -2.4597 -0.8196
  129OSM    C5S13762   3.595   3.662   3.120 -0.1213  0.0811 -0.3484
  129OSM    H5S13763   3.513   3.708   3.063  0.8187  1.3082 -0.7574
  129OSM    C6S13764   3.581   3.652   3.271 -0.6664 -0.3011 -1.1113
  129OSM    H6S13765   3.576   3.544   3.297 -3.4857 -0.1540 -0.6810
  129OSM    H6T13766   3.487   3.702   3.303  0.5292  0.2507  1.8599
  129OSM    C7S13767   3.700   3.723   3.353  0.3609  0.1255  0.7455
  129OSM    H7S13768   3.716   3.819   3.299 -1.3913  0.4460  0.7351
  129OSM    H7T13769   3.792   3.661   3.346  0.3008  0.0579  0.5500
  129OSM    C8S13770   3.658   3.747   3.496  0.8987 -0.3903 -0.0929
  129OSM    H8S13771   3.621   3.649   3.533 -0.1445  0.6031  1.6439
  129OSM    H8T13772   3.569   3.814   3.488 -0.2076 -1.7401  0.4177
  129OSM    C9S13773   3.761   3.800   3.588 -0.6521  0.1363 -0.3030
  129OSM    H9S13774   3.806   3.891   3.544 -0.5924  0.6609  0.8004
  129OSM    H9T13775   3.838   3.720   3.591 -0.6740  0.1005 -0.7231
  129OSM   C10S13776   3.710   3.822   3.728 -0.4199 -0.0332  0.2729
  129OSM   H10S13777   3.676   3.726   3.772  0.5985 -1.0826 -1.1291
  129OSM   H10T13778   3.626   3.895   3.725  0.6849  1.2354 -0.9670
  129OSM   C11S13779   3.814   3.884   3.830  0.5467  0.5904 -0.3265
  129OSM   H11S13780   3.819   3.993   3.807  2.5122  0.3492 -1.2803
  129OSM   H11T13781   3.913   3.834   3.826 -2.4340 -6.2614 -1.8179
  129OSM   C12S13782   3.765   3.868   3.976  0.2473 -0.5711 -0.0068
  129OSM   H12S13783   3.718   3.771   4.002  0.0865 -0.4933 -0.0076
  129OSM   H12T13784   3.683   3.940   3.997  0.7740  0.5666 -1.6470
  129OSM   C13S13785   3.876   3.885   4.083 -0.2579 -0.0693  0.1132
  129OSM   H13S13786   3.927   3.982   4.061  1.1798 -0.6759  0.6688
  129OSM   H13T13787   3.954   3.806   4.076  2.0015  2.0424 -0.3677
  129OSM   C14S13788   3.828   3.893   4.236  0.2103  0.2972  0.9930
  129OSM   H14S13789   3.749   3.970   4.246  0.0447  0.2079  0.3632
  129OSM   H14T13790   3.912   3.920   4.305  1.1853 -0.6852  0.2349
  129OSM   C15S13791   3.769   3.757   4.287 -0.8901 -0.0983 -0.0023
  129OSM   H15S13792   3.841   3.676   4.263 -1.4015 -0.9848  1.4109
  129OSM   H15T13793   3.674   3.736   4.233  0.6583 -1.3458 -2.4492
  129OSM   C16S13794   3.746   3.756   4.439 -0.3277  0.1092 -0.9474
  129OSM   H16S13795   3.696   3.852   4.467 -0.1111 -0.3450  1.1344
  129OSM   H16T13796   3.842   3.762   4.495 -0.1694 -3.0790 -0.7098
  129OSM   C17S13797   3.661   3.639   4.482  0.0303 -0.0320 -0.0166
  129OSM   H17S13798   3.719   3.551   4.448 -0.9362 -0.1836 -1.4080
  129OSM   H17T13799   3.567   3.647   4.423  0.5112 -0.2177 -0.8193
  129OSM   C18S13800   3.621   3.641   4.623  0.2806 -0.3150 -0.4909
  129OSM   H18S13801   3.566   3.546   4.638 -0.1267  0.2022  1.7144
  129OSM   H18T13802   3.554   3.726   4.648  0.7897  0.3064 -1.1846
  129OSM   H18U13803   3.714   3.639   4.685  0.0697  0.2879 -0.1442
  129OSM    C1F13804   4.044   3.835   2.948 -0.7438 -0.1874 -0.1834
  129OSM     OF13805   3.995   3.946   2.925  0.6246  0.3003 -0.0480
  129OSM    C2F13806   4.190   3.829   2.981  0.5223 -0.3184 -0.7818
  129OSM    H2F13807   4.235   3.923   3.019  0.7680 -0.5890 -0.3841
  129OSM    H2G13808   4.249   3.806   2.889  0.1154 -1.4110 -0.7810
  129OSM    C3F13809   4.223   3.725   3.082  0.1242  0.2535  0.4629
  129OSM    H3F13810   4.332   3.711   3.103 -0.2922 -0.6399  2.2358
  129OSM    H3G13811   4.211   3.618   3.053 -0.9347  1.0526 -2.4688
  129OSM    C4F13812   4.168   3.739   3.220 -0.2419  0.8511  0.3900
  129OSM    H4F13813   4.058   3.754   3.212 -0.6993 -1.8240  0.7747
  129OSM    H4G13814   4.224   3.816   3.276 -0.4711  1.3477 -0.0573
  129OSM    C5F13815   4.189   3.602   3.300 -0.7935  0.3781 -0.0534
  129OSM    H5F13816   4.290   3.557   3.284 -0.1577  0.2720  3.3673
  129OSM    H5G13817   4.122   3.526   3.254  2.1454  0.0509 -4.3662
  129OSM    C6F13818   4.172   3.643   3.446 -0.2016 -0.4223  0.7214
  129OSM    H6F13819   4.076   3.698   3.458 -0.0600  0.0360 -0.1400
  129OSM    H6G13820   4.247   3.715   3.486  1.5723 -1.6487 -0.2673
  129OSM    C7F13821   4.164   3.522   3.546 -0.5314  0.6553  0.8283
  129OSM    H7F13822   4.248   3.450   3.528 -0.9230 -0.3626  2.7433
  129OSM    H7G13823   4.073   3.459   3.536  1.4031 -2.1714 -0.6492
  129OSM    C8F13824   4.168   3.578   3.687 -0.2330  0.4637  0.8438
  129OSM    H8F13825   4.125   3.508   3.762 -0.5685  0.0958  0.3140
  129OSM    H8G13826   4.116   3.676   3.701 -0.1851  0.3768  1.7140
  129OSM    C9F13827   4.312   3.599   3.730  0.6604 -0.4771 -1.0088
  129OSM    H9F13828   4.384   3.604   3.647  3.7295 -0.1352  1.4495
  129OSM   C10F13829   4.349   3.618   3.858 -0.1834  0.6148 -0.2559
  129OSM   H10F13830   4.457   3.618   3.876  0.0735  3.4494 -1.2980
  129OSM   C11F13831   4.248   3.629   3.975 -0.7295 -0.2563  0.2120
  129OSM   H11F13832   4.200   3.533   4.004 -1.3439  0.9906  3.8044
  129OSM   H11G13833   4.167   3.699   3.946  1.3553  1.6121 -1.4711
  129OSM   C12F13834   4.322   3.674   4.107  0.0666  0.2395 -0.3171
  129OSM   H12F13835   4.244   3.725   4.166  1.0673  0.2079  1.0959
  129OSM   H12G13836   4.399   3.753   4.098  0.1950  0.3147  1.1892
  129OSM   C13F13837   4.386   3.563   4.198 -0.7107  0.0675 -0.0638
  129OSM   H13F13838   4.492   3.541   4.170  0.2748  0.7217  2.8241
  129OSM   H13G13839   4.318   3.476   4.185 -1.1111  0.3653  0.0158
  129OSM   C14F13840   4.391   3.599   4.347  0.4079 -0.1267 -0.0091
  129OSM   H14F13841   4.288   3.592   4.387  0.9485 -1.7267  1.2056
  129OSM   H14G13842   4.424   3.705   4.355 -0.6301  0.1049  1.5510
  129OSM   C15F13843   4.487   3.511   4.433  0.7013  0.0298  0.1019
  129OSM   H15F13844   4.586   3.542   4.394  0.3160 -0.3192 -1.2120
  129OSM   H15G13845   4.473   3.402   4.418 -2.7820  0.4579 -0.6859
  129OSM   C16F13846   4.461   3.531   4.580 -0.8927 -0.4810  0.3229
  129OSM   H16F13847   4.474   3.639   4.604  1.1438 -0.6585  0.1372
  129OSM   H16G13848   4.550   3.487   4.629  0.6813 -1.3923 -3.0590
  129OSM   C17F13849   4.330   3.477   4.641 -0.2685  0.1291  0.1858
  129OSM   H17F13850   4.303   3.379   4.596 -0.3590  0.7799 -1.2274
  129OSM   H17G13851   4.244   3.536   4.603 -0.2473  0.1711  0.2034
  129OSM   C18F13852   4.308   3.470   4.791 -0.8385 -0.6873 -0.4932
  129OSM   H18F13853   4.213   3.419   4.821  0.4351 -2.0071  1.5183
  129OSM   H18G13854   4.307   3.570   4.840 -1.8576 -0.3155 -1.2300
  129OSM   H18H13855   4.387   3.404   4.833  0.0269  0.6591  0.0564
  130OSM      N13856   0.690   1.706   2.981  0.4100 -0.7857  0.3030
  130OSM    C1513857   0.833   1.696   3.021 -0.2935  0.2496  0.1277
  130OSM   H15A13858   0.906   1.721   2.946 -1.5365 -0.6009 -1.3979
  130OSM   H15B13859   0.865   1.598   3.053  1.9153  0.2781 -1.7916
  130OSM   H15C13860   0.852   1.768   3.100 -1.4168  1.2771 -0.4997
  130OSM    C1413861   0.599   1.665   3.094 -0.2667  0.2379 -0.4599
  130OSM   H14A13862   0.611   1.568   3.140 -2.1652  1.3095  2.6008
  130OSM   H14B13863   0.495   1.676   3.066 -0.7610  1.0684  1.5464
  130OSM   H14C13864   0.613   1.732   3.177  0.0006 -0.4855  0.0945
  130OSM    C1313865   0.652   1.853   2.948 -0.0530  0.1254  0.0563
  130OSM   H13A13866   0.646   1.923   3.030 -3.6872  0.4056 -0.2880
  130OSM   H13B13867   0.550   1.858   2.914 -0.6033  1.9689  1.7712
  130OSM   H13C13868   0.713   1.881   2.864 -0.7102 -2.7949 -1.5564
  130OSM    C1213869   0.669   1.616   2.853 -0.0927 -0.1192  0.4271
  130OSM   H12A13870   0.700   1.516   2.881  2.5954 -0.4029 -2.7978
  130OSM   H12B13871   0.739   1.655   2.780  0.9161 -0.1507  1.3559
  130OSM    C1113872   0.519   1.609   2.804  0.2376 -0.1032  0.4324
  130OSM   H11A13873   0.473   1.561   2.894  2.0547 -5.0302 -0.9466
  130OSM   H11B13874   0.520   1.537   2.720  0.6308  0.3740  0.0215
  130OSM      P13875   0.322   1.734   2.715 -0.0325 -0.1539  0.2596
  130OSM    O1313876   0.336   1.782   2.573  0.2161  0.2557 -0.1684
  130OSM    O1413877   0.257   1.610   2.748 -0.9441 -0.3007  0.1522
  130OSM    O1113878   0.254   1.846   2.804  1.1078 -0.2239  0.0455
  130OSM    O1213879   0.470   1.739   2.773  0.1583  0.2596  0.8359
  130OSM    C1S13880   0.209   1.816   2.940 -0.1524  0.0741  0.1166
  130OSM    H1S13881   0.260   1.727   2.983  0.1889  1.1431  2.0563
  130OSM    H1T13882   0.100   1.797   2.939 -0.5586  2.1879 -1.3791
  130OSM     NF13883   0.194   1.904   3.162 -0.0036  0.0033 -0.5183
  130OSM    HNF13884   0.113   1.956   3.189  0.1884 -0.2408  0.5959
  130OSM    C2S13885   0.242   1.929   3.037 -1.2291 -0.3079 -0.2023
  130OSM    H2S13886   0.351   1.937   3.055 -1.1560 -2.2300  0.4621
  130OSM    C3S13887   0.200   2.072   2.984 -0.1398 -0.2876 -0.4529
  130OSM    H3S13888   0.091   2.054   2.969  0.1176 -1.1382 -1.4472
  130OSM     O313889   0.255   2.091   2.857 -0.5402 -0.6858  0.2544
  130OSM    HO313890   0.273   2.002   2.826 -0.2578 -1.1846  1.7313
  130OSM    C4S13891   0.230   2.180   3.081  0.4887 -0.7424 -0.3277
  130OSM    H4S13892   0.333   2.176   3.119  0.5270 -1.4973 -0.5061
  130OSM    C5S13893   0.148   2.271   3.142 -0.3658 -0.0789 -0.8877
  130OSM    H5S13894   0.042   2.269   3.111 -0.6359  0.5620 -0.0553
  130OSM    C6S13895   0.193   2.372   3.240  0.0248 -0.3756 -0.0704
  130OSM    H6S13896   0.146   2.472   3.233  0.4298 -0.0745  1.3483
  130OSM    H6T13897   0.302   2.388   3.224 -0.3417 -0.0010 -2.5549
  130OSM    C7S13898   0.158   2.333   3.383 -0.1621  0.1793 -0.2977
  130OSM    H7S13899   0.222   2.249   3.418 -1.4235 -0.7087 -0.0234
  130OSM    H7T13900   0.058   2.285   3.384  1.1410 -3.0234  2.8069
  130OSM    C8S13901   0.168   2.449   3.486  0.3550  0.1232  0.2185
  130OSM    H8S13902   0.264   2.502   3.469  1.8021 -2.2656  0.4076
  130OSM    H8T13903   0.175   2.402   3.587  2.8334 -2.1560 -0.8760
  130OSM    C9S13904   0.056   2.553   3.483  1.3007 -0.2974 -0.6375
  130OSM    H9S13905  -0.045   2.507   3.483  0.5612  1.2273 -0.4319
  130OSM    H9T13906   0.082   2.618   3.397  0.2990 -1.3647 -1.7842
  130OSM   C10S13907   0.077   2.638   3.607  0.2592  0.5542 -0.4815
  130OSM   H10S13908   0.031   2.738   3.588 -0.2106  0.3859 -0.2297
  130OSM   H10T13909   0.185   2.637   3.631 -0.0635 -1.4488  1.1569
  130OSM   C11S13910   0.009   2.573   3.731 -0.0839 -1.3171  0.2143
  130OSM   H11S13911   0.036   2.466   3.742 -1.9846 -1.6156  3.0004
  130OSM   H11T13912  -0.098   2.557   3.706  0.0574 -1.5849 -0.2371
  130OSM   C12S13913   0.045   2.663   3.854 -0.3590 -0.0841  0.2846
  130OSM   H12S13914   0.012   2.768   3.836 -2.1639 -0.0130  3.2977
  130OSM   H12T13915   0.152   2.673   3.881 -0.5163 -2.7111  2.2597
  130OSM   C13S13916  -0.021   2.613   3.978 -0.2970 -0.2897  0.0852
  130OSM   H13S13917   0.016   2.510   3.999  0.7008 -0.1889 -1.1128
  130OSM   H13T13918  -0.130   2.608   3.957 -0.1160  1.1130 -1.3154
  130OSM   C14S13919   0.016   2.697   4.102 -0.6449  0.8084  0.1254
  130OSM   H14S13920  -0.023   2.801   4.100  0.2061  1.1435 -1.3982
  130OSM   H14T13921   0.127   2.707   4.104 -0.5354 -0.1246 -0.6912
  130OSM   C15S13922  -0.020   2.631   4.235 -0.3443 -0.2618 -0.1599
  130OSM   H15S13923   0.014   2.698   4.316  1.8000 -0.9145 -0.4597
  130OSM   H15T13924   0.051   2.546   4.242  0.1084 -0.1170 -2.2940
  130OSM   C16S13925  -0.169   2.595   4.245  0.0516  0.1853 -0.1653
  130OSM   H16S13926  -0.175   2.489   4.278 -1.1582  0.5737  0.9645
  130OSM   H16T13927  -0.228   2.625   4.155  0.5313  0.0755 -0.5202
  130OSM   C17S13928  -0.242   2.673   4.357  0.2217  0.5139 -0.3591
  130OSM   H17S13929  -0.222   2.782   4.347  1.4042  0.2732 -0.7324
  130OSM   H17T13930  -0.223   2.650   4.464  0.6096 -1.0865 -0.7439
  130OSM   C18S13931  -0.396   2.657   4.349 -0.1149  0.2288 -0.2724
  130OSM   H18S13932  -0.441   2.670   4.248  1.1336 -0.4537 -0.9479
  130OSM   H18T13933  -0.456   2.726   4.411 -0.8737 -0.1110 -0.6087
  130OSM   H18U13934  -0.422   2.553   4.378 -0.2151  0.1034 -0.8036
  130OSM    C1F13935   0.254   1.829   3.255  0.6878 -0.2377  0.7237
  130OSM     OF13936   0.348   1.764   3.229 -0.7022  0.0633  0.1791
  130OSM    C2F13937   0.187   1.842   3.388 -0.5612  0.2791  0.1238
  130OSM    H2F13938   0.081   1.811   3.371 -0.7058  1.3279 -0.9901
  130OSM    H2G13939   0.188   1.950   3.416  0.2028  0.4671 -0.6094
  130OSM    C3F13940   0.238   1.756   3.500 -0.4150 -0.3859  0.5782
  130OSM    H3F13941   0.344   1.781   3.523 -0.7709  0.2695  1.5167
  130OSM    H3G13942   0.235   1.647   3.478  0.5362 -0.6187  1.5163
  130OSM    C4F13943   0.151   1.771   3.630 -0.3012 -0.3214  0.4245
  130OSM    H4F13944   0.207   1.699   3.694  0.9917  0.4308  0.1688
  130OSM    H4G13945   0.049   1.733   3.607 -0.1984 -2.0646  2.4972
  130OSM    C5F13946   0.159   1.903   3.708 -0.5768  0.5516 -0.2546
  130OSM    H5F13947   0.129   1.976   3.631  2.8407  1.7255 -0.6605
  130OSM    H5G13948   0.264   1.934   3.731 -1.3241  1.9907  1.5413
  130OSM    C6F13949   0.076   1.892   3.835 -0.3191 -0.3672  0.0371
  130OSM    H6F13950   0.099   1.799   3.892  0.6392 -0.5235 -0.5864
  130OSM    H6G13951  -0.034   1.882   3.825 -0.4518 -2.2545  2.5216
  130OSM    C7F13952   0.077   2.006   3.940  0.2533 -0.2439  0.4582
  130OSM    H7F13953   0.165   2.000   4.007 -0.4698  3.4003  1.9735
  130OSM    H7G13954  -0.010   1.987   4.007  0.5669 -3.0838  0.1904
  130OSM    C8F13955   0.057   2.142   3.870 -0.6200  0.5295  0.0724
  130OSM    H8F13956  -0.018   2.131   3.789 -0.1787  0.9050 -0.3965
  130OSM    H8G13957   0.155   2.173   3.827  0.1890 -0.8236  0.8565
  130OSM    C9F13958   0.009   2.247   3.964  0.8768  0.4777  0.2230
  130OSM    H9F13959   0.013   2.346   3.917 -0.7746  1.1336  1.3517
  130OSM   C10F13960  -0.004   2.243   4.099 -0.8454  0.7433  0.5350
  130OSM   H10F13961  -0.041   2.339   4.137  0.4454  1.3327  0.3579
  130OSM   C11F13962   0.029   2.147   4.209  0.4959  0.5214  0.2304
  130OSM   H11F13963   0.082   2.205   4.288 -1.4643  0.8476  1.3788
  130OSM   H11G13964   0.099   2.064   4.183 -0.0787  0.1725 -0.2130
  130OSM   C12F13965  -0.097   2.088   4.276  0.1062  0.4081 -0.1275
  130OSM   H12F13966  -0.066   2.019   4.357 -0.9161  0.5622  0.4082
  130OSM   H12G13967  -0.157   2.031   4.202 -0.1698  0.7330 -0.1535
  130OSM   C13F13968  -0.187   2.190   4.350 -0.0504 -0.6304 -0.6375
  130OSM   H13F13969  -0.231   2.257   4.273  1.9446  0.2239 -1.0861
  130OSM   H13G13970  -0.137   2.257   4.423 -1.5170  2.2272 -2.0714
  130OSM   C14F13971  -0.292   2.133   4.443 -0.0740  0.4488 -0.3447
  130OSM   H14F13972  -0.360   2.052   4.409 -0.1035 -1.5858  3.8809
  130OSM   H14G13973  -0.356   2.223   4.457 -0.4446 -0.1568  2.4431
  130OSM   C15F13974  -0.241   2.085   4.580 -0.6888  0.1286 -0.2235
  130OSM   H15F13975  -0.172   2.154   4.633  1.4831 -3.0512  1.4383
  130OSM   H15G13976  -0.175   1.997   4.560  0.0276  0.6231 -0.0627
  130OSM   C16F13977  -0.347   2.029   4.676  0.3621  0.2902 -0.7136
  130OSM   H16F13978  -0.288   2.003   4.766  2.1417  0.2379 -1.8507
  130OSM   H16G13979  -0.397   1.936   4.641 -1.1907  1.3471 -1.4504
  130OSM   C17F13980  -0.466   2.125   4.715  0.2504  0.3207  0.1670
  130OSM   H17F13981  -0.506   2.170   4.622 -1.5319 -0.9168  0.2779
  130OSM   H17G13982  -0.428   2.202   4.785 -2.1067 -1.4080  3.6875
  130OSM   C18F13983  -0.581   2.044   4.782 -0.0552 -0.4404 -0.0363
  130OSM   H18F13984  -0.628   1.986   4.700  1.0186 -1.1673 -0.1639
  130OSM   H18G13985  -0.647   2.118   4.833  0.4155  2.3018 -3.0492
  130OSM   H18H13986  -0.542   1.969   4.854 -2.3306 -0.1634  1.6137
  131OSM      N13987   2.923   1.142   2.506  0.4833 -0.0332 -0.3847
  131OSM    C1513988   2.939   1.265   2.428 -0.1410  0.1930 -0.2754
  131OSM   H15A13989   2.844   1.317   2.438 -0.9945 -1.6448  2.0859
  131OSM   H15B13990   2.974   1.247   2.328 -0.6834 -0.0041 -0.4331
  131OSM   H15C13991   3.015   1.318   2.483 -0.9073 -0.7937  1.8804
  131OSM    C1413992   2.811   1.058   2.438  0.0174 -0.4960  0.4421
  131OSM   H14A13993   2.717   1.109   2.428 -1.1199 -2.5852 -0.0818
  131OSM   H14B13994   2.803   0.966   2.494  0.3693  0.9919  3.0878
  131OSM   H14C13995   2.851   1.028   2.342  0.9922  2.7748 -0.2835
  131OSM    C1313996   3.044   1.067   2.500  0.4911  0.4186  0.2164
  131OSM   H13A13997   3.123   1.130   2.539  0.2388  0.5179  0.5770
  131OSM   H13B13998   3.083   1.039   2.404  0.8571  1.7008 -0.0285
  131OSM   H13C13999   3.039   0.971   2.550 -1.5216  0.6290  0.5079
  131OSM    C1214000   2.887   1.172   2.647 -0.4537  0.3956 -0.2733
  131OSM   H12A14001   2.863   1.077   2.692 -0.9605 -0.2958 -1.9258
  131OSM   H12B14002   2.791   1.223   2.642  0.7960  3.3758  2.7616
  131OSM    C1114003   2.985   1.260   2.737  0.1348  0.4435  0.7169
  131OSM   H11A14004   3.076   1.197   2.751  0.9360  1.8958  2.3691
  131OSM   H11B14005   2.941   1.275   2.838 -0.7703 -1.0110  0.5720
  131OSM      P14006   2.950   1.524   2.706 -0.6110 -0.3505  0.3236
  131OSM    O1314007   3.021   1.618   2.622  0.8885 -0.4256 -0.3170
  131OSM    O1414008   2.803   1.523   2.692 -0.4867  0.5484  0.4890
  131OSM    O1114009   2.982   1.571   2.856 -0.2510 -0.0179  0.4768
  131OSM    O1214010   3.013   1.380   2.670  0.6232  0.1399 -0.5988
  131OSM    C1S14011   3.110   1.526   2.905  0.1350  0.0325  0.1001
  131OSM    H1S14012   3.187   1.592   2.859  0.5461  0.3834  1.2583
  131OSM    H1T14013   3.136   1.420   2.889  0.0799 -0.1310  1.0706
  131OSM     NF14014   3.262   1.517   3.115 -0.3753 -0.3775  0.2055
  131OSM    HNF14015   3.262   1.430   3.164 -0.8244 -0.0472  0.8010
  131OSM    C2S14016   3.131   1.556   3.058  0.6225  0.6602 -0.4399
  131OSM    H2S14017   3.121   1.666   3.067  0.9514  0.6093  0.5947
  131OSM    C3S14018   3.017   1.486   3.142  1.1831  0.5844 -0.0152
  131OSM    H3S14019   3.032   1.377   3.130 -1.7635  0.0960  0.0540
  131OSM     O314020   2.885   1.495   3.096 -0.4363  0.2101 -0.4880
  131OSM    HO314021   2.900   1.530   3.008  1.6962  3.0803  0.8487
  131OSM    C4S14022   3.023   1.506   3.292 -0.6133 -0.6495  0.9179
  131OSM    H4S14023   3.067   1.419   3.342 -0.6575 -1.5476 -0.5458
  131OSM    C5S14024   2.966   1.614   3.358  0.2175 -0.4306  0.5231
  131OSM    H5S14025   2.907   1.679   3.293 -0.5051 -3.4449 -2.1195
  131OSM    C6S14026   2.954   1.637   3.506 -0.4415  0.4869 -0.3234
  131OSM    H6S14027   2.855   1.685   3.519 -0.6530  0.2739 -1.1221
  131OSM    H6T14028   3.035   1.707   3.535 -1.0548  1.4092 -0.8123
  131OSM    C7S14029   2.961   1.515   3.600  0.3758  0.3559 -0.2301
  131OSM    H7S14030   3.062   1.471   3.583  0.1047 -0.3652  0.0188
  131OSM    H7T14031   2.892   1.441   3.555  0.0232 -0.0472  0.9423
  131OSM    C8S14032   2.926   1.543   3.745 -0.0083  0.2524 -0.3009
  131OSM    H8S14033   2.833   1.604   3.748  0.0711  0.3431  1.0806
  131OSM    H8T14034   3.004   1.614   3.781  0.1318  1.0506 -2.0582
  131OSM    C9S14035   2.916   1.415   3.827 -0.1333  0.5013 -0.4531
  131OSM    H9S14036   3.010   1.358   3.818 -0.2382 -1.0373  4.8484
  131OSM    H9T14037   2.834   1.364   3.772 -0.5461  0.6375  0.0300
  131OSM   C10S14038   2.886   1.445   3.977 -0.5927  0.2916 -0.1357
  131OSM   H10S14039   2.784   1.485   3.994 -1.3555 -1.6792  0.1761
  131OSM   H10T14040   2.965   1.512   4.018  0.0902 -0.5483 -0.0495
  131OSM   C11S14041   2.904   1.318   4.062  0.7763  0.2122  0.1643
  131OSM   H11S14042   3.013   1.297   4.055  0.4871 -1.2427 -0.4415
  131OSM   H11T14043   2.855   1.224   4.028 -0.6454  0.9798  0.0616
  131OSM   C12S14044   2.871   1.336   4.213 -0.0029 -0.3577  0.1820
  131OSM   H12S14045   2.887   1.236   4.258  2.6987  0.1199  0.4408
  131OSM   H12T14046   2.773   1.386   4.228 -0.7755 -1.2238 -1.6462
  131OSM   C13S14047   2.976   1.439   4.273  0.0764  0.8186 -0.2822
  131OSM   H13S14048   2.963   1.540   4.229 -2.8648 -0.2438 -2.0958
  131OSM   H13T14049   3.075   1.394   4.248 -0.6452 -1.3921  0.5240
  131OSM   C14S14050   2.957   1.451   4.420 -0.3561 -0.2256 -0.7478
  131OSM   H14S14051   2.952   1.348   4.461 -1.3953  0.3690  0.7191
  131OSM   H14T14052   2.857   1.497   4.432 -0.2268 -0.2529  0.5487
  131OSM   C15S14053   3.077   1.542   4.481 -0.0589  0.4570 -0.1427
  131OSM   H15S14054   3.064   1.638   4.425  1.3587  0.7798  0.0513
  131OSM   H15T14055   3.177   1.504   4.451 -0.4247  0.6422 -1.7093
  131OSM   C16S14056   3.062   1.559   4.630 -0.0722  0.2889  0.4286
  131OSM   H16S14057   3.137   1.502   4.689 -1.7490  0.1666  2.5675
  131OSM   H16T14058   2.968   1.505   4.654 -0.1339 -0.5379 -1.5118
  131OSM   C17S14059   3.057   1.705   4.669  0.1856 -0.1825  0.8305
  131OSM   H17S14060   2.982   1.766   4.615  1.6780 -0.5171 -1.8262
  131OSM   H17T14061   3.149   1.760   4.638  0.2484 -0.4000  0.6224
  131OSM   C18S14062   3.021   1.732   4.818  0.6482  0.0056  0.1088
  131OSM   H18S14063   2.980   1.836   4.815 -0.8672 -0.5795 -0.5270
  131OSM   H18T14064   3.108   1.738   4.886  0.7425  1.9568 -0.1111
  131OSM   H18U14065   2.946   1.662   4.859  0.3549 -1.1461 -2.2271
  131OSM    C1F14066   3.374   1.583   3.098  0.0215 -0.1616  0.0788
  131OSM     OF14067   3.367   1.695   3.038 -0.6486  0.1076  0.0105
  131OSM    C2F14068   3.504   1.533   3.149 -0.2314  0.3869 -0.0322
  131OSM    H2F14069   3.568   1.503   3.064 -0.1757 -1.3736  0.6009
  131OSM    H2G14070   3.491   1.442   3.210  0.5352 -1.0220 -1.8808
  131OSM    C3F14071   3.574   1.635   3.241 -1.0477  0.0907 -0.5999
  131OSM    H3F14072   3.495   1.682   3.303 -0.1673  3.9431 -2.0675
  131OSM    H3G14073   3.633   1.704   3.176 -0.2990  0.0989  0.0746
  131OSM    C4F14074   3.685   1.579   3.340 -0.5586  0.4429 -0.4737
  131OSM    H4F14075   3.731   1.662   3.397 -0.4280 -1.8651  3.1520
  131OSM    H4G14076   3.758   1.524   3.277 -0.4394 -0.5842  0.5271
  131OSM    C5F14077   3.641   1.481   3.456 -0.2183  0.4347  0.2421
  131OSM    H5F14078   3.600   1.393   3.402  0.7451  0.8604 -1.2484
  131OSM    H5G14079   3.561   1.532   3.512 -1.2602 -0.4513 -0.4035
  131OSM    C6F14080   3.758   1.429   3.535  0.1454  0.2361 -0.1005
  131OSM    H6F14081   3.814   1.505   3.594 -1.8783  2.4347 -0.8900
  131OSM    H6G14082   3.813   1.368   3.459 -0.8354 -2.4721  1.2213
  131OSM    C7F14083   3.710   1.332   3.647  0.4048  0.4011 -0.8966
  131OSM    H7F14084   3.659   1.244   3.601 -1.0710 -1.3019  3.5086
  131OSM    H7G14085   3.620   1.368   3.700 -0.9606 -2.7444 -0.8813
  131OSM    C8F14086   3.829   1.273   3.738 -0.1387 -0.8764 -0.1501
  131OSM    H8F14087   3.882   1.362   3.779 -1.4814 -0.4661  0.7730
  131OSM    H8G14088   3.896   1.214   3.672  1.3540  0.3752  0.1858
  131OSM    C9F14089   3.778   1.200   3.849  0.1784 -0.0765 -0.5010
  131OSM    H9F14090   3.684   1.144   3.835 -0.1662  0.3231  0.1490
  131OSM   C10F14091   3.850   1.170   3.965  0.9270  0.5956  0.5678
  131OSM   H10F14092   3.789   1.113   4.037  1.7677 -0.7196  0.2841
  131OSM   C11F14093   3.981   1.231   4.018 -0.0683  0.1421  0.1207
  131OSM   H11F14094   4.031   1.290   3.938 -0.4352  1.1265  0.6081
  131OSM   H11G14095   4.058   1.155   4.042 -1.1655 -1.3939 -1.0097
  131OSM   C12F14096   3.982   1.302   4.152  0.5780 -0.3889 -0.2106
  131OSM   H12F14097   4.090   1.325   4.171  0.7819 -0.7868 -0.8762
  131OSM   H12G14098   3.960   1.236   4.239 -0.9622 -0.4526 -0.6319
  131OSM   C13F14099   3.902   1.433   4.151 -0.2251 -0.2204 -0.6250
  131OSM   H13F14100   3.793   1.418   4.136 -0.3531 -2.0821  1.5078
  131OSM   H13G14101   3.939   1.496   4.068  0.3626  0.9435  0.4790
  131OSM   C14F14102   3.919   1.495   4.291  0.0926  0.3673  0.1023
  131OSM   H14F14103   4.022   1.531   4.310  0.0544  0.9203 -0.6810
  131OSM   H14G14104   3.904   1.417   4.368 -1.4029  1.8079  1.3588
  131OSM   C15F14105   3.819   1.610   4.325  0.2712  0.6237  0.5677
  131OSM   H15F14106   3.825   1.679   4.239  3.4673  0.8930  0.9041
  131OSM   H15G14107   3.856   1.669   4.412 -1.6641  1.0427  1.1635
  131OSM   C16F14108   3.679   1.561   4.354 -0.1515  0.0529 -0.6664
  131OSM   H16F14109   3.693   1.473   4.421  2.7921 -0.1328 -1.3921
  131OSM   H16G14110   3.631   1.531   4.259 -1.5049 -1.0716  0.3255
  131OSM   C17F14111   3.582   1.658   4.414  0.4996  0.3218  0.1914
  131OSM   H17F14112   3.585   1.754   4.359 -0.5965  0.1849 -0.1404
  131OSM   H17G14113   3.627   1.686   4.512 -0.1628  0.7645  0.3742
  131OSM   C18F14114   3.437   1.593   4.440  0.1199  0.9033  0.1579
  131OSM   H18F14115   3.397   1.556   4.343  0.2639  0.2741  0.3361
  131OSM   H18G14116   3.369   1.667   4.487  0.6301  0.1464  2.2251
  131OSM   H18H14117   3.451   1.503   4.504 -1.2376 -0.6246 -1.5960
  132OSM      N14118   2.078   1.069   2.578  0.6351 -0.2899  0.8982
  132OSM    C1514119   1.928   1.065   2.565  0.0068  0.0685 -0.5242
  132OSM   H15A14120   1.882   0.999   2.638  2.2089 -1.1220 -0.1257
  132OSM   H15B14121   1.894   1.022   2.472 -2.4243 -3.8920  1.9287
  132OSM   H15C14122   1.882   1.163   2.567 -1.0568 -0.3964 -1.3840
  132OSM    C1414123   2.118   0.926   2.572 -0.9027 -0.1415 -0.2137
  132OSM   H14A14124   2.223   0.913   2.591 -0.8840 -1.1483 -0.8980
  132OSM   H14B14125   2.088   0.877   2.480 -1.4420 -1.3257  0.5709
  132OSM   H14C14126   2.074   0.860   2.645  2.2987 -1.3835  0.7365
  132OSM    C1314127   2.131   1.141   2.452  0.2139  0.3648 -0.4334
  132OSM   H13A14128   2.063   1.222   2.430  1.7258  2.1260  0.9961
  132OSM   H13B14129   2.121   1.069   2.372  1.3097 -2.0514  1.4763
  132OSM   H13C14130   2.235   1.168   2.442  0.0049  0.6471 -2.0673
  132OSM    C1214131   2.111   1.151   2.703  0.1884  0.5676 -0.4610
  132OSM   H12A14132   2.057   1.107   2.786 -0.4273  0.4014 -0.9496
  132OSM   H12B14133   2.098   1.257   2.690  0.5149  0.3400 -3.1228
  132OSM    C1114134   2.263   1.144   2.743 -0.3546 -0.6157 -0.0279
  132OSM   H11A14135   2.282   1.035   2.757 -0.3845 -0.7008 -0.6185
  132OSM   H11B14136   2.277   1.199   2.838  1.7162 -1.7836  0.4144
  132OSM      P14137   2.485   1.154   2.612 -0.4004  0.1381 -0.0854
  132OSM    O1314138   2.475   1.004   2.592 -0.0266 -0.0946  0.6607
  132OSM    O1414139   2.539   1.230   2.494 -0.3281  0.6803 -0.6868
  132OSM    O1114140   2.563   1.179   2.743 -0.2098  0.4200 -0.3348
  132OSM    O1214141   2.346   1.208   2.644  0.4306 -0.1412 -0.4173
  132OSM    C1S14142   2.549   1.298   2.824 -0.6313  0.7140 -0.3900
  132OSM    H1S14143   2.449   1.345   2.808 -0.4959  1.3291  0.4848
  132OSM    H1T14144   2.626   1.372   2.795  0.3520 -0.5234 -1.0283
  132OSM     NF14145   2.595   1.390   3.057 -0.7231  0.0009  0.0642
  132OSM    HNF14146   2.678   1.411   3.108 -0.6443 -0.6698  0.2299
  132OSM    C2S14147   2.583   1.269   2.974 -0.6443  0.3790 -0.6041
  132OSM    H2S14148   2.495   1.215   3.014 -0.4437  0.3354 -0.2182
  132OSM    C3S14149   2.707   1.168   2.990  0.0151 -0.3508 -0.6549
  132OSM    H3S14150   2.799   1.215   2.948 -0.0581 -0.8059 -1.3443
  132OSM     O314151   2.693   1.045   2.913  0.0402 -0.2130  0.5554
  132OSM    HO314152   2.620   1.067   2.854  1.5002  1.5249 -0.6989
  132OSM    C4S14153   2.717   1.132   3.140 -0.4422  0.1052  0.4524
  132OSM    H4S14154   2.626   1.091   3.186  0.7161 -0.2632  2.4980
  132OSM    C5S14155   2.831   1.128   3.209  0.2553 -0.2731  0.5823
  132OSM    H5S14156   2.916   1.166   3.151 -1.2230  2.8930  0.2740
  132OSM    C6S14157   2.847   1.067   3.343 -0.1303  0.4251 -0.8862
  132OSM    H6S14158   2.935   1.119   3.386 -2.4519  2.2491  1.9874
  132OSM    H6T14159   2.871   0.960   3.320  0.4163 -0.0626  1.6194
  132OSM    C7S14160   2.725   1.088   3.436 -0.0311 -0.0207  1.1758
  132OSM    H7S14161   2.647   1.024   3.390  0.8053  0.4517 -1.0262
  132OSM    H7T14162   2.690   1.193   3.430  0.0081 -0.0926 -2.1587
  132OSM    C8S14163   2.738   1.043   3.575 -0.0928  0.7909 -0.7337
  132OSM    H8S14164   2.808   1.094   3.644  1.0658 -2.6161  0.8577
  132OSM    H8T14165   2.770   0.936   3.570 -2.1624  0.0579  0.5532
  132OSM    C9S14166   2.610   1.031   3.657 -0.8616  0.1853 -0.0782
  132OSM    H9S14167   2.541   0.950   3.629 -1.1435 -0.8643  3.2176
  132OSM    H9T14168   2.558   1.130   3.655 -0.6642  0.3664 -3.9324
  132OSM   C10S14169   2.642   1.009   3.806 -0.8352  0.3854 -0.0445
  132OSM   H10S14170   2.717   1.080   3.848 -2.5237  1.4415  1.3242
  132OSM   H10T14171   2.688   0.909   3.822 -0.6005  0.5423  0.2641
  132OSM   C11S14172   2.515   1.016   3.892  0.1103  1.1448  0.1140
  132OSM   H11S14173   2.448   0.945   3.839  2.0045 -0.4553 -0.2268
  132OSM   H11T14174   2.456   1.111   3.895 -0.2344  1.0553 -2.0441
  132OSM   C12S14175   2.535   0.955   4.031  0.4435  0.1620 -0.3654
  132OSM   H12S14176   2.600   0.867   4.010 -2.0686 -2.2795  1.3782
  132OSM   H12T14177   2.442   0.915   4.076  1.2134 -2.8648 -1.2010
  132OSM   C13S14178   2.601   1.039   4.140  0.0071  0.3561 -0.3092
  132OSM   H13S14179   2.544   1.135   4.139 -0.2240  0.2434  0.7242
  132OSM   H13T14180   2.704   1.061   4.105  0.5140  0.2500  1.0462
  132OSM   C14S14181   2.600   0.981   4.287 -0.3387  1.2831  0.2893
  132OSM   H14S14182   2.656   0.885   4.289  1.3766  2.2031 -0.6750
  132OSM   H14T14183   2.493   0.956   4.304  0.4077 -1.2393  1.9153
  132OSM   C15S14184   2.651   1.075   4.395 -0.0143  0.2720  0.5768
  132OSM   H15S14185   2.568   1.148   4.409  1.2333  1.8529  0.0804
  132OSM   H15T14186   2.744   1.129   4.365 -1.0973  1.3629 -0.9477
  132OSM   C16S14187   2.686   1.010   4.530  0.5088  0.1670  0.2551
  132OSM   H16S14188   2.733   1.086   4.596 -1.3859  0.3739  1.4532
  132OSM   H16T14189   2.760   0.929   4.515  2.7880  2.5863 -2.5613
  132OSM   C17S14190   2.554   0.962   4.603  0.2202  0.6871 -0.0481
  132OSM   H17S14191   2.495   0.901   4.531  0.0239  1.1886 -0.3103
  132OSM   H17T14192   2.497   1.056   4.612  1.0586  1.1413  0.6236
  132OSM   C18S14193   2.573   0.882   4.733  0.6750 -0.2710 -0.2982
  132OSM   H18S14194   2.474   0.895   4.782  0.9412  1.6291 -0.1831
  132OSM   H18T14195   2.656   0.932   4.787  0.3758 -1.3058  1.1674
  132OSM   H18U14196   2.596   0.774   4.720 -1.2452 -0.8305  0.5472
  132OSM    C1F14197   2.497   1.477   3.053  0.1127 -0.1664  0.2806
  132OSM     OF14198   2.381   1.449   3.034  0.4043  0.4069 -0.7735
  132OSM    C2F14199   2.540   1.613   3.105 -0.4193  0.7378  0.2393
  132OSM    H2F14200   2.459   1.689   3.098 -2.3786 -1.1095  1.7031
  132OSM    H2G14201   2.615   1.649   3.031 -0.2916 -0.2118 -0.1022
  132OSM    C3F14202   2.595   1.602   3.245 -0.4615  0.2504 -0.6249
  132OSM    H3F14203   2.651   1.697   3.261  2.1834 -1.1238 -1.0371
  132OSM    H3G14204   2.681   1.532   3.259  0.2481  1.4205  1.2297
  132OSM    C4F14205   2.495   1.583   3.355  0.0974 -0.2420 -0.4033
  132OSM    H4F14206   2.423   1.506   3.320  1.4063 -1.5205 -0.4184
  132OSM    H4G14207   2.446   1.680   3.375  1.1765  0.8844 -2.8624
  132OSM    C5F14208   2.554   1.537   3.487 -0.1842  0.2974  0.8086
  132OSM    H5F14209   2.626   1.617   3.513  1.9545 -1.6804  1.2584
  132OSM    H5G14210   2.617   1.446   3.476 -2.2623 -1.0733 -0.5190
  132OSM    C6F14211   2.447   1.518   3.586  0.5722  0.7339 -0.3828
  132OSM    H6F14212   2.375   1.441   3.553 -0.1391 -0.0994  2.7427
  132OSM    H6G14213   2.384   1.609   3.595 -1.4601 -0.5843 -0.6316
  132OSM    C7F14214   2.491   1.464   3.727  0.4403 -0.5287 -0.5820
  132OSM    H7F14215   2.583   1.518   3.759  0.0020  0.2953 -0.6913
  132OSM    H7G14216   2.504   1.354   3.721  0.4000 -0.6027  0.5081
  132OSM    C8F14217   2.375   1.487   3.833  0.0061 -0.2090  0.4757
  132OSM    H8F14218   2.390   1.418   3.919  3.3709 -0.6247 -0.3293
  132OSM    H8G14219   2.286   1.461   3.772 -1.9690  2.1809  2.1447
  132OSM    C9F14220   2.351   1.626   3.880  0.1728  0.2665  0.3947
  132OSM    H9F14221   2.291   1.692   3.815 -0.9012 -1.4022 -0.3541
  132OSM   C10F14222   2.390   1.676   3.995  0.2784 -0.1012  0.1645
  132OSM   H10F14223   2.377   1.784   4.013 -2.3910 -0.3026 -0.0698
  132OSM   C11F14224   2.484   1.608   4.091 -0.3383  0.2040  0.4503
  132OSM   H11F14225   2.583   1.658   4.094  1.3129 -2.8743  2.4686
  132OSM   H11G14226   2.498   1.499   4.076 -2.5252  0.2170 -2.6094
  132OSM   C12F14227   2.428   1.622   4.230  0.1598 -0.3154  0.0094
  132OSM   H12F14228   2.323   1.591   4.212  0.2228  0.5974 -2.3173
  132OSM   H12G14229   2.428   1.727   4.266 -2.3539  0.0605 -0.8867
  132OSM   C13F14230   2.506   1.529   4.323 -0.3020 -0.1211  0.3924
  132OSM   H13F14231   2.609   1.565   4.342 -0.7091  2.8851 -2.2406
  132OSM   H13G14232   2.497   1.422   4.294  1.4904 -0.3582  0.5634
  132OSM   C14F14233   2.456   1.535   4.472  0.0495  0.9830  0.0796
  132OSM   H14F14234   2.345   1.522   4.475  0.1961 -0.2481  1.5775
  132OSM   H14G14235   2.468   1.644   4.491  0.7024  1.0608 -0.7220
  132OSM   C15F14236   2.536   1.438   4.557 -0.5980  0.3698 -0.3762
  132OSM   H15F14237   2.641   1.467   4.579  0.2919 -3.1805  0.7979
  132OSM   H15G14238   2.541   1.333   4.520  0.1835  0.1162  0.4003
  132OSM   C16F14239   2.469   1.425   4.697  0.2875 -0.1844 -0.8014
  132OSM   H16F14240   2.413   1.329   4.694 -0.4684  0.2574 -1.1228
  132OSM   H16G14241   2.406   1.515   4.716  0.9361  0.0377  0.4270
  132OSM   C17F14242   2.570   1.416   4.810  0.3971 -0.8939  0.0231
  132OSM   H17F14243   2.527   1.422   4.913  0.8389  0.2640  0.1576
  132OSM   H17G14244   2.646   1.497   4.800 -1.1997  0.9345  1.8032
  132OSM   C18F14245   2.656   1.292   4.800 -0.2394  0.3990 -0.3297
  132OSM   H18F14246   2.700   1.292   4.698 -0.5731 -1.3510 -0.5002
  132OSM   H18G14247   2.601   1.196   4.797 -0.1052  0.2821  0.6792
  132OSM   H18H14248   2.749   1.302   4.860  1.7267  1.8232 -3.3222
  133OSM      N14249   5.918   6.853   2.680 -0.2296 -0.2023  0.1457
  133OSM    C1514250   5.963   6.738   2.602 -0.0986  0.4045 -0.2407
  133OSM   H15A14251   5.889   6.701   2.533  2.1168 -0.3710 -2.3377
  133OSM   H15B14252   6.001   6.661   2.668  3.6568  1.6352 -0.7486
  133OSM   H15C14253   6.040   6.765   2.532 -0.4961 -0.9130 -1.2271
  133OSM    C1414254   5.876   6.958   2.581 -0.0731 -0.3687 -0.0329
  133OSM   H14A14255   5.869   7.054   2.630 -1.2500 -0.9786  1.0614
  133OSM   H14B14256   5.794   6.924   2.519 -0.3241  0.8424 -0.3912
  133OSM   H14C14257   5.956   6.973   2.510 -0.0134  0.7471  0.2518
  133OSM    C1314258   5.797   6.806   2.758  0.1435  0.4963  0.1216
  133OSM   H13A14259   5.752   6.896   2.796 -2.0358  0.0068 -1.1428
  133OSM   H13B14260   5.827   6.740   2.838  0.8419 -0.6296 -1.0272
  133OSM   H13C14261   5.721   6.759   2.696 -0.0743 -1.0746  1.4963
  133OSM    C1214262   6.035   6.909   2.760 -0.2986 -0.4659  0.5280
  133OSM   H12A14263   6.112   6.937   2.689  1.2010 -2.0758  1.4475
  133OSM   H12B14264   6.091   6.829   2.806  0.0732 -1.5869 -1.7291
  133OSM    C1114265   6.014   7.024   2.852 -0.7549 -0.3195  0.7018
  133OSM   H11A14266   6.102   7.027   2.920  0.1957  0.6452 -0.5207
  133OSM   H11B14267   5.926   7.010   2.918  0.3611 -0.9694  2.1161
  133OSM      P14268   6.123   7.216   2.714  0.0582 -0.0429 -0.4172
  133OSM    O1314269   6.203   7.103   2.653  0.3700  0.3746  0.0179
  133OSM    O1414270   6.076   7.326   2.623 -0.1048 -0.4707 -0.3785
  133OSM    O1114271   6.197   7.276   2.841 -0.1828  0.5915 -0.6221
  133OSM    O1214272   5.992   7.151   2.778  0.0814  0.0266 -0.3738
  133OSM    C1S14273   6.116   7.346   2.934  0.4685  0.0738  0.3981
  133OSM    H1S14274   6.109   7.275   3.019  0.0326  0.5506  0.7675
  133OSM    H1T14275   6.013   7.370   2.899  0.2282 -0.7673  0.4916
  133OSM     NF14276   6.151   7.498   3.135  0.1957 -0.0737  0.2560
  133OSM    HNF14277   6.106   7.582   3.163  1.6545  0.8457 -0.0503
  133OSM    C2S14278   6.175   7.485   2.992 -0.6323  0.0721 -0.1842
  133OSM    H2S14279   6.286   7.471   2.985 -0.9730 -2.7031 -1.9565
  133OSM    C3S14280   6.149   7.604   2.896 -0.4586  0.1201 -0.0462
  133OSM    H3S14281   6.038   7.609   2.900 -0.6932 -2.8649 -0.7183
  133OSM     O314282   6.187   7.585   2.761 -0.0018  0.0113 -0.3951
  133OSM    HO314283   6.243   7.507   2.758 -0.8982 -0.6334 -0.5742
  133OSM    C4S14284   6.210   7.734   2.946 -0.2955 -0.4235 -0.1207
  133OSM    H4S14285   6.153   7.779   3.028  1.5049  0.9566  0.4495
  133OSM    C5S14286   6.321   7.794   2.908  0.0856 -0.0352  0.4607
  133OSM    H5S14287   6.377   7.761   2.819 -0.9448  2.5385 -1.2983
  133OSM    C6S14288   6.362   7.926   2.964 -0.8015  0.4308 -0.3848
  133OSM    H6S14289   6.279   7.999   2.965 -1.9309 -0.8053 -0.3312
  133OSM    H6T14290   6.442   7.978   2.907 -0.7230 -0.0697 -0.7381
  133OSM    C7S14291   6.416   7.893   3.106  0.4701  0.7270  0.3247
  133OSM    H7S14292   6.498   7.822   3.084 -0.4700 -0.9238  1.9314
  133OSM    H7T14293   6.342   7.850   3.176  1.0608  0.7924  1.0002
  133OSM    C8S14294   6.496   8.016   3.172 -0.5123  0.1045 -0.2019
  133OSM    H8S14295   6.422   8.081   3.223 -2.2907 -3.2623  1.8640
  133OSM    H8T14296   6.537   8.083   3.094 -0.6376  0.7155  0.2557
  133OSM    C9S14297   6.607   7.967   3.262  0.2010  0.4741 -0.2580
  133OSM    H9S14298   6.645   8.059   3.311 -0.3706  1.4713 -1.6017
  133OSM    H9T14299   6.684   7.910   3.205 -0.4323  0.4801 -1.1489
  133OSM   C10S14300   6.553   7.862   3.364  0.6698 -0.3310 -0.5363
  133OSM   H10S14301   6.532   7.770   3.305 -0.0221  0.4585 -1.5397
  133OSM   H10T14302   6.456   7.893   3.407  0.5559 -0.3546 -0.7723
  133OSM   C11S14303   6.651   7.826   3.479  0.3231 -0.1697 -0.5172
  133OSM   H11S14304   6.659   7.917   3.543  1.1772 -0.5112 -0.1264
  133OSM   H11T14305   6.754   7.807   3.443  0.2584 -2.0788  0.2012
  133OSM   C12S14306   6.625   7.697   3.565 -0.3535 -0.1310 -0.0884
  133OSM   H12S14307   6.606   7.620   3.487  0.0214  0.1245 -0.4409
  133OSM   H12T14308   6.530   7.719   3.618 -0.2739  1.3668 -0.5295
  133OSM   C13S14309   6.737   7.651   3.662  0.1283 -0.7974 -0.0470
  133OSM   H13S14310   6.835   7.654   3.610 -0.0131 -0.8738 -0.3201
  133OSM   H13T14311   6.726   7.548   3.702 -0.4586 -0.2190  1.3561
  133OSM   C14S14312   6.758   7.744   3.781 -0.5577  0.3518 -0.4322
  133OSM   H14S14313   6.662   7.783   3.823  0.8127  4.6583 -0.8222
  133OSM   H14T14314   6.806   7.838   3.748 -0.4614  0.1239 -0.9600
  133OSM   C15S14315   6.839   7.679   3.898 -0.0496 -0.2748 -0.5949
  133OSM   H15S14316   6.913   7.604   3.864  1.5390  0.2733  1.4809
  133OSM   H15T14317   6.767   7.620   3.960 -1.7964  1.4106 -0.9002
  133OSM   C16S14318   6.900   7.783   3.996  0.4021 -0.8227 -0.9308
  133OSM   H16S14319   6.994   7.829   3.960 -0.5545  2.0715  0.0251
  133OSM   H16T14320   6.935   7.726   4.084  0.1280 -1.3805 -1.1739
  133OSM   C17S14321   6.817   7.895   4.042 -0.3616  0.2054  0.7608
  133OSM   H17S14322   6.718   7.860   4.080 -0.3684  0.5406  1.0602
  133OSM   H17T14323   6.811   7.970   3.960  1.1049 -0.6149 -0.1366
  133OSM   C18S14324   6.887   7.964   4.157 -0.1017 -0.1629 -0.7663
  133OSM   H18S14325   6.965   8.040   4.131  0.4152 -0.5400 -0.3326
  133OSM   H18T14326   6.939   7.892   4.223  2.6791  2.5813  0.3183
  133OSM   H18U14327   6.809   8.009   4.222 -2.7122 -1.8972 -2.5233
  133OSM    C1F14328   6.209   7.421   3.232  0.0634  0.0403 -1.3530
  133OSM     OF14329   6.286   7.332   3.206 -0.7718 -1.2658 -0.5631
  133OSM    C2F14330   6.185   7.449   3.379 -0.9253  0.1157  0.4778
  133OSM    H2F14331   6.175   7.351   3.430  2.3293 -0.1734  0.7459
  133OSM    H2G14332   6.096   7.515   3.387 -1.3129 -0.2406 -0.7268
  133OSM    C3F14333   6.304   7.529   3.434  0.0497 -0.0099  0.7064
  133OSM    H3F14334   6.327   7.617   3.370  4.1990 -1.1201  0.3571
  133OSM    H3G14335   6.397   7.469   3.423  0.4878  1.0790 -2.7379
  133OSM    C4F14336   6.286   7.573   3.576  0.1857  0.2904 -0.0883
  133OSM    H4F14337   6.379   7.611   3.622  1.7603 -4.3168  1.0519
  133OSM    H4G14338   6.234   7.500   3.641 -1.7956  1.2254 -0.5449
  133OSM    C5F14339   6.196   7.702   3.591  0.6422 -0.1627  0.4461
  133OSM    H5F14340   6.091   7.675   3.571  0.7942 -1.2319  0.9961
  133OSM    H5G14341   6.230   7.777   3.517 -0.2372 -2.2346 -2.1837
  133OSM    C6F14342   6.189   7.764   3.732  0.1752 -0.6959 -0.0982
  133OSM    H6F14343   6.291   7.800   3.754 -0.8359  2.8325 -0.5360
  133OSM    H6G14344   6.152   7.687   3.803 -0.9856 -0.2155 -0.1488
  133OSM    C7F14345   6.085   7.874   3.737  0.0823  0.0465 -0.3458
  133OSM    H7F14346   5.982   7.854   3.700 -0.3334  1.5403 -0.0834
  133OSM    H7G14347   6.123   7.958   3.676  2.4087 -0.3309  0.4915
  133OSM    C8F14348   6.062   7.914   3.884  0.4831  0.7481  0.2685
  133OSM    H8F14349   6.149   7.968   3.928  1.3849  0.1520 -0.7357
  133OSM    H8G14350   6.040   7.819   3.937 -1.1611  1.5564  1.1071
  133OSM    C9F14351   5.943   8.001   3.916  0.0295  0.7088 -0.5061
  133OSM    H9F14352   5.841   7.962   3.916 -0.3736  1.6753  0.9044
  133OSM   C10F14353   5.945   8.132   3.959  0.6182  0.2680  0.6290
  133OSM   H10F14354   5.856   8.192   3.983  1.0686  0.7086  1.2381
  133OSM   C11F14355   6.062   8.217   3.986  0.1246 -0.2137  0.8874
  133OSM   H11F14356   6.159   8.180   3.948  1.6333  0.6572  3.6158
  133OSM   H11G14357   6.082   8.239   4.093  0.6740  0.3415  0.6730
  133OSM   C12F14358   6.032   8.366   3.945 -0.0797  0.2582 -0.0261
  133OSM   H12F14359   5.952   8.416   4.004  0.5221  1.1180  0.0816
  133OSM   H12G14360   5.985   8.345   3.846 -1.2168  2.3195  0.0056
  133OSM   C13F14361   6.148   8.466   3.917 -0.1574  1.0017 -0.0831
  133OSM   H13F14362   6.216   8.416   3.845 -0.7820 -0.2800  0.1813
  133OSM   H13G14363   6.218   8.503   3.994 -0.1502  0.8807 -0.0315
  133OSM   C14F14364   6.092   8.593   3.844  0.2457  0.3497 -0.7583
  133OSM   H14F14365   6.011   8.554   3.780  1.1203 -0.2319 -1.5424
  133OSM   H14G14366   6.177   8.631   3.783 -0.8776  0.3424 -2.4013
  133OSM   C15F14367   6.044   8.706   3.947  0.2279  0.4281 -0.1701
  133OSM   H15F14368   5.950   8.676   3.998 -0.7561 -0.3099 -2.2630
  133OSM   H15G14369   6.025   8.789   3.875 -1.4527  0.8384  0.7025
  133OSM   C16F14370   6.149   8.738   4.054  0.4612 -0.4576  1.0809
  133OSM   H16F14371   6.249   8.748   4.007  0.4331  0.0047  1.1151
  133OSM   H16G14372   6.157   8.652   4.124  3.3188 -0.2127  1.1924
  133OSM   C17F14373   6.130   8.865   4.130 -0.6927  0.0688 -0.3965
  133OSM   H17F14374   6.041   8.856   4.196 -0.2636 -0.0073  0.1878
  133OSM   H17G14375   6.123   8.960   4.074  0.3162  0.4973  0.1797
  133OSM   C18F14376   6.240   8.887   4.236  0.5098  0.3884  0.6531
  133OSM   H18F14377   6.212   8.977   4.295 -0.5075  1.0891 -0.8408
  133OSM   H18G14378   6.344   8.904   4.200 -0.4840  0.6905 -2.3374
  133OSM   H18H14379   6.240   8.793   4.295 -1.6415  1.0388  1.7701
  134OSM      N14380   6.747   4.345   2.533  0.5747  0.4899  0.0584
  134OSM    C1514381   6.632   4.310   2.439  0.0704  0.2841 -0.8053
  134OSM   H15A14382   6.621   4.389   2.366 -1.5776  1.8590  1.0285
  134OSM   H15B14383   6.541   4.303   2.497  1.9775  2.4149  2.7674
  134OSM   H15C14384   6.642   4.213   2.392 -0.9959 -0.2116 -0.0674
  134OSM    C1414385   6.877   4.323   2.464 -0.6131 -0.3990 -0.5737
  134OSM   H14A14386   6.883   4.391   2.381  0.3671 -0.1255 -0.2902
  134OSM   H14B14387   6.890   4.221   2.431 -0.3719 -1.0556  1.3983
  134OSM   H14C14388   6.962   4.340   2.529 -0.4176  0.8935 -1.1512
  134OSM    C1314389   6.737   4.491   2.545 -0.2194 -0.3421  0.0830
  134OSM   H13A14390   6.814   4.526   2.612 -1.0349 -1.3455  1.5962
  134OSM   H13B14391   6.642   4.516   2.591 -1.6262  3.1472 -4.0539
  134OSM   H13C14392   6.738   4.553   2.457 -3.0872 -0.0098  0.1749
  134OSM    C1214393   6.742   4.275   2.669 -0.3145  0.0189 -0.9224
  134OSM   H12A14394   6.826   4.311   2.726 -0.6619  0.9856 -1.0024
  134OSM   H12B14395   6.751   4.169   2.654 -2.8155 -0.1838 -1.4924
  134OSM    C1114396   6.609   4.304   2.747 -0.5921  0.2470  0.3895
  134OSM   H11A14397   6.590   4.411   2.724  1.4749  0.0814 -2.6096
  134OSM   H11B14398   6.623   4.292   2.856  0.5941 -0.1490  0.2062
  134OSM      P14399   6.384   4.160   2.775 -0.4532  0.2639 -0.4648
  134OSM    O1314400   6.286   4.261   2.743  0.4357 -0.4051 -0.6805
  134OSM    O1414401   6.355   4.014   2.748  0.5488 -0.7272  0.7424
  134OSM    O1114402   6.431   4.175   2.928 -0.3831  0.5425  0.1231
  134OSM    O1214403   6.519   4.205   2.703  0.6613  0.0157  0.4470
  134OSM    C1S14404   6.327   4.185   3.029 -0.2163  0.5099 -0.0698
  134OSM    H1S14405   6.253   4.105   3.014  0.3950 -0.7791  3.0477
  134OSM    H1T14406   6.282   4.287   3.033 -0.1630  0.5332 -0.0627
  134OSM     NF14407   6.260   4.169   3.261  0.4332 -0.7597 -0.3122
  134OSM    HNF14408   6.256   4.244   3.326 -0.7001 -1.5311  0.5345
  134OSM    C2S14409   6.379   4.161   3.174 -0.0056  0.3726  0.1385
  134OSM    H2S14410   6.413   4.055   3.171  0.2681  0.4691 -1.3221
  134OSM    C3S14411   6.501   4.247   3.209 -0.8307 -0.0612  0.3614
  134OSM    H3S14412   6.479   4.355   3.217 -0.2759  0.0510  0.4213
  134OSM     O314413   6.601   4.248   3.106 -0.0262 -0.9023 -0.2430
  134OSM    HO314414   6.559   4.205   3.031  0.2197  1.6831 -1.9796
  134OSM    C4S14415   6.552   4.211   3.352  0.5400  0.0552  0.0737
  134OSM    H4S14416   6.500   4.270   3.429 -1.4117 -0.2132 -0.9533
  134OSM    C5S14417   6.636   4.110   3.393 -0.0685 -0.2810 -0.1113
  134OSM    H5S14418   6.677   4.038   3.321  0.7326  1.0166 -0.9917
  134OSM    C6S14419   6.675   4.074   3.529  0.0996 -0.4111 -1.2230
  134OSM    H6S14420   6.774   4.113   3.562 -0.5585  1.6997 -1.5495
  134OSM    H6T14421   6.668   3.967   3.558 -1.1399 -0.1431 -0.4742
  134OSM    C7S14422   6.580   4.141   3.636 -0.3997  0.9118  0.5970
  134OSM    H7S14423   6.480   4.093   3.624  0.1818 -1.0427  2.7945
  134OSM    H7T14424   6.570   4.250   3.615 -0.1302  0.8297  0.0426
  134OSM    C8S14425   6.625   4.114   3.781 -0.3431 -0.6020 -0.3106
  134OSM    H8S14426   6.727   4.158   3.786 -0.9891  1.2924 -2.2272
  134OSM    H8T14427   6.626   4.004   3.799 -0.7823 -0.9686 -2.3045
  134OSM    C9S14428   6.554   4.189   3.891  0.2959  0.0078  0.4661
  134OSM    H9S14429   6.448   4.165   3.869  1.0148 -1.6462 -1.4667
  134OSM    H9T14430   6.581   4.294   3.869  1.2897  0.1543  2.1403
  134OSM   C10S14431   6.606   4.153   4.031 -0.0397 -0.2057  1.3225
  134OSM   H10S14432   6.707   4.197   4.038 -0.0471  0.0624 -0.0288
  134OSM   H10T14433   6.621   4.043   4.038 -0.6729 -0.4501 -0.5911
  134OSM   C11S14434   6.509   4.193   4.142 -0.1663 -0.1872  0.3745
  134OSM   H11S14435   6.413   4.137   4.130 -0.7172 -0.0884  3.5438
  134OSM   H11T14436   6.483   4.300   4.128 -0.4394 -0.5545 -2.5775
  134OSM   C12S14437   6.565   4.181   4.291 -0.1359  0.2495 -0.6095
  134OSM   H12S14438   6.673   4.200   4.281  0.9179 -4.5183 -1.0407
  134OSM   H12T14439   6.551   4.077   4.329 -1.9483  0.5919 -0.2239
  134OSM   C13S14440   6.493   4.276   4.384  0.2854  0.3298 -0.3016
  134OSM   H13S14441   6.480   4.238   4.487  2.1909  0.8822  0.1843
  134OSM   H13T14442   6.391   4.287   4.341  0.8884 -0.5016 -2.0546
  134OSM   C14S14443   6.548   4.412   4.396 -0.8226  0.2386  0.1324
  134OSM   H14S14444   6.552   4.461   4.296 -1.6122  0.2989  0.1252
  134OSM   H14T14445   6.651   4.402   4.439 -0.8866 -0.8610  0.0631
  134OSM   C15S14446   6.467   4.506   4.488 -0.5048  0.5423 -0.2767
  134OSM   H15S14447   6.446   4.445   4.578  3.3577  1.6306  1.5655
  134OSM   H15T14448   6.372   4.538   4.440 -0.2754  0.4080 -0.8344
  134OSM   C16S14449   6.534   4.636   4.538  0.2864 -0.8547  0.6767
  134OSM   H16S14450   6.542   4.702   4.449 -2.5255  0.1920  1.0990
  134OSM   H16T14451   6.636   4.600   4.565  0.2711 -0.3794  1.3929
  134OSM   C17S14452   6.463   4.710   4.648 -0.5333  0.2744 -0.3393
  134OSM   H17S14453   6.353   4.698   4.643 -0.7640  1.7654  0.4581
  134OSM   H17T14454   6.482   4.818   4.634  1.0226 -0.1854 -2.3168
  134OSM   C18S14455   6.516   4.674   4.789 -0.7286  0.2739 -0.2328
  134OSM   H18S14456   6.455   4.730   4.863 -0.3253 -1.0303  1.1223
  134OSM   H18T14457   6.626   4.692   4.788 -0.2632 -2.1694 -1.4423
  134OSM   H18U14458   6.502   4.565   4.806 -1.2351  0.1870 -1.1491
  134OSM    C1F14459   6.166   4.076   3.255 -0.1581 -0.7778  0.1252
  134OSM     OF14460   6.160   3.992   3.174  0.3967  0.1484  0.1222
  134OSM    C2F14461   6.057   4.097   3.357  0.0409 -0.5309 -0.0753
  134OSM    H2F14462   6.006   4.193   3.335  2.0749  0.6393  0.0104
  134OSM    H2G14463   6.112   4.118   3.451 -0.0449  0.2330 -0.1890
  134OSM    C3F14464   5.971   3.973   3.382 -0.1153 -0.3602 -0.2932
  134OSM    H3F14465   6.019   3.900   3.450 -1.6743  0.0052  1.2709
  134OSM    H3G14466   5.951   3.924   3.284 -0.3136  0.1110 -0.4940
  134OSM    C4F14467   5.835   4.012   3.441 -0.5680  0.3077  0.1488
  134OSM    H4F14468   5.774   3.920   3.449  2.3683 -1.6287  3.9826
  134OSM    H4G14469   5.778   4.083   3.377  0.7024  0.9204 -0.3568
  134OSM    C5F14470   5.848   4.083   3.576 -0.7807 -0.3580  0.0642
  134OSM    H5F14471   5.862   4.192   3.562  1.8579 -0.4210  1.6787
  134OSM    H5G14472   5.947   4.042   3.605  0.4029 -0.8100 -3.9522
  134OSM    C6F14473   5.741   4.049   3.679  0.2618 -0.5101 -0.0445
  134OSM    H6F14474   5.757   4.102   3.775 -0.4565 -2.4834  1.2128
  134OSM    H6G14475   5.767   3.942   3.690 -1.2085 -0.7043  2.1214
  134OSM    C7F14476   5.597   4.077   3.629 -0.4151 -0.6869 -0.3354
  134OSM    H7F14477   5.588   4.036   3.526  0.0323  2.2072 -1.6245
  134OSM    H7G14478   5.572   4.185   3.619 -1.4191 -0.7101  1.5783
  134OSM    C8F14479   5.505   4.009   3.724 -0.2077 -0.3534  0.8767
  134OSM    H8F14480   5.545   3.905   3.735  0.1481 -0.5356 -1.6423
  134OSM    H8G14481   5.415   3.992   3.661 -0.2614 -2.5854  1.4507
  134OSM    C9F14482   5.487   4.087   3.853 -0.4248  0.1503 -0.0285
  134OSM    H9F14483   5.477   4.194   3.832  0.8539  0.2141 -0.3726
  134OSM   C10F14484   5.508   4.048   3.977  0.6955  0.4564  0.4271
  134OSM   H10F14485   5.501   4.125   4.054 -2.0872 -0.2008  0.9312
  134OSM   C11F14486   5.553   3.908   4.017  0.0039 -0.2122 -0.0192
  134OSM   H11F14487   5.581   3.846   3.929  3.1423  2.4838 -1.1337
  134OSM   H11G14488   5.469   3.854   4.065 -1.1260 -0.9315 -2.6182
  134OSM   C12F14489   5.679   3.917   4.102 -0.6204 -0.0777  0.3727
  134OSM   H12F14490   5.754   3.981   4.051 -2.0945 -0.2480 -2.1594
  134OSM   H12G14491   5.731   3.819   4.109 -1.7623 -0.8851 -1.6635
  134OSM   C13F14492   5.684   3.972   4.245  0.4972  0.0672 -0.5315
  134OSM   H13F14493   5.631   3.891   4.298  1.2736  0.0239  0.2089
  134OSM   H13G14494   5.610   4.052   4.265  0.9185 -0.2451  2.9614
  134OSM   C14F14495   5.814   4.016   4.295 -0.3909 -0.1862  0.1444
  134OSM   H14F14496   5.830   4.097   4.221 -0.9043 -3.0666 -3.3712
  134OSM   H14G14497   5.887   3.934   4.280  2.8898  1.8458  3.2454
  134OSM   C15F14498   5.804   4.052   4.446 -0.1160  0.1488  0.6898
  134OSM   H15F14499   5.902   4.090   4.484  0.9221  0.2465 -1.8555
  134OSM   H15G14500   5.778   3.966   4.510  2.1855 -0.7739  0.4748
  134OSM   C16F14501   5.711   4.170   4.492  0.2006  0.3262 -0.2609
  134OSM   H16F14502   5.700   4.178   4.602  0.1184 -0.4311 -0.2103
  134OSM   H16G14503   5.609   4.154   4.450  0.5288 -0.4679 -0.7881
  134OSM   C17F14504   5.777   4.300   4.441  0.8214  0.2205 -0.2249
  134OSM   H17F14505   5.884   4.290   4.416  0.9371  1.8100 -0.4583
  134OSM   H17G14506   5.782   4.368   4.528 -0.2831 -1.5398  1.2876
  134OSM   C18F14507   5.716   4.377   4.324  0.3608 -0.3642 -0.3104
  134OSM   H18F14508   5.616   4.422   4.340  0.6027 -0.4357  1.6973
  134OSM   H18G14509   5.722   4.305   4.240 -0.8754  0.1538 -0.8664
  134OSM   H18H14510   5.792   4.451   4.289  0.8484 -0.1405  1.1552
  135OSM      N14511   3.074   2.331   2.507 -0.1076  0.4532 -0.0421
  135OSM    C1514512   2.987   2.213   2.534  0.4305  0.1009 -0.0373
  135OSM   H15A14513   2.974   2.161   2.441 -0.5873  1.0012 -0.4240
  135OSM   H15B14514   2.889   2.250   2.561  0.6755  0.6007  0.1958
  135OSM   H15C14515   3.020   2.144   2.610 -1.1092  0.8903  1.4185
  135OSM    C1414516   3.211   2.280   2.461 -0.5741  0.4608  0.0074
  135OSM   H14A14517   3.272   2.367   2.442  0.3606 -0.0665  0.5417
  135OSM   H14B14518   3.205   2.213   2.376 -1.1873 -0.3886  0.6986
  135OSM   H14C14519   3.250   2.230   2.548 -0.5574 -1.2116 -0.9117
  135OSM    C1314520   3.009   2.415   2.402 -0.9545  0.7088  0.0277
  135OSM   H13A14521   3.023   2.376   2.302  0.3236  0.4394  0.2961
  135OSM   H13B14522   3.053   2.513   2.395 -1.4983  0.8413 -2.4504
  135OSM   H13C14523   2.902   2.414   2.415 -0.8127  0.0523  1.3307
  135OSM    C1214524   3.104   2.400   2.642  0.0067  0.3601 -0.2521
  135OSM   H12A14525   3.148   2.337   2.718 -0.4172  1.0083  0.5404
  135OSM   H12B14526   3.010   2.433   2.683 -0.8484 -3.0690  0.8925
  135OSM    C1114527   3.189   2.529   2.634 -0.2950 -0.0421  0.3010
  135OSM   H11A14528   3.286   2.510   2.584 -0.2000 -1.2560  0.9221
  135OSM   H11B14529   3.205   2.556   2.740 -2.1882 -1.0433  0.8877
  135OSM      P14530   3.091   2.769   2.629  0.1730  0.1376 -0.1075
  135OSM    O1314531   3.217   2.845   2.640  0.6910  0.1919  0.4415
  135OSM    O1414532   2.978   2.824   2.560  0.1782  0.1703  0.2116
  135OSM    O1114533   3.040   2.733   2.778 -0.1009 -0.5286  0.0956
  135OSM    O1214534   3.115   2.631   2.569  0.6874  0.2534 -0.0645
  135OSM    C1S14535   2.961   2.837   2.850  0.7230  0.9243  0.3908
  135OSM    H1S14536   2.860   2.817   2.808  1.4388 -1.9150 -0.1986
  135OSM    H1T14537   2.995   2.942   2.840  0.4959  1.0298  0.7097
  135OSM     NF14538   2.871   2.921   3.068  0.4987  0.3813 -0.7981
  135OSM    HNF14539   2.904   3.005   3.110 -0.8956 -0.8373  3.1674
  135OSM    C2S14540   2.960   2.820   3.009  0.1603  0.0138  0.6730
  135OSM    H2S14541   2.921   2.716   3.021 -1.3428  0.1425 -2.2089
  135OSM    C3S14542   3.104   2.840   3.056  0.3068  0.3959  0.4340
  135OSM    H3S14543   3.136   2.945   3.038 -0.4735  0.8234  1.4283
  135OSM     O314544   3.201   2.766   2.986  0.7690 -0.0642 -0.1521
  135OSM    HO314545   3.145   2.749   2.910  0.5293  0.7527 -0.1674
  135OSM    C4S14546   3.120   2.815   3.206  1.1128  0.1242  0.3194
  135OSM    H4S14547   3.087   2.900   3.267 -2.5949 -0.0075 -1.1805
  135OSM    C5S14548   3.154   2.699   3.265  1.0904 -0.0835 -0.3638
  135OSM    H5S14549   3.174   2.615   3.197  0.4843 -0.3800 -0.1854
  135OSM    C6S14550   3.169   2.668   3.413 -0.1615 -0.0874  0.5485
  135OSM    H6S14551   3.276   2.650   3.437 -0.1661 -1.4655 -0.3456
  135OSM    H6T14552   3.112   2.575   3.435  0.3120  0.1143  2.8410
  135OSM    C7S14553   3.133   2.770   3.517 -0.0140 -0.4275  0.5916
  135OSM    H7S14554   3.037   2.817   3.485  0.5230  0.4075  0.1673
  135OSM    H7T14555   3.188   2.866   3.530 -2.0905  1.0478 -0.7904
  135OSM    C8S14556   3.100   2.708   3.651 -0.6209  0.6165 -0.3304
  135OSM    H8S14557   3.194   2.656   3.679 -0.6703 -0.2602 -1.7037
  135OSM    H8T14558   3.018   2.634   3.642 -0.5535  0.2272  1.8718
  135OSM    C9S14559   3.081   2.804   3.771  0.6805 -0.4438  0.5111
  135OSM    H9S14560   2.999   2.876   3.748 -0.8227 -1.3819  2.5637
  135OSM    H9T14561   3.179   2.854   3.769  1.0970 -1.2822 -0.8808
  135OSM   C10S14562   3.058   2.728   3.902 -0.2783 -0.0652  0.5938
  135OSM   H10S14563   3.138   2.651   3.897 -0.3686 -0.0684 -1.2792
  135OSM   H10T14564   2.961   2.675   3.902 -0.5497  0.2171 -2.8905
  135OSM   C11S14565   3.058   2.826   4.023 -0.7778 -0.4648  0.0311
  135OSM   H11S14566   2.979   2.905   4.020 -0.2741  0.0142 -1.7558
  135OSM   H11T14567   3.154   2.881   4.018 -0.1206 -1.1823  3.0646
  135OSM   C12S14568   3.058   2.757   4.164 -0.2316  0.2181 -0.6424
  135OSM   H12S14569   3.141   2.684   4.176 -0.1125  0.6872  1.7662
  135OSM   H12T14570   2.969   2.694   4.184  0.0780 -0.1079 -0.2829
  135OSM   C13S14571   3.070   2.855   4.288 -0.2984  0.4591 -0.2210
  135OSM   H13S14572   3.076   2.793   4.380 -0.9804  0.9121  0.1334
  135OSM   H13T14573   2.980   2.921   4.292  0.2009  1.1729 -0.5286
  135OSM   C14S14574   3.194   2.948   4.279 -0.2886 -0.1366  0.7289
  135OSM   H14S14575   3.175   3.015   4.192 -1.1657 -1.0600  0.1854
  135OSM   H14T14576   3.287   2.889   4.269 -0.1402  0.2965 -0.6241
  135OSM   C15S14577   3.203   3.037   4.407 -0.0081  0.2688  0.2614
  135OSM   H15S14578   3.200   2.969   4.496  2.4198  0.0108  0.2101
  135OSM   H15T14579   3.110   3.094   4.427 -0.8876  0.4730 -3.6693
  135OSM   C16S14580   3.327   3.125   4.406 -0.3911  0.3215 -0.0467
  135OSM   H16S14581   3.309   3.201   4.327 -0.5502 -1.1534 -1.4895
  135OSM   H16T14582   3.417   3.062   4.386 -1.0385 -1.0320  1.1282
  135OSM   C17S14583   3.348   3.192   4.544 -0.4760  0.0125  0.6384
  135OSM   H17S14584   3.375   3.117   4.621  1.0817 -1.6624 -1.4433
  135OSM   H17T14585   3.248   3.224   4.581 -0.9454  1.6321 -1.7978
  135OSM   C18S14586   3.451   3.305   4.537  0.6090 -0.0010  0.7961
  135OSM   H18S14587   3.425   3.378   4.458 -0.1384 -0.4435  0.6265
  135OSM   H18T14588   3.554   3.278   4.507  1.6041  2.1792  1.9870
  135OSM   H18U14589   3.446   3.375   4.624  1.1305 -0.3700  1.1277
  135OSM    C1F14590   2.740   2.914   3.048  0.5824 -0.3191 -0.4637
  135OSM     OF14591   2.688   2.818   2.994 -0.4038  0.2979 -0.5563
  135OSM    C2F14592   2.658   3.036   3.082  0.7031  0.2786  0.1251
  135OSM    H2F14593   2.637   3.100   2.993  0.5299  0.0648  0.0109
  135OSM    H2G14594   2.719   3.108   3.141  1.0768  1.7635 -1.9419
  135OSM    C3F14595   2.533   3.002   3.173  0.6375  0.1331 -0.0873
  135OSM    H3F14596   2.461   2.943   3.113 -1.5702  1.7154  0.8553
  135OSM    H3G14597   2.483   3.092   3.214 -0.1206 -1.6520  3.2621
  135OSM    C4F14598   2.572   2.927   3.305 -0.1777 -0.4614 -0.2990
  135OSM    H4F14599   2.633   2.842   3.267  1.3685  0.4218  0.0942
  135OSM    H4G14600   2.480   2.898   3.359 -1.2872  0.6074 -1.5624
  135OSM    C5F14601   2.651   3.008   3.404 -0.7285 -0.2405  0.0313
  135OSM    H5F14602   2.580   3.088   3.436  0.9942  0.9598  1.0579
  135OSM    H5G14603   2.738   3.066   3.368 -1.6825  2.1233  1.2787
  135OSM    C6F14604   2.682   2.909   3.515  0.2512  0.4111 -0.1215
  135OSM    H6F14605   2.760   2.833   3.492 -1.8874 -1.8256 -0.5071
  135OSM    H6G14606   2.595   2.843   3.538  3.5362 -5.0267 -1.4626
  135OSM    C7F14607   2.721   2.983   3.645  1.4525  0.5203 -0.1456
  135OSM    H7F14608   2.804   3.054   3.630  3.1094 -0.7176  2.3987
  135OSM    H7G14609   2.760   2.911   3.720  0.1676  2.0268  2.0600
  135OSM    C8F14610   2.593   3.051   3.714  0.1976 -0.4512  0.5131
  135OSM    H8F14611   2.563   3.129   3.641  0.5618 -0.6443  0.1570
  135OSM    H8G14612   2.634   3.098   3.806  3.0442 -0.7333 -0.5233
  135OSM    C9F14613   2.485   2.952   3.757 -0.8484 -0.5526  0.6358
  135OSM    H9F14614   2.422   2.923   3.671 -0.7904  0.5928  0.1941
  135OSM   C10F14615   2.458   2.899   3.874 -0.5649  0.1919  0.2069
  135OSM   H10F14616   2.394   2.809   3.875 -1.1742  0.6230  0.1049
  135OSM   C11F14617   2.520   2.908   4.013  0.2653  0.0489  0.2635
  135OSM   H11F14618   2.481   2.840   4.091  3.5806 -1.7022  0.5966
  135OSM   H11G14619   2.494   3.008   4.053  1.7273  1.4384 -1.9951
  135OSM   C12F14620   2.670   2.913   4.030  0.8410  0.8051  0.0999
  135OSM   H12F14621   2.721   2.966   3.946  0.5676 -0.1855 -0.7095
  135OSM   H12G14622   2.705   2.808   4.041 -1.3141 -0.0026 -0.1815
  135OSM   C13F14623   2.711   2.999   4.151 -0.1100  0.5434 -0.2270
  135OSM   H13F14624   2.664   3.100   4.150 -0.3010  0.7008  4.3215
  135OSM   H13G14625   2.822   3.013   4.150 -0.1000  0.5370 -1.9690
  135OSM   C14F14626   2.666   2.944   4.285  0.1588  0.2478 -0.5010
  135OSM   H14F14627   2.711   2.846   4.312 -0.1495  1.0290  3.2711
  135OSM   H14G14628   2.555   2.939   4.284  0.1327 -0.6077  1.8526
  135OSM   C15F14629   2.707   3.036   4.402 -0.3983  0.3556  0.5285
  135OSM   H15F14630   2.664   3.138   4.390 -0.7988  0.1709  0.3917
  135OSM   H15G14631   2.817   3.046   4.390 -0.5428  0.7493 -0.4864
  135OSM   C16F14632   2.675   2.980   4.537  0.1307 -0.5361 -0.6794
  135OSM   H16F14633   2.711   2.875   4.544  0.8933 -0.2713 -0.4870
  135OSM   H16G14634   2.565   2.967   4.541 -0.0384  0.9742  0.4622
  135OSM   C17F14635   2.718   3.085   4.639 -0.8274 -0.1177  0.1477
  135OSM   H17F14636   2.691   3.053   4.742  0.6892  0.9883  0.9299
  135OSM   H17G14637   2.674   3.184   4.614 -0.7078  0.2843  1.4159
  135OSM   C18F14638   2.875   3.112   4.644 -0.4036  0.6917 -0.2796
  135OSM   H18F14639   2.895   3.165   4.739 -0.0622  1.4735 -0.7771
  135OSM   H18G14640   2.925   3.166   4.561  0.3666  2.5723  1.3346
  135OSM   H18H14641   2.920   3.011   4.647  0.0886  0.9362  1.0020
  136OSM      N14642   2.517   4.390   2.820  0.2418 -0.0575 -0.7173
  136OSM    C1514643   2.592   4.478   2.727 -0.3547  0.8522  0.3728
  136OSM   H15A14644   2.689   4.485   2.775 -1.7018 -0.9868  3.7507
  136OSM   H15B14645   2.548   4.577   2.722  0.1876  1.0356 -1.3157
  136OSM   H15C14646   2.593   4.444   2.625  2.3249 -1.6163  1.0905
  136OSM    C1414647   2.484   4.466   2.945  0.0743  0.7169  0.6194
  136OSM   H14A14648   2.416   4.542   2.909  1.3368  1.8012  0.4744
  136OSM   H14B14649   2.570   4.498   3.002  0.8200 -2.0126  1.1558
  136OSM   H14C14650   2.423   4.403   3.008  0.7527 -0.8708 -0.2670
  136OSM    C1314651   2.390   4.348   2.747  0.7548  0.4886  0.8004
  136OSM   H13A14652   2.334   4.285   2.814  1.2198 -0.7547  0.0654
  136OSM   H13B14653   2.407   4.294   2.654 -1.6539  1.8386 -0.5154
  136OSM   H13C14654   2.332   4.433   2.712 -1.8273 -1.4891 -0.0280
  136OSM    C1214655   2.599   4.263   2.855 -0.7647  0.4123  0.3162
  136OSM   H12A14656   2.630   4.217   2.762 -1.5221  0.8804 -0.1825
  136OSM   H12B14657   2.528   4.187   2.883  1.1243 -2.8392 -2.8025
  136OSM    C1114658   2.714   4.286   2.954 -0.2207  0.3325  0.6651
  136OSM   H11A14659   2.766   4.193   2.986  0.7689  0.6184 -0.0528
  136OSM   H11B14660   2.662   4.306   3.050 -0.7330 -0.3003  0.5229
  136OSM      P14661   2.838   4.521   2.977 -0.2606 -0.3180  0.2087
  136OSM    O1314662   2.986   4.545   3.000 -0.0353  0.8023  0.3140
  136OSM    O1414663   2.763   4.623   2.899 -0.0715  0.2704 -0.6941
  136OSM    O1114664   2.773   4.513   3.118 -0.3302 -0.1170 -0.1495
  136OSM    O1214665   2.817   4.375   2.910 -0.1965 -0.2645 -0.1745
  136OSM    C1S14666   2.725   4.629   3.192  0.6448 -0.2960 -0.0061
  136OSM    H1S14667   2.621   4.652   3.159  1.3844 -0.2550 -2.4893
  136OSM    H1T14668   2.771   4.726   3.163  1.6195 -0.8296 -0.2750
  136OSM     NF14669   2.668   4.732   3.424 -0.2511 -0.6687  0.3255
  136OSM    HNF14670   2.728   4.808   3.448  1.1628 -0.9367 -2.0646
  136OSM    C2S14671   2.737   4.619   3.350  0.5342 -0.8248 -0.5410
  136OSM    H2S14672   2.683   4.528   3.384 -0.1135  0.9572  3.9663
  136OSM    C3S14673   2.883   4.597   3.402  0.5985 -0.1193  0.3388
  136OSM    H3S14674   2.945   4.687   3.388  1.3400 -0.9459 -2.1929
  136OSM     O314675   2.959   4.500   3.333 -0.4996 -0.1266 -0.1304
  136OSM    HO314676   2.917   4.498   3.247  0.0413 -0.9485 -0.3918
  136OSM    C4S14677   2.891   4.557   3.548  0.4508 -0.5720 -0.1654
  136OSM    H4S14678   2.850   4.459   3.575 -0.7453 -0.3312 -0.9806
  136OSM    C5S14679   2.938   4.644   3.641  0.5050  0.3139  0.2208
  136OSM    H5S14680   2.961   4.747   3.613 -1.4562  0.6646 -0.2110
  136OSM    C6S14681   2.926   4.618   3.791  0.3097 -0.4068  0.5779
  136OSM    H6S14682   3.017   4.644   3.848 -1.0813  1.2788  2.1419
  136OSM    H6T14683   2.896   4.512   3.809 -0.4062  0.1139  2.6388
  136OSM    C7S14684   2.805   4.699   3.842 -0.0999  0.0999  0.3077
  136OSM    H7S14685   2.720   4.681   3.772 -0.4650 -3.8597  1.4771
  136OSM    H7T14686   2.827   4.807   3.829  0.9626  0.0884  1.7377
  136OSM    C8S14687   2.772   4.660   3.986  0.0066 -0.0629  0.1880
  136OSM    H8S14688   2.771   4.549   3.988 -0.9106 -0.0885 -0.7961
  136OSM    H8T14689   2.670   4.702   4.004  0.7696  1.6259  0.8235
  136OSM    C9S14690   2.855   4.725   4.090  0.4365  0.2645  0.2384
  136OSM    H9S14691   2.956   4.690   4.059 -0.0307  0.8480 -2.1379
  136OSM    H9T14692   2.834   4.693   4.194 -1.3303  2.1127  0.5030
  136OSM   C10S14693   2.845   4.877   4.087 -0.0793  0.4494 -0.1785
  136OSM   H10S14694   2.744   4.910   4.119 -0.4472  0.1837 -1.0414
  136OSM   H10T14695   2.864   4.912   3.983  0.5828 -1.8282 -0.8786
  136OSM   C11S14696   2.943   4.947   4.185 -0.1242  0.4046 -0.6059
  136OSM   H11S14697   3.049   4.938   4.152  0.4053 -0.5956  1.1932
  136OSM   H11T14698   2.945   4.887   4.279 -1.6298  1.0211 -0.1583
  136OSM   C12S14699   2.903   5.089   4.234  0.0137  0.0297 -0.0594
  136OSM   H12S14700   2.968   5.123   4.317  0.0635 -0.8688  0.2785
  136OSM   H12T14701   2.798   5.085   4.269  0.1172  2.0168  0.6048
  136OSM   C13S14702   2.901   5.205   4.118  0.1389 -0.6005 -0.6153
  136OSM   H13S14703   2.859   5.154   4.029 -1.7840  0.0409 -0.1221
  136OSM   H13T14704   3.002   5.243   4.089  0.4947 -1.1414 -0.0907
  136OSM   C14S14705   2.812   5.322   4.160 -0.1863 -0.1143 -0.6569
  136OSM   H14S14706   2.718   5.278   4.199  0.9360 -1.6242  0.4826
  136OSM   H14T14707   2.780   5.385   4.074 -1.2201  1.1283  0.5874
  136OSM   C15S14708   2.875   5.406   4.283  0.4288 -0.6563 -0.4304
  136OSM   H15S14709   2.914   5.336   4.360 -0.5394 -0.2602  0.4406
  136OSM   H15T14710   2.797   5.473   4.325  3.0881  1.8466  0.8355
  136OSM   C16S14711   2.985   5.506   4.244  0.6287  0.0011 -0.3899
  136OSM   H16S14712   2.950   5.575   4.165  0.8140  1.1842  0.5188
  136OSM   H16T14713   3.067   5.451   4.194 -0.0051 -0.2571 -1.1562
  136OSM   C17S14714   3.029   5.590   4.369 -0.5020  0.2093  0.2684
  136OSM   H17S14715   3.036   5.521   4.456  2.4461  0.2016  0.1129
  136OSM   H17T14716   2.934   5.647   4.384 -1.3317 -1.1153  0.2109
  136OSM   C18S14717   3.148   5.680   4.361  0.3899 -0.3192 -0.6682
  136OSM   H18S14718   3.239   5.628   4.397  0.9149  1.8423  1.3716
  136OSM   H18T14719   3.148   5.768   4.429 -0.7356 -1.3894  0.7861
  136OSM   H18U14720   3.166   5.706   4.255 -0.0805 -1.6437 -1.1011
  136OSM    C1F14721   2.535   4.745   3.398  0.1411  0.2214  0.0566
  136OSM     OF14722   2.471   4.648   3.367 -0.8039  1.1605 -0.3075
  136OSM    C2F14723   2.468   4.882   3.400  0.2300  0.3680  0.0330
  136OSM    H2F14724   2.359   4.881   3.419  0.2676  5.6119  2.0815
  136OSM    H2G14725   2.468   4.924   3.297  1.3625  0.0661 -0.1025
  136OSM    C3F14726   2.525   4.983   3.496  0.1147 -0.0250  0.0620
  136OSM    H3F14727   2.479   5.082   3.476 -0.4290 -0.5990 -1.8282
  136OSM    H3G14728   2.632   5.007   3.474 -0.3681  1.5288 -0.7582
  136OSM    C4F14729   2.509   4.948   3.644  0.3012 -0.0543 -0.3950
  136OSM    H4F14730   2.555   4.852   3.674  3.0023  1.8789  2.2150
  136OSM    H4G14731   2.399   4.937   3.662  0.2542  0.6015 -0.2710
  136OSM    C5F14732   2.581   5.052   3.724 -0.1663  0.4855 -0.0489
  136OSM    H5F14733   2.536   5.151   3.701 -2.0176 -0.4668 -0.7687
  136OSM    H5G14734   2.688   5.064   3.700 -0.3453  1.3286 -0.4507
  136OSM    C6F14735   2.575   5.025   3.878 -0.3603  0.4773 -0.0807
  136OSM    H6F14736   2.639   5.107   3.916  1.2269 -1.1241  0.8987
  136OSM    H6G14737   2.619   4.926   3.906  1.8492  1.4389  0.0970
  136OSM    C7F14738   2.428   5.045   3.929 -0.0414 -0.2001 -0.0597
  136OSM    H7F14739   2.364   4.973   3.875  1.2781 -0.6955 -1.0007
  136OSM    H7G14740   2.420   5.153   3.904  3.5775  0.2023  0.0126
  136OSM    C8F14741   2.426   5.024   4.082  0.5100  0.5212  0.0082
  136OSM    H8F14742   2.491   5.102   4.126 -0.3192  0.7954  0.7708
  136OSM    H8G14743   2.465   4.922   4.101 -1.9065 -0.4764 -0.0467
  136OSM    C9F14744   2.286   5.031   4.138  0.1621  0.1234 -0.1503
  136OSM    H9F14745   2.226   4.940   4.123 -0.5123  0.4296  0.5798
  136OSM   C10F14746   2.245   5.115   4.237 -0.5624 -0.7947  0.5055
  136OSM   H10F14747   2.136   5.105   4.254 -0.6619  0.7490  0.8961
  136OSM   C11F14748   2.320   5.231   4.300  0.4502 -0.3473  0.0477
  136OSM   H11F14749   2.239   5.298   4.336  0.9724  2.5574 -3.5346
  136OSM   H11G14750   2.374   5.289   4.222  0.4666 -0.3361  0.0676
  136OSM   C12F14751   2.428   5.211   4.404 -0.4369 -0.4374 -0.4682
  136OSM   H12F14752   2.517   5.156   4.366  0.1540  1.1020 -1.4018
  136OSM   H12G14753   2.393   5.144   4.486 -2.5489  3.0801  1.7902
  136OSM   C13F14754   2.479   5.350   4.463  0.1466  1.2346  0.3456
  136OSM   H13F14755   2.392   5.395   4.515  0.0418  0.2703  1.0326
  136OSM   H13G14756   2.503   5.418   4.378  2.0206  0.6497  0.3536
  136OSM   C14F14757   2.593   5.348   4.565 -0.0837  0.0150  0.2338
  136OSM   H14F14758   2.684   5.296   4.528 -0.2614 -1.0971  1.2959
  136OSM   H14G14759   2.563   5.301   4.661 -0.6144  0.7355  0.4313
  136OSM   C15F14760   2.641   5.490   4.604  1.1651  0.3829 -0.4437
  136OSM   H15F14761   2.557   5.562   4.618  1.0316 -0.0813  1.5313
  136OSM   H15G14762   2.698   5.527   4.516  0.3121 -0.6113 -1.4486
  136OSM   C16F14763   2.724   5.498   4.729  0.0376 -0.0377 -0.5700
  136OSM   H16F14764   2.826   5.455   4.720 -0.1860 -1.7459  3.2970
  136OSM   H16G14765   2.663   5.459   4.813  0.5560  1.2327  0.4214
  136OSM   C17F14766   2.740   5.645   4.788  0.2158 -0.1587  0.6443
  136OSM   H17F14767   2.803   5.642   4.879  2.0591  0.6016 -0.5670
  136OSM   H17G14768   2.640   5.680   4.821  0.9697  2.4791  0.3205
  136OSM   C18F14769   2.806   5.742   4.694  0.1608 -0.7035  0.4419
  136OSM   H18F14770   2.897   5.696   4.649 -0.4147  3.2392 -6.1096
  136OSM   H18G14771   2.831   5.837   4.745 -0.0581 -1.9057  2.9404
  136OSM   H18H14772   2.736   5.759   4.609 -0.3172 -0.5118  0.8702
  137OSM      N14773   6.489   5.768   2.606 -0.2031 -0.3918  0.1030
  137OSM    C1514774   6.391   5.769   2.497 -0.0521 -0.6285  1.2852
  137OSM   H15A14775   6.346   5.864   2.473  1.6047 -0.7034 -2.9173
  137OSM   H15B14776   6.315   5.696   2.523 -0.5710 -1.1397 -1.4352
  137OSM   H15C14777   6.444   5.748   2.406 -1.1533 -1.6377  0.8568
  137OSM    C1414778   6.596   5.863   2.568 -0.2876 -0.7239  0.0377
  137OSM   H14A14779   6.636   5.845   2.469  3.9692 -0.5149  1.5162
  137OSM   H14B14780   6.679   5.868   2.637  0.7548  0.9356 -1.2685
  137OSM   H14C14781   6.554   5.962   2.561 -1.6904 -1.2559  0.6084
  137OSM    C1314782   6.432   5.821   2.736  0.2767  0.4201  0.0547
  137OSM   H13A14783   6.424   5.928   2.738 -0.1905  0.4523 -1.6798
  137OSM   H13B14784   6.501   5.796   2.816 -0.6853 -0.1930  0.7146
  137OSM   H13C14785   6.335   5.776   2.748  0.5570 -0.8721 -1.9599
  137OSM    C1214786   6.540   5.620   2.611 -0.1327 -1.3093 -0.6289
  137OSM   H12A14787   6.638   5.625   2.656 -0.7740 -0.5952  0.7553
  137OSM   H12B14788   6.560   5.591   2.509 -0.1430  0.7008 -1.2440
  137OSM    C1114789   6.469   5.514   2.694  0.0025  0.1472 -0.0687
  137OSM   H11A14790   6.471   5.539   2.803 -0.4142 -2.0277  0.4928
  137OSM   H11B14791   6.532   5.423   2.682  0.3373  0.1255  1.5577
  137OSM      P14792   6.241   5.373   2.676  0.4877  0.4271 -0.3462
  137OSM    O1314793   6.103   5.404   2.626  0.0152  0.0378  0.1443
  137OSM    O1414794   6.287   5.238   2.636 -0.8601 -0.1970 -0.3667
  137OSM    O1114795   6.243   5.376   2.838  0.0347 -0.2614  0.2642
  137OSM    O1214796   6.343   5.491   2.637  0.2657 -0.0960 -0.3768
  137OSM    C1S14797   6.162   5.487   2.899 -0.1690  0.0717 -0.1104
  137OSM    H1S14798   6.057   5.467   2.868 -1.1700  1.2248  2.2965
  137OSM    H1T14799   6.195   5.587   2.863 -0.7988  0.4357  0.2896
  137OSM     NF14800   6.079   5.593   3.111  0.1462  0.0078 -0.7524
  137OSM    HNF14801   6.099   5.689   3.129 -0.1193 -0.1607  0.5239
  137OSM    C2S14802   6.172   5.498   3.059 -0.9298 -0.7214  0.2318
  137OSM    H2S14803   6.155   5.402   3.112  0.8037  0.1270  2.4911
  137OSM    C3S14804   6.323   5.525   3.094  0.0462 -0.3981 -0.7258
  137OSM    H3S14805   6.357   5.620   3.045  0.2592 -2.2445 -4.5347
  137OSM     O314806   6.426   5.444   3.035 -0.2222  0.1197 -0.5574
  137OSM    HO314807   6.376   5.396   2.968  1.3792 -1.5023 -0.6665
  137OSM    C4S14808   6.337   5.523   3.243  0.2945  0.8192 -0.4663
  137OSM    H4S14809   6.336   5.626   3.281  0.8289  0.5504  0.3048
  137OSM    C5S14810   6.356   5.422   3.329  0.4067  0.1469 -0.1653
  137OSM    H5S14811   6.362   5.317   3.297 -2.6346 -0.7749  1.8737
  137OSM    C6S14812   6.380   5.439   3.483  0.3424  0.6501  0.0992
  137OSM    H6S14813   6.490   5.438   3.504  0.1527  0.5189  1.1660
  137OSM    H6T14814   6.336   5.359   3.547  1.7669 -0.0981  0.1934
  137OSM    C7S14815   6.330   5.574   3.545 -0.0406  0.6744  0.3545
  137OSM    H7S14816   6.223   5.573   3.516  0.1832 -0.6029 -0.5245
  137OSM    H7T14817   6.384   5.662   3.503  1.0451  1.1382  2.5808
  137OSM    C8S14818   6.322   5.588   3.700  0.3664  0.1799  0.0198
  137OSM    H8S14819   6.245   5.526   3.750  1.2494  0.4802  1.8133
  137OSM    H8T14820   6.302   5.696   3.717  1.7939  0.2811  1.2510
  137OSM    C9S14821   6.455   5.557   3.779  0.2357 -0.2352 -0.4332
  137OSM    H9S14822   6.540   5.616   3.740  1.9823  0.0638  3.4024
  137OSM    H9T14823   6.471   5.447   3.768 -2.1100 -0.8274  1.2689
  137OSM   C10S14824   6.437   5.595   3.922  0.5068 -0.4451 -0.3904
  137OSM   H10S14825   6.365   5.526   3.970  0.3981  0.9419  1.6043
  137OSM   H10T14826   6.392   5.697   3.924 -0.1173 -0.6399  3.4520
  137OSM   C11S14827   6.563   5.589   4.006 -0.0384 -0.4610  0.0785
  137OSM   H11S14828   6.610   5.689   4.002 -1.6196  0.2804 -0.4645
  137OSM   H11T14829   6.630   5.508   3.971 -0.4653  0.5578 -3.4609
  137OSM   C12S14830   6.550   5.554   4.152  0.2264  0.3456 -0.2519
  137OSM   H12S14831   6.653   5.554   4.193 -0.1405 -0.4541  0.7030
  137OSM   H12T14832   6.521   5.448   4.166  1.0408  0.0789 -0.5735
  137OSM   C13S14833   6.465   5.651   4.237  0.4985 -0.1511 -0.1321
  137OSM   H13S14834   6.363   5.658   4.192 -0.1069  0.4872  1.2957
  137OSM   H13T14835   6.520   5.747   4.226 -1.1317  0.8319 -0.0637
  137OSM   C14S14836   6.450   5.591   4.379 -0.0316 -0.5710 -0.2281
  137OSM   H14S14837   6.542   5.541   4.417 -0.6156 -1.0141  0.6443
  137OSM   H14T14838   6.363   5.522   4.388  1.5365 -2.5380  0.5028
  137OSM   C15S14839   6.420   5.707   4.474 -0.6004 -0.4646  0.3475
  137OSM   H15S14840   6.337   5.770   4.435 -0.0681 -0.9610 -1.7484
  137OSM   H15T14841   6.502   5.782   4.465 -1.4637  0.4773  0.1073
  137OSM   C16S14842   6.398   5.666   4.619  0.0362  0.2810  0.3287
  137OSM   H16S14843   6.488   5.609   4.650  0.6219 -0.3719 -2.3017
  137OSM   H16T14844   6.313   5.595   4.626 -0.1116  0.3133 -0.9343
  137OSM   C17S14845   6.396   5.771   4.722 -0.1227  0.0219  0.9044
  137OSM   H17S14846   6.313   5.838   4.693  0.8032 -0.0946 -2.4086
  137OSM   H17T14847   6.488   5.829   4.701 -0.5279  0.0566 -0.9554
  137OSM   C18S14848   6.378   5.715   4.864 -0.5756  0.7541 -0.3622
  137OSM   H18S14849   6.383   5.795   4.942 -2.5953  0.6166 -0.0139
  137OSM   H18T14850   6.454   5.637   4.884 -0.7619  1.0303  1.6146
  137OSM   H18U14851   6.277   5.673   4.884 -0.0801 -0.0573  0.5330
  137OSM    C1F14852   5.949   5.561   3.117 -0.5807  0.1696  1.0486
  137OSM     OF14853   5.906   5.452   3.069  0.1450 -0.6893  0.3988
  137OSM    C2F14854   5.859   5.659   3.173  0.5370 -0.7018 -0.3537
  137OSM    H2F14855   5.871   5.755   3.118 -0.7437 -0.1222  0.3121
  137OSM    H2G14856   5.883   5.675   3.280 -3.4272 -0.5256  0.6951
  137OSM    C3F14857   5.708   5.622   3.169 -0.3127  0.4383  0.2155
  137OSM    H3F14858   5.696   5.567   3.073 -0.3158  1.1771 -0.2156
  137OSM    H3G14859   5.647   5.715   3.169 -0.1054  0.5874 -0.9758
  137OSM    C4F14860   5.646   5.529   3.284 -0.6596 -0.6867 -0.1058
  137OSM    H4F14861   5.721   5.456   3.321  0.6209 -0.0315 -1.3014
  137OSM    H4G14862   5.566   5.475   3.229 -0.0204 -1.6766 -0.0810
  137OSM    C5F14863   5.583   5.602   3.403  0.0165  0.1277 -0.4935
  137OSM    H5F14864   5.511   5.663   3.344  0.6881  1.8037  0.3671
  137OSM    H5G14865   5.658   5.668   3.451 -1.1611  0.1564  1.3989
  137OSM    C6F14866   5.535   5.496   3.504  0.4678  0.6390  0.4932
  137OSM    H6F14867   5.605   5.421   3.546 -1.1237 -1.6519 -0.7582
  137OSM    H6G14868   5.465   5.447   3.434  1.6765 -0.1793 -0.1805
  137OSM    C7F14869   5.446   5.552   3.621 -0.2704  0.5558  0.2946
  137OSM    H7F14870   5.379   5.631   3.581  1.2989  2.6898  1.7049
  137OSM    H7G14871   5.512   5.604   3.692  0.7844 -0.5422  0.1455
  137OSM    C8F14872   5.368   5.435   3.678 -0.3307  0.1293  0.0443
  137OSM    H8F14873   5.435   5.347   3.677  0.3776  0.6531  0.5380
  137OSM    H8G14874   5.275   5.413   3.622 -0.1751  0.4820 -0.3572
  137OSM    C9F14875   5.323   5.475   3.818 -0.3553  0.3163 -0.7661
  137OSM    H9F14876   5.241   5.548   3.819  0.9570  1.8474  0.6239
  137OSM   C10F14877   5.360   5.413   3.935 -0.0966 -0.2379  0.9508
  137OSM   H10F14878   5.321   5.461   4.026  0.0904 -0.1642  0.9917
  137OSM   C11F14879   5.449   5.295   3.954  0.5926  0.3324  0.2793
  137OSM   H11F14880   5.492   5.257   3.859  0.3980 -0.6517  0.5656
  137OSM   H11G14881   5.389   5.216   4.004  0.0199  0.3365 -0.3870
  137OSM   C12F14882   5.560   5.336   4.045 -0.3536  0.2634 -0.2889
  137OSM   H12F14883   5.601   5.436   4.018  3.8821 -0.6213  2.0036
  137OSM   H12G14884   5.639   5.258   4.049 -2.4122 -1.8913  1.1730
  137OSM   C13F14885   5.512   5.354   4.191 -0.5229 -0.3095  0.5002
  137OSM   H13F14886   5.446   5.273   4.231 -1.0036  0.4576  1.3070
  137OSM   H13G14887   5.448   5.444   4.201  0.3052  0.8175 -2.9249
  137OSM   C14F14888   5.630   5.361   4.279 -0.0720 -0.4051 -0.4186
  137OSM   H14F14889   5.701   5.444   4.260 -0.1631 -0.4565 -1.0052
  137OSM   H14G14890   5.689   5.268   4.269  1.4750  0.5440 -0.3866
  137OSM   C15F14891   5.572   5.357   4.419  0.0127 -0.4641 -0.0681
  137OSM   H15F14892   5.511   5.266   4.435  2.1634 -2.1662 -0.9757
  137OSM   H15G14893   5.521   5.454   4.434  1.4940  0.8974 -3.1151
  137OSM   C16F14894   5.688   5.339   4.530  0.2421 -0.0098 -0.7108
  137OSM   H16F14895   5.777   5.399   4.501  1.5778 -1.5093  0.1146
  137OSM   H16G14896   5.728   5.235   4.522 -0.2942 -0.1626 -1.5807
  137OSM   C17F14897   5.637   5.379   4.670 -0.7399  0.2359 -0.5072
  137OSM   H17F14898   5.549   5.317   4.697 -1.3246  1.4100  0.3757
  137OSM   H17G14899   5.611   5.487   4.661  2.3046  1.2903  1.9147
  137OSM   C18F14900   5.743   5.356   4.778 -0.6348 -0.2276 -0.8167
  137OSM   H18F14901   5.821   5.435   4.787  0.1397 -1.0929  0.2242
  137OSM   H18G14902   5.790   5.256   4.773 -0.1976 -0.0552 -0.2918
  137OSM   H18H14903   5.681   5.366   4.870 -1.2299  0.3954 -1.2682
  138OSM      N14904   0.618   6.705   2.424 -0.1059 -0.1644 -0.0292
  138OSM    C1514905   0.586   6.812   2.331 -0.3365 -0.6970  0.3398
  138OSM   H15A14906   0.492   6.861   2.351  0.0982  0.0674  0.5572
  138OSM   H15B14907   0.585   6.763   2.235  3.4583 -0.5600  0.0711
  138OSM   H15C14908   0.662   6.888   2.324 -1.0109  0.0681  0.9943
  138OSM    C1414909   0.500   6.607   2.417  0.6617 -0.9810  0.9689
  138OSM   H14A14910   0.496   6.554   2.324 -2.0786 -1.8218  1.4877
  138OSM   H14B14911   0.406   6.658   2.429  1.8850  2.4895 -2.1535
  138OSM   H14C14912   0.506   6.523   2.485 -4.3349  0.1515  3.2380
  138OSM    C1314913   0.747   6.642   2.375 -1.0213 -0.1010 -0.1298
  138OSM   H13A14914   0.732   6.573   2.293 -2.2375 -1.3246  1.0830
  138OSM   H13B14915   0.784   6.582   2.457 -2.0461  2.2375  2.1858
  138OSM   H13C14916   0.823   6.713   2.344 -0.4131 -1.5810 -2.2493
  138OSM    C1214917   0.633   6.757   2.564  0.1133  0.7128 -0.4572
  138OSM   H12A14918   0.709   6.833   2.565 -0.6563  1.6538 -3.3253
  138OSM   H12B14919   0.662   6.672   2.623 -2.4052  1.4776  2.1037
  138OSM    C1114920   0.512   6.833   2.624 -0.1441 -0.5988  0.2325
  138OSM   H11A14921   0.530   6.848   2.733 -0.0471  1.9531 -0.0764
  138OSM   H11B14922   0.425   6.769   2.596 -0.1172 -0.7393  0.4647
  138OSM      P14923   0.371   7.034   2.537 -0.0509 -0.1852  0.0431
  138OSM    O1314924   0.384   7.131   2.422 -0.1634 -0.1049 -0.0865
  138OSM    O1414925   0.263   6.935   2.531 -0.0531 -0.4200  0.4298
  138OSM    O1114926   0.344   7.117   2.666 -0.8297 -0.4380  0.2589
  138OSM    O1214927   0.505   6.964   2.565 -0.1007 -0.1903  0.4275
  138OSM    C1S14928   0.262   7.082   2.780 -0.4522 -0.4135 -0.1516
  138OSM    H1S14929   0.206   6.987   2.770  0.6979 -1.2836  1.2580
  138OSM    H1T14930   0.186   7.163   2.779  0.0883  0.0966 -0.4919
  138OSM     NF14931   0.276   7.032   3.020 -0.0848 -0.4984  0.0645
  138OSM    HNF14932   0.235   7.105   3.073 -2.4776 -1.1691 -0.6933
  138OSM    C2S14933   0.358   7.074   2.910  0.2166 -0.5005  0.7168
  138OSM    H2S14934   0.427   6.991   2.887  0.1764 -0.3656  0.0740
  138OSM    C3S14935   0.436   7.209   2.927  0.1746  0.2412 -0.2879
  138OSM    H3S14936   0.357   7.285   2.943 -0.5660 -0.7936  1.3098
  138OSM     O314937   0.507   7.258   2.817  0.2310  0.4702  0.3013
  138OSM    HO314938   0.451   7.228   2.745  0.2691  0.8144  0.1278
  138OSM    C4S14939   0.508   7.199   3.058  0.2070  0.0647  0.9307
  138OSM    H4S14940   0.442   7.235   3.137 -0.0514  1.6596  0.0187
  138OSM    C5S14941   0.631   7.154   3.093 -0.0950  0.5852  0.8232
  138OSM    H5S14942   0.699   7.128   3.011 -0.3737  1.7330  0.1875
  138OSM    C6S14943   0.690   7.128   3.227 -0.2844 -0.5430 -0.3376
  138OSM    H6S14944   0.773   7.200   3.244 -0.6238 -0.0381 -0.7823
  138OSM    H6T14945   0.747   7.033   3.224  2.9482  1.2521  0.2636
  138OSM    C7S14946   0.593   7.134   3.345 -0.0835  0.1565  0.4041
  138OSM    H7S14947   0.507   7.067   3.327  0.8916 -0.6548 -1.4554
  138OSM    H7T14948   0.557   7.238   3.361 -2.4631 -0.4850 -0.3501
  138OSM    C8S14949   0.661   7.103   3.483  0.7484  0.3885  0.1205
  138OSM    H8S14950   0.755   7.162   3.490  0.5894  0.8170 -1.0937
  138OSM    H8T14951   0.685   6.997   3.503  0.6448  0.7354  2.3712
  138OSM    C9S14952   0.573   7.142   3.601  0.0944  0.1949  0.0051
  138OSM    H9S14953   0.490   7.069   3.612  0.3223  0.2011  2.2649
  138OSM    H9T14954   0.526   7.240   3.577  1.9917  1.1579  0.0326
  138OSM   C10S14955   0.647   7.155   3.730  0.1501 -0.5458 -0.4709
  138OSM   H10S14956   0.733   7.219   3.702  0.7677 -1.6658 -1.2146
  138OSM   H10T14957   0.689   7.056   3.759  0.2759 -0.6229 -0.9077
  138OSM   C11S14958   0.568   7.214   3.844  0.0714  0.4452  0.8104
  138OSM   H11S14959   0.479   7.151   3.865  0.0137  0.4032  0.4605
  138OSM   H11T14960   0.522   7.313   3.820 -2.9490 -0.5449  2.0826
  138OSM   C12S14961   0.642   7.215   3.976  0.0761  0.7033 -0.3991
  138OSM   H12S14962   0.742   7.260   3.961  1.2078 -0.9380  1.6027
  138OSM   H12T14963   0.648   7.107   4.003 -1.3111  0.2524 -1.7282
  138OSM   C13S14964   0.566   7.287   4.090  0.4266  0.0316  0.0170
  138OSM   H13S14965   0.462   7.248   4.088  0.4866 -0.1684 -2.1551
  138OSM   H13T14966   0.563   7.397   4.072  1.3160  0.2636  1.1581
  138OSM   C14S14967   0.626   7.273   4.229 -0.4448  0.3305  0.7547
  138OSM   H14S14968   0.724   7.324   4.235  0.0381 -0.4763  0.0999
  138OSM   H14T14969   0.646   7.165   4.248 -2.8139 -1.3031 -4.1453
  138OSM   C15S14970   0.529   7.334   4.333  0.6011 -0.0652 -0.1111
  138OSM   H15S14971   0.432   7.299   4.292  0.9051 -0.9260 -0.1197
  138OSM   H15T14972   0.528   7.445   4.341  0.3079 -0.1729  1.9051
  138OSM   C16S14973   0.546   7.260   4.465  0.0700  0.4243  0.2365
  138OSM   H16S14974   0.567   7.155   4.435 -0.6505  0.7930 -1.7512
  138OSM   H16T14975   0.449   7.259   4.518 -0.1324  1.6042 -0.0722
  138OSM   C17S14976   0.657   7.303   4.561  0.4740  1.2675  0.3614
  138OSM   H17S14977   0.660   7.410   4.591 -1.3341  1.3978  0.1863
  138OSM   H17T14978   0.757   7.285   4.515  0.9092  0.5580  1.5334
  138OSM   C18S14979   0.647   7.209   4.682  0.4838  0.0524  0.4168
  138OSM   H18S14980   0.648   7.102   4.656  1.7766 -0.3075  1.7547
  138OSM   H18T14981   0.546   7.223   4.726  1.0997  0.0849  1.8869
  138OSM   H18U14982   0.717   7.228   4.767 -2.2897  2.4224  2.3729
  138OSM    C1F14983   0.216   6.914   3.024  0.3402  0.0684  0.1381
  138OSM     OF14984   0.266   6.821   2.957  0.5431 -0.0848 -0.0095
  138OSM    C2F14985   0.087   6.908   3.101 -0.7903 -0.0904 -0.2949
  138OSM    H2F14986   0.030   6.820   3.066 -1.6138  0.0067  0.7568
  138OSM    H2G14987   0.027   6.999   3.081 -2.5169 -1.0430  0.3810
  138OSM    C3F14988   0.124   6.881   3.248 -0.5922 -0.3943 -0.4109
  138OSM    H3F14989   0.197   6.797   3.255 -1.2305 -1.1476 -2.2167
  138OSM    H3G14990   0.035   6.839   3.298  1.6900 -1.5685  3.0204
  138OSM    C4F14991   0.160   7.002   3.330 -0.2165 -0.2019 -0.1160
  138OSM    H4F14992   0.105   7.091   3.291 -0.0448  0.2748  0.7073
  138OSM    H4G14993   0.266   7.032   3.311  0.0561  0.4989  2.2187
  138OSM    C5F14994   0.140   6.987   3.481  0.4831  0.6461 -0.2311
  138OSM    H5F14995   0.189   6.896   3.521 -1.3766 -0.8344 -1.1662
  138OSM    H5G14996   0.034   6.959   3.500  1.1485 -0.3300  2.4797
  138OSM    C6F14997   0.169   7.106   3.560 -0.3051 -0.1997 -1.1273
  138OSM    H6F14998   0.100   7.189   3.533 -1.1739 -0.7065 -0.5172
  138OSM    H6G14999   0.266   7.152   3.532 -0.6394  1.8868  0.8644
  138OSM    C7F15000   0.140   7.088   3.714 -0.4198  0.1757 -0.4579
  138OSM    H7F15001   0.192   6.992   3.736  0.3742 -0.0851 -3.1742
  138OSM    H7G15002   0.032   7.062   3.726 -0.5023 -0.0704 -1.6044
  138OSM    C8F15003   0.194   7.209   3.795  0.2685  0.8321 -0.3626
  138OSM    H8F15004   0.127   7.296   3.779  2.0842  2.1335 -1.3452
  138OSM    H8G15005   0.290   7.239   3.748  2.3814 -3.3570  0.7835
  138OSM    C9F15006   0.222   7.183   3.944  0.7452 -0.2491  0.0894
  138OSM    H9F15007   0.260   7.081   3.957  0.0062 -0.5795 -0.2608
  138OSM   C10F15008   0.190   7.257   4.057  0.6212 -0.2160  0.2250
  138OSM   H10F15009   0.210   7.209   4.154  0.3654 -1.1380 -0.1654
  138OSM   C11F15010   0.132   7.399   4.051 -0.4861  0.0777 -0.0725
  138OSM   H11F15011   0.024   7.392   4.029 -0.1279 -0.8725 -1.6452
  138OSM   H11G15012   0.178   7.463   3.972  0.9136 -1.9105 -0.9322
  138OSM   C12F15013   0.147   7.449   4.193  0.6716 -0.4940  0.4630
  138OSM   H12F15014   0.120   7.557   4.195  0.2068 -0.5807 -0.3732
  138OSM   H12G15015   0.254   7.446   4.222  0.5257  1.3943  1.3318
  138OSM   C13F15016   0.056   7.381   4.297  0.0075  0.4639  0.2486
  138OSM   H13F15017   0.083   7.273   4.294  2.6941  1.0788  0.2676
  138OSM   H13G15018  -0.051   7.386   4.267 -0.6021 -2.1648  1.7010
  138OSM   C14F15019   0.075   7.446   4.433  0.3001 -0.5912  0.2613
  138OSM   H14F15020   0.022   7.543   4.438  1.0874 -0.0492 -1.1895
  138OSM   H14G15021   0.184   7.458   4.448  0.1009  0.9003  0.6043
  138OSM   C15F15022   0.034   7.360   4.551 -0.0015  0.7580  0.2821
  138OSM   H15F15023   0.079   7.259   4.547 -1.3821  0.1388 -1.2962
  138OSM   H15G15024  -0.077   7.354   4.553  0.0833 -1.0376  1.6624
  138OSM   C16F15025   0.061   7.432   4.690 -0.2338 -0.1886 -0.1826
  138OSM   H16F15026  -0.009   7.515   4.714  1.0638  1.5098 -1.8796
  138OSM   H16G15027   0.162   7.477   4.684 -1.4272  2.5918 -1.3710
  138OSM   C17F15028   0.054   7.334   4.808  0.2098  0.0805  0.6427
  138OSM   H17F15029   0.096   7.389   4.895  1.5724  2.7609 -1.5942
  138OSM   H17G15030   0.108   7.240   4.780 -1.3848 -0.6376 -0.1729
  138OSM   C18F15031  -0.089   7.287   4.852  0.8447  0.1072 -0.3141
  138OSM   H18F15032  -0.073   7.226   4.943 -0.1852 -0.1747 -0.3106
  138OSM   H18G15033  -0.145   7.224   4.780  1.9119 -1.0436 -0.1729
  138OSM   H18H15034  -0.152   7.376   4.876 -0.5132 -1.7245  3.6578
  139OSM      N15035   2.202   2.227   2.550  0.8436 -0.0226 -0.6914
  139OSM    C1515036   2.309   2.167   2.472 -0.0321  0.5246 -0.5192
  139OSM   H15A15037   2.308   2.204   2.370  0.1310 -0.3885 -0.8635
  139OSM   H15B15038   2.312   2.060   2.469 -0.3394  0.5250 -0.9693
  139OSM   H15C15039   2.398   2.187   2.530  0.0953  2.4988 -1.2961
  139OSM    C1415040   2.070   2.174   2.488  0.5218 -0.3217 -0.5549
  139OSM   H14A15041   2.053   2.215   2.389  0.8381 -1.3296 -1.0441
  139OSM   H14B15042   1.987   2.224   2.535  1.4714  1.2563 -0.4562
  139OSM   H14C15043   2.054   2.067   2.488  1.0897 -0.4154  0.4789
  139OSM    C1315044   2.222   2.170   2.686 -0.7000  0.3222  0.1488
  139OSM   H13A15045   2.137   2.177   2.753 -1.6637 -1.6730 -0.7748
  139OSM   H13B15046   2.311   2.207   2.736 -1.3563  1.1891  0.7006
  139OSM   H13C15047   2.223   2.062   2.677  1.1136  0.3027  0.2071
  139OSM    C1215048   2.215   2.377   2.555  0.0157  0.1705  0.5824
  139OSM   H12A15049   2.310   2.400   2.600 -1.0448 -0.5225  3.3943
  139OSM   H12B15050   2.141   2.425   2.618 -2.0595 -1.6455 -0.3510
  139OSM    C1115051   2.195   2.460   2.419 -0.6909  0.3117 -0.0182
  139OSM   H11A15052   2.157   2.562   2.443 -1.0603  0.1430  0.1266
  139OSM   H11B15053   2.108   2.419   2.363 -0.3657 -0.8373  0.2822
  139OSM      P15054   2.438   2.552   2.390 -0.1524  0.1610 -0.1971
  139OSM    O1315055   2.560   2.527   2.303 -0.5409  0.0474  0.0049
  139OSM    O1415056   2.392   2.693   2.403 -0.9217 -0.0001 -0.6135
  139OSM    O1115057   2.470   2.497   2.534 -0.4568 -0.1457  0.3709
  139OSM    O1215058   2.316   2.463   2.340 -0.4026 -0.4839  0.0116
  139OSM    C1S15059   2.472   2.585   2.650 -0.2232 -0.2721  0.3525
  139OSM    H1S15060   2.369   2.592   2.692 -0.4522  1.1453 -0.3927
  139OSM    H1T15061   2.522   2.681   2.624  5.7785 -3.6581 -2.9797
  139OSM     NF15062   2.549   2.584   2.889  0.2518  0.0363 -0.1991
  139OSM    HNF15063   2.615   2.650   2.922  1.6020 -0.0023 -2.5768
  139OSM    C2S15064   2.567   2.522   2.761  0.3860  1.2301 -0.5178
  139OSM    H2S15065   2.533   2.417   2.760  0.8845  1.0288  1.0986
  139OSM    C3S15066   2.715   2.515   2.715 -0.7216 -0.1549  0.1908
  139OSM    H3S15067   2.750   2.620   2.715  1.1679 -0.7197  1.6734
  139OSM     O315068   2.745   2.460   2.583  0.3887 -0.1583  0.0903
  139OSM    HO315069   2.665   2.420   2.547  1.9436 -3.3548 -0.1952
  139OSM    C4S15070   2.801   2.445   2.820 -0.6470 -0.1986 -0.3746
  139OSM    H4S15071   2.849   2.513   2.892 -0.9391  1.9084 -2.0698
  139OSM    C5S15072   2.842   2.317   2.818  0.1165  0.0675  0.0070
  139OSM    H5S15073   2.798   2.241   2.751  0.9330  0.0705 -0.5522
  139OSM    C6S15074   2.945   2.255   2.914 -0.1586  0.9073  0.5430
  139OSM    H6S15075   3.037   2.242   2.853 -0.3830  2.1535 -0.0822
  139OSM    H6T15076   2.906   2.155   2.942  2.5472  0.2684  2.5087
  139OSM    C7S15077   2.986   2.323   3.042 -0.1956  0.3390 -0.0543
  139OSM    H7S15078   3.030   2.421   3.013 -3.8002  1.5831 -1.9176
  139OSM    H7T15079   3.058   2.257   3.095  1.5072  2.1348 -0.0082
  139OSM    C8S15080   2.868   2.333   3.139 -0.5120 -0.3709  0.1339
  139OSM    H8S15081   2.874   2.241   3.200  1.6837  0.9266  2.0273
  139OSM    H8T15082   2.769   2.354   3.091 -1.0965  0.8016  1.7626
  139OSM    C9S15083   2.890   2.447   3.245 -0.0665  0.1299  0.3112
  139OSM    H9S15084   2.884   2.546   3.195 -0.8240 -0.1589 -0.2052
  139OSM    H9T15085   2.989   2.441   3.294 -0.1017  2.3769  0.7503
  139OSM   C10S15086   2.773   2.443   3.343 -0.7560  1.0693 -0.0516
  139OSM   H10S15087   2.742   2.339   3.370  1.2473  0.4988  0.1720
  139OSM   H10T15088   2.692   2.505   3.298 -0.2685  2.7519  1.2975
  139OSM   C11S15089   2.806   2.498   3.472  0.1055  0.0178 -0.9795
  139OSM   H11S15090   2.857   2.597   3.463 -1.0064  0.7848  0.7229
  139OSM   H11T15091   2.876   2.438   3.533 -1.1127  0.7991  1.3061
  139OSM   C12S15092   2.682   2.511   3.567  0.0712 -0.3872 -0.3602
  139OSM   H12S15093   2.643   2.407   3.567  0.2812 -0.5001  1.7546
  139OSM   H12T15094   2.603   2.567   3.513  0.4135 -0.3527 -0.8311
  139OSM   C13S15095   2.714   2.564   3.706 -0.1719  0.3633 -0.6199
  139OSM   H13S15096   2.612   2.570   3.749  0.1415 -0.1526  0.2028
  139OSM   H13T15097   2.766   2.662   3.715 -1.2304  0.7611  2.0789
  139OSM   C14S15098   2.784   2.463   3.798 -0.4112 -0.2308 -1.2959
  139OSM   H14S15099   2.889   2.486   3.768 -0.9857  2.4989 -1.4380
  139OSM   H14T15100   2.764   2.359   3.764  1.3312 -1.4441  1.0432
  139OSM   C15S15101   2.755   2.485   3.951  0.2930 -0.3187  0.6479
  139OSM   H15S15102   2.651   2.475   3.990  1.2891  1.1656  4.1337
  139OSM   H15T15103   2.767   2.595   3.955 -0.7037 -0.0247 -2.3925
  139OSM   C16S15104   2.836   2.405   4.049 -0.4945 -0.3678  0.3169
  139OSM   H16S15105   2.943   2.433   4.036 -0.1744 -1.4435  0.5684
  139OSM   H16T15106   2.828   2.299   4.016 -0.2044 -0.5550  0.8400
  139OSM   C17S15107   2.798   2.424   4.196  0.4678  0.2076 -0.2274
  139OSM   H17S15108   2.694   2.394   4.222  1.5180 -3.7106  0.0195
  139OSM   H17T15109   2.825   2.529   4.221  0.5761 -0.1898  1.3939
  139OSM   C18S15110   2.893   2.331   4.279 -0.4199  0.1833  0.0885
  139OSM   H18S15111   2.879   2.337   4.389 -1.3430 -0.3648  0.0097
  139OSM   H18T15112   2.996   2.368   4.257 -0.5929  0.1013 -0.8746
  139OSM   H18U15113   2.895   2.222   4.259  1.1399 -0.1706  1.8392
  139OSM    C1F15114   2.438   2.551   2.961 -0.3980  0.4778 -0.3185
  139OSM     OF15115   2.358   2.471   2.920  0.0230  0.0264 -0.4632
  139OSM    C2F15116   2.416   2.629   3.088 -0.1513  0.2879  0.5364
  139OSM    H2F15117   2.339   2.708   3.075  0.0658  0.6051  1.1653
  139OSM    H2G15118   2.499   2.694   3.120  0.2651 -0.1918  0.4445
  139OSM    C3F15119   2.365   2.529   3.191 -0.1048  0.2640  0.2678
  139OSM    H3F15120   2.438   2.446   3.203  0.1741  0.7518  2.2148
  139OSM    H3G15121   2.264   2.495   3.160 -0.3158  0.0950  1.1180
  139OSM    C4F15122   2.344   2.596   3.326  0.2497  0.0266 -0.4667
  139OSM    H4F15123   2.274   2.681   3.311  0.6924  0.3714 -0.5985
  139OSM    H4G15124   2.441   2.636   3.362 -0.1228  0.3067  0.2536
  139OSM    C5F15125   2.285   2.513   3.442  0.6955 -0.7349  0.0081
  139OSM    H5F15126   2.341   2.417   3.447 -0.2560 -1.2827  0.4946
  139OSM    H5G15127   2.177   2.489   3.428  0.5909  0.3394 -1.2385
  139OSM    C6F15128   2.290   2.591   3.578 -0.0342  0.0422 -0.6664
  139OSM    H6F15129   2.231   2.684   3.568  1.2163  0.9477  0.0931
  139OSM    H6G15130   2.396   2.618   3.596 -0.2002  1.7538 -2.1030
  139OSM    C7F15131   2.237   2.498   3.687 -0.2346 -0.1562 -0.3922
  139OSM    H7F15132   2.309   2.413   3.695  2.1214  1.9253  3.7974
  139OSM    H7G15133   2.136   2.468   3.652 -0.0624 -0.2991 -0.7816
  139OSM    C8F15134   2.235   2.564   3.823 -0.0942  0.6957 -0.2341
  139OSM    H8F15135   2.219   2.673   3.815  0.8585  0.7803 -1.3124
  139OSM    H8G15136   2.338   2.542   3.860 -1.1918 -1.7651  1.6954
  139OSM    C9F15137   2.135   2.499   3.917  1.0728 -0.2516 -0.0372
  139OSM    H9F15138   2.042   2.471   3.866  2.3418 -2.4481 -1.3049
  139OSM   C10F15139   2.136   2.459   4.045 -0.1895 -0.3780 -0.3401
  139OSM   H10F15140   2.045   2.423   4.096 -0.0749 -0.3926 -0.1446
  139OSM   C11F15141   2.250   2.475   4.145  0.3714 -0.3655  0.1188
  139OSM   H11F15142   2.350   2.455   4.103 -0.4427 -0.8569 -1.7033
  139OSM   H11G15143   2.229   2.402   4.226 -3.0521  0.2229 -0.0561
  139OSM   C12F15144   2.254   2.608   4.206  0.5121  0.4693 -0.0651
  139OSM   H12F15145   2.166   2.649   4.260  0.6925  3.3648 -1.7714
  139OSM   H12G15146   2.277   2.686   4.131  0.6623  0.4659 -0.0235
  139OSM   C13F15147   2.369   2.617   4.305 -0.2154 -0.0320  0.0511
  139OSM   H13F15148   2.397   2.724   4.314  0.2273 -0.0471 -1.0352
  139OSM   H13G15149   2.459   2.565   4.266  0.4379  1.2001 -0.1315
  139OSM   C14F15150   2.340   2.560   4.441 -1.0171 -0.6224 -0.7355
  139OSM   H14F15151   2.301   2.457   4.427 -0.3778 -1.2246  1.5471
  139OSM   H14G15152   2.254   2.612   4.487 -0.2088 -0.8799  1.1535
  139OSM   C15F15153   2.460   2.563   4.536 -0.0978  0.0835  0.1883
  139OSM   H15F15154   2.464   2.656   4.596 -1.3143  0.1697  0.1405
  139OSM   H15G15155   2.549   2.555   4.470 -0.6577  0.0267 -0.5689
  139OSM   C16F15156   2.470   2.465   4.653 -0.1907 -0.6375  0.6565
  139OSM   H16F15157   2.568   2.486   4.701  0.1789  1.1889 -0.8220
  139OSM   H16G15158   2.472   2.361   4.613 -1.4582 -0.3951 -0.0985
  139OSM   C17F15159   2.341   2.473   4.742  0.4711  0.0173 -0.0152
  139OSM   H17F15160   2.311   2.375   4.784  0.7476 -0.3677 -0.7037
  139OSM   H17G15161   2.257   2.518   4.684  1.8239  1.8897 -0.6423
  139OSM   C18F15162   2.360   2.573   4.866 -0.2908  0.2995 -0.4167
  139OSM   H18F15163   2.368   2.674   4.821 -0.0644 -0.1737 -1.4749
  139OSM   H18G15164   2.452   2.551   4.925  0.9718 -0.6372 -2.6242
  139OSM   H18H15165   2.267   2.561   4.925  0.2207 -1.2435  0.1442
  140OSM      N15166   1.715   6.192   2.416  0.6614 -0.0168  0.7776
  140OSM    C1515167   1.852   6.215   2.361 -0.2083 -0.0944 -0.4322
  140OSM   H15A15168   1.843   6.212   2.253 -1.3318 -3.3281 -0.3398
  140OSM   H15B15169   1.925   6.146   2.400  0.6623 -0.1768 -2.1166
  140OSM   H15C15170   1.876   6.316   2.392  1.3767 -1.0287  1.5990
  140OSM    C1415171   1.620   6.286   2.348 -0.4314 -0.1510 -0.3665
  140OSM   H14A15172   1.628   6.391   2.370  1.1544 -0.6101  1.5317
  140OSM   H14B15173   1.529   6.267   2.402 -0.1693 -0.9402 -0.1837
  140OSM   H14C15174   1.603   6.267   2.243 -0.3107  0.0566 -0.4233
  140OSM    C1315175   1.685   6.041   2.392 -0.2624 -0.2015 -0.3752
  140OSM   H13A15176   1.748   5.985   2.459  0.5314  2.2845  1.0750
  140OSM   H13B15177   1.691   6.004   2.290  2.7023 -1.0664  0.0273
  140OSM   H13C15178   1.584   6.026   2.429 -0.5520  0.4457 -0.8875
  140OSM    C1215179   1.709   6.213   2.576 -0.3131  0.1526  0.7479
  140OSM   H12A15180   1.777   6.142   2.621 -0.8822 -0.0620  1.2843
  140OSM   H12B15181   1.608   6.180   2.596 -0.9026  1.1800 -0.3839
  140OSM    C1115182   1.738   6.348   2.635 -0.0970  0.1497 -0.4986
  140OSM   H11A15183   1.839   6.380   2.602  0.5106  1.7276  2.5943
  140OSM   H11B15184   1.757   6.336   2.743  0.9886 -4.4898 -0.9954
  140OSM      P15185   1.490   6.442   2.645 -0.0737  0.4232  0.1163
  140OSM    O1315186   1.420   6.569   2.612 -0.8408  0.4759 -0.0204
  140OSM    O1415187   1.427   6.315   2.592 -0.1314 -1.0876 -0.7015
  140OSM    O1115188   1.493   6.432   2.803  0.2361 -0.0155  0.2235
  140OSM    O1215189   1.645   6.452   2.602 -0.0949  0.7273  0.5009
  140OSM    C1S15190   1.567   6.524   2.882  0.6593  0.0004  0.2918
  140OSM    H1S15191   1.516   6.622   2.894  1.1887  0.3682 -0.4367
  140OSM    H1T15192   1.672   6.537   2.848  0.5421  0.3672  0.0646
  140OSM     NF15193   1.594   6.611   3.118  0.3024  1.3256  0.4259
  140OSM    HNF15194   1.685   6.610   3.159  1.0733  1.9390 -1.1691
  140OSM    C2S15195   1.567   6.493   3.033 -0.0556  0.0116 -0.4042
  140OSM    H2S15196   1.463   6.465   3.059 -0.3256  1.3046 -0.0290
  140OSM    C3S15197   1.648   6.371   3.061 -0.0615 -0.4360  0.6363
  140OSM    H3S15198   1.753   6.400   3.041  0.2128 -0.8778  1.3746
  140OSM     O315199   1.619   6.263   2.979  0.8105  0.6217  0.9009
  140OSM    HO315200   1.550   6.300   2.924 -0.3143 -0.6231  1.4064
  140OSM    C4S15201   1.634   6.331   3.201 -0.1705 -0.6305 -0.4848
  140OSM    H4S15202   1.534   6.290   3.223  0.0994 -2.2183 -2.0143
  140OSM    C5S15203   1.726   6.347   3.304  0.4034  0.0476  0.3927
  140OSM    H5S15204   1.825   6.381   3.271  0.5119 -0.8235 -0.2193
  140OSM    C6S15205   1.700   6.304   3.449  0.1310  0.2381 -0.3931
  140OSM    H6S15206   1.775   6.231   3.486  1.5112  0.9917 -1.6326
  140OSM    H6T15207   1.596   6.267   3.465  0.6724 -0.9718  0.5038
  140OSM    C7S15208   1.702   6.407   3.564  1.0240  0.3863  0.9984
  140OSM    H7S15209   1.639   6.495   3.541 -1.0051 -1.5096 -1.3009
  140OSM    H7T15210   1.801   6.450   3.587  0.0995  3.3954 -0.2509
  140OSM    C8S15211   1.651   6.345   3.693 -0.2062 -0.0880  0.3234
  140OSM    H8S15212   1.689   6.242   3.709  0.6170  0.1727  0.1243
  140OSM    H8T15213   1.541   6.335   3.687 -0.3741  1.4149  0.5247
  140OSM    C9S15214   1.686   6.442   3.806  0.2650  0.1289  0.4405
  140OSM    H9S15215   1.663   6.548   3.781  2.0073  0.5625  0.5617
  140OSM    H9T15216   1.795   6.433   3.819  0.3974 -0.3650 -0.8127
  140OSM   C10S15217   1.611   6.392   3.934  0.5417  0.1108  0.4696
  140OSM   H10S15218   1.645   6.289   3.956  1.4685  0.7902  2.4464
  140OSM   H10T15219   1.501   6.396   3.925  0.6236  0.5764 -0.4151
  140OSM   C11S15220   1.630   6.495   4.052  0.4060  0.5362 -0.7114
  140OSM   H11S15221   1.573   6.589   4.034 -0.0579  0.2458 -0.7930
  140OSM   H11T15222   1.739   6.516   4.054  0.7333 -0.9921 -0.9732
  140OSM   C12S15223   1.576   6.420   4.182 -0.3353  0.3749  0.0451
  140OSM   H12S15224   1.615   6.317   4.166 -3.9969 -1.5335  1.8422
  140OSM   H12T15225   1.465   6.419   4.184 -0.3767  1.6694  2.1703
  140OSM   C13S15226   1.636   6.479   4.308  0.2329 -0.3482 -0.7733
  140OSM   H13S15227   1.580   6.571   4.333 -3.8549 -2.4124 -1.5087
  140OSM   H13T15228   1.743   6.503   4.290  0.4811  0.1998  1.2038
  140OSM   C14S15229   1.619   6.375   4.426  0.1094 -0.2647  0.6970
  140OSM   H14S15230   1.706   6.391   4.493 -0.3690 -0.1148  1.2880
  140OSM   H14T15231   1.621   6.274   4.379 -0.6528  1.0588 -2.4934
  140OSM   C15S15232   1.483   6.398   4.492  0.1501  0.6847  0.1269
  140OSM   H15S15233   1.403   6.414   4.417 -1.9299  0.3757  2.1774
  140OSM   H15T15234   1.498   6.494   4.545  1.6405  1.7242 -2.0449
  140OSM   C16S15235   1.447   6.292   4.592 -0.0353  0.0254 -0.2853
  140OSM   H16S15236   1.539   6.257   4.643  0.2365 -1.1508 -1.5146
  140OSM   H16T15237   1.406   6.201   4.542  0.3801 -0.4399  0.1989
  140OSM   C17S15238   1.348   6.348   4.706 -0.0771  0.1799  0.1351
  140OSM   H17S15239   1.390   6.447   4.731 -0.1309  1.0681 -2.8984
  140OSM   H17T15240   1.372   6.284   4.794  1.9622 -1.4451 -1.4803
  140OSM   C18S15241   1.201   6.354   4.661 -0.4069 -0.1386  0.0149
  140OSM   H18S15242   1.154   6.257   4.636  1.4035 -1.1085  0.1976
  140OSM   H18T15243   1.190   6.430   4.581 -1.7084  1.5169  1.6779
  140OSM   H18U15244   1.137   6.398   4.740 -1.0140 -1.5119  0.3224
  140OSM    C1F15245   1.507   6.710   3.134 -0.5703  0.6693  0.3245
  140OSM     OF15246   1.390   6.703   3.094  0.0038  0.0809  0.3643
  140OSM    C2F15247   1.554   6.831   3.211  0.0339 -0.1299 -0.0517
  140OSM    H2F15248   1.582   6.900   3.129 -0.5723  0.1906  0.0096
  140OSM    H2G15249   1.653   6.811   3.259 -0.9470 -1.1538  1.6398
  140OSM    C3F15250   1.453   6.917   3.295  0.1043  0.3317  1.5941
  140OSM    H3F15251   1.359   6.923   3.235  1.4667 -0.3679 -0.7119
  140OSM    H3G15252   1.502   7.016   3.307  0.7450 -0.1181  2.8136
  140OSM    C4F15253   1.435   6.856   3.433 -0.3445 -0.8365  0.5973
  140OSM    H4F15254   1.414   6.747   3.420  0.5296 -0.8386 -1.0770
  140OSM    H4G15255   1.351   6.903   3.489 -0.2337 -0.6417  0.6002
  140OSM    C5F15256   1.559   6.845   3.520 -0.0236 -0.3107  0.0195
  140OSM    H5F15257   1.605   6.945   3.503  1.0225 -1.0043 -1.4946
  140OSM    H5G15258   1.629   6.763   3.492  0.1451 -0.3205  0.4664
  140OSM    C6F15259   1.535   6.840   3.668 -0.2373 -0.0804  0.1038
  140OSM    H6F15260   1.629   6.805   3.715 -0.7508  1.2968  2.3049
  140OSM    H6G15261   1.456   6.769   3.700 -0.0888 -0.4172 -0.2760
  140OSM    C7F15262   1.481   6.970   3.739 -0.4495  0.2503  0.5618
  140OSM    H7F15263   1.382   6.996   3.695 -0.4800  0.1081  0.5458
  140OSM    H7G15264   1.562   7.042   3.712  0.1644  0.5344  2.9180
  140OSM    C8F15265   1.459   6.964   3.893 -0.2852  1.0974  0.7372
  140OSM    H8F15266   1.521   6.883   3.938 -0.4550  0.0308 -0.8993
  140OSM    H8G15267   1.364   6.911   3.911  1.5280 -1.8793  2.4001
  140OSM    C9F15268   1.486   7.086   3.965  0.0438  0.2252 -0.5711
  140OSM    H9F15269   1.556   7.156   3.918  2.1953 -0.8052  0.9680
  140OSM   C10F15270   1.438   7.110   4.087  0.2502 -0.0829 -0.7168
  140OSM   H10F15271   1.439   7.214   4.124  0.1375 -0.4845  0.4442
  140OSM   C11F15272   1.364   7.015   4.179  0.2931 -0.2372  0.1258
  140OSM   H11F15273   1.295   6.945   4.126 -0.5260 -0.8683  1.9284
  140OSM   H11G15274   1.306   7.082   4.246  1.2774  1.5912 -0.7755
  140OSM   C12F15275   1.459   6.938   4.270 -0.9434  0.0780  0.1521
  140OSM   H12F15276   1.514   7.008   4.337  0.1009 -1.3628  0.8571
  140OSM   H12G15277   1.544   6.891   4.216 -0.3345  1.8306 -0.5101
  140OSM   C13F15278   1.397   6.831   4.368  0.2169 -0.1642  0.3985
  140OSM   H13F15279   1.464   6.743   4.363  0.2859 -0.1172  0.4850
  140OSM   H13G15280   1.298   6.795   4.334 -0.2547  1.3070  0.1316
  140OSM   C14F15281   1.380   6.892   4.514 -0.1400 -0.0771 -0.3445
  140OSM   H14F15282   1.306   6.974   4.508 -1.4371 -1.2679 -1.4796
  140OSM   H14G15283   1.477   6.933   4.549 -0.6016  0.7752 -0.0326
  140OSM   C15F15284   1.331   6.780   4.613  0.4587  0.1513 -0.2448
  140OSM   H15F15285   1.419   6.719   4.641 -1.0644 -2.2237 -0.3427
  140OSM   H15G15286   1.255   6.721   4.558  1.7307 -0.7910 -1.0337
  140OSM   C16F15287   1.275   6.835   4.739 -0.5635  0.7613 -0.2706
  140OSM   H16F15288   1.248   6.743   4.794 -0.6544  0.3982 -0.9113
  140OSM   H16G15289   1.177   6.878   4.708 -0.8131 -0.3813 -1.1092
  140OSM   C17F15290   1.368   6.913   4.835  0.1644  0.7451  0.1360
  140OSM   H17F15291   1.436   6.980   4.778 -0.5770 -0.5416 -2.4497
  140OSM   H17G15292   1.431   6.844   4.895  0.2688 -0.1046 -0.9233
  140OSM   C18F15293   1.284   6.997   4.942 -0.0307  0.0671 -0.2609
  140OSM   H18F15294   1.337   7.078   4.998  0.5091 -0.3340 -0.1840
  140OSM   H18G15295   1.244   6.923   5.013  1.2154 -0.9883 -0.6168
  140OSM   H18H15296   1.204   7.050   4.886  0.5473  1.8442  0.5228
  141OSM      N15297   2.471   3.284   2.636 -0.2948  0.2881  1.1042
  141OSM    C1515298   2.562   3.185   2.562  0.0737  0.8103  0.3128
  141OSM   H15A15299   2.545   3.184   2.456  1.6426  0.1772  0.0471
  141OSM   H15B15300   2.535   3.087   2.599  0.3697  0.4412 -0.4480
  141OSM   H15C15301   2.666   3.187   2.591  0.3051  0.6903 -0.5010
  141OSM    C1415302   2.346   3.302   2.556  0.0339 -0.2874  0.1899
  141OSM   H14A15303   2.257   3.268   2.606 -0.8109 -1.0145 -1.7292
  141OSM   H14B15304   2.345   3.240   2.468  2.3127  2.0140 -1.6223
  141OSM   H14C15305   2.339   3.403   2.518 -0.2501  0.0612  1.1455
  141OSM    C1315306   2.439   3.231   2.773  0.5427  0.1390  0.0229
  141OSM   H13A15307   2.528   3.193   2.821 -1.6197 -3.8670  1.3941
  141OSM   H13B15308   2.380   3.140   2.767  1.8758 -0.7427 -0.0975
  141OSM   H13C15309   2.398   3.309   2.835 -0.4289 -0.1824 -0.1987
  141OSM    C1215310   2.546   3.418   2.655  0.7497  0.2780  1.1251
  141OSM   H12A15311   2.556   3.473   2.563 -0.7404 -1.8824 -0.4150
  141OSM   H12B15312   2.651   3.399   2.674  0.0839 -1.8173  3.2617
  141OSM    C1115313   2.506   3.517   2.760  0.2089  0.0288 -0.5230
  141OSM   H11A15314   2.397   3.538   2.753  0.4172  1.2750 -0.1941
  141OSM   H11B15315   2.546   3.618   2.740 -1.0937  0.3343 -1.7949
  141OSM      P15316   2.699   3.476   2.932 -0.1962  0.2208  0.2448
  141OSM    O1315317   2.768   3.364   2.852  0.2808  0.2955 -0.6126
  141OSM    O1415318   2.763   3.609   2.926  0.0067  0.0060 -0.4965
  141OSM    O1115319   2.691   3.429   3.088  0.2666  0.3156 -0.1429
  141OSM    O1215320   2.545   3.482   2.893  0.1669  0.2568 -0.2596
  141OSM    C1S15321   2.602   3.504   3.179  0.2700 -0.0240  0.5027
  141OSM    H1S15322   2.501   3.525   3.139  0.3376 -0.2487  0.2084
  141OSM    H1T15323   2.634   3.610   3.194  0.0190  0.2231 -0.5885
  141OSM     NF15324   2.486   3.512   3.394  0.3851 -0.2824  0.1748
  141OSM    HNF15325   2.504   3.590   3.453 -1.3029  0.9951 -0.9233
  141OSM    C2S15326   2.587   3.441   3.323 -0.5218 -0.3288  0.7264
  141OSM    H2S15327   2.570   3.334   3.300  3.8443 -1.0393 -0.0975
  141OSM    C3S15328   2.734   3.442   3.384  0.7807 -0.1504  0.1747
  141OSM    H3S15329   2.778   3.544   3.383 -1.1974  0.7694  0.9932
  141OSM     O315330   2.818   3.363   3.303  0.2025  0.2575 -0.1043
  141OSM    HO315331   2.774   3.374   3.219  0.4330 -0.8158 -0.3836
  141OSM    C4S15332   2.744   3.397   3.524 -0.5435  0.1203 -0.6541
  141OSM    H4S15333   2.739   3.287   3.534 -3.1356  0.2261 -0.1753
  141OSM    C5S15334   2.751   3.472   3.639 -0.5013  0.1068  0.4236
  141OSM    H5S15335   2.744   3.581   3.627  0.5577  0.2769  1.1826
  141OSM    C6S15336   2.750   3.419   3.785 -0.7310 -0.0847  0.4120
  141OSM    H6S15337   2.855   3.415   3.819 -0.8609 -1.4512  0.7328
  141OSM    H6T15338   2.713   3.314   3.793  0.5904 -0.4392  2.6047
  141OSM    C7S15339   2.677   3.496   3.893 -0.2158 -0.4511  0.1858
  141OSM    H7S15340   2.568   3.512   3.875 -0.2227  0.8776  1.2282
  141OSM    H7T15341   2.723   3.597   3.905  0.4292 -0.8191  0.8561
  141OSM    C8S15342   2.686   3.430   4.033 -0.1915  0.6872  0.0887
  141OSM    H8S15343   2.682   3.319   4.026 -0.1561  0.7934 -3.1439
  141OSM    H8T15344   2.595   3.453   4.093 -0.3190  0.8243 -0.1571
  141OSM    C9S15345   2.799   3.479   4.118  0.3203  0.2850 -0.5860
  141OSM    H9S15346   2.809   3.590   4.120 -0.1817  0.3248  0.1278
  141OSM    H9T15347   2.891   3.430   4.079  1.1934 -0.1960  1.8933
  141OSM   C10S15348   2.797   3.444   4.270 -0.0073 -0.4393 -0.2794
  141OSM   H10S15349   2.784   3.334   4.281  1.1140 -0.4608  1.0198
  141OSM   H10T15350   2.708   3.500   4.306 -0.8588 -0.3753 -2.3401
  141OSM   C11S15351   2.920   3.489   4.345 -0.1342 -0.2257  0.1971
  141OSM   H11S15352   2.917   3.599   4.335 -1.3070  0.1005  3.0869
  141OSM   H11T15353   3.018   3.454   4.306  0.7010  0.6082  1.4695
  141OSM   C12S15354   2.907   3.463   4.496  0.3362 -1.2246  0.7382
  141OSM   H12S15355   2.870   3.359   4.510  0.0022 -1.5846 -2.1617
  141OSM   H12T15356   2.825   3.535   4.520 -0.1568 -1.2434 -0.7768
  141OSM   C13S15357   3.036   3.496   4.570 -0.0762  0.5990  0.4502
  141OSM   H13S15358   3.077   3.597   4.553  0.0548  0.3300 -0.8944
  141OSM   H13T15359   3.110   3.419   4.539 -0.2911  0.7596 -0.4862
  141OSM   C14S15360   3.009   3.468   4.721  0.0241 -1.1227  0.5305
  141OSM   H14S15361   2.992   3.361   4.744 -0.3777 -0.8989  1.3041
  141OSM   H14T15362   2.914   3.523   4.737 -0.5101 -0.5981 -3.5456
  141OSM   C15S15363   3.128   3.530   4.803  0.1358  0.0893  0.7224
  141OSM   H15S15364   3.126   3.633   4.763  0.7366  0.4340  1.5556
  141OSM   H15T15365   3.219   3.477   4.768 -0.5356  0.9602 -2.6911
  141OSM   C16S15366   3.100   3.518   4.957 -0.1061 -0.1486  0.4965
  141OSM   H16S15367   3.003   3.463   4.965  0.1748 -0.8601 -0.7139
  141OSM   H16T15368   3.095   3.623   4.993 -0.1839  0.2284 -0.5959
  141OSM   C17S15369   3.216   3.432   5.019 -0.1537  0.3215 -0.3068
  141OSM   H17S15370   3.312   3.469   4.977  0.2427 -0.7854 -0.4213
  141OSM   H17T15371   3.203   3.336   4.963  2.7602  0.4486 -1.3566
  141OSM   C18S15372   3.203   3.407   5.169  0.3927 -0.4947  0.5682
  141OSM   H18S15373   3.247   3.307   5.189  0.9334 -0.5123 -0.6107
  141OSM   H18T15374   3.097   3.395   5.199 -1.2121  1.7856 -3.3054
  141OSM   H18U15375   3.246   3.496   5.220  3.2664  0.1381 -2.5520
  141OSM    C1F15376   2.362   3.474   3.371  0.8262 -0.5560  0.5031
  141OSM     OF15377   2.335   3.384   3.296 -0.2392  0.2592 -0.4267
  141OSM    C2F15378   2.249   3.548   3.446 -0.4440 -0.8602 -0.3323
  141OSM    H2F15379   2.224   3.637   3.384  0.0150  1.0475  2.0626
  141OSM    H2G15380   2.298   3.578   3.541  0.4838 -0.0417 -1.0516
  141OSM    C3F15381   2.126   3.468   3.461  0.1913  0.4822 -0.5762
  141OSM    H3F15382   2.097   3.426   3.362 -1.8652 -0.9465  0.5389
  141OSM    H3G15383   2.040   3.529   3.497  0.0693 -0.4124  0.7187
  141OSM    C4F15384   2.151   3.349   3.555 -0.3670 -0.1311 -0.9882
  141OSM    H4F15385   2.257   3.314   3.546  0.1052  1.1147 -0.5104
  141OSM    H4G15386   2.095   3.260   3.520  0.8618 -0.5352 -2.0132
  141OSM    C5F15387   2.113   3.380   3.707  0.1302 -0.3856 -0.5066
  141OSM    H5F15388   2.009   3.420   3.717  0.8175  2.0656 -2.3411
  141OSM    H5G15389   2.188   3.455   3.738  0.8948 -1.5193  0.4504
  141OSM    C6F15390   2.141   3.268   3.801 -0.2370 -0.1279 -0.2586
  141OSM    H6F15391   2.244   3.226   3.792  0.0821  0.7574 -0.8531
  141OSM    H6G15392   2.073   3.184   3.777 -1.9883  0.7474  1.3572
  141OSM    C7F15393   2.110   3.311   3.947 -0.5319 -0.1783 -0.5104
  141OSM    H7F15394   2.095   3.221   4.010 -0.6458  1.0107  1.2447
  141OSM    H7G15395   2.025   3.382   3.955  1.6999  2.4777  1.7390
  141OSM    C8F15396   2.226   3.388   4.015 -0.5569  0.1227 -0.5277
  141OSM    H8F15397   2.184   3.417   4.114  1.2804  0.1282  0.2992
  141OSM    H8G15398   2.250   3.473   3.949 -1.2979  1.0980  0.4196
  141OSM    C9F15399   2.351   3.304   4.039 -0.0715 -0.3223  1.6651
  141OSM    H9F15400   2.408   3.273   3.950 -1.0411  0.9925  0.5209
  141OSM   C10F15401   2.380   3.246   4.154  0.3380  0.3914  0.1296
  141OSM   H10F15402   2.477   3.193   4.161  0.3129  0.5279  2.2763
  141OSM   C11F15403   2.310   3.262   4.287  0.0203 -1.0105 -0.0086
  141OSM   H11F15404   2.306   3.160   4.330  0.9005 -1.2432 -0.4642
  141OSM   H11G15405   2.204   3.297   4.284 -0.3860 -2.2089 -0.4782
  141OSM   C12F15406   2.395   3.356   4.376  1.0701 -0.4403  0.3367
  141OSM   H12F15407   2.404   3.449   4.317  2.6594  0.0245  1.2543
  141OSM   H12G15408   2.499   3.319   4.386  0.8806 -1.3967 -0.9405
  141OSM   C13F15409   2.332   3.392   4.511 -0.7774 -0.0015  0.2671
  141OSM   H13F15410   2.343   3.324   4.598 -2.2308  1.1535  1.3964
  141OSM   H13G15411   2.223   3.403   4.495 -0.4814 -0.0081 -2.0967
  141OSM   C14F15412   2.386   3.522   4.579 -0.3236 -0.4613 -0.4135
  141OSM   H14F15413   2.488   3.503   4.617 -0.7601 -0.2400  0.9348
  141OSM   H14G15414   2.327   3.529   4.673  1.2294 -3.0080  0.8512
  141OSM   C15F15415   2.375   3.655   4.488  0.1370  0.6536  0.3397
  141OSM   H15F15416   2.313   3.726   4.546 -3.1533 -0.2155 -1.8390
  141OSM   H15G15417   2.323   3.636   4.392  1.4214 -1.3653 -0.0349
  141OSM   C16F15418   2.508   3.709   4.462 -0.6190 -0.1075 -0.6369
  141OSM   H16F15419   2.566   3.656   4.384 -2.3184  0.0350 -2.0595
  141OSM   H16G15420   2.572   3.713   4.553 -2.6141  2.0511  0.7962
  141OSM   C17F15421   2.517   3.855   4.405  0.2873  0.6257 -1.2397
  141OSM   H17F15422   2.623   3.885   4.422  0.2400  0.9473 -1.5115
  141OSM   H17G15423   2.459   3.925   4.469  1.3420 -0.5485  1.1109
  141OSM   C18F15424   2.472   3.859   4.253 -0.3871  0.3215 -0.4944
  141OSM   H18F15425   2.545   3.801   4.192  0.7672  1.4847 -0.2549
  141OSM   H18G15426   2.477   3.965   4.220 -1.4865  0.0856 -1.4692
  141OSM   H18H15427   2.364   3.835   4.250 -0.3101  0.0312 -1.7923
  142OSM      N15428   5.064   0.368   2.546 -0.2605 -0.1897 -0.4677
  142OSM    C1515429   5.012   0.249   2.484 -0.0477  0.3575 -0.4900
  142OSM   H15A15430   5.065   0.158   2.509  0.7066  1.1275  0.8591
  142OSM   H15B15431   5.010   0.255   2.376  0.4342  0.0155 -0.5205
  142OSM   H15C15432   4.910   0.224   2.509 -0.3494 -0.5960 -2.4957
  142OSM    C1415433   5.214   0.373   2.505  1.3007  0.4324 -0.4749
  142OSM   H14A15434   5.222   0.385   2.398 -2.2916  1.7350 -0.7302
  142OSM   H14B15435   5.269   0.285   2.535  1.4399  0.1823 -1.4459
  142OSM   H14C15436   5.260   0.456   2.558 -0.8721  0.2633  1.8659
  142OSM    C1315437   5.014   0.496   2.486 -0.4003  0.2751  0.7413
  142OSM   H13A15438   5.083   0.574   2.515 -0.9235  0.2107  2.2265
  142OSM   H13B15439   4.912   0.523   2.505 -1.5455 -0.8796 -2.9814
  142OSM   H13C15440   5.033   0.492   2.380  0.5337 -0.3889  0.9161
  142OSM    C1215441   5.051   0.385   2.696  0.0269  0.0272  0.2339
  142OSM   H12A15442   5.096   0.480   2.723  1.0930 -0.8464  1.7146
  142OSM   H12B15443   5.106   0.311   2.752  1.1877  2.2978  2.2941
  142OSM    C1115444   4.909   0.380   2.760 -0.5207  0.4617 -0.2959
  142OSM   H11A15445   4.838   0.459   2.727  1.1989  1.6137 -1.4445
  142OSM   H11B15446   4.918   0.395   2.869  0.5949 -0.7972 -0.1901
  142OSM      P15447   4.918   0.122   2.824 -0.0566 -0.5061 -0.1401
  142OSM    O1315448   4.856  -0.007   2.786 -0.2867  0.2440  0.4805
  142OSM    O1415449   5.064   0.136   2.833 -0.0177  0.3397 -0.0753
  142OSM    O1115450   4.879   0.142   2.966  0.1097  0.5425 -0.4348
  142OSM    O1215451   4.857   0.246   2.742  0.0786 -0.0736 -0.7579
  142OSM    C1S15452   4.747   0.190   2.999 -0.6735 -0.3903  0.9669
  142OSM    H1S15453   4.671   0.124   2.952  0.8735 -2.0909  0.7144
  142OSM    H1T15454   4.734   0.292   2.957 -0.2595  0.2783  2.4032
  142OSM     NF15455   4.585   0.234   3.173  0.6220 -0.4474  0.0125
  142OSM    HNF15456   4.570   0.332   3.183 -2.0221 -0.6795 -0.9185
  142OSM    C2S15457   4.720   0.195   3.149  0.0779 -0.7455 -0.6095
  142OSM    H2S15458   4.724   0.091   3.190 -2.1018 -0.5253  0.2494
  142OSM    C3S15459   4.825   0.268   3.225  0.1399  0.6601 -0.1456
  142OSM    H3S15460   4.849   0.369   3.187 -1.8253  0.9599 -0.6837
  142OSM     O315461   4.956   0.200   3.211 -0.2811  0.0525  0.3460
  142OSM    HO315462   4.953   0.159   3.124  1.0854 -1.7978  1.0931
  142OSM    C4S15463   4.791   0.275   3.374  0.4557 -0.0791 -0.0580
  142OSM    H4S15464   4.767   0.176   3.416 -2.3252  0.4150 -0.2725
  142OSM    C5S15465   4.781   0.387   3.448 -0.3774  0.6182 -0.1976
  142OSM    H5S15466   4.787   0.481   3.390  3.2227  0.3048 -0.5790
  142OSM    C6S15467   4.744   0.400   3.594 -0.3752 -0.2613 -0.3447
  142OSM    H6S15468   4.647   0.452   3.603 -0.1514  0.2367 -0.7311
  142OSM    H6T15469   4.812   0.472   3.644 -1.3388 -0.0726  0.7080
  142OSM    C7S15470   4.750   0.277   3.684  0.0733  0.0809 -0.1128
  142OSM    H7S15471   4.850   0.234   3.660 -0.8527 -1.9355 -0.6164
  142OSM    H7T15472   4.675   0.203   3.650 -1.3570  2.0575 -1.4707
  142OSM    C8S15473   4.749   0.300   3.837 -0.3344  0.6519  0.9193
  142OSM    H8S15474   4.767   0.201   3.884  0.0870  0.0325 -0.4916
  142OSM    H8T15475   4.644   0.330   3.859 -0.8345 -0.3249 -0.0385
  142OSM    C9S15476   4.849   0.404   3.884 -0.1059  0.1287 -0.4248
  142OSM    H9S15477   4.832   0.509   3.852 -3.2670  0.7900  2.8452
  142OSM    H9T15478   4.945   0.372   3.838 -0.4022 -0.0302 -0.9309
  142OSM   C10S15479   4.863   0.406   4.042 -0.5178 -0.2898  0.4294
  142OSM   H10S15480   4.931   0.325   4.077  1.5352  0.1043 -2.3235
  142OSM   H10T15481   4.761   0.385   4.081 -0.4769  1.1860  1.3962
  142OSM   C11S15482   4.910   0.554   4.075 -0.4370  0.7442 -0.1803
  142OSM   H11S15483   4.838   0.633   4.044 -0.3006  0.4879 -1.2044
  142OSM   H11T15484   5.005   0.583   4.025  0.1259  0.6658  0.8194
  142OSM   C12S15485   4.958   0.572   4.219  0.5031  0.4198 -0.0474
  142OSM   H12S15486   4.976   0.681   4.230 -1.5089  0.8079 -0.2591
  142OSM   H12T15487   5.049   0.514   4.244 -0.0660 -1.0040 -1.1532
  142OSM   C13S15488   4.848   0.522   4.322 -0.0304 -0.7108  0.8181
  142OSM   H13S15489   4.841   0.413   4.298 -0.1521 -0.3879 -0.7001
  142OSM   H13T15490   4.747   0.564   4.305 -0.2579 -1.1080  1.1584
  142OSM   C14S15491   4.908   0.536   4.462  0.4658  0.4138  0.1213
  142OSM   H14S15492   4.958   0.635   4.469  0.7022  0.3520 -0.5807
  142OSM   H14T15493   4.991   0.463   4.478 -1.6068 -1.6022  2.5287
  142OSM   C15S15494   4.801   0.510   4.569 -0.9380 -0.5979  0.4373
  142OSM   H15S15495   4.749   0.413   4.552 -0.6897 -0.7218  0.3833
  142OSM   H15T15496   4.717   0.583   4.571 -0.9738 -0.6264  0.0503
  142OSM   C16S15497   4.871   0.513   4.705  0.4392  0.3118  0.0461
  142OSM   H16S15498   4.947   0.431   4.703 -1.6514 -1.8105  1.6624
  142OSM   H16T15499   4.793   0.469   4.772  1.6776 -0.6344  0.9248
  142OSM   C17S15500   4.918   0.651   4.757  0.1686  0.0552 -0.0417
  142OSM   H17S15501   4.990   0.693   4.684 -1.0430 -1.0034 -1.9679
  142OSM   H17T15502   4.952   0.655   4.862  0.2257  4.0192 -0.0702
  142OSM   C18S15503   4.813   0.765   4.757  0.0072 -0.3690 -0.7193
  142OSM   H18S15504   4.856   0.856   4.804  0.7120 -1.8192  1.6085
  142OSM   H18T15505   4.725   0.740   4.821  0.8450  0.8121  0.9713
  142OSM   H18U15506   4.771   0.784   4.656 -0.0137 -0.2613 -0.6899
  142OSM    C1F15507   4.484   0.158   3.135 -0.0765 -0.9358 -0.4792
  142OSM     OF15508   4.495   0.041   3.113  0.0560  0.3877  0.5411
  142OSM    C2F15509   4.352   0.232   3.114  0.5675 -0.3980 -0.0877
  142OSM    H2F15510   4.298   0.220   3.018 -0.1110  0.2582  0.2049
  142OSM    H2G15511   4.363   0.342   3.125  1.2410 -0.5971  1.6610
  142OSM    C3F15512   4.256   0.202   3.236 -0.0420  0.2505  0.1769
  142OSM    H3F15513   4.236   0.092   3.237  2.0999 -0.1818  0.2054
  142OSM    H3G15514   4.155   0.247   3.224 -0.7631 -1.3681 -0.1501
  142OSM    C4F15515   4.313   0.235   3.367 -0.2970 -0.5572 -0.3207
  142OSM    H4F15516   4.330   0.345   3.375  1.0498 -0.7793  0.1416
  142OSM    H4G15517   4.415   0.191   3.369 -0.0953 -0.3292 -2.7607
  142OSM    C5F15518   4.238   0.189   3.496  0.0329 -0.3994 -0.0927
  142OSM    H5F15519   4.170   0.102   3.480  0.3711 -0.9635  1.3426
  142OSM    H5G15520   4.174   0.273   3.530  0.9219  0.3530 -0.2302
  142OSM    C6F15521   4.324   0.160   3.621 -0.3120  0.3988  0.3087
  142OSM    H6F15522   4.389   0.246   3.650 -1.3934  0.4109  2.8935
  142OSM    H6G15523   4.391   0.072   3.609 -0.3107  0.4484 -0.0714
  142OSM    C7F15524   4.245   0.112   3.742  0.6033  0.3406 -0.4084
  142OSM    H7F15525   4.205   0.011   3.719  2.2454 -0.3406 -0.4650
  142OSM    H7G15526   4.163   0.185   3.756  1.6632  1.2513  1.4296
  142OSM    C8F15527   4.330   0.108   3.872  0.5583  0.1660  0.0099
  142OSM    H8F15528   4.260   0.100   3.957  0.0718 -0.9658 -0.4880
  142OSM    H8G15529   4.378   0.207   3.890  1.5042 -0.5544  1.6547
  142OSM    C9F15530   4.435   0.004   3.870  0.2894 -0.1233  0.5844
  142OSM    H9F15531   4.522   0.027   3.807 -0.5418  2.7006  0.3555
  142OSM   C10F15532   4.434  -0.111   3.937  0.2348 -0.4999 -0.2205
  142OSM   H10F15533   4.513  -0.183   3.915 -0.2688 -0.8558 -0.9122
  142OSM   C11F15534   4.326  -0.155   4.037 -0.2936 -0.1516 -0.0126
  142OSM   H11F15535   4.328  -0.264   4.019 -1.4432 -0.2203  0.1698
  142OSM   H11G15536   4.228  -0.113   4.003  0.0162  1.7868  1.3223
  142OSM   C12F15537   4.355  -0.106   4.180  1.1759  0.0384 -0.2838
  142OSM   H12F15538   4.370   0.004   4.182 -0.8999  0.3422  1.1538
  142OSM   H12G15539   4.442  -0.160   4.223  1.4458  0.4675 -0.2781
  142OSM   C13F15540   4.231  -0.129   4.266  0.5219  0.3067 -0.7900
  142OSM   H13F15541   4.211  -0.238   4.275 -0.3370  0.3808 -1.6160
  142OSM   H13G15542   4.142  -0.082   4.220  0.3172  0.1659 -0.5463
  142OSM   C14F15543   4.244  -0.073   4.414 -0.5461  0.6134  0.3252
  142OSM   H14F15544   4.286   0.030   4.422  1.6482 -0.3346  2.2405
  142OSM   H14G15545   4.324  -0.127   4.470  0.7592  1.7185 -0.3893
  142OSM   C15F15546   4.110  -0.077   4.503 -0.1151 -0.0022 -0.5219
  142OSM   H15F15547   4.041   0.005   4.474  2.5085  2.5976  0.0307
  142OSM   H15G15548   4.137  -0.042   4.605 -1.4595  0.0040 -0.1486
  142OSM   C16F15549   4.036  -0.210   4.516  0.3189  0.5561 -0.0109
  142OSM   H16F15550   4.106  -0.292   4.543 -0.9226 -1.4508 -2.4502
  142OSM   H16G15551   3.991  -0.243   4.420 -0.1441 -0.9078  0.6795
  142OSM   C17F15552   3.932  -0.214   4.636 -0.6556 -0.5569  0.8739
  142OSM   H17F15553   3.902  -0.321   4.636 -1.0866 -0.4481 -0.0123
  142OSM   H17G15554   3.847  -0.150   4.603 -0.7083 -1.7560 -1.5216
  142OSM   C18F15555   3.972  -0.164   4.770  0.4459 -0.1107  0.0882
  142OSM   H18F15556   4.067  -0.204   4.811  0.0940  0.6578  1.7013
  142OSM   H18G15557   3.900  -0.211   4.840  0.6947  0.8201  1.0004
  142OSM   H18H15558   3.975  -0.053   4.777  0.6740 -0.1436  0.5442
  143OSM      N15559   0.821   5.327   2.731  0.1464 -0.0357 -0.7615
  143OSM    C1515560   0.935   5.405   2.681  0.1065 -0.3779  0.4240
  143OSM   H15A15561   0.992   5.452   2.759  3.0900  1.1736 -2.4516
  143OSM   H15B15562   0.906   5.471   2.600 -2.2059 -0.4573  1.1194
  143OSM   H15C15563   1.003   5.339   2.628 -0.9408 -0.7159 -0.5644
  143OSM    C1415564   0.731   5.424   2.800  0.4831 -0.1049 -0.2989
  143OSM   H14A15565   0.643   5.381   2.845  0.9795 -0.9555 -0.1043
  143OSM   H14B15566   0.685   5.486   2.724 -1.6133 -0.5496  0.5557
  143OSM   H14C15567   0.793   5.480   2.867  1.7144 -0.3301 -1.2129
  143OSM    C1315568   0.754   5.279   2.606 -0.0498 -0.0157 -0.4375
  143OSM   H13A15569   0.676   5.207   2.625  0.6683 -0.3938  1.2623
  143OSM   H13B15570   0.830   5.240   2.540 -0.4002 -1.0808 -0.2361
  143OSM   H13C15571   0.699   5.362   2.565  1.4511  0.4980 -1.4875
  143OSM    C1215572   0.870   5.216   2.824  0.4110 -0.4113 -0.2050
  143OSM   H12A15573   0.949   5.163   2.774  1.5456  0.9455  0.0658
  143OSM   H12B15574   0.794   5.143   2.847  0.1403 -0.4834 -1.2914
  143OSM    C1115575   0.915   5.256   2.963 -0.2121  0.3321 -0.5273
  143OSM   H11A15576   0.944   5.160   3.010 -1.2222 -1.6145 -3.5968
  143OSM   H11B15577   0.825   5.292   3.017 -2.0207 -0.3921 -2.9160
  143OSM      P15578   1.036   5.490   3.017  0.2661  0.3361 -0.0226
  143OSM    O1315579   1.095   5.589   2.918  0.7937 -0.8822 -0.2018
  143OSM    O1415580   0.902   5.519   3.076  0.3037 -0.0833 -0.0153
  143OSM    O1115581   1.146   5.476   3.131  0.4308  0.1505  0.3438
  143OSM    O1215582   1.026   5.353   2.951  0.1384  0.6145 -0.1553
  143OSM    C1S15583   1.193   5.349   3.173  0.5737 -0.3296 -0.3191
  143OSM    H1S15584   1.303   5.352   3.154  0.7837 -0.1776  0.8502
  143OSM    H1T15585   1.158   5.261   3.116  0.5239 -0.9905  0.7018
  143OSM     NF15586   1.284   5.282   3.397  0.0832 -0.2810  0.0592
  143OSM    HNF15587   1.285   5.192   3.441  0.1101 -0.4768 -0.3430
  143OSM    C2S15588   1.164   5.333   3.328 -0.2675 -0.0627 -0.5840
  143OSM    H2S15589   1.129   5.428   3.374 -2.7585 -1.6986  1.0896
  143OSM    C3S15590   1.030   5.264   3.355 -0.2602  0.6989  0.5225
  143OSM    H3S15591   1.043   5.160   3.318 -0.9022  0.5713  0.6473
  143OSM     O315592   0.906   5.309   3.296 -0.2703 -0.9321 -0.3193
  143OSM    HO315593   0.939   5.384   3.246  2.1877 -2.1416 -0.6858
  143OSM    C4S15594   1.004   5.257   3.508  0.0324 -0.0820  0.8290
  143OSM    H4S15595   0.922   5.324   3.537  0.6836  0.0897  2.3738
  143OSM    C5S15596   1.045   5.157   3.592  0.0766  0.1197 -0.3810
  143OSM    H5S15597   1.101   5.074   3.547  2.3592  0.8646  0.8927
  143OSM    C6S15598   1.001   5.139   3.736  0.2206  0.5576  0.0687
  143OSM    H6S15599   1.040   5.039   3.763 -1.0149 -0.3954 -1.4927
  143OSM    H6T15600   0.890   5.143   3.734  0.1071 -0.4808  2.2859
  143OSM    C7S15601   1.059   5.224   3.851  0.3563  0.8760  0.0946
  143OSM    H7S15602   0.970   5.276   3.892  1.3798  2.0955  0.8944
  143OSM    H7T15603   1.127   5.304   3.813  0.3876  1.4259  1.2421
  143OSM    C8S15604   1.138   5.147   3.955 -0.5542 -0.0947 -0.4059
  143OSM    H8S15605   1.232   5.106   3.912 -1.5119 -0.5114 -2.2126
  143OSM    H8T15606   1.073   5.057   3.964 -1.5745  0.5855 -0.8297
  143OSM    C9S15607   1.151   5.222   4.091 -0.1050  0.3998 -0.1609
  143OSM    H9S15608   1.056   5.247   4.142  1.5237  0.4862  3.0467
  143OSM    H9T15609   1.197   5.319   4.061 -2.7391  1.5812 -0.6301
  143OSM   C10S15610   1.234   5.144   4.195 -0.0056  0.0077 -0.4166
  143OSM   H10S15611   1.332   5.111   4.155 -0.9519 -1.1396 -1.8963
  143OSM   H10T15612   1.194   5.043   4.219 -0.6372  0.0145 -1.3668
  143OSM   C11S15613   1.254   5.221   4.326  0.4890  0.8034  0.4212
  143OSM   H11S15614   1.275   5.327   4.303 -0.2380  1.0631  0.8984
  143OSM   H11T15615   1.349   5.188   4.375 -0.7267 -0.7821  1.8593
  143OSM   C12S15616   1.140   5.202   4.425 -0.0594  0.1396  0.1623
  143OSM   H12S15617   1.119   5.096   4.448 -2.6735  0.8082  1.2267
  143OSM   H12T15618   1.048   5.248   4.384 -0.3284 -0.0382  0.5612
  143OSM   C13S15619   1.175   5.260   4.564 -0.7749  0.3000 -0.2962
  143OSM   H13S15620   1.074   5.256   4.610 -1.1623 -0.9088 -1.1927
  143OSM   H13T15621   1.207   5.366   4.572 -0.5811  0.3197 -1.2837
  143OSM   C14S15622   1.260   5.156   4.645 -0.5077  0.8718 -0.3901
  143OSM   H14S15623   1.355   5.131   4.593  0.9890  2.0438  1.5974
  143OSM   H14T15624   1.206   5.061   4.664 -0.9641  1.2243  0.1258
  143OSM   C15S15625   1.320   5.214   4.777 -0.0584  0.6002 -0.0860
  143OSM   H15S15626   1.370   5.306   4.740 -0.8398  0.9827 -0.2072
  143OSM   H15T15627   1.393   5.143   4.821 -0.6976  0.9052  1.5461
  143OSM   C16S15628   1.212   5.247   4.874 -0.0582  0.3040  0.0987
  143OSM   H16S15629   1.157   5.156   4.906 -1.0697  0.3805 -1.3208
  143OSM   H16T15630   1.137   5.311   4.823 -0.3971  1.4623  1.9355
  143OSM   C17S15631   1.268   5.319   5.002  0.6388 -0.2447 -0.5453
  143OSM   H17S15632   1.180   5.351   5.061  1.4845  1.3344 -0.0836
  143OSM   H17T15633   1.318   5.414   4.973  0.8947 -0.2223 -0.0511
  143OSM   C18S15634   1.356   5.225   5.087  0.2855 -0.2810  0.1174
  143OSM   H18S15635   1.446   5.193   5.030  0.6554 -0.2641  0.6829
  143OSM   H18T15636   1.288   5.143   5.119  1.5907 -1.1177  0.8149
  143OSM   H18U15637   1.393   5.268   5.182  3.1608 -0.7682 -0.6706
  143OSM    C1F15638   1.393   5.353   3.416 -0.2440 -0.5683 -0.6769
  143OSM     OF15639   1.407   5.463   3.361  0.1721 -0.1105 -0.2702
  143OSM    C2F15640   1.489   5.286   3.521  0.2613  0.5783  0.2269
  143OSM    H2F15641   1.598   5.294   3.500  0.1049  2.5597 -0.0512
  143OSM    H2G15642   1.454   5.183   3.541 -3.5412  1.9601  1.5918
  143OSM    C3F15643   1.462   5.353   3.663  0.7618  0.6218  0.5370
  143OSM    H3F15644   1.356   5.355   3.696  0.9293 -0.4234  1.1918
  143OSM    H3G15645   1.501   5.456   3.649 -0.3760  1.0003 -0.0107
  143OSM    C4F15646   1.549   5.299   3.777  0.6596  0.5788  0.6526
  143OSM    H4F15647   1.640   5.248   3.738 -0.6312  0.7823 -3.0732
  143OSM    H4G15648   1.491   5.216   3.823 -0.9828  1.0451 -0.4684
  143OSM    C5F15649   1.585   5.397   3.881 -0.9746 -0.0503  0.1388
  143OSM    H5F15650   1.507   5.426   3.956 -0.7499 -1.1352  0.8246
  143OSM    H5G15651   1.623   5.485   3.826  1.3221  0.3312  2.1613
  143OSM    C6F15652   1.711   5.364   3.973  0.5332  0.2151  0.4255
  143OSM    H6F15653   1.752   5.459   4.014  0.1992  1.2337 -1.4572
  143OSM    H6G15654   1.784   5.326   3.898 -0.3975 -0.3848 -0.2070
  143OSM    C7F15655   1.684   5.264   4.075 -0.3371 -0.5685 -0.6347
  143OSM    H7F15656   1.779   5.236   4.124 -0.5067 -1.4896 -0.8232
  143OSM    H7G15657   1.658   5.162   4.042 -1.0201 -0.3529 -0.7843
  143OSM    C8F15658   1.579   5.309   4.192  0.0026  0.0826 -0.2565
  143OSM    H8F15659   1.545   5.230   4.262  0.2166 -0.3152 -0.5922
  143OSM    H8G15660   1.485   5.318   4.134 -0.4423 -3.9076 -0.4303
  143OSM    C9F15661   1.611   5.443   4.254  0.3529  0.0298 -0.0487
  143OSM    H9F15662   1.658   5.525   4.198  1.8987  0.8647  2.3267
  143OSM   C10F15663   1.586   5.469   4.385  0.0923  0.1275 -0.3061
  143OSM   H10F15664   1.605   5.575   4.406 -1.0396 -0.1331  2.5340
  143OSM   C11F15665   1.555   5.379   4.506  0.8308 -0.1741 -0.0475
  143OSM   H11F15666   1.598   5.280   4.479  1.0185  0.6110 -3.0014
  143OSM   H11G15667   1.445   5.360   4.512  0.5540  1.6557  1.4885
  143OSM   C12F15668   1.589   5.433   4.641  0.9717 -0.9251 -0.6877
  143OSM   H12F15669   1.495   5.477   4.680  2.4043 -1.2068  3.5595
  143OSM   H12G15670   1.666   5.513   4.636  0.2849 -0.1321  0.8506
  143OSM   C13F15671   1.661   5.319   4.719  0.4830  0.0404 -0.2667
  143OSM   H13F15672   1.753   5.294   4.662 -0.1448 -0.5644 -1.0397
  143OSM   H13G15673   1.600   5.226   4.724  0.4436  0.1229  0.9928
  143OSM   C14F15674   1.695   5.352   4.864 -0.5091  0.3359 -0.5544
  143OSM   H14F15675   1.611   5.344   4.936 -0.6338 -0.0639 -0.7362
  143OSM   H14G15676   1.698   5.463   4.859 -3.8001  0.4988 -1.5308
  143OSM   C15F15677   1.823   5.281   4.912 -0.1281  0.7157  0.8388
  143OSM   H15F15678   1.906   5.351   4.887 -0.2014  0.8389  0.9354
  143OSM   H15G15679   1.832   5.179   4.871  0.3619  0.6416  1.1180
  143OSM   C16F15680   1.818   5.253   5.066 -0.2553  0.6286  1.0226
  143OSM   H16F15681   1.737   5.182   5.092 -0.6408  1.1013  1.1209
  143OSM   H16G15682   1.784   5.345   5.119 -0.1700 -0.4129  2.9327
  143OSM   C17F15683   1.952   5.219   5.126 -0.3187 -0.1616  0.6898
  143OSM   H17F15684   2.034   5.281   5.085 -0.9768  0.5337  0.4096
  143OSM   H17G15685   1.978   5.115   5.097 -0.2452 -0.3408  1.3810
  143OSM   C18F15686   1.952   5.239   5.273  0.6606  0.5532 -0.2061
  143OSM   H18F15687   2.038   5.202   5.333 -0.5116  1.1443  1.9901
  143OSM   H18G15688   1.865   5.184   5.317 -0.6589  1.2016 -1.8942
  143OSM   H18H15689   1.930   5.345   5.297  0.6352  0.1568  1.7512
  144OSM      N15690   2.443   5.865   2.564 -0.2676  0.5879  0.3169
  144OSM    C1515691   2.322   5.952   2.585  0.2137 -0.5219 -0.1234
  144OSM   H15A15692   2.261   5.924   2.670  0.0739  1.0878  0.3380
  144OSM   H15B15693   2.267   5.953   2.492 -0.2233  1.6259  0.0919
  144OSM   H15C15694   2.341   6.058   2.598  0.4454 -0.7700  1.9598
  144OSM    C1415695   2.396   5.736   2.511 -0.3483 -0.1635  0.0740
  144OSM   H14A15696   2.398   5.731   2.403 -1.3836  2.2739 -0.1007
  144OSM   H14B15697   2.294   5.711   2.539 -0.2172 -2.0915 -0.9705
  144OSM   H14C15698   2.459   5.658   2.552 -2.5463 -0.6395  2.8917
  144OSM    C1315699   2.525   5.929   2.455  0.1694 -0.0411 -0.3695
  144OSM   H13A15700   2.616   5.871   2.443 -0.5576 -1.1733 -0.5226
  144OSM   H13B15701   2.546   6.031   2.482  0.2190 -0.3338  0.7532
  144OSM   H13C15702   2.471   5.926   2.362  0.2108 -1.5556 -0.3764
  144OSM    C1215703   2.522   5.851   2.695  0.5335  0.0795 -0.2920
  144OSM   H12A15704   2.563   5.950   2.704 -1.1656  0.6713  2.2257
  144OSM   H12B15705   2.605   5.783   2.686  0.6559 -0.0348  1.3918
  144OSM    C1115706   2.448   5.816   2.829 -0.6792 -0.5294 -0.2885
  144OSM   H11A15707   2.384   5.905   2.846  2.2591  1.7811 -0.5403
  144OSM   H11B15708   2.518   5.809   2.915  0.7649  0.2718 -1.3564
  144OSM      P15709   2.222   5.680   2.811  0.2548 -0.1688 -0.1224
  144OSM    O1315710   2.157   5.811   2.798  0.3901  0.5810 -0.3226
  144OSM    O1415711   2.190   5.585   2.706 -0.2205 -0.4534 -0.1022
  144OSM    O1115712   2.181   5.613   2.946 -0.2388 -0.6152  0.4470
  144OSM    O1215713   2.373   5.695   2.823  0.6896 -0.4317 -0.0100
  144OSM    C1S15714   2.256   5.625   3.067  0.0884 -0.1818 -0.3107
  144OSM    H1S15715   2.271   5.732   3.093 -0.0917  0.0066 -0.9528
  144OSM    H1T15716   2.356   5.579   3.051  1.1028  2.2654 -1.6576
  144OSM     NF15717   2.239   5.606   3.315 -0.4558 -0.3501 -0.0245
  144OSM    HNF15718   2.306   5.540   3.349 -0.3892 -0.7508 -0.9078
  144OSM    C2S15719   2.174   5.563   3.196  0.2778 -0.0621  0.1713
  144OSM    H2S15720   2.071   5.606   3.198  0.6229  0.7775  0.7865
  144OSM    C3S15721   2.159   5.404   3.186  0.2789  0.7957 -0.0450
  144OSM    H3S15722   2.255   5.349   3.174  0.2689  0.2363  2.0309
  144OSM     O315723   2.083   5.382   3.073  0.2660  0.2278  0.4855
  144OSM    HO315724   2.076   5.463   3.022 -2.9797  0.9653  1.8514
  144OSM    C4S15725   2.094   5.358   3.315 -0.0449  0.6390 -0.2520
  144OSM    H4S15726   1.988   5.384   3.324 -0.6284 -0.7844 -2.2245
  144OSM    C5S15727   2.157   5.272   3.403  0.3992 -0.2359  0.0288
  144OSM    H5S15728   2.263   5.251   3.382  0.3394  0.3090 -0.8837
  144OSM    C6S15729   2.093   5.217   3.522  0.4330 -1.1132  0.3026
  144OSM    H6S15730   2.049   5.116   3.507 -0.5475 -0.7179  0.4119
  144OSM    H6T15731   2.008   5.282   3.553  0.8099 -1.0176  1.1687
  144OSM    C7S15732   2.202   5.209   3.639  0.7523 -0.0393  0.0886
  144OSM    H7S15733   2.278   5.136   3.604  0.0110 -1.4265  1.2174
  144OSM    H7T15734   2.150   5.159   3.724 -0.8813  1.4483  0.0332
  144OSM    C8S15735   2.270   5.336   3.692  0.0894  0.4185  0.3533
  144OSM    H8S15736   2.304   5.398   3.606 -0.5357 -0.3294 -0.4443
  144OSM    H8T15737   2.350   5.312   3.766 -1.3625 -0.6886  1.6380
  144OSM    C9S15738   2.188   5.429   3.770  0.3141  0.2941  1.2139
  144OSM    H9S15739   2.094   5.457   3.718  0.3611  0.5348  1.2533
  144OSM    H9T15740   2.244   5.525   3.783 -0.1210  1.3140 -2.9387
  144OSM   C10S15741   2.161   5.375   3.911 -0.9804  0.3945  0.0820
  144OSM   H10S15742   2.253   5.349   3.968 -2.9522 -0.0430  3.3093
  144OSM   H10T15743   2.104   5.280   3.914 -0.7203  0.2122  3.7627
  144OSM   C11S15744   2.086   5.470   3.998  0.4048 -0.0620 -0.4368
  144OSM   H11S15745   1.989   5.466   3.943  0.9884 -1.9763 -1.4271
  144OSM   H11T15746   2.131   5.572   3.990  3.0581 -0.9356  1.8636
  144OSM   C12S15747   2.078   5.421   4.140  0.1198  0.0253 -0.3239
  144OSM   H12S15748   2.184   5.413   4.174  0.5176 -0.0181 -1.5167
  144OSM   H12T15749   2.034   5.320   4.144 -3.0094  1.2504 -1.2525
  144OSM   C13S15750   1.991   5.511   4.230  0.2006  0.2934 -0.0408
  144OSM   H13S15751   1.883   5.488   4.222  0.2578 -0.2202  0.5859
  144OSM   H13T15752   2.004   5.617   4.199  0.2641  0.0125 -0.9993
  144OSM   C14S15753   2.043   5.509   4.378  0.4651  0.3904 -0.0323
  144OSM   H14S15754   2.020   5.598   4.440 -0.1779 -1.2744  2.2312
  144OSM   H14T15755   2.154   5.506   4.374  0.4489 -0.2484 -3.1176
  144OSM   C15S15756   1.984   5.394   4.460  0.1621  0.0368 -0.1361
  144OSM   H15S15757   2.002   5.315   4.384  1.1730  0.3408 -0.2212
  144OSM   H15T15758   1.877   5.415   4.481  0.3301  1.3115 -0.4809
  144OSM   C16S15759   2.077   5.353   4.576  0.2031 -0.1152 -0.9010
  144OSM   H16S15760   2.027   5.399   4.664 -0.7765 -3.2389  0.3249
  144OSM   H16T15761   2.180   5.392   4.564  1.2559 -2.4732 -0.0683
  144OSM   C17S15762   2.084   5.203   4.605  0.7930 -0.2825 -0.1161
  144OSM   H17S15763   2.105   5.145   4.514 -0.3437  1.3241 -1.4755
  144OSM   H17T15764   1.979   5.174   4.630  0.8435  1.0109  1.8912
  144OSM   C18S15765   2.171   5.171   4.724  0.7090  0.1945  0.4135
  144OSM   H18S15766   2.267   5.219   4.695  0.9015 -1.1794 -1.3729
  144OSM   H18T15767   2.188   5.062   4.732  2.8878  0.5662  1.5198
  144OSM   H18U15768   2.129   5.209   4.819 -0.0498  3.1018 -0.9503
  144OSM    C1F15769   2.248   5.737   3.345 -0.0955  0.0463 -0.1731
  144OSM     OF15770   2.167   5.820   3.296  0.2152  0.4380 -0.2773
  144OSM    C2F15771   2.355   5.777   3.444  0.5084  0.8113 -0.8628
  144OSM    H2F15772   2.391   5.877   3.412  1.1535 -0.4200 -4.4456
  144OSM    H2G15773   2.444   5.710   3.446 -1.4471 -1.9539  0.5332
  144OSM    C3F15774   2.299   5.799   3.589 -0.2095 -0.1723  0.2711
  144OSM    H3F15775   2.259   5.703   3.627  0.9158  0.0261  2.0244
  144OSM    H3G15776   2.220   5.878   3.585 -0.8765 -0.8578 -0.4004
  144OSM    C4F15777   2.411   5.842   3.680  0.5842 -0.1953 -0.0537
  144OSM    H4F15778   2.471   5.914   3.621  0.6290  0.7787  1.1350
  144OSM    H4G15779   2.479   5.755   3.690 -0.2926 -1.0200 -1.0827
  144OSM    C5F15780   2.374   5.885   3.819  0.1506  0.0209 -0.3451
  144OSM    H5F15781   2.467   5.880   3.880  0.2855 -2.7340 -0.6504
  144OSM    H5G15782   2.306   5.810   3.866  1.8673 -0.5894  1.2806
  144OSM    C6F15783   2.321   6.029   3.806  0.7083  0.0089  0.0999
  144OSM    H6F15784   2.239   6.046   3.733  1.5070 -0.8634 -1.0431
  144OSM    H6G15785   2.409   6.084   3.764 -0.4596  1.2472 -0.8173
  144OSM    C7F15786   2.285   6.097   3.949  0.3389  0.5912 -0.3680
  144OSM    H7F15787   2.225   6.033   4.017 -0.3878  1.8267  0.1857
  144OSM    H7G15788   2.229   6.190   3.926  3.9288  3.1283  0.3856
  144OSM    C8F15789   2.413   6.145   4.030 -0.5705  0.5834 -0.3538
  144OSM    H8F15790   2.471   6.054   4.003  0.2907  0.6640  1.1722
  144OSM    H8G15791   2.381   6.159   4.135  0.2413  1.0357 -0.1603
  144OSM    C9F15792   2.468   6.260   3.958 -0.0788  0.1137  0.0949
  144OSM    H9F15793   2.430   6.277   3.856  1.1075 -1.5928 -0.6651
  144OSM   C10F15794   2.532   6.358   4.027 -0.0084  0.1193 -0.1326
  144OSM   H10F15795   2.566   6.444   3.968 -1.5051  0.4656 -0.5132
  144OSM   C11F15796   2.576   6.358   4.164  0.5493 -0.5400 -0.3202
  144OSM   H11F15797   2.673   6.411   4.159  0.5754 -0.6414 -0.9623
  144OSM   H11G15798   2.587   6.256   4.205 -1.6805 -1.1221 -1.0034
  144OSM   C12F15799   2.486   6.429   4.267 -0.2107 -0.4310 -0.0750
  144OSM   H12F15800   2.530   6.439   4.368 -0.7262  1.8788 -0.0365
  144OSM   H12G15801   2.389   6.375   4.278 -0.3861  0.1617  1.6787
  144OSM   C13F15802   2.455   6.572   4.224  1.0281  0.9607 -0.2765
  144OSM   H13F15803   2.352   6.564   4.182  0.4176 -3.0454  1.5597
  144OSM   H13G15804   2.524   6.602   4.142  0.5193 -1.1369 -1.5512
  144OSM   C14F15805   2.444   6.669   4.341  0.1931  0.1182 -0.2058
  144OSM   H14F15806   2.397   6.758   4.295  0.0180 -0.0612 -0.3690
  144OSM   H14G15807   2.545   6.684   4.387 -0.0825 -0.1922  0.5201
  144OSM   C15F15808   2.355   6.613   4.463  0.5507 -0.4201  0.2528
  144OSM   H15F15809   2.372   6.511   4.501  1.5523  0.7598  3.2583
  144OSM   H15G15810   2.250   6.617   4.427  0.9424  0.6774 -0.8529
  144OSM   C16F15811   2.371   6.704   4.591  0.1869 -0.2204  0.0915
  144OSM   H16F15812   2.317   6.663   4.679  0.2322  1.5508  1.0118
  144OSM   H16G15813   2.332   6.803   4.558  2.5844  0.1737 -1.8331
  144OSM   C17F15814   2.516   6.715   4.646 -0.5580 -0.1789 -0.5879
  144OSM   H17F15815   2.503   6.761   4.747 -0.7239  0.7446 -1.0150
  144OSM   H17G15816   2.557   6.806   4.597  1.7760  0.2630  1.9231
  144OSM   C18F15817   2.611   6.595   4.635  1.1622 -0.7087 -0.4474
  144OSM   H18F15818   2.659   6.585   4.535  1.9917 -0.4749 -0.0793
  144OSM   H18G15819   2.569   6.496   4.664 -3.6691  1.3104  0.3123
  144OSM   H18H15820   2.696   6.614   4.704  1.0899 -0.3885 -0.4455
  145SAPE     N15821   4.110   6.023   7.334  0.2760  0.1403  0.5118
  145SAPE   HN115822   4.174   5.957   7.382  2.2902 -0.3285 -2.5593
  145SAPE   HN215823   4.045   6.071   7.400  0.9026  1.0750  0.4688
  145SAPE   HN315824   4.060   5.945   7.286  1.3293  0.2374 -0.7793
  145SAPE   C1215825   4.174   6.113   7.235  0.3581  0.0102  0.4030
  145SAPE  H12A15826   4.262   6.061   7.191 -0.6093 -1.2738 -0.0754
  145SAPE  H12B15827   4.212   6.204   7.286 -0.1861 -0.1554  1.1222
  145SAPE   C1115828   4.069   6.148   7.125 -0.5612  0.1005 -0.0545
  145SAPE  H11A15829   4.054   6.050   7.074  0.6611  0.6100 -1.4902
  145SAPE  H11B15830   4.108   6.216   7.045  0.4075 -0.6614 -0.2565
  145SAPE     P15831   3.812   6.185   7.122  0.1039 -0.3002  0.0960
  145SAPE   O1315832   3.784   6.044   7.134  0.5924  0.8470  0.1498
  145SAPE   O1415833   3.713   6.274   7.184 -0.0848 -0.4985  0.2302
  145SAPE   O1215834   3.956   6.223   7.172 -0.0908 -0.2117 -0.3294
  145SAPE   O1115835   3.818   6.237   6.974 -0.3482 -0.3747 -0.4248
  145SAPE    C115836   3.719   6.199   6.877 -0.0528 -0.5108 -0.5139
  145SAPE    HA15837   3.720   6.090   6.860 -1.0421 -0.6256  0.0971
  145SAPE    HB15838   3.620   6.227   6.919  0.3423  0.7719 -0.3891
  145SAPE    C215839   3.738   6.281   6.746  0.0896  0.0084  0.9258
  145SAPE    HS15840   3.673   6.233   6.670  2.2485 -1.5539 -0.0363
  145SAPE   O2115841   3.872   6.281   6.700  0.1808  0.5327 -0.0802
  145SAPE   C2115842   3.917   6.163   6.661  0.0149 -0.2906 -0.6348
  145SAPE   O2215843   3.847   6.068   6.630 -0.2993 -0.1045 -0.0273
  145SAPE   C2215844   4.070   6.169   6.638 -0.2940  0.1180 -0.4729
  145SAPE   H2R15845   4.105   6.270   6.607  0.3961 -0.0520 -0.2679
  145SAPE   H2S15846   4.115   6.141   6.735  0.6471  0.0156 -0.9257
  145SAPE    C315847   3.687   6.424   6.760  0.6630  0.5170  0.1720
  145SAPE    HX15848   3.727   6.490   6.839  0.1335 -0.8342  1.6055
  145SAPE    HY15849   3.576   6.424   6.770  0.4294  0.7714 -1.9335
  145SAPE   O3115850   3.689   6.499   6.637  0.4274  0.6979 -0.0376
  145SAPE   C3115851   3.794   6.569   6.610 -0.8644 -0.1718 -0.4135
  145SAPE   O3215852   3.897   6.573   6.679  0.1557  0.1911  0.1081
  145SAPE   C3215853   3.782   6.638   6.473 -0.1170  0.5386  0.7090
  145SAPE   H2X15854   3.867   6.709   6.463 -0.3676  0.8096  0.4603
  145SAPE   H2Y15855   3.683   6.687   6.458 -0.5745 -0.7546 -0.8351
  145SAPE   C2315856   4.129   6.066   6.535 -0.0519  0.3023 -0.1364
  145SAPE   H3R15857   4.073   6.071   6.439 -0.9486  0.4070  0.3717
  145SAPE   H3S15858   4.102   5.968   6.580 -2.4966  0.9142 -0.0902
  145SAPE   C2415859   4.279   6.086   6.501  0.1088  0.2419 -0.1400
  145SAPE   H4R15860   4.281   6.189   6.458 -1.8576 -0.0259 -0.9671
  145SAPE   H4S15861   4.297   6.019   6.414  0.3610  0.0293  0.0739
  145SAPE   C2515862   4.371   6.080   6.623 -0.0573  0.0073 -0.4889
  145SAPE   H5R15863   4.345   6.154   6.700  0.2073 -1.5184  1.1205
  145SAPE   C2615864   4.484   6.004   6.634 -0.2964  1.3055 -0.2140
  145SAPE   H6R15865   4.546   6.010   6.725  0.5165 -1.7411 -0.4395
  145SAPE   C2715866   4.531   5.913   6.526 -0.1395  0.7190 -0.1209
  145SAPE   H7R15867   4.507   5.956   6.426  3.0177  1.3903 -0.6838
  145SAPE   H7S15868   4.475   5.817   6.533 -0.0847  0.8114  2.8081
  145SAPE   C2815869   4.673   5.868   6.527  0.1947  0.3195 -0.0290
  145SAPE   H8R15870   4.737   5.901   6.610  2.4983 -1.7927 -0.8229
  145SAPE   C2915871   4.739   5.812   6.417  0.6571 -0.5455 -0.6091
  145SAPE   H9R15872   4.843   5.778   6.429  0.9481 -0.6774 -2.9848
  145SAPE  C21015873   4.676   5.760   6.293  0.5691 -0.3282  0.5113
  145SAPE  H10R15874   4.664   5.843   6.220 -0.0520 -0.8487  0.0137
  145SAPE  H10S15875   4.567   5.738   6.306 -0.1851  1.9829 -1.1270
  145SAPE  C21115876   4.732   5.636   6.233 -0.6223  0.1735  0.2483
  145SAPE  H11R15877   4.753   5.552   6.301  0.3734  0.5653  0.4414
  145SAPE  C21215878   4.759   5.615   6.098  0.0402  0.2101  0.5429
  145SAPE  H12R15879   4.783   5.514   6.062  1.4195  0.9524 -0.6972
  145SAPE  C21315880   4.749   5.716   5.987 -0.3100 -0.0095 -0.2124
  145SAPE  H13R15881   4.752   5.818   6.030  2.4128  0.1552 -0.6579
  145SAPE  H13S15882   4.648   5.695   5.944 -0.1973  1.2439 -1.1385
  145SAPE  C21415883   4.848   5.707   5.878 -0.2174  0.2591 -0.3099
  145SAPE  H14R15884   4.952   5.676   5.899 -0.8051 -0.0884  2.4779
  145SAPE  C21515885   4.822   5.732   5.750 -0.4102  0.1433  0.3639
  145SAPE  H15R15886   4.899   5.728   5.671  0.2480 -0.0085  1.0082
  145SAPE  C21615887   4.691   5.772   5.686  0.7776 -0.4169  0.2915
  145SAPE  H16R15888   4.610   5.767   5.762  0.6261 -2.5181  0.0719
  145SAPE  H16S15889   4.656   5.696   5.612 -2.4056  1.1688  0.0342
  145SAPE  C21715890   4.691   5.915   5.626 -0.2752  0.2524  0.4584
  145SAPE  H17R15891   4.722   5.982   5.709 -1.0617  0.0381  0.9377
  145SAPE  H17S15892   4.583   5.935   5.608  0.1863  1.9657 -0.6282
  145SAPE  C21815893   4.771   5.924   5.493  0.2648 -0.7865 -0.3458
  145SAPE  H18R15894   4.877   5.899   5.512  0.4088  0.4880  0.6064
  145SAPE  H18S15895   4.765   6.033   5.476  0.4130 -0.9273 -1.3149
  145SAPE  C21915896   4.707   5.877   5.358 -0.2136  0.0798 -0.8193
  145SAPE  H19R15897   4.606   5.922   5.343 -0.4890 -0.4156 -0.4892
  145SAPE  H19S15898   4.687   5.768   5.364 -1.7459  0.3595 -0.3354
  145SAPE  C22015899   4.790   5.923   5.242 -0.3240 -0.5655 -0.4109
  145SAPE  H20R15900   4.747   5.901   5.142 -1.2093  0.6278 -0.3086
  145SAPE  H20S15901   4.892   5.880   5.249  0.4588  0.9279 -1.9628
  145SAPE  H20T15902   4.800   6.033   5.244  3.2230 -0.7715  1.6983
  145SAPE   C3315903   3.807   6.543   6.349 -0.1228 -0.2631  0.2463
  145SAPE   H3X15904   3.740   6.455   6.359 -1.7698  0.9507  0.5489
  145SAPE   H3Y15905   3.909   6.500   6.353 -0.1400 -0.2996  0.2908
  145SAPE   C3415906   3.789   6.616   6.210  0.5523 -0.3097 -0.1164
  145SAPE   H4X15907   3.871   6.691   6.199  1.9630 -1.6156  1.0148
  145SAPE   H4Y15908   3.691   6.668   6.210  1.4310  1.6330 -3.3135
  145SAPE   C3515909   3.792   6.513   6.092  0.2752 -0.4481  0.0418
  145SAPE   H5X15910   3.711   6.440   6.113  0.7229 -0.9112  0.1751
  145SAPE   H5Y15911   3.894   6.471   6.108  1.2832  1.7073 -0.3493
  145SAPE   C3615912   3.774   6.575   5.949 -0.0577  0.5149  0.7460
  145SAPE   H6X15913   3.852   6.654   5.949  1.0675 -0.5680  0.4922
  145SAPE   H6Y15914   3.668   6.610   5.945 -0.4668 -0.5214  1.8989
  145SAPE   C3715915   3.820   6.478   5.840  0.1687  0.0866  0.8887
  145SAPE   H7X15916   3.760   6.387   5.857  0.7393 -0.2232  1.2774
  145SAPE   H7Y15917   3.929   6.463   5.856  0.1754  0.7070  1.4889
  145SAPE   C3815918   3.809   6.541   5.703  0.0205  0.2245 -0.0672
  145SAPE   H8X15919   3.889   6.618   5.690  0.4756  0.0144  1.3364
  145SAPE   H8Y15920   3.712   6.592   5.687 -0.1765 -0.7251 -2.3287
  145SAPE   C3915921   3.825   6.438   5.588  0.6863 -0.0618 -0.0245
  145SAPE   H9X15922   3.787   6.339   5.620  1.5768 -0.1797  0.7100
  145SAPE   H9Y15923   3.930   6.406   5.570  1.5655  1.7136  1.6160
  145SAPE  C31015924   3.751   6.482   5.461 -0.3110  0.3250 -0.6459
  145SAPE  H10X15925   3.774   6.589   5.440 -0.0070  1.1176  3.0530
  145SAPE  H10Y15926   3.642   6.470   5.481  0.1538 -1.4805  1.1055
  145SAPE  C31115927   3.789   6.398   5.339 -0.4809  0.1340  0.3915
  145SAPE  H11X15928   3.783   6.290   5.368  2.5888  0.0059  0.8876
  145SAPE  H11Y15929   3.897   6.411   5.316 -0.7573  0.7376 -0.6011
  145SAPE  C31215930   3.701   6.424   5.218  0.3632 -0.7527  0.7644
  145SAPE  H12X15931   3.704   6.531   5.188 -2.4817 -0.5727  0.8345
  145SAPE  H12Y15932   3.594   6.404   5.243 -0.5293  2.5539  0.0619
  145SAPE  C31315933   3.750   6.351   5.091 -0.3936  0.0313 -0.3177
  145SAPE  H13X15934   3.694   6.381   5.000  1.1321  2.9983 -0.4032
  145SAPE  H13Y15935   3.737   6.241   5.098  0.1225 -0.0632 -0.8115
  145SAPE  C31415936   3.900   6.360   5.055  0.1322 -0.8399 -0.6990
  145SAPE  H14X15937   3.967   6.289   5.108  0.4030 -0.8512 -1.0489
  145SAPE  H14Y15938   3.938   6.458   5.091  2.3704 -0.8211 -2.7862
  145SAPE  C31515939   3.938   6.359   4.908  0.2164 -0.0198 -0.6118
  145SAPE  H15X15940   4.043   6.392   4.891  0.2950  0.3803  0.5746
  145SAPE  H15Y15941   3.877   6.434   4.853 -1.5209 -0.4870  0.6050
  145SAPE  C31615942   3.919   6.215   4.852  0.2504 -0.3667  0.7868
  145SAPE  H16X15943   3.825   6.177   4.898 -1.0351  1.1898 -0.4173
  145SAPE  H16Y15944   3.998   6.154   4.901 -0.1597 -1.5120  0.0683
  145SAPE  C31715945   3.911   6.219   4.696 -0.5658 -0.1337 -0.3319
  145SAPE  H17X15946   3.818   6.269   4.662  0.2679  1.4479 -0.3614
  145SAPE  H17Y15947   3.898   6.110   4.676 -2.3698 -0.2357  1.1713
  145SAPE  C31815948   4.044   6.272   4.637  0.3585  0.3686  0.8024
  145SAPE  H18X15949   4.057   6.235   4.533  0.1232  0.2550  0.8116
  145SAPE  H18Y15950   4.130   6.225   4.690  0.5878 -2.1637 -1.5591
  145SAPE  H18Z15951   4.045   6.382   4.650 -0.9293  0.5093 -0.0767
  146SAPE     N15952   1.793   6.732   7.921 -0.6506 -0.2001 -0.2289
  146SAPE   HN115953   1.771   6.733   8.023  0.6683 -0.3594  0.0647
  146SAPE   HN215954   1.866   6.802   7.897  2.0293 -1.5136  3.2808
  146SAPE   HN315955   1.701   6.759   7.880 -0.3492 -0.2515 -0.9488
  146SAPE   C1215956   1.827   6.592   7.864  0.4804  0.5000  0.1935
  146SAPE  H12A15957   1.736   6.529   7.859  1.6948 -1.7597  3.2980
  146SAPE  H12B15958   1.892   6.533   7.932 -0.9737 -3.1295 -1.2974
  146SAPE   C1115959   1.891   6.598   7.723 -0.2349  0.4277 -0.4407
  146SAPE  H11A15960   1.831   6.659   7.652  1.9654 -0.0190 -2.8262
  146SAPE  H11B15961   1.889   6.491   7.693  2.4634  0.3894 -0.7204
  146SAPE     P15962   2.081   6.779   7.723 -0.2663 -0.0759 -0.6678
  146SAPE   O1315963   1.984   6.870   7.789 -0.4341  0.3287 -0.0768
  146SAPE   O1415964   2.220   6.793   7.774 -0.1255 -0.4308 -0.2743
  146SAPE   O1215965   2.029   6.630   7.729 -0.5986  0.2400  0.5819
  146SAPE   O1115966   2.081   6.809   7.571 -0.8368 -0.1903  0.4979
  146SAPE    C115967   2.097   6.713   7.470  0.3814 -0.1326  0.4942
  146SAPE    HA15968   2.183   6.643   7.482  1.9705  1.7369  0.5474
  146SAPE    HB15969   2.001   6.657   7.470 -1.4248  2.7471 -0.8055
  146SAPE    C215970   2.108   6.769   7.323  0.2396  0.4612  0.3949
  146SAPE    HS15971   2.040   6.856   7.310  0.3639  0.3055 -1.8135
  146SAPE   O2115972   2.063   6.667   7.229 -0.1299  0.4800 -0.1576
  146SAPE   C2115973   1.943   6.686   7.179 -0.2232 -0.4059  0.3611
  146SAPE   O2215974   1.868   6.770   7.216 -0.4408 -0.1182  0.5678
  146SAPE   C2215975   1.911   6.584   7.071  0.3152  0.0112  0.7112
  146SAPE   H2R15976   1.948   6.482   7.096 -1.3801 -0.6818  0.5252
  146SAPE   H2S15977   1.800   6.581   7.071  0.2922 -0.6686 -1.6346
  146SAPE    C315978   2.253   6.806   7.287 -0.2011  0.4166  0.2666
  146SAPE    HX15979   2.311   6.713   7.306  1.0518  0.7052 -1.8720
  146SAPE    HY15980   2.303   6.886   7.344  0.9060  1.4664 -2.0538
  146SAPE   O3115981   2.256   6.839   7.151 -0.4026  0.1997 -0.5536
  146SAPE   C3115982   2.293   6.966   7.128  0.0031 -0.5524  0.0030
  146SAPE   O3215983   2.298   7.055   7.210 -0.0629  0.0309 -0.0564
  146SAPE   C3215984   2.328   6.984   6.982 -0.0604 -0.4688  0.8307
  146SAPE   H2X15985   2.400   6.906   6.949 -1.2138 -1.3860  0.4251
  146SAPE   H2Y15986   2.355   7.091   6.968  0.2888 -0.7338 -0.8068
  146SAPE   C2315987   1.951   6.630   6.928 -0.1555  0.0116 -0.0404
  146SAPE   H3R15988   2.057   6.665   6.926 -0.6857  1.7540 -2.3343
  146SAPE   H3S15989   1.878   6.711   6.903 -2.0575 -1.5804  0.1779
  146SAPE   C2415990   1.942   6.516   6.823  0.0933 -0.8513 -0.3774
  146SAPE   H4R15991   1.847   6.463   6.848 -1.8779  1.8806 -1.5033
  146SAPE   H4S15992   2.030   6.453   6.848  0.7776  0.2252  0.0188
  146SAPE   C2515993   1.958   6.549   6.680 -0.5225  0.3141 -0.0386
  146SAPE   H5R15994   2.041   6.617   6.657  0.3632  0.4255  3.0525
  146SAPE   C2615995   1.900   6.482   6.578 -0.1103  0.6764 -0.3091
  146SAPE   H6R15996   1.910   6.503   6.471  0.0769  0.7218 -0.2822
  146SAPE   C2715997   1.796   6.367   6.588  0.1005  0.0718  0.3684
  146SAPE   H7R15998   1.746   6.374   6.489 -1.3698  0.7868  1.1274
  146SAPE   H7S15999   1.729   6.388   6.674  2.8028  0.0344  2.6083
  146SAPE   C2816000   1.852   6.235   6.613 -0.1158  0.7177  0.8041
  146SAPE   H8R16001   1.909   6.236   6.707  0.0081  1.3879  0.7298
  146SAPE   C2916002   1.871   6.124   6.527 -0.1986 -0.2405 -0.2366
  146SAPE   H9R16003   1.924   6.037   6.567  0.7871  0.1784 -0.5913
  146SAPE  C21016004   1.811   6.117   6.383  0.2402 -0.4157 -0.1695
  146SAPE  H10R16005   1.723   6.186   6.382  0.6497  0.1619  1.0793
  146SAPE  H10S16006   1.769   6.015   6.371  0.3883 -0.5430  0.3950
  146SAPE  C21116007   1.908   6.137   6.270  0.9120  0.1482  0.4147
  146SAPE  H11R16008   2.007   6.168   6.306  2.1758 -0.0927 -2.5577
  146SAPE  C21216009   1.880   6.160   6.141 -0.3117  0.1989  0.3972
  146SAPE  H12R16010   1.967   6.167   6.074 -0.3611 -1.8942  0.0263
  146SAPE  C21316011   1.742   6.146   6.073 -0.4273 -0.8400 -0.1234
  146SAPE  H13R16012   1.681   6.238   6.086  1.6026  0.3232  1.9278
  146SAPE  H13S16013   1.672   6.071   6.114 -1.5238 -0.5721 -1.4102
  146SAPE  C21416014   1.751   6.094   5.927  0.0275  0.2881  0.4938
  146SAPE  H14R16015   1.726   5.987   5.921  1.4009 -0.2549  3.0440
  146SAPE  C21516016   1.797   6.165   5.824 -0.7156  0.3850 -0.1780
  146SAPE  H15R16017   1.789   6.111   5.728 -0.4820 -0.1234  0.0844
  146SAPE  C21616018   1.825   6.315   5.817 -0.2542  0.6661  0.1096
  146SAPE  H16R16019   1.837   6.357   5.919  2.4431  1.6413 -0.5203
  146SAPE  H16S16020   1.743   6.368   5.764 -2.4030 -3.2232 -0.8262
  146SAPE  C21716021   1.953   6.350   5.742  0.5122 -0.3681  0.1204
  146SAPE  H17R16022   2.039   6.283   5.762  0.6999 -1.0625 -2.6146
  146SAPE  H17S16023   1.984   6.453   5.769 -0.5791 -0.6094  2.5960
  146SAPE  C21816024   1.929   6.341   5.590  0.1663  0.6844 -0.2092
  146SAPE  H18R16025   1.850   6.268   5.561 -0.2608  0.8525  0.5146
  146SAPE  H18S16026   2.027   6.307   5.550  0.0392  0.8534 -0.6804
  146SAPE  C21916027   1.883   6.469   5.536  0.0598 -0.3050  0.9241
  146SAPE  H19R16028   1.958   6.548   5.556 -0.1228 -0.1117  0.8435
  146SAPE  H19S16029   1.784   6.484   5.585  0.3299  0.2333  1.3099
  146SAPE  C22016030   1.854   6.467   5.380  0.2122  0.6648 -0.2088
  146SAPE  H20R16031   1.796   6.555   5.346 -0.9624 -0.2847 -0.7460
  146SAPE  H20S16032   1.798   6.375   5.354  0.3562  0.2590  0.8397
  146SAPE  H20T16033   1.952   6.460   5.327  0.2504 -0.9563  0.0009
  146SAPE   C3316034   2.203   6.940   6.885 -0.7261  0.3370  0.1951
  146SAPE   H3X16035   2.125   7.019   6.889  0.5012  1.7591 -2.0350
  146SAPE   H3Y16036   2.160   6.844   6.919  1.2814 -1.0041 -0.8585
  146SAPE   C3416037   2.249   6.921   6.741 -1.0288 -0.0353 -0.3228
  146SAPE   H4X16038   2.336   6.852   6.733  0.1693  1.1218  1.8946
  146SAPE   H4Y16039   2.284   7.018   6.699  1.0486  0.2051  1.7644
  146SAPE   C3516040   2.126   6.878   6.654 -0.6878  0.5497 -0.2573
  146SAPE   H5X16041   2.055   6.961   6.632 -1.5945 -0.5744 -1.6751
  146SAPE   H5Y16042   2.066   6.807   6.714 -2.8382  0.1220 -2.7362
  146SAPE   C3616043   2.176   6.818   6.523  0.2741 -0.9718 -1.0744
  146SAPE   H6X16044   2.206   6.712   6.542  3.2365 -0.0685 -0.2357
  146SAPE   H6Y16045   2.261   6.877   6.483  0.1400 -0.4481 -0.5928
  146SAPE   C3716046   2.068   6.809   6.414 -0.2144  0.1331 -0.5416
  146SAPE   H7X16047   2.001   6.898   6.420 -1.0143 -0.4396 -0.8228
  146SAPE   H7Y16048   2.013   6.714   6.428  0.1871 -0.3891 -2.3190
  146SAPE   C3816049   2.120   6.800   6.268  0.1488  0.2608 -0.3687
  146SAPE   H8X16050   2.169   6.701   6.254 -1.4528 -0.6719  0.3071
  146SAPE   H8Y16051   2.195   6.881   6.257 -0.0393  0.6110  0.7430
  146SAPE   C3916052   2.008   6.825   6.162  0.1904 -0.0928 -0.2420
  146SAPE   H9X16053   2.054   6.813   6.062  0.3413 -1.1038 -0.0606
  146SAPE   H9Y16054   1.949   6.920   6.163  1.0609  0.4641  0.6004
  146SAPE  C31016055   1.894   6.722   6.175  0.1325 -0.3080  0.4114
  146SAPE  H10X16056   1.828   6.753   6.259  0.9503  2.3953  0.1491
  146SAPE  H10Y16057   1.931   6.618   6.186  2.4121  0.6506  3.4358
  146SAPE  C31116058   1.783   6.731   6.064 -0.2426  0.0968  0.5189
  146SAPE  H11X16059   1.745   6.834   6.052  2.0194  0.8587 -0.8323
  146SAPE  H11Y16060   1.696   6.679   6.109 -0.1073  1.0321  1.9268
  146SAPE  C31216061   1.824   6.667   5.926  0.4320 -0.0225  0.5474
  146SAPE  H12X16062   1.876   6.569   5.933  0.7646  0.1223  0.1121
  146SAPE  H12Y16063   1.899   6.738   5.884 -0.1950  0.4717  0.2369
  146SAPE  C31316064   1.713   6.661   5.819 -0.0623 -0.0933 -0.6183
  146SAPE  H13X16065   1.638   6.589   5.856  0.8083 -0.4832  0.4494
  146SAPE  H13Y16066   1.753   6.623   5.723  2.0927  0.5894 -0.0516
  146SAPE  C31416067   1.641   6.789   5.786 -0.0690 -0.4642  0.3902
  146SAPE  H14X16068   1.719   6.855   5.742  0.2088 -1.6685 -1.0326
  146SAPE  H14Y16069   1.599   6.826   5.882 -1.9842 -0.4598 -0.4237
  146SAPE  C31516070   1.531   6.768   5.680  0.5066  0.0819  0.0400
  146SAPE  H15X16071   1.475   6.864   5.665 -0.6004 -0.2460  1.7019
  146SAPE  H15Y16072   1.459   6.699   5.730 -0.1992  0.6503 -0.1654
  146SAPE  C31616073   1.560   6.712   5.538 -0.0527 -0.3222  0.3399
  146SAPE  H16X16074   1.556   6.601   5.535 -1.4914 -0.3354  1.7459
  146SAPE  H16Y16075   1.662   6.734   5.499  1.2337 -0.0890  3.4847
  146SAPE  C31716076   1.456   6.777   5.445  0.2921  0.2046 -0.4429
  146SAPE  H17X16077   1.460   6.887   5.450 -0.1152  0.2098 -0.1899
  146SAPE  H17Y16078   1.351   6.747   5.469  0.4965 -0.2062 -0.0404
  146SAPE  C31816079   1.493   6.728   5.304 -0.0231 -0.5168 -0.2140
  146SAPE  H18X16080   1.494   6.617   5.303 -0.6840 -0.5232 -1.0941
  146SAPE  H18Y16081   1.587   6.774   5.266  0.3145 -2.0720 -1.3563
  146SAPE  H18Z16082   1.407   6.757   5.241 -2.1855  0.1378  2.8288
  147SAPE     N16083   6.677   3.854   7.480  0.4381 -0.0016 -0.1026
  147SAPE   HN116084   6.626   3.852   7.571  0.7669  1.1896  0.1217
  147SAPE   HN216085   6.745   3.932   7.485  2.5200 -1.7714  0.8104
  147SAPE   HN316086   6.614   3.873   7.399 -0.3371 -1.8239  0.0047
  147SAPE   C1216087   6.753   3.726   7.460  0.7615  0.5888  0.1938
  147SAPE  H12A16088   6.683   3.641   7.479  2.6921 -0.7154  2.0017
  147SAPE  H12B16089   6.834   3.721   7.536 -0.8837  2.3638  2.1982
  147SAPE   C1116090   6.810   3.714   7.309  0.0791 -0.1753  0.4141
  147SAPE  H11A16091   6.862   3.616   7.303 -0.2320 -0.4647  2.0142
  147SAPE  H11B16092   6.883   3.794   7.285 -0.1282 -0.3163 -0.7190
  147SAPE     P16093   6.619   3.611   7.157 -0.1817  0.2003 -0.2271
  147SAPE   O1316094   6.644   3.483   7.230 -0.4294 -0.8370  0.2548
  147SAPE   O1416095   6.481   3.656   7.153  0.9642 -0.1683 -0.4888
  147SAPE   O1216096   6.701   3.725   7.218  0.5448 -0.1809  0.5257
  147SAPE   O1116097   6.671   3.598   7.013  0.3234 -0.2098 -0.2576
  147SAPE    C116098   6.722   3.709   6.934 -0.0686  0.2204 -0.1227
  147SAPE    HA16099   6.793   3.777   6.986  0.1517 -0.4036  0.4048
  147SAPE    HB16100   6.785   3.666   6.853  2.1258  0.6531  1.2520
  147SAPE    C216101   6.611   3.793   6.869 -0.0642  0.0984 -0.2031
  147SAPE    HS16102   6.544   3.824   6.952  1.9824  1.1345  1.1631
  147SAPE   O2116103   6.548   3.708   6.762  0.1077 -1.3095  0.5638
  147SAPE   C2116104   6.435   3.756   6.718  0.2909  0.1693  0.7852
  147SAPE   O2216105   6.371   3.846   6.766 -0.2392 -0.3794 -0.0517
  147SAPE   C2216106   6.390   3.668   6.603 -0.2502 -0.1773 -0.1525
  147SAPE   H2R16107   6.335   3.582   6.648 -1.7111  0.4167 -0.7662
  147SAPE   H2S16108   6.317   3.734   6.553 -0.1215 -0.4270 -0.6824
  147SAPE    C316109   6.657   3.929   6.820  0.5744  0.1182 -0.0811
  147SAPE    HX16110   6.714   3.980   6.900 -1.4953 -0.2425  1.7167
  147SAPE    HY16111   6.569   3.993   6.798  1.2672  0.9934 -0.3544
  147SAPE   O3116112   6.746   3.916   6.704  0.0275 -0.0580  0.2263
  147SAPE   C3116113   6.784   4.029   6.654 -0.3038 -0.1986 -0.9978
  147SAPE   O3216114   6.770   4.135   6.711 -0.4277 -0.2033 -0.4437
  147SAPE   C3216115   6.855   4.012   6.517  0.1776  1.1683  0.7273
  147SAPE   H2X16116   6.812   3.931   6.456  2.7033 -0.6373  1.1878
  147SAPE   H2Y16117   6.957   3.973   6.537 -0.2803 -1.0603 -0.9613
  147SAPE   C2316118   6.490   3.636   6.488  0.1626  0.3034 -0.1347
  147SAPE   H3R16119   6.435   3.586   6.406 -0.5352  0.3828  0.2774
  147SAPE   H3S16120   6.554   3.554   6.529 -0.5634 -1.2674 -2.0068
  147SAPE   C2416121   6.587   3.743   6.434 -0.4463  0.8859 -0.1168
  147SAPE   H4R16122   6.690   3.704   6.420 -0.7773  0.6737 -2.1851
  147SAPE   H4S16123   6.606   3.816   6.516  2.3602 -1.1074  1.1249
  147SAPE   C2516124   6.536   3.797   6.302  0.0090  0.0936 -0.4395
  147SAPE   H5R16125   6.426   3.806   6.300 -0.2852 -1.4604  2.7602
  147SAPE   C2616126   6.611   3.831   6.195 -0.2327  0.5354 -0.5759
  147SAPE   H6R16127   6.565   3.848   6.097  1.0502 -2.9508 -1.9232
  147SAPE   C2716128   6.767   3.838   6.189  0.4676 -0.1090  0.3458
  147SAPE   H7R16129   6.821   3.815   6.284  3.1261 -2.2261 -1.5136
  147SAPE   H7S16130   6.809   3.934   6.154  1.0174  0.2090  1.7990
  147SAPE   C2816131   6.817   3.725   6.101 -0.5361 -0.3637  0.2361
  147SAPE   H8R16132   6.804   3.630   6.155 -0.6732  1.3346  3.4696
  147SAPE   C2916133   6.856   3.728   5.974 -0.5755  1.1623 -0.4852
  147SAPE   H9R16134   6.879   3.629   5.933 -1.7954  0.7277 -0.1536
  147SAPE  C21016135   6.886   3.847   5.891  0.1144  0.0716  0.1854
  147SAPE  H10R16136   6.964   3.831   5.814 -0.1293 -1.3206  0.2017
  147SAPE  H10S16137   6.927   3.927   5.957 -0.3827  0.2307  0.3089
  147SAPE  C21116138   6.757   3.891   5.837  0.6169 -0.5361 -0.2325
  147SAPE  H11R16139   6.667   3.887   5.900  1.2596 -2.0494  0.6581
  147SAPE  C21216140   6.740   3.936   5.709  0.3124  0.1621 -0.0275
  147SAPE  H12R16141   6.642   3.932   5.659  1.1604  1.3094 -1.8959
  147SAPE  C21316142   6.857   3.961   5.609 -0.3623  0.8062  0.0308
  147SAPE  H13R16143   6.951   3.976   5.666  0.4097 -4.8373  0.8576
  147SAPE  H13S16144   6.846   4.058   5.557  1.8222  0.3799 -1.3331
  147SAPE  C21416145   6.884   3.862   5.495 -0.7096 -0.3671  0.5767
  147SAPE  H14R16146   6.947   3.778   5.527 -2.3167 -1.7666  0.2306
  147SAPE  C21516147   6.843   3.870   5.364  0.9486 -0.5982  0.6803
  147SAPE  H15R16148   6.880   3.799   5.288  1.3075 -0.3794  0.6456
  147SAPE  C21616149   6.746   3.978   5.302 -0.2935  0.3530 -0.6419
  147SAPE  H16R16150   6.811   4.057   5.259 -1.9728  2.1420  0.0019
  147SAPE  H16S16151   6.687   4.027   5.383  0.2104 -1.2359  0.7631
  147SAPE  C21716152   6.644   3.934   5.193 -0.0536 -0.3910 -0.4212
  147SAPE  H17R16153   6.696   3.885   5.107 -2.1819 -1.6278 -1.0664
  147SAPE  H17S16154   6.597   4.023   5.147 -0.1839 -0.0262  0.4124
  147SAPE  C21816155   6.548   3.826   5.245  0.3818 -0.2268  0.2582
  147SAPE  H18R16156   6.609   3.747   5.292  1.8694  2.0522  2.4120
  147SAPE  H18S16157   6.484   3.787   5.162  0.1477 -1.1954  0.8843
  147SAPE  C21916158   6.459   3.876   5.354  0.6427  0.0884  0.0620
  147SAPE  H19R16159   6.419   3.969   5.309 -0.6308 -0.4862 -0.0378
  147SAPE  H19S16160   6.503   3.898   5.454  4.8829  2.1842 -2.0085
  147SAPE  C22016161   6.337   3.786   5.379  0.4766 -0.0238  0.2102
  147SAPE  H20R16162   6.265   3.841   5.444 -1.1178 -0.7183 -0.8984
  147SAPE  H20S16163   6.370   3.687   5.417  1.4894  0.2855  0.1646
  147SAPE  H20T16164   6.283   3.764   5.284 -1.0797 -1.3119  1.3301
  147SAPE   C3316165   6.852   4.147   6.439  0.2340 -0.4567 -0.0980
  147SAPE   H3X16166   6.896   4.125   6.340  0.9032 -1.3913  0.3901
  147SAPE   H3Y16167   6.914   4.224   6.490  0.1164 -1.0383  0.9462
  147SAPE   C3416168   6.719   4.210   6.411 -0.1610 -0.0359 -0.3754
  147SAPE   H4X16169   6.664   4.229   6.505  0.2858 -1.9600  0.3094
  147SAPE   H4Y16170   6.667   4.131   6.352  0.1744  0.2182 -1.0300
  147SAPE   C3516171   6.704   4.335   6.321 -0.5900  0.2091 -0.2654
  147SAPE   H5X16172   6.762   4.419   6.363 -0.7762 -0.2393  0.9474
  147SAPE   H5Y16173   6.595   4.359   6.322 -1.1827 -2.2083  0.2886
  147SAPE   C3616174   6.735   4.325   6.168  0.3024  0.1003 -0.0963
  147SAPE   H6X16175   6.683   4.239   6.119  2.9088  0.5149 -4.0217
  147SAPE   H6Y16176   6.843   4.299   6.167  0.4852  0.8264 -1.4287
  147SAPE   C3716177   6.711   4.461   6.100  0.2868  0.5432  0.5410
  147SAPE   H7X16178   6.739   4.550   6.159 -0.1074  1.2315 -0.2919
  147SAPE   H7Y16179   6.601   4.464   6.083  0.1124  0.4032  1.5903
  147SAPE   C3816180   6.779   4.457   5.966  0.3353 -0.0774  0.2977
  147SAPE   H8X16181   6.734   4.376   5.904  0.0107  0.8443 -0.7129
  147SAPE   H8Y16182   6.883   4.425   5.986  0.2389 -1.0174 -0.6375
  147SAPE   C3916183   6.750   4.589   5.890  0.0489  0.0518  0.2007
  147SAPE   H9X16184   6.766   4.668   5.967 -1.1369 -0.3936  0.9360
  147SAPE   H9Y16185   6.650   4.585   5.841  1.0345 -2.1357 -1.8100
  147SAPE  C31016186   6.845   4.607   5.772 -0.0197 -0.3875 -0.0196
  147SAPE  H10X16187   6.840   4.525   5.697 -0.4480 -1.4727  1.1609
  147SAPE  H10Y16188   6.945   4.620   5.819  0.7462 -0.6222 -1.5400
  147SAPE  C31116189   6.814   4.731   5.688 -0.1399 -0.2685  0.2210
  147SAPE  H11X16190   6.800   4.811   5.763 -0.9810 -1.4262  1.3475
  147SAPE  H11Y16191   6.714   4.711   5.645  0.8821 -1.3068 -1.8410
  147SAPE  C31216192   6.917   4.771   5.581  0.5725  0.2334 -0.4255
  147SAPE  H12X16193   6.940   4.673   5.535 -0.0181  0.6058 -1.5474
  147SAPE  H12Y16194   7.016   4.799   5.623  0.0864  0.3010  0.7271
  147SAPE  C31316195   6.882   4.865   5.468  0.0909 -0.7652 -0.3305
  147SAPE  H13X16196   6.974   4.897   5.415 -0.8187  1.9466 -0.4067
  147SAPE  H13Y16197   6.829   4.951   5.514 -0.9359 -0.9649 -1.0977
  147SAPE  C31416198   6.783   4.817   5.359 -0.1336  0.3868  0.0689
  147SAPE  H14X16199   6.678   4.800   5.392 -0.8180 -1.1682 -2.6166
  147SAPE  H14Y16200   6.809   4.717   5.319 -0.4325 -0.4502  1.8634
  147SAPE  C31516201   6.778   4.917   5.241  0.2435 -0.4349 -0.7302
  147SAPE  H15X16202   6.884   4.930   5.211  0.7220 -1.1664  0.5870
  147SAPE  H15Y16203   6.738   5.019   5.261  1.6656  0.4534 -2.0817
  147SAPE  C31616204   6.686   4.871   5.124 -0.0980  0.6814  1.0219
  147SAPE  H16X16205   6.588   4.846   5.171 -0.1502 -0.7746  0.1798
  147SAPE  H16Y16206   6.735   4.790   5.067 -0.1171  1.9407 -0.8487
  147SAPE  C31716207   6.659   4.980   5.012  0.5763 -0.2929  0.3440
  147SAPE  H17X16208   6.610   5.063   5.066 -0.8672 -1.1620  0.4023
  147SAPE  H17Y16209   6.580   4.938   4.947 -0.6856  3.9818 -1.2795
  147SAPE  C31816210   6.783   5.026   4.934 -0.0965 -0.2413  0.3650
  147SAPE  H18X16211   6.800   4.941   4.864 -1.1506 -2.0821  2.2516
  147SAPE  H18Y16212   6.873   5.041   4.997 -0.2695 -1.8056  1.0346
  147SAPE  H18Z16213   6.761   5.116   4.873  0.9255 -1.0118 -1.2092
  148SAPE     N16214   6.347   4.352   7.365  0.5340  0.0680  0.3844
  148SAPE   HN116215   6.446   4.348   7.334  0.3188 -1.0005 -0.2338
  148SAPE   HN216216   6.306   4.441   7.331 -0.7400 -1.1177 -1.3945
  148SAPE   HN316217   6.344   4.355   7.469  0.8049 -0.8782  0.4323
  148SAPE   C1216218   6.266   4.251   7.304  0.3168 -0.7943  0.6233
  148SAPE  H12A16219   6.171   4.243   7.361  0.9326  0.0805  1.8016
  148SAPE  H12B16220   6.318   4.153   7.307  0.4760 -0.8455 -1.7225
  148SAPE   C1116221   6.243   4.297   7.156 -0.1031 -0.5666  0.0300
  148SAPE  H11A16222   6.221   4.405   7.146 -1.6503 -1.0032 -2.0368
  148SAPE  H11B16223   6.159   4.231   7.124  0.1938  0.3170 -2.9039
  148SAPE     P16224   6.383   4.129   7.020  0.3996 -0.5534 -0.0483
  148SAPE   O1316225   6.522   4.090   7.043  0.4004  0.4320 -0.1709
  148SAPE   O1416226   6.283   4.030   7.076 -0.2476  0.1817 -0.3062
  148SAPE   O1216227   6.369   4.272   7.087  0.6510  0.6412  0.0667
  148SAPE   O1116228   6.347   4.153   6.871 -0.3727 -0.3443 -0.0762
  148SAPE    C116229   6.410   4.260   6.796 -0.4965  0.3409  0.5561
  148SAPE    HA16230   6.510   4.280   6.839  0.2814 -2.0637  0.0379
  148SAPE    HB16231   6.421   4.226   6.690  2.7089 -0.1400  0.9468
  148SAPE    C216232   6.318   4.389   6.795 -1.1677 -0.1267  0.5455
  148SAPE    HS16233   6.293   4.403   6.903 -3.7201 -1.4041  0.2027
  148SAPE   O2116234   6.186   4.357   6.734 -0.2321  0.1976  0.1863
  148SAPE   C2116235   6.091   4.447   6.749 -0.2784 -0.7601 -0.0849
  148SAPE   O2216236   6.100   4.555   6.809 -0.3241 -0.6621 -0.0459
  148SAPE   C2216237   5.988   4.412   6.653  0.8897  0.2044  0.4356
  148SAPE   H2R16238   6.028   4.386   6.553 -0.5594 -0.0035 -0.1060
  148SAPE   H2S16239   5.940   4.318   6.688 -1.7642  0.3271 -2.5115
  148SAPE    C316240   6.393   4.514   6.731  0.0642 -0.1690 -0.1183
  148SAPE    HX16241   6.490   4.524   6.783  0.4746 -3.5192  0.0024
  148SAPE    HY16242   6.342   4.607   6.764 -0.6787 -0.2387 -1.0214
  148SAPE   O3116243   6.408   4.507   6.590 -0.6679  0.5002  0.1149
  148SAPE   C3116244   6.366   4.612   6.508 -0.5038  0.0121  0.5950
  148SAPE   O3216245   6.306   4.705   6.548 -0.2206  0.1616 -0.1500
  148SAPE   C3216246   6.394   4.587   6.352  0.5636 -0.4014 -0.4808
  148SAPE   H2X16247   6.417   4.479   6.353  1.9118 -0.1544  1.1428
  148SAPE   H2Y16248   6.497   4.628   6.341  2.0697 -3.8556 -0.3168
  148SAPE   C2316249   5.869   4.519   6.637  0.5088  0.2826  0.0129
  148SAPE   H3R16250   5.840   4.554   6.739 -1.3273 -3.0574  0.7724
  148SAPE   H3S16251   5.781   4.469   6.593 -0.4184  2.3423 -0.6157
  148SAPE   C2416252   5.906   4.638   6.560  0.5521  0.3557 -0.1622
  148SAPE   H4R16253   5.999   4.682   6.603 -0.0354  2.9126 -1.3121
  148SAPE   H4S16254   5.827   4.715   6.571  0.8052  0.5728  0.1696
  148SAPE   C2516255   5.944   4.602   6.418  0.1016 -0.1201  0.0762
  148SAPE   H5R16256   6.018   4.522   6.406  0.4658  0.5535 -3.1283
  148SAPE   C2616257   5.891   4.655   6.307 -0.1685  0.2117 -0.3822
  148SAPE   H6R16258   5.926   4.617   6.210 -0.3390 -0.1967 -0.2861
  148SAPE   C2716259   5.803   4.767   6.293 -0.3758 -0.0155 -0.0890
  148SAPE   H7R16260   5.871   4.847   6.256  0.7599 -0.9235 -0.0013
  148SAPE   H7S16261   5.753   4.807   6.384 -1.1543 -0.7289 -0.1890
  148SAPE   C2816262   5.692   4.730   6.195  0.1371  0.5476 -0.4199
  148SAPE   H8R16263   5.659   4.626   6.182  0.6249  0.1376  1.3364
  148SAPE   C2916264   5.632   4.819   6.108 -0.1944  0.5976 -0.4913
  148SAPE   H9R16265   5.559   4.782   6.034 -0.0791  0.1644 -0.3903
  148SAPE  C21016266   5.652   4.971   6.106  0.2243 -0.8584 -0.2755
  148SAPE  H10R16267   5.726   5.012   6.177 -1.6324  0.4428  1.0107
  148SAPE  H10S16268   5.553   5.018   6.125  0.4644 -0.1811 -0.6673
  148SAPE  C21116269   5.716   5.003   5.972 -0.1166 -0.1195  0.0924
  148SAPE  H11R16270   5.819   4.972   5.948  1.0180  2.7784  0.6711
  148SAPE  C21216271   5.654   5.075   5.877  0.1420  0.1931  0.7197
  148SAPE  H12R16272   5.715   5.085   5.786 -0.1186 -0.5564  0.4599
  148SAPE  C21316273   5.524   5.146   5.871  0.3532 -0.6468 -0.4652
  148SAPE  H13R16274   5.537   5.253   5.845  1.0443 -0.9982 -1.5976
  148SAPE  H13S16275   5.487   5.144   5.976  3.1139  1.5082  0.6665
  148SAPE  C21416276   5.431   5.069   5.778 -0.0259 -0.1413 -0.7593
  148SAPE  H14R16277   5.400   4.970   5.816  2.0607 -1.5981 -2.6044
  148SAPE  C21516278   5.390   5.106   5.655  0.3591 -0.0981 -0.2084
  148SAPE  H15R16279   5.315   5.041   5.608 -0.1178 -0.4865  1.0455
  148SAPE  C21616280   5.433   5.229   5.581 -0.5088 -0.0878 -0.7565
  148SAPE  H16R16281   5.538   5.256   5.608 -0.1239 -1.1733 -1.1034
  148SAPE  H16S16282   5.361   5.311   5.601  1.5690  1.7136 -0.2431
  148SAPE  C21716283   5.430   5.195   5.427 -0.7776 -0.0018 -0.4206
  148SAPE  H17R16284   5.322   5.186   5.404 -0.8849  1.1961 -0.4853
  148SAPE  H17S16285   5.493   5.104   5.418  0.0928 -0.0387  3.8351
  148SAPE  C21816286   5.479   5.312   5.341  0.3785 -0.9172 -0.3401
  148SAPE  H18R16287   5.586   5.339   5.357  0.4355 -0.5037 -1.3937
  148SAPE  H18S16288   5.412   5.399   5.353 -0.5899 -1.4737 -1.5630
  148SAPE  C21916289   5.472   5.277   5.197  0.1843  0.0311 -0.7066
  148SAPE  H19R16290   5.366   5.257   5.173 -0.6863  2.7370  0.5130
  148SAPE  H19S16291   5.524   5.179   5.185  0.2697 -0.1049  0.5914
  148SAPE  C22016292   5.506   5.381   5.100 -0.4264  0.2373  0.1099
  148SAPE  H20R16293   5.462   5.483   5.111  1.5144  0.9678  1.8459
  148SAPE  H20S16294   5.497   5.345   4.996  0.2734 -2.2874  0.8435
  148SAPE  H20T16295   5.615   5.401   5.109 -0.3701  2.3802 -3.4136
  148SAPE   C3316296   6.298   4.630   6.241  0.2217  0.7951 -0.7029
  148SAPE   H3X16297   6.236   4.720   6.262 -4.2678 -2.1632  0.2744
  148SAPE   H3Y16298   6.227   4.545   6.242  0.8971  0.1999 -1.7111
  148SAPE   C3416299   6.359   4.664   6.109 -0.3221  0.1347  0.4795
  148SAPE   H4X16300   6.408   4.569   6.077  0.4858  1.5052 -2.6096
  148SAPE   H4Y16301   6.440   4.739   6.124 -0.2018 -0.3383  2.4812
  148SAPE   C3516302   6.248   4.690   6.004 -0.5381 -0.5118  0.0898
  148SAPE   H5X16303   6.289   4.753   5.923 -0.5356 -2.8057 -1.7991
  148SAPE   H5Y16304   6.175   4.754   6.057 -0.6517 -1.5665  1.2436
  148SAPE   C3616305   6.172   4.570   5.941 -0.5747  0.5760  0.0037
  148SAPE   H6X16306   6.106   4.518   6.014  1.7585 -1.5057  0.7610
  148SAPE   H6Y16307   6.240   4.489   5.908 -0.8857 -0.0076  0.7552
  148SAPE   C3716308   6.085   4.607   5.828  0.4997 -0.4123 -0.3395
  148SAPE   H7X16309   6.045   4.514   5.784  0.9713  0.1890 -2.1342
  148SAPE   H7Y16310   6.147   4.651   5.747 -0.4601  0.2998 -0.7068
  148SAPE   C3816311   5.962   4.687   5.867 -0.5436  0.0632  0.1043
  148SAPE   H8X16312   5.987   4.774   5.932  3.5390 -0.5961 -0.3184
  148SAPE   H8Y16313   5.910   4.620   5.940 -0.4224 -1.8632 -1.5198
  148SAPE   C3916314   5.865   4.711   5.752  0.1630  0.0548 -0.0986
  148SAPE   H9X16315   5.770   4.748   5.795  1.6494  1.9879  1.7101
  148SAPE   H9Y16316   5.848   4.610   5.707  1.6877 -0.7701  1.1022
  148SAPE  C31016317   5.911   4.816   5.647  0.6543 -0.4755  0.7222
  148SAPE  H10X16318   5.981   4.768   5.576  0.8839 -0.1564  0.7307
  148SAPE  H10Y16319   5.971   4.891   5.704  1.3901 -1.1868  0.8955
  148SAPE  C31116320   5.800   4.900   5.584 -0.2264 -0.3690  0.0442
  148SAPE  H11X16321   5.726   4.930   5.661  0.2086  1.4648 -0.2103
  148SAPE  H11Y16322   5.746   4.840   5.506 -0.1929 -1.6513  0.9666
  148SAPE  C31216323   5.860   5.022   5.504 -0.0937 -0.2775 -0.3483
  148SAPE  H12X16324   5.943   5.067   5.562  0.9978 -1.2929 -1.0731
  148SAPE  H12Y16325   5.777   5.096   5.503 -0.4265 -0.6477 -0.9044
  148SAPE  C31316326   5.893   4.986   5.357 -0.7878 -0.1269 -0.1921
  148SAPE  H13X16327   5.802   4.939   5.316  0.0234 -2.8742  0.9221
  148SAPE  H13Y16328   5.975   4.911   5.364 -0.4495  0.3542  1.9762
  148SAPE  C31416329   5.937   5.106   5.277 -0.1184  0.3655 -0.3061
  148SAPE  H14X16330   6.045   5.125   5.291  0.0878 -1.5792  1.1831
  148SAPE  H14Y16331   5.889   5.195   5.323  1.1986  0.6068  0.6256
  148SAPE  C31516332   5.882   5.093   5.131  0.0533  0.3158 -0.4981
  148SAPE  H15X16333   5.900   5.180   5.064  0.8485 -0.4042 -1.2401
  148SAPE  H15Y16334   5.773   5.076   5.132 -0.4923  2.6745 -3.9800
  148SAPE  C31616335   5.944   4.983   5.049  0.4320 -0.6774 -0.5275
  148SAPE  H16X16336   5.914   4.887   5.096 -1.0310  0.0376  0.0562
  148SAPE  H16Y16337   6.055   4.983   5.045  0.6507 -2.6822  2.1939
  148SAPE  C31716338   5.876   4.974   4.914  0.6072 -0.0150 -0.1577
  148SAPE  H17X16339   5.891   5.077   4.876 -0.2440  0.4996  0.8492
  148SAPE  H17Y16340   5.766   4.958   4.908  0.7543 -1.1007 -0.3119
  148SAPE  C31816341   5.942   4.880   4.817  0.0482  0.1760  0.2192
  148SAPE  H18X16342   5.921   4.775   4.849  1.3242 -0.2496 -0.2988
  148SAPE  H18Y16343   6.050   4.901   4.808  0.0733 -0.1931 -0.4408
  148SAPE  H18Z16344   5.900   4.886   4.714  1.5826  2.0860 -0.3314
  149SAPE     N16345   4.781   1.036   6.949  0.3065 -0.0341 -0.3045
  149SAPE   HN116346   4.819   1.042   7.046  0.0091  0.0139 -0.1877
  149SAPE   HN216347   4.791   1.130   6.906 -1.5264  0.4748  0.2777
  149SAPE   HN316348   4.681   1.009   6.956  0.2643 -0.1103 -1.1052
  149SAPE   C1216349   4.847   0.925   6.870  0.5498 -0.2560 -0.3858
  149SAPE  H12A16350   4.808   0.829   6.911 -2.9146  1.4492  0.6762
  149SAPE  H12B16351   4.957   0.933   6.873  1.0517 -4.8076  2.5487
  149SAPE   C1116352   4.802   0.925   6.723  0.0012  0.4347  0.2496
  149SAPE  H11A16353   4.842   1.023   6.688 -0.7318  1.7155  2.6774
  149SAPE  H11B16354   4.692   0.928   6.707 -0.2955 -0.7461  1.7956
  149SAPE     P16355   4.962   0.823   6.539  0.2279  0.0624  0.1673
  149SAPE   O1316356   5.056   0.933   6.571 -0.2279 -0.2589  0.4909
  149SAPE   O1416357   5.021   0.689   6.522  0.1708  0.6195 -0.6361
  149SAPE   O1216358   4.855   0.810   6.654 -0.0016 -0.3712  0.1930
  149SAPE   O1116359   4.883   0.861   6.406 -0.1156  0.0051  0.4198
  149SAPE    C116360   4.743   0.823   6.385 -0.3829  0.3410  0.6567
  149SAPE    HA16361   4.719   0.745   6.460  1.0036  0.2466  1.0316
  149SAPE    HB16362   4.679   0.913   6.400  1.4148  1.5638  1.2933
  149SAPE    C216363   4.709   0.764   6.243 -0.5136  0.2577 -1.2220
  149SAPE    HS16364   4.599   0.774   6.247 -0.3952  1.4424  0.9257
  149SAPE   O2116365   4.768   0.636   6.224  0.1914  0.0846 -0.2604
  149SAPE   C2116366   4.687   0.537   6.266  0.1041  0.3256 -0.5553
  149SAPE   O2216367   4.570   0.549   6.306  0.2672  0.4268 -0.1291
  149SAPE   C2216368   4.756   0.402   6.267  0.1253  0.5404 -0.5071
  149SAPE   H2R16369   4.765   0.368   6.161  0.4610 -1.9288  0.2308
  149SAPE   H2S16370   4.862   0.404   6.299  0.7383  0.5674 -2.3870
  149SAPE    C316371   4.754   0.853   6.133 -0.3311  0.3532 -0.1043
  149SAPE    HX16372   4.861   0.883   6.139 -0.5525  1.3404 -0.7533
  149SAPE    HY16373   4.692   0.945   6.145 -2.5240 -1.1045  0.3474
  149SAPE   O3116374   4.733   0.786   6.012 -0.5558 -0.1326  0.4729
  149SAPE   C3116375   4.682   0.862   5.923 -0.0447 -0.0839  0.2555
  149SAPE   O3216376   4.634   0.974   5.940 -1.0213  0.2320  0.3519
  149SAPE   C3216377   4.669   0.785   5.795 -0.7054 -0.4251 -0.3453
  149SAPE   H2X16378   4.562   0.767   5.770 -0.3685 -2.2058 -0.6101
  149SAPE   H2Y16379   4.712   0.683   5.805 -1.7206 -0.7027  1.6408
  149SAPE   C2316380   4.693   0.290   6.360  0.3125  0.0470 -0.2609
  149SAPE   H3R16381   4.655   0.327   6.457 -0.2982 -4.4188  1.4139
  149SAPE   H3S16382   4.770   0.214   6.386 -0.3927 -0.6997 -0.3301
  149SAPE   C2416383   4.598   0.215   6.278  0.6693  0.5504  0.7917
  149SAPE   H4R16384   4.644   0.181   6.183  1.1838  3.3685 -0.0635
  149SAPE   H4S16385   4.518   0.288   6.256  0.3365 -0.3648 -1.3178
  149SAPE   C2516386   4.541   0.103   6.356 -0.2897  0.1248 -0.9821
  149SAPE   H5R16387   4.616   0.057   6.422 -0.6160  2.1502  0.9161
  149SAPE   C2616388   4.416   0.051   6.348  0.9349  0.2713  0.2299
  149SAPE   H6R16389   4.366  -0.025   6.410 -1.2364 -1.1369 -3.0000
  149SAPE   C2716390   4.313   0.099   6.248 -0.0678 -0.1326  0.2379
  149SAPE   H7R16391   4.338   0.063   6.146  1.5432  0.8192  0.2618
  149SAPE   H7S16392   4.321   0.209   6.234  2.9131 -0.4492 -1.2706
  149SAPE   C2816393   4.163   0.073   6.272 -0.1524  0.4284 -0.6599
  149SAPE   H8R16394   4.096   0.147   6.318 -0.0498 -0.6504  1.3008
  149SAPE   C2916395   4.105  -0.048   6.262 -0.2511  0.3722  0.5164
  149SAPE   H9R16396   4.007  -0.069   6.308 -1.1340  0.8236 -1.0503
  149SAPE  C21016397   4.182  -0.175   6.224  0.1352 -0.0431 -0.3660
  149SAPE  H10R16398   4.281  -0.151   6.180  0.9737  1.9325  2.2891
  149SAPE  H10S16399   4.129  -0.221   6.138  0.8944  1.3121 -1.5859
  149SAPE  C21116400   4.227  -0.262   6.340 -0.1040 -0.6547 -0.2746
  149SAPE  H11R16401   4.269  -0.209   6.427  0.2523 -1.4739  0.0696
  149SAPE  C21216402   4.218  -0.393   6.339  0.0878 -0.3118 -0.0628
  149SAPE  H12R16403   4.272  -0.450   6.415  2.1848  0.3972 -0.9397
  149SAPE  C21316404   4.163  -0.490   6.232  0.6324 -0.7108 -0.7089
  149SAPE  H13R16405   4.117  -0.437   6.146 -1.3551 -0.8635  0.2085
  149SAPE  H13S16406   4.077  -0.542   6.279  0.9236 -0.4919  0.0658
  149SAPE  C21416407   4.270  -0.586   6.178 -0.1088 -0.2296 -0.0140
  149SAPE  H14R16408   4.339  -0.623   6.255  0.4119  1.1529  0.2234
  149SAPE  C21516409   4.289  -0.626   6.051  0.4834  0.1664 -0.1039
  149SAPE  H15R16410   4.369  -0.697   6.026  2.3297  2.1777 -0.2430
  149SAPE  C21616411   4.214  -0.572   5.929  0.4287 -0.9154  0.7264
  149SAPE  H16R16412   4.115  -0.531   5.955  1.2171  1.2718  0.4729
  149SAPE  H16S16413   4.189  -0.662   5.868  2.0726 -1.8194  1.3130
  149SAPE  C21716414   4.289  -0.471   5.839  0.2224  0.3480  0.5283
  149SAPE  H17R16415   4.376  -0.534   5.809 -0.0356 -0.5377  1.5623
  149SAPE  H17S16416   4.331  -0.381   5.888  2.1282 -1.3208  2.1537
  149SAPE  C21816417   4.214  -0.431   5.708  0.2065 -0.3503  1.1038
  149SAPE  H18R16418   4.116  -0.384   5.731 -1.4906 -2.9878 -0.1828
  149SAPE  H18S16419   4.180  -0.528   5.667 -0.0935 -0.4064  1.4762
  149SAPE  C21916420   4.293  -0.345   5.614 -0.4527  0.2432 -0.5603
  149SAPE  H19R16421   4.373  -0.417   5.586 -1.7328  0.0012 -4.0850
  149SAPE  H19S16422   4.326  -0.249   5.658 -3.2820  1.1604 -0.2530
  149SAPE  C22016423   4.215  -0.310   5.490 -0.2212  0.2164  0.0047
  149SAPE  H20R16424   4.277  -0.265   5.410  0.5963 -0.6812  0.1028
  149SAPE  H20S16425   4.123  -0.249   5.499 -0.2555  0.3380 -1.0953
  149SAPE  H20T16426   4.181  -0.405   5.444 -0.3589  0.3571 -0.1849
  149SAPE   C3316427   4.730   0.865   5.681  0.0950  0.0939 -0.1730
  149SAPE   H3X16428   4.832   0.907   5.699 -0.1538 -0.1509  2.0490
  149SAPE   H3Y16429   4.665   0.953   5.659  1.7805  1.8127  1.3606
  149SAPE   C3416430   4.751   0.776   5.554 -0.5411  0.4460  0.7228
  149SAPE   H4X16431   4.655   0.723   5.539  0.3985 -0.9739 -0.6373
  149SAPE   H4Y16432   4.821   0.693   5.579 -0.7935  0.3413  1.0858
  149SAPE   C3516433   4.792   0.868   5.431 -0.1000 -0.2432 -0.5580
  149SAPE   H5X16434   4.890   0.916   5.451  1.4784 -3.7054  0.6270
  149SAPE   H5Y16435   4.721   0.954   5.420  0.7255  0.6311  0.7293
  149SAPE   C3616436   4.801   0.785   5.301 -0.2900  0.5891  0.5502
  149SAPE   H6X16437   4.710   0.721   5.298 -0.4591  0.8013  1.0957
  149SAPE   H6Y16438   4.891   0.720   5.301 -0.9125 -0.3295  2.4066
  149SAPE   C3716439   4.802   0.875   5.177 -0.0203 -1.0684  0.3082
  149SAPE   H7X16440   4.802   0.812   5.086 -0.0314 -1.5232  0.6148
  149SAPE   H7Y16441   4.904   0.917   5.183  0.0279 -1.1520  0.0506
  149SAPE   C3816442   4.687   0.974   5.164 -0.6447 -0.4315 -0.4334
  149SAPE   H8X16443   4.692   1.056   5.238  0.8922 -0.2844 -0.6644
  149SAPE   H8Y16444   4.596   0.915   5.190  0.7060 -2.4933 -0.0760
  149SAPE   C3916445   4.653   1.030   5.021  0.0386  0.5954  0.7066
  149SAPE   H9X16446   4.566   1.096   5.046 -0.5990 -0.4599  1.3665
  149SAPE   H9Y16447   4.621   0.956   4.945  0.7512  0.6152  0.3854
  149SAPE  C31016448   4.770   1.112   4.958  0.3299  0.5469 -0.9162
  149SAPE  H10X16449   4.851   1.040   4.934  1.4477  1.4723 -0.0342
  149SAPE  H10Y16450   4.808   1.184   5.034 -2.0070  0.3653  0.5500
  149SAPE  C31116451   4.716   1.191   4.839 -0.4678 -0.2926 -0.0260
  149SAPE  H11X16452   4.630   1.256   4.867 -0.4819 -0.5467  0.5339
  149SAPE  H11Y16453   4.686   1.119   4.760 -1.0796 -0.0419 -0.0345
  149SAPE  C31216454   4.830   1.286   4.789  0.7134 -0.0365  0.2392
  149SAPE  H12X16455   4.918   1.225   4.758 -0.7056 -0.6320 -2.9687
  149SAPE  H12Y16456   4.869   1.358   4.865 -1.6505  0.0615  1.4382
  149SAPE  C31316457   4.783   1.361   4.670 -0.2336  0.2381  0.3040
  149SAPE  H13X16458   4.768   1.299   4.579  1.1566  0.2287  0.0674
  149SAPE  H13Y16459   4.865   1.430   4.640 -0.0254 -0.4612 -0.7789
  149SAPE  C31416460   4.649   1.454   4.684 -0.8897  0.2622 -0.0241
  149SAPE  H14X16461   4.671   1.552   4.635  0.1375 -0.4269 -0.9843
  149SAPE  H14Y16462   4.630   1.469   4.792 -2.1856  0.4280 -0.2605
  149SAPE  C31516463   4.525   1.393   4.618  0.1743  0.5830  0.4209
  149SAPE  H15X16464   4.510   1.290   4.658  2.3131 -0.2303 -0.7091
  149SAPE  H15Y16465   4.544   1.395   4.509 -1.0201  0.9237  0.2035
  149SAPE  C31616466   4.410   1.489   4.644  0.2712 -0.3760 -0.3675
  149SAPE  H16X16467   4.433   1.584   4.591  2.1604  0.2058  1.3612
  149SAPE  H16Y16468   4.395   1.509   4.752  0.1247  1.1236 -0.6421
  149SAPE  C31716469   4.282   1.429   4.575 -0.6626  0.1128  0.5046
  149SAPE  H17X16470   4.201   1.481   4.631 -0.2598  2.6018 -1.0682
  149SAPE  H17Y16471   4.292   1.321   4.599  2.2418 -0.1597 -1.4254
  149SAPE  C31816472   4.272   1.466   4.423  0.8844  0.1645  0.1514
  149SAPE  H18X16473   4.180   1.419   4.382  0.7556  1.5738 -1.2676
  149SAPE  H18Y16474   4.352   1.428   4.356 -0.7324 -2.2758 -0.5490
  149SAPE  H18Z16475   4.257   1.575   4.407 -0.4273 -0.1686 -1.0777
  150SAPE     N16476   6.836   1.094   7.493  0.1478  0.1764  0.5339
  150SAPE   HN116477   6.927   1.131   7.460 -0.0500  0.1490 -0.0586
  150SAPE   HN216478   6.760   1.141   7.439  1.1632  0.9970 -0.2317
  150SAPE   HN316479   6.834   1.126   7.592 -0.7850 -1.0247  0.9260
  150SAPE   C1216480   6.817   0.951   7.483 -0.4139 -0.1630  0.3053
  150SAPE  H12A16481   6.871   0.929   7.388 -1.7356  0.6198 -0.6565
  150SAPE  H12B16482   6.711   0.929   7.459 -0.2169 -1.8569  0.8926
  150SAPE   C1116483   6.887   0.884   7.599 -0.2230  0.0691  0.5136
  150SAPE  H11A16484   6.837   0.934   7.685 -1.2561  1.6048 -0.9105
  150SAPE  H11B16485   6.996   0.906   7.603 -0.1121 -0.6540  1.9004
  150SAPE     P16486   6.955   0.649   7.502 -0.8413 -0.0986 -0.1981
  150SAPE   O1316487   7.091   0.684   7.545  0.1225 -0.4061 -0.0862
  150SAPE   O1416488   6.916   0.509   7.511  0.1875 -0.7613  0.4080
  150SAPE   O1216489   6.866   0.742   7.594  0.3153 -0.2887 -0.4358
  150SAPE   O1116490   6.936   0.700   7.355  0.0109 -0.1854  0.3099
  150SAPE    C116491   6.837   0.639   7.273  0.0693  0.0062  0.2851
  150SAPE    HA16492   6.836   0.528   7.277  1.6445 -0.0128  1.4409
  150SAPE    HB16493   6.735   0.681   7.269 -0.3624 -0.7671  2.0826
  150SAPE    C216494   6.891   0.625   7.129  0.6347 -0.5406 -0.1392
  150SAPE    HS16495   6.826   0.558   7.069  1.4310 -0.9765 -0.5319
  150SAPE   O2116496   7.029   0.586   7.129 -0.0782 -0.6045  0.3686
  150SAPE   C2116497   7.056   0.458   7.120 -0.3249 -0.0077  0.1926
  150SAPE   O2216498   6.975   0.368   7.139 -0.0121  0.5893 -0.1178
  150SAPE   C2216499   7.204   0.434   7.081 -1.4506  0.0963  0.2186
  150SAPE   H2R16500   7.264   0.510   7.137 -0.7095 -1.6792  1.9588
  150SAPE   H2S16501   7.236   0.337   7.124 -1.4533  0.7085  1.6890
  150SAPE    C316502   6.883   0.772   7.072  0.1661  0.4543 -0.0701
  150SAPE    HX16503   6.943   0.839   7.137 -0.8123 -0.0308  1.3956
  150SAPE    HY16504   6.777   0.806   7.082  0.5428  1.3187  1.1480
  150SAPE   O3116505   6.913   0.776   6.933  0.3678  0.0866  0.7819
  150SAPE   C3116506   7.027   0.821   6.900 -0.2556 -0.6293 -0.3149
  150SAPE   O3216507   7.122   0.845   6.973  0.0785  0.1863 -0.7124
  150SAPE   C3216508   7.028   0.823   6.743 -1.0366 -0.6655 -0.1967
  150SAPE   H2X16509   6.925   0.843   6.705 -0.0932  1.9400 -1.6791
  150SAPE   H2Y16510   7.064   0.722   6.714 -0.0257 -0.4998  0.4504
  150SAPE   C2316511   7.236   0.442   6.934 -0.1338  0.4643 -0.3067
  150SAPE   H3R16512   7.342   0.410   6.924  0.2881  1.0895  1.7988
  150SAPE   H3S16513   7.235   0.542   6.885  0.0795  1.0231  0.7972
  150SAPE   C2416514   7.169   0.337   6.844  1.0438 -0.2052  0.4421
  150SAPE   H4R16515   7.170   0.238   6.894  0.5340  0.0326  0.9424
  150SAPE   H4S16516   7.239   0.327   6.758 -0.1925  3.3083 -1.1665
  150SAPE   C2516517   7.029   0.370   6.798  0.1144  0.5380 -0.3596
  150SAPE   H5R16518   6.959   0.377   6.882  0.5339  3.4832 -0.1642
  150SAPE   C2616519   6.973   0.372   6.682  0.0135 -0.2815  0.1624
  150SAPE   H6R16520   6.880   0.430   6.688  0.0037 -0.3474  0.7061
  150SAPE   C2716521   7.031   0.352   6.543 -0.0243 -0.3764 -0.0074
  150SAPE   H7R16522   6.945   0.332   6.475 -0.0449 -1.4056  0.3155
  150SAPE   H7S16523   7.076   0.251   6.534  0.2011 -0.3768  0.9823
  150SAPE   C2816524   7.125   0.462   6.487  0.1549  0.2686  0.5497
  150SAPE   H8R16525   7.157   0.546   6.551 -1.7536  1.6328 -0.1714
  150SAPE   C2916526   7.147   0.468   6.354  0.4175 -0.1168  0.1870
  150SAPE   H9R16527   7.228   0.538   6.327  0.8818 -0.3681  0.8897
  150SAPE  C21016528   7.103   0.379   6.243 -0.5496  0.5757 -0.2698
  150SAPE  H10R16529   7.006   0.416   6.202 -0.2652  3.2573  1.2482
  150SAPE  H10S16530   7.091   0.278   6.287  3.5399  0.7427  1.6536
  150SAPE  C21116531   7.200   0.370   6.125  0.0313 -0.4478  0.2975
  150SAPE  H11R16532   7.307   0.371   6.152  0.1438  1.5812 -0.0151
  150SAPE  C21216533   7.177   0.399   5.991  0.3473  0.6099  0.2754
  150SAPE  H12R16534   7.254   0.368   5.919  0.2141 -1.2761  0.8810
  150SAPE  C21316535   7.045   0.438   5.924 -0.0583 -0.0260 -0.8021
  150SAPE  H13R16536   6.961   0.466   5.990  1.7793  1.1813  1.1625
  150SAPE  H13S16537   7.005   0.348   5.873  0.7718 -0.1302 -1.3028
  150SAPE  C21416538   7.067   0.557   5.839 -0.0429 -0.3551  0.2832
  150SAPE  H14R16539   7.057   0.652   5.895 -0.6728 -0.1868 -0.1062
  150SAPE  C21516540   7.080   0.557   5.705  1.0323  0.0331  0.1623
  150SAPE  H15R16541   7.089   0.657   5.661  0.1413 -0.6775 -1.7747
  150SAPE  C21616542   7.080   0.439   5.613 -0.0521 -0.1056 -0.2309
  150SAPE  H16R16543   6.987   0.379   5.618 -1.1030  1.2614 -1.8746
  150SAPE  H16S16544   7.171   0.377   5.624  1.1879  1.9125  1.9325
  150SAPE  C21716545   7.092   0.474   5.466  0.5767  1.1235  0.3428
  150SAPE  H17R16546   7.151   0.567   5.448 -0.4855  1.7143 -0.1730
  150SAPE  H17S16547   6.994   0.511   5.428  1.7214  2.7283 -1.2604
  150SAPE  C21816548   7.133   0.358   5.372 -0.8374  0.7368 -0.4486
  150SAPE  H18R16549   7.098   0.257   5.402  2.3403  0.0685  1.4649
  150SAPE  H18S16550   7.239   0.329   5.389 -1.0832  1.1936  2.2282
  150SAPE  C21916551   7.096   0.372   5.229 -0.1260  0.0215 -0.1376
  150SAPE  H19R16552   7.132   0.466   5.182  0.8866 -0.6347 -0.7098
  150SAPE  H19S16553   6.985   0.385   5.225 -0.0087  1.3017  0.2044
  150SAPE  C22016554   7.145   0.252   5.152  0.2427  0.0525 -0.1455
  150SAPE  H20R16555   7.255   0.243   5.159  0.2127 -1.5146 -1.1217
  150SAPE  H20S16556   7.117   0.263   5.045 -1.2875  0.4494  0.2761
  150SAPE  H20T16557   7.098   0.159   5.192  0.2151 -0.5357 -1.4991
  150SAPE   C3316558   7.131   0.924   6.676  0.3221 -0.1274 -0.2391
  150SAPE   H3X16559   7.229   0.910   6.726 -0.5110 -0.7720  1.2711
  150SAPE   H3Y16560   7.091   1.028   6.686  2.0049  0.9078 -3.0231
  150SAPE   C3416561   7.180   0.917   6.535 -0.3869  0.3736  0.0127
  150SAPE   H4X16562   7.244   0.827   6.524 -0.5535  0.3838 -1.1922
  150SAPE   H4Y16563   7.246   1.001   6.506 -1.1809  0.9928 -0.0372
  150SAPE   C3516564   7.074   0.911   6.429  1.2106  0.8158 -0.0495
  150SAPE   H5X16565   7.013   1.002   6.411  0.2847  0.0264 -1.0724
  150SAPE   H5Y16566   6.997   0.842   6.470  0.9534  0.8035 -0.5437
  150SAPE   C3616567   7.112   0.855   6.299 -0.5042 -0.4295  0.4789
  150SAPE   H6X16568   7.028   0.842   6.228  0.3038  4.3107 -1.7393
  150SAPE   H6Y16569   7.160   0.755   6.301  1.7714  0.5461  3.3737
  150SAPE   C3716570   7.213   0.949   6.230 -0.3122 -0.5679 -0.1400
  150SAPE   H7X16571   7.295   0.976   6.300 -0.1176 -0.8926 -0.2449
  150SAPE   H7Y16572   7.157   1.041   6.199  0.8520  1.3709  2.9906
  150SAPE   C3816573   7.285   0.887   6.109  0.1034  0.7605  1.4132
  150SAPE   H8X16574   7.275   0.777   6.126  0.3620  0.5755  0.4635
  150SAPE   H8Y16575   7.391   0.919   6.117  1.4160 -2.3144 -1.3029
  150SAPE   C3916576   7.223   0.938   5.979 -0.5096  0.1216  0.0666
  150SAPE   H9X16577   7.241   1.048   5.975  0.8960 -0.1283 -1.8856
  150SAPE   H9Y16578   7.115   0.911   5.981 -0.8610  1.3156 -1.0222
  150SAPE  C31016579   7.286   0.876   5.848 -0.4761 -0.4091  0.1342
  150SAPE  H10X16580   7.279   0.766   5.866  1.5423 -0.5381  0.3518
  150SAPE  H10Y16581   7.396   0.892   5.846 -0.7408  1.7308 -2.0952
  150SAPE  C31116582   7.229   0.906   5.705 -0.5799  0.0107  1.5732
  150SAPE  H11X16583   7.201   1.013   5.695  2.8888  0.8789 -0.6724
  150SAPE  H11Y16584   7.137   0.844   5.705  0.5983 -1.8202  0.7993
  150SAPE  C31216585   7.322   0.857   5.587  0.0080 -0.1995 -0.0620
  150SAPE  H12X16586   7.333   0.746   5.594  1.7760  0.0524  1.9077
  150SAPE  H12Y16587   7.426   0.894   5.595  0.0388  0.0589 -1.4026
  150SAPE  C31316588   7.266   0.899   5.445 -0.1978 -0.0790  0.4826
  150SAPE  H13X16589   7.330   0.844   5.373  1.4698 -2.7085  3.6911
  150SAPE  H13Y16590   7.278   1.009   5.439  2.0260 -0.1206  2.5357
  150SAPE  C31416591   7.116   0.862   5.412  0.4334  0.1700  0.2048
  150SAPE  H14X16592   7.046   0.944   5.441  0.4830 -0.3309  1.8151
  150SAPE  H14Y16593   7.070   0.776   5.465 -0.7497  0.5497 -0.1685
  150SAPE  C31516594   7.095   0.857   5.260  0.8972 -0.7065 -0.4136
  150SAPE  H15X16595   7.162   0.782   5.214 -0.5168 -3.1491  1.2599
  150SAPE  H15Y16596   7.115   0.961   5.226  0.5308 -0.5469 -0.1434
  150SAPE  C31616597   6.946   0.819   5.225  0.8211  0.4838  0.6203
  150SAPE  H16X16598   6.862   0.887   5.250 -1.0341 -1.8033  0.8996
  150SAPE  H16Y16599   6.935   0.718   5.269  0.4347 -0.9535 -2.5083
  150SAPE  C31716600   6.935   0.797   5.072  0.0638 -0.4818 -0.5751
  150SAPE  H17X16601   7.012   0.727   5.034  0.1792 -1.6278  1.6684
  150SAPE  H17Y16602   6.967   0.889   5.018 -2.5480  0.7747 -0.1619
  150SAPE  C31816603   6.801   0.739   5.028  0.1889  0.0588 -0.0918
  150SAPE  H18X16604   6.777   0.652   5.093 -1.6197  0.8983  0.4244
  150SAPE  H18Y16605   6.812   0.711   4.921  0.6455 -2.2822  0.5000
  150SAPE  H18Z16606   6.716   0.809   5.035 -0.9788 -1.4188  1.2143
  151SAPE     N16607   6.081   6.279   7.551  0.2809 -0.2302 -0.1439
  151SAPE   HN116608   6.035   6.249   7.639  0.7630  0.5126  0.3795
  151SAPE   HN216609   6.169   6.318   7.591  0.4254 -2.8182  2.3410
  151SAPE   HN316610   6.026   6.360   7.517 -1.2224 -0.7107  1.0309
  151SAPE   C1216611   6.088   6.161   7.465  1.1085 -0.7003  0.2839
  151SAPE  H12A16612   5.991   6.108   7.459  0.7605  0.0309 -1.3881
  151SAPE  H12B16613   6.160   6.090   7.511  0.2724 -0.3587  2.1938
  151SAPE   C1116614   6.128   6.209   7.322  0.0969  0.5836  0.0253
  151SAPE  H11A16615   6.133   6.116   7.262  0.3722  0.0660  0.8390
  151SAPE  H11B16616   6.231   6.250   7.323 -0.5098  2.2151  0.9398
  151SAPE     P16617   5.894   6.282   7.217 -0.1580  0.0776  0.1137
  151SAPE   O1316618   5.901   6.153   7.143 -0.4459 -0.3236 -0.6774
  151SAPE   O1416619   5.811   6.285   7.338 -0.3775 -0.0297  1.0563
  151SAPE   O1216620   6.048   6.308   7.265  0.6379 -0.4496  0.2520
  151SAPE   O1116621   5.861   6.400   7.123 -0.2809 -0.3989  1.0977
  151SAPE    C116622   5.957   6.475   7.047  0.3538 -0.6062 -0.3311
  151SAPE    HA16623   5.991   6.562   7.108 -2.2092  0.0519  0.2993
  151SAPE    HB16624   6.054   6.424   7.026  0.3876 -1.2016  1.1532
  151SAPE    C216625   5.891   6.535   6.922  0.0553 -0.0399 -0.2583
  151SAPE    HS16626   5.792   6.573   6.955 -0.4209 -0.8808 -0.6874
  151SAPE   O2116627   5.886   6.447   6.811 -0.1172  0.0466 -0.2715
  151SAPE   C2116628   5.776   6.377   6.806  0.0257  0.7020  1.1771
  151SAPE   O2216629   5.667   6.405   6.852  0.0995 -1.2606 -0.3440
  151SAPE   C2216630   5.804   6.262   6.709 -0.0911  0.4386  0.3742
  151SAPE   H2R16631   5.887   6.209   6.761  0.8919  2.1606  0.6369
  151SAPE   H2S16632   5.715   6.198   6.694 -0.1437  0.8686 -1.2353
  151SAPE    C316633   5.967   6.658   6.862  0.8058  0.2383 -0.0333
  151SAPE    HX16634   6.066   6.619   6.831 -0.1171 -1.2088 -1.3238
  151SAPE    HY16635   5.993   6.739   6.933 -0.2191  1.4346 -0.9751
  151SAPE   O3116636   5.894   6.713   6.750  0.3931  0.0838 -0.1175
  151SAPE   C3116637   5.970   6.753   6.647  0.5977  0.4513  0.0527
  151SAPE   O3216638   6.087   6.776   6.642 -0.2529 -0.1922  0.0795
  151SAPE   C3216639   5.876   6.775   6.530  0.4724  0.0731 -0.4390
  151SAPE   H2X16640   5.804   6.852   6.565 -1.6779 -2.5636  1.3980
  151SAPE   H2Y16641   5.820   6.681   6.513 -0.5655  0.8716 -1.6660
  151SAPE   C2316642   5.874   6.302   6.575  0.3572 -0.4015 -1.3402
  151SAPE   H3R16643   5.929   6.210   6.546  0.4305 -0.4233 -1.1307
  151SAPE   H3S16644   5.952   6.377   6.598  0.1178 -0.4658 -0.2836
  151SAPE   C2416645   5.778   6.357   6.473 -0.5512  0.1295  0.1289
  151SAPE   H4R16646   5.745   6.455   6.515 -0.2245 -0.6509  2.3790
  151SAPE   H4S16647   5.696   6.283   6.461 -0.7470  0.1506  1.2056
  151SAPE   C2516648   5.844   6.371   6.333 -0.6689 -0.2393 -0.0863
  151SAPE   H5R16649   5.923   6.445   6.312  0.6509 -2.2535 -3.0249
  151SAPE   C2616650   5.831   6.285   6.224  0.5221 -0.3572 -0.2392
  151SAPE   H6R16651   5.888   6.308   6.132 -0.8452  2.3237 -0.5072
  151SAPE   C2716652   5.741   6.158   6.222 -0.2333  0.1568  0.4620
  151SAPE   H7R16653   5.636   6.170   6.190 -0.2327 -0.7940  0.0897
  151SAPE   H7S16654   5.739   6.103   6.318  0.8593 -1.0191 -0.1605
  151SAPE   C2816655   5.790   6.061   6.122  0.2186 -0.1878 -0.1372
  151SAPE   H8R16656   5.848   5.977   6.163 -1.6100 -1.3664  0.1816
  151SAPE   C2916657   5.770   6.071   5.991 -0.4972 -0.3359 -0.4718
  151SAPE   H9R16658   5.817   5.996   5.927  1.3484  1.1422 -0.9364
  151SAPE  C21016659   5.718   6.195   5.919  0.3775 -0.2080  0.1234
  151SAPE  H10R16660   5.806   6.241   5.868  0.0830  0.2262 -0.0025
  151SAPE  H10S16661   5.684   6.268   5.996  2.6801  1.5460 -0.4079
  151SAPE  C21116662   5.626   6.176   5.800 -0.1685 -0.2367  0.7301
  151SAPE  H11R16663   5.613   6.068   5.782  0.1319 -0.3376  1.1196
  151SAPE  C21216664   5.546   6.261   5.729 -0.1127 -0.7502  0.2944
  151SAPE  H12R16665   5.485   6.230   5.644 -0.0488  1.6466 -0.6984
  151SAPE  C21316666   5.531   6.406   5.761  0.2310 -0.1129  0.1789
  151SAPE  H13R16667   5.568   6.438   5.861  5.3625  0.4553 -1.6008
  151SAPE  H13S16668   5.425   6.438   5.752 -0.3228 -1.8409  0.1674
  151SAPE  C21416669   5.607   6.484   5.652  0.0244 -0.1308  0.9211
  151SAPE  H14R16670   5.717   6.477   5.648  0.0033  0.1731 -1.6262
  151SAPE  C21516671   5.559   6.569   5.558 -0.7201  0.2716  0.1820
  151SAPE  H15R16672   5.629   6.614   5.486  0.3202 -0.8785  0.4408
  151SAPE  C21616673   5.414   6.610   5.560  0.4109  0.2993 -0.0739
  151SAPE  H16R16674   5.368   6.656   5.651 -2.3593 -3.1558  0.5106
  151SAPE  H16S16675   5.363   6.513   5.546 -1.2492  1.3201 -1.5711
  151SAPE  C21716676   5.367   6.693   5.435  0.2450 -0.2405 -0.4585
  151SAPE  H17R16677   5.412   6.794   5.441 -0.7507  0.1959 -0.0227
  151SAPE  H17S16678   5.259   6.718   5.437  0.6404  2.1584 -3.0648
  151SAPE  C21816679   5.403   6.626   5.303 -0.2296 -0.4271  1.0857
  151SAPE  H18R16680   5.401   6.515   5.305 -3.8929 -0.6990 -2.4223
  151SAPE  H18S16681   5.500   6.662   5.263  0.4878 -2.9453  0.3857
  151SAPE  C21916682   5.292   6.659   5.195  0.5475  0.0461 -1.0623
  151SAPE  H19R16683   5.260   6.765   5.207 -2.4055 -0.9863  1.4149
  151SAPE  H19S16684   5.199   6.605   5.219 -0.4897  1.2948 -2.1396
  151SAPE  C22016685   5.331   6.636   5.059  0.2434 -0.0911 -0.0891
  151SAPE  H20R16686   5.260   6.660   4.976  2.5919  0.1744 -2.1268
  151SAPE  H20S16687   5.355   6.530   5.037 -1.1661 -1.2063  3.1463
  151SAPE  H20T16688   5.414   6.700   5.022  0.5225  0.1351  0.9026
  151SAPE   C3316689   5.959   6.810   6.405  0.9974  0.4056  0.2720
  151SAPE   H3X16690   6.025   6.732   6.362  1.7588  1.3734 -0.3567
  151SAPE   H3Y16691   6.032   6.889   6.434  1.5551 -0.9630  2.9434
  151SAPE   C3416692   5.865   6.840   6.293  0.9545  0.3004  0.0805
  151SAPE   H4X16693   5.919   6.912   6.228  1.8024 -0.1668  0.2391
  151SAPE   H4Y16694   5.772   6.885   6.332  1.6476  1.0634  0.9169
  151SAPE   C3516695   5.834   6.716   6.204 -0.4719 -0.5530  0.3612
  151SAPE   H5X16696   5.799   6.634   6.270 -0.2713 -1.4349 -0.6032
  151SAPE   H5Y16697   5.925   6.672   6.160  0.2989 -2.9384  3.9248
  151SAPE   C3616698   5.727   6.735   6.095 -0.4042  0.2173 -0.1464
  151SAPE   H6X16699   5.638   6.785   6.140  0.1739  0.9738  0.1695
  151SAPE   H6Y16700   5.688   6.634   6.069 -1.5631  0.7508 -0.5866
  151SAPE   C3716701   5.783   6.816   5.982  0.4129  0.1304  0.4921
  151SAPE   H7X16702   5.861   6.886   6.018  0.4071  0.3315  0.1112
  151SAPE   H7Y16703   5.705   6.876   5.931  0.7666  0.2363  0.0739
  151SAPE   C3816704   5.863   6.733   5.881  0.3738  0.2881 -0.4942
  151SAPE   H8X16705   5.789   6.665   5.832  1.6488 -0.9999 -0.6823
  151SAPE   H8Y16706   5.945   6.677   5.929 -0.4712 -1.4522 -0.9861
  151SAPE   C3916707   5.928   6.814   5.767 -0.0943 -0.4807 -0.4207
  151SAPE   H9X16708   5.979   6.904   5.808 -0.7922 -1.0464  1.7755
  151SAPE   H9Y16709   5.859   6.840   5.684 -0.2335  0.7031  0.0371
  151SAPE  C31016710   6.049   6.732   5.702 -0.5010  0.2811  0.1380
  151SAPE  H10X16711   6.105   6.680   5.783  2.1739  0.3672 -1.5543
  151SAPE  H10Y16712   6.121   6.801   5.652  0.8499 -0.4546  0.9898
  151SAPE  C31116713   6.005   6.626   5.601 -0.8711  0.4781  0.2429
  151SAPE  H11X16714   5.942   6.677   5.525  0.0562  1.1439 -0.1015
  151SAPE  H11Y16715   5.943   6.552   5.657  0.6569 -0.1042  1.2255
  151SAPE  C31216716   6.137   6.563   5.535 -0.2653  0.1451  0.5806
  151SAPE  H12X16717   6.091   6.482   5.475 -0.6420 -1.0562  2.3973
  151SAPE  H12Y16718   6.192   6.540   5.630  0.9206  1.6178  0.2840
  151SAPE  C31316719   6.218   6.649   5.440  0.3541 -0.1673 -0.2987
  151SAPE  H13X16720   6.253   6.741   5.491 -1.2143  0.6421 -0.6082
  151SAPE  H13Y16721   6.156   6.693   5.359  0.8682 -0.1097 -0.6684
  151SAPE  C31416722   6.335   6.572   5.384  0.4342 -0.2476  0.5079
  151SAPE  H14X16723   6.297   6.502   5.308  1.6375 -1.8777  1.3483
  151SAPE  H14Y16724   6.390   6.517   5.463  0.6434 -3.0302 -1.4502
  151SAPE  C31516725   6.435   6.672   5.315  0.0514  0.8985  0.0869
  151SAPE  H15X16726   6.488   6.730   5.393 -0.2294  0.6169  0.4896
  151SAPE  H15Y16727   6.386   6.747   5.249 -1.1717  2.5702  2.7507
  151SAPE  C31616728   6.546   6.594   5.246  0.7454  0.2794 -0.0159
  151SAPE  H16X16729   6.507   6.538   5.159 -1.2168 -1.0957  1.6745
  151SAPE  H16Y16730   6.586   6.516   5.315 -0.7561  0.2394  0.8541
  151SAPE  C31716731   6.655   6.683   5.177  0.0949  0.2016 -0.1758
  151SAPE  H17X16732   6.724   6.741   5.241  0.4397 -1.1790  0.7319
  151SAPE  H17Y16733   6.601   6.767   5.126  0.2085  1.4991  1.7493
  151SAPE  C31816734   6.748   6.621   5.072 -1.3325 -0.7064  0.1027
  151SAPE  H18X16735   6.802   6.541   5.126 -1.2292  0.3134  1.5559
  151SAPE  H18Y16736   6.814   6.705   5.038 -1.5692  0.3193  2.0579
  151SAPE  H18Z16737   6.682   6.581   4.992 -3.1045 -0.1841  1.2399
  152SAPE     N16738   2.264   2.702   7.492 -0.1281  0.0452  0.2196
  152SAPE   HN116739   2.361   2.735   7.474  0.9530 -3.0460 -0.2593
  152SAPE   HN216740   2.190   2.764   7.455 -0.5507  0.6534  1.9937
  152SAPE   HN316741   2.249   2.711   7.594 -0.8366  1.2328  0.0256
  152SAPE   C1216742   2.264   2.562   7.433 -0.4676  0.3948 -0.2246
  152SAPE  H12A16743   2.172   2.509   7.467 -0.6709  1.6699  1.3342
  152SAPE  H12B16744   2.348   2.508   7.482 -0.2632  1.2666  0.3921
  152SAPE   C1116745   2.270   2.571   7.284  0.3682  0.2663 -1.1799
  152SAPE  H11A16746   2.184   2.632   7.250 -1.1553 -1.9878 -1.6147
  152SAPE  H11B16747   2.258   2.474   7.232 -2.9169  0.3470 -0.7526
  152SAPE     P16748   2.514   2.570   7.188  0.0054 -0.1168  0.0145
  152SAPE   O1316749   2.610   2.667   7.123 -0.0153 -0.1741 -0.1014
  152SAPE   O1416750   2.563   2.487   7.300  0.3494  0.0147 -0.1350
  152SAPE   O1216751   2.382   2.643   7.248 -0.9147  0.0863  0.0614
  152SAPE   O1116752   2.462   2.468   7.072  0.0473 -0.0735  0.2222
  152SAPE    C116753   2.346   2.479   6.989  0.0220 -0.1399 -0.0221
  152SAPE    HA16754   2.287   2.388   7.015  1.1566 -0.5465  1.2555
  152SAPE    HB16755   2.295   2.570   7.027  1.6824 -0.0526  2.2102
  152SAPE    C216756   2.375   2.489   6.837  0.0078 -0.5774  0.0401
  152SAPE    HS16757   2.281   2.515   6.785 -0.5777  1.0884  1.7965
  152SAPE   O2116758   2.443   2.374   6.784  0.5072  0.5268 -0.5317
  152SAPE   C2116759   2.372   2.270   6.763  0.2874 -0.0661  0.1503
  152SAPE   O2216760   2.254   2.265   6.794 -0.7066  0.1290 -0.1923
  152SAPE   C2216761   2.444   2.156   6.690 -0.2295 -0.1623 -0.3063
  152SAPE   H2R16762   2.468   2.194   6.588 -0.1019  1.9826  0.4605
  152SAPE   H2S16763   2.534   2.135   6.751 -0.5371  0.4114  0.3526
  152SAPE    C316764   2.478   2.605   6.808 -0.0940 -0.3208  0.6597
  152SAPE    HX16765   2.578   2.581   6.851  0.3452 -3.6112 -1.8435
  152SAPE    HY16766   2.457   2.702   6.858  2.4212 -0.1859  1.6458
  152SAPE   O3116767   2.505   2.618   6.669 -0.0481  0.0654  0.3065
  152SAPE   C3116768   2.419   2.699   6.601 -0.0773 -0.2232  0.3691
  152SAPE   O3216769   2.327   2.755   6.656 -0.0272  0.1262 -0.5240
  152SAPE   C3216770   2.478   2.721   6.466 -0.1803  0.0767 -0.1246
  152SAPE   H2X16771   2.435   2.643   6.399 -0.3956 -0.8097  1.0111
  152SAPE   H2Y16772   2.587   2.707   6.455 -0.1960  1.0587 -1.9568
  152SAPE   C2316773   2.361   2.026   6.670 -0.0190 -0.0458 -0.0571
  152SAPE   H3R16774   2.257   2.049   6.638  0.9638  3.3603 -1.2814
  152SAPE   H3S16775   2.348   1.981   6.770 -0.6106 -1.0045 -0.5484
  152SAPE   C2416776   2.428   1.924   6.563  0.7960  0.1356 -0.5822
  152SAPE   H4R16777   2.533   1.901   6.592  0.6822 -1.3319 -1.2710
  152SAPE   H4S16778   2.450   1.972   6.465 -0.0237 -0.1857 -0.9263
  152SAPE   C2516779   2.339   1.802   6.553  0.4846  1.2921 -0.2541
  152SAPE   H5R16780   2.332   1.743   6.646 -0.9828  3.2476  0.9701
  152SAPE   C2616781   2.253   1.765   6.455  0.1074  0.3033 -0.4151
  152SAPE   H6R16782   2.202   1.668   6.457  0.5920 -0.1229 -3.6969
  152SAPE   C2716783   2.239   1.846   6.326  0.0015 -0.2169 -0.4748
  152SAPE   H7R16784   2.236   1.955   6.347 -0.4374 -0.1894 -0.6730
  152SAPE   H7S16785   2.143   1.821   6.277  0.6713 -0.5850 -1.6433
  152SAPE   C2816786   2.356   1.810   6.241  0.2792 -0.0202  0.4266
  152SAPE   H8R16787   2.455   1.810   6.288  0.8649 -1.7624 -0.7019
  152SAPE   C2916788   2.351   1.744   6.124 -1.2217  0.2085  0.2703
  152SAPE   H9R16789   2.442   1.728   6.064 -2.1328 -0.7062 -0.9223
  152SAPE  C21016790   2.231   1.711   6.035  1.0270  0.6996 -0.6932
  152SAPE  H10R16791   2.140   1.674   6.088  0.2573  0.0003 -2.3890
  152SAPE  H10S16792   2.262   1.625   5.971 -0.4045 -1.4695  1.3634
  152SAPE  C21116793   2.168   1.821   5.964  0.3788 -0.6003  0.4503
  152SAPE  H11R16794   2.104   1.888   6.025 -1.6448 -1.7623 -0.3074
  152SAPE  C21216795   2.176   1.843   5.828 -0.0864  0.7845 -0.3919
  152SAPE  H12R16796   2.124   1.933   5.791 -1.1627 -0.1243 -1.1405
  152SAPE  C21316797   2.255   1.751   5.730 -0.6171  0.3655 -0.8894
  152SAPE  H13R16798   2.215   1.785   5.632  0.4589  1.8900 -0.8457
  152SAPE  H13S16799   2.218   1.648   5.749 -0.6471  0.2483 -1.5714
  152SAPE  C21416800   2.411   1.765   5.734 -0.0125  0.4540  0.0248
  152SAPE  H14R16801   2.459   1.772   5.833  0.2735  0.4062 -0.1083
  152SAPE  C21516802   2.491   1.779   5.625 -0.2141  0.0015 -0.6915
  152SAPE  H15R16803   2.600   1.795   5.625 -0.0760 -0.7811 -2.3351
  152SAPE  C21616804   2.445   1.788   5.482  0.0171 -0.1038 -0.4120
  152SAPE  H16R16805   2.484   1.883   5.440  1.7444  0.6108  2.5856
  152SAPE  H16S16806   2.334   1.788   5.474  0.0092  1.1951 -0.3857
  152SAPE  C21716807   2.489   1.671   5.386  0.0583  0.2509 -0.0477
  152SAPE  H17R16808   2.457   1.698   5.283 -3.5898 -0.5714  0.6922
  152SAPE  H17S16809   2.442   1.574   5.414  0.3981 -0.1414 -0.7936
  152SAPE  C21816810   2.639   1.641   5.371 -0.0584  0.4450  0.0000
  152SAPE  H18R16811   2.687   1.626   5.470  0.8693 -0.0250 -0.5025
  152SAPE  H18S16812   2.692   1.728   5.326 -2.0520  0.8457 -1.7365
  152SAPE  C21916813   2.660   1.517   5.277  0.8720 -0.9655 -0.8864
  152SAPE  H19R16814   2.636   1.563   5.179 -0.3580  1.3762  0.4203
  152SAPE  H19S16815   2.602   1.427   5.306  0.4941 -0.9332 -1.5318
  152SAPE  C22016816   2.812   1.475   5.242  0.3152 -0.0181  0.5284
  152SAPE  H20R16817   2.808   1.395   5.165  1.0199 -0.3180  0.7929
  152SAPE  H20S16818   2.867   1.445   5.334 -0.0434  2.9380  1.8126
  152SAPE  H20T16819   2.871   1.561   5.204  1.2738 -0.5671  0.7212
  152SAPE   C3316820   2.457   2.866   6.411 -0.2190 -0.1534 -0.2233
  152SAPE   H3X16821   2.350   2.894   6.403 -0.0024  0.6198 -0.5037
  152SAPE   H3Y16822   2.501   2.880   6.310 -0.3323  0.5803 -0.1784
  152SAPE   C3416823   2.527   2.968   6.495 -0.4909  0.2391  0.0384
  152SAPE   H4X16824   2.517   2.968   6.605 -0.4826 -0.5919  0.0492
  152SAPE   H4Y16825   2.480   3.060   6.455 -2.3513 -0.9364 -0.6485
  152SAPE   C3516826   2.680   2.977   6.469  0.1297 -0.0535 -0.7290
  152SAPE   H5X16827   2.728   2.878   6.482 -0.5018 -0.1551  1.0742
  152SAPE   H5Y16828   2.731   3.037   6.548 -0.2751 -0.4908 -0.1323
  152SAPE   C3616829   2.731   3.024   6.339 -0.6733  0.7704  0.1776
  152SAPE   H6X16830   2.681   3.122   6.322 -4.3014 -0.6421  1.6248
  152SAPE   H6Y16831   2.702   2.954   6.258 -0.4312  0.8758  0.0013
  152SAPE   C3716832   2.885   3.039   6.343 -0.4133 -0.3642 -0.0104
  152SAPE   H7X16833   2.935   2.941   6.357  1.7609  1.0620  3.2766
  152SAPE   H7Y16834   2.921   3.095   6.432  1.9235  0.2051 -1.2303
  152SAPE   C3816835   2.942   3.109   6.218  0.3060  0.3530  0.7984
  152SAPE   H8X16836   3.051   3.125   6.237  0.2975 -0.9353  2.1093
  152SAPE   H8Y16837   2.899   3.211   6.206  0.4491  0.1871 -1.6369
  152SAPE   C3916838   2.924   3.037   6.080 -0.1385  0.6192 -0.0507
  152SAPE   H9X16839   2.813   3.039   6.071 -0.1528 -0.7218 -0.3639
  152SAPE   H9Y16840   2.940   2.927   6.085 -2.2367  0.3022  1.6437
  152SAPE  C31016841   3.009   3.094   5.972  0.1386 -0.4049  0.1180
  152SAPE  H10X16842   3.116   3.067   5.989  0.4653  1.5443  1.5682
  152SAPE  H10Y16843   3.011   3.205   5.967 -0.5892 -0.4139 -0.4421
  152SAPE  C31116844   2.978   3.032   5.837 -0.5219 -0.4815  0.5027
  152SAPE  H11X16845   2.878   3.062   5.796  0.3203 -0.3071 -1.5727
  152SAPE  H11Y16846   2.978   2.922   5.853  1.3649 -1.0031 -2.3104
  152SAPE  C31216847   3.088   3.075   5.738 -0.3415 -0.2469  0.1374
  152SAPE  H12X16848   3.188   3.035   5.765  1.2875  2.3249 -1.6928
  152SAPE  H12Y16849   3.094   3.185   5.745 -0.0852 -0.1957 -0.8098
  152SAPE  C31316850   3.049   3.038   5.593  0.0587 -0.3614 -0.0935
  152SAPE  H13X16851   2.974   3.114   5.565 -0.3538  0.3160  2.5934
  152SAPE  H13Y16852   3.019   2.932   5.606  1.0892 -0.6288  0.2153
  152SAPE  C31416853   3.168   3.050   5.502  0.0443 -0.2143  0.5224
  152SAPE  H14X16854   3.260   3.005   5.546 -0.8380 -1.4472  1.1692
  152SAPE  H14Y16855   3.189   3.159   5.495  1.0217 -0.4416 -0.2943
  152SAPE  C31516856   3.156   2.986   5.365 -0.8081  0.0978  0.2440
  152SAPE  H15X16857   3.181   2.878   5.369  1.4103  0.6140  1.7608
  152SAPE  H15Y16858   3.238   3.031   5.306 -0.9198 -1.3378 -1.0905
  152SAPE  C31616859   3.035   3.005   5.278 -0.2964  0.1731 -0.3711
  152SAPE  H16X16860   3.007   3.111   5.291 -1.7683 -0.4708  2.6277
  152SAPE  H16Y16861   2.949   2.950   5.323  1.3153 -1.5800  0.7471
  152SAPE  C31716862   3.050   2.962   5.130  0.0014  0.0790  0.0798
  152SAPE  H17X16863   3.090   2.858   5.129  3.2708  1.2008 -2.6790
  152SAPE  H17Y16864   3.125   3.032   5.090  0.4785 -0.3586  0.1963
  152SAPE  C31816865   2.922   2.951   5.046  0.0102 -0.5879 -1.1935
  152SAPE  H18X16866   2.885   3.055   5.040  2.1974  0.4840  1.4284
  152SAPE  H18Y16867   2.854   2.879   5.096 -0.4064  0.3645 -0.3420
  152SAPE  H18Z16868   2.940   2.913   4.943 -3.3150 -1.7632 -1.4493
  153SAPE     N16869   1.216   6.759   7.505  0.0111  0.2154  0.7108
  153SAPE   HN116870   1.261   6.853   7.511  0.4215 -0.0236  1.5532
  153SAPE   HN216871   1.131   6.778   7.448  1.0450 -0.6896 -1.2167
  153SAPE   HN316872   1.196   6.736   7.604  2.0653  0.0218  1.1288
  153SAPE   C1216873   1.301   6.648   7.446 -0.0717 -0.7928 -0.1568
  153SAPE  H12A16874   1.387   6.647   7.517  0.2409 -0.3099 -0.5129
  153SAPE  H12B16875   1.334   6.681   7.345 -0.4160  1.3271  0.3748
  153SAPE   C1116876   1.226   6.518   7.444 -0.0910 -0.6594 -0.4984
  153SAPE  H11A16877   1.305   6.440   7.435  0.2845 -0.2441 -0.8541
  153SAPE  H11B16878   1.157   6.516   7.357 -0.2495  0.2074 -0.3956
  153SAPE     P16879   1.002   6.456   7.570  0.1271 -0.1498  0.1960
  153SAPE   O1316880   0.984   6.312   7.625  0.0755  0.4592  0.0848
  153SAPE   O1416881   0.925   6.568   7.631  0.3928 -0.0122 -0.3021
  153SAPE   O1216882   1.157   6.501   7.563  0.2509 -0.1422  0.2968
  153SAPE   O1116883   0.958   6.442   7.419  0.2060 -0.0459 -0.2355
  153SAPE    C116884   0.837   6.392   7.380  0.0830 -0.4976  0.2783
  153SAPE    HA16885   0.829   6.282   7.397 -0.9023 -0.2100  1.8813
  153SAPE    HB16886   0.751   6.432   7.438 -1.2731 -0.5003 -1.6282
  153SAPE    C216887   0.815   6.421   7.232 -0.4092 -0.6179  0.4021
  153SAPE    HS16888   0.722   6.370   7.199  0.0458 -0.7428 -0.7387
  153SAPE   O2116889   0.928   6.383   7.148  0.9115 -0.3277  0.0120
  153SAPE   C2116890   0.931   6.248   7.143 -0.1571  0.1766  0.1726
  153SAPE   O2216891   0.847   6.173   7.182  0.0394 -0.2131 -1.3411
  153SAPE   C2216892   1.059   6.200   7.084  0.4289 -0.2394 -0.0664
  153SAPE   H2R16893   1.044   6.159   6.982  3.3268 -0.2422 -0.5873
  153SAPE   H2S16894   1.118   6.293   7.068 -0.2108  0.0425 -0.9160
  153SAPE    C316895   0.802   6.573   7.210  0.4823  0.1826  0.0685
  153SAPE    HX16896   0.900   6.618   7.236  0.0465  2.0014 -1.2457
  153SAPE    HY16897   0.721   6.620   7.270 -1.6262  0.2209 -2.6132
  153SAPE   O3116898   0.762   6.597   7.074  0.3525 -0.4142 -0.3767
  153SAPE   C3116899   0.846   6.659   6.995  0.3281  0.2155 -0.0640
  153SAPE   O3216900   0.953   6.703   7.031 -0.2821 -0.5487 -0.0645
  153SAPE   C3216901   0.785   6.668   6.855 -0.7385  0.0554  0.3658
  153SAPE   H2X16902   0.711   6.751   6.853 -0.4533  0.2953 -0.5582
  153SAPE   H2Y16903   0.751   6.564   6.833 -0.9800  0.3085 -0.5079
  153SAPE   C2316904   1.134   6.102   7.175  0.1467  0.3527 -0.7553
  153SAPE   H3R16905   1.067   6.017   7.201 -0.2172  1.5322  2.4902
  153SAPE   H3S16906   1.167   6.154   7.267  0.5765 -1.6000  0.2516
  153SAPE   C2416907   1.266   6.056   7.103  0.3530  0.2145 -0.2372
  153SAPE   H4R16908   1.340   6.136   7.081  1.9912 -1.9961 -3.5707
  153SAPE   H4S16909   1.228   6.016   7.007  1.5054 -0.4758 -0.4183
  153SAPE   C2516910   1.323   5.944   7.188 -0.1939  0.2027 -0.2231
  153SAPE   H5R16911   1.245   5.892   7.246  0.9034 -2.1185 -0.7081
  153SAPE   C2616912   1.451   5.913   7.189 -0.5641  0.3219  0.2094
  153SAPE   H6R16913   1.481   5.835   7.260 -2.1939 -0.1350  0.4440
  153SAPE   C2716914   1.559   5.986   7.109 -0.0760 -0.1783  0.4109
  153SAPE   H7R16915   1.506   6.027   7.020 -1.9518 -0.0298  1.5385
  153SAPE   H7S16916   1.634   5.923   7.057 -0.8448  1.2449 -2.6550
  153SAPE   C2816917   1.619   6.110   7.174 -0.1548  0.0620 -0.4837
  153SAPE   H8R16918   1.551   6.167   7.239  0.3603 -1.7012  1.7093
  153SAPE   C2916919   1.735   6.163   7.141 -0.3246 -0.4274 -0.3472
  153SAPE   H9R16920   1.770   6.247   7.204  1.0066 -1.5109  0.4171
  153SAPE  C21016921   1.832   6.103   7.038 -0.4978 -0.2414 -0.1787
  153SAPE  H10R16922   1.803   6.138   6.936 -1.4570 -1.2881 -0.2776
  153SAPE  H10S16923   1.825   5.993   7.045  0.9248 -0.3410 -0.0702
  153SAPE  C21116924   1.976   6.160   7.052  0.0613  0.0147 -0.4637
  153SAPE  H11R16925   1.987   6.243   7.123  2.1901  0.8546 -1.6599
  153SAPE  C21216926   2.088   6.108   6.983  0.4483  0.0917 -0.0912
  153SAPE  H12R16927   2.182   6.164   6.982 -0.6728  2.0831  1.1511
  153SAPE  C21316928   2.079   5.985   6.888 -0.5120 -1.3712 -0.1268
  153SAPE  H13R16929   2.051   6.022   6.788  2.3275  2.3766  0.2425
  153SAPE  H13S16930   2.002   5.910   6.917 -0.0818 -1.0252  2.0845
  153SAPE  C21416931   2.207   5.906   6.877  0.2104  0.3457 -0.0730
  153SAPE  H14R16932   2.228   5.836   6.960  0.3789 -0.8547 -1.1033
  153SAPE  C21516933   2.305   5.929   6.784  0.7609  0.0621 -0.3126
  153SAPE  H15R16934   2.396   5.868   6.789  0.1734 -0.7773  0.4227
  153SAPE  C21616935   2.301   6.026   6.667 -0.4446  0.1331 -0.7847
  153SAPE  H16R16936   2.409   6.045   6.656 -0.3137 -1.2355 -2.3761
  153SAPE  H16S16937   2.247   6.119   6.695 -1.0266 -0.6943  0.9692
  153SAPE  C21716938   2.244   5.951   6.549  0.1430  0.7469  0.2455
  153SAPE  H17R16939   2.144   5.913   6.579 -0.8296  0.2097 -3.2030
  153SAPE  H17S16940   2.310   5.862   6.537  0.2117  0.8421 -0.0919
  153SAPE  C21816941   2.253   6.032   6.421  0.0626 -0.7395 -0.6861
  153SAPE  H18R16942   2.349   6.087   6.431  0.3641 -1.3410 -0.1381
  153SAPE  H18S16943   2.172   6.107   6.415  2.5780  2.0753 -2.1916
  153SAPE  C21916944   2.239   5.955   6.289  0.4231  0.4378 -0.4111
  153SAPE  H19R16945   2.139   5.906   6.289 -0.6527  2.4853  1.1868
  153SAPE  H19S16946   2.307   5.867   6.287  1.4230  1.2020 -0.3150
  153SAPE  C22016947   2.264   6.034   6.165  0.1850 -0.0833  0.3443
  153SAPE  H20R16948   2.371   6.064   6.174  0.1944 -0.4597  1.6621
  153SAPE  H20S16949   2.205   6.127   6.155  2.0052  1.1146  0.2103
  153SAPE  H20T16950   2.252   5.971   6.074  1.7900 -0.7513  0.5521
  153SAPE   C3316951   0.893   6.697   6.744 -0.5559  0.2997 -0.5556
  153SAPE   H3X16952   0.970   6.617   6.747  1.2189  1.8072 -2.8154
  153SAPE   H3Y16953   0.947   6.788   6.777  2.1237 -0.2329 -3.0564
  153SAPE   C3416954   0.841   6.700   6.601  0.0913 -0.1899  0.7935
  153SAPE   H4X16955   0.893   6.789   6.561 -1.3180 -0.1952 -1.1747
  153SAPE   H4Y16956   0.734   6.729   6.594  0.4769  1.0166 -0.4374
  153SAPE   C3516957   0.882   6.584   6.518  0.3093 -0.3042  0.1837
  153SAPE   H5X16958   0.813   6.501   6.545 -2.1464  1.9081  1.0668
  153SAPE   H5Y16959   0.991   6.563   6.522  0.2886 -0.4948 -0.1936
  153SAPE   C3616960   0.866   6.624   6.367  0.3857  0.3235 -0.2676
  153SAPE   H6X16961   0.914   6.721   6.342 -0.8880  0.4564 -2.4652
  153SAPE   H6Y16962   0.762   6.657   6.348  0.0943  0.2347  1.0805
  153SAPE   C3716963   0.893   6.515   6.263  0.0374  0.7058 -0.4869
  153SAPE   H7X16964   0.817   6.434   6.260  0.4512  0.2924  0.1427
  153SAPE   H7Y16965   0.996   6.475   6.276  0.0924  0.9901 -0.0046
  153SAPE   C3816966   0.894   6.573   6.111  0.2718 -0.0968 -0.1331
  153SAPE   H8X16967   0.894   6.684   6.106 -0.6242 -0.0331  0.8100
  153SAPE   H8Y16968   0.792   6.546   6.076  0.1534 -1.0929  0.9283
  153SAPE   C3916969   1.001   6.527   6.020 -0.5938 -0.0845  0.2427
  153SAPE   H9X16970   1.029   6.419   6.021  0.2836  0.0816  2.7814
  153SAPE   H9Y16971   1.098   6.581   6.029  1.3597 -3.0483 -1.3295
  153SAPE  C31016972   0.966   6.557   5.869 -0.4779 -0.6552  0.8364
  153SAPE  H10X16973   0.914   6.652   5.846  0.2815 -0.7597 -1.5526
  153SAPE  H10Y16974   0.910   6.471   5.826  0.3517 -1.0163  0.4400
  153SAPE  C31116975   1.103   6.543   5.784  0.0932 -0.0778  0.4444
  153SAPE  H11X16976   1.122   6.436   5.806 -3.1236 -0.6947  0.6710
  153SAPE  H11Y16977   1.186   6.606   5.823  1.6144 -1.5751 -0.2553
  153SAPE  C31216978   1.061   6.544   5.635 -0.4539 -0.6371 -0.2543
  153SAPE  H12X16979   0.955   6.512   5.624 -0.1309 -2.1204  0.6394
  153SAPE  H12Y16980   1.118   6.474   5.571  0.8530 -0.3376  0.5345
  153SAPE  C31316981   1.083   6.691   5.583 -0.3767 -0.6477  0.6839
  153SAPE  H13X16982   1.193   6.705   5.584 -0.5235  0.5457  1.4066
  153SAPE  H13Y16983   1.040   6.763   5.656  0.4192 -0.5360  1.0495
  153SAPE  C31416984   1.019   6.726   5.443 -0.1110  0.1489  0.0220
  153SAPE  H14X16985   1.046   6.830   5.418  2.4131 -0.5638 -0.5110
  153SAPE  H14Y16986   0.909   6.711   5.448 -0.2429  1.4046  3.6537
  153SAPE  C31516987   1.074   6.648   5.319 -0.1381 -0.1489 -1.2486
  153SAPE  H15X16988   1.085   6.540   5.343 -1.4152 -0.0490 -0.0752
  153SAPE  H15Y16989   1.179   6.683   5.307  0.8737 -3.0013 -1.3413
  153SAPE  C31616990   1.005   6.665   5.187  0.2882 -0.1170  0.3424
  153SAPE  H16X16991   0.984   6.772   5.167  2.6542  0.5052  0.8987
  153SAPE  H16Y16992   0.904   6.621   5.200 -0.5291  1.7622  0.7082
  153SAPE  C31716993   1.080   6.598   5.068  0.0299 -0.2381  0.4037
  153SAPE  H17X16994   1.188   6.621   5.076 -0.0518 -0.5052  3.5206
  153SAPE  H17Y16995   1.041   6.645   4.974 -0.0437 -1.4688 -0.1972
  153SAPE  C31816996   1.076   6.449   5.065 -1.0477 -0.1637 -0.1328
  153SAPE  H18X16997   1.160   6.393   5.019  1.0228  0.1781  2.9257
  153SAPE  H18Y16998   0.973   6.415   5.041 -1.3944  0.1707  0.8519
  153SAPE  H18Z16999   1.089   6.419   5.170 -1.7125  1.8635  0.5837
  154SAPE     N17000   0.716   4.151   7.400  0.4200 -0.7528 -0.5225
  154SAPE   HN117001   0.660   4.096   7.468  0.2960 -0.4144 -0.3494
  154SAPE   HN217002   0.669   4.236   7.365  1.9856 -0.0191 -0.9403
  154SAPE   HN317003   0.739   4.085   7.323  3.0905 -0.9042  0.2867
  154SAPE   C1217004   0.854   4.160   7.462 -0.1279 -0.0472  0.0309
  154SAPE  H12A17005   0.881   4.055   7.486  0.8847  0.5284  1.5756
  154SAPE  H12B17006   0.851   4.225   7.552  0.0591  0.1442 -0.0984
  154SAPE   C1117007   0.936   4.239   7.365  0.9347  0.4491  0.4592
  154SAPE  H11A17008   0.929   4.180   7.271 -0.8831  0.7908  0.3478
  154SAPE  H11B17009   1.045   4.254   7.381  1.5545 -1.5290 -1.4759
  154SAPE     P17010   0.907   4.485   7.430  0.4483 -0.0381 -0.0519
  154SAPE   O1317011   0.842   4.468   7.561  0.5579  0.0770  0.3787
  154SAPE   O1417012   1.053   4.494   7.438  0.4442 -0.3984  0.6110
  154SAPE   O1217013   0.879   4.365   7.331 -0.1229 -0.3434  0.6127
  154SAPE   O1117014   0.854   4.612   7.365  0.6028  0.1780  0.3723
  154SAPE    C117015   0.835   4.615   7.230  0.0734 -0.1035  0.1818
  154SAPE    HA17016   0.926   4.584   7.174  1.1672  0.1507  1.7454
  154SAPE    HB17017   0.741   4.567   7.197 -0.0282  1.1882 -1.5866
  154SAPE    C217018   0.825   4.761   7.186  0.0727  0.2784  0.1323
  154SAPE    HS17019   0.747   4.806   7.252  0.0415 -0.1988  0.4246
  154SAPE   O2117020   0.779   4.755   7.055  1.0237  0.2799 -0.6815
  154SAPE   C2117021   0.670   4.828   7.020 -0.1930  0.9177 -0.2019
  154SAPE   O2217022   0.605   4.901   7.098 -0.6764 -0.0427  0.2592
  154SAPE   C2217023   0.642   4.796   6.871 -0.1512  0.5912 -0.0994
  154SAPE   H2R17024   0.738   4.788   6.817  0.3634 -1.1975  1.0089
  154SAPE   H2S17025   0.592   4.697   6.865 -0.6686  0.7329  1.4141
  154SAPE    C317026   0.956   4.847   7.199  0.5391  0.0057  0.0690
  154SAPE    HX17027   1.031   4.796   7.134 -1.2788 -1.6663 -0.8335
  154SAPE    HY17028   0.996   4.842   7.303  1.1583 -3.3119 -0.2166
  154SAPE   O3117029   0.930   4.984   7.163 -0.5254 -0.0118  0.3573
  154SAPE   C3117030   0.855   5.054   7.247 -0.7878  0.1715  0.1152
  154SAPE   O3217031   0.819   5.020   7.357  0.2187  0.6536 -0.2077
  154SAPE   C3217032   0.833   5.189   7.176  0.2716 -0.1476 -0.4136
  154SAPE   H2X17033   0.925   5.250   7.190 -0.3930  0.8377 -0.2031
  154SAPE   H2Y17034   0.755   5.238   7.239 -0.2698 -1.0008 -0.4113
  154SAPE   C2317035   0.541   4.897   6.808 -0.3301 -0.0904 -0.2326
  154SAPE   H3R17036   0.586   4.999   6.802  0.1075 -0.1345  1.6564
  154SAPE   H3S17037   0.458   4.913   6.881 -0.0730  1.9995 -0.3398
  154SAPE   C2417038   0.479   4.860   6.667 -0.0918  0.0719 -0.6438
  154SAPE   H4R17039   0.417   4.948   6.638 -0.7922 -0.2579 -0.1812
  154SAPE   H4S17040   0.408   4.777   6.688  0.5959 -0.0812  1.2137
  154SAPE   C2517041   0.574   4.818   6.566 -0.4636 -0.1782  0.1996
  154SAPE   H5R17042   0.594   4.710   6.558 -1.0782 -0.1710 -1.9450
  154SAPE   C2617043   0.634   4.906   6.481 -0.2413  0.3732 -0.4712
  154SAPE   H6R17044   0.698   4.868   6.400 -0.6436 -2.1034  0.3043
  154SAPE   C2717045   0.608   5.059   6.478  0.0066 -0.0440  0.0214
  154SAPE   H7R17046   0.701   5.119   6.487 -0.6391  0.7311  2.0738
  154SAPE   H7S17047   0.542   5.086   6.563  0.3036 -0.5253  0.4083
  154SAPE   C2817048   0.539   5.108   6.352  0.2079 -0.3584 -0.7013
  154SAPE   H8R17049   0.437   5.065   6.348 -0.4828  0.8532  1.7700
  154SAPE   C2917050   0.585   5.195   6.263 -1.1058 -0.6496  0.0272
  154SAPE   H9R17051   0.521   5.213   6.175 -1.3358  0.0579  0.3373
  154SAPE  C21017052   0.709   5.280   6.270 -0.1505  0.5962  0.1139
  154SAPE  H10R17053   0.787   5.234   6.334 -0.3697 -1.0246 -0.7476
  154SAPE  H10S17054   0.697   5.381   6.316 -3.1765  1.2425 -1.7692
  154SAPE  C21117055   0.769   5.313   6.132  0.6055 -0.6010 -1.1116
  154SAPE  H11R17056   0.723   5.398   6.080  0.5073 -0.5322 -0.9140
  154SAPE  C21217057   0.879   5.253   6.077 -0.4996  0.3298  0.4719
  154SAPE  H12R17058   0.928   5.304   5.993  1.2860 -2.7337 -0.5247
  154SAPE  C21317059   0.951   5.131   6.136 -0.2186 -0.3280 -0.7457
  154SAPE  H13R17060   0.949   5.041   6.071  2.5446 -1.8475  1.0532
  154SAPE  H13S17061   0.906   5.103   6.233  2.1139  0.7864  0.7581
  154SAPE  C21417062   1.100   5.146   6.160 -0.1458  0.0817 -0.0434
  154SAPE  H14R17063   1.154   5.140   6.065  1.6678 -1.7459  1.0152
  154SAPE  C21517064   1.184   5.143   6.271  0.5261  0.3748  0.0233
  154SAPE  H15R17065   1.291   5.163   6.251  0.4975 -0.2033 -0.7450
  154SAPE  C21617066   1.140   5.141   6.412 -0.4477  0.0830  0.2301
  154SAPE  H16R17067   1.066   5.222   6.426  1.1824  1.2968  2.4522
  154SAPE  H16S17068   1.226   5.185   6.467  0.4060  0.2466 -1.1814
  154SAPE  C21717069   1.095   5.010   6.481 -0.3258 -0.3493 -0.2239
  154SAPE  H17R17070   1.176   4.934   6.472  1.1432  1.1769 -0.1629
  154SAPE  H17S17071   1.004   4.962   6.437 -0.3737 -1.4173  0.9643
  154SAPE  C21817072   1.074   5.026   6.637  0.4582 -0.5274  0.7599
  154SAPE  H18R17073   0.979   5.082   6.650  1.3196  0.9980  0.6195
  154SAPE  H18S17074   1.158   5.084   6.681 -1.7211  1.2409  2.8767
  154SAPE  C21917075   1.040   4.895   6.706 -0.3060  0.3678  0.1318
  154SAPE  H19R17076   1.131   4.832   6.700 -0.1299  0.2402  2.7011
  154SAPE  H19S17077   0.958   4.835   6.663 -1.0923  1.6610 -0.2336
  154SAPE  C22017078   1.009   4.903   6.852 -0.3204  0.3120 -0.2211
  154SAPE  H20R17079   1.021   4.799   6.891  2.3919  1.7152  3.1808
  154SAPE  H20S17080   0.907   4.945   6.869 -0.4351 -0.3268  0.8054
  154SAPE  H20T17081   1.085   4.962   6.908 -0.0668 -2.3380  2.4933
  154SAPE   C3317082   0.787   5.183   7.031 -0.9570  0.3588 -0.7796
  154SAPE   H3X17083   0.691   5.130   7.019  0.1481 -1.5709 -1.6396
  154SAPE   H3Y17084   0.856   5.118   6.973  0.4540  1.5088 -0.4577
  154SAPE   C3417085   0.794   5.314   6.954 -0.4709  0.2759  0.2021
  154SAPE   H4X17086   0.893   5.311   6.905 -0.2005 -1.5672  0.7925
  154SAPE   H4Y17087   0.782   5.396   7.028 -0.4480 -0.8055  1.4242
  154SAPE   C3517088   0.682   5.313   6.851  0.1444  0.1010  0.0109
  154SAPE   H5X17089   0.583   5.322   6.900  1.1386  0.6601  2.0098
  154SAPE   H5Y17090   0.667   5.210   6.814  1.4677 -0.7176  1.6115
  154SAPE   C3617091   0.697   5.417   6.738  0.4185  0.1645 -0.5116
  154SAPE   H6X17092   0.727   5.516   6.779  0.7223 -0.6381  1.2496
  154SAPE   H6Y17093   0.606   5.438   6.678  0.3528  3.7437  0.6125
  154SAPE   C3717094   0.807   5.387   6.635  0.0528 -0.3057  0.4386
  154SAPE   H7X17095   0.768   5.324   6.552 -0.2472  0.6690 -0.1777
  154SAPE   H7Y17096   0.887   5.324   6.679  0.6386  1.3683  1.8849
  154SAPE   C3817097   0.875   5.513   6.569  0.3411 -0.5604 -0.6889
  154SAPE   H8X17098   0.916   5.584   6.644  0.7620  0.6552 -2.0337
  154SAPE   H8Y17099   0.801   5.570   6.508 -1.0731 -0.2064  1.2420
  154SAPE   C3917100   0.995   5.468   6.485 -0.4426  0.3976  0.1383
  154SAPE   H9X17101   0.944   5.403   6.410  1.2905  0.5453 -1.2492
  154SAPE   H9Y17102   1.065   5.407   6.547 -1.1971  1.0060  1.6330
  154SAPE  C31017103   1.061   5.580   6.408  0.0105  0.7951 -0.5564
  154SAPE  H10X17104   0.984   5.648   6.367 -0.5762  0.2315 -0.4012
  154SAPE  H10Y17105   1.107   5.534   6.317 -1.1544  0.6656 -1.0925
  154SAPE  C31117106   1.158   5.666   6.492 -1.0422 -0.0381 -0.6762
  154SAPE  H11X17107   1.254   5.613   6.507 -1.0136  0.3520  0.6567
  154SAPE  H11Y17108   1.118   5.665   6.596 -1.9527  0.4833 -1.0037
  154SAPE  C31217109   1.188   5.807   6.439 -0.0060  0.0831 -0.3694
  154SAPE  H12X17110   1.260   5.853   6.509  1.0020 -1.9078 -0.0312
  154SAPE  H12Y17111   1.097   5.870   6.433 -0.3554 -0.3749 -0.0333
  154SAPE  C31317112   1.270   5.804   6.312 -0.1485  0.8561 -0.2971
  154SAPE  H13X17113   1.264   5.905   6.264  1.9251  1.2085  0.1094
  154SAPE  H13Y17114   1.211   5.739   6.244 -0.4569 -0.2080  0.9526
  154SAPE  C31417115   1.424   5.784   6.326  0.0582 -0.4928  0.4220
  154SAPE  H14X17116   1.442   5.708   6.405 -0.0210 -0.1583  0.7660
  154SAPE  H14Y17117   1.464   5.883   6.355 -0.5560  0.9207 -3.0995
  154SAPE  C31517118   1.487   5.736   6.198  0.3855  0.6286 -0.2457
  154SAPE  H15X17119   1.457   5.632   6.170  3.1842 -0.0801 -0.8780
  154SAPE  H15Y17120   1.598   5.736   6.192  0.5258 -3.2005 -0.1050
  154SAPE  C31617121   1.440   5.820   6.077  0.8180  0.7341  0.5677
  154SAPE  H16X17122   1.469   5.927   6.079  2.2636  0.3616  0.4668
  154SAPE  H16Y17123   1.329   5.818   6.067  0.7506  0.8944  1.1842
  154SAPE  C31717124   1.504   5.776   5.937 -0.1069 -0.1731 -0.4226
  154SAPE  H17X17125   1.481   5.669   5.922  0.4678 -0.3924  0.2188
  154SAPE  H17Y17126   1.614   5.775   5.951 -0.3736 -0.3938  2.1849
  154SAPE  C31817127   1.451   5.849   5.815 -0.1468  0.7213 -0.3206
  154SAPE  H18X17128   1.493   5.952   5.816 -0.0584  0.7116  1.9445
  154SAPE  H18Y17129   1.340   5.849   5.815 -0.2003 -1.7673 -1.1562
  154SAPE  H18Z17130   1.478   5.806   5.717 -2.3106  0.0687 -0.6791
  155SAPE     N17131   2.205   5.888   7.514  0.4640  0.2717  0.5218
  155SAPE   HN117132   2.122   5.927   7.465  0.5902 -0.2655 -0.1267
  155SAPE   HN217133   2.269   5.844   7.444 -1.5210 -0.5078 -0.8820
  155SAPE   HN317134   2.170   5.813   7.576  2.5052 -1.0967  0.1083
  155SAPE   C1217135   2.298   5.983   7.592  0.0658  0.5494  0.2492
  155SAPE  H12A17136   2.380   5.926   7.641 -1.4074 -2.2485 -0.3068
  155SAPE  H12B17137   2.235   6.036   7.666 -1.1249  0.9939 -1.0218
  155SAPE   C1117138   2.349   6.087   7.493  0.1819 -0.7407 -0.4754
  155SAPE  H11A17139   2.413   6.161   7.546  1.8830 -1.1087 -1.9192
  155SAPE  H11B17140   2.254   6.132   7.458 -1.0386 -1.3507  1.8517
  155SAPE     P17141   2.573   6.020   7.375 -0.1789 -0.1648 -0.0249
  155SAPE   O1317142   2.634   6.028   7.507 -0.0515  0.1012  0.3418
  155SAPE   O1417143   2.608   5.904   7.286 -0.6197  0.4713  0.5352
  155SAPE   O1217144   2.416   6.025   7.389 -0.5444 -0.5860  0.9617
  155SAPE   O1117145   2.600   6.153   7.286  0.4975 -0.2285 -0.0584
  155SAPE    C117146   2.499   6.186   7.188 -0.8133 -0.0611 -0.4318
  155SAPE    HA17147   2.453   6.097   7.141  1.9150 -1.9358  0.2368
  155SAPE    HB17148   2.417   6.244   7.236  0.3125 -1.8225  4.0746
  155SAPE    C217149   2.574   6.260   7.069  0.6757 -0.1930 -0.1415
  155SAPE    HS17150   2.628   6.353   7.101 -1.6872  1.4377 -0.6580
  155SAPE   O2117151   2.477   6.285   6.967 -0.6304  0.0533 -0.3602
  155SAPE   C2117152   2.444   6.408   6.941 -0.7152 -0.2284  0.2169
  155SAPE   O2217153   2.502   6.509   6.989 -0.3203 -0.6035  0.2519
  155SAPE   C2217154   2.317   6.416   6.858  0.3237 -0.6486  0.1778
  155SAPE   H2R17155   2.268   6.319   6.835  0.6201 -0.7539 -0.0262
  155SAPE   H2S17156   2.241   6.481   6.906 -0.1631 -2.1213  1.4919
  155SAPE    C317157   2.692   6.167   7.029  0.5515  0.2311 -0.2574
  155SAPE    HX17158   2.636   6.083   6.983  0.0889  0.7240 -0.5996
  155SAPE    HY17159   2.743   6.127   7.119 -0.4297 -1.4636 -0.3971
  155SAPE   O3117160   2.775   6.234   6.934 -0.3959 -0.1925  0.0395
  155SAPE   C3117161   2.745   6.216   6.807  0.2485  0.4314  0.3004
  155SAPE   O3217162   2.668   6.134   6.756 -0.4118 -0.0265 -0.2919
  155SAPE   C3217163   2.841   6.305   6.730  0.5702  0.1015  0.1526
  155SAPE   H2X17164   2.947   6.274   6.744  0.4061  0.5618  3.0614
  155SAPE   H2Y17165   2.835   6.404   6.781  2.6692  1.2302 -1.6134
  155SAPE   C2317166   2.341   6.493   6.729 -0.0454 -0.3196 -1.0547
  155SAPE   H3R17167   2.398   6.586   6.748  0.2422 -0.5121 -0.9745
  155SAPE   H3S17168   2.237   6.522   6.702 -1.5057 -2.6462  1.5778
  155SAPE   C2417169   2.428   6.417   6.622 -0.3492  0.1305 -0.4807
  155SAPE   H4R17170   2.398   6.314   6.594 -0.5430 -1.8311  5.6785
  155SAPE   H4S17171   2.525   6.402   6.674  0.0235  1.0650 -0.8822
  155SAPE   C2517172   2.452   6.502   6.505  0.1113 -0.3011 -0.3688
  155SAPE   H5R17173   2.496   6.601   6.527  1.2512 -1.1179  1.2215
  155SAPE   C2617174   2.417   6.486   6.376 -0.5850  0.2057  0.3098
  155SAPE   H6R17175   2.440   6.571   6.310  0.3533  0.6039  1.1169
  155SAPE   C2717176   2.337   6.379   6.312  0.5160 -0.1673  0.5983
  155SAPE   H7R17177   2.312   6.303   6.388 -0.2570 -1.3047 -0.7546
  155SAPE   H7S17178   2.414   6.330   6.248 -0.3882  0.2783 -0.8788
  155SAPE   C2817179   2.225   6.435   6.233 -0.6907  0.9380  0.3715
  155SAPE   H8R17180   2.127   6.454   6.280 -1.6263  0.0061 -1.1113
  155SAPE   C2917181   2.234   6.455   6.097  0.4520 -0.0308 -0.6594
  155SAPE   H9R17182   2.141   6.494   6.054  1.7924  2.8111 -1.1492
  155SAPE  C21017183   2.347   6.444   6.004 -0.1371  0.3007 -0.4535
  155SAPE  H10R17184   2.441   6.453   6.062 -1.5287 -0.9041  2.1631
  155SAPE  H10S17185   2.335   6.535   5.941 -0.4560 -0.7262 -1.9237
  155SAPE  C21117186   2.355   6.311   5.929  0.4339 -0.3060 -0.0098
  155SAPE  H11R17187   2.375   6.224   5.993 -0.4322 -0.6711 -0.2231
  155SAPE  C21217188   2.361   6.297   5.790 -0.3588 -0.2030 -0.1180
  155SAPE  H12R17189   2.374   6.200   5.740  1.5155  0.0930 -0.2965
  155SAPE  C21317190   2.354   6.404   5.689 -0.4722  0.3416  0.3546
  155SAPE  H13R17191   2.457   6.433   5.661 -0.2018 -0.2217  0.7444
  155SAPE  H13S17192   2.299   6.492   5.728  3.0665  2.9661 -0.1159
  155SAPE  C21417193   2.288   6.356   5.559 -0.7703 -0.3328 -0.1406
  155SAPE  H14R17194   2.230   6.263   5.562  2.1496 -2.2725  0.5250
  155SAPE  C21517195   2.299   6.423   5.443 -0.3039 -0.2301  0.4909
  155SAPE  H15R17196   2.256   6.371   5.356 -3.7197  0.5280  1.5780
  155SAPE  C21617197   2.375   6.554   5.420  0.1383  0.0824 -0.6618
  155SAPE  H16R17198   2.477   6.555   5.463  1.3222  0.3470 -3.2871
  155SAPE  H16S17199   2.323   6.638   5.471  1.7661  0.5852  0.2216
  155SAPE  C21717200   2.391   6.564   5.269  0.3444 -0.5202  0.0594
  155SAPE  H17R17201   2.297   6.543   5.213  0.8490 -1.4049 -0.4889
  155SAPE  H17S17202   2.458   6.481   5.238  1.7868  1.1269 -1.4361
  155SAPE  C21817203   2.452   6.694   5.220 -0.5119 -0.4629 -0.3992
  155SAPE  H18R17204   2.538   6.725   5.283 -1.9969  0.5642  1.2530
  155SAPE  H18S17205   2.376   6.772   5.245  0.8079  0.1596  2.0585
  155SAPE  C21917206   2.494   6.701   5.072  0.5581  1.3024 -0.3691
  155SAPE  H19R17207   2.549   6.796   5.054  2.1939  0.7941  1.5509
  155SAPE  H19S17208   2.405   6.702   5.007  0.5568  0.0366 -0.4087
  155SAPE  C22017209   2.590   6.592   5.039  0.2185  0.0120 -0.6180
  155SAPE  H20R17210   2.635   6.622   4.942 -1.2212  1.7275 -0.8091
  155SAPE  H20S17211   2.547   6.490   5.030  2.4171 -0.9975 -0.2067
  155SAPE  H20T17212   2.667   6.586   5.118 -1.1365 -0.7449  0.7089
  155SAPE   C3317213   2.807   6.319   6.581  0.3194  0.6011  0.3578
  155SAPE   H3X17214   2.699   6.326   6.555  0.0924 -1.3342  0.6576
  155SAPE   H3Y17215   2.839   6.228   6.526 -2.2312 -0.7196  0.9031
  155SAPE   C3417216   2.868   6.449   6.525 -0.2278 -0.2437  0.3325
  155SAPE   H4X17217   2.977   6.452   6.545  0.5170 -0.6386 -3.0476
  155SAPE   H4Y17218   2.826   6.533   6.583  1.6631  0.5719  0.6048
  155SAPE   C3517219   2.855   6.455   6.372  0.6175  0.4900 -0.2118
  155SAPE   H5X17220   2.748   6.473   6.349  1.2071  1.6981 -2.3210
  155SAPE   H5Y17221   2.886   6.367   6.311 -0.7936  0.9737 -1.6899
  155SAPE   C3617222   2.939   6.568   6.318 -0.2076 -0.3461 -0.1465
  155SAPE   H6X17223   3.042   6.557   6.360 -0.2348 -0.4449 -0.1054
  155SAPE   H6Y17224   2.898   6.665   6.354 -0.6274 -0.8426  0.7671
  155SAPE   C3717225   2.957   6.573   6.162  0.5015 -0.0332  0.1202
  155SAPE   H7X17226   2.961   6.473   6.113  1.4799  0.6814 -1.3583
  155SAPE   H7Y17227   3.053   6.625   6.138  0.1391 -0.0529 -1.5178
  155SAPE   C3817228   2.867   6.673   6.096  0.6079  0.3695  0.3274
  155SAPE   H8X17229   2.862   6.772   6.145 -0.9018  1.3014 -1.5717
  155SAPE   H8Y17230   2.762   6.636   6.096  1.1792 -1.5342 -2.1828
  155SAPE   C3917231   2.906   6.737   5.963  0.3263 -0.4399 -0.6129
  155SAPE   H9X17232   3.006   6.784   5.975 -0.2918  0.5458  1.0261
  155SAPE   H9Y17233   2.839   6.824   5.945  1.9318  0.9773 -0.0217
  155SAPE  C31017234   2.888   6.632   5.853 -0.8124 -0.3127 -0.8888
  155SAPE  H10X17235   2.785   6.593   5.862 -0.9161  0.4442  2.5506
  155SAPE  H10Y17236   2.965   6.553   5.869  0.9029  1.7004  1.8045
  155SAPE  C31117237   2.895   6.704   5.723  0.6768  0.3586  0.2114
  155SAPE  H11X17238   2.987   6.765   5.711  0.2010  0.9173 -0.7602
  155SAPE  H11Y17239   2.807   6.772   5.730 -1.0088 -1.4937 -1.4152
  155SAPE  C31217240   2.862   6.617   5.605 -0.4402  0.4901 -0.0530
  155SAPE  H12X17241   2.752   6.604   5.613 -0.0706 -2.1941  2.5726
  155SAPE  H12Y17242   2.909   6.516   5.604  1.3478  1.2859 -0.0403
  155SAPE  C31317243   2.896   6.690   5.478  0.4171 -0.0122  0.1766
  155SAPE  H13X17244   2.994   6.740   5.492 -0.3661  1.5165  0.3784
  155SAPE  H13Y17245   2.830   6.779   5.470 -0.3565 -0.5260  0.6543
  155SAPE  C31417246   2.878   6.602   5.343  0.0911 -0.2476 -0.0970
  155SAPE  H14X17247   2.868   6.678   5.262  2.5401  1.6355  1.2151
  155SAPE  H14Y17248   2.785   6.543   5.356 -0.0900  0.1676  0.5295
  155SAPE  C31517249   3.002   6.508   5.318  0.3431 -0.0090  0.9861
  155SAPE  H15X17250   3.005   6.434   5.400  0.4912  1.7566  2.6544
  155SAPE  H15Y17251   3.092   6.573   5.321  1.1321 -0.9270 -0.8961
  155SAPE  C31617252   2.982   6.432   5.185  0.1916  0.5809  0.1480
  155SAPE  H16X17253   3.042   6.474   5.101 -0.9281  2.0993  0.0713
  155SAPE  H16Y17254   2.876   6.445   5.157 -0.2175 -0.2686  1.2347
  155SAPE  C31717255   3.011   6.276   5.196 -0.6261 -0.6934 -0.2452
  155SAPE  H17X17256   2.932   6.233   5.262  1.8426  0.6964  4.0027
  155SAPE  H17Y17257   3.110   6.255   5.240 -1.3311 -1.8189  0.8824
  155SAPE  C31817258   2.998   6.205   5.059  0.6702  0.0688  0.5978
  155SAPE  H18X17259   3.067   6.118   5.053 -1.6293 -2.0125  2.3128
  155SAPE  H18Y17260   3.011   6.278   4.976 -0.2308  2.1419  2.2068
  155SAPE  H18Z17261   2.896   6.160   5.056  0.5246  0.3457  1.2566
  156SAPE     N17262   3.790   2.133   7.055 -0.1770  1.2543  0.4458
  156SAPE   HN117263   3.730   2.087   6.984 -1.7530  2.7736  0.7371
  156SAPE   HN217264   3.841   2.210   7.007 -3.8654  1.6957 -3.3553
  156SAPE   HN317265   3.860   2.060   7.080  0.5043  1.2636 -1.2840
  156SAPE   C1217266   3.704   2.175   7.174  0.6682 -0.4979 -0.3534
  156SAPE  H12A17267   3.761   2.171   7.269  0.0388  1.8031  0.1910
  156SAPE  H12B17268   3.621   2.102   7.182  0.6137 -0.2843  1.3958
  156SAPE   C1117269   3.645   2.314   7.161 -0.2466 -0.8407  0.9053
  156SAPE  H11A17270   3.718   2.397   7.171 -1.2374  0.3306 -1.0595
  156SAPE  H11B17271   3.564   2.329   7.235  1.4401  1.6112  2.4164
  156SAPE     P17272   3.468   2.420   6.995  0.1281 -0.0421 -0.3034
  156SAPE   O1317273   3.344   2.363   7.044 -0.2161  0.0725  0.6417
  156SAPE   O1417274   3.504   2.554   7.048  0.0382  0.3120  0.1517
  156SAPE   O1217275   3.590   2.323   7.026 -0.5035 -0.2864 -0.8310
  156SAPE   O1117276   3.467   2.431   6.836  0.5298  0.4566 -0.0334
  156SAPE    C117277   3.503   2.320   6.756 -0.0554 -0.0302 -0.3616
  156SAPE    HA17278   3.497   2.223   6.809  1.1526 -1.3579 -2.4751
  156SAPE    HB17279   3.433   2.310   6.671  0.3292  0.1711 -0.7080
  156SAPE    C217280   3.645   2.351   6.693  0.1307  0.2281 -0.5465
  156SAPE    HS17281   3.709   2.394   6.772  0.7634 -1.0693 -0.3254
  156SAPE   O2117282   3.630   2.442   6.584  0.6091  0.0562  0.7626
  156SAPE   C2117283   3.643   2.577   6.620  0.5823  0.1653 -0.3010
  156SAPE   O2217284   3.677   2.624   6.724 -0.0176 -0.4618  0.3649
  156SAPE   C2217285   3.609   2.658   6.494 -0.6900 -0.1001  0.0409
  156SAPE   H2R17286   3.594   2.594   6.404 -1.0044  1.1046 -0.7930
  156SAPE   H2S17287   3.517   2.713   6.523 -0.3775 -0.7825  2.5879
  156SAPE    C317288   3.715   2.223   6.652 -0.4529 -0.3195  0.9771
  156SAPE    HX17289   3.753   2.165   6.739 -1.5353 -0.7524  1.1724
  156SAPE    HY17290   3.807   2.255   6.598 -0.7056 -0.4602  0.4596
  156SAPE   O3117291   3.633   2.141   6.568 -0.5712  0.4038  0.0660
  156SAPE   C3117292   3.687   2.040   6.499  0.7723  0.5591  0.2457
  156SAPE   O3217293   3.800   2.001   6.502  0.3747 -0.0314  0.6608
  156SAPE   C3217294   3.576   1.993   6.405  0.7578 -0.4845 -0.2018
  156SAPE   H2X17295   3.539   2.087   6.358  2.3465  1.3501  1.9565
  156SAPE   H2Y17296   3.505   1.935   6.467  1.2628 -2.1737 -1.1529
  156SAPE   C2317297   3.712   2.773   6.466 -0.2812  0.0609  0.6912
  156SAPE   H3R17298   3.794   2.715   6.420  0.1253  1.9184 -1.0713
  156SAPE   H3S17299   3.732   2.815   6.567 -0.5727  2.4733 -0.1689
  156SAPE   C2417300   3.660   2.888   6.374  0.5800  0.2181  0.8521
  156SAPE   H4R17301   3.718   2.982   6.386 -0.4557  1.0433 -0.3544
  156SAPE   H4S17302   3.553   2.910   6.395  0.1573  0.4800 -1.3585
  156SAPE   C2517303   3.639   2.850   6.226 -0.8515 -0.1086 -0.8019
  156SAPE   H5R17304   3.550   2.788   6.208  0.0945 -2.3425  1.6030
  156SAPE   C2617305   3.721   2.866   6.129 -0.3400  0.1799  0.3103
  156SAPE   H6R17306   3.680   2.853   6.028 -1.1864  0.0209  0.6669
  156SAPE   C2717307   3.854   2.936   6.126  0.4911  0.4828  0.8958
  156SAPE   H7R17308   3.876   2.973   6.229  0.6465 -0.1320  1.0913
  156SAPE   H7S17309   3.838   3.029   6.067 -0.8540  0.8108  1.7375
  156SAPE   C2817310   3.961   2.855   6.061  0.2137  0.1449  0.2405
  156SAPE   H8R17311   4.002   2.789   6.139 -2.2941 -0.6729  0.9577
  156SAPE   C2917312   4.011   2.855   5.933  0.2203 -0.2307 -0.3019
  156SAPE   H9R17313   4.101   2.795   5.912  0.6205  0.2551 -0.0118
  156SAPE  C21017314   3.955   2.934   5.815  0.2163  0.2553 -0.1418
  156SAPE  H10R17315   4.015   3.028   5.809  0.0758  0.4480  1.1998
  156SAPE  H10S17316   3.855   2.972   5.843 -0.5144 -1.8880  0.3109
  156SAPE  C21117317   3.953   2.876   5.674 -0.2409  0.0863  0.0739
  156SAPE  H11R17318   3.982   2.950   5.598 -3.5279  1.4360 -0.0274
  156SAPE  C21217319   3.912   2.753   5.630 -0.3145 -0.2079 -0.4836
  156SAPE  H12R17320   3.903   2.741   5.521 -0.0477 -0.2107 -0.5038
  156SAPE  C21317321   3.865   2.638   5.715  0.2584 -0.4775 -0.0756
  156SAPE  H13R17322   3.779   2.583   5.672 -0.0267  0.7192 -1.0947
  156SAPE  H13S17323   3.805   2.676   5.800 -0.8852 -1.5612 -0.3560
  156SAPE  C21417324   3.981   2.554   5.761  0.1075  0.2950  0.2563
  156SAPE  H14R17325   4.001   2.559   5.869 -1.9696  0.5794  0.6679
  156SAPE  C21517326   4.065   2.470   5.681  0.1685 -0.8754 -0.2964
  156SAPE  H15R17327   4.153   2.415   5.719  0.5768 -0.7033 -0.9871
  156SAPE  C21617328   4.055   2.461   5.529 -0.7467 -0.0325 -0.1845
  156SAPE  H16R17329   3.950   2.474   5.496 -1.0652 -1.3248  0.2933
  156SAPE  H16S17330   4.081   2.356   5.503  1.1779  0.2571  0.4244
  156SAPE  C21717331   4.136   2.564   5.455 -0.1078 -0.0982 -0.4858
  156SAPE  H17R17332   4.243   2.535   5.462 -0.3885 -0.8346  1.2867
  156SAPE  H17S17333   4.117   2.668   5.486 -0.0103 -0.5336  1.1230
  156SAPE  C21817334   4.115   2.550   5.299  0.5601  0.3262  0.4061
  156SAPE  H18R17335   4.143   2.445   5.277  0.7511  0.3972  0.3077
  156SAPE  H18S17336   4.198   2.609   5.255 -0.0553  0.5922 -0.4093
  156SAPE  C21917337   3.984   2.601   5.244  0.2143 -0.9272 -0.6403
  156SAPE  H19R17338   3.970   2.707   5.275  0.8431 -0.5684 -1.5329
  156SAPE  H19S17339   3.902   2.540   5.286 -0.3523  1.3789  1.8659
  156SAPE  C22017340   3.978   2.601   5.095 -0.5648 -0.1950 -0.2881
  156SAPE  H20R17341   3.958   2.498   5.057 -1.2678  0.6001 -2.2051
  156SAPE  H20S17342   4.082   2.620   5.059 -0.5526 -0.4854 -0.4137
  156SAPE  H20T17343   3.905   2.675   5.057  0.2753  0.4958 -0.5949
  156SAPE   C3317344   3.632   1.908   6.285 -0.3546  0.0277  0.0920
  156SAPE   H3X17345   3.631   1.799   6.311 -1.7301  0.2751  1.1766
  156SAPE   H3Y17346   3.738   1.935   6.263  0.7949 -2.8846  1.4064
  156SAPE   C3417347   3.551   1.920   6.154 -0.6166  0.4298 -0.0522
  156SAPE   H4X17348   3.539   2.025   6.122 -0.5365  1.1094  1.9889
  156SAPE   H4Y17349   3.450   1.876   6.173 -0.3183 -0.5830 -0.7631
  156SAPE   C3517350   3.627   1.852   6.045  0.3054  0.1667 -0.2578
  156SAPE   H5X17351   3.734   1.876   6.055  0.1608 -0.0151  2.3615
  156SAPE   H5Y17352   3.594   1.879   5.942 -0.2368  0.8458  0.0867
  156SAPE   C3617353   3.605   1.701   6.037  0.8106  0.1088  0.4649
  156SAPE   H6X17354   3.496   1.693   6.016  1.0534 -2.0146 -0.2100
  156SAPE   H6Y17355   3.628   1.644   6.129  0.3695 -1.2978 -0.2790
  156SAPE   C3717356   3.693   1.627   5.930 -0.5971  0.1253  0.8602
  156SAPE   H7X17357   3.708   1.518   5.943  1.8975  0.6102  2.6077
  156SAPE   H7Y17358   3.794   1.671   5.923  0.2734 -1.6844  1.4450
  156SAPE   C3817359   3.629   1.649   5.792  0.4735  0.0502 -0.3393
  156SAPE   H8X17360   3.621   1.758   5.776  0.7150  0.1993  0.5572
  156SAPE   H8Y17361   3.528   1.603   5.799 -1.2981  3.7895  0.8555
  156SAPE   C3917362   3.716   1.586   5.688 -0.3978 -1.0511  0.2010
  156SAPE   H9X17363   3.673   1.490   5.652 -1.0619 -0.6274 -0.1507
  156SAPE   H9Y17364   3.821   1.576   5.723 -1.0285 -1.4373  2.0471
  156SAPE  C31017365   3.720   1.684   5.567  0.2183 -0.4692 -0.2848
  156SAPE  H10X17366   3.788   1.763   5.604 -0.6901 -0.0771  0.5945
  156SAPE  H10Y17367   3.623   1.737   5.552 -0.1569 -0.5470  1.6680
  156SAPE  C31117368   3.781   1.620   5.436  0.8919 -0.9202 -0.7782
  156SAPE  H11X17369   3.704   1.564   5.379 -0.4072  1.4493 -1.4904
  156SAPE  H11Y17370   3.854   1.546   5.475  0.4568 -0.5385  0.8484
  156SAPE  C31217371   3.841   1.719   5.346  0.0716  0.5518  0.8449
  156SAPE  H12X17372   3.930   1.778   5.376  0.4176  0.8257 -0.6461
  156SAPE  H12Y17373   3.764   1.797   5.326  0.8633  0.5361 -2.8730
  156SAPE  C31317374   3.881   1.645   5.210 -0.0464 -0.0531 -0.0511
  156SAPE  H13X17375   3.796   1.593   5.160  0.9179  0.8296 -2.7430
  156SAPE  H13Y17376   3.948   1.567   5.252  0.7131  1.0584  0.8586
  156SAPE  C31417377   3.945   1.746   5.119 -0.4765 -0.1203  0.1223
  156SAPE  H14X17378   4.034   1.802   5.155  1.0671 -1.1962 -1.7768
  156SAPE  H14Y17379   3.868   1.823   5.102 -1.6506 -1.2427  0.1974
  156SAPE  C31517380   3.991   1.688   4.979  0.0143 -0.6431 -0.1745
  156SAPE  H15X17381   3.898   1.643   4.937 -1.1954 -0.4679  2.1415
  156SAPE  H15Y17382   4.076   1.618   4.992 -0.3798 -1.2136 -0.5785
  156SAPE  C31617383   4.020   1.809   4.885 -0.7661  0.3230 -0.1483
  156SAPE  H16X17384   4.074   1.883   4.948 -1.2877 -0.1837  0.9419
  156SAPE  H16Y17385   3.927   1.859   4.852 -0.3995  2.7229  2.1422
  156SAPE  C31717386   4.115   1.790   4.767  0.2542  0.2971  0.3492
  156SAPE  H17X17387   4.197   1.721   4.796 -0.7948 -0.2822  2.0752
  156SAPE  H17Y17388   4.152   1.893   4.748 -0.4464  0.8446  1.8277
  156SAPE  C31817389   4.048   1.745   4.632 -0.8060 -0.2811 -0.3606
  156SAPE  H18X17390   3.973   1.823   4.611 -0.4497  0.7331  1.9327
  156SAPE  H18Y17391   3.990   1.653   4.656 -0.8368  0.3899  2.3620
  156SAPE  H18Z17392   4.120   1.738   4.547  0.1010  4.2879 -0.2105
  157SAPE     N17393   1.869   3.645   7.228  0.7278 -0.1759 -0.6194
  157SAPE   HN117394   1.940   3.573   7.206 -0.1033 -1.1678 -0.1275
  157SAPE   HN217395   1.846   3.643   7.329  3.0641 -3.0719 -0.0141
  157SAPE   HN317396   1.778   3.616   7.187 -1.4664  2.9677  1.5454
  157SAPE   C1217397   1.903   3.790   7.194 -0.2097  0.9896  0.2701
  157SAPE  H12A17398   1.821   3.850   7.239 -0.1168  0.9595  0.4765
  157SAPE  H12B17399   1.892   3.793   7.083 -0.9370  1.0797  0.3407
  157SAPE   C1117400   2.037   3.844   7.236  0.3995  0.0869  0.1980
  157SAPE  H11A17401   2.066   3.798   7.333  2.1987 -0.9253 -0.7662
  157SAPE  H11B17402   2.030   3.954   7.247 -2.8436  0.0047 -0.0701
  157SAPE     P17403   2.181   3.888   7.023 -0.5092  0.2468 -0.2025
  157SAPE   O1317404   2.055   3.949   6.977 -0.6085 -0.1666 -0.1596
  157SAPE   O1417405   2.286   3.975   7.073  0.2124  0.9503 -0.0960
  157SAPE   O1217406   2.140   3.790   7.145 -0.3748 -0.3246  0.0108
  157SAPE   O1117407   2.245   3.791   6.921  0.6610  0.2385  0.0772
  157SAPE    C117408   2.163   3.694   6.852 -0.4658 -0.3447  0.1437
  157SAPE    HA17409   2.165   3.598   6.908 -1.2228 -0.3284  0.2077
  157SAPE    HB17410   2.056   3.720   6.841 -1.1849 -2.7096  0.9531
  157SAPE    C217411   2.206   3.656   6.708  0.6397  0.5248  0.8444
  157SAPE    HS17412   2.300   3.599   6.724  1.3070  1.8812  1.9447
  157SAPE   O2117413   2.230   3.779   6.629  0.8048  0.0912 -0.2041
  157SAPE   C2117414   2.354   3.824   6.627 -0.2157  0.1134  0.7399
  157SAPE   O2217415   2.451   3.772   6.681  0.4427 -0.3961  0.5175
  157SAPE   C2217416   2.359   3.958   6.546 -0.4309 -0.4522 -0.3152
  157SAPE   H2R17417   2.289   3.946   6.460  0.0450 -2.7186 -0.4613
  157SAPE   H2S17418   2.332   4.027   6.629  2.4665 -0.4577  0.7410
  157SAPE    C317419   2.091   3.571   6.634 -0.2844 -0.4171 -0.2393
  157SAPE    HX17420   2.003   3.638   6.641 -0.1802 -0.3976  1.0329
  157SAPE    HY17421   2.078   3.484   6.701 -0.8107 -1.0186 -1.0957
  157SAPE   O3117422   2.131   3.522   6.502 -0.2267 -0.2562 -0.1913
  157SAPE   C3117423   2.060   3.417   6.451  0.1779 -0.0282  0.0955
  157SAPE   O3217424   1.964   3.372   6.507  0.3605 -0.1921 -0.4811
  157SAPE   C3217425   2.127   3.364   6.322  0.5376 -0.2450 -0.6334
  157SAPE   H2X17426   2.078   3.265   6.307 -0.2425 -0.1082  0.8042
  157SAPE   H2Y17427   2.231   3.343   6.354  0.4094  0.9921  0.7319
  157SAPE   C2317428   2.501   3.987   6.492  0.4375  0.0425 -0.3322
  157SAPE   H3R17429   2.532   3.901   6.429 -0.3978  0.0078 -0.7120
  157SAPE   H3S17430   2.578   3.996   6.572 -2.9789  4.0114  2.9489
  157SAPE   C2417431   2.503   4.122   6.411  0.1785 -0.8288 -0.3961
  157SAPE   H4R17432   2.407   4.113   6.356  0.1254 -2.1929 -0.1194
  157SAPE   H4S17433   2.580   4.115   6.331 -1.6146  0.1080 -2.2759
  157SAPE   C2517434   2.505   4.260   6.476  0.1932  0.4827 -0.0801
  157SAPE   H5R17435   2.482   4.266   6.584  0.0034  0.8631 -0.1396
  157SAPE   C2617436   2.538   4.374   6.409 -0.4451 -0.4816  0.7304
  157SAPE   H6R17437   2.526   4.470   6.462 -2.0298  0.0946 -0.5968
  157SAPE   C2717438   2.553   4.382   6.261  0.3317  0.3867  0.8369
  157SAPE   H7R17439   2.480   4.450   6.214 -0.6145 -0.9496  0.3078
  157SAPE   H7S17440   2.545   4.279   6.220  0.2796 -0.0307  1.8885
  157SAPE   C2817441   2.690   4.434   6.218 -0.3057 -0.0782  0.2000
  157SAPE   H8R17442   2.773   4.390   6.275  1.9613  1.6972 -1.5392
  157SAPE   C2917443   2.723   4.549   6.152  0.1767 -0.3112  0.7480
  157SAPE   H9R17444   2.828   4.573   6.130  0.0420 -1.2484 -1.1592
  157SAPE  C21017445   2.643   4.651   6.079  0.5323  0.2756  0.5667
  157SAPE  H10R17446   2.551   4.601   6.042 -0.7813  1.0979  2.5358
  157SAPE  H10S17447   2.690   4.698   5.990 -2.3962  1.2325 -0.5696
  157SAPE  C21117448   2.608   4.758   6.184 -0.1458 -0.6598 -0.1521
  157SAPE  H11R17449   2.621   4.721   6.287  3.5640 -1.2695 -0.7018
  157SAPE  C21217450   2.553   4.884   6.165 -0.4273  0.1087  0.3827
  157SAPE  H12R17451   2.553   4.953   6.251  0.7424  0.8841 -0.2047
  157SAPE  C21317452   2.547   4.943   6.027  0.0606  0.0795  1.2722
  157SAPE  H13R17453   2.627   4.902   5.962 -0.5201  2.6637 -1.2798
  157SAPE  H13S17454   2.565   5.052   6.032  1.9395  0.0050 -1.4416
  157SAPE  C21417455   2.420   4.919   5.954  0.3511  0.1521  0.0878
  157SAPE  H14R17456   2.336   4.910   6.025  0.4643 -0.4779  0.1398
  157SAPE  C21517457   2.394   4.904   5.821 -0.1134 -0.3037  0.3767
  157SAPE  H15R17458   2.293   4.890   5.781  0.9254 -2.3075 -1.8364
  157SAPE  C21617459   2.507   4.913   5.708 -0.4874 -0.0097 -0.3760
  157SAPE  H16R17460   2.605   4.874   5.744  0.0058 -0.1352 -1.7898
  157SAPE  H16S17461   2.545   5.015   5.685  2.6111 -0.8503  0.5503
  157SAPE  C21717462   2.466   4.835   5.579  0.3009  0.2092 -0.2108
  157SAPE  H17R17463   2.408   4.744   5.604 -2.2993  1.6277 -0.7403
  157SAPE  H17S17464   2.555   4.801   5.521  1.9656  0.4596  2.0609
  157SAPE  C21817465   2.382   4.926   5.485  0.0535  0.1125 -0.1274
  157SAPE  H18R17466   2.429   5.025   5.465 -0.9422  0.3774 -1.2703
  157SAPE  H18S17467   2.284   4.950   5.533  0.7488  2.0302  0.4092
  157SAPE  C21917468   2.352   4.862   5.347 -0.1179  0.6838  0.1010
  157SAPE  H19R17469   2.327   4.755   5.362  0.6413  0.2077 -1.7719
  157SAPE  H19S17470   2.451   4.852   5.297  1.0766 -1.2942  2.6151
  157SAPE  C22017471   2.244   4.937   5.266 -0.1729 -0.2882 -0.2987
  157SAPE  H20R17472   2.206   4.884   5.177  1.1749 -1.3895 -0.2617
  157SAPE  H20S17473   2.291   5.034   5.239 -0.2847 -0.7956 -2.4931
  157SAPE  H20T17474   2.150   4.966   5.318  0.1537 -0.7747  0.5796
  157SAPE   C3317475   2.134   3.458   6.205 -0.7386 -0.4162 -0.4731
  157SAPE   H3X17476   2.209   3.420   6.132 -0.3555 -3.0794  1.1909
  157SAPE   H3Y17477   2.176   3.553   6.244 -0.0631  0.4838 -3.1189
  157SAPE   C3417478   1.997   3.489   6.156 -0.5162 -0.3709  0.5387
  157SAPE   H4X17479   1.933   3.530   6.237  0.4568  0.9024  0.7020
  157SAPE   H4Y17480   1.951   3.402   6.105  0.5520  0.9010 -2.8718
  157SAPE   C3517481   2.005   3.602   6.054  0.5116  0.5406  0.0950
  157SAPE   H5X17482   2.075   3.568   5.974  2.0828  2.3935  0.5931
  157SAPE   H5Y17483   2.046   3.693   6.103  0.3839  0.6863 -0.0652
  157SAPE   C3617484   1.874   3.642   5.982  0.0281  0.0056  1.0315
  157SAPE   H6X17485   1.801   3.652   6.066  0.2411 -4.1001  1.9465
  157SAPE   H6Y17486   1.833   3.557   5.924  1.4136 -0.4794  0.7151
  157SAPE   C3717487   1.884   3.760   5.882 -1.0783  0.0819 -0.0316
  157SAPE   H7X17488   1.791   3.761   5.822 -1.9320  2.1453  1.2311
  157SAPE   H7Y17489   1.976   3.734   5.825 -0.9618 -0.9897  0.6328
  157SAPE   C3817490   1.886   3.899   5.950 -0.3823 -0.4641  0.0573
  157SAPE   H8X17491   1.980   3.923   6.005  1.0327  0.2424 -2.5151
  157SAPE   H8Y17492   1.806   3.899   6.028 -1.5096  1.0928 -1.0224
  157SAPE   C3917493   1.846   4.015   5.858 -1.0843  0.1559 -0.8029
  157SAPE   H9X17494   1.842   4.106   5.922  0.9239 -1.8525  2.4543
  157SAPE   H9Y17495   1.745   4.013   5.813 -1.3949  0.6167 -0.1457
  157SAPE  C31017496   1.960   4.039   5.753 -0.3032  0.0303  0.0027
  157SAPE  H10X17497   1.966   3.962   5.673 -1.3921 -0.5139  0.4247
  157SAPE  H10Y17498   2.057   4.039   5.806  0.4301  3.9215 -0.9697
  157SAPE  C31117499   1.949   4.180   5.698  0.1654  0.5420 -0.7213
  157SAPE  H11X17500   1.948   4.245   5.788  0.0494 -2.4033  1.5636
  157SAPE  H11Y17501   1.859   4.199   5.635  1.4467  1.9882 -2.2262
  157SAPE  C31217502   2.063   4.209   5.604  0.1555 -0.4714 -0.2507
  157SAPE  H12X17503   2.066   4.126   5.530  3.0657 -0.7967  0.1072
  157SAPE  H12Y17504   2.155   4.210   5.667 -0.8347  2.8467  1.3628
  157SAPE  C31317505   2.061   4.342   5.529  0.3730  0.3961 -1.5228
  157SAPE  H13X17506   2.045   4.415   5.612 -0.6883  0.4149 -1.7317
  157SAPE  H13Y17507   1.972   4.350   5.464 -0.2704  1.4778 -0.5590
  157SAPE  C31417508   2.187   4.372   5.452 -0.0452 -0.6326 -0.2548
  157SAPE  H14X17509   2.279   4.358   5.513  1.5000  1.2040 -2.0272
  157SAPE  H14Y17510   2.171   4.476   5.418 -1.4040  0.1249  2.4296
  157SAPE  C31517511   2.189   4.283   5.323  0.0496 -0.7580 -0.2446
  157SAPE  H15X17512   2.097   4.310   5.265 -1.3583 -3.0013  0.7989
  157SAPE  H15Y17513   2.181   4.175   5.347 -2.5913 -0.6652 -0.3512
  157SAPE  C31617514   2.301   4.304   5.225  0.1067 -0.6599  0.1498
  157SAPE  H16X17515   2.405   4.291   5.263  0.4475  3.4049  1.0914
  157SAPE  H16Y17516   2.297   4.410   5.193  1.4194 -0.9013 -0.8952
  157SAPE  C31717517   2.284   4.243   5.083  0.2948 -0.6392 -0.4277
  157SAPE  H17X17518   2.198   4.295   5.036  0.8096 -1.0282 -1.8329
  157SAPE  H17Y17519   2.262   4.134   5.082 -0.2452 -0.5310 -1.9036
  157SAPE  C31817520   2.414   4.271   5.001 -0.6356  0.1045  0.3452
  157SAPE  H18X17521   2.496   4.215   5.052  0.8161  2.0305  0.2836
  157SAPE  H18Y17522   2.440   4.377   4.979  0.9882 -0.4638 -0.6900
  157SAPE  H18Z17523   2.403   4.220   4.903 -0.2544 -0.6423  0.6829
  158SAPE     N17524   4.782   4.446   7.103 -0.8523  0.5354 -0.0992
  158SAPE   HN117525   4.862   4.431   7.167 -2.1070  0.7797  1.5907
  158SAPE   HN217526   4.796   4.534   7.050  1.3773 -0.5544 -1.5091
  158SAPE   HN317527   4.692   4.467   7.151 -0.4596 -0.8083  1.3017
  158SAPE   C1217528   4.782   4.337   7.002 -0.2387  0.5411  0.7231
  158SAPE  H12A17529   4.741   4.382   6.909  0.9462 -1.7565 -0.9963
  158SAPE  H12B17530   4.729   4.255   7.055  1.4061 -1.6905 -0.8995
  158SAPE   C1117531   4.928   4.293   6.983  0.0236  0.7018  0.5738
  158SAPE  H11A17532   4.985   4.380   6.944 -2.3265  2.6876  1.3197
  158SAPE  H11B17533   4.923   4.213   6.906  1.8300  1.9006 -0.8634
  158SAPE     P17534   5.061   4.131   7.126 -0.6789  0.2554  0.2093
  158SAPE   O1317535   5.122   4.125   7.261 -0.9295 -0.9351  0.4247
  158SAPE   O1417536   4.976   4.016   7.073  0.3061 -0.2127 -0.1876
  158SAPE   O1217537   4.982   4.260   7.106 -0.1702  0.3188 -0.5116
  158SAPE   O1117538   5.179   4.153   7.017  0.1786 -0.3078  0.1075
  158SAPE    C117539   5.271   4.048   6.983 -0.6692 -0.0963 -0.5158
  158SAPE    HA17540   5.347   4.046   7.065 -0.1639 -1.3373 -0.9774
  158SAPE    HB17541   5.216   3.951   6.974 -0.3781 -0.5445  1.7689
  158SAPE    C217542   5.358   4.087   6.854  0.3577  0.1344 -0.2111
  158SAPE    HS17543   5.416   4.181   6.862 -0.8801  0.8270  1.0245
  158SAPE   O2117544   5.275   4.081   6.740  0.2450 -0.0444 -0.6387
  158SAPE   C2117545   5.190   4.189   6.737  0.1675 -0.4084  0.1647
  158SAPE   O2217546   5.207   4.297   6.791  0.5823  0.3049 -0.0052
  158SAPE   C2217547   5.066   4.154   6.654 -0.3865 -0.0700  0.0009
  158SAPE   H2R17548   5.094   4.108   6.557  1.2508  1.7795 -0.4803
  158SAPE   H2S17549   5.009   4.079   6.713 -1.3410  1.0061  0.4873
  158SAPE    C317550   5.472   3.986   6.842 -0.2297  0.4381 -0.6899
  158SAPE    HX17551   5.417   3.890   6.836 -0.6177  0.6934 -1.4303
  158SAPE    HY17552   5.527   3.979   6.938 -1.8093  1.1914  0.2961
  158SAPE   O3117553   5.560   4.001   6.729  0.1936  0.0094  0.5776
  158SAPE   C3117554   5.661   4.083   6.755 -0.4436 -0.2600 -0.8288
  158SAPE   O3217555   5.680   4.141   6.859  0.1455 -0.4344  0.1594
  158SAPE   C3217556   5.752   4.073   6.632 -1.4159 -0.0328 -0.3889
  158SAPE   H2X17557   5.796   3.972   6.628  0.3887  0.7228 -0.4150
  158SAPE   H2Y17558   5.841   4.138   6.646 -0.0620 -1.9220  0.1688
  158SAPE   C2317559   4.973   4.275   6.617 -0.3142  0.1110 -0.5587
  158SAPE   H3R17560   5.018   4.345   6.544 -0.2119  1.1947  0.5217
  158SAPE   H3S17561   4.955   4.335   6.709  2.7500  0.5150 -0.1462
  158SAPE   C2417562   4.836   4.218   6.565  0.2503 -0.1149  1.0753
  158SAPE   H4R17563   4.789   4.144   6.633  0.5579 -0.1127  1.2947
  158SAPE   H4S17564   4.860   4.159   6.475 -1.2152  1.8193 -0.6816
  158SAPE   C2517565   4.744   4.331   6.529  0.2084  0.1931 -0.3228
  158SAPE   H5R17566   4.705   4.393   6.611 -1.1110 -3.1619  1.7728
  158SAPE   C2617567   4.707   4.368   6.403  0.0134 -0.0158  0.6788
  158SAPE   H6R17568   4.646   4.459   6.391  0.2061  0.3702  2.4286
  158SAPE   C2717569   4.750   4.293   6.272 -0.3715  0.0886 -0.7636
  158SAPE   H7R17570   4.671   4.217   6.255  0.5952 -0.8350 -1.2511
  158SAPE   H7S17571   4.842   4.235   6.296  0.1220  1.0813 -0.1967
  158SAPE   C2817572   4.764   4.398   6.170  0.6748  0.0726 -0.2335
  158SAPE   H8R17573   4.827   4.484   6.198  0.6760  0.0265 -0.0938
  158SAPE   C2917574   4.727   4.383   6.040 -0.7033 -1.0663  0.0966
  158SAPE   H9R17575   4.747   4.468   5.972  2.4586 -2.2641 -0.6468
  158SAPE  C21017576   4.659   4.266   5.983 -0.0417  0.0094 -0.2003
  158SAPE  H10R17577   4.583   4.227   6.055  2.3076 -0.5862  2.0829
  158SAPE  H10S17578   4.734   4.184   5.990 -0.4197 -0.2061  2.2543
  158SAPE  C21117579   4.594   4.285   5.852 -0.2404 -0.0752  0.1882
  158SAPE  H11R17580   4.486   4.305   5.852 -0.2646  0.5731 -3.8103
  158SAPE  C21217581   4.660   4.287   5.735  0.1163  0.0581  1.0377
  158SAPE  H12R17582   4.599   4.300   5.645 -0.3044 -5.3867  0.2375
  158SAPE  C21317583   4.809   4.258   5.724  0.0807 -0.5381  0.9608
  158SAPE  H13R17584   4.828   4.154   5.693 -0.6641 -0.0916 -1.1777
  158SAPE  H13S17585   4.850   4.267   5.827 -0.3724  0.6200  1.0633
  158SAPE  C21417586   4.877   4.358   5.636  0.3762  0.0138 -0.6163
  158SAPE  H14R17587   4.882   4.460   5.677 -0.2194  0.3104 -1.2750
  158SAPE  C21517588   4.923   4.336   5.509  0.1244  0.3447 -0.5104
  158SAPE  H15R17589   4.967   4.425   5.461  0.8702  1.0136  1.3153
  158SAPE  C21617590   4.920   4.206   5.430  0.2980 -0.4177  0.2435
  158SAPE  H16R17591   4.960   4.131   5.502  1.9727  1.6333  1.5337
  158SAPE  H16S17592   4.987   4.213   5.342  0.7251 -0.3842  0.5690
  158SAPE  C21717593   4.780   4.166   5.377  0.8036  0.8235 -0.2354
  158SAPE  H17R17594   4.704   4.169   5.459  0.5502  1.8903 -0.4969
  158SAPE  H17S17595   4.786   4.064   5.332  1.7300  0.5309  0.5308
  158SAPE  C21817596   4.727   4.268   5.272 -0.1233  0.0518 -0.4268
  158SAPE  H18R17597   4.796   4.282   5.186 -1.1145 -0.4525 -1.3199
  158SAPE  H18S17598   4.725   4.368   5.322 -1.5656 -0.8632  1.4768
  158SAPE  C21917599   4.585   4.241   5.220  0.5897 -0.3159 -0.0072
  158SAPE  H19R17600   4.585   4.145   5.164 -0.2205 -1.2905  1.5743
  158SAPE  H19S17601   4.541   4.319   5.154 -3.8005 -0.9448  1.8220
  158SAPE  C22017602   4.470   4.219   5.327 -0.8537  0.0031  0.1131
  158SAPE  H20R17603   4.375   4.184   5.283 -1.5851 -0.2836  1.8430
  158SAPE  H20S17604   4.456   4.318   5.377  0.6973  0.3677 -0.1070
  158SAPE  H20T17605   4.503   4.147   5.405  0.1398 -0.8530 -1.0706
  158SAPE   C3317606   5.684   4.113   6.504 -0.2477 -0.2011 -0.2279
  158SAPE   H3X17607   5.620   4.204   6.504 -0.2315 -0.1874  0.0722
  158SAPE   H3Y17608   5.612   4.041   6.461 -0.2378  0.4884 -1.4530
  158SAPE   C3417609   5.787   4.146   6.391 -0.6260  0.1015 -0.6791
  158SAPE   H4X17610   5.840   4.051   6.370 -3.2873 -1.3528 -1.2513
  158SAPE   H4Y17611   5.851   4.224   6.438 -1.6895  0.8081 -0.3599
  158SAPE   C3517612   5.724   4.202   6.261 -0.6185 -0.2162 -0.3551
  158SAPE   H5X17613   5.665   4.289   6.298 -1.5911 -1.0655  0.1501
  158SAPE   H5Y17614   5.649   4.131   6.220 -1.2283 -0.2933  0.8465
  158SAPE   C3617615   5.831   4.236   6.157 -0.0589 -0.6887 -0.0007
  158SAPE   H6X17616   5.883   4.144   6.124  1.1538  0.0502 -0.2347
  158SAPE   H6Y17617   5.910   4.302   6.200 -1.3079  1.2749 -0.5776
  158SAPE   C3717618   5.781   4.308   6.030 -0.2485 -0.6878 -0.3142
  158SAPE   H7X17619   5.770   4.417   6.049  2.1543 -0.2414 -1.0628
  158SAPE   H7Y17620   5.677   4.278   6.005 -0.8485  1.3188 -0.3907
  158SAPE   C3817621   5.866   4.290   5.906  0.4531  0.6661  0.2284
  158SAPE   H8X17622   5.965   4.339   5.919  0.7353  0.2085 -0.1761
  158SAPE   H8Y17623   5.820   4.350   5.825  1.0080  0.8793  0.0697
  158SAPE   C3917624   5.868   4.149   5.856 -0.1850 -0.3377  0.5069
  158SAPE   H9X17625   5.764   4.111   5.859 -1.0151  1.5825 -1.5162
  158SAPE   H9Y17626   5.939   4.097   5.924  2.1910 -1.1222 -2.3874
  158SAPE  C31017627   5.934   4.140   5.715 -0.5569  0.0720  0.4819
  158SAPE  H10X17628   5.968   4.037   5.690 -5.5731 -1.6541 -0.3116
  158SAPE  H10Y17629   6.026   4.202   5.715 -1.3732  1.3622  1.9282
  158SAPE  C31117630   5.844   4.186   5.596 -0.1571 -0.8884  0.9050
  158SAPE  H11X17631   5.745   4.192   5.646 -0.7607  0.0970 -0.3436
  158SAPE  H11Y17632   5.840   4.117   5.509 -1.5701  0.4115 -0.1163
  158SAPE  C31217633   5.870   4.322   5.533 -0.2675  0.3401 -0.3032
  158SAPE  H12X17634   5.957   4.316   5.463  0.3810  0.8997  0.4310
  158SAPE  H12Y17635   5.891   4.396   5.613 -1.5058 -0.0593  0.4172
  158SAPE  C31317636   5.753   4.388   5.462  0.0881  0.1443  0.1835
  158SAPE  H13X17637   5.669   4.400   5.535 -0.5804  0.9239 -0.6920
  158SAPE  H13Y17638   5.714   4.313   5.390 -0.7505  0.1495  0.6150
  158SAPE  C31417639   5.795   4.521   5.394  0.7792 -0.2675  0.1359
  158SAPE  H14X17640   5.889   4.509   5.335  2.0963  0.2572  2.0441
  158SAPE  H14Y17641   5.811   4.594   5.477  2.7391 -0.5444  0.0596
  158SAPE  C31517642   5.687   4.579   5.300 -0.2518  0.5595 -0.6582
  158SAPE  H15X17643   5.614   4.623   5.371 -0.6242 -2.5447  1.0646
  158SAPE  H15Y17644   5.643   4.495   5.242  2.2331 -2.9202  2.0077
  158SAPE  C31617645   5.735   4.680   5.189  0.2520  0.5754 -0.4826
  158SAPE  H16X17646   5.820   4.639   5.130 -1.1700 -0.9597 -1.5823
  158SAPE  H16Y17647   5.763   4.779   5.230  2.7723 -0.1553 -0.2771
  158SAPE  C31717648   5.619   4.712   5.090 -0.3298  0.3426  0.2061
  158SAPE  H17X17649   5.559   4.621   5.071  0.0678  0.0960  0.1335
  158SAPE  H17Y17650   5.676   4.747   5.002 -1.6857  2.8776  0.2238
  158SAPE  C31817651   5.530   4.826   5.135 -0.2459  0.5287 -0.2855
  158SAPE  H18X17652   5.446   4.843   5.065 -1.0373 -0.6341  0.3437
  158SAPE  H18Y17653   5.583   4.918   5.167 -1.0483  0.2747  1.9788
  158SAPE  H18Z17654   5.489   4.794   5.233  0.1932  0.3126 -0.1727
  159SAPE     N17655   1.697   2.413   2.433  0.4978 -0.0148  0.0722
  159SAPE   HN117656   1.694   2.514   2.458  3.2347 -0.3170  2.0064
  159SAPE   HN217657   1.718   2.350   2.513 -1.6503 -2.9739 -1.4815
  159SAPE   HN317658   1.781   2.404   2.372 -2.0427 -0.6482 -3.7521
  159SAPE   C1217659   1.566   2.362   2.380 -0.0517  0.4744 -0.3132
  159SAPE  H12A17660   1.587   2.259   2.345  0.5611  0.4940 -0.0056
  159SAPE  H12B17661   1.550   2.432   2.294 -0.0868  1.0884  0.1851
  159SAPE   C1117662   1.454   2.381   2.484  0.0848 -0.3793  0.4283
  159SAPE  H11A17663   1.363   2.379   2.421  1.4528 -1.7157 -1.6128
  159SAPE  H11B17664   1.458   2.485   2.525  0.0545  0.9365 -2.6341
  159SAPE     P17665   1.464   2.133   2.576 -0.5747  0.4133 -0.1581
  159SAPE   O1317666   1.361   2.074   2.486  0.3466  0.0477 -0.1181
  159SAPE   O1417667   1.605   2.096   2.537  0.1928  0.2169  0.1188
  159SAPE   O1217668   1.451   2.287   2.585  0.2221 -0.4491 -1.5312
  159SAPE   O1117669   1.428   2.081   2.726  0.4586 -0.3257 -0.0814
  159SAPE    C117670   1.336   2.144   2.819  0.2187 -0.1514  0.4044
  159SAPE    HA17671   1.253   2.184   2.757  1.4366  2.1155  0.1498
  159SAPE    HB17672   1.297   2.070   2.892  0.0137  0.3735  0.8349
  159SAPE    C217673   1.398   2.262   2.895 -1.0305  0.0118 -0.6657
  159SAPE    HS17674   1.414   2.344   2.821  0.0925 -0.2682 -0.7549
  159SAPE   O2117675   1.527   2.209   2.953  0.5786  0.0553  0.2621
  159SAPE   C2117676   1.620   2.300   2.984  0.4419 -0.3815 -1.3465
  159SAPE   O2217677   1.609   2.415   2.945 -0.0147  0.0269  0.2096
  159SAPE   C2217678   1.735   2.248   3.069  0.1230  0.1871  0.3537
  159SAPE   H2R17679   1.724   2.300   3.167 -2.1763 -0.7483  0.6613
  159SAPE   H2S17680   1.720   2.139   3.088  0.5667 -0.0259 -0.4877
  159SAPE    C317681   1.315   2.314   3.020 -0.6555  0.0171 -0.0293
  159SAPE    HX17682   1.224   2.364   2.982 -0.1924  1.1694  0.3483
  159SAPE    HY17683   1.363   2.402   3.067 -2.5823  2.0832 -1.7355
  159SAPE   O3117684   1.263   2.218   3.115  0.4101 -0.2158  0.0129
  159SAPE   C3117685   1.327   2.212   3.231  0.7314 -0.1044 -0.2559
  159SAPE   O3217686   1.433   2.275   3.249  0.2699 -0.6588 -0.3108
  159SAPE   C3217687   1.255   2.122   3.327  0.0997 -0.0788 -0.6667
  159SAPE   H2X17688   1.289   2.017   3.322  0.6945  0.1462 -1.4878
  159SAPE   H2Y17689   1.147   2.136   3.303 -0.0105  0.2815 -0.0001
  159SAPE   C2317690   1.873   2.268   3.002 -0.2418 -0.6232 -0.5524
  159SAPE   H3R17691   1.878   2.372   2.965 -0.3483 -0.7043 -0.7973
  159SAPE   H3S17692   1.890   2.201   2.915 -0.2566 -0.1378 -0.9343
  159SAPE   C2417693   1.983   2.247   3.112 -0.2189 -0.4304 -0.4042
  159SAPE   H4R17694   1.958   2.333   3.177  0.9259 -0.9239  0.7172
  159SAPE   H4S17695   2.084   2.264   3.069  0.6741  1.0066  2.0541
  159SAPE   C2517696   1.959   2.113   3.172  0.6648  0.3106 -0.4595
  159SAPE   H5R17697   1.959   2.039   3.091  0.6400  2.5941 -2.6768
  159SAPE   C2617698   1.934   2.073   3.298  0.0874  0.3180  0.2994
  159SAPE   H6R17699   1.911   1.966   3.313 -0.9135  0.5417  0.4105
  159SAPE   C2717700   1.926   2.160   3.420 -0.5033 -0.3448 -0.2617
  159SAPE   H7R17701   1.906   2.265   3.389  2.3566  1.3960  3.0746
  159SAPE   H7S17702   2.027   2.160   3.465  0.3220 -1.5638 -2.0322
  159SAPE   C2817703   1.828   2.121   3.530  0.6181 -0.1968  0.5888
  159SAPE   H8R17704   1.721   2.146   3.517  0.5617 -0.8213 -0.2157
  159SAPE   C2917705   1.875   2.082   3.653 -0.2954  0.1145 -0.0973
  159SAPE   H9R17706   1.803   2.081   3.737 -0.5197 -0.7316 -0.2882
  159SAPE  C21017707   2.021   2.062   3.701  0.2257  0.0816  0.3334
  159SAPE  H10R17708   2.082   2.148   3.735  0.6217 -0.2060  0.3458
  159SAPE  H10S17709   2.082   2.017   3.620 -0.9627 -0.2228 -0.4277
  159SAPE  C21117710   2.012   1.958   3.812 -0.7324 -0.8838  0.1878
  159SAPE  H11R17711   2.005   1.860   3.762  0.9959 -0.0093 -1.9456
  159SAPE  C21217712   2.016   1.964   3.946  0.1853 -0.3834  0.0134
  159SAPE  H12R17713   2.003   1.874   4.008 -3.0334  1.0649  1.6768
  159SAPE  C21317714   2.040   2.095   4.020 -0.6097 -0.6436  0.3503
  159SAPE  H13R17715   1.950   2.160   4.009  0.1981  0.2690 -1.2450
  159SAPE  H13S17716   2.121   2.152   3.970 -0.3154  1.8574  3.3651
  159SAPE  C21417717   2.082   2.084   4.162  0.1777  0.0192 -0.6667
  159SAPE  H14R17718   2.168   2.017   4.171  0.5288  0.4545 -0.7446
  159SAPE  C21517719   2.016   2.126   4.271 -0.3948 -0.1066 -0.0585
  159SAPE  H15R17720   2.056   2.094   4.369  0.8779  0.8663 -0.2319
  159SAPE  C21617721   1.884   2.208   4.269 -0.3710  0.2583  0.0796
  159SAPE  H16R17722   1.808   2.147   4.324  0.6326 -1.2462 -0.1390
  159SAPE  H16S17723   1.829   2.221   4.174 -0.7144 -0.2722  0.1983
  159SAPE  C21717724   1.893   2.336   4.347 -0.4486  0.2405 -0.2299
  159SAPE  H17R17725   1.799   2.393   4.330 -0.3715  0.5582  0.3989
  159SAPE  H17S17726   1.976   2.403   4.316 -2.0428  2.3623 -0.1723
  159SAPE  C21817727   1.891   2.325   4.504 -0.0466  0.1570  0.3854
  159SAPE  H18R17728   1.979   2.270   4.543  0.1069 -1.6485 -2.2487
  159SAPE  H18S17729   1.800   2.266   4.530 -1.4982  3.0469  2.4130
  159SAPE  C21917730   1.886   2.460   4.575 -0.7565 -0.0825  0.5158
  159SAPE  H19R17731   1.822   2.535   4.525  1.0934  1.0963 -0.1891
  159SAPE  H19S17732   1.990   2.497   4.563 -1.0680  0.7416  0.3285
  159SAPE  C22017733   1.868   2.455   4.726  0.0964  0.1344  0.1317
  159SAPE  H20R17734   1.861   2.560   4.761 -2.2106 -0.2420  0.9841
  159SAPE  H20S17735   1.953   2.406   4.779 -0.0045  0.3320  0.4742
  159SAPE  H20T17736   1.770   2.410   4.751  0.4809 -0.6030  0.3360
  159SAPE   C3317737   1.255   2.172   3.479 -0.3581  0.5514 -0.3839
  159SAPE   H3X17738   1.169   2.128   3.534 -0.8904  0.7797 -1.0224
  159SAPE   H3Y17739   1.256   2.282   3.493 -0.9627  0.5892 -0.6155
  159SAPE   C3417740   1.378   2.111   3.556 -0.1760 -0.1717  0.9991
  159SAPE   H4X17741   1.473   2.150   3.514 -0.2731 -0.2519  0.7002
  159SAPE   H4Y17742   1.386   2.001   3.548  0.6800 -0.0755  0.3205
  159SAPE   C3517743   1.365   2.141   3.706 -0.1051 -0.4982  0.2692
  159SAPE   H5X17744   1.264   2.129   3.750 -0.3487 -0.7404 -0.3344
  159SAPE   H5Y17745   1.383   2.251   3.704  1.9903 -0.7985 -1.2106
  159SAPE   C3617746   1.483   2.084   3.783  0.3547 -0.4047  0.4638
  159SAPE   H6X17747   1.581   2.125   3.750  0.0589  0.5241  0.7288
  159SAPE   H6Y17748   1.500   1.975   3.767 -0.4932 -0.6092  0.9309
  159SAPE   C3717749   1.472   2.120   3.935 -0.3204  0.4012 -0.6253
  159SAPE   H7X17750   1.365   2.101   3.958 -0.7098  2.5491 -0.3678
  159SAPE   H7Y17751   1.494   2.229   3.942 -1.1877  0.5891 -0.7137
  159SAPE   C3817752   1.569   2.048   4.029 -0.0636 -0.7982 -0.8891
  159SAPE   H8X17753   1.563   2.087   4.132 -1.5948  1.4285 -1.7485
  159SAPE   H8Y17754   1.669   2.086   3.996 -0.4459  0.1972 -0.9291
  159SAPE   C3917755   1.551   1.900   4.029 -0.3154 -0.3844  0.4477
  159SAPE   H9X17756   1.583   1.878   3.925  0.1752 -1.4006  0.7959
  159SAPE   H9Y17757   1.445   1.879   4.057 -0.6757 -1.4020 -1.4904
  159SAPE  C31017758   1.665   1.825   4.109 -0.6118 -0.8253 -0.7244
  159SAPE  H10X17759   1.764   1.871   4.090 -0.0351 -1.1413  1.3255
  159SAPE  H10Y17760   1.669   1.717   4.083  1.1617 -0.9768  0.0138
  159SAPE  C31117761   1.637   1.829   4.257  0.1746  0.3747 -0.1521
  159SAPE  H11X17762   1.539   1.781   4.276  0.2212 -0.5976 -2.1425
  159SAPE  H11Y17763   1.611   1.936   4.272  1.2029  0.5253  0.6626
  159SAPE  C31217764   1.747   1.769   4.338  0.4374 -0.1455 -0.6119
  159SAPE  H12X17765   1.844   1.820   4.318  0.9333 -1.0788 -0.6615
  159SAPE  H12Y17766   1.759   1.661   4.312  1.3050 -0.0854 -0.4937
  159SAPE  C31317767   1.731   1.782   4.490 -0.2554  0.1094  0.4228
  159SAPE  H13X17768   1.629   1.755   4.523 -0.9122  0.9936 -0.8014
  159SAPE  H13Y17769   1.727   1.892   4.509 -2.0011  0.1871 -0.2289
  159SAPE  C31417770   1.835   1.706   4.575 -0.6438 -0.3780 -0.0495
  159SAPE  H14X17771   1.936   1.734   4.538 -0.8576  2.7571  1.4183
  159SAPE  H14Y17772   1.830   1.598   4.549  1.8337 -1.3507  2.9453
  159SAPE  C31517773   1.829   1.720   4.726  0.5003  0.6262  0.2983
  159SAPE  H15X17774   1.914   1.672   4.779 -1.6144 -1.6351  1.8395
  159SAPE  H15Y17775   1.733   1.674   4.757  0.8391  0.5276  1.2351
  159SAPE  C31617776   1.821   1.870   4.768 -0.3487  0.1337 -0.6044
  159SAPE  H16X17777   1.726   1.915   4.730 -0.5875  0.9853  0.9226
  159SAPE  H16Y17778   1.904   1.922   4.716  0.5813 -0.9001 -0.1879
  159SAPE  C31717779   1.836   1.893   4.919 -0.6697  0.5225  0.0528
  159SAPE  H17X17780   1.944   1.907   4.942 -0.4011 -0.8935 -0.2347
  159SAPE  H17Y17781   1.804   1.809   4.985 -0.2100  0.7197  0.5292
  159SAPE  C31817782   1.764   2.020   4.963  0.2608  0.0114 -0.1712
  159SAPE  H18X17783   1.756   2.030   5.073  1.2154  1.0753 -0.1822
  159SAPE  H18Y17784   1.655   2.020   4.938 -1.0913 -4.1425  4.2704
  159SAPE  H18Z17785   1.810   2.112   4.921  0.1573  0.5380  0.8390
  160SAPE     N17786   4.276   5.513   2.576 -0.0552 -0.7642  0.0403
  160SAPE   HN117787   4.376   5.537   2.558 -0.0074  1.3804  2.4887
  160SAPE   HN217788   4.284   5.460   2.666 -1.7212  0.0249  0.7033
  160SAPE   HN317789   4.240   5.457   2.496  0.7697 -0.2384 -0.7094
  160SAPE   C1217790   4.200   5.641   2.578 -0.0846 -0.1218  0.4159
  160SAPE  H12A17791   4.198   5.691   2.479  0.3464 -1.7587 -0.4491
  160SAPE  H12B17792   4.248   5.704   2.656 -1.3295 -0.2762  1.3376
  160SAPE   C1117793   4.048   5.626   2.608 -0.2868 -0.2233 -0.1600
  160SAPE  H11A17794   4.015   5.564   2.521 -0.1546  2.7506 -2.4791
  160SAPE  H11B17795   3.997   5.724   2.602  1.0145  0.4977  0.2660
  160SAPE     P17796   3.901   5.600   2.815 -0.0857 -0.0892  0.3312
  160SAPE   O1317797   3.801   5.661   2.724 -0.1442 -0.0180  0.1575
  160SAPE   O1417798   3.870   5.482   2.895  0.5879  0.1549 -0.1986
  160SAPE   O1217799   4.023   5.556   2.730  0.7606  0.1369 -0.2641
  160SAPE   O1117800   3.961   5.713   2.909 -0.4187  0.0225  0.0096
  160SAPE    C117801   4.077   5.792   2.888 -0.6495  0.9285 -0.2480
  160SAPE    HA17802   4.088   5.829   2.784 -0.5675  1.7936  0.0598
  160SAPE    HB17803   4.060   5.887   2.943 -1.0445  0.6759  0.0757
  160SAPE    C217804   4.201   5.712   2.934 -0.7263 -0.3704 -1.0688
  160SAPE    HS17805   4.218   5.631   2.860  3.1111  2.4134 -3.5941
  160SAPE   O2117806   4.186   5.664   3.072 -0.3281  0.5983 -0.0634
  160SAPE   C2117807   4.246   5.553   3.089  0.2192 -0.0974 -1.0020
  160SAPE   O2217808   4.309   5.480   3.015 -0.0718 -0.4295  0.3584
  160SAPE   C2217809   4.216   5.527   3.237  0.5456 -0.3681 -0.1248
  160SAPE   H2R17810   4.201   5.625   3.288 -0.0856 -0.5596  0.0657
  160SAPE   H2S17811   4.122   5.468   3.239  1.1632 -1.3789 -0.4041
  160SAPE    C317812   4.328   5.806   2.914  0.2848 -0.5120  0.2274
  160SAPE    HX17813   4.308   5.897   2.975 -2.2658 -0.2837 -0.8486
  160SAPE    HY17814   4.325   5.843   2.810  2.0401 -0.1370  0.2742
  160SAPE   O3117815   4.453   5.740   2.953  0.7329  0.1811  0.0766
  160SAPE   C3117816   4.515   5.662   2.869  0.0455 -0.2738 -0.1151
  160SAPE   O3217817   4.472   5.624   2.761  0.0532 -0.1060  0.2995
  160SAPE   C3217818   4.651   5.614   2.937  0.2002  0.0135 -0.2848
  160SAPE   H2X17819   4.720   5.701   2.939 -1.5917  1.5301  2.3564
  160SAPE   H2Y17820   4.699   5.541   2.868 -0.1168 -0.9032  0.4383
  160SAPE   C2317821   4.324   5.450   3.311  0.5237  0.2520 -0.5390
  160SAPE   H3R17822   4.415   5.511   3.326  0.4652 -0.1906  2.1193
  160SAPE   H3S17823   4.356   5.359   3.256  1.8057 -0.3387  1.1305
  160SAPE   C2417824   4.279   5.408   3.458  0.7111  0.2785  0.4184
  160SAPE   H4R17825   4.350   5.325   3.479 -1.0477 -1.9776 -1.8729
  160SAPE   H4S17826   4.180   5.357   3.458 -0.3893  2.2536  2.0637
  160SAPE   C2517827   4.271   5.529   3.542 -0.0857 -0.5922  0.1365
  160SAPE   H5R17828   4.199   5.604   3.506  2.1158  1.4220 -0.3123
  160SAPE   C2617829   4.344   5.544   3.650 -0.8007  0.0752  0.1707
  160SAPE   H6R17830   4.323   5.631   3.713  0.4552 -0.3996  1.2918
  160SAPE   C2717831   4.436   5.446   3.714 -0.5751  0.4400  0.0586
  160SAPE   H7R17832   4.503   5.504   3.782 -1.5388 -1.2745  2.6687
  160SAPE   H7S17833   4.497   5.398   3.635  0.2551  3.3580 -1.2052
  160SAPE   C2817834   4.375   5.333   3.798 -0.3990 -0.4943 -0.1469
  160SAPE   H8R17835   4.318   5.262   3.736 -0.0764  1.4195 -2.7581
  160SAPE   C2917836   4.402   5.291   3.923 -1.0985 -1.0667 -0.5212
  160SAPE   H9R17837   4.356   5.200   3.965  0.6901 -1.7316  0.1466
  160SAPE  C21017838   4.509   5.361   4.008 -0.4191  0.1672 -1.0777
  160SAPE  H10R17839   4.456   5.447   4.054  2.1339  1.7951 -0.9643
  160SAPE  H10S17840   4.583   5.420   3.950 -0.1177  1.0966  0.1952
  160SAPE  C21117841   4.576   5.263   4.102  0.5461 -0.1467 -0.0857
  160SAPE  H11R17842   4.599   5.167   4.053 -1.4090  0.5683 -2.6359
  160SAPE  C21217843   4.585   5.275   4.231 -0.0667  0.3291  0.0617
  160SAPE  H12R17844   4.642   5.203   4.292  1.4959  2.0994  0.8048
  160SAPE  C21317845   4.546   5.399   4.319 -1.3284 -0.1399 -0.1962
  160SAPE  H13R17846   4.485   5.474   4.264  0.8870  1.2130 -0.9587
  160SAPE  H13S17847   4.632   5.460   4.355 -1.3372  0.7840 -1.6222
  160SAPE  C21417848   4.460   5.355   4.433 -0.9272  0.5705 -0.0940
  160SAPE  H14R17849   4.353   5.340   4.412 -1.5034  0.0673  2.7103
  160SAPE  C21517850   4.499   5.333   4.565 -0.1820 -0.1575 -0.4756
  160SAPE  H15R17851   4.425   5.305   4.642  1.8741 -0.1968  1.5707
  160SAPE  C21617852   4.628   5.375   4.635  0.0131 -0.1284  0.3910
  160SAPE  H16R17853   4.710   5.401   4.566 -0.0884 -0.5281  0.1199
  160SAPE  H16S17854   4.652   5.291   4.704 -1.0419 -1.8611 -1.2584
  160SAPE  C21717855   4.601   5.505   4.720 -0.4519 -0.6463 -0.3342
  160SAPE  H17R17856   4.553   5.585   4.659 -1.1972  0.0418  1.1169
  160SAPE  H17S17857   4.697   5.547   4.756 -1.3384 -0.3049  1.7656
  160SAPE  C21817858   4.523   5.468   4.841  0.0636  0.8084  0.0903
  160SAPE  H18R17859   4.591   5.409   4.907 -0.4355  0.1408  0.0118
  160SAPE  H18S17860   4.425   5.425   4.812 -0.3282  2.8239 -1.8374
  160SAPE  C21917861   4.490   5.585   4.935 -0.0012 -0.0978 -0.7497
  160SAPE  H19R17862   4.463   5.536   5.031 -1.2314  0.1832 -0.9392
  160SAPE  H19S17863   4.398   5.627   4.890 -0.4214 -0.8893 -0.6323
  160SAPE  C22017864   4.587   5.705   4.959 -0.0064  0.6811  0.3653
  160SAPE  H20R17865   4.601   5.759   4.863 -0.5369  0.8913  0.4047
  160SAPE  H20S17866   4.686   5.663   4.989 -1.4466 -1.7746  2.0383
  160SAPE  H20T17867   4.544   5.768   5.040  1.7467  1.5376  0.7035
  160SAPE   C3317868   4.648   5.544   3.079 -0.3328  0.1186  0.0668
  160SAPE   H3X17869   4.584   5.453   3.073 -0.4229  0.1887 -0.0410
  160SAPE   H3Y17870   4.612   5.619   3.154 -0.3061 -0.7560  0.9734
  160SAPE   C3417871   4.784   5.494   3.122 -0.1689  0.2938  0.8609
  160SAPE   H4X17872   4.846   5.587   3.124  0.0811  0.2751 -2.1097
  160SAPE   H4Y17873   4.840   5.425   3.055 -0.2268 -0.9087  2.0213
  160SAPE   C3517874   4.799   5.433   3.255  0.2403  0.4423 -0.2627
  160SAPE   H5X17875   4.901   5.392   3.265 -0.8938 -2.8169 -0.8461
  160SAPE   H5Y17876   4.738   5.341   3.273 -0.9844  1.0107 -1.3039
  160SAPE   C3617877   4.783   5.533   3.377  0.4816 -0.7139  0.7591
  160SAPE   H6X17878   4.677   5.565   3.383  1.9151  5.3533 -0.2270
  160SAPE   H6Y17879   4.833   5.625   3.340  0.9939 -1.6601 -1.0171
  160SAPE   C3717880   4.834   5.480   3.512 -0.0663 -0.1016 -0.0610
  160SAPE   H7X17881   4.939   5.444   3.512  0.1265  0.4376  0.6771
  160SAPE   H7Y17882   4.764   5.401   3.548 -2.2496  1.5453 -0.4821
  160SAPE   C3817883   4.811   5.592   3.617  0.0075  0.2343 -0.0358
  160SAPE   H8X17884   4.704   5.623   3.620 -0.6464 -1.8472 -0.2006
  160SAPE   H8Y17885   4.879   5.680   3.607  0.1977  0.0566 -0.3139
  160SAPE   C3917886   4.851   5.536   3.757  0.6417 -0.4509 -0.9138
  160SAPE   H9X17887   4.960   5.517   3.770  0.2563 -1.1638  2.1888
  160SAPE   H9Y17888   4.782   5.448   3.763 -2.3298  1.7636  0.1759
  160SAPE  C31017889   4.818   5.630   3.882  0.3735 -0.0236  0.9738
  160SAPE  H10X17890   4.707   5.621   3.882  0.3370  0.3175  1.8913
  160SAPE  H10Y17891   4.853   5.731   3.853  0.9675 -0.4205  0.2745
  160SAPE  C31117892   4.879   5.585   4.017 -0.5818 -0.0631 -0.3765
  160SAPE  H11X17893   4.989   5.579   4.004 -0.3918  1.5324  0.2239
  160SAPE  H11Y17894   4.828   5.494   4.055  0.4052  0.2722  1.9093
  160SAPE  C31217895   4.850   5.685   4.139 -0.3888 -0.2078 -0.2098
  160SAPE  H12X17896   4.740   5.699   4.142 -0.5449 -0.9679 -1.4245
  160SAPE  H12Y17897   4.880   5.791   4.126 -1.8520  0.3549  0.7503
  160SAPE  C31317898   4.905   5.636   4.274 -0.1198 -0.2589  0.3398
  160SAPE  H13X17899   5.014   5.653   4.271  0.1715 -1.9912 -0.2561
  160SAPE  H13Y17900   4.883   5.527   4.284  3.4018 -1.0120  1.3904
  160SAPE  C31417901   4.840   5.705   4.393 -0.1713 -0.3470 -0.2434
  160SAPE  H14X17902   4.854   5.642   4.483 -1.2823 -1.3180 -0.7168
  160SAPE  H14Y17903   4.732   5.716   4.367 -0.1796  1.1318  0.3142
  160SAPE  C31517904   4.898   5.841   4.442  0.3437 -0.3278 -0.2274
  160SAPE  H15X17905   4.925   5.905   4.355  0.9461  1.3899  1.1485
  160SAPE  H15Y17906   4.990   5.824   4.502  0.5079  1.0203 -0.0583
  160SAPE  C31617907   4.791   5.913   4.524 -0.4457 -0.0015  0.4567
  160SAPE  H16X17908   4.696   5.925   4.466 -1.1371 -1.7361  1.1524
  160SAPE  H16Y17909   4.829   6.016   4.542 -1.7643  0.6210 -0.1801
  160SAPE  C31717910   4.756   5.833   4.652 -0.0537  0.3585  0.4446
  160SAPE  H17X17911   4.720   5.729   4.637 -2.3416  1.1080  0.2886
  160SAPE  H17Y17912   4.674   5.882   4.709 -1.7740 -0.5230 -1.1802
  160SAPE  C31817913   4.874   5.835   4.750 -0.3363  1.0934 -0.0208
  160SAPE  H18X17914   4.848   5.803   4.853 -0.1124 -0.3475 -0.3926
  160SAPE  H18Y17915   4.914   5.937   4.769  0.9628  0.4173  0.9687
  160SAPE  H18Z17916   4.961   5.773   4.721 -1.2546 -0.9874  1.4910
  161SAPE     N17917   6.231   4.326   2.490  0.5001  0.7500 -0.6106
  161SAPE   HN117918   6.279   4.249   2.438 -1.0600 -1.0428  0.4339
  161SAPE   HN217919   6.282   4.414   2.472 -1.3378  1.7296 -1.1732
  161SAPE   HN317920   6.227   4.302   2.591 -1.6640  0.7593 -0.6563
  161SAPE   C1217921   6.080   4.329   2.459  0.9974 -1.0564  0.5068
  161SAPE  H12A17922   6.064   4.396   2.372 -0.5011  1.0536  2.2928
  161SAPE  H12B17923   6.028   4.380   2.542  0.2016 -0.5846 -0.2626
  161SAPE   C1117924   6.020   4.189   2.429  0.0332 -0.3132 -0.9670
  161SAPE  H11A17925   6.040   4.130   2.521 -3.0109 -0.1926 -0.0927
  161SAPE  H11B17926   6.058   4.143   2.336  0.1101  0.2743 -1.2303
  161SAPE     P17927   5.783   4.190   2.547  0.4317  0.2166  0.0026
  161SAPE   O1317928   5.763   4.328   2.589 -0.1826 -0.2155 -0.4178
  161SAPE   O1417929   5.663   4.112   2.517  0.2780 -0.4123 -0.2876
  161SAPE   O1217930   5.878   4.190   2.420  0.3137  0.3140 -0.1579
  161SAPE   O1117931   5.860   4.113   2.660  0.1095 -0.0902  0.3007
  161SAPE    C117932   5.925   4.174   2.772 -0.5613  0.5928  0.2755
  161SAPE    HA17933   6.006   4.104   2.802  0.6157  0.7655 -2.1846
  161SAPE    HB17934   5.979   4.268   2.746 -1.3124  2.0386  3.5487
  161SAPE    C217935   5.830   4.210   2.889  0.0881 -0.3277 -0.5969
  161SAPE    HS17936   5.748   4.264   2.837  1.2371  2.9996  0.7555
  161SAPE   O2117937   5.899   4.296   2.979 -0.3497  0.1548 -0.7236
  161SAPE   C2117938   5.839   4.410   3.021 -1.1786  0.1122  0.2109
  161SAPE   O2217939   5.722   4.431   2.998  0.1963 -0.6106  0.4724
  161SAPE   C2217940   5.935   4.499   3.103 -0.3921  0.2084  0.8500
  161SAPE   H2R17941   5.920   4.478   3.211 -2.0887  1.2490  0.8495
  161SAPE   H2S17942   6.041   4.478   3.078 -0.9276 -0.5857 -0.8845
  161SAPE    C317943   5.772   4.083   2.961 -0.3046  0.0505 -0.4296
  161SAPE    HX17944   5.853   4.037   3.022 -2.0949  1.5510  3.3619
  161SAPE    HY17945   5.750   4.014   2.878  2.4050  1.7726 -2.8087
  161SAPE   O3117946   5.647   4.115   3.033  0.3092 -0.7124 -0.0107
  161SAPE   C3117947   5.604   4.013   3.112  0.9686 -0.0209 -0.6395
  161SAPE   O3217948   5.646   3.903   3.106  0.6316  0.4686 -0.5213
  161SAPE   C3217949   5.477   4.046   3.205  0.1623  0.0567 -0.5652
  161SAPE   H2X17950   5.487   3.982   3.296 -3.0200  0.4138  0.1361
  161SAPE   H2Y17951   5.389   4.012   3.146 -0.0620  0.7976 -0.6658
  161SAPE   C2317952   5.916   4.651   3.089 -0.2915 -0.0531 -0.4160
  161SAPE   H3R17953   5.879   4.667   2.986  1.3335  0.8123 -0.8944
  161SAPE   H3S17954   6.015   4.699   3.103 -0.4717 -0.3963  2.9558
  161SAPE   C2417955   5.818   4.714   3.193  0.4892  0.0221 -0.4482
  161SAPE   H4R17956   5.814   4.825   3.185  0.5746 -0.0117 -1.0520
  161SAPE   H4S17957   5.865   4.701   3.293  1.3028  2.1626 -0.5053
  161SAPE   C2517958   5.676   4.663   3.186  0.0295 -0.4024  0.5275
  161SAPE   H5R17959   5.619   4.698   3.098  1.7864 -2.7469 -1.7101
  161SAPE   C2617960   5.610   4.576   3.269 -0.6166  0.0575  0.6550
  161SAPE   H6R17961   5.512   4.534   3.242 -0.9527  1.9831 -1.4540
  161SAPE   C2717962   5.677   4.528   3.393 -0.1096  0.4414 -0.3235
  161SAPE   H7R17963   5.784   4.517   3.365  0.5951  2.2403  1.3747
  161SAPE   H7S17964   5.639   4.428   3.424  3.9167 -0.6734  1.8398
  161SAPE   C2817965   5.670   4.634   3.508  0.1941  0.3256 -0.6921
  161SAPE   H8R17966   5.684   4.738   3.475  1.0450  1.1586  2.0210
  161SAPE   C2917967   5.612   4.615   3.631  0.2422 -0.3393 -0.0247
  161SAPE   H9R17968   5.627   4.699   3.701  1.7079 -0.7540  0.1871
  161SAPE  C21017969   5.561   4.481   3.684 -0.4706  0.2063 -0.7032
  161SAPE  H10R17970   5.629   4.396   3.663  0.8191  1.2372 -0.8263
  161SAPE  H10S17971   5.463   4.470   3.632 -0.1593  0.8935 -1.4609
  161SAPE  C21117972   5.568   4.500   3.833  0.6151  0.2823 -0.2005
  161SAPE  H11R17973   5.666   4.505   3.882  0.9058 -2.3333 -0.3875
  161SAPE  C21217974   5.462   4.511   3.913 -0.1344 -0.2661  0.1771
  161SAPE  H12R17975   5.485   4.515   4.021 -0.4434  0.1661  0.2302
  161SAPE  C21317976   5.313   4.499   3.878  0.5517  0.0742 -0.0639
  161SAPE  H13R17977   5.263   4.409   3.919 -3.3824  0.3437 -3.5628
  161SAPE  H13S17978   5.298   4.482   3.769 -2.2803 -0.9524  0.3834
  161SAPE  C21417979   5.236   4.617   3.924 -0.5334  0.0773 -0.2813
  161SAPE  H14R17980   5.237   4.696   3.848  0.5712 -0.4157 -0.8056
  161SAPE  C21517981   5.168   4.632   4.041  0.9160 -0.5992  0.0145
  161SAPE  H15R17982   5.126   4.733   4.049  2.0662  0.4797 -4.5447
  161SAPE  C21617983   5.155   4.535   4.155  0.1428 -0.0825 -0.2365
  161SAPE  H16R17984   5.206   4.438   4.138 -1.4121 -0.6996 -1.6291
  161SAPE  H16S17985   5.049   4.511   4.176  0.0489 -0.3083 -0.9725
  161SAPE  C21717986   5.226   4.593   4.283  0.3715 -0.1804  0.0700
  161SAPE  H17R17987   5.146   4.653   4.331  2.0354  1.9193  0.3799
  161SAPE  H17S17988   5.309   4.660   4.252 -0.6964  1.9617  1.5900
  161SAPE  C21817989   5.264   4.499   4.389  0.3878  0.5114 -0.8542
  161SAPE  H18R17990   5.337   4.426   4.350 -0.5109 -0.9715  0.1287
  161SAPE  H18S17991   5.170   4.445   4.416 -0.7201  2.5857 -0.3124
  161SAPE  C21917992   5.299   4.562   4.527 -0.8404  0.2021 -0.7102
  161SAPE  H19R17993   5.210   4.619   4.561 -1.6548 -1.5180  0.1765
  161SAPE  H19S17994   5.393   4.620   4.514  0.4049 -1.0131  1.9923
  161SAPE  C22017995   5.322   4.447   4.631  0.1336  0.3493 -1.0059
  161SAPE  H20R17996   5.340   4.490   4.731 -0.1276 -1.2612 -0.2229
  161SAPE  H20S17997   5.403   4.372   4.612  0.3065 -0.0799  1.1661
  161SAPE  H20T17998   5.225   4.395   4.645 -0.5853  2.5090  4.0381
  161SAPE   C3317999   5.466   4.202   3.238  0.1423  0.4539 -0.0526
  161SAPE   H3X18000   5.431   4.252   3.145 -0.1062  4.4389  1.9609
  161SAPE   H3Y18001   5.566   4.238   3.271 -0.5407  0.7018  1.9126
  161SAPE   C3418002   5.374   4.253   3.349 -0.8010  0.0420  0.4411
  161SAPE   H4X18003   5.377   4.364   3.351 -2.4583  0.2202 -2.4915
  161SAPE   H4Y18004   5.425   4.224   3.444  1.4101  1.0388 -0.3785
  161SAPE   C3518005   5.233   4.209   3.333  0.7941  0.0993  0.1180
  161SAPE   H5X18006   5.212   4.101   3.315 -0.8738  0.4218  0.0351
  161SAPE   H5Y18007   5.197   4.264   3.243  1.9198  0.2863 -0.2397
  161SAPE   C3618008   5.144   4.248   3.450  1.2930 -0.0958  0.3178
  161SAPE   H6X18009   5.044   4.202   3.437  0.8508  0.8486  0.2750
  161SAPE   H6Y18010   5.141   4.359   3.443 -2.2605 -0.1131 -0.2408
  161SAPE   C3718011   5.198   4.212   3.591  0.4857  0.5753  0.9611
  161SAPE   H7X18012   5.293   4.266   3.612  1.6025 -0.3697 -1.3640
  161SAPE   H7Y18013   5.218   4.104   3.580  2.5874  1.1212 -1.3186
  161SAPE   C3818014   5.089   4.240   3.693  0.0932  0.1989 -0.0157
  161SAPE   H8X18015   4.990   4.201   3.661 -0.0338  0.6006 -0.1262
  161SAPE   H8Y18016   5.089   4.351   3.696  1.1112  0.3276 -2.6164
  161SAPE   C3918017   5.116   4.167   3.828 -0.5748  0.2893  0.4380
  161SAPE   H9X18018   5.220   4.191   3.862  1.1854  0.2060 -4.0961
  161SAPE   H9Y18019   5.102   4.057   3.825 -0.0771  0.2348 -1.0598
  161SAPE  C31018020   5.016   4.224   3.927  0.2509  0.0211 -0.3853
  161SAPE  H10X18021   4.913   4.230   3.885 -0.2162  2.6787  0.8952
  161SAPE  H10Y18022   5.030   4.333   3.944 -0.4387 -0.2660  2.5769
  161SAPE  C31118023   4.997   4.146   4.057  0.7312 -0.8879 -0.1153
  161SAPE  H11X18024   4.960   4.046   4.024  1.1414 -0.6022 -1.4910
  161SAPE  H11Y18025   4.929   4.197   4.129  1.1366 -0.6953  0.1367
  161SAPE  C31218026   5.124   4.130   4.131 -0.0632 -0.1355  0.9290
  161SAPE  H12X18027   5.161   4.227   4.170 -0.3961  1.0108 -1.4407
  161SAPE  H12Y18028   5.208   4.090   4.070  0.7996  0.0663  1.9459
  161SAPE  C31318029   5.120   4.035   4.251  0.3497  0.6199 -0.1767
  161SAPE  H13X18030   5.077   3.941   4.211  0.3906 -0.0469  1.2692
  161SAPE  H13Y18031   5.044   4.076   4.321  0.4491 -0.1470  0.4074
  161SAPE  C31418032   5.254   4.004   4.320  0.3674 -0.9419 -0.4502
  161SAPE  H14X18033   5.302   4.098   4.356 -1.5685 -0.4819  1.0948
  161SAPE  H14Y18034   5.326   3.954   4.251  0.2637 -2.8276  0.7427
  161SAPE  C31518035   5.223   3.912   4.439 -0.3716  0.1220  0.4440
  161SAPE  H15X18036   5.170   3.831   4.385  0.4546  0.7910 -1.4582
  161SAPE  H15Y18037   5.157   3.973   4.505 -0.8856  0.7031 -0.5856
  161SAPE  C31618038   5.341   3.854   4.512  0.0837  0.5087 -0.1457
  161SAPE  H16X18039   5.414   3.822   4.435 -0.4675 -0.9094 -0.0976
  161SAPE  H16Y18040   5.311   3.770   4.578 -2.1211  0.4781 -1.0945
  161SAPE  C31718041   5.405   3.956   4.616  0.0249  0.3331 -0.4705
  161SAPE  H17X18042   5.317   3.989   4.674 -1.2697 -0.0746 -2.1048
  161SAPE  H17Y18043   5.455   4.038   4.560  0.6216  0.3234  0.0377
  161SAPE  C31818044   5.506   3.885   4.710  0.5544 -0.3227 -0.2749
  161SAPE  H18X18045   5.458   3.811   4.777  1.3244 -1.1436 -0.6090
  161SAPE  H18Y18046   5.566   3.963   4.761  0.5461 -0.3512 -0.2219
  161SAPE  H18Z18047   5.581   3.830   4.649  1.2209  1.5107 -1.1516
  162SAPE     N18048   3.317   3.950   2.649 -0.0146  0.1787 -0.2465
  162SAPE   HN118049   3.267   3.876   2.597 -0.4170 -0.3817  0.8938
  162SAPE   HN218050   3.419   3.939   2.634  0.4117 -1.1040  2.8215
  162SAPE   HN318051   3.291   3.946   2.750  1.0381  0.2839  0.0427
  162SAPE   C1218052   3.285   4.080   2.588  0.9920 -0.0731 -0.4047
  162SAPE  H12A18053   3.175   4.080   2.573  0.7819 -1.8617  0.8119
  162SAPE  H12B18054   3.344   4.094   2.495  3.1940  0.4998  0.9932
  162SAPE   C1118055   3.313   4.192   2.681 -0.0312 -0.4636  0.2129
  162SAPE  H11A18056   3.238   4.199   2.763 -0.4801  0.8638 -0.2889
  162SAPE  H11B18057   3.289   4.284   2.624  1.2668 -0.4480 -0.3360
  162SAPE     P18058   3.500   4.320   2.809  0.3963 -0.6262 -0.1392
  162SAPE   O1318059   3.589   4.402   2.720 -0.1193  0.8686  0.7724
  162SAPE   O1418060   3.386   4.388   2.876 -0.0029  0.1307 -0.0489
  162SAPE   O1218061   3.448   4.198   2.715  0.0012  0.2613 -0.4757
  162SAPE   O1118062   3.580   4.253   2.925 -0.0377 -0.0409 -0.2120
  162SAPE    C118063   3.508   4.182   3.018 -0.8386 -0.1305 -0.5674
  162SAPE    HA18064   3.448   4.255   3.075  0.9876  2.0010 -1.2352
  162SAPE    HB18065   3.443   4.097   2.988 -2.8898  1.2729 -0.2508
  162SAPE    C218066   3.610   4.120   3.121 -0.5613 -0.8247 -0.0018
  162SAPE    HS18067   3.568   4.025   3.158  1.2549 -1.2032  1.2291
  162SAPE   O2118068   3.632   4.215   3.231  0.4633  0.1135 -0.1911
  162SAPE   C2118069   3.540   4.207   3.330  0.3465 -0.2930  0.4816
  162SAPE   O2218070   3.456   4.123   3.342  0.1223  0.3695 -0.1478
  162SAPE   C2218071   3.567   4.303   3.442 -0.0191 -0.1264 -0.8016
  162SAPE   H2R18072   3.588   4.401   3.393  1.5408  0.2356  0.5055
  162SAPE   H2S18073   3.471   4.306   3.499 -0.1606  2.1159 -1.0518
  162SAPE    C318074   3.749   4.100   3.059  0.0641  0.3372 -0.3412
  162SAPE    HX18075   3.771   4.204   3.027 -1.9018  0.5753 -1.0803
  162SAPE    HY18076   3.737   4.025   2.978 -0.4096 -2.5036  2.1753
  162SAPE   O3118077   3.843   4.039   3.154  0.2438 -0.2509 -0.4965
  162SAPE   C3118078   3.941   4.117   3.194 -0.5718  0.0262  0.4228
  162SAPE   O3218079   3.966   4.232   3.158  0.2396  0.2859 -0.2668
  162SAPE   C3218080   4.015   4.042   3.294  0.5251 -0.7396  0.0327
  162SAPE   H2X18081   4.097   3.994   3.237  0.2114  0.4655 -1.5197
  162SAPE   H2Y18082   3.948   3.964   3.337 -1.1774 -0.0499 -1.2585
  162SAPE   C2318083   3.699   4.277   3.519  0.0562  0.0668  0.5160
  162SAPE   H3R18084   3.723   4.370   3.574  0.4608 -0.0406  0.5251
  162SAPE   H3S18085   3.777   4.260   3.441  0.4653  0.8390  0.7494
  162SAPE   C2418086   3.690   4.161   3.613  0.6364 -0.2926 -0.4118
  162SAPE   H4R18087   3.796   4.161   3.647  0.2228  0.0457  0.9149
  162SAPE   H4S18088   3.681   4.065   3.559  2.0668  1.0963 -3.3416
  162SAPE   C2518089   3.584   4.189   3.723  0.1984 -0.3047 -0.1194
  162SAPE   H5R18090   3.481   4.176   3.686 -1.0152 -2.5365  3.5679
  162SAPE   C2618091   3.604   4.221   3.850 -0.1360 -0.6085  0.7940
  162SAPE   H6R18092   3.510   4.250   3.900 -1.0388 -0.6474 -0.8178
  162SAPE   C2718093   3.734   4.250   3.918 -0.1827  0.0346  0.2132
  162SAPE   H7R18094   3.811   4.189   3.866  1.0195 -0.0767  2.0112
  162SAPE   H7S18095   3.735   4.232   4.028 -0.2391  2.8179  0.7503
  162SAPE   C2818096   3.771   4.393   3.902 -0.3162  0.2646  0.0646
  162SAPE   H8R18097   3.748   4.434   3.802  0.2813  0.6904  0.0940
  162SAPE   C2918098   3.829   4.479   3.993 -0.1080  0.0025  1.3859
  162SAPE   H9R18099   3.858   4.580   3.961 -0.7328 -0.6076 -1.3826
  162SAPE  C21018100   3.858   4.438   4.135  0.2160  0.1615  0.3447
  162SAPE  H10R18101   3.960   4.476   4.160  0.8768 -1.8083  0.8270
  162SAPE  H10S18102   3.868   4.329   4.154  0.4554  0.2102  0.4949
  162SAPE  C21118103   3.758   4.505   4.225 -0.3292  0.6240  0.4238
  162SAPE  H11R18104   3.724   4.607   4.203  3.6868  2.0294 -0.0776
  162SAPE  C21218105   3.722   4.450   4.347 -0.2323 -0.5799  0.5737
  162SAPE  H12R18106   3.652   4.512   4.405  0.1593 -0.7904  1.2764
  162SAPE  C21318107   3.768   4.323   4.410 -0.4722 -0.0296  0.0621
  162SAPE  H13R18108   3.818   4.252   4.340  0.1979 -0.1486  0.6393
  162SAPE  H13S18109   3.683   4.263   4.449 -0.4728  0.9467  1.6466
  162SAPE  C21418110   3.859   4.352   4.531  0.1429  0.0020  0.4575
  162SAPE  H14R18111   3.882   4.459   4.536  0.3856 -0.0573  0.6115
  162SAPE  C21518112   3.904   4.262   4.624 -0.1460 -0.7868  0.1533
  162SAPE  H15R18113   3.962   4.302   4.708  0.2607  0.3770 -0.6511
  162SAPE  C21618114   3.889   4.115   4.639  0.6875  0.9886  0.0760
  162SAPE  H16R18115   3.964   4.060   4.578  0.2322 -1.2089  1.3732
  162SAPE  H16S18116   3.793   4.082   4.592  1.3924 -2.0879  0.5543
  162SAPE  C21718117   3.892   4.074   4.788  0.6151 -0.0622 -0.0154
  162SAPE  H17R18118   3.829   4.145   4.846  1.1699  1.4393 -1.2016
  162SAPE  H17S18119   3.994   4.080   4.831  0.3342 -1.3721  0.8993
  162SAPE  C21818120   3.823   3.940   4.817  0.3087  0.0003 -0.6639
  162SAPE  H18R18121   3.896   3.859   4.796 -0.5706 -0.9581 -0.1272
  162SAPE  H18S18122   3.736   3.932   4.749 -1.0817  0.6839  0.9550
  162SAPE  C21918123   3.774   3.920   4.961 -0.1479  0.6427  0.0167
  162SAPE  H19R18124   3.702   3.999   4.989  1.7095  2.2994  0.3555
  162SAPE  H19S18125   3.867   3.949   5.015 -0.9091  0.8025  1.2781
  162SAPE  C22018126   3.717   3.781   4.992  0.0434 -0.5786 -0.1632
  162SAPE  H20R18127   3.686   3.760   5.097  1.2121 -0.0566  0.3042
  162SAPE  H20S18128   3.791   3.705   4.958 -1.1956 -0.8810 -2.3633
  162SAPE  H20T18129   3.634   3.774   4.919  0.7342 -0.8329 -0.9337
  162SAPE   C3318130   4.074   4.134   3.398 -0.7111  0.0527  0.2369
  162SAPE   H3X18131   3.989   4.188   3.446 -2.3634 -1.1000 -1.2640
  162SAPE   H3Y18132   4.141   4.204   3.345 -0.3290  2.1905  3.2690
  162SAPE   C3418133   4.144   4.047   3.502 -0.3458 -0.0334 -0.6212
  162SAPE   H4X18134   4.246   4.020   3.465  0.0318 -0.0923  0.4445
  162SAPE   H4Y18135   4.087   3.954   3.522 -0.1058  0.2679  1.7802
  162SAPE   C3518136   4.162   4.139   3.624 -0.3226 -0.0055 -0.1185
  162SAPE   H5X18137   4.073   4.186   3.671  0.0206 -0.3951  0.9367
  162SAPE   H5Y18138   4.239   4.217   3.605  1.1217 -0.7760  2.1805
  162SAPE   C3618139   4.218   4.061   3.749  0.2492  0.0641 -0.1915
  162SAPE   H6X18140   4.325   4.036   3.733  0.1605  0.2120 -1.0941
  162SAPE   H6Y18141   4.159   3.967   3.744  0.6060 -0.3696  2.5346
  162SAPE   C3718142   4.191   4.128   3.891  0.3232 -0.1991  0.4604
  162SAPE   H7X18143   4.083   4.152   3.899 -0.1810 -2.1950  0.1615
  162SAPE   H7Y18144   4.246   4.225   3.897  1.4785 -0.8054 -0.0792
  162SAPE   C3818145   4.241   4.036   4.001 -0.1375 -0.3238  0.5169
  162SAPE   H8X18146   4.348   4.009   3.984  0.0528  1.2989 -1.2922
  162SAPE   H8Y18147   4.197   3.935   3.999 -0.4640 -0.2099 -2.0512
  162SAPE   C3918148   4.227   4.100   4.144  0.2066 -0.8163  0.4319
  162SAPE   H9X18149   4.122   4.114   4.175  0.9459 -1.2622  3.3782
  162SAPE   H9Y18150   4.282   4.196   4.131 -1.0339 -0.2318 -0.7380
  162SAPE  C31018151   4.275   4.012   4.258 -0.4213  0.6466  0.2795
  162SAPE  H10X18152   4.380   3.979   4.247 -0.9053 -0.7756 -0.4670
  162SAPE  H10Y18153   4.215   3.919   4.249 -2.1655  1.7055  0.3910
  162SAPE  C31118154   4.253   4.062   4.402 -0.6557 -0.4177 -0.2585
  162SAPE  H11X18155   4.144   4.046   4.419 -0.5882 -1.0101 -0.3492
  162SAPE  H11Y18156   4.286   4.167   4.386  1.6624 -1.0651 -0.0891
  162SAPE  C31218157   4.332   4.011   4.523 -0.2933 -0.0223  0.3682
  162SAPE  H12X18158   4.438   4.002   4.491  0.0002  1.0306  0.9974
  162SAPE  H12Y18159   4.299   3.912   4.561  0.5330 -0.5692 -0.2999
  162SAPE  C31318160   4.313   4.123   4.640  0.3009 -0.2263  1.3965
  162SAPE  H13X18161   4.204   4.137   4.658 -0.3942 -2.3253 -0.6137
  162SAPE  H13Y18162   4.358   4.215   4.598 -1.2871 -1.1356 -2.9427
  162SAPE  C31418163   4.376   4.078   4.768 -0.5812  0.4867 -0.1285
  162SAPE  H14X18164   4.379   4.162   4.840  0.0385  1.0827 -0.8336
  162SAPE  H14Y18165   4.485   4.059   4.750 -0.7355 -1.5419  0.7717
  162SAPE  C31518166   4.317   3.957   4.842 -0.3381  0.3633  0.1227
  162SAPE  H15X18167   4.350   3.867   4.785  0.3063  0.7290 -0.0864
  162SAPE  H15Y18168   4.207   3.973   4.851  0.0852  2.5623  2.2050
  162SAPE  C31618169   4.363   3.932   4.982  0.2968 -0.1194  0.3159
  162SAPE  H16X18170   4.313   3.836   5.008  1.4124 -0.5846  0.8284
  162SAPE  H16Y18171   4.322   4.012   5.047 -0.9896  0.3335 -0.9976
  162SAPE  C31718172   4.518   3.917   5.000 -0.0337  0.3282 -0.2704
  162SAPE  H17X18173   4.537   3.892   5.106 -1.4996  1.1941  0.2244
  162SAPE  H17Y18174   4.551   4.018   4.969  0.6446 -0.7347 -3.4122
  162SAPE  C31818175   4.585   3.825   4.905  0.1840 -0.1541 -0.2413
  162SAPE  H18X18176   4.558   3.826   4.797  1.4155  2.0841 -0.5878
  162SAPE  H18Y18177   4.575   3.718   4.935  1.5869  0.2326  1.7900
  162SAPE  H18Z18178   4.694   3.842   4.911  0.2113 -0.5403  0.5426
  163SAPE     N18179   3.201   4.385   3.087  0.0046 -0.0788 -0.2007
  163SAPE   HN118180   3.122   4.449   3.063 -1.2455 -0.5234  2.4103
  163SAPE   HN218181   3.270   4.445   3.136  0.0915 -0.0305 -0.3809
  163SAPE   HN318182   3.256   4.346   3.008  0.0485  0.5263 -0.4762
  163SAPE   C1218183   3.159   4.278   3.180 -0.4983 -0.2012 -0.1936
  163SAPE  H12A18184   3.114   4.331   3.266  0.0072 -0.3551  0.1678
  163SAPE  H12B18185   3.255   4.230   3.209  1.4041  2.9488 -0.8704
  163SAPE   C1118186   3.078   4.171   3.111  0.3807 -0.3266  0.1021
  163SAPE  H11A18187   2.999   4.239   3.072  0.4957 -0.7846 -0.9359
  163SAPE  H11B18188   3.031   4.097   3.180 -2.0427  0.8465 -0.1870
  163SAPE     P18189   3.096   3.997   2.926 -0.1016 -0.1192  0.3200
  163SAPE   O1318190   3.033   4.039   2.800 -0.4413  0.3920  0.5299
  163SAPE   O1418191   3.208   3.894   2.910  0.3124 -0.4239  0.1165
  163SAPE   O1218192   3.154   4.117   3.003  0.6249  0.0087  0.0536
  163SAPE   O1118193   2.986   3.936   3.017  0.4324 -0.0082  0.6830
  163SAPE    C118194   3.021   3.837   3.118 -0.6796 -0.0402 -0.7358
  163SAPE    HA18195   3.046   3.738   3.074  0.8604 -0.5756  1.2212
  163SAPE    HB18196   3.115   3.865   3.169 -1.0863  2.3810 -1.2121
  163SAPE    C218197   2.922   3.828   3.234  0.1554  0.2080 -0.0101
  163SAPE    HS18198   2.840   3.760   3.203  0.6699  0.1833 -1.3888
  163SAPE   O2118199   2.876   3.957   3.252  0.0197 -0.0657  0.2083
  163SAPE   C2118200   2.755   3.980   3.302 -0.4785 -0.3838  0.0797
  163SAPE   O2218201   2.674   3.898   3.341  0.1520 -0.3261 -0.0077
  163SAPE   C2218202   2.736   4.132   3.296  0.2175  0.2744 -0.1912
  163SAPE   H2R18203   2.795   4.164   3.208 -1.5098  0.3349 -1.3879
  163SAPE   H2S18204   2.627   4.141   3.277 -0.4072  1.0092  3.1162
  163SAPE    C318205   2.983   3.772   3.364 -0.4404  0.3551 -0.7589
  163SAPE    HX18206   3.029   3.674   3.338  0.4942  0.8779 -1.1377
  163SAPE    HY18207   2.901   3.751   3.435  1.0811 -1.7923  0.4931
  163SAPE   O3118208   3.096   3.854   3.418  0.7725  0.1840  0.4767
  163SAPE   C3118209   3.060   3.948   3.498  0.1050 -0.7129  0.1516
  163SAPE   O3218210   2.948   3.970   3.548 -0.5429 -0.0865  0.7055
  163SAPE   C3218211   3.178   4.036   3.535 -0.2572  0.1652 -0.3355
  163SAPE   H2X18212   3.264   4.000   3.475 -0.6115  1.1079 -1.4419
  163SAPE   H2Y18213   3.202   4.004   3.639 -1.1816 -2.4874 -0.8481
  163SAPE   C2318214   2.767   4.208   3.425  0.2416 -0.0453 -0.2487
  163SAPE   H3R18215   2.789   4.315   3.405 -3.0524  0.9547  0.8174
  163SAPE   H3S18216   2.867   4.178   3.464  0.3309  0.0937 -0.3684
  163SAPE   C2418217   2.657   4.196   3.532 -0.3696  0.3294  0.2316
  163SAPE   H4R18218   2.712   4.229   3.623 -0.6129  1.8887 -0.1514
  163SAPE   H4S18219   2.625   4.090   3.542  1.8716 -0.2127  3.0148
  163SAPE   C2518220   2.541   4.279   3.492 -0.0264 -0.4132 -0.0477
  163SAPE   H5R18221   2.486   4.274   3.397  1.0995 -1.2476 -0.6749
  163SAPE   C2618222   2.489   4.373   3.568  0.3527 -0.3423 -0.8517
  163SAPE   H6R18223   2.390   4.413   3.542  0.8471  0.4316 -1.6378
  163SAPE   C2718224   2.549   4.416   3.706  0.7358  0.1801  0.1109
  163SAPE   H7R18225   2.660   4.409   3.708  0.8970  2.2589  0.2432
  163SAPE   H7S18226   2.519   4.352   3.792 -0.7327 -0.3731 -0.7763
  163SAPE   C2818227   2.502   4.555   3.735 -1.1736  0.2327 -0.0019
  163SAPE   H8R18228   2.526   4.624   3.653 -0.1180 -0.1355 -0.0040
  163SAPE   C2918229   2.445   4.599   3.848  0.6067 -0.7848 -0.3804
  163SAPE   H9R18230   2.419   4.706   3.849  0.7756 -0.7436 -0.2699
  163SAPE  C21018231   2.414   4.531   3.980 -0.1020  0.1050  0.1342
  163SAPE  H10R18232   2.440   4.597   4.066 -1.6853  0.6151  0.2536
  163SAPE  H10S18233   2.478   4.441   3.994 -0.9038 -0.5442 -0.2685
  163SAPE  C21118234   2.273   4.493   3.995 -0.0555  0.0360 -0.0932
  163SAPE  H11R18235   2.218   4.501   3.900  0.3454 -0.9645 -0.4240
  163SAPE  C21218236   2.208   4.445   4.102 -0.5380 -0.4182 -0.3580
  163SAPE  H12R18237   2.107   4.404   4.091 -0.0091 -1.4768 -1.7687
  163SAPE  C21318238   2.282   4.421   4.234  0.4259  0.4285 -0.0234
  163SAPE  H13R18239   2.383   4.468   4.235 -0.5656  2.6717  0.8471
  163SAPE  H13S18240   2.305   4.314   4.254 -1.9365  0.0681  1.1596
  163SAPE  C21418241   2.205   4.453   4.361 -0.6353  0.0494  0.1109
  163SAPE  H14R18242   2.160   4.553   4.349 -1.1647 -0.0521  1.1125
  163SAPE  C21518243   2.202   4.390   4.476  0.0772  0.1019 -0.3843
  163SAPE  H15R18244   2.130   4.431   4.548 -0.4708  0.0123 -0.8758
  163SAPE  C21618245   2.270   4.259   4.509 -0.0596  0.1607 -0.2302
  163SAPE  H16R18246   2.327   4.261   4.605  0.1539 -0.7182 -0.3302
  163SAPE  H16S18247   2.342   4.222   4.432 -0.5133 -3.3795  0.8836
  163SAPE  C21718248   2.176   4.137   4.537 -0.0427 -0.6453  0.0299
  163SAPE  H17R18249   2.243   4.049   4.531 -0.6387 -1.1751  1.0509
  163SAPE  H17S18250   2.110   4.132   4.448 -1.1863  0.8493  0.7444
  163SAPE  C21818251   2.111   4.153   4.676 -0.5376 -0.7246  0.6823
  163SAPE  H18R18252   2.059   4.251   4.686  2.7953  1.1255  1.6851
  163SAPE  H18S18253   2.192   4.161   4.752 -1.6547  3.4950  1.6933
  163SAPE  C21918254   2.009   4.032   4.701  0.5238 -0.3199  1.0956
  163SAPE  H19R18255   2.069   3.939   4.695 -0.1569 -0.7043  0.0192
  163SAPE  H19S18256   1.949   4.034   4.608  1.3006 -1.7473  0.5329
  163SAPE  C22018257   1.919   4.023   4.827  0.0698  0.1382 -0.3601
  163SAPE  H20R18258   1.816   4.001   4.790 -0.5997  1.1729  0.7839
  163SAPE  H20S18259   1.917   4.120   4.882 -0.3288 -0.6373  1.0489
  163SAPE  H20T18260   1.948   3.947   4.902 -2.4359  0.2504  0.8406
  163SAPE   C3318261   3.155   4.187   3.519  0.4012 -0.2526  0.1170
  163SAPE   H3X18262   3.099   4.216   3.428  1.5404  0.4566 -0.3824
  163SAPE   H3Y18263   3.251   4.241   3.507 -1.3941  2.8151 -1.9017
  163SAPE   C3418264   3.092   4.238   3.647  0.0198 -0.6434 -0.0694
  163SAPE   H4X18265   3.004   4.173   3.667 -0.5990  0.7158  1.8789
  163SAPE   H4Y18266   3.052   4.338   3.624 -0.1915 -0.9177 -0.9214
  163SAPE   C3518267   3.197   4.270   3.753  0.0812 -0.1161 -0.7129
  163SAPE   H5X18268   3.296   4.283   3.706  0.0430 -1.0488 -1.0949
  163SAPE   H5Y18269   3.216   4.181   3.817  2.4391  0.1297 -0.9897
  163SAPE   C3618270   3.180   4.400   3.845  0.1445  0.1230  0.2763
  163SAPE   H6X18271   3.076   4.395   3.884 -0.4754 -2.8239 -1.4715
  163SAPE   H6Y18272   3.202   4.493   3.788  0.7723  0.1380  0.5364
  163SAPE   C3718273   3.275   4.395   3.968 -0.0251  0.2754 -0.4425
  163SAPE   H7X18274   3.376   4.417   3.929 -0.0867  0.9160 -0.2502
  163SAPE   H7Y18275   3.264   4.293   4.012 -1.0206 -0.7757 -2.9351
  163SAPE   C3818276   3.230   4.497   4.077  0.0903 -0.4067  0.9890
  163SAPE   H8X18277   3.129   4.473   4.117  0.0152 -0.8424  0.5479
  163SAPE   H8Y18278   3.238   4.595   4.023  1.6690 -2.1237 -2.1950
  163SAPE   C3918279   3.325   4.504   4.202 -0.2613 -0.3792  0.3015
  163SAPE   H9X18280   3.424   4.499   4.153 -0.8932 -0.0839 -1.0821
  163SAPE   H9Y18281   3.319   4.419   4.272 -1.4878 -0.4482  0.1506
  163SAPE  C31018282   3.312   4.636   4.271  0.4703  0.1155 -0.4245
  163SAPE  H10X18283   3.342   4.726   4.214  1.6033  0.2649  0.3935
  163SAPE  H10Y18284   3.385   4.628   4.354 -0.8759 -2.6435  0.6641
  163SAPE  C31118285   3.169   4.651   4.338 -0.4820 -0.7395  0.8403
  163SAPE  H11X18286   3.161   4.565   4.408  0.1590 -0.8076  0.8318
  163SAPE  H11Y18287   3.091   4.648   4.258 -1.0791 -1.8502  1.4479
  163SAPE  C31218288   3.138   4.772   4.429 -0.0961 -0.0023  0.4549
  163SAPE  H12X18289   3.134   4.865   4.369 -0.4331 -0.4976 -0.3099
  163SAPE  H12Y18290   3.212   4.787   4.510 -0.0902 -1.1107  0.6646
  163SAPE  C31318291   2.994   4.741   4.481 -0.1603  0.2145  0.2005
  163SAPE  H13X18292   3.012   4.662   4.556  0.2758  1.0076  0.9523
  163SAPE  H13Y18293   2.940   4.705   4.391  2.0734  0.4265 -1.3288
  163SAPE  C31418294   2.928   4.853   4.551 -0.0097  0.1620  0.6183
  163SAPE  H14X18295   2.939   4.940   4.483  0.7250 -0.7474 -0.4465
  163SAPE  H14Y18296   2.983   4.890   4.640 -1.9336  3.1572  0.7347
  163SAPE  C31518297   2.781   4.826   4.581 -0.2348 -0.1621  0.3653
  163SAPE  H15X18298   2.731   4.901   4.645 -1.9974  0.8550 -2.0902
  163SAPE  H15Y18299   2.790   4.732   4.639  0.7471 -0.7094 -0.6206
  163SAPE  C31618300   2.696   4.835   4.459 -0.0471 -0.3956 -0.2454
  163SAPE  H16X18301   2.741   4.769   4.382 -0.3406  0.7797 -1.4624
  163SAPE  H16Y18302   2.712   4.942   4.435  0.6752 -0.0672  1.5408
  163SAPE  C31718303   2.549   4.801   4.484 -0.1008 -0.4072  0.2872
  163SAPE  H17X18304   2.516   4.896   4.531  0.7997 -1.3162  2.8855
  163SAPE  H17Y18305   2.533   4.719   4.557 -0.4639 -0.0253  0.6426
  163SAPE  C31818306   2.480   4.772   4.350 -0.0442 -0.6155  0.2187
  163SAPE  H18X18307   2.517   4.675   4.310  2.3980  0.3343  0.0033
  163SAPE  H18Y18308   2.506   4.850   4.275  1.4756 -1.0763  0.2280
  163SAPE  H18Z18309   2.369   4.772   4.358 -0.1889  3.2419  0.1557
  164SAPE     N18310   0.481   1.998   2.470  0.6364 -0.2666 -0.3879
  164SAPE   HN118311   0.437   1.906   2.490  0.4875 -0.3446 -1.0366
  164SAPE   HN218312   0.484   2.012   2.366 -0.7165  1.4380 -0.2522
  164SAPE   HN318313   0.576   1.992   2.510  1.0271 -0.3764 -1.3038
  164SAPE   C1218314   0.402   2.118   2.524  0.4023  0.9928  0.7284
  164SAPE  H12A18315   0.384   2.102   2.632  0.0433  2.3666  0.8775
  164SAPE  H12B18316   0.306   2.127   2.470  1.3953  3.0619 -0.8399
  164SAPE   C1118317   0.473   2.245   2.496 -0.2231 -0.2768  0.2222
  164SAPE  H11A18318   0.405   2.327   2.527 -0.2477  0.3618 -1.4071
  164SAPE  H11B18319   0.500   2.259   2.389  0.9211 -2.6450  0.1492
  164SAPE     P18320   0.673   2.373   2.592  0.0151 -0.1202  0.1865
  164SAPE   O1318321   0.811   2.348   2.654  0.2901 -0.3265  0.3808
  164SAPE   O1418322   0.679   2.442   2.456 -0.3472  0.2417  0.3780
  164SAPE   O1218323   0.592   2.235   2.583 -0.0073  0.6579 -0.0183
  164SAPE   O1118324   0.583   2.456   2.696  0.0124 -0.1892 -0.1908
  164SAPE    C118325   0.496   2.412   2.801 -0.6992 -0.3490  0.3145
  164SAPE    HA18326   0.393   2.451   2.783  0.3418  1.7974 -1.5751
  164SAPE    HB18327   0.488   2.301   2.799  0.0288 -0.4133  0.7464
  164SAPE    C218328   0.544   2.463   2.941  0.9599 -0.1353 -0.0200
  164SAPE    HS18329   0.481   2.411   3.016 -0.2205  0.2013 -0.7488
  164SAPE   O2118330   0.512   2.599   2.950 -0.0960  0.0549 -0.2380
  164SAPE   C2118331   0.383   2.637   2.972 -0.3639 -0.1763  0.3719
  164SAPE   O2218332   0.289   2.560   2.991 -0.7537 -0.5023 -0.2595
  164SAPE   C2218333   0.372   2.789   2.961  0.6181  0.3195 -0.1056
  164SAPE   H2R18334   0.471   2.839   2.972  1.7874 -1.6172 -1.3245
  164SAPE   H2S18335   0.343   2.801   2.855  0.6510  0.4124 -0.1041
  164SAPE    C318336   0.692   2.427   2.969  0.1989  0.3800 -0.3831
  164SAPE    HX18337   0.757   2.473   2.892 -0.5779 -1.0929 -1.9605
  164SAPE    HY18338   0.683   2.318   2.952 -4.6867  0.8214 -2.4058
  164SAPE   O3118339   0.723   2.453   3.110 -0.7938 -0.8358  0.0931
  164SAPE   C3118340   0.851   2.462   3.139 -0.0438  0.5427 -0.7183
  164SAPE   O3218341   0.941   2.461   3.058 -0.1720  0.3472 -0.3797
  164SAPE   C3218342   0.870   2.445   3.291  0.5048 -0.2227 -0.4304
  164SAPE   H2X18343   0.869   2.335   3.306 -0.9843 -0.0686  0.9467
  164SAPE   H2Y18344   0.790   2.496   3.348  0.7607 -0.8249  0.4892
  164SAPE   C2318345   0.279   2.849   3.067 -0.4357  0.4891 -0.5037
  164SAPE   H3R18346   0.180   2.803   3.045  0.6341 -1.2045 -2.0784
  164SAPE   H3S18347   0.268   2.958   3.051  0.9911  1.1089  2.2406
  164SAPE   C2418348   0.331   2.824   3.213 -0.2076  0.1296  0.5306
  164SAPE   H4R18349   0.426   2.880   3.224  0.0800 -0.2740  0.1557
  164SAPE   H4S18350   0.363   2.717   3.213  0.9854  0.4554 -0.7132
  164SAPE   C2518351   0.229   2.862   3.308 -0.1784 -0.1642  0.7485
  164SAPE   H5R18352   0.127   2.874   3.270  0.0348 -0.7739 -0.0520
  164SAPE   C2618353   0.258   2.908   3.430  0.7810  0.0135 -0.0677
  164SAPE   H6R18354   0.169   2.946   3.483 -1.9930 -1.4919 -3.2374
  164SAPE   C2718355   0.392   2.915   3.504  0.1386  0.3638  0.2274
  164SAPE   H7R18356   0.424   3.018   3.532  1.1616  0.2999 -0.6472
  164SAPE   H7S18357   0.470   2.879   3.435 -0.9892 -2.8258  0.4714
  164SAPE   C2818358   0.408   2.821   3.622  0.2124  0.2921  0.1704
  164SAPE   H8R18359   0.450   2.720   3.612 -2.2677 -0.8964  1.0191
  164SAPE   C2918360   0.350   2.846   3.740 -0.1729 -0.1239 -0.2516
  164SAPE   H9R18361   0.387   2.792   3.829 -2.0194  1.7373  1.7925
  164SAPE  C21018362   0.288   2.973   3.780 -0.5435 -0.5797  0.5588
  164SAPE  H10R18363   0.207   2.996   3.707 -0.3947  0.0005  0.5723
  164SAPE  H10S18364   0.359   3.058   3.778 -3.1918  1.7451 -0.5233
  164SAPE  C21118365   0.228   2.968   3.923 -0.3550  0.1178 -0.6111
  164SAPE  H11R18366   0.118   2.966   3.930 -0.2629  0.0546  1.0404
  164SAPE  C21218367   0.297   2.994   4.037  0.8319  0.4878 -0.7165
  164SAPE  H12R18368   0.243   2.981   4.132 -0.9524 -0.9856 -1.8581
  164SAPE  C21318369   0.444   3.021   4.037  0.5850  0.2892 -0.5917
  164SAPE  H13R18370   0.496   2.995   3.942  0.9219  2.0813 -0.9359
  164SAPE  H13S18371   0.484   2.947   4.110 -0.4085 -0.0758 -0.3942
  164SAPE  C21418372   0.476   3.166   4.074 -0.8182  0.4230  0.3633
  164SAPE  H14R18373   0.508   3.223   3.985  0.9948  0.6786  1.1394
  164SAPE  C21518374   0.471   3.239   4.190 -0.6491  0.4436  0.6050
  164SAPE  H15R18375   0.502   3.344   4.193 -1.1581  0.6523 -0.6381
  164SAPE  C21618376   0.436   3.176   4.325 -0.0398  0.2801  0.3213
  164SAPE  H16R18377   0.511   3.206   4.401 -0.4146 -1.9203  1.6554
  164SAPE  H16S18378   0.451   3.066   4.319 -1.9775  0.0246 -0.7350
  164SAPE  C21718379   0.299   3.222   4.379  0.1646  0.2819 -0.1294
  164SAPE  H17R18380   0.224   3.211   4.297  1.3014 -1.5546 -0.9930
  164SAPE  H17S18381   0.308   3.325   4.418 -2.0386  0.9123 -1.1356
  164SAPE  C21818382   0.235   3.135   4.491 -0.1328 -0.0021 -0.6981
  164SAPE  H18R18383   0.147   3.176   4.545  0.9112 -0.5085  1.5272
  164SAPE  H18S18384   0.311   3.101   4.565 -0.7048 -1.3762 -0.7053
  164SAPE  C21918385   0.179   3.002   4.431 -0.0782 -0.3916  0.5982
  164SAPE  H19R18386   0.256   2.959   4.362 -0.0918  0.9729 -0.3039
  164SAPE  H19S18387   0.097   3.024   4.360  2.7815  0.7724 -2.6353
  164SAPE  C22018388   0.146   2.900   4.532  0.2776  0.1998  0.1485
  164SAPE  H20R18389   0.232   2.869   4.594 -0.6833 -2.5820  0.2520
  164SAPE  H20S18390   0.113   2.806   4.483  0.1829 -0.8464  2.1273
  164SAPE  H20T18391   0.071   2.938   4.604  0.3170  0.1984  0.1899
  164SAPE   C3318392   1.011   2.495   3.345  0.3374  0.0152 -0.1659
  164SAPE   H3X18393   1.008   2.604   3.322  1.0027  0.1807  0.4776
  164SAPE   H3Y18394   1.096   2.449   3.290 -0.8012 -0.2025 -1.8250
  164SAPE   C3418395   1.044   2.471   3.497 -0.3818 -0.2902  0.8590
  164SAPE   H4X18396   1.150   2.494   3.523  0.4539  0.4331 -2.7398
  164SAPE   H4Y18397   1.030   2.362   3.509  1.2627 -0.5906  0.2883
  164SAPE   C3518398   0.968   2.555   3.594 -1.1945  0.0842 -0.0163
  164SAPE   H5X18399   0.866   2.579   3.558 -0.9534 -0.7365 -1.3089
  164SAPE   H5Y18400   1.040   2.638   3.614 -0.5790 -1.1412  3.4459
  164SAPE   C3618401   0.971   2.474   3.733  0.4611 -0.1185  0.7911
  164SAPE   H6X18402   0.885   2.404   3.732  0.3097  0.0447 -0.8457
  164SAPE   H6Y18403   0.954   2.552   3.810  0.0688  1.5695 -0.9340
  164SAPE   C3718404   1.098   2.397   3.762  0.1446 -0.4168  0.2693
  164SAPE   H7X18405   1.189   2.456   3.741 -0.9229  0.6069 -1.8800
  164SAPE   H7Y18406   1.091   2.305   3.699  1.2499  0.5362 -1.2957
  164SAPE   C3818407   1.115   2.357   3.915  0.3025  0.6260 -0.1953
  164SAPE   H8X18408   1.149   2.435   3.988 -1.4202  0.1144  1.2254
  164SAPE   H8Y18409   1.193   2.278   3.915 -0.2877  0.0131  0.9452
  164SAPE   C3918410   0.978   2.310   3.974  0.0378 -0.0271  0.0338
  164SAPE   H9X18411   0.934   2.240   3.900 -1.0434  2.0676 -1.4182
  164SAPE   H9Y18412   0.909   2.397   3.982 -0.7348 -0.7111  0.9323
  164SAPE  C31018413   1.003   2.235   4.105 -0.1169  0.2667 -0.5232
  164SAPE  H10X18414   1.084   2.160   4.095 -0.9362 -0.7644  0.2662
  164SAPE  H10Y18415   0.918   2.169   4.135 -0.3296  1.2850  1.2220
  164SAPE  C31118416   1.037   2.325   4.229 -0.1251 -0.2739  0.0662
  164SAPE  H11X18417   1.007   2.430   4.209  2.1934  0.3624 -0.3982
  164SAPE  H11Y18418   1.147   2.319   4.245  0.0763 -0.7136 -1.3039
  164SAPE  C31218419   0.961   2.287   4.356 -0.0125 -0.5204  0.1050
  164SAPE  H12X18420   0.940   2.178   4.358 -1.3400 -0.3186 -1.1201
  164SAPE  H12Y18421   0.864   2.340   4.364 -0.3636 -1.0261 -0.7047
  164SAPE  C31318422   1.057   2.326   4.469 -0.0115  0.1908  0.0925
  164SAPE  H13X18423   1.099   2.426   4.447 -1.1081  0.2103 -2.2270
  164SAPE  H13Y18424   1.143   2.256   4.472 -1.9950 -2.4533 -0.1922
  164SAPE  C31418425   0.994   2.347   4.609  0.3156 -0.1824 -0.5055
  164SAPE  H14X18426   1.077   2.368   4.680 -0.8669 -0.6836  1.0930
  164SAPE  H14Y18427   0.949   2.252   4.645 -0.2420 -0.1764 -1.1673
  164SAPE  C31518428   0.891   2.463   4.610 -0.0782  0.2352  0.1871
  164SAPE  H15X18429   0.811   2.446   4.536  0.4987 -0.1268 -0.3625
  164SAPE  H15Y18430   0.937   2.557   4.571  1.1094  0.6503  2.4024
  164SAPE  C31618431   0.840   2.505   4.750 -0.6728  0.3049  0.2774
  164SAPE  H16X18432   0.798   2.608   4.743  0.6791  0.7880 -1.6121
  164SAPE  H16Y18433   0.931   2.515   4.812  0.4776 -2.5063 -0.7934
  164SAPE  C31718434   0.732   2.407   4.808  0.9307  0.0297  0.4675
  164SAPE  H17X18435   0.763   2.300   4.811  0.1382 -0.2638 -0.8068
  164SAPE  H17Y18436   0.646   2.420   4.739 -1.0267  2.0428  3.0712
  164SAPE  C31818437   0.687   2.461   4.947 -0.0818  0.6275 -0.4496
  164SAPE  H18X18438   0.768   2.438   5.019  0.4024  0.9899 -0.8648
  164SAPE  H18Y18439   0.600   2.400   4.980  0.6679 -0.0590  0.2952
  164SAPE  H18Z18440   0.667   2.570   4.958  3.2961  1.4410 -1.1159
  165SAPE     N18441   5.839   5.379   2.661  0.0080 -0.9983 -0.0530
  165SAPE   HN118442   5.941   5.399   2.661 -0.3281  0.9492  0.8647
  165SAPE   HN218443   5.821   5.313   2.740  1.8432 -1.4929 -0.0011
  165SAPE   HN318444   5.816   5.318   2.580  1.4348 -1.6787  0.0240
  165SAPE   C1218445   5.752   5.497   2.676  0.2000 -0.1376  0.1357
  165SAPE  H12A18446   5.769   5.562   2.588 -1.3859 -1.3443 -1.1122
  165SAPE  H12B18447   5.779   5.555   2.767  1.7999 -1.9428  0.8890
  165SAPE   C1118448   5.605   5.452   2.673 -0.2716 -0.0743  0.2745
  165SAPE  H11A18449   5.528   5.527   2.700  1.0351  1.6417 -0.5364
  165SAPE  H11B18450   5.594   5.371   2.748 -0.7581 -2.4513 -2.2202
  165SAPE     P18451   5.509   5.473   2.426  0.4252 -0.1639  0.4382
  165SAPE   O1318452   5.550   5.613   2.443 -0.1907 -0.5737 -0.3999
  165SAPE   O1418453   5.547   5.415   2.294 -0.6544 -0.3509 -0.0520
  165SAPE   O1218454   5.575   5.391   2.548 -0.4948  0.2017  0.2325
  165SAPE   O1118455   5.351   5.452   2.435 -0.1823 -0.1625  0.3574
  165SAPE    C118456   5.305   5.355   2.525  0.3513 -0.0361  0.1258
  165SAPE    HA18457   5.241   5.285   2.467  0.0663  0.4023 -0.0976
  165SAPE    HB18458   5.376   5.295   2.585  1.2665 -0.6924 -1.5568
  165SAPE    C218459   5.200   5.423   2.616  0.1169  0.0233 -0.0618
  165SAPE    HS18460   5.126   5.484   2.560 -0.4543 -1.2109 -0.6879
  165SAPE   O2118461   5.259   5.519   2.703 -0.3258 -0.0683 -0.1389
  165SAPE   C2118462   5.186   5.586   2.794  0.4783  0.5746 -0.1012
  165SAPE   O2218463   5.065   5.584   2.802 -0.1547 -0.4997 -0.2577
  165SAPE   C2218464   5.271   5.661   2.897 -0.3184 -0.2144 -0.0110
  165SAPE   H2R18465   5.367   5.697   2.853 -0.0098  0.3757  1.0910
  165SAPE   H2S18466   5.207   5.749   2.919 -0.1756 -0.7160  2.9367
  165SAPE    C318467   5.114   5.313   2.698  0.0050  0.9745  0.2341
  165SAPE    HX18468   5.080   5.227   2.637 -1.1144  0.7212  1.1964
  165SAPE    HY18469   5.012   5.352   2.716 -0.3802 -0.3451  0.9891
  165SAPE   O3118470   5.168   5.283   2.829 -0.1699  0.3413  0.0765
  165SAPE   C3118471   5.262   5.183   2.829  0.2110 -0.6158 -0.1443
  165SAPE   O3218472   5.282   5.107   2.742 -0.2337  0.4137 -0.5150
  165SAPE   C3218473   5.325   5.185   2.972  0.1065  0.1189  0.5912
  165SAPE   H2X18474   5.253   5.227   3.046 -1.1421  2.8494 -1.9893
  165SAPE   H2Y18475   5.411   5.256   2.973  1.4697 -1.4236 -1.2676
  165SAPE   C2318476   5.298   5.592   3.026  0.0834  0.2721 -0.9307
  165SAPE   H3R18477   5.354   5.662   3.091  1.1376 -0.9898 -0.4252
  165SAPE   H3S18478   5.363   5.503   3.011 -0.4281  0.0649 -1.9894
  165SAPE   C2418479   5.169   5.552   3.098 -0.3839 -0.4902 -0.1679
  165SAPE   H4R18480   5.116   5.480   3.032  1.2003 -0.2012 -1.8297
  165SAPE   H4S18481   5.101   5.640   3.103  1.0251  0.8003 -2.1676
  165SAPE   C2518482   5.200   5.491   3.235 -0.2538 -0.5275  1.3612
  165SAPE   H5R18483   5.246   5.391   3.233  1.0856  0.0708 -0.9862
  165SAPE   C2618484   5.162   5.550   3.350 -0.1937 -0.3638  0.2372
  165SAPE   H6R18485   5.218   5.512   3.437  0.4127 -0.0088  0.0130
  165SAPE   C2718486   5.109   5.693   3.378 -0.2115  0.0512  0.5455
  165SAPE   H7R18487   5.069   5.701   3.482  2.5383  3.8549  1.5322
  165SAPE   H7S18488   5.027   5.713   3.306 -0.0201 -2.3969 -0.4256
  165SAPE   C2818489   5.215   5.798   3.365 -0.5161  0.4178  0.2821
  165SAPE   H8R18490   5.270   5.775   3.272 -1.3081 -0.5297  0.0210
  165SAPE   C2918491   5.231   5.909   3.439  0.1477  0.4182  0.3230
  165SAPE   H9R18492   5.316   5.973   3.410 -1.1623  1.7038 -0.7985
  165SAPE  C21018493   5.135   5.947   3.550  0.3341 -0.0451  0.3958
  165SAPE  H10R18494   5.163   5.889   3.640 -0.9634 -1.2113  0.0727
  165SAPE  H10S18495   5.033   5.908   3.530 -0.2862  1.3237  0.7521
  165SAPE  C21118496   5.126   6.091   3.576 -0.4705  0.0983  0.5863
  165SAPE  H11R18497   5.199   6.154   3.523  2.0534 -3.1120 -0.1011
  165SAPE  C21218498   5.043   6.150   3.664 -0.1362 -0.5198 -0.2737
  165SAPE  H12R18499   5.042   6.260   3.675  0.7754 -0.4434 -0.8738
  165SAPE  C21318500   4.932   6.092   3.756 -0.9873 -0.1514  0.0023
  165SAPE  H13R18501   4.873   6.017   3.699 -2.9500  1.2590  0.0508
  165SAPE  H13S18502   4.853   6.170   3.770 -0.0281  0.8777 -0.1479
  165SAPE  C21418503   4.999   6.041   3.884  0.0127  0.1526  0.1202
  165SAPE  H14R18504   5.077   5.966   3.865 -0.0177 -0.5812  2.5363
  165SAPE  C21518505   4.965   6.049   4.014  0.1226 -0.0176 -0.4995
  165SAPE  H15R18506   5.027   5.997   4.089 -1.2245  0.9329  1.3432
  165SAPE  C21618507   4.848   6.122   4.074 -0.5171  0.0886 -0.1369
  165SAPE  H16R18508   4.784   6.050   4.129  0.6622 -1.5217 -0.7853
  165SAPE  H16S18509   4.783   6.169   3.998  1.2419  2.4017 -0.3267
  165SAPE  C21718510   4.905   6.233   4.165 -0.5806 -0.2204  0.4502
  165SAPE  H17R18511   4.832   6.315   4.181  1.0809  1.7441 -1.3897
  165SAPE  H17S18512   4.991   6.281   4.114 -0.0741 -0.0641  1.4298
  165SAPE  C21818513   4.960   6.194   4.302  0.1909 -0.1262 -0.8252
  165SAPE  H18R18514   5.043   6.121   4.285 -0.1799 -1.0102  0.9765
  165SAPE  H18S18515   4.879   6.136   4.350  0.5371 -1.8099 -2.1834
  165SAPE  C21918516   5.003   6.316   4.379 -0.4004  0.9618  0.0613
  165SAPE  H19R18517   4.906   6.366   4.401  0.0207  1.9407 -0.2306
  165SAPE  H19S18518   5.060   6.393   4.321 -0.5007  1.6692  0.8844
  165SAPE  C22018519   5.081   6.275   4.506 -0.5137 -0.3131 -0.0722
  165SAPE  H20R18520   5.024   6.212   4.577 -1.5582  2.4472  1.7078
  165SAPE  H20S18521   5.103   6.365   4.568 -0.1090 -1.2250  1.1370
  165SAPE  H20T18522   5.175   6.226   4.473  0.0748  0.7956 -0.0880
  165SAPE   C3318523   5.379   5.046   3.016  0.1637 -0.9823  0.4822
  165SAPE   H3X18524   5.432   4.993   2.934 -1.0745 -0.3187 -0.7845
  165SAPE   H3Y18525   5.297   4.984   3.057 -2.0227  1.2222 -0.2995
  165SAPE   C3418526   5.478   5.055   3.133  0.0820 -0.0413 -0.0920
  165SAPE   H4X18527   5.562   5.119   3.100 -0.1646  1.1286  1.4250
  165SAPE   H4Y18528   5.519   4.954   3.154  0.8353  0.6231  1.8095
  165SAPE   C3518529   5.421   5.117   3.267 -0.4598  0.3663  0.6761
  165SAPE   H5X18530   5.331   5.063   3.303 -1.2659  2.3021  1.6961
  165SAPE   H5Y18531   5.391   5.220   3.237 -0.3330 -0.1165 -1.2409
  165SAPE   C3618532   5.521   5.137   3.379 -0.0878  0.7143 -0.3947
  165SAPE   H6X18533   5.523   5.246   3.402  0.1271  0.9192 -1.3166
  165SAPE   H6Y18534   5.622   5.107   3.345  0.3378 -0.0363  1.4185
  165SAPE   C3718535   5.483   5.069   3.503 -0.2666  0.4943  0.1862
  165SAPE   H7X18536   5.448   4.966   3.481 -0.0096  0.2980  0.6816
  165SAPE   H7Y18537   5.396   5.122   3.549 -0.3564  0.0925  0.4856
  165SAPE   C3818538   5.598   5.058   3.607 -0.4998 -0.3620 -0.2408
  165SAPE   H8X18539   5.646   5.156   3.625  0.0172 -0.2645 -1.9973
  165SAPE   H8Y18540   5.681   4.990   3.577 -0.4198 -0.4758  0.2267
  165SAPE   C3918541   5.536   4.996   3.736  0.9100 -0.0272 -1.0448
  165SAPE   H9X18542   5.467   4.915   3.704 -1.5622  0.7817  1.7671
  165SAPE   H9Y18543   5.466   5.074   3.775  0.7918 -0.5425 -0.1812
  165SAPE  C31018544   5.640   4.950   3.847 -0.2052  0.5075 -0.7231
  165SAPE  H10X18545   5.698   5.039   3.881 -0.2041  0.6127 -1.0004
  165SAPE  H10Y18546   5.715   4.876   3.812  0.4338  0.9236 -0.2634
  165SAPE  C31118547   5.572   4.893   3.976  0.2035  0.1196  0.1679
  165SAPE  H11X18548   5.511   4.803   3.951  0.2637  0.1856 -0.2303
  165SAPE  H11Y18549   5.505   4.972   4.017  0.3856 -0.0346  0.7757
  165SAPE  C31218550   5.673   4.867   4.086  0.0988 -0.6661  0.1112
  165SAPE  H12X18551   5.734   4.956   4.112  1.5829 -1.5605 -0.2261
  165SAPE  H12Y18552   5.748   4.791   4.055  0.0291 -1.5316  1.9298
  165SAPE  C31318553   5.619   4.815   4.211  0.2565 -0.1400  0.0759
  165SAPE  H13X18554   5.712   4.783   4.262 -0.8672 -2.1717  1.0023
  165SAPE  H13Y18555   5.556   4.726   4.191  1.3091 -0.6056 -1.3351
  165SAPE  C31418556   5.540   4.926   4.298 -0.5650  0.8608  0.7130
  165SAPE  H14X18557   5.467   4.981   4.234  0.9023  0.7078 -1.1777
  165SAPE  H14Y18558   5.609   5.006   4.333  0.4934  0.4669 -0.4122
  165SAPE  C31518559   5.477   4.873   4.421 -0.0263  0.1142 -0.7831
  165SAPE  H15X18560   5.514   4.768   4.429  0.2872  0.2270 -0.7254
  165SAPE  H15Y18561   5.367   4.864   4.427  0.1524 -1.5419  0.8916
  165SAPE  C31618562   5.522   4.945   4.554  0.5000 -0.4468 -0.3302
  165SAPE  H16X18563   5.517   5.053   4.528 -0.2867 -0.4765 -0.3261
  165SAPE  H16Y18564   5.627   4.916   4.578  0.7584 -0.1589 -1.0775
  165SAPE  C31718565   5.421   4.911   4.668  0.1760 -0.3231 -0.1042
  165SAPE  H17X18566   5.432   4.805   4.699 -0.7496 -0.5603 -0.5479
  165SAPE  H17Y18567   5.318   4.916   4.627 -0.4404 -4.0432  0.6356
  165SAPE  C31818568   5.436   4.995   4.791 -0.0986 -0.0186  0.2529
  165SAPE  H18X18569   5.358   4.966   4.864 -0.1599  0.4324  0.3744
  165SAPE  H18Y18570   5.415   5.103   4.774  2.3282  0.7094  1.3179
  165SAPE  H18Z18571   5.538   5.001   4.834 -0.8187 -2.0260  2.4053
  166SAPE     N18572   6.407   6.368   3.069  0.2135 -0.2641  0.2298
  166SAPE   HN118573   6.308   6.336   3.060  0.7073 -1.7503 -0.2800
  166SAPE   HN218574   6.409   6.400   3.168 -0.1160 -0.9386  0.4650
  166SAPE   HN318575   6.417   6.455   3.013 -1.5850  0.6370  1.2161
  166SAPE   C1218576   6.506   6.259   3.052  0.3985 -1.1260  1.3231
  166SAPE  H12A18577   6.492   6.226   2.947 -1.5183  0.5508  0.9833
  166SAPE  H12B18578   6.489   6.177   3.125  0.0372 -1.9953  0.2922
  166SAPE   C1118579   6.644   6.328   3.057  0.3443  0.4136 -0.1075
  166SAPE  H11A18580   6.659   6.359   3.162  2.5777  0.9453 -0.5313
  166SAPE  H11B18581   6.653   6.419   2.993  1.7517 -0.0508 -0.6035
  166SAPE     P18582   6.829   6.154   3.102 -0.2592 -0.1381 -0.3306
  166SAPE   O1318583   6.741   6.044   3.156  0.4586 -0.0524 -0.4146
  166SAPE   O1418584   6.953   6.132   3.019 -0.1604  0.4407  0.3421
  166SAPE   O1218585   6.737   6.235   3.008 -0.2950  0.2343  0.5452
  166SAPE   O1118586   6.854   6.261   3.216 -0.3683 -0.3791  0.1274
  166SAPE    C118587   6.958   6.361   3.196  0.0482  0.2111  0.4288
  166SAPE    HA18588   7.059   6.319   3.180  0.3439  0.6503  1.0723
  166SAPE    HB18589   6.939   6.440   3.121  3.2251  0.6868 -0.0105
  166SAPE    C218590   6.971   6.436   3.333  0.2980 -0.3472  0.1053
  166SAPE    HS18591   7.064   6.496   3.342 -0.4058  0.5224  2.1129
  166SAPE   O2118592   6.968   6.343   3.441 -0.5280  0.4286  0.2474
  166SAPE   C2118593   7.071   6.268   3.457  0.1123  0.1462  0.4660
  166SAPE   O2218594   7.177   6.270   3.399  0.5958  0.1770 -0.1448
  166SAPE   C2218595   7.048   6.173   3.573 -0.5774  0.5756  0.0793
  166SAPE   H2R18596   6.940   6.145   3.575 -0.6816  0.6961 -1.6931
  166SAPE   H2S18597   7.103   6.081   3.545 -1.6282  0.3989 -1.5872
  166SAPE    C318598   6.851   6.537   3.339  0.6989 -0.1657  0.3451
  166SAPE    HX18599   6.757   6.480   3.327  0.4781 -0.1986  1.9335
  166SAPE    HY18600   6.858   6.610   3.255  1.9179 -0.8296 -0.1539
  166SAPE   O3118601   6.855   6.617   3.458 -1.0101  0.5284  0.1094
  166SAPE   C3118602   6.775   6.583   3.552 -0.4120  0.0942  0.2455
  166SAPE   O3218603   6.684   6.502   3.547 -0.5794  0.0287  0.0981
  166SAPE   C3218604   6.803   6.667   3.674 -0.0100 -0.2822  0.3969
  166SAPE   H2X18605   6.792   6.772   3.640  2.2054 -0.2166 -0.2939
  166SAPE   H2Y18606   6.909   6.646   3.700  0.1261 -1.4505 -0.9793
  166SAPE   C2318607   7.105   6.228   3.710  0.0252 -0.4284  0.4434
  166SAPE   H3R18608   7.216   6.233   3.705  0.0128 -1.3389 -1.9466
  166SAPE   H3S18609   7.085   6.154   3.790  0.9577 -1.6761 -0.4289
  166SAPE   C2418610   7.057   6.369   3.748  0.5816 -0.6213  0.0556
  166SAPE   H4R18611   7.072   6.436   3.661 -0.1769 -1.8133 -1.0392
  166SAPE   H4S18612   7.117   6.394   3.838  0.3896  0.1840 -0.0384
  166SAPE   C2518613   6.917   6.374   3.782 -0.1568  0.1003  0.3388
  166SAPE   H5R18614   6.844   6.369   3.700 -0.1968  0.6084  0.3380
  166SAPE   C2618615   6.871   6.389   3.909 -0.3530  0.0169  0.0930
  166SAPE   H6R18616   6.763   6.378   3.927 -0.3658  0.2853  0.1829
  166SAPE   C2718617   6.941   6.405   4.044  0.2851  0.3886  0.0918
  166SAPE   H7R18618   7.043   6.367   4.023  0.5424  0.6115  0.9172
  166SAPE   H7S18619   6.892   6.335   4.115  0.3191  0.5662  0.2922
  166SAPE   C2818620   6.937   6.549   4.093  0.1656  0.4564 -0.4433
  166SAPE   H8R18621   7.012   6.613   4.044  0.8124 -0.5596 -0.8209
  166SAPE   C2918622   6.851   6.606   4.182  0.0493 -0.1447  0.3246
  166SAPE   H9R18623   6.858   6.715   4.195  1.5434  0.0494 -1.6162
  166SAPE  C21018624   6.752   6.525   4.262 -0.2064 -0.4381 -0.0905
  166SAPE  H10R18625   6.795   6.503   4.362  1.7393 -0.0010 -0.7704
  166SAPE  H10S18626   6.731   6.429   4.212 -1.6231 -0.3782  0.3490
  166SAPE  C21118627   6.613   6.598   4.270  0.0814  0.1846  0.0022
  166SAPE  H11R18628   6.576   6.652   4.182  1.1506  2.5056  0.8983
  166SAPE  C21218629   6.532   6.612   4.379  0.1288 -0.4201  0.6191
  166SAPE  H12R18630   6.446   6.679   4.368 -0.0398 -0.5561  1.1243
  166SAPE  C21318631   6.567   6.553   4.509 -0.2662 -0.1277 -0.0918
  166SAPE  H13R18632   6.622   6.456   4.502  3.2791  1.8218 -1.5597
  166SAPE  H13S18633   6.477   6.534   4.572  0.9692  1.0821  2.1787
  166SAPE  C21418634   6.655   6.656   4.591  0.2848  0.7198  0.5230
  166SAPE  H14R18635   6.626   6.762   4.589 -0.1885  0.6123 -2.0046
  166SAPE  C21518636   6.771   6.625   4.653 -0.3419 -0.7673 -0.7847
  166SAPE  H15R18637   6.830   6.708   4.694 -0.1325 -0.7588 -1.1026
  166SAPE  C21618638   6.831   6.493   4.693  0.0130  0.3725 -0.8589
  166SAPE  H16R18639   6.795   6.394   4.658  1.0888 -1.0347  1.6813
  166SAPE  H16S18640   6.808   6.479   4.801 -2.2800 -0.6295 -1.4287
  166SAPE  C21718641   6.988   6.484   4.667 -0.2492 -0.5812 -0.1849
  166SAPE  H17R18642   7.016   6.406   4.741 -0.0084  0.0759  0.4319
  166SAPE  H17S18643   7.035   6.578   4.703 -0.0042 -1.4312  1.8552
  166SAPE  C21818644   7.020   6.471   4.520  0.0249  0.4798 -0.2985
  166SAPE  H18R18645   7.012   6.576   4.484 -2.5832  0.6604  0.5897
  166SAPE  H18S18646   6.947   6.405   4.469 -0.3210 -1.7505  2.7760
  166SAPE  C21918647   7.157   6.401   4.496 -0.6881  0.5931 -0.7677
  166SAPE  H19R18648   7.151   6.299   4.542  0.3386  1.2355  0.8729
  166SAPE  H19S18649   7.234   6.465   4.543  0.6623 -0.8524 -0.9312
  166SAPE  C22018650   7.188   6.376   4.345 -0.2851  0.3497  0.4466
  166SAPE  H20R18651   7.279   6.313   4.335 -0.8880 -0.4418 -0.1670
  166SAPE  H20S18652   7.208   6.461   4.277  0.2791 -0.4886 -0.4583
  166SAPE  H20T18653   7.107   6.313   4.304  0.1953 -0.1796  0.2997
  166SAPE   C3318654   6.705   6.646   3.794  0.8068  0.8917  0.1087
  166SAPE   H3X18655   6.755   6.660   3.893  0.3393 -0.6405  0.5852
  166SAPE   H3Y18656   6.675   6.539   3.798  1.1240  0.7879 -0.2568
  166SAPE   C3418657   6.586   6.738   3.785  0.2587  0.1947  0.2500
  166SAPE   H4X18658   6.560   6.746   3.677 -2.7579  2.1640  0.9994
  166SAPE   H4Y18659   6.628   6.837   3.813 -2.8027  2.1509 -1.4614
  166SAPE   C3518660   6.474   6.680   3.872  0.3506  0.4692  0.0285
  166SAPE   H5X18661   6.510   6.666   3.976 -2.3039 -1.9443  0.7490
  166SAPE   H5Y18662   6.438   6.580   3.837  1.1869 -0.6239  2.1246
  166SAPE   C3618663   6.354   6.780   3.884 -0.1814  0.5375  0.3557
  166SAPE   H6X18664   6.331   6.804   3.778  0.3556 -1.2851 -0.2215
  166SAPE   H6Y18665   6.390   6.873   3.933 -1.3970 -0.2902  3.0108
  166SAPE   C3718666   6.219   6.726   3.948 -0.7226  0.4211 -0.3096
  166SAPE   H7X18667   6.174   6.643   3.890  0.0064  1.0462 -1.8161
  166SAPE   H7Y18668   6.144   6.808   3.942 -1.2398  0.0440  0.7828
  166SAPE   C3818669   6.248   6.690   4.097 -0.5704 -0.1745 -0.0782
  166SAPE   H8X18670   6.280   6.782   4.149 -1.3039  1.3736 -2.2075
  166SAPE   H8Y18671   6.332   6.618   4.089 -0.4923  0.0148 -1.1024
  166SAPE   C3918672   6.129   6.634   4.174 -0.0756 -0.5004 -0.7372
  166SAPE   H9X18673   6.089   6.546   4.119  2.9518 -2.1505 -0.4951
  166SAPE   H9Y18674   6.048   6.711   4.172 -0.5126 -0.9166  0.2609
  166SAPE  C31018675   6.168   6.603   4.320  0.9349  0.5924 -0.7539
  166SAPE  H10X18676   6.202   6.691   4.377 -1.9678  1.7765 -0.6965
  166SAPE  H10Y18677   6.264   6.547   4.317  1.5139  1.5723 -2.9710
  166SAPE  C31118678   6.062   6.535   4.417 -1.2097 -0.5429 -0.5692
  166SAPE  H11X18679   6.030   6.434   4.384  2.0938 -1.7673 -0.4110
  166SAPE  H11Y18680   5.968   6.594   4.419 -1.3060 -0.7052  1.2956
  166SAPE  C31218681   6.132   6.518   4.554  0.3898  0.1902  0.1082
  166SAPE  H12X18682   6.218   6.449   4.546  0.9981  0.9899 -0.4533
  166SAPE  H12Y18683   6.059   6.465   4.619 -1.4752  0.2678 -1.8517
  166SAPE  C31318684   6.161   6.656   4.630  0.1969  0.8953 -0.1033
  166SAPE  H13X18685   6.081   6.722   4.589  2.3977  3.0887 -1.1816
  166SAPE  H13Y18686   6.262   6.691   4.601  1.1398 -0.1739  1.7457
  166SAPE  C31418687   6.143   6.655   4.778 -0.1076 -0.4206 -0.6494
  166SAPE  H14X18688   6.173   6.754   4.818  0.2418  0.9814 -4.0596
  166SAPE  H14Y18689   6.203   6.580   4.834 -0.0588  0.5404  0.6388
  166SAPE  C31518690   6.002   6.625   4.836  0.3073  0.3348  0.1883
  166SAPE  H15X18691   6.007   6.515   4.855  1.5711  0.3289 -0.0704
  166SAPE  H15Y18692   5.916   6.646   4.770  2.1931 -0.2443 -2.6260
  166SAPE  C31618693   5.979   6.697   4.968  0.7339  0.1048  0.1380
  166SAPE  H16X18694   5.972   6.805   4.943  4.4016  0.6956  1.0862
  166SAPE  H16Y18695   6.061   6.679   5.041 -0.8837  1.1463  2.3221
  166SAPE  C31718696   5.855   6.649   5.049 -0.2082 -0.0577 -0.1742
  166SAPE  H17X18697   5.780   6.606   4.980 -0.1338  2.7387 -2.1524
  166SAPE  H17Y18698   5.796   6.737   5.085 -3.5496 -1.4231 -1.8620
  166SAPE  C31818699   5.884   6.561   5.166  0.2265  0.1594 -0.2142
  166SAPE  H18X18700   5.815   6.573   5.252  3.3621  2.3699  2.2252
  166SAPE  H18Y18701   5.984   6.578   5.210 -0.2172 -0.9306  1.2994
  166SAPE  H18Z18702   5.878   6.451   5.149 -0.5517  0.1647 -0.0435
  167SAPE     N18703   0.590   4.427   2.979 -0.7193  0.1122 -0.1049
  167SAPE   HN118704   0.505   4.478   3.010 -0.5922 -0.1124  0.6240
  167SAPE   HN218705   0.560   4.351   2.915 -2.3138  1.6633 -1.3207
  167SAPE   HN318706   0.638   4.382   3.059  1.5135  3.0116  0.3661
  167SAPE   C1218707   0.673   4.520   2.892 -0.1648  0.2708  0.0587
  167SAPE  H12A18708   0.683   4.617   2.947  0.4377  0.2624 -0.0234
  167SAPE  H12B18709   0.615   4.552   2.802  1.0149  0.4953 -0.6576
  167SAPE   C1118710   0.806   4.468   2.859 -0.1419 -0.4526 -0.5727
  167SAPE  H11A18711   0.842   4.438   2.960 -0.2074  1.4266  0.0330
  167SAPE  H11B18712   0.873   4.548   2.822  0.8980 -0.2768  1.5317
  167SAPE     P18713   0.883   4.242   2.762 -0.2249  0.1314 -0.3753
  167SAPE   O1318714   0.796   4.142   2.700  0.4593  1.0067 -0.2850
  167SAPE   O1418715   1.022   4.260   2.711 -0.5037 -0.0733 -0.4864
  167SAPE   O1218716   0.802   4.369   2.752  0.5226 -0.0840  0.1655
  167SAPE   O1118717   0.890   4.219   2.917  0.3317  0.0686  0.1152
  167SAPE    C118718   0.932   4.089   2.964  0.2973  0.0129 -0.7525
  167SAPE    HA18719   0.892   4.009   2.898  1.4900 -0.3702 -1.0409
  167SAPE    HB18720   1.043   4.085   2.972  0.2944 -0.5591 -0.9527
  167SAPE    C218721   0.864   4.065   3.102 -0.0383  0.0862  0.5198
  167SAPE    HS18722   0.755   4.083   3.090  0.6193  3.0401 -2.7533
  167SAPE   O2118723   0.920   4.148   3.200  0.0631 -0.4039  0.3519
  167SAPE   C2118724   0.877   4.272   3.210  0.5957 -0.4504  0.1236
  167SAPE   O2218725   0.777   4.314   3.153 -0.4625  0.1942  0.1950
  167SAPE   C2218726   0.969   4.342   3.309  0.1311 -0.0717  0.6384
  167SAPE   H2R18727   0.934   4.317   3.411 -2.1998 -3.1167 -0.7513
  167SAPE   H2S18728   1.078   4.324   3.292  0.0972  0.7775 -0.6255
  167SAPE    C318729   0.875   3.911   3.147 -0.2607  0.1614 -0.0259
  167SAPE    HX18730   0.983   3.887   3.159 -0.7006 -1.8022  0.2701
  167SAPE    HY18731   0.839   3.848   3.063 -0.1878 -0.2060  0.2143
  167SAPE   O3118732   0.795   3.890   3.266 -0.2013  0.1937  0.4086
  167SAPE   C3118733   0.669   3.869   3.237  0.2915  1.1558  0.1628
  167SAPE   O3218734   0.619   3.860   3.124 -0.1441  0.4001 -0.1322
  167SAPE   C3218735   0.595   3.837   3.368  0.0458  0.1444 -0.5706
  167SAPE   H2X18736   0.491   3.874   3.360  0.0535  1.4035  3.0953
  167SAPE   H2Y18737   0.635   3.888   3.459 -1.5647 -1.3542  1.0829
  167SAPE   C2318738   0.948   4.492   3.274 -0.3441 -0.5303 -0.7684
  167SAPE   H3R18739   0.854   4.530   3.318 -0.1328 -1.3116  0.3953
  167SAPE   H3S18740   0.949   4.505   3.164 -3.1167 -2.7857 -1.1532
  167SAPE   C2418741   1.057   4.584   3.338 -0.1846  0.1207  0.3539
  167SAPE   H4R18742   1.043   4.574   3.448  0.1878 -0.9186  0.3202
  167SAPE   H4S18743   1.040   4.690   3.313 -0.0233 -0.3477 -1.9032
  167SAPE   C2518744   1.198   4.553   3.295  0.3248 -0.2949  0.4393
  167SAPE   H5R18745   1.238   4.577   3.196  0.0584  0.8526  0.5915
  167SAPE   C2618746   1.288   4.501   3.379 -0.2783  0.8345 -0.5150
  167SAPE   H6R18747   1.381   4.459   3.338 -1.4508 -3.1997  0.4597
  167SAPE   C2718748   1.259   4.468   3.525 -0.1015  0.1592 -0.1292
  167SAPE   H7R18749   1.171   4.400   3.526 -0.4648  0.6321  0.4827
  167SAPE   H7S18750   1.219   4.560   3.573 -1.4893  1.2855 -3.2356
  167SAPE   C2818751   1.373   4.406   3.605  0.2059 -0.3402  0.0936
  167SAPE   H8R18752   1.466   4.391   3.549  0.1959  1.1172 -0.3540
  167SAPE   C2918753   1.374   4.398   3.744 -0.3280  0.5125 -0.3506
  167SAPE   H9R18754   1.465   4.355   3.788 -2.1699 -1.4743  1.7573
  167SAPE  C21018755   1.270   4.430   3.844  0.3632 -0.6884 -0.2080
  167SAPE  H10R18756   1.232   4.535   3.841 -0.7812 -1.1020 -0.5399
  167SAPE  H10S18757   1.318   4.424   3.944 -0.9833  0.0570  0.5114
  167SAPE  C21118758   1.144   4.349   3.825 -0.6765 -0.1454 -0.0430
  167SAPE  H11R18759   1.107   4.330   3.723  0.5431 -3.0655 -0.0385
  167SAPE  C21218760   1.081   4.283   3.920  0.2564  0.5159  0.1173
  167SAPE  H12R18761   1.000   4.219   3.882 -0.0676  0.9776  0.0242
  167SAPE  C21318762   1.108   4.284   4.066 -0.1955 -0.2244  0.3447
  167SAPE  H13R18763   1.026   4.225   4.114 -0.0079 -0.3349  0.5302
  167SAPE  H13S18764   1.098   4.390   4.097  2.9754  0.7640 -1.5874
  167SAPE  C21418765   1.241   4.240   4.126  0.0355  1.0766  0.3030
  167SAPE  H14R18766   1.320   4.197   4.063 -2.0747 -2.3783 -0.2791
  167SAPE  C21518767   1.257   4.252   4.257  0.8145  0.2580 -0.2124
  167SAPE  H15R18768   1.351   4.202   4.285  1.1734 -2.2054 -4.8198
  167SAPE  C21618769   1.163   4.314   4.359 -0.9548 -0.3210  0.2653
  167SAPE  H16R18770   1.057   4.307   4.324 -0.7955 -0.9737 -0.1057
  167SAPE  H16S18771   1.185   4.420   4.385 -1.8844 -0.2482  0.8037
  167SAPE  C21718772   1.173   4.236   4.494  0.7922 -0.3833  0.1480
  167SAPE  H17R18773   1.273   4.240   4.543 -0.0863 -0.6721  2.0516
  167SAPE  H17S18774   1.171   4.126   4.477  1.5280 -0.2991 -0.5434
  167SAPE  C21818775   1.054   4.275   4.592  0.3457  0.0653 -0.8057
  167SAPE  H18R18776   1.078   4.229   4.691  3.2112  1.3841 -0.7873
  167SAPE  H18S18777   0.957   4.229   4.565  0.6286 -0.4076 -1.0255
  167SAPE  C21918778   1.048   4.426   4.614 -0.0340  0.1592 -0.6138
  167SAPE  H19R18779   1.019   4.474   4.518  1.5581 -2.8649 -2.7882
  167SAPE  H19S18780   1.150   4.461   4.644 -0.1981  0.5861 -0.5353
  167SAPE  C22018781   0.950   4.470   4.726  0.2567  0.2420  0.3345
  167SAPE  H20R18782   0.950   4.580   4.734 -2.4861  0.2721  0.9004
  167SAPE  H20S18783   0.972   4.418   4.822  0.6582  1.6524  1.0227
  167SAPE  H20T18784   0.855   4.431   4.685  0.8791 -0.1762 -0.7574
  167SAPE   C3318785   0.587   3.691   3.415  0.7142 -0.3638 -0.4407
  167SAPE   H3X18786   0.691   3.655   3.431  0.7181 -0.4257 -0.6009
  167SAPE   H3Y18787   0.555   3.627   3.329  1.5335 -0.1899 -0.8903
  167SAPE   C3418788   0.505   3.662   3.541 -0.0415 -0.2651 -0.4811
  167SAPE   H4X18789   0.508   3.551   3.546  1.2578 -0.2893 -1.3110
  167SAPE   H4Y18790   0.403   3.703   3.524 -0.0506 -0.7616 -1.7104
  167SAPE   C3518791   0.569   3.699   3.675  0.1872 -0.8931 -0.0277
  167SAPE   H5X18792   0.563   3.809   3.691 -2.4847 -1.0953  0.9274
  167SAPE   H5Y18793   0.675   3.669   3.676  0.0716 -1.3551 -0.7833
  167SAPE   C3618794   0.480   3.637   3.791  0.8746 -0.2069  0.1344
  167SAPE   H6X18795   0.471   3.527   3.776 -0.8064 -0.4461  2.4318
  167SAPE   H6Y18796   0.381   3.682   3.770  2.6466  2.2486 -4.3871
  167SAPE   C3718797   0.531   3.678   3.923 -0.0697  0.2869 -0.6344
  167SAPE   H7X18798   0.571   3.782   3.919 -1.7166  0.9103 -2.9699
  167SAPE   H7Y18799   0.618   3.615   3.952 -0.0451 -0.1050 -1.5117
  167SAPE   C3818800   0.423   3.661   4.034  0.1588 -0.4241  0.2934
  167SAPE   H8X18801   0.358   3.571   4.041 -1.8732  0.9915  0.5845
  167SAPE   H8Y18802   0.348   3.735   4.000  0.8634  0.4074  0.5135
  167SAPE   C3918803   0.471   3.705   4.173 -0.2388  0.3092 -0.9391
  167SAPE   H9X18804   0.499   3.812   4.184  0.8431 -0.1893  2.3123
  167SAPE   H9Y18805   0.554   3.639   4.207 -0.7139  0.9905  1.7995
  167SAPE  C31018806   0.366   3.681   4.283  0.6994  0.2435 -0.2329
  167SAPE  H10X18807   0.332   3.576   4.287 -1.5585  0.8364 -1.8932
  167SAPE  H10Y18808   0.274   3.735   4.254  0.8519  0.4305 -0.3730
  167SAPE  C31118809   0.394   3.753   4.411 -1.2103 -0.2792  0.3649
  167SAPE  H11X18810   0.426   3.855   4.380 -1.5305 -0.6854 -1.4415
  167SAPE  H11Y18811   0.485   3.704   4.451 -0.7832 -0.3580 -0.6674
  167SAPE  C31218812   0.274   3.743   4.512  0.0875  0.4890 -0.3938
  167SAPE  H12X18813   0.255   3.633   4.515  1.8043  0.1226 -1.5071
  167SAPE  H12Y18814   0.178   3.782   4.471  0.5077  1.1494 -0.7564
  167SAPE  C31318815   0.305   3.777   4.656  0.2470 -0.0175  0.0070
  167SAPE  H13X18816   0.318   3.887   4.666 -3.0368  0.7566 -2.6074
  167SAPE  H13Y18817   0.395   3.718   4.681  0.8959  1.2177  0.6476
  167SAPE  C31418818   0.191   3.751   4.755  0.0239  0.4055  0.3110
  167SAPE  H14X18819   0.159   3.645   4.744  2.1492 -0.6700  3.2829
  167SAPE  H14Y18820   0.098   3.806   4.729  0.6540  1.9199  1.1587
  167SAPE  C31518821   0.228   3.770   4.903  0.5237  0.2637 -0.5251
  167SAPE  H15X18822   0.323   3.713   4.914 -0.1611 -0.7746  0.1873
  167SAPE  H15Y18823   0.154   3.716   4.966 -0.5366  0.1976 -1.7883
  167SAPE  C31618824   0.223   3.921   4.936  0.2526  0.1071  0.1122
  167SAPE  H16X18825   0.126   3.971   4.917  0.4716  0.6682  0.4580
  167SAPE  H16Y18826   0.296   3.970   4.868 -0.6141  1.2387 -0.0279
  167SAPE  C31718827   0.269   3.945   5.073 -0.9156  0.4441  0.3526
  167SAPE  H17X18828   0.375   3.914   5.079 -1.0227 -0.5371 -1.9429
  167SAPE  H17Y18829   0.203   3.884   5.138 -2.2677  0.5030 -0.9222
  167SAPE  C31818830   0.245   4.087   5.127 -0.9388 -0.8207  0.7042
  167SAPE  H18X18831   0.321   4.157   5.086 -1.7530 -0.8625 -0.9902
  167SAPE  H18Y18832   0.255   4.083   5.237  0.6433 -0.8425  0.5692
  167SAPE  H18Z18833   0.140   4.121   5.109 -0.7206 -0.6049 -0.2652
  168SAPE     N18834   4.115   6.843   2.812  0.1116 -0.1348 -0.5459
  168SAPE   HN118835   4.136   6.944   2.821 -1.7742  0.2051  0.6829
  168SAPE   HN218836   4.209   6.798   2.813  0.7075  1.0827 -0.1564
  168SAPE   HN318837   4.073   6.816   2.721  0.7119 -1.0288 -0.5742
  168SAPE   C1218838   4.028   6.808   2.931 -0.6060 -0.0880 -0.5711
  168SAPE  H12A18839   3.932   6.856   2.902 -0.7183 -0.5396 -0.9502
  168SAPE  H12B18840   4.071   6.862   3.018  1.3395 -0.9952 -0.9139
  168SAPE   C1118841   4.013   6.656   2.946  0.7319 -0.2753  0.7066
  168SAPE  H11A18842   3.931   6.633   3.017 -1.2509  2.3017 -0.6009
  168SAPE  H11B18843   4.112   6.619   2.980  1.2549 -0.7059 -1.1332
  168SAPE     P18844   3.843   6.557   2.764  0.1716 -0.3836 -0.0898
  168SAPE   O1318845   3.748   6.672   2.770  0.2200  0.6482 -0.7612
  168SAPE   O1418846   3.858   6.487   2.628  0.5934  0.3869 -0.7733
  168SAPE   O1218847   3.984   6.604   2.816 -0.0042  0.2854 -0.6902
  168SAPE   O1118848   3.794   6.450   2.874 -0.6599 -0.0760 -0.7449
  168SAPE    C118849   3.888   6.357   2.916 -0.2519  0.0367  0.5138
  168SAPE    HA18850   3.938   6.309   2.829  1.3078 -3.0086  2.8750
  168SAPE    HB18851   3.965   6.394   2.988  0.5296 -1.0889  0.2795
  168SAPE    C218852   3.820   6.250   3.004 -0.0742  0.0403  1.0661
  168SAPE    HS18853   3.739   6.204   2.944 -0.0611  1.1869  0.1226
  168SAPE   O2118854   3.759   6.309   3.119  0.1709 -0.3702  0.6176
  168SAPE   C2118855   3.705   6.221   3.204  0.4216 -0.1474 -0.4222
  168SAPE   O2218856   3.701   6.101   3.193  0.0214 -0.2656  0.2031
  168SAPE   C2218857   3.666   6.297   3.329  0.9048 -0.2650  0.4808
  168SAPE   H2R18858   3.670   6.227   3.415 -0.2692  0.4929  1.1776
  168SAPE   H2S18859   3.725   6.390   3.344  0.3890 -0.0452  1.2097
  168SAPE    C318860   3.934   6.138   3.043  0.7595 -0.3430  0.3191
  168SAPE    HX18861   3.987   6.111   2.949  1.4897  0.6453  0.4296
  168SAPE    HY18862   3.883   6.044   3.071 -0.5532  1.1827  3.5066
  168SAPE   O3118863   4.029   6.184   3.138 -0.3664  0.0270  0.1238
  168SAPE   C3118864   4.090   6.083   3.204 -0.2492  0.5595  0.4517
  168SAPE   O3218865   4.067   5.966   3.189  0.4684  0.5668 -0.1661
  168SAPE   C3218866   4.199   6.149   3.284 -0.6433  0.6659 -0.3612
  168SAPE   H2X18867   4.175   6.254   3.309 -1.0331  0.2491  1.1284
  168SAPE   H2Y18868   4.289   6.149   3.218 -1.7400 -0.9200 -1.9356
  168SAPE   C2318869   3.527   6.361   3.301  0.0710  0.0251 -0.2863
  168SAPE   H3R18870   3.533   6.401   3.197  1.2470 -0.8227 -0.5629
  168SAPE   H3S18871   3.499   6.438   3.376  2.5361 -0.4808  1.2811
  168SAPE   C2418872   3.408   6.259   3.304 -0.1083  0.0541  0.3375
  168SAPE   H4R18873   3.432   6.170   3.241  0.4305 -1.9881  3.2281
  168SAPE   H4S18874   3.317   6.308   3.264 -1.3882 -2.9354 -0.7536
  168SAPE   C2518875   3.384   6.190   3.435 -0.5636  0.4809 -0.1234
  168SAPE   H5R18876   3.473   6.154   3.488  1.0415 -0.2099 -3.0973
  168SAPE   C2618877   3.264   6.167   3.483 -0.4286 -0.5517  0.0250
  168SAPE   H6R18878   3.250   6.115   3.579  0.5541 -0.9250 -0.0226
  168SAPE   C2718879   3.136   6.216   3.414 -0.2803 -0.3787 -0.3936
  168SAPE   H7R18880   3.149   6.316   3.368 -1.5957  1.3680  2.7472
  168SAPE   H7S18881   3.057   6.223   3.492  1.6855  0.8709  1.6145
  168SAPE   C2818882   3.083   6.121   3.306  0.7195  0.0555 -0.3474
  168SAPE   H8R18883   3.098   6.014   3.322  0.1281 -0.2194 -1.5401
  168SAPE   C2918884   3.024   6.154   3.190 -0.1370  0.7624  0.3335
  168SAPE   H9R18885   2.986   6.078   3.120 -0.6468  0.1368  1.2680
  168SAPE  C21018886   2.996   6.290   3.134  0.5049  0.2425 -0.1764
  168SAPE  H10R18887   3.077   6.315   3.062 -0.6407 -0.1521 -1.6323
  168SAPE  H10S18888   3.015   6.367   3.213  0.8925 -0.1204  0.0926
  168SAPE  C21118889   2.858   6.307   3.074 -0.6442 -0.5086 -0.3239
  168SAPE  H11R18890   2.859   6.312   2.965  2.2511 -0.5759 -0.3815
  168SAPE  C21218891   2.739   6.313   3.138  0.4445 -0.2967  0.0725
  168SAPE  H12R18892   2.651   6.338   3.077  1.6556 -0.8058 -2.0095
  168SAPE  C21318893   2.729   6.305   3.287 -0.2030  0.4436 -0.0764
  168SAPE  H13R18894   2.660   6.383   3.324 -0.2035 -0.7802  2.7786
  168SAPE  H13S18895   2.824   6.333   3.338 -1.8419  2.0199  2.3081
  168SAPE  C21418896   2.690   6.166   3.347 -0.4295  0.5843  0.2709
  168SAPE  H14R18897   2.705   6.077   3.284  1.9190  0.3404  1.0438
  168SAPE  C21518898   2.657   6.147   3.479 -0.2817  0.0498 -0.5694
  168SAPE  H15R18899   2.637   6.047   3.519  2.4756 -1.4898 -2.6838
  168SAPE  C21618900   2.662   6.262   3.579 -0.2475 -0.0336 -0.1209
  168SAPE  H16R18901   2.555   6.291   3.588 -0.1998  0.2706 -0.4989
  168SAPE  H16S18902   2.718   6.354   3.553 -1.1735  0.2730 -1.1301
  168SAPE  C21718903   2.725   6.218   3.712  0.6673 -0.0492 -0.4658
  168SAPE  H17R18904   2.662   6.134   3.748  1.1402 -1.6748 -3.1569
  168SAPE  H17S18905   2.726   6.296   3.791 -3.3080 -1.3930  1.2008
  168SAPE  C21818906   2.868   6.164   3.702  0.2873 -0.4760  0.1476
  168SAPE  H18R18907   2.904   6.214   3.610  1.3516 -0.5857  0.4958
  168SAPE  H18S18908   2.870   6.056   3.675 -0.3914 -0.0372 -1.8530
  168SAPE  C21918909   2.954   6.197   3.827 -0.4725  0.1100 -0.4443
  168SAPE  H19R18910   2.966   6.307   3.824  1.8412  0.1351  3.1533
  168SAPE  H19S18911   3.051   6.154   3.795 -1.4254 -1.9949 -0.6873
  168SAPE  C22018912   2.909   6.147   3.963 -0.0984 -0.1230 -0.3029
  168SAPE  H20R18913   2.995   6.136   4.032 -0.4431  1.1016  0.3533
  168SAPE  H20S18914   2.841   6.061   3.948 -0.5791  0.3720 -1.0656
  168SAPE  H20T18915   2.833   6.214   4.009 -1.5061 -3.2771  2.3566
  168SAPE   C3318916   4.235   6.079   3.411  0.2413  0.2626  0.0258
  168SAPE   H3X18917   4.321   6.133   3.456 -1.0542  0.8661  1.9404
  168SAPE   H3Y18918   4.262   5.973   3.390  2.6701  0.8125  0.1024
  168SAPE   C3418919   4.114   6.079   3.518 -0.4516 -0.1786  0.0536
  168SAPE   H4X18920   4.135   6.001   3.595 -0.5692 -0.3086 -0.0442
  168SAPE   H4Y18921   4.021   6.052   3.464 -1.0461 -0.8454  1.3524
  168SAPE   C3518922   4.092   6.212   3.585 -0.0368 -0.4753 -0.0055
  168SAPE   H5X18923   4.090   6.287   3.503  0.3600  0.8348  1.1515
  168SAPE   H5Y18924   4.166   6.242   3.662 -0.8836 -0.2109  0.7243
  168SAPE   C3618925   3.957   6.220   3.661 -0.1819 -0.2614  0.0803
  168SAPE   H6X18926   3.954   6.137   3.734  0.6124 -0.1102  0.2949
  168SAPE   H6Y18927   3.868   6.217   3.594 -0.4147  3.6702 -0.0578
  168SAPE   C3718928   3.941   6.346   3.734  0.2909 -0.7660 -0.2140
  168SAPE   H7X18929   3.843   6.363   3.784  0.9802 -0.8807  1.2268
  168SAPE   H7Y18930   3.958   6.429   3.661 -2.0961 -0.8574 -0.9579
  168SAPE   C3818931   4.029   6.356   3.866 -0.7340 -0.3537  0.0766
  168SAPE   H8X18932   4.075   6.456   3.879 -2.2169  0.2105  1.2474
  168SAPE   H8Y18933   4.113   6.285   3.848  0.1050  0.2310  1.5825
  168SAPE   C3918934   3.944   6.326   3.990  0.0993  0.4928  0.1188
  168SAPE   H9X18935   3.899   6.226   3.972  0.2625  0.2375  1.0860
  168SAPE   H9Y18936   3.864   6.403   3.987 -1.0636 -0.5483  2.5221
  168SAPE  C31018937   4.018   6.331   4.121  0.1572  0.0334  0.2092
  168SAPE  H10X18938   4.113   6.385   4.101  0.3199 -0.0893  0.6253
  168SAPE  H10Y18939   4.058   6.228   4.131  0.8453  0.2265 -0.4402
  168SAPE  C31118940   3.953   6.401   4.234  0.0628 -0.1562  0.1260
  168SAPE  H11X18941   3.944   6.509   4.208  0.8247 -0.5227 -1.8814
  168SAPE  H11Y18942   4.012   6.415   4.327  0.6003 -0.3248 -0.1822
  168SAPE  C31218943   3.818   6.339   4.273  0.0553 -0.3069  0.6601
  168SAPE  H12X18944   3.849   6.233   4.292  0.8253 -0.5657 -1.6435
  168SAPE  H12Y18945   3.758   6.339   4.180  0.5793  2.9869  0.2088
  168SAPE  C31318946   3.747   6.390   4.391 -0.7315 -0.5183 -0.3390
  168SAPE  H13X18947   3.712   6.486   4.349  0.3752 -0.3155 -0.8244
  168SAPE  H13Y18948   3.820   6.409   4.472  0.6881 -0.8408 -1.5062
  168SAPE  C31418949   3.627   6.299   4.442 -1.4006 -0.6468 -0.1540
  168SAPE  H14X18950   3.676   6.212   4.490 -3.3817 -1.6820  0.0899
  168SAPE  H14Y18951   3.572   6.257   4.355  1.2304 -3.1844 -0.7522
  168SAPE  C31518952   3.529   6.375   4.531 -0.4770  0.5048 -0.4378
  168SAPE  H15X18953   3.472   6.440   4.462  0.9715  1.5186 -0.7219
  168SAPE  H15Y18954   3.580   6.443   4.602  0.1321 -2.6606  2.4579
  168SAPE  C31618955   3.420   6.288   4.596  0.1085  0.2419  0.5142
  168SAPE  H16X18956   3.375   6.242   4.506  1.3503  0.6576 -0.3496
  168SAPE  H16Y18957   3.342   6.349   4.647 -0.3696  0.2732 -0.2364
  168SAPE  C31718958   3.473   6.181   4.688 -0.6251 -0.2869 -0.3089
  168SAPE  H17X18959   3.501   6.243   4.777 -0.1258 -1.2464  0.2176
  168SAPE  H17Y18960   3.563   6.138   4.640  0.5207  2.8572 -1.2057
  168SAPE  C31818961   3.366   6.073   4.718  0.1681 -0.1858 -0.6737
  168SAPE  H18X18962   3.373   5.992   4.643  0.9360 -0.2451 -0.5503
  168SAPE  H18Y18963   3.264   6.117   4.714 -0.5882 -1.8909 -0.7375
  168SAPE  H18Z18964   3.387   6.011   4.808  2.6736  2.8893  1.0747
  169SAPE     N18965   1.071   4.393   2.473  0.0048 -0.5042 -0.3455
  169SAPE   HN118966   1.115   4.310   2.427 -0.7078 -2.1129  1.7080
  169SAPE   HN218967   1.035   4.360   2.565  1.5086  3.0982  1.7566
  169SAPE   HN318968   0.999   4.436   2.412  0.3427  1.8697  0.7958
  169SAPE   C1218969   1.164   4.509   2.505  0.0009  0.1226 -0.3999
  169SAPE  H12A18970   1.104   4.583   2.561 -1.3605 -0.3270 -1.2071
  169SAPE  H12B18971   1.206   4.545   2.409  2.3001  1.1634  0.9164
  169SAPE   C1118972   1.282   4.457   2.579 -0.1959 -0.3778 -0.4775
  169SAPE  H11A18973   1.270   4.435   2.687 -1.6334  1.2341 -0.2670
  169SAPE  H11B18974   1.346   4.547   2.587  1.3881 -1.5213  0.2931
  169SAPE     P18975   1.476   4.283   2.568 -0.2087 -0.0756  0.3833
  169SAPE   O1318976   1.568   4.233   2.464  0.2409 -0.5553  0.0094
  169SAPE   O1418977   1.532   4.366   2.679 -0.7064  0.3520  0.1170
  169SAPE   O1218978   1.351   4.356   2.500 -0.3493 -0.3431 -0.3807
  169SAPE   O1118979   1.406   4.155   2.632 -0.0458  0.6438  0.2467
  169SAPE    C118980   1.494   4.079   2.711 -0.3826 -0.3322 -0.3179
  169SAPE    HA18981   1.456   3.975   2.705 -3.7685  0.7586  0.1387
  169SAPE    HB18982   1.604   4.082   2.692 -0.2424 -0.8889  0.3262
  169SAPE    C218983   1.477   4.108   2.858 -0.6390  0.1634 -0.4602
  169SAPE    HS18984   1.371   4.135   2.876 -0.7662 -0.9671  0.5346
  169SAPE   O2118985   1.565   4.218   2.893  0.2612 -0.2696  0.0766
  169SAPE   C2118986   1.525   4.302   2.991  0.8062 -0.3600  0.2271
  169SAPE   O2218987   1.411   4.302   3.036 -0.1565 -0.7900 -0.0811
  169SAPE   C2218988   1.641   4.401   3.034  0.4521 -0.1077 -0.2322
  169SAPE   H2R18989   1.730   4.379   2.972  1.5525  0.6385  1.0157
  169SAPE   H2S18990   1.603   4.501   3.003 -0.0099 -0.4969 -0.9405
  169SAPE    C318991   1.518   3.994   2.955 -0.0998 -0.0474 -0.3052
  169SAPE    HX18992   1.624   3.969   2.936 -0.1407 -1.2941  0.9761
  169SAPE    HY18993   1.466   3.897   2.940 -3.9170  1.2487  2.7796
  169SAPE   O3118994   1.497   4.031   3.094 -0.3493 -0.2081  0.2760
  169SAPE   C3118995   1.377   4.005   3.142 -0.1677  0.3469 -0.2679
  169SAPE   O3218996   1.292   3.939   3.090 -0.1047  0.5807  0.1604
  169SAPE   C3218997   1.361   4.069   3.279  0.3989 -0.4657  0.3313
  169SAPE   H2X18998   1.371   4.179   3.267  0.4237 -0.5408 -0.3364
  169SAPE   H2Y18999   1.443   4.037   3.347 -0.1908  1.0337  1.8515
  169SAPE   C2319000   1.660   4.398   3.188  0.2103  0.0839  0.3455
  169SAPE   H3R19001   1.561   4.421   3.234  0.1168 -1.0306  0.7169
  169SAPE   H3S19002   1.723   4.487   3.211  0.8829 -0.1773 -0.4274
  169SAPE   C2419003   1.722   4.272   3.243  0.6773 -0.1889  0.5990
  169SAPE   H4R19004   1.662   4.189   3.199  1.3675  0.4772 -1.7453
  169SAPE   H4S19005   1.703   4.266   3.352 -1.4233  1.1119  0.3434
  169SAPE   C2519006   1.871   4.249   3.219  0.0144  0.4759  0.2927
  169SAPE   H5R19007   1.890   4.211   3.118 -1.4875 -0.8334  0.4561
  169SAPE   C2619008   1.970   4.258   3.312  0.1660 -0.2372  0.0159
  169SAPE   H6R19009   2.077   4.257   3.287 -0.1799  0.5953 -1.5966
  169SAPE   C2719010   1.949   4.298   3.452  0.8652  0.1884 -0.4100
  169SAPE   H7R19011   1.915   4.204   3.500  0.3382  0.2444 -0.6588
  169SAPE   H7S19012   1.871   4.377   3.455  0.0409 -0.6305  0.3960
  169SAPE   C2819013   2.075   4.351   3.518  0.6065  0.1355 -0.4097
  169SAPE   H8R19014   2.163   4.368   3.455  1.1491  1.5990  0.6771
  169SAPE   C2919015   2.090   4.370   3.648 -0.3698  0.0661  0.1820
  169SAPE   H9R19016   2.191   4.395   3.683  0.8524 -2.1199 -1.5050
  169SAPE  C21019017   1.988   4.337   3.759  0.2313 -0.2601 -0.1603
  169SAPE  H10R19018   2.030   4.255   3.821  0.6489  0.3729  0.4051
  169SAPE  H10S19019   1.894   4.301   3.710 -0.8487  2.5451 -0.3248
  169SAPE  C21119020   1.945   4.445   3.857 -0.3379  0.2713 -0.5399
  169SAPE  H11R19021   2.021   4.524   3.847  0.2064 -0.3321 -1.3826
  169SAPE  C21219022   1.850   4.451   3.948  0.2643 -0.5423  0.3017
  169SAPE  H12R19023   1.839   4.539   4.013  1.0763 -0.0883 -0.1558
  169SAPE  C21319024   1.739   4.354   3.983 -0.0154 -0.0164 -0.1096
  169SAPE  H13R19025   1.701   4.305   3.890 -1.1112  3.2045 -1.4804
  169SAPE  H13S19026   1.661   4.419   4.028  0.1454 -1.3593  2.2478
  169SAPE  C21419027   1.798   4.250   4.073 -0.0633 -0.2739 -0.3408
  169SAPE  H14R19028   1.870   4.179   4.030 -0.7747 -1.3849  0.2724
  169SAPE  C21519029   1.750   4.228   4.199 -0.2992  0.3320  0.6641
  169SAPE  H15R19030   1.817   4.165   4.260  0.5840 -0.6767 -1.2616
  169SAPE  C21619031   1.648   4.297   4.281 -0.0418 -0.8097  0.0262
  169SAPE  H16R19032   1.558   4.234   4.293  0.2066 -0.9631  1.2616
  169SAPE  H16S19033   1.607   4.384   4.225  0.6373 -0.2969  0.2975
  169SAPE  C21719034   1.704   4.328   4.421  0.0631  0.3380  0.0631
  169SAPE  H17R19035   1.805   4.375   4.421  1.9441 -3.3427  1.0345
  169SAPE  H17S19036   1.720   4.231   4.473  1.2271  0.4952  0.0376
  169SAPE  C21819037   1.603   4.421   4.492 -0.1457  0.7716 -0.5449
  169SAPE  H18R19038   1.508   4.366   4.512  1.3263 -1.9835 -0.7657
  169SAPE  H18S19039   1.583   4.504   4.420 -2.9290  0.3871 -0.3249
  169SAPE  C21919040   1.665   4.487   4.618  0.1162  0.6646  0.1305
  169SAPE  H19R19041   1.610   4.583   4.629 -1.7833 -0.1625 -1.5750
  169SAPE  H19S19042   1.773   4.508   4.602 -0.0494  1.2835 -0.2038
  169SAPE  C22019043   1.658   4.412   4.748  0.0348  0.3630  0.1786
  169SAPE  H20R19044   1.731   4.329   4.748 -0.4726 -0.1178  1.6666
  169SAPE  H20S19045   1.558   4.371   4.773 -0.7820  2.7926  1.2088
  169SAPE  H20T19046   1.687   4.475   4.835  0.6547 -0.1420  0.3449
  169SAPE   C3319047   1.233   4.018   3.349 -0.2450 -0.4270  0.1325
  169SAPE   H3X19048   1.237   3.907   3.356  0.8350 -0.4586 -0.7933
  169SAPE   H3Y19049   1.147   4.043   3.283  1.9498  1.0231 -2.3998
  169SAPE   C3419050   1.217   4.087   3.486 -0.5504  0.1686  0.4546
  169SAPE   H4X19051   1.213   4.197   3.472 -2.8394 -0.1259 -1.9704
  169SAPE   H4Y19052   1.306   4.055   3.543  0.1666 -0.0492 -0.7499
  169SAPE   C3519053   1.090   4.052   3.561  0.2978 -0.1928  0.1627
  169SAPE   H5X19054   1.009   4.106   3.508  0.4522  1.3264  1.4067
  169SAPE   H5Y19055   1.091   4.095   3.664  1.1618  0.4072 -0.0890
  169SAPE   C3619056   1.055   3.900   3.564  0.2747  0.3579 -0.6748
  169SAPE   H6X19057   1.146   3.842   3.591 -2.5263 -2.0537  5.6708
  169SAPE   H6Y19058   1.013   3.890   3.462 -1.2809  3.4096 -0.4293
  169SAPE   C3719059   0.946   3.849   3.664 -0.2146  0.4570  0.4207
  169SAPE   H7X19060   0.917   3.745   3.638  0.1274  0.3186  0.5899
  169SAPE   H7Y19061   0.858   3.906   3.628  0.0170  0.2901 -0.4386
  169SAPE   C3819062   0.996   3.854   3.809 -0.3184  0.1184  0.4474
  169SAPE   H8X19063   1.018   3.961   3.829 -1.6068  0.5027 -0.0456
  169SAPE   H8Y19064   1.081   3.786   3.830 -0.8979 -0.5616  0.6292
  169SAPE   C3919065   0.884   3.799   3.897 -0.2242  0.0714 -0.0504
  169SAPE   H9X19066   0.859   3.696   3.863 -0.1171  1.0158 -3.2600
  169SAPE   H9Y19067   0.799   3.871   3.893  2.1639  3.0870 -0.7539
  169SAPE  C31019068   0.925   3.786   4.050 -0.1871 -0.8912  0.0206
  169SAPE  H10X19069   1.014   3.722   4.065 -0.0613 -0.9615 -0.9313
  169SAPE  H10Y19070   0.843   3.735   4.105 -1.7380  0.9552 -0.4535
  169SAPE  C31119071   0.962   3.921   4.108  0.0781 -0.5222  0.5143
  169SAPE  H11X19072   0.883   3.989   4.069  0.1227 -0.6605  0.1785
  169SAPE  H11Y19073   1.056   3.961   4.066 -1.6404  0.9790 -2.1887
  169SAPE  C31219074   0.954   3.934   4.260 -0.1875 -0.3014 -0.7002
  169SAPE  H12X19075   0.847   3.915   4.282 -0.6213  2.5480 -0.0336
  169SAPE  H12Y19076   0.975   4.038   4.291  1.8554 -0.7762 -0.3411
  169SAPE  C31319077   1.047   3.842   4.340 -0.9854 -0.4168  0.6646
  169SAPE  H13X19078   1.148   3.863   4.297 -1.5270  2.0132  0.4188
  169SAPE  H13Y19079   1.019   3.741   4.303 -2.2412  0.2020 -0.1560
  169SAPE  C31419080   1.039   3.858   4.490 -0.2465 -0.1875 -0.4277
  169SAPE  H14X19081   1.068   3.960   4.521 -0.2730 -1.2046  3.4189
  169SAPE  H14Y19082   1.120   3.793   4.530  1.8478  1.0465 -2.3984
  169SAPE  C31519083   0.912   3.818   4.562 -0.7896 -0.2159  0.8934
  169SAPE  H15X19084   0.916   3.707   4.557 -0.5101 -0.2726  2.0815
  169SAPE  H15Y19085   0.820   3.839   4.504  0.5692  0.5504 -1.0920
  169SAPE  C31619086   0.916   3.866   4.710  0.0352 -0.3492 -0.2294
  169SAPE  H16X19087   0.909   3.977   4.715  0.8556 -0.3434  2.4113
  169SAPE  H16Y19088   1.017   3.841   4.751 -0.5823 -1.3886  0.7365
  169SAPE  C31719089   0.812   3.805   4.805 -0.0138 -0.0999  0.0821
  169SAPE  H17X19090   0.850   3.835   4.906 -1.8677  1.2404  0.4387
  169SAPE  H17Y19091   0.814   3.695   4.792  1.7384 -0.2501  1.2843
  169SAPE  C31819092   0.666   3.844   4.789 -0.5079 -0.1005  0.3346
  169SAPE  H18X19093   0.655   3.947   4.830 -1.7419  0.6090 -1.6224
  169SAPE  H18Y19094   0.620   3.765   4.851  0.4008  1.4646  3.1955
  169SAPE  H18Z19095   0.626   3.854   4.686  2.5328  0.8053 -0.8677
  170SAPE     N19096   0.227   5.928   3.054 -0.0268 -0.1059 -0.1716
  170SAPE   HN119097   0.207   5.872   3.139 -0.2297  0.1856 -0.0230
  170SAPE   HN219098   0.327   5.957   3.058 -0.6241  2.3161 -0.9366
  170SAPE   HN319099   0.175   6.018   3.047  0.6539  0.2384 -0.9088
  170SAPE   C1219100   0.195   5.840   2.938  0.1413 -0.2063  0.2348
  170SAPE  H12A19101   0.291   5.790   2.914 -0.5043 -1.5949  0.4120
  170SAPE  H12B19102   0.152   5.891   2.850  0.9926 -1.5930 -1.0394
  170SAPE   C1119103   0.099   5.726   2.988  0.4356 -1.0552  0.7774
  170SAPE  H11A19104   0.083   5.651   2.907 -0.9189 -1.0031  0.9747
  170SAPE  H11B19105   0.002   5.776   3.011  1.5919  2.0243 -0.5410
  170SAPE     P19106   0.138   5.516   3.142 -0.3059  0.5178  0.0924
  170SAPE   O1319107   0.138   5.439   3.017  0.1554  0.2704  0.3829
  170SAPE   O1419108   0.231   5.478   3.252  0.3812  0.2983 -0.5729
  170SAPE   O1219109   0.152   5.664   3.106 -0.3987  0.1307 -0.3828
  170SAPE   O1119110  -0.009   5.525   3.194 -0.4135 -0.3234 -0.3258
  170SAPE    C119111  -0.067   5.622   3.284  0.2848  0.5134  0.2500
  170SAPE    HA19112  -0.042   5.724   3.248 -0.7174  0.7381  0.1840
  170SAPE    HB19113  -0.177   5.615   3.290  0.3788 -0.1978  1.7704
  170SAPE    C219114  -0.020   5.598   3.428  0.8297 -0.3216  0.3130
  170SAPE    HS19115   0.091   5.594   3.433  0.8088 -0.5807  0.6519
  170SAPE   O2119116  -0.070   5.475   3.471  0.1601 -0.1352  0.7932
  170SAPE   C2119117  -0.008   5.414   3.571  0.7054  0.3127  0.1244
  170SAPE   O2219118   0.097   5.442   3.618 -0.1001 -0.0358 -0.2105
  170SAPE   C2219119  -0.107   5.300   3.622 -0.5999  0.6981  0.2882
  170SAPE   H2R19120  -0.122   5.328   3.729  2.5054  1.1245  0.7167
  170SAPE   H2S19121  -0.202   5.304   3.564 -0.2064  3.1240 -0.3259
  170SAPE    C319122  -0.072   5.707   3.512 -0.1381  0.1347 -0.2780
  170SAPE    HX19123  -0.181   5.703   3.532 -0.0798 -1.9795 -0.2018
  170SAPE    HY19124  -0.046   5.805   3.466 -0.4251  0.2526 -0.1871
  170SAPE   O3119125  -0.022   5.704   3.648  0.0005  0.3202 -0.0301
  170SAPE   C3119126   0.107   5.725   3.667  0.6068 -0.7585 -0.1764
  170SAPE   O3219127   0.186   5.764   3.582  0.4292 -0.0115 -0.4378
  170SAPE   C3219128   0.130   5.713   3.820  0.6678  0.2405 -0.1506
  170SAPE   H2X19129   0.231   5.749   3.848  1.4608 -1.3632 -0.8583
  170SAPE   H2Y19130   0.135   5.604   3.837  1.2528  0.4549  1.2047
  170SAPE   C2319131  -0.043   5.156   3.621  0.2693 -0.4521  0.1748
  170SAPE   H3R19132  -0.012   5.141   3.516  0.1601 -0.1186  0.0926
  170SAPE   H3S19133  -0.116   5.074   3.637 -1.9301  0.3834 -4.1557
  170SAPE   C2419134   0.069   5.139   3.726 -0.0521  0.0103 -0.3796
  170SAPE   H4R19135   0.135   5.228   3.714 -0.0395  0.1324  0.5056
  170SAPE   H4S19136   0.136   5.053   3.703 -0.3029  0.0689 -1.3532
  170SAPE   C2519137   0.003   5.122   3.866 -0.9466  0.0056  0.2880
  170SAPE   H5R19138  -0.089   5.062   3.867 -2.1506  1.6968 -1.5998
  170SAPE   C2619139   0.032   5.183   3.982 -0.3195 -0.4619  0.9617
  170SAPE   H6R19140  -0.031   5.175   4.072  0.2801 -0.9949  1.3457
  170SAPE   C2719141   0.143   5.283   3.999  0.4108 -0.8644 -0.2691
  170SAPE   H7R19142   0.099   5.385   4.012  0.8576 -0.8570  1.3666
  170SAPE   H7S19143   0.207   5.305   3.910  0.7116 -0.4251  0.0497
  170SAPE   C2819144   0.232   5.253   4.113 -0.5150 -0.2414  0.4387
  170SAPE   H8R19145   0.324   5.205   4.079 -1.1583  0.3931 -2.4774
  170SAPE   C2919146   0.215   5.292   4.244 -0.1954  0.3242  0.8047
  170SAPE   H9R19147   0.300   5.278   4.313  2.8312  2.1874 -2.1856
  170SAPE  C21019148   0.113   5.373   4.308 -0.0803 -0.1557  0.1130
  170SAPE  H10R19149   0.087   5.330   4.407  2.6348  0.8929  1.3583
  170SAPE  H10S19150   0.030   5.377   4.234  0.4703 -2.1868 -0.7026
  170SAPE  C21119151   0.173   5.506   4.320  0.5718 -0.4263  0.2554
  170SAPE  H11R19152   0.199   5.556   4.225  0.5512 -1.2418 -0.1852
  170SAPE  C21219153   0.177   5.576   4.430  0.0856  0.0157  0.2211
  170SAPE  H12R19154   0.220   5.676   4.417 -1.6689  0.6699 -0.8728
  170SAPE  C21319155   0.131   5.544   4.571  0.3410 -0.6855  0.0858
  170SAPE  H13R19156   0.050   5.467   4.569 -1.4970  1.1132 -3.0939
  170SAPE  H13S19157   0.078   5.627   4.623 -1.7596 -2.6923  1.3482
  170SAPE  C21419158   0.252   5.510   4.652 -0.5466  0.4858 -0.2846
  170SAPE  H14R19159   0.270   5.401   4.651  2.3887  0.8261  1.8755
  170SAPE  C21519160   0.312   5.571   4.752  0.1040  0.1098  0.1082
  170SAPE  H15R19161   0.400   5.521   4.794 -1.3595 -0.3460  2.8800
  170SAPE  C21619162   0.279   5.714   4.796 -0.7998  0.3692  0.4630
  170SAPE  H16R19163   0.190   5.722   4.862  0.4556 -1.5455  2.5370
  170SAPE  H16S19164   0.277   5.778   4.705 -2.5791  0.7096  0.7034
  170SAPE  C21719165   0.398   5.768   4.890  0.2999 -0.1084 -0.1916
  170SAPE  H17R19166   0.489   5.775   4.827 -0.1371 -0.5668 -0.9009
  170SAPE  H17S19167   0.425   5.687   4.961 -0.3155 -0.9619 -0.9042
  170SAPE  C21819168   0.366   5.899   4.960 -0.3174  0.1926 -0.6404
  170SAPE  H18R19169   0.269   5.907   5.013 -1.0183 -2.1046 -1.4612
  170SAPE  H18S19170   0.346   5.969   4.876 -0.6917 -0.2711 -0.9477
  170SAPE  C21919171   0.487   5.948   5.043 -0.3256 -0.5264 -0.4651
  170SAPE  H19R19172   0.582   5.923   4.993 -0.7466 -1.1327 -0.9732
  170SAPE  H19S19173   0.477   5.889   5.137 -0.4414  0.9484  0.4888
  170SAPE  C22019174   0.472   6.099   5.064  0.1295 -0.9253 -0.4880
  170SAPE  H20R19175   0.479   6.155   4.969  1.8272  1.1333  0.7634
  170SAPE  H20S19176   0.553   6.135   5.132 -1.1987 -1.5181  1.5148
  170SAPE  H20T19177   0.379   6.119   5.122  2.2253  0.5998  2.6115
  170SAPE   C3319178   0.021   5.785   3.895  0.5030  0.4328  0.7140
  170SAPE   H3X19179  -0.071   5.726   3.874  0.9202  0.5642 -1.8450
  170SAPE   H3Y19180  -0.009   5.885   3.856  0.6303  0.3923  0.5094
  170SAPE   C3419181   0.057   5.797   4.047  0.5690 -0.9273 -0.4444
  170SAPE   H4X19182   0.095   5.697   4.080  1.0753 -0.0979  1.6568
  170SAPE   H4Y19183  -0.033   5.814   4.110  0.6258 -3.2120  0.3418
  170SAPE   C3519184   0.164   5.901   4.077 -0.6725 -0.4645 -0.1360
  170SAPE   H5X19185   0.137   5.995   4.024  0.5278 -0.7351 -1.2825
  170SAPE   H5Y19186   0.260   5.876   4.028  0.3036 -2.3335  2.5127
  170SAPE   C3619187   0.202   5.932   4.226  0.4329  0.1226  0.8833
  170SAPE   H6X19188   0.282   6.008   4.215  1.6298 -0.9233  2.0824
  170SAPE   H6Y19189   0.246   5.843   4.276  1.1079  1.1052  2.0901
  170SAPE   C3719190   0.094   5.976   4.324 -0.4507  0.0458 -0.2079
  170SAPE   H7X19191   0.023   5.892   4.344  1.1328 -1.1074  0.7976
  170SAPE   H7Y19192   0.036   6.062   4.285 -1.5778 -0.4514  0.3199
  170SAPE   C3819193   0.153   6.008   4.462  0.1868  0.2998 -0.8227
  170SAPE   H8X19194   0.220   6.096   4.461  0.3613  0.1824  0.1258
  170SAPE   H8Y19195   0.225   5.930   4.496  1.8735  2.2245  0.2559
  170SAPE   C3919196   0.043   6.024   4.570  0.4826 -0.0370  1.0751
  170SAPE   H9X19197  -0.006   5.925   4.573  0.8482 -0.1924  2.7743
  170SAPE   H9Y19198  -0.035   6.094   4.532  0.4735  0.1368  1.4107
  170SAPE  C31019199   0.084   6.068   4.704  0.2147  0.2157 -0.8482
  170SAPE  H10X19200   0.142   6.161   4.686  0.4267 -0.0743 -1.7347
  170SAPE  H10Y19201   0.153   5.992   4.746  1.3760  2.2894  1.2230
  170SAPE  C31119202  -0.026   6.097   4.805  0.1646  0.7027  0.0124
  170SAPE  H11X19203  -0.083   6.189   4.778 -2.8437 -0.9971  0.0879
  170SAPE  H11Y19204   0.007   6.092   4.911 -3.0564 -1.9190  1.0672
  170SAPE  C31219205  -0.120   5.981   4.810 -0.3064  0.3031 -0.1639
  170SAPE  H12X19206  -0.069   5.883   4.812  0.1936  0.5689  0.7101
  170SAPE  H12Y19207  -0.177   5.971   4.715 -2.2706 -2.0129  1.1304
  170SAPE  C31319208  -0.212   5.990   4.927 -0.5473 -0.5567 -0.4474
  170SAPE  H13X19209  -0.298   5.921   4.906 -0.9925 -0.7270  1.7014
  170SAPE  H13Y19210  -0.252   6.092   4.942  0.2745 -0.1744 -0.8052
  170SAPE  C31419211  -0.148   5.937   5.053  0.5632 -0.5101 -0.1502
  170SAPE  H14X19212  -0.086   6.014   5.103 -2.7653  1.8437  0.7314
  170SAPE  H14Y19213  -0.101   5.837   5.036  0.1724 -1.2147  2.5011
  170SAPE  C31519214  -0.267   5.923   5.162 -0.0020 -0.3120 -0.1739
  170SAPE  H15X19215  -0.231   5.864   5.249  1.0970 -2.0831 -1.7421
  170SAPE  H15Y19216  -0.352   5.871   5.112 -1.2320  0.3193  1.1949
  170SAPE  C31619217  -0.307   6.063   5.210 -0.0805 -0.2941  0.9413
  170SAPE  H16X19218  -0.370   6.099   5.127  2.0804 -0.8597 -1.0679
  170SAPE  H16Y19219  -0.228   6.135   5.239 -0.6203  1.9535 -2.6627
  170SAPE  C31719220  -0.379   6.050   5.338 -0.2839 -0.4253  0.3361
  170SAPE  H17X19221  -0.456   5.972   5.319  0.6245 -0.8614 -1.9505
  170SAPE  H17Y19222  -0.440   6.142   5.330  0.4094 -0.0344 -0.8169
  170SAPE  C31819223  -0.297   6.052   5.468  0.6119 -0.3479 -0.3093
  170SAPE  H18X19224  -0.365   6.059   5.556 -2.0593  0.0784 -2.3004
  170SAPE  H18Y19225  -0.227   6.138   5.460  1.4720 -1.0126 -0.0870
  170SAPE  H18Z19226  -0.234   5.961   5.464 -0.0428 -0.7667 -1.3794
  171SAPE     N19227   0.683   5.466   3.240 -0.1036  0.3408 -0.1456
  171SAPE   HN119228   0.750   5.428   3.311 -1.9060 -0.5887  1.1501
  171SAPE   HN219229   0.629   5.384   3.206  0.7858 -1.1654  1.8488
  171SAPE   HN319230   0.743   5.489   3.158 -0.6213 -0.7592 -0.8592
  171SAPE   C1219231   0.599   5.584   3.290 -0.0142  0.0294  0.3581
  171SAPE  H12A19232   0.668   5.648   3.350  0.3166 -1.1181  1.2335
  171SAPE  H12B19233   0.522   5.536   3.353  0.2336 -1.5539 -0.5054
  171SAPE   C1119234   0.541   5.669   3.178  0.0308  0.1437  0.9254
  171SAPE  H11A19235   0.472   5.748   3.213 -0.5472  0.5331 -1.0400
  171SAPE  H11B19236   0.480   5.599   3.118  0.3261 -0.5381  1.4005
  171SAPE     P19237   0.617   5.829   2.981  0.0394 -0.3994  0.2325
  171SAPE   O1319238   0.620   5.777   2.838 -0.6388 -0.5688 -0.6124
  171SAPE   O1419239   0.493   5.900   3.023 -0.5281  0.0687 -0.1571
  171SAPE   O1219240   0.644   5.718   3.085  0.5865 -0.0365 -0.0891
  171SAPE   O1119241   0.736   5.943   3.004  0.1559 -1.0416  0.5232
  171SAPE    C119242   0.864   5.892   3.038  0.3515  0.3151  0.1386
  171SAPE    HA19243   0.881   5.792   2.993 -0.0278  0.4800 -0.3858
  171SAPE    HB19244   0.939   5.962   2.994  0.6505 -0.5752 -0.8215
  171SAPE    C219245   0.886   5.894   3.190 -1.1141 -0.0403  0.1421
  171SAPE    HS19246   0.795   5.847   3.231 -0.6781 -0.0436  1.1469
  171SAPE   O2119247   0.910   6.030   3.225  0.1649  0.1631 -0.0162
  171SAPE   C2119248   0.856   6.070   3.336  0.2176  0.2814  0.1229
  171SAPE   O2219249   0.796   6.003   3.412  0.7637  0.1987 -0.0680
  171SAPE   C2219250   0.882   6.214   3.347  0.2042  0.8517  0.0324
  171SAPE   H2R19251   0.989   6.223   3.319  0.0674 -0.7560 -1.1357
  171SAPE   H2S19252   0.821   6.281   3.283  0.0316  1.0302  0.3809
  171SAPE    C319253   1.010   5.818   3.239 -0.0213  0.3021  0.5057
  171SAPE    HX19254   1.097   5.875   3.199 -1.5084  1.9923 -0.4945
  171SAPE    HY19255   1.004   5.717   3.195 -0.8191  0.2842  0.6481
  171SAPE   O3119256   1.010   5.816   3.382  0.1186 -0.4302  0.5720
  171SAPE   C3119257   0.969   5.710   3.449 -0.5045 -0.1870  0.1030
  171SAPE   O3219258   0.938   5.599   3.402  0.1284 -0.0511  0.0669
  171SAPE   C3219259   0.965   5.751   3.592  0.1757 -0.1722 -0.3153
  171SAPE   H2X19260   0.857   5.746   3.616 -0.2339  2.3330 -1.3540
  171SAPE   H2Y19261   0.991   5.859   3.603  2.1882 -0.8627  3.5357
  171SAPE   C2319262   0.847   6.277   3.491  0.1715  0.4471  0.3418
  171SAPE   H3R19263   0.746   6.242   3.520  0.1811 -3.1996 -3.1422
  171SAPE   H3S19264   0.848   6.386   3.467 -0.8807  0.2782 -0.5398
  171SAPE   C2419265   0.949   6.233   3.600  0.0599  0.3624 -0.1592
  171SAPE   H4R19266   1.051   6.260   3.565  0.2795  0.7814  0.7883
  171SAPE   H4S19267   0.946   6.122   3.608  0.5515  0.2856 -0.9715
  171SAPE   C2519268   0.928   6.298   3.730 -0.0118  0.3912 -0.3238
  171SAPE   H5R19269   0.840   6.363   3.735  0.4727  1.2438 -2.1876
  171SAPE   C2619270   1.002   6.273   3.843 -0.0861  0.1799 -0.4077
  171SAPE   H6R19271   0.980   6.331   3.934 -0.0788 -0.8714  0.2781
  171SAPE   C2719272   1.112   6.164   3.857  0.0671 -0.4176  0.1132
  171SAPE   H7R19273   1.212   6.214   3.864 -1.0592  1.9828  0.1102
  171SAPE   H7S19274   1.113   6.086   3.778  1.8610 -2.2122  1.7945
  171SAPE   C2819275   1.104   6.101   3.988 -0.5096  0.2629  0.2233
  171SAPE   H8R19276   1.060   6.000   3.992  1.6682 -0.8127 -1.0498
  171SAPE   C2919277   1.161   6.149   4.104 -0.2972 -0.2612  0.5613
  171SAPE   H9R19278   1.151   6.087   4.194  0.3992 -0.1986  0.6880
  171SAPE  C21019279   1.248   6.272   4.118  0.1931  0.5832  0.3288
  171SAPE  H10R19280   1.248   6.340   4.030  1.2677  0.4734  0.2280
  171SAPE  H10S19281   1.350   6.229   4.127 -0.1941 -0.4655 -0.1874
  171SAPE  C21119282   1.196   6.336   4.242 -1.2123 -0.9292 -0.7509
  171SAPE  H11R19283   1.199   6.270   4.330  0.9861 -2.4440 -1.8540
  171SAPE  C21219284   1.125   6.449   4.252 -0.4334 -0.4789  0.1574
  171SAPE  H12R19285   1.078   6.481   4.346  0.2392  4.4784 -0.9193
  171SAPE  C21319286   1.105   6.547   4.139 -0.1887  1.0531 -1.2917
  171SAPE  H13R19287   1.051   6.638   4.173  1.0671  2.0552 -1.8980
  171SAPE  H13S19288   1.043   6.502   4.058 -1.8470 -2.7569  1.7956
  171SAPE  C21419289   1.241   6.597   4.095  0.8189 -0.8098  0.1312
  171SAPE  H14R19290   1.313   6.627   4.174 -1.9049 -0.6283  2.7096
  171SAPE  C21519291   1.273   6.631   3.963  0.3362  0.2179  0.5082
  171SAPE  H15R19292   1.375   6.669   3.949  0.2178  0.8515  1.3132
  171SAPE  C21619293   1.197   6.619   3.827  0.4911 -0.8327  0.0788
  171SAPE  H16R19294   1.180   6.719   3.781  0.7335 -1.6327 -1.8211
  171SAPE  H16S19295   1.095   6.576   3.821  0.3487 -0.6065  0.7294
  171SAPE  C21719296   1.278   6.540   3.724  0.2923  0.4134  0.6193
  171SAPE  H17R19297   1.290   6.436   3.761  1.2169 -0.1360 -1.1178
  171SAPE  H17S19298   1.375   6.587   3.696 -1.3753  1.8522 -3.4245
  171SAPE  C21819299   1.211   6.536   3.592 -0.0644  0.1806 -0.1991
  171SAPE  H18R19300   1.191   6.641   3.560 -1.6460 -0.0147  0.0447
  171SAPE  H18S19301   1.108   6.495   3.593  0.0514 -0.1072  0.3418
  171SAPE  C21919302   1.285   6.445   3.498 -0.5329  0.3689  0.2449
  171SAPE  H19R19303   1.280   6.340   3.533 -2.3274 -0.1253 -1.3099
  171SAPE  H19S19304   1.389   6.480   3.484 -1.2014  2.9422  1.1806
  171SAPE  C22019305   1.217   6.433   3.362  0.3479 -0.3393 -0.3968
  171SAPE  H20R19306   1.271   6.357   3.302  0.6747 -1.5684  1.3617
  171SAPE  H20S19307   1.218   6.533   3.313 -1.3223 -0.5611 -0.9585
  171SAPE  H20T19308   1.114   6.392   3.373  0.7420 -1.4908 -0.8853
  171SAPE   C3319309   1.032   5.658   3.695  0.1347  0.6894  0.4070
  171SAPE   H3X19310   1.134   5.631   3.660  0.4922  0.9756  1.1915
  171SAPE   H3Y19311   0.971   5.566   3.709  1.3908 -0.1686  0.4174
  171SAPE   C3419312   1.055   5.710   3.832  0.2313 -0.5011 -0.8498
  171SAPE   H4X19313   0.954   5.730   3.876 -0.4033 -2.3988 -1.3511
  171SAPE   H4Y19314   1.111   5.804   3.814  0.6185 -0.9621 -2.1127
  171SAPE   C3519315   1.125   5.616   3.940  0.0177  0.5556 -0.3797
  171SAPE   H5X19316   1.204   5.562   3.884  0.4490 -0.2275  0.9261
  171SAPE   H5Y19317   1.046   5.547   3.975  0.2017  1.9081  3.1094
  171SAPE   C3619318   1.175   5.694   4.056  0.2206 -0.0208  0.0923
  171SAPE   H6X19319   1.089   5.727   4.118  1.1253  1.2079  0.7556
  171SAPE   H6Y19320   1.234   5.784   4.028 -0.2898  1.5804  3.6853
  171SAPE   C3719321   1.235   5.603   4.161  0.6661  0.0001  0.2021
  171SAPE   H7X19322   1.315   5.543   4.112 -0.6461 -2.0213  0.3902
  171SAPE   H7Y19323   1.168   5.518   4.187  2.1670 -1.2253  0.2140
  171SAPE   C3819324   1.286   5.670   4.287  0.4499  0.0663 -0.6827
  171SAPE   H8X19325   1.367   5.742   4.261  0.5866 -0.2654 -1.1787
  171SAPE   H8Y19326   1.334   5.593   4.351  0.3051 -0.2437 -0.9436
  171SAPE   C3919327   1.183   5.740   4.378  0.3078 -0.1504 -0.3174
  171SAPE   H9X19328   1.104   5.673   4.417  0.4333  0.3460  0.8528
  171SAPE   H9Y19329   1.130   5.810   4.311  0.1983  0.4100  0.3410
  171SAPE  C31019330   1.228   5.817   4.502  0.5024 -0.2088 -0.1099
  171SAPE  H10X19331   1.136   5.838   4.562 -0.3267 -0.1784 -1.3657
  171SAPE  H10Y19332   1.265   5.918   4.473 -0.4071  0.1236 -0.1567
  171SAPE  C31119333   1.317   5.731   4.598  0.6632 -0.0863  0.3033
  171SAPE  H11X19334   1.417   5.716   4.552  0.0642  1.0409 -1.4930
  171SAPE  H11Y19335   1.267   5.632   4.604  0.7247 -0.2733 -1.5734
  171SAPE  C31219336   1.345   5.798   4.737  0.0523 -0.2786  0.5134
  171SAPE  H12X19337   1.244   5.813   4.781  0.4505 -0.9856  1.7064
  171SAPE  H12Y19338   1.383   5.901   4.717 -0.3311  0.2085  2.2000
  171SAPE  C31319339   1.429   5.711   4.834  0.5462  0.3357  0.1854
  171SAPE  H13X19340   1.524   5.674   4.791  0.4805  1.6609 -1.1792
  171SAPE  H13Y19341   1.370   5.618   4.850 -0.2056  0.6519 -0.6204
  171SAPE  C31419342   1.449   5.777   4.965 -0.7385  0.1254 -0.5630
  171SAPE  H14X19343   1.355   5.782   5.025 -0.5909 -1.7073 -0.1348
  171SAPE  H14Y19344   1.470   5.885   4.948 -0.2181 -0.3556 -3.3420
  171SAPE  C31519345   1.568   5.729   5.057 -0.4169 -0.0399  0.1632
  171SAPE  H15X19346   1.671   5.754   5.022 -0.2994 -0.5358  0.1495
  171SAPE  H15Y19347   1.553   5.619   5.056  0.6531 -0.2027  0.4865
  171SAPE  C31619348   1.564   5.787   5.197  0.6204 -0.2688 -0.5567
  171SAPE  H16X19349   1.650   5.738   5.248 -1.3334 -0.6685  2.6575
  171SAPE  H16Y19350   1.477   5.745   5.253  0.0183  0.6595 -0.7809
  171SAPE  C31719351   1.582   5.932   5.207 -0.2564 -0.9330 -0.0020
  171SAPE  H17X19352   1.490   5.985   5.176 -1.4569 -2.7617  0.2672
  171SAPE  H17Y19353   1.664   5.951   5.134  0.8013 -1.3981  1.0253
  171SAPE  C31819354   1.610   5.989   5.341  0.3217  0.2262 -0.9441
  171SAPE  H18X19355   1.684   5.929   5.398  0.4547 -1.0466 -2.3857
  171SAPE  H18Y19356   1.522   5.990   5.409 -0.5852 -0.0617 -2.0929
  171SAPE  H18Z19357   1.654   6.090   5.326 -0.3580  0.2912 -2.7362
  172SAPE     N19358   2.304   5.344   2.698 -0.2634  0.1236 -0.2380
  172SAPE   HN119359   2.248   5.432   2.699  0.4837  0.6144 -0.4062
  172SAPE   HN219360   2.399   5.346   2.655  0.4905 -0.2290  1.3422
  172SAPE   HN319361   2.265   5.271   2.636  0.6028  0.3153 -1.0401
  172SAPE   C1219362   2.329   5.294   2.840 -0.0614 -0.6723 -0.1056
  172SAPE  H12A19363   2.231   5.272   2.888 -0.5135 -0.6037 -0.9651
  172SAPE  H12B19364   2.379   5.378   2.892 -3.1496  0.6346  0.9797
  172SAPE   C1119365   2.422   5.165   2.823 -0.3276 -0.4594 -0.5153
  172SAPE  H11A19366   2.365   5.080   2.779 -0.8041 -0.1230 -0.5558
  172SAPE  H11B19367   2.449   5.139   2.928  2.1593 -0.2257 -1.0387
  172SAPE     P19368   2.679   5.136   2.786 -0.1125 -0.4202 -0.1307
  172SAPE   O1319369   2.673   4.992   2.801 -0.7904  0.0768 -0.3090
  172SAPE   O1419370   2.777   5.185   2.685 -0.3121 -0.2945  0.4503
  172SAPE   O1219371   2.536   5.185   2.742  0.4172 -0.2623  0.1425
  172SAPE   O1119372   2.717   5.201   2.927  0.6613 -0.3524 -0.0751
  172SAPE    C119373   2.707   5.348   2.936  0.4148  0.6860  0.8283
  172SAPE    HA19374   2.748   5.402   2.848  0.7533  1.5097  1.4729
  172SAPE    HB19375   2.606   5.381   2.969  0.5344  0.8737  1.0037
  172SAPE    C219376   2.800   5.401   3.058  0.1910 -0.2168  0.5022
  172SAPE    HS19377   2.739   5.368   3.145 -0.1121 -3.0731 -0.6855
  172SAPE   O2119378   2.819   5.539   3.055  0.2233 -0.0942  0.7596
  172SAPE   C2119379   2.719   5.610   3.087  0.1109 -0.1743 -0.2552
  172SAPE   O2219380   2.609   5.567   3.129 -0.1572 -0.4345 -0.3586
  172SAPE   C2219381   2.763   5.757   3.092 -0.6241 -1.0623 -0.3511
  172SAPE   H2R19382   2.757   5.794   2.987 -1.1381  1.1047  0.3873
  172SAPE   H2S19383   2.697   5.819   3.156  3.3186  0.5334  2.5794
  172SAPE    C319384   2.944   5.342   3.041  0.3394  0.5134 -0.7080
  172SAPE    HX19385   2.993   5.368   2.945  3.2594  1.0241  0.8045
  172SAPE    HY19386   2.925   5.233   3.042  0.3590  0.4874  1.3926
  172SAPE   O3119387   3.024   5.373   3.157  0.0132  0.7682  0.2000
  172SAPE   C3119388   3.136   5.439   3.135  0.6274 -0.2020  0.1102
  172SAPE   O3219389   3.163   5.495   3.029  0.1796  0.4124  0.0074
  172SAPE   C3219390   3.223   5.468   3.260  0.2928  0.2110 -0.3649
  172SAPE   H2X19391   3.311   5.400   3.266  0.6852  0.8143  1.7801
  172SAPE   H2Y19392   3.159   5.453   3.350 -0.0288  0.1642 -0.6000
  172SAPE   C2319393   2.907   5.774   3.155  0.4082  0.6091 -0.6017
  172SAPE   H3R19394   2.948   5.875   3.137  1.4312  0.1537 -0.8880
  172SAPE   H3S19395   2.977   5.694   3.122 -0.5021 -1.9665  2.9868
  172SAPE   C2419396   2.911   5.763   3.310  0.2593 -0.9137 -0.4192
  172SAPE   H4R19397   2.840   5.842   3.345  0.8031 -0.4787 -0.2896
  172SAPE   H4S19398   3.012   5.795   3.343  0.4176 -2.1954  0.3770
  172SAPE   C2519399   2.893   5.630   3.372  0.5199  0.4108  0.1385
  172SAPE   H5R19400   2.958   5.551   3.332  0.9534 -0.1269  1.8338
  172SAPE   C2619401   2.814   5.595   3.475  0.1906  0.5849 -0.8284
  172SAPE   H6R19402   2.839   5.498   3.521 -0.0763  0.5195 -0.8189
  172SAPE   C2719403   2.719   5.676   3.560 -0.9157  0.0605 -0.6117
  172SAPE   H7R19404   2.626   5.620   3.586 -0.7136  0.0545  0.1173
  172SAPE   H7S19405   2.678   5.764   3.506 -2.4295 -0.5394 -0.5056
  172SAPE   C2819406   2.781   5.721   3.691  0.3124 -0.6615 -0.6558
  172SAPE   H8R19407   2.837   5.814   3.676  0.4761 -0.8258 -1.1038
  172SAPE   C2919408   2.769   5.669   3.812  0.0586  0.0974 -0.1343
  172SAPE   H9R19409   2.830   5.718   3.890 -0.8820 -0.1225  0.7660
  172SAPE  C21019410   2.676   5.555   3.847  0.6788  0.0865  0.0229
  172SAPE  H10R19411   2.724   5.482   3.915 -2.0665  0.9155  3.0943
  172SAPE  H10S19412   2.632   5.499   3.762  1.4128 -0.5746  0.0600
  172SAPE  C21119413   2.555   5.594   3.924  0.2564  0.3432  0.0435
  172SAPE  H11R19414   2.464   5.568   3.869 -0.4130 -1.7992  2.0289
  172SAPE  C21219415   2.548   5.654   4.044 -0.6496  0.6970  0.1439
  172SAPE  H12R19416   2.448   5.670   4.087 -1.1639  1.8952 -1.4104
  172SAPE  C21319417   2.668   5.701   4.126  0.1858  0.1888 -0.4995
  172SAPE  H13R19418   2.758   5.638   4.110 -0.3085 -0.1505 -2.1656
  172SAPE  H13S19419   2.633   5.687   4.231  1.3010 -2.2875 -0.3933
  172SAPE  C21419420   2.692   5.848   4.104  0.4029 -0.4623  0.5813
  172SAPE  H14R19421   2.718   5.877   4.001 -0.1790 -2.2618 -0.1170
  172SAPE  C21519422   2.691   5.939   4.201 -0.2395 -0.6117  0.1388
  172SAPE  H15R19423   2.719   6.043   4.175 -0.9327 -0.8071 -1.5181
  172SAPE  C21619424   2.667   5.931   4.353 -0.5525 -0.3108 -0.1816
  172SAPE  H16R19425   2.756   5.975   4.402  0.6727 -1.0858 -1.6197
  172SAPE  H16S19426   2.668   5.823   4.378 -1.4694 -0.9976 -2.8422
  172SAPE  C21719427   2.529   5.989   4.382  0.3696  0.2649 -0.0300
  172SAPE  H17R19428   2.516   6.096   4.357 -0.3484 -0.1920 -1.7826
  172SAPE  H17S19429   2.509   5.989   4.491  1.1005  1.3983  0.1192
  172SAPE  C21819430   2.407   5.913   4.308  0.0370 -0.7188 -0.1579
  172SAPE  H18R19431   2.425   5.911   4.199 -0.6962  0.6364 -0.3210
  172SAPE  H18S19432   2.319   5.981   4.313 -0.3994 -1.3402  1.1276
  172SAPE  C21919433   2.362   5.773   4.354  0.5764  0.0391  0.2600
  172SAPE  H19R19434   2.439   5.703   4.314  0.6044 -0.3115  0.9175
  172SAPE  H19S19435   2.264   5.764   4.302  0.6459  3.2213 -0.5897
  172SAPE  C22019436   2.349   5.757   4.510  0.1134 -0.1440 -0.1774
  172SAPE  H20R19437   2.284   5.838   4.550 -0.5589 -0.0543 -1.4030
  172SAPE  H20S19438   2.445   5.781   4.560 -0.1136  0.0218  0.1806
  172SAPE  H20T19439   2.310   5.657   4.539  1.1050 -0.4249  0.2278
  172SAPE   C3319440   3.272   5.616   3.259  0.4846 -0.8638  0.2009
  172SAPE   H3X19441   3.182   5.682   3.259 -0.3884 -1.9480 -2.3185
  172SAPE   H3Y19442   3.328   5.631   3.165  2.6217  0.0682  1.5592
  172SAPE   C3419443   3.381   5.664   3.361 -0.1058 -0.6215  0.1789
  172SAPE   H4X19444   3.463   5.589   3.358  0.0889 -0.3895 -0.5389
  172SAPE   H4Y19445   3.331   5.676   3.460 -1.8628 -1.0837 -0.6073
  172SAPE   C3519446   3.447   5.802   3.331 -0.0093 -0.1523  0.3230
  172SAPE   H5X19447   3.372   5.884   3.327  0.6115  0.3835 -0.7244
  172SAPE   H5Y19448   3.490   5.808   3.228 -0.4277  0.6882  0.1861
  172SAPE   C3619449   3.558   5.849   3.427 -0.5738  0.2382  0.0700
  172SAPE   H6X19450   3.513   5.868   3.526 -2.1187 -3.2142  0.1795
  172SAPE   H6Y19451   3.595   5.950   3.398 -0.5858 -0.1848 -1.5460
  172SAPE   C3719452   3.684   5.757   3.431  0.4341  0.3438  0.0174
  172SAPE   H7X19453   3.715   5.766   3.325 -1.3982  3.4549 -0.3847
  172SAPE   H7Y19454   3.655   5.652   3.455 -0.7554  0.9428  1.3655
  172SAPE   C3819455   3.804   5.806   3.515  0.2535  0.0200  0.0280
  172SAPE   H8X19456   3.813   5.913   3.486 -1.8413  0.5934  1.2834
  172SAPE   H8Y19457   3.900   5.761   3.482 -0.0629  0.4451 -1.5597
  172SAPE   C3919458   3.778   5.788   3.662 -0.1040  0.5856  0.5084
  172SAPE   H9X19459   3.756   5.679   3.669 -1.2114  0.7770  0.1571
  172SAPE   H9Y19460   3.686   5.842   3.694 -0.8182  1.1631 -2.2979
  172SAPE  C31019461   3.899   5.825   3.743  0.6350  0.3147  0.2214
  172SAPE  H10X19462   3.960   5.906   3.698 -2.1490  1.0907 -2.4955
  172SAPE  H10Y19463   3.966   5.737   3.749 -1.6893 -1.5983 -0.3506
  172SAPE  C31119464   3.855   5.865   3.884 -0.0875  0.2305 -0.1070
  172SAPE  H11X19465   3.808   5.777   3.932  0.9622  0.8011  2.1009
  172SAPE  H11Y19466   3.786   5.952   3.875  1.3548  1.4220 -0.0600
  172SAPE  C31219467   3.975   5.896   3.970 -0.7934 -0.3062 -0.2781
  172SAPE  H12X19468   4.020   5.987   3.923 -2.2367 -0.7054 -2.5674
  172SAPE  H12Y19469   4.051   5.815   3.965 -0.7051 -0.2214 -0.3320
  172SAPE  C31319470   3.922   5.920   4.116 -0.8365 -0.1593 -0.3286
  172SAPE  H13X19471   3.829   5.979   4.103 -1.4110 -0.6453  1.2310
  172SAPE  H13Y19472   3.990   5.985   4.175 -1.0940 -2.0928  2.3109
  172SAPE  C31419473   3.916   5.785   4.186  0.0798  1.2438  0.0707
  172SAPE  H14X19474   4.011   5.726   4.181 -1.7832 -2.0148 -0.0489
  172SAPE  H14Y19475   3.844   5.714   4.139 -1.6122  3.1570 -0.3385
  172SAPE  C31519476   3.887   5.786   4.335 -0.3798  0.1603 -0.2046
  172SAPE  H15X19477   3.969   5.830   4.395 -0.4901 -0.9988  0.8377
  172SAPE  H15Y19478   3.875   5.677   4.355 -1.7885  0.4454  0.6641
  172SAPE  C31619479   3.753   5.851   4.376 -0.4020  0.3142 -0.1587
  172SAPE  H16X19480   3.751   5.958   4.347  0.8366  0.5940  0.6646
  172SAPE  H16Y19481   3.747   5.846   4.487  1.9762 -0.4581  0.0090
  172SAPE  C31719482   3.633   5.799   4.310  0.2019  0.2575  0.5042
  172SAPE  H17X19483   3.633   5.688   4.314 -1.3490 -0.1635 -4.4531
  172SAPE  H17Y19484   3.631   5.817   4.201 -6.2047 -2.5024 -0.2496
  172SAPE  C31819485   3.512   5.857   4.370  1.0304 -0.3489  0.1699
  172SAPE  H18X19486   3.491   5.960   4.335  1.6442 -0.6919 -1.2608
  172SAPE  H18Y19487   3.533   5.858   4.480  0.9724  0.5155  0.1791
  172SAPE  H18Z19488   3.418   5.802   4.348 -1.5887  3.0903  1.7999
  173SLPC     N19489   0.027   6.704   7.536 -0.0830 -0.4333  0.1541
  173SLPC   C1319490   0.065   6.854   7.533 -0.0060  1.0241 -0.3856
  173SLPC  H13A19491   0.064   6.894   7.633  4.4660  0.5668  0.0493
  173SLPC  H13B19492   0.162   6.865   7.487  0.4908 -0.0057  0.3726
  173SLPC  H13C19493  -0.010   6.915   7.484 -1.1647  0.4541  0.6104
  173SLPC   C1419494  -0.005   6.682   7.393  0.3561 -0.0835 -0.0355
  173SLPC  H14A19495  -0.104   6.713   7.361  0.8717 -0.4399 -2.1236
  173SLPC  H14B19496   0.069   6.734   7.335 -0.9023 -0.8094 -2.4547
  173SLPC  H14C19497  -0.005   6.580   7.359  0.2097  0.1537 -0.7580
  173SLPC   C1519498  -0.104   6.678   7.612 -0.2137  0.4142 -0.1630
  173SLPC  H15A19499  -0.135   6.576   7.627 -0.4401  0.6264  0.9665
  173SLPC  H15B19500  -0.093   6.719   7.712 -1.2006  0.5918 -0.1160
  173SLPC  H15C19501  -0.185   6.733   7.566 -0.9218  0.4529  1.0590
  173SLPC   C1219502   0.149   6.621   7.581 -0.1250 -0.0515  0.5603
  173SLPC  H12A19503   0.190   6.657   7.675  2.1150  2.2969 -1.1418
  173SLPC  H12B19504   0.231   6.644   7.515  1.0589 -4.5838  0.1143
  173SLPC   C1119505   0.134   6.469   7.570 -0.0007  0.3235 -0.2455
  173SLPC  H11A19506   0.036   6.441   7.616  0.1581  1.7757  1.0495
  173SLPC  H11B19507   0.213   6.422   7.632 -0.0854  1.5780  0.8593
  173SLPC     P19508   0.233   6.348   7.362 -0.5097 -0.3259 -0.3165
  173SLPC   O1319509   0.366   6.406   7.398 -0.1992  0.1519 -0.2857
  173SLPC   O1419510   0.217   6.206   7.388  0.3334  0.4812  0.1377
  173SLPC   O1219511   0.124   6.427   7.438  0.1215 -0.7097 -0.4197
  173SLPC   O1119512   0.196   6.380   7.210  0.1975  0.2265 -0.1052
  173SLPC    C119513   0.274   6.456   7.124 -0.2136  0.3133  0.3178
  173SLPC    HA19514   0.213   6.545   7.100 -1.5421 -0.5112  0.5133
  173SLPC    HB19515   0.365   6.501   7.170 -1.1671  1.0038  1.5700
  173SLPC    C219516   0.314   6.375   6.993 -0.6016  0.4477 -0.4941
  173SLPC    HS19517   0.220   6.351   6.939  0.0940  1.9299 -2.4818
  173SLPC   O2119518   0.390   6.270   7.048  0.1091 -0.0535 -0.1175
  173SLPC   C2119519   0.407   6.176   6.964  0.5107  0.1667  0.6012
  173SLPC   O2219520   0.333   6.156   6.868  0.1493  0.0768  0.0265
  173SLPC   C2219521   0.528   6.092   7.006  0.5931  0.1432 -0.0714
  173SLPC   H2R19522   0.599   6.157   7.062  2.3543 -0.1458 -1.8519
  173SLPC   H2S19523   0.487   6.010   7.068 -0.2733 -1.7545 -2.9533
  173SLPC    C319524   0.393   6.464   6.893 -0.0011 -0.5305 -0.7330
  173SLPC    HX19525   0.431   6.404   6.807  1.7602 -0.3551 -0.1303
  173SLPC    HY19526   0.481   6.504   6.949 -1.7912  0.7707  1.3313
  173SLPC   O3119527   0.301   6.566   6.843 -0.0068 -0.1976  0.1271
  173SLPC   C3119528   0.309   6.695   6.868  0.2121 -0.0156  0.3319
  173SLPC   O3219529   0.390   6.747   6.939  0.8147 -0.5635  0.0369
  173SLPC   C3219530   0.202   6.773   6.780 -0.1015  1.2307  0.0637
  173SLPC   H2X19531   0.127   6.804   6.856 -0.0441  0.3021  0.5194
  173SLPC   H2Y19532   0.153   6.702   6.709 -0.1723  4.2176 -3.1297
  173SLPC   C2319533   0.593   6.013   6.889 -0.2069 -0.1991 -0.0900
  173SLPC   H3R19534   0.518   5.947   6.841 -1.4336  0.9108  0.2671
  173SLPC   H3S19535   0.675   5.952   6.932  0.4188 -0.1771 -1.1959
  173SLPC   C2419536   0.648   6.106   6.778  0.1134  0.4397  0.4191
  173SLPC   H4R19537   0.698   6.197   6.818 -2.5559  1.9020  0.6577
  173SLPC   H4S19538   0.564   6.160   6.730  1.4661  3.2126  0.9849
  173SLPC   C2519539   0.722   6.029   6.670 -0.1898  0.0373 -0.1227
  173SLPC   H5R19540   0.651   5.956   6.625  0.6033 -0.4910 -0.5392
  173SLPC   H5S19541   0.809   5.981   6.719 -0.1584  2.1967  2.1520
  173SLPC   C2619542   0.769   6.116   6.551 -0.6470 -0.0564 -0.8270
  173SLPC   H6R19543   0.834   6.198   6.588 -0.5703  0.9437 -3.0460
  173SLPC   H6S19544   0.677   6.168   6.516 -1.1083 -0.9214 -0.9592
  173SLPC   C2719545   0.846   6.042   6.441  0.0005 -0.1106 -0.6705
  173SLPC   H7R19546   0.780   5.978   6.379  2.7075 -3.1641 -0.6244
  173SLPC   H7S19547   0.928   5.986   6.489  0.4329  1.3948  0.4391
  173SLPC   C2819548   0.918   6.153   6.353  0.2238 -0.0903  0.3802
  173SLPC   H8R19549   0.971   6.227   6.417  0.7017 -0.0371 -0.0660
  173SLPC   H8S19550   0.840   6.213   6.301  0.4412  1.0077  1.2880
  173SLPC   C2919551   1.025   6.099   6.266 -0.4799 -0.1453 -0.2292
  173SLPC   H9R19552   1.124   6.085   6.311 -0.9622 -2.0645  0.3417
  173SLPC  C21019553   1.025   6.072   6.136  0.0522 -0.7483  0.1607
  173SLPC  H10R19554   1.119   6.035   6.092  1.3913  1.9473  0.5026
  173SLPC  C21119555   0.906   6.078   6.044 -0.2830 -0.1594 -0.3712
  173SLPC  H11R19556   0.816   6.127   6.087  0.6896  2.1982 -0.8493
  173SLPC  H11S19557   0.879   5.977   6.009  0.0694 -0.3738 -0.0377
  173SLPC  C21219558   0.927   6.167   5.922 -0.3604 -0.1732 -0.1012
  173SLPC  H12R19559   0.921   6.276   5.935 -0.4891 -0.3250  1.2024
  173SLPC  C21319560   0.966   6.124   5.798 -0.2405 -0.1660 -0.6231
  173SLPC  H13R19561   1.002   6.205   5.734 -1.5034  0.5024 -0.5231
  173SLPC  C21419562   0.969   5.980   5.743  0.1752 -0.7382 -0.3739
  173SLPC  H14R19563   0.924   5.984   5.641  1.7669 -1.4874 -1.1436
  173SLPC  H14S19564   0.923   5.901   5.806  2.1020 -0.4162  1.5712
  173SLPC  C21519565   1.114   5.934   5.714 -0.2635 -0.0495  0.3092
  173SLPC  H15R19566   1.158   5.917   5.815  0.3753  0.2842  0.0966
  173SLPC  H15S19567   1.169   6.016   5.662  0.3467 -1.5645 -1.5371
  173SLPC  C21619568   1.107   5.815   5.619  0.1331 -0.1162 -1.1064
  173SLPC  H16R19569   1.007   5.766   5.621  0.4981 -0.9135  1.1374
  173SLPC  H16S19570   1.173   5.741   5.668 -1.3873 -1.4549 -0.9976
  173SLPC  C21719571   1.161   5.845   5.480 -0.1552  0.7584  0.3400
  173SLPC  H17R19572   1.159   5.759   5.409 -1.4609 -0.1486  1.4240
  173SLPC  H17S19573   1.271   5.857   5.470 -0.0416 -0.9019 -0.8528
  173SLPC  C21819574   1.103   5.974   5.408  0.0059  0.1774 -0.1077
  173SLPC  H18R19575   1.148   6.066   5.451  0.5675 -0.4071  0.5844
  173SLPC  H18S19576   0.993   5.967   5.419  0.3475 -2.5628  3.5578
  173SLPC  H18T19577   1.131   5.972   5.301  0.1238  0.2547 -0.0779
  173SLPC   C3319578   0.271   6.883   6.689  0.8005  0.2510  0.1568
  173SLPC   H3X19579   0.331   6.955   6.748  0.3697  1.6091 -1.0038
  173SLPC   H3Y19580   0.201   6.959   6.648 -0.2139 -2.3910 -3.5458
  173SLPC   C3419581   0.336   6.819   6.567  0.7712  0.6869  0.1974
  173SLPC   H4X19582   0.258   6.756   6.519  1.4248  1.4838 -2.0498
  173SLPC   H4Y19583   0.424   6.754   6.588  1.3231  0.1853 -3.0582
  173SLPC   C3519584   0.386   6.919   6.458 -0.2362  0.4604 -0.7393
  173SLPC   H5X19585   0.434   7.006   6.507 -1.7545  0.6448  0.5237
  173SLPC   H5Y19586   0.296   6.962   6.410 -1.3805  0.4439  1.2721
  173SLPC   C3619587   0.492   6.865   6.364 -0.8233  0.2452  0.0788
  173SLPC   H6X19588   0.498   6.755   6.378 -1.3236 -0.1543 -2.3878
  173SLPC   H6Y19589   0.593   6.907   6.386 -1.4816  1.2237  1.4236
  173SLPC   C3719590   0.460   6.891   6.214 -0.3176 -0.2765  0.0572
  173SLPC   H7X19591   0.452   7.001   6.199  0.8801  0.0367  1.4623
  173SLPC   H7Y19592   0.362   6.842   6.196 -0.3621  0.2068 -1.1226
  173SLPC   C3819593   0.566   6.839   6.117 -0.5668  0.7511  0.2903
  173SLPC   H8X19594   0.604   6.740   6.151  0.0904  0.2655 -1.7314
  173SLPC   H8Y19595   0.655   6.905   6.127  1.6786 -1.7024 -1.9444
  173SLPC   C3919596   0.531   6.854   5.974  0.3750  0.4491 -0.0950
  173SLPC   H9X19597   0.519   6.964   5.963 -1.0314  0.1956 -1.3081
  173SLPC   H9Y19598   0.431   6.809   5.957  0.0796  0.3338  1.7012
  173SLPC  C31019599   0.620   6.799   5.869 -0.6123 -0.0738  0.1021
  173SLPC  H10X19600   0.620   6.688   5.868 -0.3791 -0.0900  0.9939
  173SLPC  H10Y19601   0.729   6.823   5.875 -0.7742  0.4353  1.1538
  173SLPC  C31119602   0.571   6.843   5.730 -0.0128 -0.0481 -0.2904
  173SLPC  H11X19603   0.562   6.953   5.720  0.5399 -0.0026 -0.3222
  173SLPC  H11Y19604   0.473   6.795   5.709  0.3771 -1.0815  0.1952
  173SLPC  C31219605   0.659   6.801   5.616 -0.1251  0.2298 -0.4555
  173SLPC  H12X19606   0.679   6.693   5.629  0.7877  0.2987 -1.1492
  173SLPC  H12Y19607   0.758   6.852   5.618  0.0560 -0.1322  1.5960
  173SLPC  C31319608   0.587   6.811   5.473 -0.0260  0.0009  0.6030
  173SLPC  H13X19609   0.500   6.874   5.502 -0.5923  0.7869 -2.4764
  173SLPC  H13Y19610   0.554   6.715   5.427  0.6067  0.4262 -0.7841
  173SLPC  C31419611   0.669   6.883   5.362 -0.6577  0.8326  0.5372
  173SLPC  H14X19612   0.752   6.818   5.324 -1.6912 -0.0862 -0.2134
  173SLPC  H14Y19613   0.715   6.973   5.407 -0.8877  1.7800 -1.0644
  173SLPC  C31519614   0.582   6.918   5.242 -0.9873 -0.6280  0.3284
  173SLPC  H15X19615   0.498   6.985   5.271 -3.0332 -2.4274 -1.1987
  173SLPC  H15Y19616   0.534   6.835   5.188  0.4347 -0.9111 -0.5590
  173SLPC  C31619617   0.659   6.984   5.119 -0.1972  0.1283  0.1842
  173SLPC  H16X19618   0.725   7.070   5.145  2.7786 -1.8016 -0.5982
  173SLPC  H16Y19619   0.582   7.027   5.051  0.1816 -1.4048 -1.2798
  173SLPC  C31719620   0.760   6.889   5.050 -0.6086  0.0696 -0.4443
  173SLPC  H17X19621   0.715   6.822   4.973  2.0545 -1.2951 -0.9235
  173SLPC  H17Y19622   0.786   6.816   5.129 -2.0300  0.3022  0.2687
  173SLPC  C31819623   0.874   6.960   4.979 -0.2391 -0.4926  0.0712
  173SLPC  H18X19624   0.934   6.894   4.913 -0.5790  0.7553 -1.5225
  173SLPC  H18Y19625   0.939   7.002   5.059 -0.3249 -0.6862  0.2434
  173SLPC  H18Z19626   0.838   7.039   4.910  1.5165  0.5885  0.3269
  174SLPC     N19627   4.703   6.265   7.044 -1.0640 -0.3832 -0.0144
  174SLPC   C1319628   4.598   6.199   7.122  0.2830 -0.5079  0.0551
  174SLPC  H13A19629   4.500   6.208   7.077 -0.1857  1.8180  1.3785
  174SLPC  H13B19630   4.630   6.097   7.135  1.9960 -0.0110 -0.0069
  174SLPC  H13C19631   4.587   6.243   7.221 -2.7275  1.2924 -0.9460
  174SLPC   C1419632   4.693   6.229   6.902  0.2050 -0.2060  0.1045
  174SLPC  H14A19633   4.766   6.274   6.837 -0.9886  0.4731 -0.7920
  174SLPC  H14B19634   4.697   6.121   6.890 -1.6622 -0.5070  1.6906
  174SLPC  H14C19635   4.601   6.262   6.857  0.8797  1.5221 -0.0638
  174SLPC   C1519636   4.844   6.224   7.090  0.2852  0.1949 -0.0386
  174SLPC  H15A19637   4.866   6.122   7.061  0.2918 -0.3453  1.7415
  174SLPC  H15B19638   4.924   6.283   7.049  0.8054  0.2056  0.9737
  174SLPC  H15C19639   4.844   6.239   7.197 -1.9616 -3.6377  0.6791
  174SLPC   C1219640   4.697   6.418   7.067 -0.2284 -0.1128  0.1900
  174SLPC  H12A19641   4.600   6.450   7.033  0.9263  0.7849 -2.4997
  174SLPC  H12B19642   4.766   6.478   7.010 -0.0700 -0.3591  0.1198
  174SLPC   C1119643   4.700   6.468   7.210 -0.6140  0.6850 -0.5079
  174SLPC  H11A19644   4.797   6.435   7.253  0.1529  2.0847 -1.0957
  174SLPC  H11B19645   4.614   6.429   7.269  0.0642 -0.7829 -0.4479
  174SLPC     P19646   4.826   6.687   7.187 -0.3524 -0.2511 -0.1416
  174SLPC   O1319647   4.796   6.828   7.156 -0.1268 -0.7442  0.3227
  174SLPC   O1419648   4.908   6.660   7.303  0.1321 -0.0232  0.5526
  174SLPC   O1219649   4.694   6.606   7.208 -0.1146  0.4517 -0.1550
  174SLPC   O1119650   4.889   6.612   7.067 -0.2926  0.0545  0.0044
  174SLPC    C119651   4.905   6.682   6.947  0.5582  0.1672 -0.7009
  174SLPC    HA19652   4.812   6.730   6.911 -0.4447  1.5610  3.2187
  174SLPC    HB19653   4.987   6.753   6.974  2.7270 -2.9493  1.6923
  174SLPC    C219654   4.965   6.588   6.835 -0.2858  0.2764  0.5774
  174SLPC    HS19655   5.020   6.642   6.754 -1.7526 -1.0042 -1.3634
  174SLPC   O2119656   4.861   6.509   6.766 -0.0922  0.2453  0.2507
  174SLPC   C2119657   4.794   6.573   6.663 -0.6779  0.5714  0.4026
  174SLPC   O2219658   4.805   6.694   6.633 -0.2660  0.5810  0.2816
  174SLPC   C2219659   4.698   6.473   6.601  0.5520  0.4433 -0.3102
  174SLPC   H2R19660   4.752   6.382   6.567 -1.7756 -0.4262 -1.9143
  174SLPC   H2S19661   4.630   6.440   6.683  0.9215  1.6851  0.5243
  174SLPC    C319662   5.066   6.486   6.888 -0.4507  0.0552  0.7842
  174SLPC    HX19663   5.004   6.414   6.945 -1.6189  0.3655 -0.0552
  174SLPC    HY19664   5.135   6.532   6.961  0.6041  1.2199 -0.8605
  174SLPC   O3119665   5.125   6.408   6.781 -0.2422 -0.5747  0.6513
  174SLPC   C3119666   5.257   6.438   6.761  0.3195  0.1085 -0.9209
  174SLPC   O3219667   5.322   6.528   6.811  0.7633 -0.1598  0.1448
  174SLPC   C3219668   5.327   6.325   6.686  0.5688 -0.7046 -0.1111
  174SLPC   H2X19669   5.251   6.250   6.655 -0.0138 -1.5556  3.0796
  174SLPC   H2Y19670   5.410   6.287   6.749  0.0061  0.8727  1.6527
  174SLPC   C2319671   4.614   6.528   6.480  0.0849  0.0825 -1.0338
  174SLPC   H3R19672   4.565   6.625   6.503 -4.2111 -1.8981 -0.7787
  174SLPC   H3S19673   4.532   6.454   6.465 -0.4185 -0.0859  1.9125
  174SLPC   C2419674   4.690   6.546   6.346 -0.4134  0.3988 -0.5400
  174SLPC   H4R19675   4.725   6.445   6.314  0.6439  0.3896  0.5510
  174SLPC   H4S19676   4.786   6.599   6.366 -1.0200  1.1646  0.4437
  174SLPC   C2519677   4.603   6.601   6.243  0.4228 -0.3368  0.5320
  174SLPC   H5R19678   4.596   6.710   6.263  1.6802 -0.3715  1.2534
  174SLPC   H5S19679   4.505   6.553   6.226  0.7819 -0.5898 -1.0168
  174SLPC   C2619680   4.666   6.591   6.104 -0.0985 -0.0757  0.2767
  174SLPC   H6R19681   4.684   6.485   6.076 -4.9140 -0.7200 -1.2456
  174SLPC   H6S19682   4.761   6.648   6.091  0.5410 -0.8963  1.1858
  174SLPC   C2719683   4.574   6.641   5.988 -0.4492  0.6489 -0.4518
  174SLPC   H7R19684   4.476   6.592   6.003 -1.1794  2.4562  1.0842
  174SLPC   H7S19685   4.608   6.590   5.895 -0.7410  0.3459 -0.3933
  174SLPC   C2819686   4.570   6.791   5.986  0.8117 -0.1072  0.5451
  174SLPC   H8R19687   4.664   6.838   5.948 -0.5048  1.5536 -0.7961
  174SLPC   H8S19688   4.563   6.837   6.087  0.0426  0.7526  0.1090
  174SLPC   C2919689   4.455   6.851   5.903 -0.7741  0.0136 -0.1957
  174SLPC   H9R19690   4.358   6.807   5.930 -0.2326 -1.2917 -0.2965
  174SLPC  C21019691   4.464   6.959   5.822 -0.4862 -0.6287  0.3062
  174SLPC  H10R19692   4.381   6.977   5.752  1.0437 -0.2581 -1.4942
  174SLPC  C21119693   4.592   7.047   5.805  0.3093  0.4853  0.1564
  174SLPC  H11R19694   4.661   7.040   5.892  2.6585  1.3955 -1.5486
  174SLPC  H11S19695   4.562   7.153   5.790  0.3561  0.1886 -2.2823
  174SLPC  C21219696   4.665   7.005   5.684  0.0983 -0.5661  0.2700
  174SLPC  H12R19697   4.702   6.902   5.683 -0.4277 -0.7566 -0.0058
  174SLPC  C21319698   4.679   7.071   5.567  0.5954  0.0496  0.1264
  174SLPC  H13R19699   4.723   7.016   5.482  2.1496 -1.9620  2.1132
  174SLPC  C21419700   4.622   7.204   5.531  0.3947  0.4155 -0.1058
  174SLPC  H14R19701   4.599   7.268   5.619 -1.1473 -2.2462  1.5388
  174SLPC  H14S19702   4.526   7.190   5.477  0.2822  0.5141  0.0674
  174SLPC  C21519703   4.717   7.290   5.445  0.1256  0.5863 -0.0018
  174SLPC  H15R19704   4.820   7.299   5.487  0.4673 -2.1180 -0.0734
  174SLPC  H15S19705   4.670   7.388   5.422 -1.6249 -0.3941 -0.7344
  174SLPC  C21619706   4.740   7.223   5.308  0.1268 -0.0337  0.6426
  174SLPC  H16R19707   4.655   7.241   5.238  0.0798 -0.5456  0.5641
  174SLPC  H16S19708   4.744   7.112   5.315  1.4553 -0.1647 -1.2880
  174SLPC  C21719709   4.872   7.271   5.233  0.1580  0.6854  0.7683
  174SLPC  H17R19710   4.964   7.249   5.290  1.0598 -0.0121 -0.8895
  174SLPC  H17S19711   4.854   7.379   5.216 -1.8512  0.6139  2.0271
  174SLPC  C21819712   4.895   7.208   5.096 -0.0533 -0.1506 -0.7267
  174SLPC  H18R19713   4.996   7.236   5.060  0.1904  0.9768  0.7147
  174SLPC  H18S19714   4.819   7.246   5.024  0.1534 -1.5120 -1.7025
  174SLPC  H18T19715   4.876   7.098   5.098 -1.9768  0.1286 -1.6805
  174SLPC   C3319716   5.396   6.372   6.560  0.3663  0.3166  0.0377
  174SLPC   H3X19717   5.456   6.287   6.521 -2.4480 -1.8535  0.0325
  174SLPC   H3Y19718   5.469   6.449   6.593  0.4541  1.3999 -2.4746
  174SLPC   C3419719   5.318   6.449   6.448  0.4776 -0.0696 -0.3587
  174SLPC   H4X19720   5.260   6.532   6.493 -0.6661 -0.7636 -0.5162
  174SLPC   H4Y19721   5.253   6.368   6.409  1.0950 -1.5463  1.5300
  174SLPC   C3519722   5.406   6.484   6.330 -0.1746  0.5696 -0.0198
  174SLPC   H5X19723   5.450   6.391   6.287 -0.7351  0.0803  0.4521
  174SLPC   H5Y19724   5.500   6.537   6.360  1.8308 -2.0825 -1.1969
  174SLPC   C3619725   5.340   6.567   6.216  0.1180  0.4886  0.8340
  174SLPC   H6X19726   5.418   6.579   6.138 -0.8890  0.4853 -0.2084
  174SLPC   H6Y19727   5.312   6.668   6.253  0.9666  0.4959  1.4898
  174SLPC   C3719728   5.218   6.501   6.152  1.1228  0.0262  0.1318
  174SLPC   H7X19729   5.131   6.501   6.221  2.0958  0.5321  1.4027
  174SLPC   H7Y19730   5.245   6.393   6.147 -2.5046 -1.1209  1.6401
  174SLPC   C3819731   5.176   6.566   6.022 -1.1068 -0.2113  0.6734
  174SLPC   H8X19732   5.252   6.553   5.942 -1.3545 -0.4002  0.4645
  174SLPC   H8Y19733   5.159   6.675   6.035  1.5250  0.6206 -1.9868
  174SLPC   C3919734   5.040   6.514   5.971 -0.0576 -0.3551 -0.4207
  174SLPC   H9X19735   4.966   6.596   5.981  1.0597  0.8711 -1.8417
  174SLPC   H9Y19736   5.002   6.424   6.023  1.3221 -0.9065 -0.3266
  174SLPC  C31019737   5.047   6.474   5.822 -0.0371 -0.0173  0.7617
  174SLPC  H10X19738   5.121   6.536   5.767 -0.9276  0.3017 -0.1043
  174SLPC  H10Y19739   4.947   6.484   5.774 -0.1290 -1.5098  0.6016
  174SLPC  C31119740   5.085   6.333   5.794  0.6877 -0.2561  0.3595
  174SLPC  H11X19741   5.009   6.263   5.836 -0.5017  1.0831  0.5226
  174SLPC  H11Y19742   5.187   6.306   5.830  0.7272 -0.4933  0.0715
  174SLPC  C31219743   5.093   6.308   5.638 -0.4183 -0.2857 -0.0261
  174SLPC  H12X19744   5.147   6.397   5.599 -1.1758 -0.1802 -0.8538
  174SLPC  H12Y19745   4.994   6.320   5.589  0.3251  0.6286 -1.3587
  174SLPC  C31319746   5.154   6.171   5.592  0.4272  0.3805 -0.1488
  174SLPC  H13X19747   5.077   6.093   5.613 -0.1434  1.2409  1.0524
  174SLPC  H13Y19748   5.246   6.152   5.652  2.4298 -1.9654 -3.6066
  174SLPC  C31419749   5.183   6.162   5.440  0.3060 -0.2522 -0.7836
  174SLPC  H14X19750   5.232   6.064   5.419  2.1775  0.7116 -1.1724
  174SLPC  H14Y19751   5.245   6.250   5.413 -0.5593  0.2710 -1.0964
  174SLPC  C31519752   5.053   6.170   5.351 -0.0053  0.3000 -0.0264
  174SLPC  H15X19753   4.997   6.260   5.384 -2.9729 -0.9971 -1.2553
  174SLPC  H15Y19754   4.987   6.081   5.355 -1.2769  0.9480 -3.3320
  174SLPC  C31619755   5.085   6.173   5.204 -0.1248  0.1903 -0.1858
  174SLPC  H16X19756   5.033   6.084   5.162  0.4445 -0.7030  0.9429
  174SLPC  H16Y19757   5.195   6.155   5.199 -0.1540  0.0937 -0.4561
  174SLPC  C31719758   5.067   6.300   5.117  0.7226 -0.8351 -0.0473
  174SLPC  H17X19759   5.121   6.385   5.165 -0.8565 -0.2568  0.7761
  174SLPC  H17Y19760   4.961   6.332   5.102  1.0786  1.2625  1.3843
  174SLPC  C31819761   5.119   6.291   4.975  0.2402  0.1974  0.2950
  174SLPC  H18X19762   5.069   6.367   4.910 -0.4074  0.6750  1.3220
  174SLPC  H18Y19763   5.081   6.200   4.925  0.7110  1.5770 -2.7903
  174SLPC  H18Z19764   5.229   6.282   4.969  0.1505 -0.8530 -0.0054
  175SLPC     N19765   0.210   2.504   7.590  0.8275  0.1670  0.2818
  175SLPC   C1319766   0.258   2.463   7.452  0.1784  0.0769 -0.1798
  175SLPC  H13A19767   0.200   2.384   7.408  0.3953  0.2948 -0.8696
  175SLPC  H13B19768   0.264   2.538   7.375  0.6320 -0.7946 -1.0212
  175SLPC  H13C19769   0.354   2.414   7.461  1.3637  2.2819 -0.2078
  175SLPC   C1419770   0.184   2.380   7.667 -0.2746  0.0507  0.1470
  175SLPC  H14A19771   0.274   2.321   7.661 -0.5999 -0.3130 -3.2704
  175SLPC  H14B19772   0.160   2.391   7.772 -1.0709 -0.1842 -0.0044
  175SLPC  H14C19773   0.102   2.318   7.633 -0.7539  0.0912  1.1824
  175SLPC   C1519774   0.067   2.553   7.564 -0.6237  0.3505  0.3025
  175SLPC  H15A19775   0.019   2.573   7.659  0.4037 -2.1477  1.4415
  175SLPC  H15B19776   0.058   2.647   7.513 -2.0316  1.2494  2.0791
  175SLPC  H15C19777  -0.001   2.480   7.522  0.5763  0.0168 -1.1390
  175SLPC   C1219778   0.305   2.602   7.651 -1.0576 -0.2407 -0.0519
  175SLPC  H12A19779   0.333   2.668   7.571 -1.8656 -2.1708 -2.0384
  175SLPC  H12B19780   0.400   2.558   7.679 -0.8257  0.2263 -0.0865
  175SLPC   C1119781   0.266   2.681   7.780 -1.1021 -0.2341  0.2350
  175SLPC  H11A19782   0.359   2.729   7.819 -0.2877 -0.7352 -1.0077
  175SLPC  H11B19783   0.227   2.604   7.850 -0.4094 -0.6740  0.1449
  175SLPC     P19784   0.159   2.901   7.651 -0.1607 -0.3204  0.1665
  175SLPC   O1319785   0.036   2.981   7.666 -0.1490  0.5801  0.6130
  175SLPC   O1419786   0.284   2.982   7.656  0.1619  0.8167 -0.7151
  175SLPC   O1219787   0.168   2.782   7.759 -0.4310 -0.4506 -0.0756
  175SLPC   O1119788   0.158   2.833   7.512 -0.0560  0.1195 -0.7543
  175SLPC    C119789   0.197   2.903   7.399  0.1329 -0.3894  0.8323
  175SLPC    HA19790   0.144   2.999   7.379 -0.6378 -1.4136 -2.6990
  175SLPC    HB19791   0.303   2.935   7.406 -0.2237  1.2642 -0.5242
  175SLPC    C219792   0.179   2.810   7.276  0.2797  0.2774  0.8066
  175SLPC    HS19793   0.218   2.710   7.306  0.7368  0.1932 -0.0383
  175SLPC   O2119794   0.255   2.869   7.177  0.4048 -0.3055  0.1019
  175SLPC   C2119795   0.325   2.786   7.098  0.3383 -0.3463  0.5587
  175SLPC   O2219796   0.328   2.662   7.101  0.1306 -0.1567  0.1474
  175SLPC   C2219797   0.387   2.869   6.984 -0.1770  0.1643 -0.0350
  175SLPC   H2R19798   0.425   2.962   7.031  1.0972 -0.0740 -0.5427
  175SLPC   H2S19799   0.476   2.823   6.935  2.0259  3.0665  0.9815
  175SLPC    C319800   0.031   2.783   7.229 -0.1343  0.0873  0.4879
  175SLPC    HX19801  -0.004   2.886   7.210 -1.9571 -0.8799 -1.9869
  175SLPC    HY19802  -0.029   2.740   7.313  0.0801 -0.1124  0.5415
  175SLPC   O3119803   0.034   2.694   7.111  0.1736 -0.1683 -1.0765
  175SLPC   C3119804   0.013   2.562   7.139 -0.2238 -0.2441  0.1954
  175SLPC   O3219805  -0.009   2.521   7.251  0.3987 -0.0833  0.5882
  175SLPC   C3219806   0.015   2.495   7.004  0.2194 -0.2146  0.1039
  175SLPC   H2X19807   0.073   2.554   6.930  1.1815 -0.1853  0.8716
  175SLPC   H2Y19808  -0.094   2.498   6.980 -0.4169  0.5094  2.7465
  175SLPC   C2319809   0.286   2.905   6.878  0.0296  0.1169 -0.3255
  175SLPC   H3R19810   0.221   2.992   6.902  0.2980  0.3039 -0.2623
  175SLPC   H3S19811   0.218   2.818   6.868  1.3124 -0.9558  0.0488
  175SLPC   C2419812   0.366   2.946   6.752 -0.0832  0.4337 -0.6131
  175SLPC   H4R19813   0.411   2.851   6.716  0.2267 -0.3593  1.7091
  175SLPC   H4S19814   0.441   3.021   6.787  0.6548 -0.1008 -1.0228
  175SLPC   C2519815   0.292   3.009   6.634  0.4329 -0.4222  0.5869
  175SLPC   H5R19816   0.363   3.035   6.552 -0.8768 -1.4806 -0.9434
  175SLPC   H5S19817   0.246   3.104   6.669 -0.0965  0.3319 -1.9543
  175SLPC   C2619818   0.188   2.913   6.577  0.4211 -0.1663  0.1663
  175SLPC   H6R19819   0.121   2.871   6.655  3.8531 -1.5944  2.5972
  175SLPC   H6S19820   0.243   2.826   6.537  0.3599 -0.0462 -0.1835
  175SLPC   C2719821   0.105   2.965   6.463  0.0855 -0.0754  0.1978
  175SLPC   H7R19822   0.016   3.021   6.500 -1.2182 -1.5044 -0.6426
  175SLPC   H7S19823   0.063   2.887   6.396 -2.0440  0.9432  0.2635
  175SLPC   C2819824   0.187   3.057   6.370 -0.3714 -0.3885  1.1348
  175SLPC   H8R19825   0.291   3.017   6.363  0.2232  0.8801  2.2000
  175SLPC   H8S19826   0.208   3.154   6.420 -1.4226 -0.4232  1.6605
  175SLPC   C2919827   0.124   3.081   6.237  0.0967  0.4376  0.8255
  175SLPC   H9R19828   0.018   3.109   6.239 -0.0976  0.0174 -0.9978
  175SLPC  C21019829   0.166   3.056   6.107 -0.7162  0.2107  0.9950
  175SLPC  H10R19830   0.099   3.063   6.020  0.4312 -0.4279  0.0369
  175SLPC  C21119831   0.301   2.997   6.065 -0.7771  0.4661  0.8343
  175SLPC  H11R19832   0.324   2.907   6.125 -3.5577  0.3352  1.8481
  175SLPC  H11S19833   0.384   3.066   6.092  0.3133 -0.8159  0.8902
  175SLPC  C21219834   0.306   2.958   5.920 -0.1704  0.0241 -0.1092
  175SLPC  H12R19835   0.268   2.856   5.904  0.1441 -0.2178  0.6473
  175SLPC  C21319836   0.344   3.021   5.813  0.4295  0.3304 -0.0280
  175SLPC  H13R19837   0.341   2.975   5.713  2.2560  2.0612 -0.9504
  175SLPC  C21419838   0.434   3.143   5.806  0.1550  0.1002  0.0144
  175SLPC  H14R19839   0.539   3.121   5.837  0.7732  3.8424  0.9886
  175SLPC  H14S19840   0.399   3.216   5.881 -0.5428  0.4804 -0.6716
  175SLPC  C21519841   0.440   3.207   5.663  0.2669  0.5036 -0.3511
  175SLPC  H15R19842   0.470   3.128   5.592 -0.9639 -1.0574  0.7976
  175SLPC  H15S19843   0.502   3.299   5.671 -1.7020  1.9699 -1.1679
  175SLPC  C21619844   0.307   3.273   5.608 -0.0527 -0.7302 -0.3273
  175SLPC  H16R19845   0.273   3.365   5.659 -0.0903 -0.2538 -1.1911
  175SLPC  H16S19846   0.226   3.199   5.593 -0.1092 -0.3799 -1.9013
  175SLPC  C21719847   0.340   3.309   5.463 -0.0442 -0.1621  0.5473
  175SLPC  H17R19848   0.407   3.230   5.424 -0.3631  0.3344 -1.0840
  175SLPC  H17S19849   0.414   3.392   5.462  2.2471 -2.0775  1.6856
  175SLPC  C21819850   0.221   3.328   5.370  0.2616  0.0009  0.7154
  175SLPC  H18R19851   0.194   3.226   5.334  1.0743  0.3508 -0.9738
  175SLPC  H18S19852   0.249   3.386   5.280  0.7814  2.2448  2.2264
  175SLPC  H18T19853   0.133   3.380   5.416 -0.1055 -0.5915  0.6963
  175SLPC   C3319854   0.073   2.354   7.016  0.0478  0.3047 -0.2687
  175SLPC   H3X19855  -0.005   2.276   7.029 -0.0186  0.3843 -0.1784
  175SLPC   H3Y19856   0.142   2.347   7.103  0.0007 -0.1129 -0.2647
  175SLPC   C3419857   0.141   2.330   6.892 -0.7748 -0.4016  0.7091
  175SLPC   H4X19858   0.083   2.379   6.811 -0.5404  0.4898  1.0624
  175SLPC   H4Y19859   0.151   2.227   6.852  4.5001  0.1183 -0.0085
  175SLPC   C3519860   0.284   2.385   6.891  0.1210  0.6324 -0.2858
  175SLPC   H5X19861   0.338   2.356   6.984 -2.8528 -1.4204  0.9579
  175SLPC   H5Y19862   0.284   2.495   6.900 -2.3763  0.8482 -2.0404
  175SLPC   C3619863   0.367   2.365   6.763  0.2943  0.4054 -0.0540
  175SLPC   H6X19864   0.384   2.255   6.756  0.6573  0.5536 -1.9555
  175SLPC   H6Y19865   0.471   2.402   6.772  0.8880 -1.5788  2.1933
  175SLPC   C3719866   0.297   2.389   6.635  0.6294 -0.3413 -0.1617
  175SLPC   H7X19867   0.258   2.493   6.641 -1.0248 -1.0294  2.0588
  175SLPC   H7Y19868   0.212   2.319   6.624 -1.2375  1.9009 -0.8289
  175SLPC   C3819869   0.388   2.378   6.509 -0.7284 -0.3375  0.5155
  175SLPC   H8X19870   0.403   2.269   6.491  3.0729  0.2767 -0.9437
  175SLPC   H8Y19871   0.492   2.409   6.531  0.2900 -3.0026 -0.1276
  175SLPC   C3919872   0.336   2.459   6.387 -0.4706 -0.4963 -0.2463
  175SLPC   H9X19873   0.323   2.567   6.407 -1.1829 -0.0669 -2.6182
  175SLPC   H9Y19874   0.237   2.411   6.367 -1.0712 -0.1226  1.6353
  175SLPC  C31019875   0.421   2.440   6.264 -0.0511 -0.9869  0.3171
  175SLPC  H10X19876   0.422   2.329   6.257 -1.0886 -1.0915  1.4703
  175SLPC  H10Y19877   0.527   2.472   6.274  0.0717 -1.6239  1.2833
  175SLPC  C31119878   0.366   2.503   6.132  0.7740 -0.1177  0.0788
  175SLPC  H11X19879   0.346   2.611   6.149  0.4662  0.6635 -4.0783
  175SLPC  H11Y19880   0.261   2.475   6.115  0.8229 -0.0692 -0.3096
  175SLPC  C31219881   0.449   2.463   6.008 -0.7322 -0.5597  0.3168
  175SLPC  H12X19882   0.424   2.356   5.989 -0.0567 -0.2099 -3.2978
  175SLPC  H12Y19883   0.558   2.476   6.027 -0.3859  0.8315 -2.2470
  175SLPC  C31319884   0.414   2.551   5.882  0.0388  0.6552 -0.1222
  175SLPC  H13X19885   0.448   2.654   5.908  0.0311  0.5868  0.1621
  175SLPC  H13Y19886   0.306   2.568   5.865  0.0853  0.8340 -0.2465
  175SLPC  C31419887   0.493   2.503   5.755 -0.1402  0.1504  0.0281
  175SLPC  H14X19888   0.467   2.399   5.728  0.7052  0.2928 -1.4359
  175SLPC  H14Y19889   0.601   2.510   5.782  0.0762 -2.3120 -0.0092
  175SLPC  C31519890   0.470   2.596   5.639 -0.3321  0.2520  0.1049
  175SLPC  H15X19891   0.552   2.576   5.567  0.1581 -1.5804  1.1150
  175SLPC  H15Y19892   0.469   2.703   5.670 -1.2402  0.6217 -1.1290
  175SLPC  C31619893   0.330   2.562   5.578  0.0711 -0.2382 -0.4749
  175SLPC  H16X19894   0.256   2.607   5.649 -0.0126  3.5945 -2.7140
  175SLPC  H16Y19895   0.331   2.452   5.566  0.3772 -0.1111 -1.7354
  175SLPC  C31719896   0.304   2.616   5.435  0.4229 -0.1368  0.2320
  175SLPC  H17X19897   0.312   2.727   5.436 -1.3559  0.0228  0.2356
  175SLPC  H17Y19898   0.196   2.591   5.421  0.1322  0.5468  1.1192
  175SLPC  C31819899   0.398   2.571   5.331 -0.0963  0.1483 -0.2898
  175SLPC  H18X19900   0.399   2.460   5.333 -0.9759  0.1254  1.0454
  175SLPC  H18Y19901   0.500   2.606   5.356 -0.8241  0.6841  2.2965
  175SLPC  H18Z19902   0.361   2.606   5.233  0.8572  1.0000 -0.3664
  176SLPC     N19903   6.274   6.705   7.317  0.2899 -0.4410  0.5954
  176SLPC   C1319904   6.395   6.737   7.238  0.3486 -0.3749 -0.2338
  176SLPC  H13A19905   6.456   6.648   7.236 -0.5235 -0.9848 -2.5319
  176SLPC  H13B19906   6.360   6.773   7.143 -0.7029  0.6773  0.5258
  176SLPC  H13C19907   6.447   6.819   7.285  0.7691 -0.8256  0.1053
  176SLPC   C1419908   6.233   6.569   7.278 -0.1300  0.1246  0.1984
  176SLPC  H14A19909   6.299   6.492   7.316 -1.7088 -1.6565 -0.5109
  176SLPC  H14B19910   6.131   6.547   7.306  0.6495 -1.7787  1.8208
  176SLPC  H14C19911   6.242   6.551   7.172 -2.0648 -1.2473  0.2129
  176SLPC   C1519912   6.162   6.799   7.293 -0.0903  0.0974  0.8583
  176SLPC  H15A19913   6.076   6.775   7.353  0.0143 -2.5171  0.0601
  176SLPC  H15B19914   6.182   6.906   7.292 -0.8457  0.2460 -0.6372
  176SLPC  H15C19915   6.122   6.784   7.194  0.7629 -0.5730  0.6057
  176SLPC   C1219916   6.306   6.705   7.465  0.2919 -0.2218 -0.3801
  176SLPC  H12A19917   6.242   6.632   7.513  1.1265 -2.1350 -2.0220
  176SLPC  H12B19918   6.277   6.797   7.512  0.6964  0.1943 -0.9308
  176SLPC   C1119919   6.436   6.657   7.524  0.2137 -0.4294  0.2380
  176SLPC  H11A19920   6.433   6.655   7.635 -1.6143  1.0942  0.2724
  176SLPC  H11B19921   6.519   6.730   7.509 -0.0004  0.0512  1.2790
  176SLPC     P19922   6.469   6.397   7.563  0.0099  0.0493  0.2063
  176SLPC   O1319923   6.566   6.421   7.670  0.4556 -0.5835  0.1548
  176SLPC   O1419924   6.336   6.357   7.611 -0.6361  0.0504 -0.1942
  176SLPC   O1219925   6.466   6.527   7.469 -0.9954 -0.1676  0.1574
  176SLPC   O1119926   6.524   6.279   7.467 -0.4196 -0.6470 -0.0116
  176SLPC    C119927   6.645   6.299   7.392 -0.0313 -0.2722  0.4294
  176SLPC    HA19928   6.710   6.377   7.438  0.1720 -1.6008  2.5134
  176SLPC    HB19929   6.705   6.206   7.400 -0.7506 -0.6414  1.7951
  176SLPC    C219930   6.611   6.347   7.248  0.1277  0.6172 -0.5595
  176SLPC    HS19931   6.545   6.435   7.262  0.8824  0.7760  2.9462
  176SLPC   O2119932   6.545   6.238   7.182  0.4803  0.6680 -0.6245
  176SLPC   C2119933   6.458   6.276   7.087 -0.1057 -0.1665  0.7824
  176SLPC   O2219934   6.420   6.389   7.062 -0.0512 -0.0121 -0.1234
  176SLPC   C2219935   6.400   6.149   7.029 -0.3725 -0.3504  0.3759
  176SLPC   H2R19936   6.472   6.064   7.027 -2.7074 -2.4726  1.1574
  176SLPC   H2S19937   6.322   6.118   7.102 -1.0405  0.6248  0.0978
  176SLPC    C319938   6.738   6.402   7.170  0.9748 -0.4865  0.2121
  176SLPC    HX19939   6.785   6.319   7.113  2.4497  1.7820 -2.1242
  176SLPC    HY19940   6.805   6.455   7.241  0.3472 -0.3574  0.7139
  176SLPC   O3119941   6.690   6.514   7.078 -0.5595 -0.7684 -0.5415
  176SLPC   C3119942   6.685   6.483   6.949 -0.0162 -0.5016  0.0537
  176SLPC   O3219943   6.713   6.380   6.897 -0.1963  0.4321 -0.5692
  176SLPC   C3219944   6.635   6.611   6.878 -0.7797  0.2258 -0.2389
  176SLPC   H2X19945   6.663   6.706   6.929 -2.4309  1.4309 -1.4611
  176SLPC   H2Y19946   6.524   6.619   6.876 -0.7972  0.5468  0.9326
  176SLPC   C2319947   6.356   6.171   6.880  0.1196 -0.2204  0.1823
  176SLPC   H3R19948   6.441   6.206   6.818 -1.2114  1.4556 -0.7745
  176SLPC   H3S19949   6.279   6.250   6.868  1.8117  1.1351 -2.9478
  176SLPC   C2419950   6.303   6.037   6.828  1.2431  0.2345  0.2521
  176SLPC   H4R19951   6.366   5.949   6.857 -1.0675 -1.2310  1.0830
  176SLPC   H4S19952   6.297   6.047   6.717  0.0934  1.4697  0.4064
  176SLPC   C2519953   6.155   6.015   6.883  0.0049 -0.6615  0.5967
  176SLPC   H5R19954   6.113   6.118   6.892  0.5223 -0.1213 -2.2071
  176SLPC   H5S19955   6.157   5.973   6.986 -0.1001 -2.7024 -0.1977
  176SLPC   C2619956   6.068   5.939   6.783 -0.8208 -0.7456  0.1002
  176SLPC   H6R19957   6.024   6.008   6.707  2.3351  1.9591  0.4603
  176SLPC   H6S19958   5.987   5.912   6.853  0.1248 -0.4133  1.3691
  176SLPC   C2719959   6.131   5.821   6.717  0.2662  0.5109  0.0012
  176SLPC   H7R19960   6.183   5.765   6.797  0.1590  1.4805  0.7643
  176SLPC   H7S19961   6.210   5.844   6.643  0.1295  1.9935  0.2947
  176SLPC   C2819962   6.022   5.729   6.648  0.3357 -0.0073  0.0356
  176SLPC   H8R19963   5.938   5.729   6.720  1.5731  0.2618  1.5247
  176SLPC   H8S19964   6.057   5.623   6.640 -0.7933 -0.2866 -1.8708
  176SLPC   C2919965   5.986   5.782   6.518  0.6982  0.0804  0.1062
  176SLPC   H9R19966   5.910   5.861   6.519  1.0852  0.4489  0.7003
  176SLPC  C21019967   6.046   5.757   6.401 -0.0652  0.6894 -0.0170
  176SLPC  H10R19968   6.007   5.802   6.309 -2.9845  0.0168  0.7998
  176SLPC  C21119969   6.172   5.664   6.387 -0.4368  0.0861 -0.0463
  176SLPC  H11R19970   6.196   5.621   6.487 -0.3373  0.4791  0.1007
  176SLPC  H11S19971   6.265   5.717   6.360  0.7935 -2.1730 -0.5084
  176SLPC  C21219972   6.131   5.553   6.295  0.4892 -0.4790  0.0598
  176SLPC  H12R19973   6.039   5.503   6.330 -1.0229  0.5328 -2.2615
  176SLPC  C21319974   6.199   5.509   6.181  0.4880 -0.6558 -0.5360
  176SLPC  H13R19975   6.160   5.424   6.123 -0.0636 -0.4180 -0.5131
  176SLPC  C21419976   6.330   5.559   6.121  0.2539  0.4716 -0.2561
  176SLPC  H14R19977   6.421   5.496   6.132  0.7523  0.9003 -1.7667
  176SLPC  H14S19978   6.331   5.659   6.168 -0.5451  0.2766  0.1969
  176SLPC  C21519979   6.318   5.575   5.967  0.9536 -0.3853  0.0152
  176SLPC  H15R19980   6.218   5.620   5.945  0.0318 -2.4571 -0.2126
  176SLPC  H15S19981   6.318   5.471   5.928 -1.2973 -0.8831  1.1625
  176SLPC  C21619982   6.430   5.646   5.902  0.2247  0.3050 -0.2087
  176SLPC  H16R19983   6.524   5.598   5.937  0.4640  0.2444 -0.9118
  176SLPC  H16S19984   6.433   5.743   5.956 -1.8115 -0.1377  0.7847
  176SLPC  C21719985   6.426   5.651   5.755  0.0772 -0.3563  0.9773
  176SLPC  H17R19986   6.322   5.665   5.718 -0.4317 -2.1579  1.6394
  176SLPC  H17S19987   6.464   5.556   5.712  1.2783  0.4608  0.1377
  176SLPC  C21819988   6.514   5.773   5.715  0.1701  0.7073 -0.2170
  176SLPC  H18R19989   6.618   5.739   5.730 -0.6709 -1.9303  0.1168
  176SLPC  H18S19990   6.490   5.867   5.769 -0.4256 -0.6135  1.9237
  176SLPC  H18T19991   6.501   5.803   5.609  2.7694  1.2260 -0.4541
  176SLPC   C3319992   6.693   6.643   6.735 -0.0583 -0.7744  0.6359
  176SLPC   H3X19993   6.672   6.559   6.665 -2.8845  0.1911  0.1934
  176SLPC   H3Y19994   6.803   6.652   6.747 -0.3565  1.8037  2.2817
  176SLPC   C3419995   6.630   6.770   6.667  0.0125 -0.0880 -0.1446
  176SLPC   H4X19996   6.658   6.860   6.726 -1.3089  1.1095 -1.2656
  176SLPC   H4Y19997   6.520   6.754   6.676 -0.3940  2.0428 -0.7998
  176SLPC   C3519998   6.657   6.798   6.519 -0.5273  0.0668  0.1395
  176SLPC   H5X19999   6.601   6.892   6.500  1.9588  1.3573 -1.4880
  176SLPC   H5Y20000   6.626   6.719   6.448  3.4978 -1.8609  0.2117
  176SLPC   C3620001   6.800   6.843   6.497 -0.3450  0.2249 -0.2609
  176SLPC   H6X20002   6.864   6.754   6.511 -4.3512 -3.0003 -0.6189
  176SLPC   H6Y20003   6.827   6.926   6.567  2.6563  0.4769 -1.5764
  176SLPC   C3720004   6.818   6.903   6.358  0.5597 -0.7162  0.8156
  176SLPC   H7X20005   6.927   6.907   6.338 -0.0072 -0.2271 -2.6936
  176SLPC   H7Y20006   6.768   7.002   6.357 -1.9161 -1.8791  1.0260
  176SLPC   C3820007   6.776   6.814   6.241 -0.0344 -0.0829  0.7505
  176SLPC   H8X20008   6.668   6.788   6.238  0.2782 -1.4101  0.2409
  176SLPC   H8Y20009   6.823   6.714   6.253  0.0736 -0.5380 -2.6130
  176SLPC   C3920010   6.821   6.871   6.103  0.1791  0.4717 -0.4962
  176SLPC   H9X20011   6.768   6.966   6.079  0.5498  0.9583  0.5317
  176SLPC   H9Y20012   6.781   6.802   6.026  0.3017 -0.0233 -0.1186
  176SLPC  C31020013   6.966   6.899   6.076 -0.2103 -0.0414 -0.3414
  176SLPC  H10X20014   7.030   6.812   6.104  2.5184  0.8934 -3.2078
  176SLPC  H10Y20015   6.996   6.993   6.127 -2.5455  1.9145 -2.3178
  176SLPC  C31120016   6.991   6.933   5.927 -0.1345 -0.6774  0.0194
  176SLPC  H11X20017   7.092   6.978   5.934  0.1711 -1.0048 -1.9061
  176SLPC  H11Y20018   6.927   7.013   5.885  0.5156 -0.1551  0.0087
  176SLPC  C31220019   6.995   6.806   5.845 -0.1010  0.1747  0.0350
  176SLPC  H12X20020   6.904   6.749   5.875 -0.4968  0.2141 -1.0366
  176SLPC  H12Y20021   7.084   6.744   5.869 -0.7424 -0.4507  0.8496
  176SLPC  C31320022   6.993   6.842   5.693  0.0764 -0.1682 -0.5501
  176SLPC  H13X20023   7.037   6.942   5.675  1.5820 -0.5091  0.9678
  176SLPC  H13Y20024   6.890   6.838   5.652  0.2549  0.8693 -1.1240
  176SLPC  C31420025   7.067   6.740   5.610  0.0186 -0.0161 -0.2184
  176SLPC  H14X20026   7.032   6.637   5.630 -0.7995  0.6660  2.1274
  176SLPC  H14Y20027   7.167   6.730   5.657 -1.3836 -3.1169  2.5579
  176SLPC  C31520028   7.077   6.780   5.465  0.1095 -0.3298 -0.2941
  176SLPC  H15X20029   7.140   6.871   5.455  0.1138 -0.5451 -2.8853
  176SLPC  H15Y20030   6.973   6.803   5.435  0.3062  1.8671  0.5272
  176SLPC  C31620031   7.136   6.661   5.386  0.0789 -0.1016  0.7795
  176SLPC  H16X20032   7.075   6.570   5.401  1.0355 -1.0640 -0.8742
  176SLPC  H16Y20033   7.238   6.639   5.425  0.8713  0.6978 -0.7691
  176SLPC  C31720034   7.162   6.706   5.243  0.2544  1.1013 -0.2230
  176SLPC  H17X20035   7.222   6.798   5.229  1.2416  0.3460 -1.1848
  176SLPC  H17Y20036   7.064   6.704   5.191  0.9639 -2.6900 -1.7433
  176SLPC  C31820037   7.237   6.591   5.166 -0.0440 -0.1264  0.6728
  176SLPC  H18X20038   7.346   6.608   5.178 -0.2445  0.5232  1.6952
  176SLPC  H18Y20039   7.206   6.598   5.059  0.0861  0.1046  0.6513
  176SLPC  H18Z20040   7.200   6.493   5.204 -2.0738  0.4810  0.3719
  177SLPC     N20041   2.193   1.193   7.162 -0.3855 -0.4588 -0.2511
  177SLPC   C1320042   2.104   1.312   7.167 -0.2304  1.0960  0.1817
  177SLPC  H13A20043   2.005   1.285   7.199 -0.4139  0.4303 -0.8893
  177SLPC  H13B20044   2.132   1.394   7.231  1.0004  1.3997 -0.7040
  177SLPC  H13C20045   2.090   1.355   7.068  0.0350  0.4121 -0.1616
  177SLPC   C1420046   2.210   1.125   7.294  0.5689  0.0390  0.0245
  177SLPC  H14A20047   2.246   1.192   7.371 -2.2034  0.4633  1.0638
  177SLPC  H14B20048   2.113   1.092   7.326  1.1201 -1.0001  0.6784
  177SLPC  H14C20049   2.266   1.033   7.287 -0.4341 -0.9069  2.8702
  177SLPC   C1520050   2.333   1.226   7.109 -0.9100  0.1927 -0.6195
  177SLPC  H15A20051   2.392   1.136   7.114 -0.0126  0.6243 -2.6514
  177SLPC  H15B20052   2.336   1.254   7.005 -0.9357 -0.1809 -0.7243
  177SLPC  H15C20053   2.381   1.309   7.158  1.5361 -0.3358 -1.9862
  177SLPC   C1220054   2.137   1.097   7.060 -0.1520 -0.2537 -0.3872
  177SLPC  H12A20055   2.124   1.158   6.971 -1.1356  0.6081  0.3283
  177SLPC  H12B20056   2.042   1.060   7.094  0.3886 -0.5372  0.8449
  177SLPC   C1120057   2.214   0.961   7.028  0.1284 -0.3953  0.1830
  177SLPC  H11A20058   2.318   0.976   6.994 -1.0764  0.7642 -3.4346
  177SLPC  H11B20059   2.172   0.912   6.938  0.7732 -0.9082  0.1622
  177SLPC     P20060   2.074   0.788   7.165 -0.1309 -0.0360  0.1684
  177SLPC   O1320061   2.088   0.699   7.276 -0.7927  0.2217 -0.2074
  177SLPC   O1420062   1.962   0.880   7.172 -0.3137 -0.1565 -0.2018
  177SLPC   O1220063   2.209   0.870   7.139 -0.8101  0.0071  0.5944
  177SLPC   O1120064   2.058   0.689   7.042 -0.0919 -0.1281  0.4650
  177SLPC    C120065   2.167   0.609   6.994  0.9093 -0.3163 -0.2574
  177SLPC    HA20066   2.220   0.665   6.914 -0.8562 -0.3744 -1.5315
  177SLPC    HB20067   2.236   0.590   7.079 -1.5358 -2.1907  1.4756
  177SLPC    C220068   2.121   0.474   6.950 -0.1925  0.3852  0.5799
  177SLPC    HS20069   2.216   0.421   6.924 -2.0610 -2.4614 -1.0532
  177SLPC   O2120070   2.028   0.486   6.832 -0.2962  0.2581 -0.0501
  177SLPC   C2120071   2.076   0.538   6.717 -0.4562 -0.6500  0.0454
  177SLPC   O2220072   2.190   0.578   6.698  0.4902  0.3762 -0.9253
  177SLPC   C2220073   1.972   0.524   6.604  1.3987 -0.2282  0.2202
  177SLPC   H2R20074   1.903   0.444   6.639  1.2681 -0.1087  0.2374
  177SLPC   H2S20075   1.935   0.629   6.604  0.7521 -0.4325  1.7720
  177SLPC    C320076   2.048   0.411   7.076  0.3834  0.2951  0.2615
  177SLPC    HX20077   1.969   0.476   7.119 -0.3536 -1.3006  1.4271
  177SLPC    HY20078   2.127   0.399   7.153  2.1855  1.9734 -1.2066
  177SLPC   O3120079   1.989   0.281   7.040 -0.3464  0.1524 -0.6727
  177SLPC   C3120080   1.856   0.278   7.029  0.3781  0.6547  0.2989
  177SLPC   O3220081   1.774   0.358   7.058 -0.1468  0.2925  0.6917
  177SLPC   C3220082   1.820   0.141   6.965 -0.8900  0.0641 -0.5389
  177SLPC   H2X20083   1.887   0.060   6.997 -1.1609 -0.2791 -0.8248
  177SLPC   H2Y20084   1.822   0.166   6.856  0.0818 -1.5051 -0.9117
  177SLPC   C2320085   2.034   0.496   6.466 -0.6728  0.2750  0.0208
  177SLPC   H3R20086   2.126   0.557   6.453  0.9577 -1.6613  1.7232
  177SLPC   H3S20087   1.955   0.536   6.399 -1.0519 -0.0214  0.2873
  177SLPC   C2420088   2.068   0.347   6.459 -0.2548  0.5886 -0.2205
  177SLPC   H4R20089   1.977   0.285   6.447  0.1431  0.2429 -1.7126
  177SLPC   H4S20090   2.125   0.310   6.546 -0.3255  0.0843 -0.3880
  177SLPC   C2520091   2.153   0.314   6.328  0.3424 -0.8175 -0.6440
  177SLPC   H5R20092   2.179   0.207   6.337  0.6682 -0.5608  4.4725
  177SLPC   H5S20093   2.247   0.372   6.342  0.5844 -1.4295  0.3347
  177SLPC   C2620094   2.075   0.354   6.198  0.0340 -0.1180 -0.3115
  177SLPC   H6R20095   2.062   0.463   6.181 -1.9770 -0.4901 -1.4736
  177SLPC   H6S20096   1.977   0.302   6.205 -0.3076  0.6954  1.8032
  177SLPC   C2720097   2.150   0.312   6.070 -0.1457 -0.5075 -0.1782
  177SLPC   H7R20098   2.159   0.201   6.068  0.9688 -0.4375 -2.9372
  177SLPC   H7S20099   2.250   0.361   6.074  0.4133 -1.2695 -2.8073
  177SLPC   C2820100   2.083   0.357   5.938 -1.0092 -0.6583 -0.2204
  177SLPC   H8R20101   2.049   0.462   5.952  0.0472 -0.4540  0.9700
  177SLPC   H8S20102   1.984   0.310   5.915 -2.5171  1.7856  0.8738
  177SLPC   C2920103   2.184   0.346   5.823 -0.4003 -0.3990 -0.0137
  177SLPC   H9R20104   2.260   0.424   5.809 -0.7240 -0.0055  0.3840
  177SLPC  C21020105   2.188   0.239   5.743 -0.0773  0.3411  0.2331
  177SLPC  H10R20106   2.263   0.231   5.663  1.0857 -1.2905  1.4227
  177SLPC  C21120107   2.085   0.130   5.735 -0.0628 -0.4294  0.0071
  177SLPC  H11R20108   2.005   0.152   5.661 -2.1505 -0.2240  2.2023
  177SLPC  H11S20109   2.027   0.131   5.830 -1.0004 -0.6970 -0.5430
  177SLPC  C21220110   2.129  -0.010   5.699 -0.2090  0.9393 -0.5813
  177SLPC  H12R20111   2.152  -0.064   5.793 -1.4228 -1.0247 -1.3345
  177SLPC  C21320112   2.129  -0.068   5.582  0.6986  0.3253 -0.0273
  177SLPC  H13R20113   2.146  -0.177   5.575  1.0413  0.4151 -0.6037
  177SLPC  C21420114   2.091  -0.006   5.449  0.4082  0.4038  0.2493
  177SLPC  H14R20115   2.185   0.046   5.418 -0.3770  0.2335 -2.7233
  177SLPC  H14S20116   2.005   0.063   5.460  0.5219  0.4726  0.7471
  177SLPC  C21520117   2.071  -0.107   5.331  0.8897  0.3476 -0.3992
  177SLPC  H15R20118   1.980  -0.167   5.352 -0.0935  2.3525  1.5125
  177SLPC  H15S20119   2.153  -0.182   5.338  1.2503  0.6800 -0.9645
  177SLPC  C21620120   2.078  -0.043   5.195 -0.5640 -0.2997  0.1569
  177SLPC  H16R20121   2.165   0.026   5.192  1.1595 -2.2688  1.7194
  177SLPC  H16S20122   1.986   0.016   5.176 -1.3261 -1.3634  0.3759
  177SLPC  C21720123   2.110  -0.143   5.084  0.5228  0.0878 -0.2673
  177SLPC  H17R20124   2.046  -0.233   5.094  0.1271  0.1931 -1.7229
  177SLPC  H17S20125   2.211  -0.184   5.108  1.0840  0.7445 -1.4754
  177SLPC  C21820126   2.112  -0.091   4.945  0.2559 -0.4489  0.2598
  177SLPC  H18R20127   2.193  -0.015   4.947  2.1123 -2.3191 -0.3332
  177SLPC  H18S20128   2.018  -0.041   4.912  0.4138  0.3418  0.9643
  177SLPC  H18T20129   2.142  -0.164   4.868  1.4440  0.3773 -0.0830
  177SLPC   C3320130   1.678   0.091   7.006  0.7392  0.2343 -0.1098
  177SLPC   H3X20131   1.599   0.165   6.979  1.0087  0.0025 -1.5883
  177SLPC   H3Y20132   1.670   0.086   7.117 -0.5934 -0.7911 -0.2196
  177SLPC   C3420133   1.635  -0.039   6.932  0.6301  0.2600 -0.0029
  177SLPC   H4X20134   1.529  -0.067   6.951  0.0633  1.3583 -1.3611
  177SLPC   H4Y20135   1.694  -0.109   6.995  2.3748  1.5870 -0.1066
  177SLPC   C3520136   1.656  -0.064   6.781 -0.3773 -0.4245 -0.5467
  177SLPC   H5X20137   1.765  -0.070   6.762 -0.0292  2.6940 -0.1440
  177SLPC   H5Y20138   1.617   0.028   6.733  0.1349 -0.0474 -0.2435
  177SLPC   C3620139   1.591  -0.190   6.729 -0.2029 -0.7271  0.1474
  177SLPC   H6X20140   1.488  -0.208   6.766 -0.4473 -2.3290 -1.1904
  177SLPC   H6Y20141   1.644  -0.281   6.766  1.7320  0.2222 -0.1707
  177SLPC   C3720142   1.595  -0.188   6.576  0.4212  0.9230  0.3092
  177SLPC   H7X20143   1.704  -0.200   6.559  0.3876 -0.6527  0.9855
  177SLPC   H7Y20144   1.557  -0.091   6.539 -0.0434  1.2668  1.6419
  177SLPC   C3820145   1.514  -0.300   6.502 -0.4512  0.2417 -0.2610
  177SLPC   H8X20146   1.406  -0.282   6.522 -0.0771 -0.0311  2.2719
  177SLPC   H8Y20147   1.535  -0.400   6.546  0.7693  1.3248  1.7526
  177SLPC   C3920148   1.537  -0.305   6.345 -0.9753 -0.6193  0.1872
  177SLPC   H9X20149   1.641  -0.329   6.314 -0.9091  1.0953 -1.0034
  177SLPC   H9Y20150   1.527  -0.198   6.318 -0.3659  0.2698  3.0666
  177SLPC  C31020151   1.442  -0.401   6.273  0.8648 -0.5108  0.0403
  177SLPC  H10X20152   1.340  -0.366   6.302  0.9323 -0.0396 -0.2816
  177SLPC  H10Y20153   1.464  -0.505   6.304  2.0120 -0.2224  0.2341
  177SLPC  C31120154   1.453  -0.394   6.118 -0.4863  0.1456  0.0295
  177SLPC  H11X20155   1.560  -0.388   6.089 -1.1932 -2.1668 -3.7273
  177SLPC  H11Y20156   1.402  -0.307   6.070 -0.2387  0.9684  1.2107
  177SLPC  C31220157   1.387  -0.516   6.070  0.0075 -0.4053 -0.3496
  177SLPC  H12X20158   1.276  -0.512   6.078  0.1366  0.3814  1.5350
  177SLPC  H12Y20159   1.435  -0.604   6.117  2.1177 -0.6982 -2.8546
  177SLPC  C31320160   1.413  -0.536   5.916  0.6234 -0.9785 -0.3441
  177SLPC  H13X20161   1.518  -0.518   5.884  0.7563 -2.4513 -0.8152
  177SLPC  H13Y20162   1.351  -0.455   5.874  0.9921 -0.8887 -0.7275
  177SLPC  C31420163   1.372  -0.667   5.851  0.5731  0.8018 -1.0115
  177SLPC  H14X20164   1.261  -0.665   5.854  0.5956  0.5284  0.8253
  177SLPC  H14Y20165   1.415  -0.742   5.920 -1.8019  0.8091  0.6010
  177SLPC  C31520166   1.426  -0.678   5.707 -0.2913 -0.6727 -0.7109
  177SLPC  H15X20167   1.410  -0.776   5.658 -3.5878  0.2950 -1.8798
  177SLPC  H15Y20168   1.535  -0.661   5.717 -0.3411  1.1117 -2.6022
  177SLPC  C31620169   1.377  -0.564   5.609 -0.5800  0.0930  0.4069
  177SLPC  H16X20170   1.434  -0.471   5.627  1.3127 -0.8307 -0.5263
  177SLPC  H16Y20171   1.266  -0.571   5.615 -0.4701 -3.3219  0.4663
  177SLPC  C31720172   1.411  -0.608   5.467  0.4067  0.4446  0.1439
  177SLPC  H17X20173   1.371  -0.711   5.452 -0.9128  1.0925 -1.0001
  177SLPC  H17Y20174   1.521  -0.597   5.464  0.3764  1.0547  0.9571
  177SLPC  C31820175   1.338  -0.524   5.366  0.2804 -0.2011  0.7216
  177SLPC  H18X20176   1.365  -0.534   5.259  0.1463  0.2614  0.6401
  177SLPC  H18Y20177   1.348  -0.417   5.394 -1.5269 -0.0551  0.9532
  177SLPC  H18Z20178   1.228  -0.541   5.368  0.0050  0.0885 -3.6942
  178SLPC     N20179   6.832   5.557   7.288  0.8568 -1.2065 -0.4475
  178SLPC   C1320180   6.890   5.678   7.235 -0.7356 -0.3877  0.2539
  178SLPC  H13A20181   6.897   5.749   7.315 -0.9723  0.2406 -0.2743
  178SLPC  H13B20182   6.993   5.663   7.205 -0.2543  0.3861  1.4709
  178SLPC  H13C20183   6.837   5.730   7.157  0.7010  2.2794  0.9469
  178SLPC   C1420184   6.798   5.467   7.179 -0.1386  0.2288 -0.2940
  178SLPC  H14A20185   6.763   5.375   7.223  1.8177 -0.7158 -0.5831
  178SLPC  H14B20186   6.736   5.502   7.098 -0.5600 -1.0454 -0.5431
  178SLPC  H14C20187   6.891   5.436   7.133 -0.4805 -1.7120  0.2467
  178SLPC   C1520188   6.689   5.594   7.348  0.3838 -0.3823  0.7175
  178SLPC  H15A20189   6.691   5.680   7.413  1.7806  0.0959  0.0843
  178SLPC  H15B20190   6.618   5.621   7.272  2.4436  2.4522 -0.3873
  178SLPC  H15C20191   6.664   5.517   7.419  0.5494  0.1959  1.4171
  178SLPC   C1220192   6.927   5.488   7.382 -0.3263 -0.1652 -1.0523
  178SLPC  H12A20193   7.019   5.457   7.335 -0.5374 -1.6937 -0.5248
  178SLPC  H12B20194   6.881   5.394   7.408  0.1656 -0.1495 -0.0981
  178SLPC   C1120195   6.948   5.553   7.519 -0.5833 -0.5895 -0.7451
  178SLPC  H11A20196   6.849   5.561   7.568 -1.6620 -2.5690 -2.4260
  178SLPC  H11B20197   6.991   5.654   7.507  0.2653 -0.6332  1.4631
  178SLPC     P20198   7.186   5.480   7.598 -0.1220 -0.0315  0.0397
  178SLPC   O1320199   7.230   5.597   7.677 -0.4537  0.4791 -0.4667
  178SLPC   O1420200   7.239   5.355   7.656  0.1181  0.6578  0.2315
  178SLPC   O1220201   7.029   5.462   7.594 -0.0203  0.2352 -0.2944
  178SLPC   O1120202   7.235   5.504   7.454 -0.3662 -0.2549  0.6001
  178SLPC    C120203   7.314   5.406   7.378 -0.0537 -0.0643  0.2831
  178SLPC    HA20204   7.406   5.373   7.430  0.1133  0.6259  0.4315
  178SLPC    HB20205   7.247   5.317   7.371 -1.9529  1.4434 -2.5618
  178SLPC    C220206   7.343   5.449   7.230  0.1707 -0.1357  0.2809
  178SLPC    HS20207   7.430   5.391   7.194  1.1184  0.9956  0.6537
  178SLPC   O2120208   7.377   5.587   7.230  0.2241 -0.0297  0.0847
  178SLPC   C2120209   7.502   5.615   7.251  0.0453 -0.0138  0.1045
  178SLPC   O2220210   7.587   5.535   7.286 -0.0710 -0.0919  0.1506
  178SLPC   C2220211   7.521   5.765   7.210  0.0518 -0.3904  0.4154
  178SLPC   H2R20212   7.456   5.785   7.122  2.6175 -1.9794 -2.0327
  178SLPC   H2S20213   7.489   5.822   7.300 -0.6159  0.6160 -0.4324
  178SLPC    C320214   7.225   5.426   7.132  0.4168  0.7535 -0.1263
  178SLPC    HX20215   7.140   5.480   7.179  1.1583 -0.0131  2.1983
  178SLPC    HY20216   7.200   5.318   7.129 -0.8979  1.0574 -1.4762
  178SLPC   O3120217   7.268   5.478   7.001 -0.4464 -0.0507 -0.4386
  178SLPC   C3120218   7.186   5.558   6.941  0.4723 -0.6367  0.4122
  178SLPC   O3220219   7.085   5.603   6.990  0.3910 -0.0811 -0.2155
  178SLPC   C3220220   7.249   5.598   6.808 -0.7509 -0.2987  0.4225
  178SLPC   H2X20221   7.286   5.508   6.755  1.9626  0.0429  1.5502
  178SLPC   H2Y20222   7.345   5.646   6.837 -0.3549 -2.2548  2.6696
  178SLPC   C2320223   7.670   5.800   7.175  0.4496 -0.1994 -0.0757
  178SLPC   H3R20224   7.729   5.787   7.268  1.8704  2.3404 -0.5233
  178SLPC   H3S20225   7.669   5.908   7.152  1.8466 -0.2184 -0.2949
  178SLPC   C2420226   7.744   5.716   7.067 -0.7016 -0.0755  0.0418
  178SLPC   H4R20227   7.701   5.738   6.967 -0.9500  0.2769  0.2271
  178SLPC   H4S20228   7.717   5.608   7.073  0.0229 -0.2373  0.6211
  178SLPC   C2520229   7.896   5.748   7.051  0.5733 -0.2976  0.5335
  178SLPC   H5R20230   7.943   5.740   7.152  2.8250  0.1090 -0.4251
  178SLPC   H5S20231   7.902   5.857   7.033  2.3172 -0.1921  1.5210
  178SLPC   C2620232   7.978   5.689   6.932 -0.0545 -0.1449 -0.1220
  178SLPC   H6R20233   8.083   5.724   6.939  0.5989 -2.0223 -0.0633
  178SLPC   H6S20234   7.930   5.718   6.836 -0.2286  1.7667  0.4832
  178SLPC   C2720235   7.990   5.534   6.932 -0.1440  0.1163 -1.0597
  178SLPC   H7R20236   7.940   5.492   6.843 -0.6109  1.8377 -1.6435
  178SLPC   H7S20237   7.932   5.490   7.016 -0.8653  0.7600 -1.2055
  178SLPC   C2820238   8.137   5.484   6.961 -0.5633 -0.3782 -0.2154
  178SLPC   H8R20239   8.150   5.496   7.070 -0.3920  1.0016 -0.3679
  178SLPC   H8S20240   8.212   5.547   6.909 -0.3026  0.1996  0.8314
  178SLPC   C2920241   8.143   5.346   6.915 -0.2005 -0.6224 -0.2763
  178SLPC   H9R20242   8.096   5.284   6.993  0.4098  0.5705  1.1016
  178SLPC  C21020243   8.200   5.299   6.802 -1.0428 -0.2259 -0.1554
  178SLPC  H10R20244   8.203   5.189   6.799  0.2476 -0.5071  4.1942
  178SLPC  C21120245   8.270   5.380   6.695  0.3483 -0.6926  0.6655
  178SLPC  H11R20246   8.249   5.488   6.711 -0.7997 -0.8834  0.5571
  178SLPC  H11S20247   8.231   5.358   6.594  2.4833  0.7861 -0.5573
  178SLPC  C21220248   8.415   5.337   6.696  0.2532 -0.0218 -0.0106
  178SLPC  H12R20249   8.455   5.328   6.798  0.0991 -0.2168  0.0330
  178SLPC  C21320250   8.501   5.348   6.596 -0.7013 -0.0525 -0.0412
  178SLPC  H13R20251   8.608   5.331   6.618 -0.8384  1.1231  1.7240
  178SLPC  C21420252   8.487   5.402   6.454 -0.1535  0.6585  0.3372
  178SLPC  H14R20253   8.553   5.490   6.441 -0.8061  0.7486 -3.3553
  178SLPC  H14S20254   8.384   5.436   6.432  0.0663  1.4269  0.4585
  178SLPC  C21520255   8.529   5.297   6.345 -0.6891  0.1992  0.7985
  178SLPC  H15R20256   8.441   5.231   6.330 -0.7868  0.3776  0.5919
  178SLPC  H15S20257   8.624   5.240   6.355  0.2076  1.3433 -0.8289
  178SLPC  C21620258   8.547   5.374   6.208 -0.8897  0.2353 -0.3519
  178SLPC  H16R20259   8.634   5.443   6.213  0.4694 -1.4690  1.4002
  178SLPC  H16S20260   8.458   5.432   6.177 -1.3902 -1.4268 -2.1474
  178SLPC  C21720261   8.566   5.271   6.098 -0.2903  0.1557  0.2621
  178SLPC  H17R20262   8.480   5.201   6.094  1.2037 -1.7458 -0.0220
  178SLPC  H17S20263   8.649   5.198   6.112 -2.3896 -2.3868  0.1711
  178SLPC  C21820264   8.598   5.344   5.963 -0.1603  0.3082 -0.1654
  178SLPC  H18R20265   8.687   5.410   5.954 -0.8771  1.1966 -0.8720
  178SLPC  H18S20266   8.515   5.409   5.931 -0.8466  0.1849  1.2959
  178SLPC  H18T20267   8.602   5.265   5.884 -0.5760  0.5211 -0.4021
  178SLPC   C3320268   7.170   5.691   6.719 -0.9608  0.6332  0.3903
  178SLPC   H3X20269   7.098   5.752   6.779 -3.8060  0.5416 -2.6305
  178SLPC   H3Y20270   7.106   5.624   6.658 -1.8565  0.7959  1.1220
  178SLPC   C3420271   7.256   5.770   6.625 -0.3418 -0.5011 -0.2614
  178SLPC   H4X20272   7.325   5.837   6.679  2.3129 -1.8155 -1.8247
  178SLPC   H4Y20273   7.179   5.837   6.582  0.4051  0.6213  0.1165
  178SLPC   C3520274   7.322   5.681   6.515 -0.5440  0.2551 -0.0719
  178SLPC   H5X20275   7.237   5.628   6.467 -0.8915 -0.3802  1.2238
  178SLPC   H5Y20276   7.388   5.606   6.563 -0.0608  0.0396 -1.0461
  178SLPC   C3620277   7.407   5.763   6.416  0.4218 -0.2953  0.1505
  178SLPC   H6X20278   7.490   5.795   6.482 -0.2880  2.7109 -0.2483
  178SLPC   H6Y20279   7.360   5.856   6.377 -1.1931  0.2123  3.0616
  178SLPC   C3720280   7.466   5.682   6.303 -0.4817  0.2785 -0.0456
  178SLPC   H7X20281   7.386   5.675   6.226  0.0912  0.3875 -0.6597
  178SLPC   H7Y20282   7.495   5.580   6.337  2.2017  0.8840 -0.2572
  178SLPC   C3820283   7.585   5.749   6.229  1.2295  0.0227  0.1868
  178SLPC   H8X20284   7.654   5.755   6.316  0.3290 -0.5660  0.9541
  178SLPC   H8Y20285   7.552   5.848   6.191  0.0019 -0.2036  0.6223
  178SLPC   C3920286   7.648   5.651   6.126 -0.0919 -0.0775 -1.1098
  178SLPC   H9X20287   7.570   5.599   6.065  0.5149 -1.8629 -0.4297
  178SLPC   H9Y20288   7.690   5.568   6.187  0.8946  2.1004  1.3322
  178SLPC  C31020289   7.750   5.717   6.030  0.1120  0.3670 -0.6827
  178SLPC  H10X20290   7.821   5.774   6.093  0.6042  0.4369 -1.2963
  178SLPC  H10Y20291   7.703   5.793   5.964  2.8089  1.8195 -1.0754
  178SLPC  C31120292   7.823   5.617   5.938  0.2042 -0.4877 -0.1074
  178SLPC  H11X20293   7.865   5.534   5.998  1.5778  0.1837 -0.0960
  178SLPC  H11Y20294   7.911   5.663   5.887  0.0943  0.7774  0.7814
  178SLPC  C31220295   7.730   5.560   5.825 -0.5329 -0.2367  0.1131
  178SLPC  H12X20296   7.702   5.653   5.772 -0.2993 -0.6845 -0.8097
  178SLPC  H12Y20297   7.638   5.511   5.864 -1.7361  1.7310 -0.1359
  178SLPC  C31320298   7.809   5.468   5.737 -0.6696 -0.2465  0.7907
  178SLPC  H13X20299   7.840   5.371   5.782  1.3843 -1.4058 -2.6911
  178SLPC  H13Y20300   7.908   5.511   5.710 -1.2242  0.4294 -0.2581
  178SLPC  C31420301   7.735   5.425   5.603 -0.5101 -0.6223 -0.9993
  178SLPC  H14X20302   7.679   5.515   5.571  1.1558  0.9435  0.2693
  178SLPC  H14Y20303   7.663   5.344   5.626  0.6602 -1.8341 -1.4630
  178SLPC  C31520304   7.841   5.363   5.501  0.2979 -0.2439 -0.4261
  178SLPC  H15X20305   7.935   5.325   5.547  1.2394  2.1703 -0.2084
  178SLPC  H15Y20306   7.865   5.451   5.437 -2.6771  1.9976  1.2455
  178SLPC  C31620307   7.768   5.260   5.404  0.0121  0.2545  0.0326
  178SLPC  H16X20308   7.686   5.310   5.349 -1.3137 -0.9413  0.8413
  178SLPC  H16Y20309   7.726   5.172   5.457  0.4391  0.4188  0.6479
  178SLPC  C31720310   7.858   5.203   5.292  0.4017  0.0896 -0.5683
  178SLPC  H17X20311   7.956   5.176   5.336  0.4637  0.2200 -0.6277
  178SLPC  H17Y20312   7.894   5.283   5.224  2.0662 -1.7670 -2.0021
  178SLPC  C31820313   7.785   5.093   5.218  0.7455 -0.0758  0.7080
  178SLPC  H18X20314   7.770   5.010   5.289  0.1333  0.3730  1.1083
  178SLPC  H18Y20315   7.840   5.046   5.133 -0.6819 -1.9344  0.7536
  178SLPC  H18Z20316   7.685   5.130   5.186  1.0529  0.0165 -0.1959
  179SLPC     N20317   2.920   6.648   2.661  0.5553  0.3783  0.1719
  179SLPC   C1320318   2.990   6.562   2.576  0.0845  0.4664 -0.2962
  179SLPC  H13A20319   2.991   6.579   2.470  1.2944  0.9628 -0.2316
  179SLPC  H13B20320   3.097   6.562   2.595  0.6364  3.2075 -2.7360
  179SLPC  H13C20321   2.948   6.463   2.587 -1.2106  1.1583  1.3770
  179SLPC   C1420322   2.958   6.618   2.798 -0.5331  0.8342  0.1183
  179SLPC  H14A20323   3.062   6.642   2.817 -0.2419 -0.7146  0.6630
  179SLPC  H14B20324   2.898   6.672   2.870 -2.4408  0.0091 -0.7918
  179SLPC  H14C20325   2.944   6.515   2.827  0.4102 -0.1349 -2.5333
  179SLPC   C1520326   2.771   6.635   2.650  0.0026 -0.4540 -0.0986
  179SLPC  H15A20327   2.758   6.534   2.685  1.2369 -1.6779 -2.8711
  179SLPC  H15B20328   2.719   6.704   2.715 -1.0559  0.5573 -1.9176
  179SLPC  H15C20329   2.749   6.651   2.545  3.8103  1.6013 -0.7834
  179SLPC   C1220330   2.948   6.796   2.625  0.0767 -0.6588 -0.5053
  179SLPC  H12A20331   2.903   6.811   2.528 -0.6147 -0.7689 -0.2091
  179SLPC  H12B20332   3.054   6.808   2.611  0.1542  0.9552  1.0613
  179SLPC   C1120333   2.893   6.912   2.708  0.3817 -0.0465  0.7725
  179SLPC  H11A20334   2.788   6.897   2.741  0.2964  0.1722  0.6057
  179SLPC  H11B20335   2.891   7.009   2.654 -1.3795 -0.8883 -0.7950
  179SLPC     P20336   3.102   6.984   2.835  0.1132 -0.1810  0.3271
  179SLPC   O1320337   3.166   6.936   2.955 -0.0030  0.6387  0.4184
  179SLPC   O1420338   3.175   6.965   2.711 -0.1557 -0.5353  0.1743
  179SLPC   O1220339   2.959   6.928   2.831 -0.4276  0.4791  0.3533
  179SLPC   O1120340   3.087   7.140   2.840 -0.2272  0.6945 -0.5148
  179SLPC    C120341   2.965   7.200   2.876 -0.3617  0.0191 -0.2942
  179SLPC    HA20342   2.931   7.266   2.793 -2.5926  0.3684  0.8408
  179SLPC    HB20343   2.881   7.131   2.899 -0.1791  0.2614  1.1595
  179SLPC    C220344   2.967   7.286   3.006  0.2764  1.3470  0.3347
  179SLPC    HS20345   3.019   7.382   2.989 -1.2379  1.8896 -1.5744
  179SLPC   O2120346   3.039   7.218   3.110  0.5283  0.0355  0.0362
  179SLPC   C2120347   3.174   7.205   3.098  1.0404 -0.3220  0.4068
  179SLPC   O2220348   3.242   7.261   3.016 -0.0554 -0.2324 -0.2413
  179SLPC   C2220349   3.219   7.117   3.216  0.1110 -0.8557  0.1166
  179SLPC   H2R20350   3.139   7.087   3.288  2.4985 -3.2379  1.9666
  179SLPC   H2S20351   3.260   7.025   3.169  1.8372 -0.1931  0.2736
  179SLPC    C320352   2.818   7.332   3.050 -0.1591 -0.3171  0.0232
  179SLPC    HX20353   2.743   7.293   2.979 -0.8389  1.3310 -0.1974
  179SLPC    HY20354   2.821   7.442   3.034  3.1404 -0.2599  0.3502
  179SLPC   O3120355   2.788   7.292   3.191 -0.7338 -0.5715 -0.5969
  179SLPC   C3120356   2.755   7.173   3.205 -0.6264  0.2137  0.2694
  179SLPC   O3220357   2.729   7.091   3.119 -0.2012  0.0587  0.5429
  179SLPC   C3220358   2.757   7.130   3.350  0.0214 -0.0066  0.1873
  179SLPC   H2X20359   2.762   7.019   3.349  4.7110  0.0055 -2.4742
  179SLPC   H2Y20360   2.654   7.154   3.384 -0.4830  0.7002 -1.6946
  179SLPC   C2320361   3.335   7.181   3.286  0.2433 -0.6929 -0.2187
  179SLPC   H3R20362   3.422   7.181   3.217  1.8215 -2.5320  1.6330
  179SLPC   H3S20363   3.354   7.110   3.370 -0.0620  1.2471  1.5716
  179SLPC   C2420364   3.315   7.328   3.332 -0.4554  0.2860  0.8611
  179SLPC   H4R20365   3.227   7.341   3.399  0.0041  0.4059  1.4447
  179SLPC   H4S20366   3.305   7.412   3.259 -2.6363 -0.2021  0.5293
  179SLPC   C2520367   3.437   7.356   3.420  0.1886  0.2410 -0.5403
  179SLPC   H5R20368   3.537   7.352   3.373  0.6683  1.9969  0.2337
  179SLPC   H5S20369   3.439   7.279   3.500 -0.7243 -0.0673 -0.8053
  179SLPC   C2620370   3.423   7.489   3.498 -0.4483  0.3334 -0.6220
  179SLPC   H6R20371   3.325   7.487   3.551 -0.1739  1.4817 -0.0516
  179SLPC   H6S20372   3.425   7.573   3.426  0.6370  1.7631  1.0140
  179SLPC   C2720373   3.535   7.522   3.599 -0.1980 -0.0411 -0.0644
  179SLPC   H7R20374   3.621   7.527   3.528 -0.4432 -2.3901 -0.6185
  179SLPC   H7S20375   3.551   7.434   3.665  2.0759  0.8066  0.5981
  179SLPC   C2820376   3.516   7.643   3.687  0.1894 -0.3323 -0.2965
  179SLPC   H8R20377   3.520   7.744   3.641 -0.4609  0.0334  0.4183
  179SLPC   H8S20378   3.604   7.639   3.754 -0.5812 -1.8055  0.6762
  179SLPC   C2920379   3.393   7.636   3.779  0.4894  0.7320  0.2357
  179SLPC   H9R20380   3.297   7.636   3.725 -0.8281 -0.2060  2.4535
  179SLPC  C21020381   3.390   7.638   3.912 -0.2289  0.1225 -0.2233
  179SLPC  H10R20382   3.291   7.646   3.959  0.7319 -0.9784  2.1828
  179SLPC  C21120383   3.498   7.630   4.012  0.0949  0.3356  0.3442
  179SLPC  H11R20384   3.545   7.727   4.039 -0.4416  0.8252 -0.4624
  179SLPC  H11S20385   3.583   7.576   3.966  0.7325  1.6958 -0.1245
  179SLPC  C21220386   3.456   7.566   4.145  0.2705  0.2659  0.6287
  179SLPC  H12R20387   3.383   7.621   4.207  0.5737  1.0599  0.2813
  179SLPC  C21320388   3.487   7.442   4.192  0.5712 -0.6542 -0.2279
  179SLPC  H13R20389   3.453   7.416   4.293  2.2122  0.0615  0.5401
  179SLPC  C21420390   3.577   7.340   4.130  0.0511  0.0419  0.1525
  179SLPC  H14R20391   3.661   7.313   4.197  0.2175  1.2702  0.4516
  179SLPC  H14S20392   3.611   7.385   4.034 -1.1908  1.0029  0.1382
  179SLPC  C21520393   3.509   7.198   4.108 -0.4038 -0.1041 -0.0531
  179SLPC  H15R20394   3.466   7.155   4.201  1.0607 -0.4386  0.5071
  179SLPC  H15S20395   3.594   7.132   4.077 -0.6829 -0.5290  0.0733
  179SLPC  C21620396   3.397   7.205   4.002  0.2618  0.5459  0.2984
  179SLPC  H16R20397   3.317   7.264   4.051  0.9639  1.5539  0.2780
  179SLPC  H16S20398   3.361   7.102   3.981  1.7193  0.1057 -0.1896
  179SLPC  C21720399   3.429   7.259   3.859  0.4894  0.0301  0.0623
  179SLPC  H17R20400   3.515   7.205   3.816 -0.7236 -0.2672 -2.0984
  179SLPC  H17S20401   3.459   7.366   3.854 -0.8663  0.7352  3.5217
  179SLPC  C21820402   3.317   7.228   3.763  0.3190  0.5791 -0.5519
  179SLPC  H18R20403   3.343   7.204   3.658 -0.4126  2.0805 -1.1035
  179SLPC  H18S20404   3.249   7.315   3.751  0.1804  0.8200  1.5996
  179SLPC  H18T20405   3.248   7.146   3.796  2.0695 -0.2582  1.2304
  179SLPC   C3320406   2.874   7.180   3.440  0.6775  0.4396  0.9188
  179SLPC   H3X20407   2.886   7.287   3.413 -1.8184 -0.0888 -3.1097
  179SLPC   H3Y20408   2.968   7.127   3.416 -0.2228 -1.8884  2.1840
  179SLPC   C3420409   2.842   7.152   3.588 -0.3605  0.4728 -0.3918
  179SLPC   H4X20410   2.863   7.045   3.609  0.0624  0.4260 -0.9918
  179SLPC   H4Y20411   2.739   7.176   3.622 -0.0969  0.6649  0.2818
  179SLPC   C3520412   2.923   7.242   3.688 -0.9719  0.4952  0.2222
  179SLPC   H5X20413   3.031   7.252   3.665 -0.6743 -0.8991  0.9100
  179SLPC   H5Y20414   2.889   7.347   3.680 -3.9101 -0.3872 -0.1748
  179SLPC   C3620415   2.911   7.200   3.837 -0.6350  0.3730 -0.4825
  179SLPC   H6X20416   2.973   7.108   3.842 -3.5168 -1.7245 -1.0597
  179SLPC   H6Y20417   2.808   7.174   3.868 -0.0166 -1.1544  0.3922
  179SLPC   C3720418   2.965   7.300   3.935 -0.2993  0.8793 -0.2344
  179SLPC   H7X20419   2.895   7.386   3.946 -1.4281 -0.2766  2.1053
  179SLPC   H7Y20420   3.063   7.338   3.897 -0.2217  1.6841  0.7162
  179SLPC   C3820421   2.996   7.258   4.081  0.0308  0.8547 -0.5335
  179SLPC   H8X20422   3.070   7.175   4.083 -0.6559  0.1881 -1.7376
  179SLPC   H8Y20423   2.901   7.218   4.123  0.9082 -2.4485 -1.4162
  179SLPC   C3920424   3.027   7.365   4.182 -0.7098 -0.0940  0.5765
  179SLPC   H9X20425   2.948   7.443   4.194 -2.1735 -1.2861 -0.7805
  179SLPC   H9Y20426   3.119   7.414   4.144 -0.4164 -0.2761  1.0459
  179SLPC  C31020427   3.071   7.304   4.321 -0.4615 -0.2315 -0.1206
  179SLPC  H10X20428   3.162   7.244   4.298 -0.0799  0.4485 -0.4234
  179SLPC  H10Y20429   2.985   7.248   4.363 -0.8849  0.4289 -0.1043
  179SLPC  C31120430   3.112   7.419   4.419  0.2579  0.0616  0.0330
  179SLPC  H11X20431   3.139   7.512   4.364  2.2585 -0.5147 -0.0577
  179SLPC  H11Y20432   3.202   7.375   4.467  2.9797  2.9082 -2.0486
  179SLPC  C31220433   3.017   7.474   4.528  0.2040  0.6305 -0.4217
  179SLPC  H12X20434   2.914   7.476   4.488  0.8326 -0.1456 -2.1823
  179SLPC  H12Y20435   3.044   7.581   4.538  0.1477  0.5172  1.1337
  179SLPC  C31320436   3.011   7.395   4.656 -1.1487 -0.2960  0.2738
  179SLPC  H13X20437   3.099   7.414   4.720 -0.3487 -0.8961 -0.6145
  179SLPC  H13Y20438   3.004   7.286   4.633 -0.1020 -0.2362 -0.4131
  179SLPC  C31420439   2.885   7.436   4.727  0.2807 -0.5396  0.2272
  179SLPC  H14X20440   2.800   7.395   4.668 -1.9398  0.1860  2.7246
  179SLPC  H14Y20441   2.879   7.546   4.737 -2.2763 -0.7979  2.5716
  179SLPC  C31520442   2.873   7.373   4.864  0.0247  0.1747  0.6734
  179SLPC  H15X20443   2.958   7.378   4.935 -0.0408 -2.6240  1.0899
  179SLPC  H15Y20444   2.866   7.263   4.849 -2.0956  0.3881 -0.2481
  179SLPC  C31620445   2.749   7.436   4.931  0.1406  0.4117 -0.2778
  179SLPC  H16X20446   2.739   7.545   4.910  1.0717  0.8602  1.4680
  179SLPC  H16Y20447   2.760   7.431   5.041  0.9849  1.7790 -0.2778
  179SLPC  C31720448   2.608   7.377   4.899  0.0831  0.1309 -0.4009
  179SLPC  H17X20449   2.564   7.404   4.801 -1.0347 -1.1288 -0.2670
  179SLPC  H17Y20450   2.544   7.417   4.980 -0.2414  0.7663 -0.9701
  179SLPC  C31820451   2.612   7.222   4.916 -0.3804  0.1392 -0.0929
  179SLPC  H18X20452   2.632   7.163   4.824 -0.6299  1.4447 -1.0100
  179SLPC  H18Y20453   2.515   7.194   4.961 -0.6764  0.4828 -0.5177
  179SLPC  H18Z20454   2.691   7.199   4.991  1.5029  0.6088 -1.8150
  180SLPC     N20455   2.409   0.631   2.390  0.4261 -0.2423 -0.2964
  180SLPC   C1320456   2.257   0.616   2.403  0.1712  0.3759 -0.2128
  180SLPC  H13A20457   2.210   0.709   2.372 -2.1822 -1.3091 -2.1659
  180SLPC  H13B20458   2.213   0.545   2.334 -1.2763 -0.2887  1.3108
  180SLPC  H13C20459   2.230   0.578   2.500  0.3602 -1.0569 -0.7045
  180SLPC   C1420460   2.424   0.721   2.270  0.0581  0.0608 -0.3038
  180SLPC  H14A20461   2.422   0.667   2.176  0.1284  3.9896 -2.8025
  180SLPC  H14B20462   2.342   0.791   2.266 -0.6113 -0.7567 -2.1222
  180SLPC  H14C20463   2.516   0.777   2.272  0.7148 -1.0021  0.4577
  180SLPC   C1520464   2.471   0.495   2.369 -0.2937 -0.0854 -0.5591
  180SLPC  H15A20465   2.577   0.511   2.362 -0.1652 -1.1091 -1.1351
  180SLPC  H15B20466   2.461   0.435   2.459  0.5220  1.7898  0.8571
  180SLPC  H15C20467   2.445   0.448   2.275  0.1812 -2.9822  0.6583
  180SLPC   C1220468   2.462   0.692   2.510  0.6275 -0.8234 -0.4350
  180SLPC  H12A20469   2.417   0.789   2.524  1.4003 -0.4801 -0.2981
  180SLPC  H12B20470   2.564   0.727   2.503  0.2901  0.8552  1.8739
  180SLPC   C1120471   2.431   0.623   2.638 -0.0460 -0.1415  0.5382
  180SLPC  H11A20472   2.499   0.672   2.711  0.0742 -0.0187  0.3453
  180SLPC  H11B20473   2.429   0.512   2.631 -1.2529 -0.1248  0.3230
  180SLPC     P20474   2.261   0.612   2.826 -0.2227 -0.1867  0.0340
  180SLPC   O1320475   2.123   0.561   2.831  0.2047  0.6093 -0.1239
  180SLPC   O1420476   2.358   0.521   2.887 -0.8132 -0.5596  0.2292
  180SLPC   O1220477   2.297   0.655   2.675 -0.5830  0.4985  0.7368
  180SLPC   O1120478   2.263   0.746   2.904 -0.6157 -0.3075 -0.6720
  180SLPC    C120479   2.397   0.807   2.923 -0.6591 -0.7270  0.0722
  180SLPC    HA20480   2.485   0.740   2.912 -0.4179 -0.1525 -1.8490
  180SLPC    HB20481   2.416   0.883   2.844  0.7576 -0.1203  0.9646
  180SLPC    C220482   2.410   0.880   3.060 -0.3200 -0.2780 -0.3827
  180SLPC    HS20483   2.495   0.952   3.060  0.6670 -1.1519 -4.4944
  180SLPC   O2120484   2.425   0.793   3.172  0.0335  0.0738 -0.1028
  180SLPC   C2120485   2.532   0.714   3.170  0.0230 -0.3718  0.2825
  180SLPC   O2220486   2.628   0.730   3.094 -0.2418  0.0209 -0.6137
  180SLPC   C2220487   2.530   0.607   3.267  0.4781 -0.2026 -0.5062
  180SLPC   H2R20488   2.443   0.542   3.246  1.3777 -1.2123 -1.2257
  180SLPC   H2S20489   2.620   0.543   3.255  0.3250 -0.8129  1.2742
  180SLPC    C320490   2.277   0.963   3.088 -0.1911  0.5189 -0.0590
  180SLPC    HX20491   2.218   0.881   3.133  1.9074 -0.4319  1.1304
  180SLPC    HY20492   2.244   1.002   2.989  0.1590  1.6863  0.2670
  180SLPC   O3120493   2.308   1.065   3.179 -0.6782 -0.1829  0.2755
  180SLPC   C3120494   2.213   1.107   3.261  0.2899  0.1068 -0.9242
  180SLPC   O3220495   2.091   1.084   3.252 -0.9309  0.4023 -0.1901
  180SLPC   C3220496   2.280   1.214   3.354  0.0390  1.0099 -0.9411
  180SLPC   H2X20497   2.229   1.312   3.343 -2.0015  0.2152  0.7131
  180SLPC   H2Y20498   2.380   1.233   3.310  1.1087 -3.4351 -0.9614
  180SLPC   C2320499   2.525   0.663   3.415 -0.2212  0.2449  0.9150
  180SLPC   H3R20500   2.424   0.701   3.441 -0.3607 -0.5955  1.6687
  180SLPC   H3S20501   2.589   0.753   3.429 -0.1065  0.5558 -1.2813
  180SLPC   C2420502   2.559   0.556   3.529  0.2077 -0.1259 -0.0722
  180SLPC   H4R20503   2.664   0.521   3.522  1.3089  2.7400  0.8380
  180SLPC   H4S20504   2.487   0.471   3.532  0.0526 -0.0067 -0.3070
  180SLPC   C2520505   2.558   0.624   3.662  0.5849 -0.0324  0.6913
  180SLPC   H5R20506   2.463   0.681   3.673  0.1466 -0.7340  0.6244
  180SLPC   H5S20507   2.621   0.715   3.659 -0.5416  0.7249 -1.5876
  180SLPC   C2620508   2.573   0.535   3.787 -0.0792 -0.1509  0.1954
  180SLPC   H6R20509   2.655   0.461   3.770 -1.4310 -1.5156 -0.6065
  180SLPC   H6S20510   2.482   0.473   3.773 -1.3559  1.8394 -0.5854
  180SLPC   C2720511   2.565   0.614   3.913  0.5371 -0.3115  0.0116
  180SLPC   H7R20512   2.491   0.696   3.899  0.0548 -0.7412  0.0240
  180SLPC   H7S20513   2.663   0.659   3.941 -0.5776  0.7364  2.5461
  180SLPC   C2820514   2.510   0.542   4.031 -0.5109  0.1702 -0.4957
  180SLPC   H8R20515   2.540   0.435   4.038  0.9685  0.5977  0.0200
  180SLPC   H8S20516   2.399   0.538   4.031 -0.4966 -1.1607  0.7962
  180SLPC   C2920517   2.529   0.613   4.162 -0.1064  0.5168  0.4063
  180SLPC   H9R20518   2.482   0.713   4.162 -0.8478  0.1815  1.6281
  180SLPC  C21020519   2.582   0.566   4.273 -0.3801 -0.3255 -0.5457
  180SLPC  H10R20520   2.592   0.632   4.361  0.5786 -1.2622  0.0689
  180SLPC  C21120521   2.646   0.433   4.309  0.2638 -0.7135 -1.1977
  180SLPC  H11R20522   2.739   0.458   4.365 -0.9455  3.0844 -0.5480
  180SLPC  H11S20523   2.680   0.382   4.217  0.7806 -0.3975 -1.1845
  180SLPC  C21220524   2.552   0.350   4.397 -0.6636  0.2192  0.1328
  180SLPC  H12R20525   2.451   0.390   4.415 -0.2209  1.7986 -0.6598
  180SLPC  C21320526   2.585   0.237   4.453 -0.4223  0.1479  0.1365
  180SLPC  H13R20527   2.520   0.191   4.529 -1.3428 -0.3228 -0.9151
  180SLPC  C21420528   2.718   0.157   4.438  0.3444 -0.6316  0.1293
  180SLPC  H14R20529   2.760   0.174   4.337 -0.8641  0.9629 -0.1452
  180SLPC  H14S20530   2.689   0.050   4.436  1.2117 -0.9673 -4.3841
  180SLPC  C21520531   2.816   0.191   4.543  0.1240 -0.3989 -0.4864
  180SLPC  H15R20532   2.769   0.178   4.643  1.0315 -0.9730 -0.1213
  180SLPC  H15S20533   2.849   0.297   4.535  0.7822 -0.7179 -2.7874
  180SLPC  C21620534   2.939   0.098   4.541 -0.3018  0.8082  0.7526
  180SLPC  H16R20535   3.008   0.150   4.610  0.9526  3.4150 -2.2231
  180SLPC  H16S20536   3.005   0.099   4.451  0.9988  1.0433  1.6759
  180SLPC  C21720537   2.901  -0.048   4.587  0.6472  0.6304 -0.3199
  180SLPC  H17R20538   2.821  -0.089   4.521  1.7212 -1.1659 -0.5685
  180SLPC  H17S20539   2.850  -0.039   4.685  1.0736 -2.3906  0.2482
  180SLPC  C21820540   3.013  -0.148   4.589  0.2070  0.2126  0.7653
  180SLPC  H18R20541   2.990  -0.243   4.641  1.5443  0.2486  1.4730
  180SLPC  H18S20542   3.110  -0.115   4.631  1.6799 -0.8288 -1.5770
  180SLPC  H18T20543   3.045  -0.174   4.485 -2.3164  2.8477 -0.8215
  180SLPC   C3320544   2.294   1.155   3.499 -0.3747  0.5255 -0.8124
  180SLPC   H3X20545   2.377   1.214   3.544  0.0472 -0.3869 -0.3648
  180SLPC   H3Y20546   2.308   1.044   3.505  0.9462  0.6866 -0.5255
  180SLPC   C3420547   2.170   1.189   3.578  0.0418 -0.2419 -0.3515
  180SLPC   H4X20548   2.086   1.143   3.522  0.6713  1.4553 -2.8672
  180SLPC   H4Y20549   2.153   1.298   3.563 -3.7330 -0.6837 -0.3671
  180SLPC   C3520550   2.165   1.170   3.732  0.5600 -0.0990  1.0916
  180SLPC   H5X20551   2.078   1.230   3.764  0.6179 -0.6380  2.3204
  180SLPC   H5Y20552   2.260   1.210   3.774 -0.9492  1.3823  3.2882
  180SLPC   C3620553   2.130   1.035   3.786 -0.1455  0.4483  0.3023
  180SLPC   H6X20554   2.212   0.967   3.756  0.9085  0.3944  3.0277
  180SLPC   H6Y20555   2.031   1.008   3.743 -0.4016 -0.1187  1.2340
  180SLPC   C3720556   2.132   1.038   3.938  1.0370  0.5830 -0.4669
  180SLPC   H7X20557   2.048   1.100   3.978 -0.7535 -0.9679 -1.6850
  180SLPC   H7Y20558   2.220   1.094   3.975  1.2890 -0.7808  1.1255
  180SLPC   C3820559   2.132   0.895   3.998  0.4012  1.0390  0.5000
  180SLPC   H8X20560   2.219   0.836   3.963 -1.3914 -1.2018 -0.4251
  180SLPC   H8Y20561   2.040   0.849   3.957  0.3828  2.5309 -1.2639
  180SLPC   C3920562   2.150   0.891   4.149 -0.6111  0.2622  0.5575
  180SLPC   H9X20563   2.071   0.956   4.191 -2.6563 -0.7536 -1.4836
  180SLPC   H9Y20564   2.250   0.935   4.172  0.7327 -1.4531 -1.5686
  180SLPC  C31020565   2.135   0.754   4.217 -0.0623 -0.6510 -0.8631
  180SLPC  H10X20566   2.199   0.685   4.159 -0.4294 -1.1624 -0.6623
  180SLPC  H10Y20567   2.026   0.731   4.218  0.0805 -1.3929  0.4134
  180SLPC  C31120568   2.189   0.763   4.365  0.6470 -0.3233  0.1143
  180SLPC  H11X20569   2.129   0.842   4.416 -1.2437 -1.0714 -0.8889
  180SLPC  H11Y20570   2.294   0.802   4.365 -0.1385  1.9761 -1.0222
  180SLPC  C31220571   2.184   0.631   4.450 -0.1055 -0.0410 -0.7197
  180SLPC  H12X20572   2.266   0.579   4.396 -1.0750 -1.9916 -0.4152
  180SLPC  H12Y20573   2.089   0.580   4.424  0.0282 -0.6190 -0.1292
  180SLPC  C31320574   2.216   0.647   4.593 -0.2197 -1.0428  0.4312
  180SLPC  H13X20575   2.303   0.713   4.611 -2.2117  1.7179  0.6440
  180SLPC  H13Y20576   2.234   0.547   4.639 -3.2381 -2.3009 -0.8377
  180SLPC  C31420577   2.102   0.717   4.663 -0.1323  0.1684 -0.3627
  180SLPC  H14X20578   2.012   0.657   4.638  0.0315  0.4940 -1.8089
  180SLPC  H14Y20579   2.087   0.817   4.618  0.3415  0.3031 -0.2254
  180SLPC  C31520580   2.125   0.725   4.816  0.9945 -0.5948 -0.1215
  180SLPC  H15X20581   2.217   0.782   4.843  0.3466 -0.7467  2.6964
  180SLPC  H15Y20582   2.133   0.625   4.862  0.2044  0.7172  3.1757
  180SLPC  C31620583   2.003   0.792   4.873 -0.4206  0.7825 -0.2161
  180SLPC  H16X20584   1.912   0.752   4.822 -0.7553 -0.8549  1.5698
  180SLPC  H16Y20585   2.025   0.900   4.859  2.2246  0.3869  0.4734
  180SLPC  C31720586   1.990   0.760   5.025 -0.5505  0.1839 -0.5954
  180SLPC  H17X20587   1.996   0.649   5.037 -0.1367  0.4063  1.7715
  180SLPC  H17Y20588   1.885   0.786   5.051 -0.9232  1.3249 -2.9849
  180SLPC  C31820589   2.093   0.835   5.115  0.5729  0.1364 -0.6280
  180SLPC  H18X20590   2.089   0.946   5.119 -0.6356  0.0825  0.8468
  180SLPC  H18Y20591   2.196   0.795   5.109  0.7917  0.5911 -0.0327
  180SLPC  H18Z20592   2.064   0.800   5.217  3.3906 -1.0734 -0.1675
  181SLPC     N20593   2.120   6.540   2.870 -0.3765 -0.3552 -0.1508
  181SLPC   C1320594   2.077   6.411   2.937  0.7498  0.1056  0.0506
  181SLPC  H13A20595   2.156   6.380   3.003 -0.1264  0.8386  1.4883
  181SLPC  H13B20596   1.988   6.430   2.995 -0.8998  1.3345 -2.7149
  181SLPC  H13C20597   2.053   6.331   2.869 -2.4639 -0.8797  2.1007
  181SLPC   C1420598   2.138   6.635   2.993  0.0267 -0.5605  0.7642
  181SLPC  H14A20599   2.179   6.577   3.075  3.1824 -1.0273 -0.9792
  181SLPC  H14B20600   2.197   6.725   2.983  1.1781 -1.4929 -1.5856
  181SLPC  H14C20601   2.038   6.666   3.021  0.5332  0.6737  1.2637
  181SLPC   C1520602   2.007   6.584   2.788 -0.5184 -0.2404 -0.3588
  181SLPC  H15A20603   1.980   6.514   2.711 -0.7417 -2.4458  1.6334
  181SLPC  H15B20604   1.917   6.611   2.841 -1.2293  0.7524 -1.9833
  181SLPC  H15C20605   2.023   6.671   2.725 -1.3542 -0.1583 -0.4711
  181SLPC   C1220606   2.247   6.526   2.794 -0.2130 -0.0330  0.5873
  181SLPC  H12A20607   2.269   6.617   2.741  0.2893  0.4773  1.6666
  181SLPC  H12B20608   2.237   6.446   2.721  2.0398  0.1386  0.0139
  181SLPC   C1120609   2.377   6.501   2.866  0.4012 -0.0262 -0.1368
  181SLPC  H11A20610   2.395   6.576   2.946 -3.5469 -0.4048  1.3223
  181SLPC  H11B20611   2.459   6.509   2.791 -0.8458  1.6319 -1.4057
  181SLPC     P20612   2.413   6.233   2.850 -0.1343 -0.1813  0.3699
  181SLPC   O1320613   2.325   6.212   2.734 -0.1355 -0.2059  0.3125
  181SLPC   O1420614   2.555   6.220   2.824 -0.0749 -0.2477  0.2810
  181SLPC   O1220615   2.380   6.369   2.924  0.3688  0.6459  0.1120
  181SLPC   O1120616   2.367   6.122   2.954  0.5547  0.2863 -0.4255
  181SLPC    C120617   2.419   6.111   3.094 -0.0655 -0.3442  0.3279
  181SLPC    HA20618   2.407   6.004   3.119  1.1810 -1.1594 -2.1561
  181SLPC    HB20619   2.526   6.141   3.090 -0.3458  0.7025  0.3481
  181SLPC    C220620   2.337   6.210   3.182  0.1834 -0.0317 -1.3440
  181SLPC    HS20621   2.238   6.228   3.135 -0.8624 -3.4326 -0.7877
  181SLPC   O2120622   2.416   6.327   3.196  0.2317 -0.1113  0.0799
  181SLPC   C2120623   2.342   6.430   3.217  0.3923 -0.4197 -0.9494
  181SLPC   O2220624   2.220   6.434   3.203 -0.1848  0.0313 -0.1070
  181SLPC   C2220625   2.426   6.544   3.271 -0.2237 -0.0270  0.4015
  181SLPC   H2R20626   2.473   6.501   3.362 -1.5426 -1.7058  0.3560
  181SLPC   H2S20627   2.503   6.573   3.197  0.6927 -2.1391  0.4713
  181SLPC    C320628   2.314   6.142   3.318 -0.2607 -0.2973  0.0548
  181SLPC    HX20629   2.409   6.112   3.369  0.2183 -0.6810 -1.0321
  181SLPC    HY20630   2.251   6.051   3.307  0.5808 -0.7119 -1.7471
  181SLPC   O3120631   2.256   6.234   3.415 -0.2976 -0.1304  0.2074
  181SLPC   C3120632   2.123   6.237   3.412  0.7208 -0.1559 -0.7461
  181SLPC   O3220633   2.052   6.155   3.366 -0.0585 -0.5643 -0.8340
  181SLPC   C3220634   2.082   6.355   3.501 -0.5416 -0.3389  0.3401
  181SLPC   H2X20635   1.971   6.362   3.493 -0.5214  2.0749  1.4967
  181SLPC   H2Y20636   2.128   6.444   3.453  1.8291 -1.9560 -0.5596
  181SLPC   C2320637   2.345   6.677   3.292 -0.3741 -0.6548 -0.2409
  181SLPC   H3R20638   2.260   6.662   3.362 -0.1924 -2.0034 -0.2827
  181SLPC   H3S20639   2.313   6.720   3.194 -0.2220  1.5389  0.6170
  181SLPC   C2420640   2.427   6.798   3.372  0.8385  0.5158  0.9203
  181SLPC   H4R20641   2.356   6.881   3.392 -1.5132 -1.3573  0.7156
  181SLPC   H4S20642   2.518   6.825   3.314  0.5266 -0.7583 -0.2175
  181SLPC   C2520643   2.457   6.764   3.523 -0.6454  0.4023 -0.7396
  181SLPC   H5R20644   2.542   6.693   3.527  1.1994  2.5787  0.7325
  181SLPC   H5S20645   2.371   6.717   3.576  0.1069 -0.9924 -0.7043
  181SLPC   C2620646   2.508   6.878   3.603  0.2666 -0.1676  0.1171
  181SLPC   H6R20647   2.438   6.964   3.598  0.7414  0.1514 -1.5711
  181SLPC   H6S20648   2.607   6.895   3.554  0.1707 -0.8612 -0.3224
  181SLPC   C2720649   2.535   6.852   3.748 -0.2318  0.3389  0.1637
  181SLPC   H7R20650   2.585   6.754   3.761 -0.5765  0.1860  0.3473
  181SLPC   H7S20651   2.438   6.838   3.800 -0.1082  0.1630  0.3456
  181SLPC   C2820652   2.613   6.975   3.799 -0.1915  0.7646 -0.5731
  181SLPC   H8R20653   2.552   7.066   3.779 -0.9732  0.4872  0.4617
  181SLPC   H8S20654   2.711   6.981   3.748  0.6595 -0.2598  0.8678
  181SLPC   C2920655   2.641   6.956   3.944 -0.4899 -1.0403 -0.5887
  181SLPC   H9R20656   2.728   6.897   3.977 -1.2364 -1.3513  0.8986
  181SLPC  C21020657   2.558   6.992   4.049 -0.1522 -0.5507  0.1914
  181SLPC  H10R20658   2.607   6.995   4.148  2.0571  2.4154 -0.8043
  181SLPC  C21120659   2.426   7.061   4.038  0.2057  0.3570  0.2772
  181SLPC  H11R20660   2.415   7.119   3.944  0.0695 -1.1106 -0.6312
  181SLPC  H11S20661   2.428   7.139   4.117  1.9116 -0.1154  0.7452
  181SLPC  C21220662   2.304   6.974   4.051  0.3178 -0.2429  0.0104
  181SLPC  H12R20663   2.313   6.884   3.988  0.9375 -2.0219  2.4965
  181SLPC  C21320664   2.202   6.987   4.142  0.4104  0.0243  0.4190
  181SLPC  H13R20665   2.119   6.916   4.129  0.6921 -0.2135 -0.0816
  181SLPC  C21420666   2.177   7.087   4.248 -0.2257 -0.6212 -0.2388
  181SLPC  H14R20667   2.072   7.124   4.250  0.4229  1.3057 -0.3286
  181SLPC  H14S20668   2.241   7.177   4.237  0.2530 -0.8204  0.7722
  181SLPC  C21520669   2.204   7.030   4.391 -0.5581  0.0750  0.5206
  181SLPC  H15R20670   2.312   7.003   4.394 -0.6023 -0.2763 -0.8042
  181SLPC  H15S20671   2.141   6.938   4.392  1.9157 -1.7395 -0.0759
  181SLPC  C21620672   2.179   7.122   4.507  0.0412  0.8457 -0.0448
  181SLPC  H16R20673   2.077   7.164   4.492 -0.0110  0.9935  0.7021
  181SLPC  H16S20674   2.250   7.208   4.508  0.2667  0.6669 -0.3374
  181SLPC  C21720675   2.180   7.038   4.645  0.4054 -0.2875 -0.5184
  181SLPC  H17R20676   2.282   6.995   4.659  0.3283  0.2414  2.0170
  181SLPC  H17S20677   2.113   6.951   4.631  1.1993 -1.3979  1.9864
  181SLPC  C21820678   2.143   7.132   4.763  0.4847  0.2848  0.0900
  181SLPC  H18R20679   2.205   7.224   4.775 -0.8073  1.1594  0.2643
  181SLPC  H18S20680   2.136   7.077   4.859  2.6275 -0.2601 -0.0230
  181SLPC  H18T20681   2.037   7.162   4.753  0.2647 -1.0630 -2.3131
  181SLPC   C3320682   2.127   6.343   3.647  0.3740  0.6056 -0.6247
  181SLPC   H3X20683   2.223   6.286   3.653 -0.4630 -0.6909  1.3665
  181SLPC   H3Y20684   2.050   6.295   3.711  3.2623 -0.5259  2.2892
  181SLPC   C3420685   2.144   6.489   3.700 -0.5109  0.6991  0.1777
  181SLPC   H4X20686   2.049   6.546   3.690  0.2742  2.1319  0.5227
  181SLPC   H4Y20687   2.211   6.549   3.635 -0.0310  2.0340  1.8074
  181SLPC   C3520688   2.187   6.482   3.850  0.0271 -0.2520  0.5941
  181SLPC   H5X20689   2.239   6.577   3.875  1.2448 -0.7554  0.0362
  181SLPC   H5Y20690   2.253   6.392   3.859 -0.8305 -0.8029  1.7467
  181SLPC   C3620691   2.070   6.442   3.939 -0.1812 -0.2179  0.1205
  181SLPC   H6X20692   2.027   6.345   3.909 -0.6370 -0.2432  0.8221
  181SLPC   H6Y20693   1.989   6.518   3.929  0.6266  0.7516  0.6489
  181SLPC   C3720694   2.114   6.431   4.091 -0.4328  0.6804  0.3817
  181SLPC   H7X20695   2.136   6.532   4.132 -0.8259  0.6877  0.5788
  181SLPC   H7Y20696   2.195   6.357   4.106 -1.5180 -0.5110  0.5504
  181SLPC   C3820697   1.998   6.387   4.181 -0.5199 -0.7776 -0.4236
  181SLPC   H8X20698   1.951   6.297   4.136 -1.3675 -1.5637  1.8813
  181SLPC   H8Y20699   1.920   6.467   4.176  0.1386  0.0483  1.5774
  181SLPC   C3920700   2.042   6.359   4.328 -0.0002  0.0614  0.2193
  181SLPC   H9X20701   1.945   6.355   4.381 -0.2324 -0.2189 -0.2263
  181SLPC   H9Y20702   2.112   6.438   4.365  1.5655 -2.3351  2.7022
  181SLPC  C31020703   2.108   6.219   4.343 -0.5168 -0.1433 -0.2401
  181SLPC  H10X20704   2.201   6.201   4.285 -0.6124  3.7962 -1.9300
  181SLPC  H10Y20705   2.039   6.146   4.296 -0.0602 -0.5268 -0.3186
  181SLPC  C31120706   2.124   6.159   4.481  0.0664 -0.0335  1.0482
  181SLPC  H11X20707   2.169   6.059   4.462 -0.8980  0.1194 -2.9146
  181SLPC  H11Y20708   2.024   6.159   4.529 -0.8708  0.7462 -0.8156
  181SLPC  C31220709   2.222   6.228   4.576  0.4562  0.0290 -0.3230
  181SLPC  H12X20710   2.184   6.330   4.599 -0.6168 -0.4955  0.3236
  181SLPC  H12Y20711   2.322   6.239   4.531 -0.0488  2.8253 -0.9451
  181SLPC  C31320712   2.241   6.144   4.702 -0.6157 -0.1851  0.0217
  181SLPC  H13X20713   2.276   6.047   4.662  0.9593  0.3644  0.0022
  181SLPC  H13Y20714   2.150   6.120   4.761 -0.2603 -3.0928 -0.4799
  181SLPC  C31420715   2.337   6.206   4.808  0.5825  0.1111  0.7869
  181SLPC  H14X20716   2.434   6.218   4.755 -0.3062 -3.1206 -1.9180
  181SLPC  H14Y20717   2.345   6.141   4.898  0.0120 -0.0582  0.7171
  181SLPC  C31520718   2.284   6.341   4.858 -0.1323 -0.2317  0.0868
  181SLPC  H15X20719   2.294   6.415   4.776  0.5651 -0.4989 -0.0789
  181SLPC  H15Y20720   2.358   6.367   4.937  0.2367 -1.6329  0.2390
  181SLPC  C31620721   2.142   6.347   4.905  0.2584 -0.5715 -0.4651
  181SLPC  H16X20722   2.075   6.328   4.818  2.1799 -2.3604 -1.6392
  181SLPC  H16Y20723   2.117   6.447   4.946 -1.0254 -1.0957  0.0775
  181SLPC  C31720724   2.106   6.243   5.014 -0.0501  0.4350 -0.0392
  181SLPC  H17X20725   2.193   6.231   5.082 -0.8445 -0.7058  0.8211
  181SLPC  H17Y20726   2.086   6.143   4.969 -1.6185  0.7549 -0.0983
  181SLPC  C31820727   1.974   6.270   5.093 -0.9577  0.1172  0.4178
  181SLPC  H18X20728   1.978   6.368   5.145  0.5745 -0.3199  1.1741
  181SLPC  H18Y20729   1.957   6.191   5.168 -0.0621 -1.3577 -0.8811
  181SLPC  H18Z20730   1.886   6.268   5.025 -1.0508 -2.2419  0.5503
  182SLPC     N20731   4.196   5.043   2.607 -0.1671 -0.2205  0.3268
  182SLPC   C1320732   4.082   5.129   2.648  0.2023 -1.1131 -0.4167
  182SLPC  H13A20733   4.124   5.224   2.675  0.9561 -1.4226 -0.4676
  182SLPC  H13B20734   4.014   5.146   2.566 -0.9358  0.2502  0.7511
  182SLPC  H13C20735   4.031   5.099   2.739 -2.0881 -0.0377 -1.2771
  182SLPC   C1420736   4.260   5.101   2.484 -0.0943 -0.0509 -0.5460
  182SLPC  H14A20737   4.267   5.208   2.501  0.9312 -0.3738  1.3763
  182SLPC  H14B20738   4.355   5.058   2.458 -1.0008 -1.6048 -1.4049
  182SLPC  H14C20739   4.185   5.098   2.407 -0.5777  0.8845 -0.1365
  182SLPC   C1520740   4.139   4.912   2.565  0.0689 -0.2353 -0.1399
  182SLPC  H15A20741   4.074   4.871   2.641 -0.2727  0.9813  0.2506
  182SLPC  H15B20742   4.095   4.908   2.467  0.9819 -0.4723 -0.5472
  182SLPC  H15C20743   4.225   4.847   2.567  1.0690  1.0427 -0.1298
  182SLPC   C1220744   4.286   5.032   2.721  0.6208  0.0115  0.0318
  182SLPC  H12A20745   4.220   5.005   2.803 -1.2557 -1.0249 -1.7304
  182SLPC  H12B20746   4.335   5.127   2.738 -0.3324  0.2438  1.7655
  182SLPC   C1120747   4.391   4.923   2.717 -0.1616  0.0948  0.4156
  182SLPC  H11A20748   4.339   4.824   2.716  2.0309 -1.1453  1.2829
  182SLPC  H11B20749   4.446   4.924   2.814  1.0121 -0.3576 -0.2296
  182SLPC     P20750   4.520   4.830   2.518  0.0305 -0.3416  0.0651
  182SLPC   O1320751   4.393   4.791   2.452 -0.2460 -0.4319 -0.4394
  182SLPC   O1420752   4.638   4.878   2.434  0.1198 -0.5796  0.0678
  182SLPC   O1220753   4.490   4.952   2.617  0.7689  0.2260 -0.4831
  182SLPC   O1120754   4.559   4.715   2.619  0.3270  0.0481  0.3232
  182SLPC    C120755   4.689   4.667   2.639  0.0067 -0.0819 -0.2757
  182SLPC    HA20756   4.676   4.559   2.663 -0.9977  0.6254  2.7419
  182SLPC    HB20757   4.752   4.677   2.548 -1.9739  1.1248 -1.5917
  182SLPC    C220758   4.765   4.726   2.765 -0.7961 -0.3862  0.3760
  182SLPC    HS20759   4.839   4.652   2.801  0.2223  1.5273  2.4196
  182SLPC   O2120760   4.675   4.762   2.874 -0.2391  0.5387  0.1080
  182SLPC   C2120761   4.605   4.648   2.912 -0.4902  1.0187  0.0180
  182SLPC   O2220762   4.641   4.536   2.885 -0.6571  0.5472 -0.1053
  182SLPC   C2220763   4.486   4.686   2.995 -0.0426 -0.7226 -0.2482
  182SLPC   H2R20764   4.399   4.713   2.932  1.3438  2.3086 -1.0420
  182SLPC   H2S20765   4.468   4.585   3.039 -1.2730  0.4250  2.0905
  182SLPC    C320766   4.841   4.854   2.730  0.0636  0.5908 -1.1531
  182SLPC    HX20767   4.770   4.922   2.679 -1.3911 -0.6206 -0.7961
  182SLPC    HY20768   4.916   4.839   2.648  0.2929 -2.3352 -0.5235
  182SLPC   O3120769   4.918   4.896   2.850  0.5902  0.6493 -0.2785
  182SLPC   C3120770   4.863   5.002   2.904 -0.4430 -0.4503  0.1083
  182SLPC   O3220771   4.774   5.072   2.857  0.0600 -0.2372  0.1101
  182SLPC   C3220772   4.943   5.031   3.031  0.0996 -0.1572  0.0228
  182SLPC   H2X20773   5.012   5.105   2.986 -0.4705  0.2289 -0.2375
  182SLPC   H2Y20774   4.997   4.940   3.063  1.2636  0.4993 -0.0186
  182SLPC   C2320775   4.524   4.779   3.110  0.4352 -0.2000  1.0976
  182SLPC   H3R20776   4.535   4.883   3.071  1.5738 -1.7386 -3.2049
  182SLPC   H3S20777   4.623   4.763   3.158  0.5784  0.9911  1.2352
  182SLPC   C2420778   4.402   4.786   3.206  0.6072 -0.0308 -0.2243
  182SLPC   H4R20779   4.394   4.688   3.256 -2.8983 -0.4683 -1.3579
  182SLPC   H4S20780   4.311   4.802   3.144  0.8086 -0.7391 -0.7134
  182SLPC   C2520781   4.406   4.890   3.319  0.4548  0.6048 -0.2167
  182SLPC   H5R20782   4.324   4.898   3.393  0.4951  1.6139 -0.2629
  182SLPC   H5S20783   4.406   4.986   3.263 -1.5259  0.4462 -0.5554
  182SLPC   C2620784   4.524   4.872   3.416  0.2028 -0.6269  0.1391
  182SLPC   H6R20785   4.626   4.862   3.374  1.8522  1.3208  3.3065
  182SLPC   H6S20786   4.499   4.774   3.460 -1.2109 -0.6741 -0.6968
  182SLPC   C2720787   4.523   4.987   3.510  0.5596  0.0768 -0.0531
  182SLPC   H7R20788   4.434   4.975   3.575  0.1248 -2.1148 -0.9681
  182SLPC   H7S20789   4.528   5.085   3.457 -0.7781  0.6968  0.9199
  182SLPC   C2820790   4.651   4.979   3.604  0.5871 -0.2869  0.0031
  182SLPC   H8R20791   4.643   5.056   3.684 -3.0870  0.2212 -0.6753
  182SLPC   H8S20792   4.729   5.021   3.537  2.3206 -2.8857  0.2528
  182SLPC   C2920793   4.705   4.846   3.647  0.4331  0.6054  0.2280
  182SLPC   H9R20794   4.749   4.790   3.563 -1.9721 -0.6885 -0.2667
  182SLPC  C21020795   4.727   4.798   3.766  0.8948 -0.0613  0.3619
  182SLPC  H10R20796   4.765   4.695   3.771 -2.1244 -1.4510 -2.0439
  182SLPC  C21120797   4.661   4.859   3.895 -0.1165  0.6024  0.7428
  182SLPC  H11R20798   4.604   4.774   3.940 -0.9431  0.8649  0.2227
  182SLPC  H11S20799   4.591   4.941   3.870  0.6455  1.0546  0.0731
  182SLPC  C21220800   4.772   4.915   3.987 -0.2162  0.3546 -0.2558
  182SLPC  H12R20801   4.851   4.971   3.936  0.3965  0.3542  0.6886
  182SLPC  C21320802   4.780   4.893   4.121 -0.2914  0.1139  0.2982
  182SLPC  H13R20803   4.872   4.925   4.173  0.8615  0.8101 -2.0509
  182SLPC  C21420804   4.689   4.815   4.207 -0.1501  0.0975  0.0103
  182SLPC  H14R20805   4.754   4.751   4.272  1.4174 -0.3835 -1.9404
  182SLPC  H14S20806   4.625   4.746   4.149  1.1383 -0.6472 -0.5726
  182SLPC  C21520807   4.600   4.892   4.314 -0.3097  0.3271 -0.2650
  182SLPC  H15R20808   4.522   4.817   4.340 -0.3722 -0.6990 -3.0650
  182SLPC  H15S20809   4.542   4.972   4.263 -1.3578  0.6274  1.3315
  182SLPC  C21620810   4.679   4.953   4.427 -0.1820 -0.3740 -0.0113
  182SLPC  H16R20811   4.636   5.047   4.466 -0.4547  0.1982 -1.6294
  182SLPC  H16S20812   4.777   4.990   4.389 -0.7950  2.2900  0.8085
  182SLPC  C21720813   4.698   4.857   4.548  0.0127 -0.3519 -0.3452
  182SLPC  H17R20814   4.736   4.758   4.516  1.8363  0.4002 -0.6632
  182SLPC  H17S20815   4.599   4.833   4.593 -0.3084  1.3339 -0.0765
  182SLPC  C21820816   4.789   4.911   4.656  0.0708 -0.7066 -0.6121
  182SLPC  H18R20817   4.896   4.900   4.628  0.6825  2.9782 -0.2835
  182SLPC  H18S20818   4.771   4.874   4.759 -0.8042  2.6542  0.5817
  182SLPC  H18T20819   4.771   5.021   4.659 -0.2538 -0.7560 -0.7302
  182SLPC   C3320820   4.855   5.094   3.141  0.4046 -0.1639  0.6490
  182SLPC   H3X20821   4.754   5.051   3.130  0.5489 -0.0578 -1.2880
  182SLPC   H3Y20822   4.840   5.196   3.100 -0.8680 -0.7227 -0.3231
  182SLPC   C3420823   4.895   5.083   3.292  0.5735 -0.0368 -0.3256
  182SLPC   H4X20824   4.893   4.974   3.315  1.5905  0.1726  0.9021
  182SLPC   H4Y20825   4.831   5.130   3.370  0.0641  0.8137 -1.2417
  182SLPC   C3520826   5.040   5.138   3.314  0.0226 -0.3517 -0.1261
  182SLPC   H5X20827   5.032   5.247   3.292  0.5158 -0.0259  1.2126
  182SLPC   H5Y20828   5.096   5.092   3.230 -0.8034 -2.0420  0.2052
  182SLPC   C3620829   5.100   5.110   3.453 -0.2087 -0.2395 -0.2203
  182SLPC   H6X20830   5.198   5.162   3.450 -0.1189 -0.4304 -0.8217
  182SLPC   H6Y20831   5.112   5.000   3.459 -0.6185 -0.2691  0.0879
  182SLPC   C3720832   5.026   5.150   3.580 -0.5004 -0.7698 -0.4857
  182SLPC   H7X20833   4.918   5.123   3.583 -0.0253 -2.7734  2.2328
  182SLPC   H7Y20834   5.033   5.260   3.587 -1.5311 -0.7884  3.7499
  182SLPC   C3820835   5.103   5.107   3.706  0.6173  0.1519  0.5486
  182SLPC   H8X20836   5.206   5.147   3.697  0.5608  0.5760  1.6970
  182SLPC   H8Y20837   5.102   4.996   3.716  1.1076 -0.1006 -1.6251
  182SLPC   C3920838   5.060   5.174   3.833  0.3807 -0.3009 -0.3861
  182SLPC   H9X20839   4.951   5.162   3.854  0.3454 -0.2020 -0.5172
  182SLPC   H9Y20840   5.087   5.281   3.838  0.9305 -0.4426 -0.2939
  182SLPC  C31020841   5.112   5.099   3.955  0.1454 -0.1827 -0.4314
  182SLPC  H10X20842   5.223   5.104   3.961  0.1738 -1.5946  0.9221
  182SLPC  H10Y20843   5.091   4.990   3.950  2.9118 -0.7290 -2.1600
  182SLPC  C31120844   5.064   5.170   4.080  0.0131  0.1875  0.0386
  182SLPC  H11X20845   4.954   5.181   4.077  0.0772  0.7666 -2.6870
  182SLPC  H11Y20846   5.089   5.278   4.077  0.3765  0.1150  0.3311
  182SLPC  C31220847   5.108   5.111   4.215  0.1805  0.5803  0.0112
  182SLPC  H12X20848   5.219   5.114   4.221  0.2263  2.9279 -0.9221
  182SLPC  H12Y20849   5.055   5.015   4.233 -1.2434  1.3768  0.1546
  182SLPC  C31320850   5.044   5.188   4.331 -0.3473 -0.5700  0.6689
  182SLPC  H13X20851   4.933   5.181   4.333 -0.4236 -0.2859 -1.3684
  182SLPC  H13Y20852   5.071   5.295   4.322 -0.7184 -0.3098  2.2956
  182SLPC  C31420853   5.096   5.139   4.463 -0.3338  0.1252  0.0250
  182SLPC  H14X20854   5.202   5.173   4.461 -0.2900 -0.0385 -1.5465
  182SLPC  H14Y20855   5.098   5.030   4.482  3.4352 -0.5557 -2.9364
  182SLPC  C31520856   5.009   5.192   4.580 -0.0569 -0.2400  0.0324
  182SLPC  H15X20857   5.053   5.145   4.670  1.0659  0.6020 -0.0552
  182SLPC  H15Y20858   4.902   5.164   4.565  0.0196 -0.8863  0.6616
  182SLPC  C31620859   5.022   5.343   4.596  0.6006  0.2508 -0.5692
  182SLPC  H16X20860   4.961   5.372   4.685 -1.5374 -1.4943 -1.3705
  182SLPC  H16Y20861   4.975   5.390   4.507  2.8791 -1.2915 -2.7237
  182SLPC  C31720862   5.162   5.397   4.630 -0.1781  0.3014 -0.3537
  182SLPC  H17X20863   5.240   5.375   4.553  0.1667  1.4850 -0.3618
  182SLPC  H17Y20864   5.188   5.344   4.724 -4.4543  0.1445  0.9435
  182SLPC  C31820865   5.170   5.549   4.654 -0.8069  0.5165 -0.5633
  182SLPC  H18X20866   5.163   5.601   4.556  2.7577 -0.7922 -1.6866
  182SLPC  H18Y20867   5.275   5.585   4.664 -0.3954  0.1746 -2.9618
  182SLPC  H18Z20868   5.103   5.592   4.731 -0.7451  1.1521 -0.8603
  183SLPC     N20869   0.373   1.056   2.914  0.5510  0.1797  0.3307
  183SLPC   C1320870   0.458   1.056   2.791 -0.0454  0.0103  0.3788
  183SLPC  H13A20871   0.476   1.159   2.764 -0.8396 -0.4219 -2.0434
  183SLPC  H13B20872   0.552   1.004   2.806 -0.2449 -0.6655 -0.6048
  183SLPC  H13C20873   0.406   1.009   2.709  2.7582  0.1082 -1.5838
  183SLPC   C1420874   0.339   0.914   2.962 -0.3651  0.4546 -0.0525
  183SLPC  H14A20875   0.283   0.920   3.055  2.1440 -2.5082  1.8456
  183SLPC  H14B20876   0.281   0.853   2.896  0.4138  0.0610 -0.3849
  183SLPC  H14C20877   0.436   0.870   2.981 -0.7340  0.2241  1.4148
  183SLPC   C1520878   0.240   1.112   2.874 -0.0936 -0.9753 -0.1553
  183SLPC  H15A20879   0.179   1.100   2.962  2.5385 -0.1721  1.9279
  183SLPC  H15B20880   0.254   1.217   2.857  1.0297 -0.2087  4.1436
  183SLPC  H15C20881   0.197   1.052   2.796  1.3358 -2.4740  0.1418
  183SLPC   C1220882   0.435   1.128   3.028 -1.1283  0.6404  0.8199
  183SLPC  H12A20883   0.373   1.107   3.114  0.6321 -0.0873  1.9592
  183SLPC  H12B20884   0.445   1.234   3.011 -0.1874  0.6512  1.4056
  183SLPC   C1120885   0.579   1.082   3.065 -0.0919 -0.0544  0.8345
  183SLPC  H11A20886   0.575   0.972   3.048 -0.1521  0.1661 -0.6873
  183SLPC  H11B20887   0.599   1.095   3.174  0.8624 -0.7992  0.7659
  183SLPC     P20888   0.718   1.287   2.995 -0.1206 -0.2587  0.3117
  183SLPC   O1320889   0.771   1.331   2.865 -0.7749 -0.4517 -0.0464
  183SLPC   O1420890   0.624   1.373   3.068 -0.7096  0.1844 -0.1367
  183SLPC   O1220891   0.663   1.142   2.981  0.1095  0.1125  0.4347
  183SLPC   O1120892   0.843   1.255   3.084  0.2684  0.0138  0.1332
  183SLPC    C120893   0.930   1.142   3.059  0.1415 -0.8314 -1.2268
  183SLPC    HA20894   0.870   1.054   3.089 -1.9597  0.1406 -2.4240
  183SLPC    HB20895   0.956   1.132   2.952 -0.0004 -0.7029 -1.2721
  183SLPC    C220896   1.067   1.152   3.129  0.9735  0.3499 -0.1144
  183SLPC    HS20897   1.119   1.055   3.119 -1.3257 -1.0522  0.8076
  183SLPC   O2120898   1.052   1.200   3.262 -0.5693 -0.1692  0.0915
  183SLPC   C2120899   0.972   1.128   3.340 -0.0390 -0.1669  0.0629
  183SLPC   O2220900   0.928   1.016   3.326  0.3398 -0.8318 -0.0839
  183SLPC   C2220901   0.945   1.208   3.468 -0.1411  0.2838 -0.8325
  183SLPC   H2R20902   1.045   1.212   3.516 -0.4478  0.5412 -0.1930
  183SLPC   H2S20903   0.918   1.315   3.451  0.9850  1.0101  1.4543
  183SLPC    C320904   1.160   1.257   3.062  0.2775 -0.6249  0.4286
  183SLPC    HX20905   1.136   1.364   3.080  0.5024 -0.6274  0.7606
  183SLPC    HY20906   1.152   1.229   2.955  2.1234 -2.3715  0.6705
  183SLPC   O3120907   1.300   1.230   3.088 -0.2801  0.2399 -0.2125
  183SLPC   C3120908   1.359   1.297   3.182  0.7913 -0.0630 -0.2356
  183SLPC   O3220909   1.312   1.391   3.242  0.8978  0.0629 -0.0490
  183SLPC   C3220910   1.502   1.251   3.199  0.3759 -0.4666  0.2566
  183SLPC   H2X20911   1.562   1.285   3.112  1.4127 -0.4676  0.9600
  183SLPC   H2Y20912   1.506   1.140   3.193 -0.6806 -0.4610 -1.2092
  183SLPC   C2320913   0.837   1.135   3.554 -0.0899 -0.2505 -0.0860
  183SLPC   H3R20914   0.863   1.027   3.561  0.4723 -0.4364 -3.3415
  183SLPC   H3S20915   0.739   1.142   3.503  0.3545  0.3490 -0.8976
  183SLPC   C2420916   0.829   1.194   3.698  0.4569 -0.4630  0.3888
  183SLPC   H4R20917   0.799   1.301   3.707 -0.2978 -0.6820  0.5216
  183SLPC   H4S20918   0.929   1.194   3.748  0.5125 -0.5379  0.2791
  183SLPC   C2520919   0.716   1.128   3.785 -0.4862  0.4507  0.6431
  183SLPC   H5R20920   0.750   1.024   3.804  1.5325  0.8184 -0.7230
  183SLPC   H5S20921   0.624   1.122   3.723  0.2112  1.3971 -0.5327
  183SLPC   C2620922   0.679   1.197   3.911  0.2428  0.0215  0.9832
  183SLPC   H6R20923   0.594   1.143   3.956 -0.4202 -0.7519 -1.0496
  183SLPC   H6S20924   0.632   1.292   3.879 -0.0746 -0.7745 -1.0999
  183SLPC   C2720925   0.788   1.221   4.019  0.0029  0.0842 -0.0994
  183SLPC   H7R20926   0.878   1.246   3.958  0.1910  0.7143  0.4300
  183SLPC   H7S20927   0.803   1.118   4.058 -1.2679  0.6126  1.9216
  183SLPC   C2820928   0.744   1.317   4.130 -0.0672  0.0295 -1.0326
  183SLPC   H8R20929   0.644   1.280   4.161 -0.2209 -0.9413 -2.5517
  183SLPC   H8S20930   0.744   1.420   4.090  0.4454  1.7072  2.9003
  183SLPC   C2920931   0.839   1.315   4.247  0.8306  0.5488 -0.9284
  183SLPC   H9R20932   0.944   1.304   4.215  1.2221 -3.6029  1.1027
  183SLPC  C21020933   0.815   1.322   4.380  0.6215  0.5534 -0.1949
  183SLPC  H10R20934   0.898   1.307   4.450  1.9230 -0.2024 -1.8402
  183SLPC  C21120935   0.681   1.342   4.445 -0.0005  0.3048  0.3380
  183SLPC  H11R20936   0.632   1.243   4.460  0.4894 -0.2179 -1.2966
  183SLPC  H11S20937   0.611   1.389   4.373  0.6491 -2.1361 -2.0920
  183SLPC  C21220938   0.679   1.419   4.581  0.1321  0.4875 -0.3258
  183SLPC  H12R20939   0.774   1.463   4.616  0.7408  0.7759 -2.1882
  183SLPC  C21320940   0.562   1.432   4.657 -0.0087 -0.0351  0.0249
  183SLPC  H13R20941   0.569   1.490   4.751 -0.1124 -0.9439  0.6042
  183SLPC  C21420942   0.419   1.396   4.634  0.4752  0.1446 -0.9836
  183SLPC  H14R20943   0.414   1.285   4.643 -0.4024  0.2653  0.3562
  183SLPC  H14S20944   0.382   1.436   4.538  1.4729  3.1943 -0.2141
  183SLPC  C21520945   0.330   1.449   4.750 -0.4533 -0.2507  0.1015
  183SLPC  H15R20946   0.323   1.559   4.742 -1.4322 -0.2771  0.4596
  183SLPC  H15S20947   0.370   1.423   4.850  1.3327 -0.4747 -0.6320
  183SLPC  C21620948   0.187   1.404   4.760  0.2763 -0.4557 -0.1765
  183SLPC  H16R20949   0.132   1.440   4.670 -1.7223 -0.4949  0.9706
  183SLPC  H16S20950   0.138   1.449   4.848  1.3308  1.9517 -0.7507
  183SLPC  C21720951   0.171   1.248   4.763  0.2738  0.7906 -0.6283
  183SLPC  H17R20952   0.188   1.200   4.664 -1.4876 -0.5590 -0.3106
  183SLPC  H17S20953   0.061   1.245   4.779  0.2948  1.7701 -0.1970
  183SLPC  C21820954   0.227   1.160   4.879  0.2545 -0.6685 -0.1657
  183SLPC  H18R20955   0.170   1.065   4.883 -0.9741 -0.0798 -2.1757
  183SLPC  H18S20956   0.204   1.213   4.974 -0.5358  0.5173 -0.9864
  183SLPC  H18T20957   0.335   1.135   4.879  0.1636 -1.3161 -2.4341
  183SLPC   C3320958   1.565   1.289   3.335 -0.1556  0.1995  0.6607
  183SLPC   H3X20959   1.500   1.251   3.417 -1.5456  0.0306 -0.4829
  183SLPC   H3Y20960   1.556   1.400   3.342 -1.5095  0.2260 -0.8514
  183SLPC   C3420961   1.711   1.246   3.347  0.5951 -0.4958  0.4398
  183SLPC   H4X20962   1.764   1.317   3.280  0.0209 -0.5047 -0.0367
  183SLPC   H4Y20963   1.720   1.142   3.309 -0.1526 -0.3696 -0.1187
  183SLPC   C3520964   1.765   1.261   3.491  0.2362 -0.4013 -0.3479
  183SLPC   H5X20965   1.751   1.367   3.520  0.9807  0.5656 -3.1833
  183SLPC   H5Y20966   1.875   1.245   3.489  0.2826  0.0138 -1.5196
  183SLPC   C3620967   1.707   1.167   3.596  0.2627 -0.7191  0.3856
  183SLPC   H6X20968   1.727   1.061   3.570 -0.6827 -0.8462  0.1546
  183SLPC   H6Y20969   1.596   1.166   3.589  0.3539 -2.0006 -2.5710
  183SLPC   C3720970   1.754   1.190   3.737  0.6735  0.1292 -0.1854
  183SLPC   H7X20971   1.763   1.299   3.758  2.6192 -0.1914  0.8675
  183SLPC   H7Y20972   1.859   1.155   3.729  0.7885  0.7088 -1.5990
  183SLPC   C3820973   1.680   1.114   3.837  0.7147  0.4536 -0.0219
  183SLPC   H8X20974   1.703   1.009   3.813  2.3836  1.0889 -1.4017
  183SLPC   H8Y20975   1.574   1.125   3.805  0.9617 -1.0451 -1.4387
  183SLPC   C3920976   1.700   1.142   3.981 -0.5462  0.8527  0.9486
  183SLPC   H9X20977   1.654   1.234   4.022 -0.5573  0.5388  1.6640
  183SLPC   H9Y20978   1.810   1.155   3.992 -0.2138 -0.0741 -0.9400
  183SLPC  C31020979   1.677   1.017   4.076  0.9126  0.3850  0.1957
  183SLPC  H10X20980   1.773   0.963   4.066  0.6777 -0.0594  0.3309
  183SLPC  H10Y20981   1.586   0.959   4.052  1.0895  0.5413 -0.8826
  183SLPC  C31120982   1.667   1.061   4.225  0.1321  0.3149 -0.1525
  183SLPC  H11X20983   1.577   1.026   4.281 -0.4212  2.2943  0.2714
  183SLPC  H11Y20984   1.659   1.171   4.234  1.4495  0.2563  4.2790
  183SLPC  C31220985   1.786   1.021   4.300  0.3453  0.0473 -0.1010
  183SLPC  H12X20986   1.768   1.052   4.406 -0.1476 -1.3083  0.2256
  183SLPC  H12Y20987   1.869   1.074   4.248  0.4546 -0.9407 -0.9606
  183SLPC  C31320988   1.821   0.879   4.310 -0.3442 -0.2945  0.0008
  183SLPC  H13X20989   1.918   0.886   4.364 -1.1685  0.9193  1.3791
  183SLPC  H13Y20990   1.840   0.822   4.216  0.8800 -0.1933  0.1681
  183SLPC  C31420991   1.723   0.794   4.402 -0.6613  0.1593  1.0617
  183SLPC  H14X20992   1.624   0.809   4.353 -0.8317  2.9785  2.0960
  183SLPC  H14Y20993   1.715   0.863   4.489 -0.5791  1.0621  0.3762
  183SLPC  C31520994   1.771   0.651   4.419 -0.5131 -0.8270  0.4002
  183SLPC  H15X20995   1.872   0.665   4.463 -0.7799  1.2888  0.4595
  183SLPC  H15Y20996   1.789   0.610   4.318  1.6725 -1.5609  1.0319
  183SLPC  C31620997   1.686   0.561   4.504  0.5145  0.4409 -0.3550
  183SLPC  H16X20998   1.582   0.553   4.466 -0.6455 -0.5827  2.6720
  183SLPC  H16Y20999   1.680   0.620   4.599 -0.9810  1.1253 -0.8368
  183SLPC  C31721000   1.748   0.425   4.513 -0.1239  0.1407  0.0075
  183SLPC  H17X21001   1.851   0.431   4.555 -0.9118 -0.9911  2.2221
  183SLPC  H17Y21002   1.757   0.388   4.408  0.6272  0.2744  0.0152
  183SLPC  C31821003   1.669   0.315   4.589  0.7341 -0.5279 -0.0093
  183SLPC  H18X21004   1.582   0.294   4.523  0.7693 -1.8811  0.3395
  183SLPC  H18Y21005   1.637   0.346   4.690  0.7642  0.3554 -0.2619
  183SLPC  H18Z21006   1.740   0.229   4.588 -0.3055 -1.3996 -0.5685
  184SLPC     N21007   1.182   1.529   2.496  0.1687  0.5971 -0.0234
  184SLPC   C1321008   1.042   1.525   2.461 -0.3650 -0.2276 -0.2250
  184SLPC  H13A21009   1.021   1.454   2.382 -1.5091 -0.7499  0.5100
  184SLPC  H13B21010   0.977   1.493   2.542 -0.7218  0.1032 -0.3764
  184SLPC  H13C21011   1.004   1.619   2.424  2.6004  1.0812 -0.1507
  184SLPC   C1421012   1.254   1.541   2.361  0.2087 -0.1102 -0.4929
  184SLPC  H14A21013   1.214   1.630   2.315 -2.3232 -0.6302  0.4979
  184SLPC  H14B21014   1.359   1.551   2.382  0.2704  0.8080 -1.2266
  184SLPC  H14C21015   1.230   1.450   2.308  0.1764 -0.7547  0.6028
  184SLPC   C1521016   1.235   1.401   2.549 -0.0257 -0.4487 -0.7759
  184SLPC  H15A21017   1.195   1.374   2.646  3.7073  1.2235  1.4806
  184SLPC  H15B21018   1.227   1.328   2.469  0.6056 -1.0930 -0.2674
  184SLPC  H15C21019   1.341   1.414   2.566 -0.2607  1.0527 -0.3734
  184SLPC   C1221020   1.210   1.648   2.580  0.2097 -0.1853  0.2395
  184SLPC  H12A21021   1.148   1.639   2.668 -0.7218 -0.9392 -0.4776
  184SLPC  H12B21022   1.174   1.733   2.525 -0.0374  1.4144  2.7461
  184SLPC   C1121023   1.359   1.663   2.624 -0.1165 -0.1724  0.3376
  184SLPC  H11A21024   1.384   1.579   2.693 -0.2488  0.0734  0.6906
  184SLPC  H11B21025   1.357   1.759   2.679 -2.5852 -1.4018  2.7026
  184SLPC     P21026   1.610   1.636   2.540 -0.1087  0.0704  0.2405
  184SLPC   O1321027   1.631   1.488   2.548  0.4802 -0.2191  0.0049
  184SLPC   O1421028   1.692   1.705   2.437  0.4578  0.0654 -0.0281
  184SLPC   O1221029   1.456   1.664   2.516 -0.5422  0.4575  0.0019
  184SLPC   O1121030   1.640   1.693   2.689  0.1334 -0.4759  0.6115
  184SLPC    C121031   1.650   1.830   2.701  0.0336 -0.9990  0.5571
  184SLPC    HA21032   1.739   1.866   2.645 -0.4902 -0.9579 -0.2667
  184SLPC    HB21033   1.561   1.881   2.659 -1.3618 -5.1098 -2.2071
  184SLPC    C221034   1.663   1.864   2.855  0.1754  0.4143 -0.5438
  184SLPC    HS21035   1.669   1.975   2.867  0.0082  0.2500  1.3682
  184SLPC   O2121036   1.776   1.793   2.912 -0.0840 -0.4520  0.1100
  184SLPC   C2121037   1.890   1.857   2.893  0.4585  0.2433 -0.4715
  184SLPC   O2221038   1.903   1.974   2.869  0.3551  0.1834 -0.1687
  184SLPC   C2221039   2.012   1.764   2.920  0.0395 -0.4125 -0.0886
  184SLPC   H2R21040   1.984   1.659   2.899  1.8117 -1.1091  0.8575
  184SLPC   H2S21041   2.089   1.805   2.851  0.5430 -2.3692 -0.7462
  184SLPC    C321042   1.536   1.829   2.931  0.8025 -0.0159  0.1220
  184SLPC    HX21043   1.526   1.721   2.910  1.2889 -0.2988  1.2957
  184SLPC    HY21044   1.458   1.893   2.883  2.4088  1.6551 -0.3892
  184SLPC   O3121045   1.542   1.866   3.068  0.3417 -0.3399  0.3255
  184SLPC   C3121046   1.591   1.781   3.150  0.2336 -0.8748  0.0389
  184SLPC   O3221047   1.622   1.663   3.131 -0.7234 -0.2719  0.1748
  184SLPC   C3221048   1.600   1.846   3.288  0.7788 -0.8126  0.4520
  184SLPC   H2X21049   1.511   1.911   3.302  2.3507  1.2988  1.1223
  184SLPC   H2Y21050   1.683   1.920   3.294 -0.1538  0.2645  0.4712
  184SLPC   C2321051   2.081   1.770   3.059  0.3778 -0.3842  0.8959
  184SLPC   H3R21052   2.108   1.875   3.081  1.7119 -0.1572 -1.4298
  184SLPC   H3S21053   2.177   1.713   3.053 -0.8431 -2.4904  0.2755
  184SLPC   C2421054   2.000   1.704   3.171 -0.5273  0.1276 -0.6078
  184SLPC   H4R21055   1.954   1.612   3.129 -0.9237  1.0831 -2.3902
  184SLPC   H4S21056   1.923   1.781   3.189  1.3683  2.4350 -1.8126
  184SLPC   C2521057   2.081   1.687   3.294  0.6279  0.4669 -0.8091
  184SLPC   H5R21058   2.159   1.767   3.296  0.3261  0.7681 -0.8801
  184SLPC   H5S21059   2.132   1.590   3.279  0.4054  0.3277 -0.6492
  184SLPC   C2621060   1.991   1.684   3.418 -0.5798  0.8620  0.0023
  184SLPC   H6R21061   1.917   1.606   3.391  2.5925 -2.1549 -0.7135
  184SLPC   H6S21062   1.930   1.777   3.422 -2.5313 -0.3710  0.3102
  184SLPC   C2721063   2.066   1.638   3.538 -0.1341  0.0504 -0.6121
  184SLPC   H7R21064   2.119   1.720   3.592  0.9041  0.8609 -2.7015
  184SLPC   H7S21065   2.147   1.571   3.502 -0.2317  0.1875 -1.1039
  184SLPC   C2821066   1.988   1.545   3.629  0.6126 -0.2983 -0.2485
  184SLPC   H8R21067   2.064   1.497   3.694  1.4637  1.5110  0.1635
  184SLPC   H8S21068   1.934   1.472   3.565 -3.0568  0.9725  1.1443
  184SLPC   C2921069   1.882   1.616   3.708  0.5921 -0.7610 -0.3079
  184SLPC   H9R21070   1.807   1.673   3.651  0.3461  0.0419  0.8014
  184SLPC  C21021071   1.876   1.627   3.839 -0.1497  0.3748  0.5847
  184SLPC  H10R21072   1.792   1.678   3.888 -0.3140 -1.5261  2.4150
  184SLPC  C21121073   1.973   1.575   3.940  0.3396 -0.7198  0.7066
  184SLPC  H11R21074   1.971   1.636   4.033 -1.2118  1.0177 -0.4057
  184SLPC  H11S21075   2.076   1.577   3.901 -0.4406 -0.3502 -1.4671
  184SLPC  C21221076   1.935   1.435   3.979  0.4719 -0.0526  0.0815
  184SLPC  H12R21077   1.898   1.365   3.902 -3.4273 -1.5932  3.0324
  184SLPC  C21321078   1.962   1.382   4.099  0.2368 -0.1782  0.8607
  184SLPC  H13R21079   1.931   1.277   4.109 -1.3899 -0.0667 -1.8937
  184SLPC  C21421080   2.029   1.452   4.215  0.5789 -0.0926  0.0807
  184SLPC  H14R21081   1.961   1.478   4.298 -0.4919  1.6568 -1.2755
  184SLPC  H14S21082   2.085   1.546   4.192 -0.0351  0.1018 -0.6438
  184SLPC  C21521083   2.140   1.364   4.280 -0.1014 -0.0543  0.0994
  184SLPC  H15R21084   2.204   1.428   4.344 -0.4691 -0.1291  0.5444
  184SLPC  H15S21085   2.205   1.348   4.191  2.0507  2.4672  1.0795
  184SLPC  C21621086   2.098   1.232   4.345 -0.3325  0.5037 -0.2725
  184SLPC  H16R21087   2.194   1.188   4.381  1.8006  3.6388 -1.7459
  184SLPC  H16S21088   2.060   1.159   4.270  2.0269 -0.3520 -0.7165
  184SLPC  C21721089   2.016   1.262   4.466  0.4481  0.1762  0.4287
  184SLPC  H17R21090   2.001   1.165   4.518 -0.3934 -0.4819 -1.0010
  184SLPC  H17S21091   1.914   1.282   4.426 -0.3111  1.0597  2.6516
  184SLPC  C21821092   2.055   1.363   4.562  0.0229 -0.1227 -0.4831
  184SLPC  H18R21093   2.041   1.469   4.532 -0.7154 -0.2574 -0.6350
  184SLPC  H18S21094   2.160   1.344   4.593 -0.6276 -3.1340  0.2762
  184SLPC  H18T21095   1.996   1.367   4.656  1.2279  0.5522  0.2720
  184SLPC   C3321096   1.613   1.755   3.412  0.2039  0.1161  0.3420
  184SLPC   H3X21097   1.677   1.806   3.487 -0.0715 -1.5010  1.7547
  184SLPC   H3Y21098   1.674   1.665   3.386 -0.4117 -1.0265  2.5893
  184SLPC   C3421099   1.486   1.687   3.464  0.1440  0.4476 -0.3165
  184SLPC   H4X21100   1.450   1.634   3.373  0.9197  1.8752 -1.4998
  184SLPC   H4Y21101   1.419   1.769   3.498  0.2946  0.9473 -1.1870
  184SLPC   C3521102   1.515   1.593   3.581  0.1851  0.3624  0.5751
  184SLPC   H5X21103   1.554   1.651   3.667  0.0762  3.0426 -1.0782
  184SLPC   H5Y21104   1.596   1.519   3.566  2.4130  2.6841  0.4538
  184SLPC   C3621105   1.386   1.524   3.630 -1.2751 -0.1271  0.2404
  184SLPC   H6X21106   1.348   1.477   3.536  0.6240 -1.5392  0.1127
  184SLPC   H6Y21107   1.309   1.598   3.660  0.7938  3.0394 -1.6483
  184SLPC   C3721108   1.403   1.427   3.743  0.3977  0.5762  0.3484
  184SLPC   H7X21109   1.478   1.355   3.706  1.6205  0.5143  2.7121
  184SLPC   H7Y21110   1.304   1.377   3.751  0.1445  1.0004 -0.0590
  184SLPC   C3821111   1.441   1.493   3.875  0.3590 -0.0214 -0.1954
  184SLPC   H8X21112   1.375   1.583   3.879 -1.4215 -1.3197  1.2904
  184SLPC   H8Y21113   1.547   1.525   3.876  0.6459 -0.9058  1.3616
  184SLPC   C3921114   1.410   1.413   4.000  0.0539  0.5804  0.2955
  184SLPC   H9X21115   1.480   1.327   3.996  1.9098  2.0131  0.4219
  184SLPC   H9Y21116   1.306   1.376   3.993 -0.0558  1.0136 -0.4192
  184SLPC  C31021117   1.441   1.488   4.127  0.8537 -0.3115 -0.0751
  184SLPC  H10X21118   1.370   1.573   4.129  1.6778  0.3762  0.4969
  184SLPC  H10Y21119   1.541   1.534   4.115 -0.3962  3.4881  2.2629
  184SLPC  C31121120   1.420   1.411   4.257  0.0612  0.9349 -0.0448
  184SLPC  H11X21121   1.452   1.308   4.233  0.7194  1.5186 -1.8201
  184SLPC  H11Y21122   1.310   1.415   4.276 -0.3005 -0.1056 -1.7142
  184SLPC  C31221123   1.501   1.472   4.370 -0.0715 -0.1733  0.4763
  184SLPC  H12X21124   1.465   1.577   4.372  0.1809 -0.0040 -1.4709
  184SLPC  H12Y21125   1.604   1.479   4.330  0.3005 -1.3688  1.1638
  184SLPC  C31321126   1.489   1.386   4.494 -0.1533  0.2261 -0.0421
  184SLPC  H13X21127   1.586   1.399   4.546 -0.4763  1.2498  0.3328
  184SLPC  H13Y21128   1.491   1.284   4.452  1.1820 -0.6405  1.9840
  184SLPC  C31421129   1.363   1.402   4.584  0.3727  0.0379  0.3590
  184SLPC  H14X21130   1.364   1.356   4.685  0.2989  2.7570  1.7112
  184SLPC  H14Y21131   1.274   1.355   4.538  0.2425  0.0777  0.5693
  184SLPC  C31521132   1.324   1.545   4.604  0.5796 -0.0842  0.1850
  184SLPC  H15X21133   1.285   1.593   4.513  1.1415  0.5839  0.2868
  184SLPC  H15Y21134   1.417   1.601   4.628 -0.3401  1.2777  0.6518
  184SLPC  C31621135   1.232   1.579   4.722  0.6023  0.0053 -0.0385
  184SLPC  H16X21136   1.244   1.685   4.750  0.3038 -0.0768  0.4129
  184SLPC  H16Y21137   1.266   1.505   4.798 -0.0990 -2.0351 -1.5915
  184SLPC  C31721138   1.080   1.549   4.700  0.0720  0.3646  0.1759
  184SLPC  H17X21139   1.066   1.448   4.656 -0.2688  1.7109 -3.1195
  184SLPC  H17Y21140   1.028   1.618   4.630 -3.4823 -0.1198  2.0958
  184SLPC  C31821141   1.000   1.561   4.826  0.3563  0.1686 -0.8336
  184SLPC  H18X21142   0.894   1.531   4.812 -0.4975  0.3865  3.6416
  184SLPC  H18Y21143   1.009   1.664   4.868 -0.3352 -0.2635  0.4064
  184SLPC  H18Z21144   1.057   1.500   4.899  0.9666 -1.5556 -2.6655
  185POPC     N21145   3.715   5.402   7.035 -0.7864 -0.3225  0.5306
  185POPC   C1221146   3.831   5.449   7.119 -0.0841 -0.0259 -0.0414
  185POPC  H12A21147   3.798   5.434   7.220 -0.1797  0.9141  0.0713
  185POPC  H12B21148   3.846   5.555   7.106 -2.7331  0.3275 -0.9205
  185POPC   C1321149   3.612   5.504   7.026  0.6178 -0.3896 -0.4473
  185POPC  H13A21150   3.562   5.505   7.121  1.1978 -2.3894 -0.0790
  185POPC  H13B21151   3.644   5.604   6.999  0.7456  0.1235  1.4834
  185POPC  H13C21152   3.530   5.477   6.961  0.1911 -1.7084  0.6102
  185POPC   C1421153   3.756   5.367   6.904  0.2927  0.0823  0.0823
  185POPC  H14A21154   3.705   5.280   6.864 -1.0998 -0.5866  3.0954
  185POPC  H14B21155   3.762   5.454   6.841  1.0307 -0.0412 -0.0261
  185POPC  H14C21156   3.857   5.331   6.913  0.8545  1.3006 -1.0430
  185POPC   C1521157   3.647   5.279   7.101  0.3812 -0.3570 -0.0625
  185POPC  H15A21158   3.700   5.186   7.088 -0.0215 -0.5503 -0.3274
  185POPC  H15B21159   3.547   5.275   7.062 -0.2914  2.1319  1.1515
  185POPC  H15C21160   3.640   5.278   7.209 -0.3639  0.9956 -0.0685
  185POPC   C1121161   3.964   5.378   7.102 -0.4818  0.6071  0.1262
  185POPC  H11A21162   3.953   5.268   7.099 -1.6214  0.7119 -3.3613
  185POPC  H11B21163   4.024   5.406   7.192 -0.8666 -0.4558  0.7270
  185POPC     P21164   4.115   5.538   6.978 -0.5457 -0.6472  0.1343
  185POPC   O1321165   4.231   5.523   7.074 -0.4282  0.0449  0.2952
  185POPC   O1421166   4.031   5.657   6.994  0.8286 -0.2934 -0.2938
  185POPC   O1221167   4.026   5.415   6.976  0.4415  0.6928  0.0436
  185POPC   O1121168   4.169   5.546   6.833 -0.3226  0.0584 -0.3458
  185POPC    C121169   4.102   5.468   6.734 -0.2379  0.1652 -0.2953
  185POPC    HA21170   3.999   5.502   6.712 -0.7902 -1.2572 -0.0484
  185POPC    HB21171   4.102   5.359   6.757  1.2069  0.3840  0.8909
  185POPC    C221172   4.179   5.501   6.604  0.0603 -0.9569 -1.0045
  185POPC    HS21173   4.105   5.491   6.522 -0.6747 -1.1996 -0.3263
  185POPC   O2121174   4.295   5.419   6.595  0.0489  0.3319  0.5480
  185POPC   C2121175   4.274   5.304   6.543  0.3051  0.6306  0.2898
  185POPC   O2221176   4.166   5.255   6.513 -0.3159 -0.2442 -0.1395
  185POPC   C2221177   4.408   5.226   6.538  0.0897  0.2762 -0.0367
  185POPC   H2R21178   4.394   5.134   6.479 -0.2639  0.2515  0.0874
  185POPC   H2S21179   4.435   5.205   6.643 -0.0239 -2.4315 -0.4904
  185POPC    C321180   4.219   5.653   6.582 -0.0242  0.1039  0.3917
  185POPC    HX21181   4.290   5.691   6.659 -1.3951  0.6222  1.4443
  185POPC    HY21182   4.133   5.717   6.611  0.9960  0.6511  2.4207
  185POPC   O3121183   4.268   5.678   6.450  0.3246 -0.5096 -0.6768
  185POPC   C3121184   4.180   5.726   6.360  0.4848  0.0920  0.1113
  185POPC   O3221185   4.058   5.735   6.375 -0.0432 -0.2661 -0.0244
  185POPC   C3221186   4.256   5.738   6.224 -0.0533  0.8132 -0.4549
  185POPC   H2X21187   4.248   5.630   6.199  1.7058 -0.1968  2.7901
  185POPC   H2Y21188   4.363   5.755   6.249  0.0896 -1.4365  0.7466
  185POPC   C2321189   4.511   5.321   6.458  0.1815  0.1228  0.0369
  185POPC   H3R21190   4.616   5.290   6.475  0.2837 -0.9570 -2.1537
  185POPC   H3S21191   4.505   5.420   6.508 -1.2942 -0.1180  0.4013
  185POPC   C2421192   4.504   5.315   6.301  0.0637  0.0335  0.4969
  185POPC   H4R21193   4.496   5.210   6.267 -1.0928  0.9178 -2.2636
  185POPC   H4S21194   4.606   5.343   6.266 -0.3187 -1.4471 -2.0248
  185POPC   C2521195   4.406   5.417   6.237  0.5490 -0.1837  0.3607
  185POPC   H5R21196   4.449   5.519   6.227 -0.9513  0.4160 -0.3133
  185POPC   H5S21197   4.321   5.428   6.307  0.5112  2.6585  0.0131
  185POPC   C2621198   4.349   5.377   6.101  0.0261  0.1016  0.4065
  185POPC   H6R21199   4.257   5.436   6.082  0.3916  0.0565 -1.7198
  185POPC   H6S21200   4.354   5.266   6.105  2.8048  0.1426  0.4059
  185POPC   C2721201   4.431   5.409   5.982 -0.3756 -0.1988  0.1075
  185POPC   H7R21202   4.538   5.384   5.999 -0.2501 -0.6905 -1.2495
  185POPC   H7S21203   4.426   5.519   5.975  0.8690 -0.0909  0.6186
  185POPC   C2821204   4.394   5.336   5.853 -0.0320  0.1016 -0.5221
  185POPC   H8R21205   4.388   5.225   5.865 -0.5112  0.1827  0.0836
  185POPC   H8S21206   4.476   5.353   5.781 -0.5002  1.5258 -0.7425
  185POPC   C2921207   4.260   5.386   5.814  0.0998  0.4068 -0.0852
  185POPC   H9121208   4.173   5.333   5.856 -2.1661  1.1334 -3.4790
  185POPC  C21021209   4.232   5.472   5.717  0.0029 -0.4394  0.1767
  185POPC  H10121210   4.129   5.509   5.710 -0.0356 -0.8234 -1.8486
  185POPC  C21121211   4.335   5.555   5.638 -0.5654  0.7244 -0.0242
  185POPC  H11R21212   4.435   5.524   5.677 -0.9615 -1.7959 -0.8277
  185POPC  H11S21213   4.315   5.662   5.659  0.6250  0.5988  1.9968
  185POPC  C21221214   4.319   5.542   5.486  0.5223  0.2108 -0.1423
  185POPC  H12R21215   4.212   5.549   5.459  0.7971  2.2589 -0.8780
  185POPC  H12S21216   4.367   5.449   5.447  0.7262  0.2269  0.0674
  185POPC  C21321217   4.398   5.654   5.412  0.1237  0.1244  0.1171
  185POPC  H13R21218   4.506   5.627   5.414 -0.1557 -1.1725 -0.9220
  185POPC  H13S21219   4.372   5.737   5.481  2.0521 -0.4956  1.6919
  185POPC  C21421220   4.344   5.657   5.270 -0.1231  0.1483  0.3130
  185POPC  H14R21221   4.333   5.556   5.226  0.3722 -0.3146  1.2414
  185POPC  H14S21222   4.408   5.704   5.192 -1.4292 -1.1577 -1.6342
  185POPC  C21521223   4.206   5.732   5.252  0.2238 -0.2412 -0.0761
  185POPC  H15R21224   4.202   5.837   5.286 -1.0374 -0.8415  1.8204
  185POPC  H15S21225   4.123   5.688   5.311  0.3242  3.1582  2.9605
  185POPC  C21621226   4.160   5.747   5.101  0.1717 -0.5089  0.5490
  185POPC  H16R21227   4.251   5.787   5.053 -0.3904  1.4301  0.9951
  185POPC  H16S21228   4.079   5.823   5.096 -0.1067 -0.8833 -1.1986
  185POPC  C21721229   4.116   5.613   5.032 -0.3117  0.4094  0.1315
  185POPC  H17R21230   4.036   5.566   5.094  1.2037 -1.4841  0.7516
  185POPC  H17S21231   4.196   5.536   5.038  2.8302  3.4488  0.6849
  185POPC  C21821232   4.073   5.612   4.889 -0.7147  0.1430  0.3032
  185POPC  H18R21233   4.041   5.510   4.859 -2.4832  0.2987  1.5242
  185POPC  H18S21234   4.162   5.639   4.828 -0.7079  0.1334  0.3094
  185POPC  H18T21235   3.981   5.661   4.852 -1.8752 -3.2407 -1.7434
  185POPC   C3321236   4.200   5.828   6.115  0.0148 -0.1920 -0.3722
  185POPC   H3X21237   4.161   5.924   6.156 -1.1017  0.1961 -2.2663
  185POPC   H3Y21238   4.120   5.779   6.056  1.0494 -1.3366 -0.8448
  185POPC   C3421239   4.299   5.871   5.998  0.5598  0.6512 -0.6788
  185POPC   H4X21240   4.358   5.777   5.983 -1.1608 -0.8249  1.3097
  185POPC   H4Y21241   4.358   5.946   6.054 -0.8443  0.6590  0.8566
  185POPC   C3521242   4.231   5.923   5.874  0.3034 -0.3055  0.3055
  185POPC   H5X21243   4.159   6.003   5.901 -2.3855 -1.8717 -1.7538
  185POPC   H5Y21244   4.170   5.835   5.843 -0.4527 -0.2050  1.4435
  185POPC   C3621245   4.321   5.966   5.756  0.9693 -0.2664  0.1600
  185POPC   H6X21246   4.397   5.888   5.730  1.1557  0.6272 -2.2222
  185POPC   H6Y21247   4.373   6.056   5.795  0.3010  0.3464 -0.3533
  185POPC   C3721248   4.238   6.017   5.629 -0.6173  0.6898 -0.1531
  185POPC   H7X21249   4.156   6.084   5.660 -2.0755 -1.2028  0.2614
  185POPC   H7Y21250   4.188   5.927   5.588  0.2447  0.7501 -1.4069
  185POPC   C3821251   4.329   6.100   5.536  0.2907 -0.0794  0.0475
  185POPC   H8X21252   4.408   6.030   5.502  0.2550 -1.7402  3.0402
  185POPC   H8Y21253   4.373   6.189   5.585 -0.6286  2.2265 -3.0247
  185POPC   C3921254   4.250   6.150   5.407  0.0105 -0.0980 -0.6329
  185POPC   H9X21255   4.170   6.221   5.435 -0.2513 -0.6371 -0.0104
  185POPC   H9Y21256   4.200   6.059   5.367  2.0914 -0.5790 -2.3943
  185POPC  C31021257   4.344   6.192   5.287  0.5766 -0.0181 -0.5579
  185POPC  H10X21258   4.426   6.117   5.280  0.2194 -0.3414 -1.3124
  185POPC  H10Y21259   4.395   6.290   5.304 -0.0595  0.7636 -2.8410
  185POPC  C31121260   4.262   6.183   5.158 -0.4955 -0.0280  0.6268
  185POPC  H11X21261   4.184   6.262   5.155 -1.2668 -0.7936  0.3548
  185POPC  H11Y21262   4.212   6.085   5.168 -1.1262  0.2299  0.0478
  185POPC  C31221263   4.344   6.192   5.034  0.1559  0.4589  0.2251
  185POPC  H12X21264   4.365   6.296   5.001  1.0636  0.7751  1.7137
  185POPC  H12Y21265   4.277   6.155   4.953  1.3566  0.8610 -0.9754
  185POPC  C31321266   4.475   6.122   5.036  0.2243 -0.0313 -0.2107
  185POPC  H13X21267   4.467   6.019   5.077  0.3927 -0.7457 -1.8871
  185POPC  H13Y21268   4.544   6.193   5.087 -1.1405  2.3319 -1.4676
  185POPC  C31421269   4.527   6.092   4.894  0.2714  0.3386  0.9792
  185POPC  H14X21270   4.439   6.058   4.836 -1.8393  4.0086  1.7712
  185POPC  H14Y21271   4.609   6.016   4.894 -1.5321 -1.7092  0.2954
  185POPC  C31521272   4.583   6.214   4.815  0.3668 -0.1038  0.2240
  185POPC  H15X21273   4.516   6.299   4.838  0.1285 -0.2499  0.0705
  185POPC  H15Y21274   4.580   6.196   4.705  0.4748 -0.4569  0.2785
  185POPC  C31621275   4.725   6.264   4.864 -0.6818  0.7632  0.2331
  185POPC  H16X21276   4.741   6.366   4.824 -1.0738 -0.5545 -3.7258
  185POPC  H16Y21277   4.810   6.195   4.847 -2.3529 -1.5763  0.8649
  185POPC  H16Z21278   4.731   6.265   4.975  0.5456 -2.3660  0.3071
  186POPC     N21279   2.620   4.188   7.013 -0.5728  0.2245 -0.7011
  186POPC   C1221280   2.679   4.322   6.977  0.0062 -0.8580  0.5090
  186POPC  H12A21281   2.604   4.372   6.917  0.7519  0.5575  0.7229
  186POPC  H12B21282   2.770   4.324   6.920 -0.8923 -3.6708 -1.1973
  186POPC   C1321283   2.724   4.108   7.077 -0.4410 -0.8500 -0.6609
  186POPC  H13A21284   2.785   4.170   7.141  0.3027 -0.4107 -1.7718
  186POPC  H13B21285   2.695   4.019   7.132  1.7808 -1.7521 -0.8319
  186POPC  H13C21286   2.789   4.073   6.999 -0.2147  0.9408 -1.3208
  186POPC   C1421287   2.501   4.195   7.108 -0.0773 -0.1058 -0.1773
  186POPC  H14A21288   2.530   4.223   7.208 -0.0745  0.0159 -0.2130
  186POPC  H14B21289   2.436   4.269   7.064  1.1323 -0.5994 -3.0501
  186POPC  H14C21290   2.447   4.102   7.122 -0.9549  0.6405  1.7332
  186POPC   C1521291   2.573   4.106   6.899  0.0180  0.6600 -0.0746
  186POPC  H15A21292   2.523   4.022   6.944 -1.3520  1.1468 -0.6468
  186POPC  H15B21293   2.654   4.063   6.841 -1.0699  0.8195 -1.7937
  186POPC  H15C21294   2.504   4.143   6.825 -2.6467  0.1536  2.0218
  186POPC   C1121295   2.715   4.419   7.091  0.1774 -0.1166 -0.0391
  186POPC  H11A21296   2.627   4.416   7.159  1.7722 -0.5734  2.1149
  186POPC  H11B21297   2.741   4.520   7.054  1.2427 -0.5049 -0.3892
  186POPC     P21298   2.981   4.419   7.115 -0.0191  0.1055  0.1276
  186POPC   O1321299   3.079   4.326   7.172  0.2402  0.1585 -0.1225
  186POPC   O1421300   2.999   4.563   7.158 -0.1033  0.1054  0.0095
  186POPC   O1221301   2.834   4.386   7.165  0.0403 -0.4871 -0.2333
  186POPC   O1121302   2.972   4.405   6.959  0.1665  0.7185  0.2724
  186POPC    C121303   3.073   4.459   6.874 -0.3533  0.2741  0.0031
  186POPC    HA21304   3.177   4.424   6.894  1.0592  3.0317 -1.8536
  186POPC    HB21305   3.086   4.566   6.901  2.2628  0.3143 -1.1694
  186POPC    C221306   3.051   4.445   6.719 -0.3523  0.1408  0.9109
  186POPC    HS21307   3.147   4.438   6.662 -0.3292 -0.8462  1.0572
  186POPC   O2121308   2.973   4.557   6.668  0.2958  0.4551  0.1267
  186POPC   C2121309   3.042   4.667   6.636 -0.7543 -0.5313 -0.1302
  186POPC   O2221310   3.158   4.689   6.658 -0.0022  0.1426  0.0591
  186POPC   C2221311   2.948   4.751   6.555 -1.1094 -0.0964 -0.7778
  186POPC   H2R21312   2.896   4.807   6.636 -1.0507 -3.4937  1.8650
  186POPC   H2S21313   2.879   4.678   6.508 -2.9045  1.3552 -0.5037
  186POPC    C321314   2.985   4.309   6.697  0.2916 -0.7069 -0.4449
  186POPC    HX21315   2.884   4.331   6.738  1.9989  3.9731  1.9890
  186POPC    HY21316   3.053   4.234   6.742 -0.7189 -1.5738 -0.3177
  186POPC   O3121317   2.974   4.281   6.563 -0.4103 -0.6728 -0.3039
  186POPC   C3121318   2.927   4.166   6.527  0.2734  0.1800 -0.0744
  186POPC   O3221319   2.866   4.089   6.601 -0.4773  0.0842 -0.9650
  186POPC   C3221320   2.947   4.140   6.382 -0.4523  0.1413 -0.2200
  186POPC   H2X21321   3.052   4.131   6.348  0.1601  2.7632  0.6877
  186POPC   H2Y21322   2.902   4.224   6.324  0.6773 -0.3645 -1.8993
  186POPC   C2321323   3.035   4.829   6.457  0.4195  0.1419 -0.1702
  186POPC   H3R21324   3.112   4.757   6.424 -1.3780 -1.8213 -0.3378
  186POPC   H3S21325   3.092   4.917   6.494  1.2694  0.6046 -2.4381
  186POPC   C2421326   2.953   4.872   6.328  0.0150  0.8315  0.4602
  186POPC   H4R21327   2.879   4.949   6.358 -0.6428 -0.4731  2.4186
  186POPC   H4S21328   2.898   4.780   6.300  2.2271 -0.9637  1.6409
  186POPC   C2521329   3.041   4.920   6.217 -0.9050  0.2999  0.1780
  186POPC   H5R21330   3.113   4.847   6.175 -0.6495  1.3217 -1.2310
  186POPC   H5S21331   3.096   5.007   6.256 -1.1593  0.1492  0.9019
  186POPC   C2621332   2.958   4.970   6.101  0.0202  0.5553  0.2811
  186POPC   H6R21333   2.886   5.049   6.131 -4.0523 -2.4760 -0.7131
  186POPC   H6S21334   2.894   4.883   6.076 -1.5625  2.0444 -1.1338
  186POPC   C2721335   3.040   5.012   5.975 -0.4382  0.2659 -0.1523
  186POPC   H7R21336   3.121   4.938   5.962 -0.1286  0.3248  1.2188
  186POPC   H7S21337   3.079   5.116   5.988  0.3586 -0.1874  1.2836
  186POPC   C2821338   2.941   5.024   5.850 -0.0632  0.1594 -0.5188
  186POPC   H8R21339   2.865   5.103   5.866 -1.2012 -0.8416 -0.8351
  186POPC   H8S21340   2.882   4.930   5.857 -2.1366  1.3920 -0.6854
  186POPC   C2921341   3.034   5.043   5.733  0.0005 -0.5048  0.5291
  186POPC   H9121342   3.111   5.119   5.753 -0.2558 -0.1819  0.2865
  186POPC  C21021343   3.043   4.955   5.627  0.3850 -0.3408  0.1201
  186POPC  H10121344   3.125   4.968   5.554  0.7811  0.4394  0.6831
  186POPC  C21121345   2.953   4.831   5.605  0.1064 -0.5766 -0.5525
  186POPC  H11R21346   2.916   4.820   5.501 -0.0126  2.5914 -0.9352
  186POPC  H11S21347   2.864   4.835   5.671  1.0910  1.4751  0.7435
  186POPC  C21221348   3.021   4.698   5.636 -0.2849 -0.2798 -0.7941
  186POPC  H12R21349   3.111   4.682   5.572 -0.6008 -0.9838 -1.0734
  186POPC  H12S21350   2.948   4.618   5.609 -1.0047  0.2622 -0.4931
  186POPC  C21321351   3.065   4.679   5.786  1.0326 -0.5086 -0.3715
  186POPC  H13R21352   2.973   4.690   5.848  0.6867 -1.2211 -0.7359
  186POPC  H13S21353   3.137   4.758   5.816  1.1673 -0.6700 -0.2705
  186POPC  C21421354   3.115   4.543   5.832  0.2130 -0.1776 -0.0645
  186POPC  H14R21355   3.210   4.511   5.785  0.7240  1.6163 -0.3215
  186POPC  H14S21356   3.043   4.464   5.801  0.3651 -0.5384  0.4752
  186POPC  C21521357   3.145   4.548   5.982  0.4075 -0.3981  0.1559
  186POPC  H15R21358   3.051   4.583   6.031 -0.2292 -0.6775 -0.8422
  186POPC  H15S21359   3.211   4.635   6.002 -0.7980 -0.0070  2.9528
  186POPC  C21621360   3.191   4.418   6.046  0.0585 -0.9203 -0.8825
  186POPC  H16R21361   3.261   4.373   5.973  0.3371 -2.6119  0.3712
  186POPC  H16S21362   3.100   4.356   6.062 -1.5945  1.4988 -0.2164
  186POPC  C21721363   3.258   4.425   6.185  0.1024 -0.1770 -0.3219
  186POPC  H17R21364   3.342   4.496   6.172 -0.0015 -0.4708 -3.3340
  186POPC  H17S21365   3.286   4.320   6.206 -1.1366 -0.7173 -1.2298
  186POPC  C21821366   3.172   4.481   6.298  0.0586  0.5980 -0.2091
  186POPC  H18R21367   3.090   4.547   6.263  0.2709  0.1598 -1.5840
  186POPC  H18S21368   3.233   4.534   6.375 -1.5851  2.1252  0.1095
  186POPC  H18T21369   3.119   4.398   6.351  0.2051  0.2207 -0.6424
  186POPC   C3321370   2.890   4.006   6.319 -0.4104  0.1560 -0.1682
  186POPC   H3X21371   2.798   3.981   6.376 -0.0179 -0.6312  0.1279
  186POPC   H3Y21372   2.957   3.919   6.338 -2.6202 -2.2432 -2.3412
  186POPC   C3421373   2.854   4.008   6.179  0.4208  0.3361 -0.1251
  186POPC   H4X21374   2.949   3.998   6.123  1.5489 -0.1086  1.7954
  186POPC   H4Y21375   2.805   4.104   6.151 -0.9571  0.1471  1.4603
  186POPC   C3521376   2.762   3.892   6.139  0.2633 -0.4150 -0.0230
  186POPC   H5X21377   2.677   3.899   6.209  0.8946  0.3831  0.6872
  186POPC   H5Y21378   2.810   3.792   6.136 -2.1157 -1.5942 -1.1656
  186POPC   C3621379   2.712   3.901   5.992  0.0120 -0.6352  0.3991
  186POPC   H6X21380   2.663   4.001   5.990  2.1145  0.4320 -0.9359
  186POPC   H6Y21381   2.638   3.818   5.989 -2.0654  1.0827  1.1213
  186POPC   C3721382   2.809   3.908   5.876  0.7237  0.1755  0.0830
  186POPC   H7X21383   2.883   3.826   5.888  1.5318  0.6826 -1.2153
  186POPC   H7Y21384   2.874   3.998   5.874  0.1542  0.5892 -1.1903
  186POPC   C3821385   2.748   3.896   5.743  1.2945 -0.7327  1.2023
  186POPC   H8X21386   2.680   3.807   5.746 -0.7140  0.6201 -1.0869
  186POPC   H8Y21387   2.831   3.890   5.670  0.0249  1.7585 -0.5732
  186POPC   C3921388   2.676   4.024   5.708  0.0627  0.1419  0.0409
  186POPC   H9X21389   2.752   4.101   5.685 -1.5569  0.9779 -2.9913
  186POPC   H9Y21390   2.615   4.054   5.796  0.6220 -1.0777  0.8727
  186POPC  C31021391   2.590   4.008   5.581 -0.1334 -0.0083  0.9521
  186POPC  H10X21392   2.535   4.100   5.554  0.7726  0.5838  1.0687
  186POPC  H10Y21393   2.519   3.928   5.611 -0.7215  0.9892  2.3040
  186POPC  C31121394   2.673   3.978   5.454 -0.2796  0.6437 -0.6986
  186POPC  H11X21395   2.723   3.880   5.470 -0.3558  1.1316  4.3843
  186POPC  H11Y21396   2.755   4.052   5.446 -1.4321  1.9528 -0.7174
  186POPC  C31221397   2.585   3.980   5.329 -0.0146 -0.5487  0.2424
  186POPC  H12X21398   2.649   3.982   5.239  0.5376 -0.4228  0.6311
  186POPC  H12Y21399   2.524   4.073   5.326 -0.3172 -0.7747 -2.1330
  186POPC  C31321400   2.492   3.850   5.313 -0.2103 -0.1967 -0.1722
  186POPC  H13X21401   2.438   3.818   5.405  2.1985  0.6318  1.6510
  186POPC  H13Y21402   2.558   3.770   5.273 -0.2818 -0.5192  0.3370
  186POPC  C31421403   2.384   3.865   5.205 -0.4991  0.1527 -0.0111
  186POPC  H14X21404   2.432   3.899   5.111 -1.2270  1.0957 -0.0599
  186POPC  H14Y21405   2.317   3.946   5.243 -2.8283 -1.3944 -0.6369
  186POPC  C31521406   2.297   3.739   5.159  0.1641  0.0572  0.2400
  186POPC  H15X21407   2.231   3.774   5.078  0.4841 -0.0344 -0.0621
  186POPC  H15Y21408   2.226   3.692   5.232 -1.2515 -1.0668 -1.7631
  186POPC  C31621409   2.379   3.623   5.111 -0.1626 -0.3372  0.4255
  186POPC  H16X21410   2.454   3.598   5.189  1.0314  0.2678 -0.4815
  186POPC  H16Y21411   2.438   3.649   5.021  0.2274 -0.9009  0.5096
  186POPC  H16Z21412   2.315   3.536   5.086  1.5427 -0.9557 -2.2982
  187POPC     N21413   5.596   5.000   2.410  0.5767 -0.0241  0.1149
  187POPC   C1221414   5.736   5.050   2.383 -0.0050 -0.5591  0.0200
  187POPC  H12A21415   5.730   5.157   2.396 -1.5945 -0.5867 -0.2327
  187POPC  H12B21416   5.754   5.036   2.277 -0.2501  0.6863 -0.2134
  187POPC   C1321417   5.534   5.044   2.540 -0.5762 -0.4581  0.2521
  187POPC  H13A21418   5.579   5.013   2.633 -1.9321 -0.7911  0.8212
  187POPC  H13B21419   5.547   5.152   2.542 -0.0817 -0.4801 -0.9391
  187POPC  H13C21420   5.427   5.032   2.548 -0.6477 -0.7754 -0.9299
  187POPC   C1421421   5.505   5.055   2.301 -0.1783 -0.3187 -1.0202
  187POPC  H14A21422   5.407   5.012   2.312 -1.0260  1.7339 -0.1379
  187POPC  H14B21423   5.500   5.162   2.313 -0.7583 -0.3163 -1.2567
  187POPC  H14C21424   5.551   5.040   2.204  2.2887  0.8447 -0.1304
  187POPC   C1521425   5.588   4.857   2.403  0.1682  0.4579 -0.7424
  187POPC  H15A21426   5.636   4.810   2.489 -0.4036  1.2239  0.0126
  187POPC  H15B21427   5.648   4.820   2.321 -3.1522 -1.8432 -2.3254
  187POPC  H15C21428   5.488   4.818   2.394 -0.8436  2.6291  0.3925
  187POPC   C1121429   5.846   4.996   2.472  0.0955  1.0074 -0.2765
  187POPC  H11A21430   5.942   5.038   2.437 -0.2021  0.6366 -1.5740
  187POPC  H11B21431   5.857   4.887   2.453  1.6136  1.6484 -3.7943
  187POPC     P21432   5.805   4.919   2.725  0.4040  0.0730  0.2232
  187POPC   O1321433   5.894   4.801   2.708  0.1613  0.4764  0.4704
  187POPC   O1421434   5.660   4.900   2.752  0.1806  0.4716 -0.0635
  187POPC   O1221435   5.822   5.022   2.614  0.0002  0.2735 -0.2751
  187POPC   O1121436   5.858   5.014   2.839 -0.8507  0.2874  0.5213
  187POPC    C121437   5.991   5.071   2.834 -0.2963  0.0615 -0.4383
  187POPC    HA21438   6.000   5.180   2.820  2.0738  0.1569  1.3090
  187POPC    HB21439   6.042   5.027   2.745  1.1488  0.4398  0.1854
  187POPC    C221440   6.067   5.024   2.957  0.0998  0.5636  0.3293
  187POPC    HS21441   6.065   4.913   2.962  2.0191  0.4980  0.3716
  187POPC   O2121442   6.015   5.100   3.065 -0.1047 -0.0459 -0.3794
  187POPC   C2121443   6.014   5.059   3.187 -0.4739 -0.2889 -0.5526
  187POPC   O2221444   6.046   4.946   3.228 -0.1737 -0.2365  0.4559
  187POPC   C2221445   5.965   5.176   3.276 -0.1135 -0.5476 -0.5059
  187POPC   H2R21446   5.894   5.234   3.214 -0.1231  0.3951  0.3675
  187POPC   H2S21447   6.053   5.244   3.284  0.6750 -1.4807 -0.9140
  187POPC    C321448   6.220   5.052   2.947 -0.4207  0.3562  0.0799
  187POPC    HX21449   6.223   5.153   2.901 -0.6024  0.6282  0.6464
  187POPC    HY21450   6.260   4.987   2.867 -3.4271  0.0582 -1.3144
  187POPC   O3121451   6.299   5.050   3.077 -0.1509  1.0874 -0.2266
  187POPC   C3121452   6.349   4.935   3.106  0.3041 -0.1715  0.3794
  187POPC   O3221453   6.311   4.831   3.050  0.1383  0.0405 -0.0729
  187POPC   C3221454   6.448   4.937   3.224 -0.1536 -0.8188  0.4374
  187POPC   H2X21455   6.543   4.988   3.197 -0.0961 -1.4188 -0.5800
  187POPC   H2Y21456   6.463   4.829   3.248 -1.1138 -0.8764  0.7840
  187POPC   C2321457   5.916   5.127   3.411 -0.1272  0.3518 -0.3630
  187POPC   H3R21458   5.839   5.048   3.399 -0.4626  1.0342 -3.4987
  187POPC   H3S21459   5.870   5.206   3.474 -0.5817 -0.4824  0.3729
  187POPC   C2421460   6.016   5.060   3.499 -0.0332 -0.0059 -0.7140
  187POPC   H4R21461   6.110   5.118   3.493 -1.0186  2.1324  2.1950
  187POPC   H4S21462   6.049   4.958   3.469  1.3877  0.9711 -2.6723
  187POPC   C2521463   6.000   5.075   3.650 -0.4692 -0.4455 -0.2960
  187POPC   H5R21464   6.076   5.010   3.699  0.6481 -0.5876 -2.1199
  187POPC   H5S21465   5.906   5.024   3.681 -0.4223 -1.4354 -1.6852
  187POPC   C2621466   5.998   5.216   3.703  0.5064 -0.2150 -0.1037
  187POPC   H6R21467   5.919   5.275   3.651 -1.1293  0.4193  2.8568
  187POPC   H6S21468   6.089   5.275   3.679 -0.4363  0.4096 -2.3685
  187POPC   C2721469   5.985   5.221   3.856  0.0502 -0.1587 -0.5232
  187POPC   H7R21470   6.088   5.224   3.896 -0.4190  3.7328  0.8276
  187POPC   H7S21471   5.924   5.133   3.883  1.0011 -1.2642 -1.8450
  187POPC   C2821472   5.912   5.346   3.920 -0.0390 -1.1186  0.3055
  187POPC   H8R21473   5.889   5.322   4.026 -0.2264 -0.3054  0.4565
  187POPC   H8S21474   5.811   5.350   3.876 -0.8937  1.9947  2.1739
  187POPC   C2921475   5.970   5.490   3.913  0.1100 -0.3378 -0.1750
  187POPC   H9121476   5.952   5.543   3.819  0.0121 -1.6645 -0.9187
  187POPC  C21021477   6.044   5.551   4.006 -0.5373 -0.7249  0.1297
  187POPC  H10121478   6.075   5.655   3.990  2.6715 -1.7909 -1.5048
  187POPC  C21121479   6.085   5.500   4.143  0.1953  0.3533 -0.1452
  187POPC  H11R21480   6.188   5.459   4.135 -0.1720 -1.0501  1.5650
  187POPC  H11S21481   6.014   5.420   4.174  0.1304  1.0183  1.4843
  187POPC  C21221482   6.082   5.604   4.258 -0.1164 -0.5920  0.2351
  187POPC  H12R21483   6.127   5.699   4.223  1.9225 -1.3996  0.5488
  187POPC  H12S21484   6.136   5.566   4.347  1.1105  0.0666 -0.2077
  187POPC  C21321485   5.941   5.626   4.311  0.6689  0.9350  0.3575
  187POPC  H13R21486   5.888   5.531   4.332  1.3303  0.4222 -0.2430
  187POPC  H13S21487   5.877   5.660   4.226 -1.9610 -0.8397  1.4933
  187POPC  C21421488   5.919   5.711   4.436  0.3081 -0.8248 -0.0667
  187POPC  H14R21489   5.810   5.728   4.443  0.5496  1.0553 -0.4216
  187POPC  H14S21490   5.955   5.814   4.417  1.0364 -1.0307  0.1413
  187POPC  C21521491   5.985   5.653   4.563  0.0132 -0.0059 -0.1819
  187POPC  H15R21492   6.091   5.633   4.537  0.1293  0.3499  0.0055
  187POPC  H15S21493   5.939   5.554   4.578 -1.2761  0.4347 -1.1064
  187POPC  C21621494   5.983   5.743   4.686  0.3899  0.1905  0.4495
  187POPC  H16R21495   6.023   5.844   4.663  1.2466  0.0483  1.2495
  187POPC  H16S21496   6.042   5.707   4.773  0.3912  4.1806  2.3444
  187POPC  C21721497   5.839   5.768   4.744  0.5276  0.5372  0.0123
  187POPC  H17R21498   5.787   5.670   4.751  2.4297 -0.9499 -3.7884
  187POPC  H17S21499   5.783   5.824   4.666  3.9530  2.9933 -0.9383
  187POPC  C21821500   5.832   5.850   4.873 -0.4954  0.3774 -0.4414
  187POPC  H18R21501   5.901   5.804   4.946 -0.9124  2.6663  1.5321
  187POPC  H18S21502   5.731   5.850   4.919 -0.3642 -0.4317 -0.1464
  187POPC  H18T21503   5.856   5.958   4.856 -0.6195  0.1791 -1.9605
  187POPC   C3321504   6.383   4.999   3.352  0.4180 -0.0991  1.1775
  187POPC   H3X21505   6.286   4.951   3.379  0.2215 -0.6162 -0.3734
  187POPC   H3Y21506   6.366   5.109   3.348 -0.7898 -0.3063 -0.0535
  187POPC   C3421507   6.467   4.981   3.481  0.7185  0.2182 -0.3231
  187POPC   H4X21508   6.575   5.006   3.466  0.8642 -0.7015 -0.9276
  187POPC   H4Y21509   6.459   4.874   3.510 -0.9920  0.2858 -0.4904
  187POPC   C3521510   6.409   5.056   3.606 -0.8499 -0.4366 -0.4287
  187POPC   H5X21511   6.305   5.019   3.621 -1.1129  0.9866  1.7456
  187POPC   H5Y21512   6.396   5.160   3.571 -2.4532 -0.2342  0.6741
  187POPC   C3621513   6.491   5.054   3.736 -0.2828 -0.6093  0.5782
  187POPC   H6X21514   6.583   5.116   3.732  1.7285 -3.3925  0.9774
  187POPC   H6Y21515   6.520   4.947   3.748 -0.3877 -0.8463 -1.0708
  187POPC   C3721516   6.412   5.104   3.856  0.6184  0.0345 -0.4887
  187POPC   H7X21517   6.324   5.037   3.865  0.8692 -0.1710  0.5191
  187POPC   H7Y21518   6.376   5.205   3.827 -1.4432 -0.6301 -0.4468
  187POPC   C3821519   6.498   5.131   3.981  1.0317 -0.6707 -0.2243
  187POPC   H8X21520   6.456   5.210   4.047  0.4407  1.0548 -2.5577
  187POPC   H8Y21521   6.593   5.170   3.940  0.3283  1.9675  0.4879
  187POPC   C3921522   6.500   5.015   4.073 -0.6698  0.4005  0.3226
  187POPC   H9X21523   6.508   4.916   4.022 -0.4751  0.1176  0.8923
  187POPC   H9Y21524   6.400   5.015   4.123 -0.0789  0.3105  1.5488
  187POPC  C31021525   6.596   5.023   4.188  0.6225 -0.5574 -0.0517
  187POPC  H10X21526   6.700   5.010   4.152  1.2234 -1.7446  1.9551
  187POPC  H10Y21527   6.587   4.937   4.258 -1.7596  0.1352  0.5738
  187POPC  C31121528   6.589   5.153   4.276  0.0950 -0.0124 -0.4166
  187POPC  H11X21529   6.480   5.171   4.289  0.3464  1.7786 -0.5075
  187POPC  H11Y21530   6.621   5.249   4.229 -0.6834 -0.3854 -1.7709
  187POPC  C31221531   6.651   5.131   4.415  0.6991  0.1750  0.4443
  187POPC  H12X21532   6.762   5.122   4.421  0.4966 -1.9672  2.4204
  187POPC  H12Y21533   6.609   5.045   4.471  0.1912  0.1736  0.0695
  187POPC  C31321534   6.613   5.249   4.502  0.2594 -0.7576 -0.4224
  187POPC  H13X21535   6.502   5.257   4.494  0.2532 -1.4869 -1.2372
  187POPC  H13Y21536   6.645   5.347   4.460 -0.9514  0.6033  1.6720
  187POPC  C31421537   6.656   5.230   4.652 -0.0763 -0.1890  0.7848
  187POPC  H14X21538   6.760   5.193   4.646 -0.4320 -1.2784  0.9737
  187POPC  H14Y21539   6.594   5.143   4.683  1.6920 -1.1574  1.7493
  187POPC  C31521540   6.634   5.361   4.728 -0.5201  0.0624  0.2076
  187POPC  H15X21541   6.532   5.393   4.700 -0.1765 -0.3667 -1.7221
  187POPC  H15Y21542   6.701   5.438   4.684  1.1485 -0.5944  1.4798
  187POPC  C31621543   6.667   5.357   4.870 -0.3311 -0.4537  0.2672
  187POPC  H16X21544   6.639   5.455   4.913 -2.2900 -1.5068  1.5041
  187POPC  H16Y21545   6.773   5.335   4.899 -0.0519 -1.1213 -1.1743
  187POPC  H16Z21546   6.600   5.286   4.923  0.5854 -0.2352  1.8096
  188POPC     N21547   1.240   3.625   2.553 -0.1804 -0.4947 -0.0458
  188POPC   C1221548   1.319   3.536   2.457  0.3198 -0.1715  0.8022
  188POPC  H12A21549   1.287   3.548   2.355  1.0990  0.8587  0.6646
  188POPC  H12B21550   1.295   3.435   2.487 -0.9046 -0.0632  0.2264
  188POPC   C1321551   1.271   3.592   2.694  0.3166  0.4361 -0.2645
  188POPC  H13A21552   1.376   3.568   2.689  0.1376 -0.1493 -3.2549
  188POPC  H13B21553   1.264   3.677   2.760 -0.3918  1.3500 -1.4733
  188POPC  H13C21554   1.200   3.522   2.736  0.2022  0.2062 -0.8355
  188POPC   C1421555   1.266   3.776   2.526  1.1486  0.0723  0.5515
  188POPC  H14A21556   1.269   3.808   2.423 -0.3514 -0.3332  0.3641
  188POPC  H14B21557   1.190   3.839   2.571  2.1259  1.6573  0.0873
  188POPC  H14C21558   1.359   3.812   2.568  2.4463 -1.5532 -0.7733
  188POPC   C1521559   1.095   3.593   2.522  0.6965  0.3329  0.1709
  188POPC  H15A21560   1.069   3.633   2.425 -0.0867 -0.8253 -0.1075
  188POPC  H15B21561   1.022   3.638   2.588 -3.3652 -1.7668 -2.5118
  188POPC  H15C21562   1.073   3.487   2.524  1.0432  0.1603 -2.4686
  188POPC   C1121563   1.476   3.544   2.443  0.2529  0.0930  0.0237
  188POPC  H11A21564   1.507   3.643   2.405  0.9396 -0.0511  0.1952
  188POPC  H11B21565   1.513   3.477   2.362  1.1089 -0.9494  1.2255
  188POPC     P21566   1.642   3.401   2.586  0.0897 -0.0129  0.2670
  188POPC   O1321567   1.767   3.419   2.511  0.2806 -0.2968 -0.4215
  188POPC   O1421568   1.573   3.279   2.545 -0.2492 -0.2129 -0.3672
  188POPC   O1221569   1.546   3.521   2.567  0.0563 -0.6525 -0.0725
  188POPC   O1121570   1.655   3.414   2.738 -0.2114  0.0478 -0.1728
  188POPC    C121571   1.756   3.475   2.818 -0.3068  0.6251 -0.2037
  188POPC    HA21572   1.795   3.566   2.768  1.1779 -0.7140 -1.6180
  188POPC    HB21573   1.843   3.407   2.833 -1.4952 -1.4568 -1.9629
  188POPC    C221574   1.693   3.527   2.953  0.2314 -0.3325 -0.3351
  188POPC    HS21575   1.774   3.586   3.001  3.0035 -2.0352 -2.5848
  188POPC   O2121576   1.652   3.419   3.034 -0.5977  0.0228  0.8524
  188POPC   C2121577   1.749   3.344   3.093 -0.2170  0.0770 -0.6349
  188POPC   O2221578   1.870   3.373   3.099  0.1467 -0.2708  0.1782
  188POPC   C2221579   1.675   3.231   3.168  0.0338  0.4297 -0.1284
  188POPC   H2R21580   1.682   3.138   3.107  0.3988  0.0757  0.4379
  188POPC   H2S21581   1.566   3.250   3.179  0.2589  1.6024  0.2152
  188POPC    C321582   1.568   3.617   2.926  0.2262  0.3787  0.5274
  188POPC    HX21583   1.499   3.566   2.856 -0.9871  1.7003  0.7173
  188POPC    HY21584   1.607   3.709   2.878 -2.6274  0.9358 -0.8923
  188POPC   O3121585   1.503   3.651   3.056 -0.5821  0.1605 -0.1446
  188POPC   C3121586   1.393   3.574   3.084 -0.0925 -0.2982  0.2368
  188POPC   O3221587   1.357   3.487   3.006 -0.2594 -0.0357 -0.7065
  188POPC   C3221588   1.352   3.603   3.218  0.0210 -0.1011  0.0727
  188POPC   H2X21589   1.249   3.562   3.226 -0.4219  0.0769 -3.3229
  188POPC   H2Y21590   1.361   3.711   3.245 -1.8656 -0.2310  1.5296
  188POPC   C2321591   1.744   3.200   3.308  0.2812 -0.3834  0.4451
  188POPC   H3R21592   1.854   3.216   3.307  0.2533  0.1396 -2.1028
  188POPC   H3S21593   1.720   3.096   3.336 -2.8600 -0.8158 -2.9930
  188POPC   C2421594   1.680   3.288   3.412  0.4161 -0.4594 -0.5619
  188POPC   H4R21595   1.571   3.269   3.408 -0.1859  1.3022  3.1372
  188POPC   H4S21596   1.704   3.396   3.404  4.2774 -1.2300 -1.3604
  188POPC   C2521597   1.735   3.253   3.552  0.3565 -0.5506 -0.0465
  188POPC   H5R21598   1.838   3.295   3.541  0.4636 -1.3502 -3.1080
  188POPC   H5S21599   1.750   3.143   3.558  0.9383 -0.4170  1.2994
  188POPC   C2621600   1.661   3.300   3.676 -0.3555 -0.1618 -0.6457
  188POPC   H6R21601   1.551   3.288   3.669 -0.1040 -2.2436 -1.8640
  188POPC   H6S21602   1.674   3.409   3.697 -1.2420 -0.0098 -0.8455
  188POPC   C2721603   1.718   3.237   3.809  0.1730  0.0795  0.8172
  188POPC   H7R21604   1.827   3.259   3.801 -0.2579  1.7267 -2.4270
  188POPC   H7S21605   1.707   3.126   3.804 -0.1874  0.1568 -0.8913
  188POPC   C2821606   1.657   3.299   3.929 -0.9744  0.5846  0.1959
  188POPC   H8R21607   1.702   3.245   4.015  0.4935  0.2180 -0.7728
  188POPC   H8S21608   1.552   3.262   3.930 -0.6573 -0.3375  0.0544
  188POPC   C2921609   1.667   3.450   3.949  0.2383 -0.7084 -0.0020
  188POPC   H9121610   1.607   3.505   3.875  0.9265 -0.2489 -0.2285
  188POPC  C21021611   1.740   3.516   4.042  0.3772  0.1777  0.0595
  188POPC  H10121612   1.740   3.625   4.045 -1.5742  0.2141  0.4534
  188POPC  C21121613   1.823   3.442   4.148  0.7849 -0.0858 -0.5039
  188POPC  H11R21614   1.916   3.501   4.161  0.9146 -0.5313  0.7425
  188POPC  H11S21615   1.856   3.343   4.111  1.1585 -0.5086  0.8965
  188POPC  C21221616   1.761   3.411   4.290  0.1149 -0.0408 -0.4979
  188POPC  H12R21617   1.715   3.506   4.324  0.7969  0.5040 -1.0626
  188POPC  H12S21618   1.837   3.383   4.367 -2.3892 -2.5093  1.2735
  188POPC  C21321619   1.666   3.295   4.286  0.1546 -0.6818  0.5253
  188POPC  H13R21620   1.716   3.200   4.254 -0.3240 -0.5858 -0.5580
  188POPC  H13S21621   1.579   3.315   4.220 -0.1280 -0.9949  0.7965
  188POPC  C21421622   1.626   3.277   4.432 -0.0339  0.0388  0.0158
  188POPC  H14R21623   1.557   3.358   4.465  0.5741  1.2344 -1.5837
  188POPC  H14S21624   1.717   3.277   4.496 -1.2508  1.2513  1.8478
  188POPC  C21521625   1.548   3.148   4.462  0.2643  0.1676 -0.4735
  188POPC  H15R21626   1.468   3.133   4.386  1.4953 -0.9331 -1.5856
  188POPC  H15S21627   1.504   3.152   4.564 -1.2968 -3.5862 -0.8181
  188POPC  C21621628   1.643   3.022   4.465 -0.8813 -0.2246 -0.4651
  188POPC  H16R21629   1.726   3.034   4.538 -0.5846  2.2238 -1.1205
  188POPC  H16S21630   1.674   3.004   4.360 -2.6513  0.4761 -1.1358
  188POPC  C21721631   1.565   2.892   4.500  0.2475 -0.6668 -0.2463
  188POPC  H17R21632   1.470   2.889   4.442 -1.0394  1.8215  1.5561
  188POPC  H17S21633   1.536   2.904   4.606  3.3546  0.3711  0.5646
  188POPC  C21821634   1.639   2.756   4.478 -0.2584 -0.0325 -0.5417
  188POPC  H18R21635   1.624   2.723   4.374  0.0955 -1.3817 -0.1774
  188POPC  H18S21636   1.586   2.688   4.548  0.7325  0.3564  0.6269
  188POPC  H18T21637   1.746   2.757   4.509  0.0808 -1.0025 -1.6411
  188POPC   C3321638   1.448   3.527   3.309  0.0349 -0.2443 -0.7383
  188POPC   H3X21639   1.554   3.551   3.288  0.1196  1.4404  1.1996
  188POPC   H3Y21640   1.432   3.419   3.294 -1.9150  0.1937 -2.2015
  188POPC   C3421641   1.423   3.567   3.458  0.1416 -0.2002  0.0560
  188POPC   H4X21642   1.422   3.677   3.470  0.5692 -0.3903  2.2129
  188POPC   H4Y21643   1.507   3.530   3.521  0.7482  0.3483 -0.4150
  188POPC   C3521644   1.288   3.517   3.522  0.1183  0.0750  0.0743
  188POPC   H5X21645   1.307   3.409   3.540  2.3739  0.4673  0.4458
  188POPC   H5Y21646   1.205   3.535   3.451 -1.4800 -1.7546  1.3715
  188POPC   C3621647   1.258   3.581   3.661 -0.4977 -0.6318  0.2109
  188POPC   H6X21648   1.149   3.585   3.684 -0.2280  2.5996  1.6152
  188POPC   H6Y21649   1.296   3.686   3.660  0.0578 -0.7923  1.5007
  188POPC   C3721650   1.322   3.508   3.781  0.3276  0.8330 -0.3049
  188POPC   H7X21651   1.433   3.509   3.769  0.2110  2.8875 -1.5875
  188POPC   H7Y21652   1.282   3.405   3.771 -2.7722  1.8691  0.4804
  188POPC   C3821653   1.278   3.559   3.924 -0.5424  0.3199  0.1858
  188POPC   H8X21654   1.168   3.556   3.943 -0.7796 -1.5059 -1.2025
  188POPC   H8Y21655   1.295   3.669   3.926 -1.2276  0.4278  1.7890
  188POPC   C3921656   1.334   3.482   4.053 -0.3964 -0.4196  0.3644
  188POPC   H9X21657   1.437   3.519   4.072 -0.1548 -0.3784 -0.9193
  188POPC   H9Y21658   1.338   3.372   4.035 -2.6280 -0.8850  2.2381
  188POPC  C31021659   1.246   3.517   4.179  0.3238 -0.7985 -0.0203
  188POPC  H10X21660   1.138   3.492   4.171  0.4124 -1.1826 -0.0335
  188POPC  H10Y21661   1.260   3.627   4.175  2.3904 -1.0229 -3.2026
  188POPC  C31121662   1.308   3.449   4.303  0.2404  0.7082  0.1389
  188POPC  H11X21663   1.415   3.475   4.308  0.1275  1.3580 -0.6713
  188POPC  H11Y21664   1.299   3.339   4.288 -0.7200  0.3025  3.0783
  188POPC  C31221665   1.236   3.487   4.440 -0.5421 -0.0281 -0.2422
  188POPC  H12X21666   1.132   3.454   4.421 -0.8828 -0.1064  1.5726
  188POPC  H12Y21667   1.234   3.598   4.445 -2.4229 -0.0702  1.3617
  188POPC  C31321668   1.310   3.416   4.555  0.4013  0.3600 -0.4385
  188POPC  H13X21669   1.397   3.479   4.580  0.7817  0.8349 -2.7030
  188POPC  H13Y21670   1.330   3.314   4.516 -0.9110  0.4314 -1.3784
  188POPC  C31421671   1.235   3.413   4.689 -0.0181 -0.8129  0.1227
  188POPC  H14X21672   1.303   3.381   4.771 -0.4545 -2.5466 -0.1472
  188POPC  H14Y21673   1.163   3.328   4.688 -0.9492 -0.0481 -0.9589
  188POPC  C31521674   1.167   3.548   4.716  0.4358 -0.1669 -0.4980
  188POPC  H15X21675   1.086   3.531   4.791  0.1843 -0.0840 -0.7508
  188POPC  H15Y21676   1.116   3.571   4.621  1.7550 -1.9252 -1.7098
  188POPC  C31621677   1.267   3.654   4.761 -0.3113  0.3846  0.1878
  188POPC  H16X21678   1.333   3.610   4.838  1.0395  1.6421 -0.2101
  188POPC  H16Y21679   1.223   3.750   4.795  1.7168  1.0371  1.0932
  188POPC  H16Z21680   1.330   3.677   4.672  0.7117 -1.5173  0.3769
  189SAPI   C1221681   5.917   3.762   6.784 -1.3797  0.4972 -0.2591
  189SAPI    H221682   5.811   3.793   6.780 -1.1179  1.3430 -1.0855
  189SAPI    O221683   5.977   3.816   6.673 -0.6019 -0.8778  0.6958
  189SAPI   HO221684   5.913   3.802   6.602  0.7457 -1.6478 -0.4019
  189SAPI   C1321685   5.962   3.820   6.921  0.3310  0.0144  0.0566
  189SAPI    H321686   5.899   3.776   7.001  1.1740  0.0222  0.7451
  189SAPI    O321687   5.942   3.962   6.935 -0.0006  0.0448  0.2501
  189SAPI   HO321688   6.001   4.008   6.875 -1.5849  1.0159 -0.6351
  189SAPI   C1421689   6.098   3.778   6.970 -0.2682  0.2503  0.0876
  189SAPI    H421690   6.173   3.838   6.914 -0.7221  0.0646 -0.7323
  189SAPI    O421691   6.135   3.809   7.106  0.4920 -0.1300 -0.0001
  189SAPI   HO421692   6.197   3.881   7.094  1.5133 -1.1019 -0.7168
  189SAPI   C1521693   6.143   3.630   6.937  0.5710 -0.0137  0.2479
  189SAPI    H521694   6.086   3.567   7.008 -1.3260 -0.6548 -1.7091
  189SAPI    O521695   6.279   3.599   6.955  0.1514 -0.2644 -0.5856
  189SAPI   HO521696   6.303   3.640   7.039 -2.9856  0.1032  0.2780
  189SAPI   C1621697   6.081   3.571   6.808 -0.0533  0.6630 -0.5408
  189SAPI    H621698   6.148   3.625   6.738  3.1064  0.2925  1.9141
  189SAPI    O621699   6.092   3.428   6.802 -0.9072 -0.2303 -0.9020
  189SAPI   HO621700   6.031   3.395   6.735 -1.4352  2.1602 -1.6884
  189SAPI   C1121701   5.934   3.606   6.787  0.2974 -0.3056  0.2766
  189SAPI    H121702   5.884   3.563   6.876  0.6026  1.5854  1.4358
  189SAPI     P21703   5.724   3.563   6.632  0.1644 -0.4026  0.0098
  189SAPI   O1321704   5.643   3.578   6.761  0.3666 -0.2457  0.3298
  189SAPI   O1421705   5.684   3.457   6.536 -0.2400 -0.5943 -0.0808
  189SAPI   O1221706   5.885   3.548   6.666  0.2390 -0.0110  0.6272
  189SAPI   O1121707   5.732   3.709   6.560 -0.3372 -0.1348 -0.1629
  189SAPI    C121708   5.752   3.716   6.420  0.3904 -0.1970  0.2424
  189SAPI    HA21709   5.699   3.637   6.364  0.5986 -0.1124 -0.0757
  189SAPI    HB21710   5.711   3.810   6.378 -0.6717 -0.7282  0.0717
  189SAPI    C221711   5.898   3.705   6.371  0.0821 -0.5287  0.4679
  189SAPI    HS21712   5.951   3.628   6.430  2.2501  0.5785  0.0702
  189SAPI   O2121713   5.952   3.835   6.385  0.1078  0.4387  0.6031
  189SAPI   C2121714   6.084   3.850   6.368  0.0278  0.1058  0.1412
  189SAPI   O2221715   6.163   3.759   6.352  0.4254  0.0850 -0.1447
  189SAPI   C2221716   6.115   3.997   6.358 -0.1552  0.0183 -0.3490
  189SAPI   H2R21717   6.055   4.030   6.270 -0.6524 -0.2986 -0.1374
  189SAPI   H2S21718   6.086   4.045   6.455  1.1386  1.2192 -0.5266
  189SAPI    C321719   5.893   3.659   6.218  0.4463 -0.1602 -0.1563
  189SAPI    HX21720   5.872   3.550   6.217  1.9592 -0.4820  0.5300
  189SAPI    HY21721   5.992   3.655   6.167  1.7292  0.7776  2.1222
  189SAPI   O3121722   5.790   3.723   6.142 -0.5011 -0.6994  0.1029
  189SAPI   C3121723   5.831   3.833   6.081 -0.2810 -0.2867  0.8289
  189SAPI   O3221724   5.944   3.877   6.070  0.0910  0.6285 -0.5401
  189SAPI   C3221725   5.703   3.895   6.023  0.2097  0.1894  0.5588
  189SAPI   H2X21726   5.707   4.004   6.005  1.0251 -0.1208 -1.3763
  189SAPI   H2Y21727   5.622   3.885   6.099 -1.0120 -1.0826 -0.8197
  189SAPI   C2321728   6.260   4.038   6.332 -0.8993  0.5417  1.0544
  189SAPI   H3R21729   6.292   3.971   6.249  0.6956 -0.5717  2.4929
  189SAPI   H3S21730   6.322   4.000   6.416 -2.6072 -0.3014  1.9911
  189SAPI   C2421731   6.284   4.188   6.306 -0.6950  0.0885 -0.2467
  189SAPI   H4R21732   6.392   4.210   6.302 -0.1337 -2.2645  0.0588
  189SAPI   H4S21733   6.254   4.242   6.399 -0.6274 -2.6847  1.5290
  189SAPI   C2521734   6.216   4.233   6.184  0.5697  0.8597  0.9330
  189SAPI   H5R21735   6.130   4.298   6.208 -3.0472 -2.6225 -1.4168
  189SAPI   C2621736   6.256   4.213   6.055  0.5965  0.1645 -0.3202
  189SAPI   H6R21737   6.184   4.245   5.978 -1.4684  2.9013  2.4785
  189SAPI   C2721738   6.370   4.124   6.006  0.0026 -0.0794 -0.2173
  189SAPI   H7R21739   6.413   4.075   6.096  2.7995  0.3982 -1.2195
  189SAPI   H7S21740   6.452   4.189   5.971 -1.6938  2.6560  0.5816
  189SAPI   C2821741   6.343   4.014   5.901  0.1651 -0.7323 -0.7370
  189SAPI   H8R21742   6.301   3.925   5.951 -1.2900  0.5287  0.4036
  189SAPI   C2921743   6.352   4.028   5.766 -0.1624  0.4385  0.2329
  189SAPI   H9R21744   6.325   3.939   5.707 -1.5250  0.5019  0.7304
  189SAPI  C21021745   6.400   4.145   5.687  0.0515 -0.5220 -0.6198
  189SAPI  H10R21746   6.508   4.141   5.661  0.2735 -1.2415  0.3328
  189SAPI  H10S21747   6.388   4.227   5.761  1.4184 -2.5520  2.0453
  189SAPI  C21121748   6.320   4.173   5.559 -0.7657  0.8084  0.1322
  189SAPI  H11R21749   6.221   4.125   5.558 -0.4992  0.2455  0.7500
  189SAPI  C21221750   6.347   4.259   5.468 -0.3979 -0.4734  0.5866
  189SAPI  H12R21751   6.286   4.271   5.377  0.6787 -0.7579 -0.1832
  189SAPI  C21321752   6.465   4.355   5.465 -0.1858 -0.0015 -0.2590
  189SAPI  H13R21753   6.469   4.409   5.368  1.7928 -0.9020 -0.7199
  189SAPI  H13S21754   6.560   4.298   5.474 -0.6961 -0.4996  3.1375
  189SAPI  C21421755   6.469   4.450   5.583 -0.0908  0.2607 -0.1361
  189SAPI  H14R21756   6.488   4.411   5.684 -1.6614  1.0747  0.5151
  189SAPI  C21521757   6.444   4.587   5.579 -0.7740  0.1047 -0.2505
  189SAPI  H15R21758   6.436   4.634   5.678  1.0500  0.9847 -0.4700
  189SAPI  C21621759   6.427   4.674   5.454  0.0673 -0.1991 -0.4986
  189SAPI  H16R21760   6.477   4.624   5.368  0.3887 -0.4753 -0.1595
  189SAPI  H16S21761   6.466   4.776   5.472  0.8075 -1.0196  3.4649
  189SAPI  C21721762   6.281   4.676   5.423  1.1833  0.2693  0.0847
  189SAPI  H17R21763   6.229   4.733   5.502 -1.1700 -0.0634 -1.1537
  189SAPI  H17S21764   6.234   4.576   5.425 -1.7810  1.5589  1.7966
  189SAPI  C21821765   6.241   4.752   5.293 -0.2530 -0.9600  0.3116
  189SAPI  H18R21766   6.299   4.847   5.288 -1.1453 -0.4542 -0.7646
  189SAPI  H18S21767   6.131   4.768   5.298  0.1555  2.5780  0.8924
  189SAPI  C21921768   6.269   4.670   5.158 -0.4102  0.3959 -0.4173
  189SAPI  H19R21769   6.207   4.578   5.165  0.6442 -0.2858  0.3111
  189SAPI  H19S21770   6.374   4.637   5.169 -0.7793 -0.8036 -0.3747
  189SAPI  C22021771   6.232   4.729   5.023 -0.0841  0.0740  0.1362
  189SAPI  H20R21772   6.273   4.831   5.007 -3.0092  1.0607 -1.9997
  189SAPI  H20S21773   6.122   4.743   5.023 -0.1606 -0.4615 -0.3066
  189SAPI  H20T21774   6.258   4.659   4.940  1.2009 -0.4936  0.9688
  189SAPI   C3321775   5.634   3.817   5.908  0.2644  0.3662  0.3969
  189SAPI   H3X21776   5.537   3.865   5.884  0.3081  1.4956  2.2807
  189SAPI   H3Y21777   5.610   3.714   5.944  1.4283 -0.2530 -0.5065
  189SAPI   C3421778   5.727   3.813   5.785 -0.5429 -0.3520 -0.2454
  189SAPI   H4X21779   5.825   3.766   5.808  0.6866  2.4181  0.6786
  189SAPI   H4Y21780   5.746   3.916   5.748 -2.4735  0.2578  0.3602
  189SAPI   C3521781   5.663   3.748   5.663 -0.3160 -0.3557  0.2171
  189SAPI   H5X21782   5.566   3.797   5.642  0.2269  0.9344  0.6395
  189SAPI   H5Y21783   5.647   3.638   5.673 -0.9871 -0.2879 -0.0478
  189SAPI   C3621784   5.735   3.789   5.531 -0.0337 -0.2361  0.2653
  189SAPI   H6X21785   5.732   3.900   5.525 -0.1505 -0.1945  0.9621
  189SAPI   H6Y21786   5.682   3.756   5.439  0.9329 -0.6188 -0.1690
  189SAPI   C3721787   5.883   3.742   5.514  0.2007  0.4000 -0.0053
  189SAPI   H7X21788   5.882   3.632   5.520  2.6862  0.1867 -1.9022
  189SAPI   H7Y21789   5.954   3.794   5.582  1.4611  0.0636 -1.0290
  189SAPI   C3821790   5.931   3.776   5.371 -0.8210 -0.4301 -0.4926
  189SAPI   H8X21791   5.855   3.747   5.295 -1.4863 -1.1806  0.4353
  189SAPI   H8Y21792   6.032   3.731   5.359 -0.6498 -0.8572  2.1180
  189SAPI   C3921793   5.949   3.926   5.337 -0.2090 -0.1977 -0.8320
  189SAPI   H9X21794   6.009   3.973   5.417  0.0300  0.6583 -1.4961
  189SAPI   H9Y21795   5.853   3.982   5.329  0.1525  0.5517 -0.0737
  189SAPI  C31021796   6.016   3.949   5.207  0.2351 -0.4583 -0.2146
  189SAPI  H10X21797   5.956   3.898   5.129 -3.7722  3.3234 -0.0282
  189SAPI  H10Y21798   6.118   3.905   5.208  0.8058  0.7310  2.3135
  189SAPI  C31121799   6.018   4.091   5.167 -0.1524  0.0504 -0.3476
  189SAPI  H11X21800   6.094   4.110   5.088 -0.1969  2.3570  0.1059
  189SAPI  H11Y21801   6.048   4.154   5.253  0.4640  0.0332 -0.5447
  189SAPI  C31221802   5.883   4.137   5.107 -0.5354  0.1126 -0.2308
  189SAPI  H12X21803   5.801   4.130   5.182  1.0081  0.6108  1.5886
  189SAPI  H12Y21804   5.871   4.065   5.024 -1.0802 -1.7733  1.3989
  189SAPI  C31321805   5.887   4.281   5.050 -0.4259 -0.5036  0.2659
  189SAPI  H13X21806   5.927   4.353   5.125 -1.4024 -0.4427  0.7470
  189SAPI  H13Y21807   5.786   4.323   5.029 -0.7721 -0.8753  1.1464
  189SAPI  C31421808   5.976   4.287   4.920  0.1600 -0.0968  0.1985
  189SAPI  H14X21809   5.961   4.194   4.860  0.6015 -1.1058  1.5881
  189SAPI  H14Y21810   6.082   4.274   4.952 -0.7605 -0.8653  3.2601
  189SAPI  C31521811   5.964   4.413   4.834  0.9145 -0.1384  0.1112
  189SAPI  H15X21812   5.959   4.496   4.907 -1.6349  1.2865 -1.5323
  189SAPI  H15Y21813   5.860   4.406   4.797  0.5106  0.7558  1.0109
  189SAPI  C31621814   6.066   4.423   4.726 -0.1657 -0.3735 -0.1909
  189SAPI  H16X21815   6.051   4.347   4.646 -2.0839  0.4640 -0.6876
  189SAPI  H16Y21816   6.169   4.404   4.763  0.0069  0.0939 -0.4110
  189SAPI  C31721817   6.075   4.564   4.672  0.3706  0.5458 -0.0790
  189SAPI  H17X21818   6.154   4.567   4.595 -0.7256 -0.3271 -1.2873
  189SAPI  H17Y21819   6.100   4.633   4.755  0.5026 -0.2385  0.5414
  189SAPI  C31821820   5.946   4.608   4.603 -0.8458  0.3622 -0.1926
  189SAPI  H18X21821   5.854   4.587   4.662  0.6710  0.0754  2.2187
  189SAPI  H18Y21822   5.940   4.544   4.513  1.9509 -2.7459  1.5888
  189SAPI  H18Z21823   5.971   4.707   4.560  2.1391  0.0602  0.6114
  190SAPI   C1221824   3.520   1.509   6.890 -0.0214 -0.3749 -0.7698
  190SAPI    H221825   3.459   1.522   6.799 -1.6573 -1.3040  0.1473
  190SAPI    O221826   3.434   1.469   7.002 -0.0198 -0.0331 -0.2334
  190SAPI   HO221827   3.442   1.541   7.065 -0.2763  0.0946 -0.3430
  190SAPI   C1321828   3.604   1.394   6.840  0.9391 -0.3241 -0.6495
  190SAPI    H321829   3.670   1.433   6.760 -0.7623 -1.3015 -2.6139
  190SAPI    O321830   3.528   1.283   6.784  0.0482  0.4751  0.6611
  190SAPI   HO321831   3.441   1.283   6.825  0.3783  2.2452  1.4268
  190SAPI   C1421832   3.694   1.340   6.959  0.4141 -0.2893 -0.5334
  190SAPI    H421833   3.637   1.284   7.036  0.8852 -0.8395 -0.5757
  190SAPI    O421834   3.789   1.245   6.913  0.1626 -0.5245 -0.1810
  190SAPI   HO421835   3.755   1.161   6.880  0.1871 -0.0508 -1.4543
  190SAPI   C1521836   3.761   1.464   7.027  0.2479  0.2491  0.5056
  190SAPI    H521837   3.846   1.490   6.961 -2.2517  3.2344 -1.8534
  190SAPI    O521838   3.816   1.428   7.157 -0.6816  0.4304 -0.8584
  190SAPI   HO521839   3.901   1.471   7.162 -0.2148 -0.2280 -2.4099
  190SAPI   C1621840   3.690   1.598   7.040 -1.0337 -0.1565 -0.0371
  190SAPI    H621841   3.628   1.590   7.132 -1.0733 -0.4528 -0.0907
  190SAPI    O621842   3.778   1.704   7.077 -0.2119 -0.0878 -0.1130
  190SAPI   HO621843   3.814   1.741   6.995  0.2272  0.3995  0.2861
  190SAPI   C1121844   3.598   1.629   6.936 -0.4035 -0.4239  0.3902
  190SAPI    H121845   3.652   1.659   6.843 -0.6846 -0.3755  0.2408
  190SAPI     P21846   3.495   1.886   6.938  0.1601 -0.2000  0.6404
  190SAPI   O1321847   3.631   1.944   6.928 -0.0660  0.2188 -0.1504
  190SAPI   O1421848   3.414   1.945   7.047  0.2588 -0.4007 -0.1204
  190SAPI   O1221849   3.496   1.726   6.972  0.0846  0.5151  0.2776
  190SAPI   O1121850   3.409   1.891   6.800 -0.0542 -0.5559  0.3658
  190SAPI    C121851   3.303   1.803   6.773  0.2692  0.1991  0.0627
  190SAPI    HA21852   3.335   1.697   6.786 -1.8258 -0.3022  1.6668
  190SAPI    HB21853   3.217   1.817   6.842  1.7919  1.0311  1.8803
  190SAPI    C221854   3.262   1.818   6.627 -0.3599  0.1035 -0.8882
  190SAPI    HS21855   3.167   1.761   6.619 -0.9894  1.0258 -0.0917
  190SAPI   O2121856   3.360   1.748   6.545  0.2268 -0.1092  0.2471
  190SAPI   C2121857   3.360   1.620   6.545  0.0656  0.3450  0.1127
  190SAPI   O2221858   3.274   1.550   6.602 -0.0766  0.4359 -0.0798
  190SAPI   C2221859   3.476   1.575   6.451  0.1901  0.2817  0.4102
  190SAPI   H2R21860   3.483   1.640   6.362  1.5670  2.5156  2.0223
  190SAPI   H2S21861   3.572   1.591   6.506  0.5034  0.0073 -0.0463
  190SAPI    C321862   3.232   1.968   6.585  0.1712  0.4802  0.4254
  190SAPI    HX21863   3.328   2.022   6.595 -0.0282  1.7185 -3.0010
  190SAPI    HY21864   3.162   2.024   6.650 -0.8744 -0.7808  0.4428
  190SAPI   O3121865   3.178   1.981   6.442  0.1878  0.9368  0.1589
  190SAPI   C3121866   3.199   2.101   6.386 -0.3080  0.1322  0.0714
  190SAPI   O3221867   3.272   2.187   6.429  0.1506 -0.3424  0.0055
  190SAPI   C3221868   3.117   2.109   6.261  0.2920 -0.4500 -0.3626
  190SAPI   H2X21869   3.045   2.192   6.278  3.9069  2.8242  0.5681
  190SAPI   H2Y21870   3.051   2.021   6.248  0.5012 -0.5413 -0.8303
  190SAPI   C2321871   3.457   1.427   6.413  0.0630  0.4261  0.0634
  190SAPI   H3R21872   3.359   1.410   6.362  1.0419 -0.1267 -1.7178
  190SAPI   H3S21873   3.458   1.361   6.502 -1.5912 -0.2242 -0.3543
  190SAPI   C2421874   3.564   1.368   6.317 -0.1523 -0.0876  0.7274
  190SAPI   H4R21875   3.667   1.381   6.356 -0.5472 -2.6231  2.9458
  190SAPI   H4S21876   3.563   1.436   6.229 -1.5416  1.9908  2.2558
  190SAPI   C2521877   3.537   1.217   6.286  0.0954 -0.0560 -0.3144
  190SAPI   H5R21878   3.575   1.159   6.372  2.0673 -0.8775 -1.6803
  190SAPI   C2621879   3.470   1.165   6.185 -0.2725 -0.0175  0.0965
  190SAPI   H6R21880   3.466   1.055   6.173 -0.4113  0.0323 -0.3662
  190SAPI   C2721881   3.423   1.247   6.068 -0.4768 -0.4080  0.0918
  190SAPI   H7R21882   3.358   1.336   6.084 -2.2951 -1.3961 -1.4336
  190SAPI   H7S21883   3.367   1.177   6.003 -1.3735 -0.4192  0.8514
  190SAPI   C2821884   3.544   1.294   5.990  0.4728 -0.1668  0.0808
  190SAPI   H8R21885   3.625   1.338   6.050  0.8031  1.2827 -1.3511
  190SAPI   C2921886   3.548   1.288   5.851 -0.1278 -0.4544 -0.0209
  190SAPI   H9R21887   3.645   1.320   5.810 -0.1295  1.7047  1.4562
  190SAPI  C21021888   3.440   1.256   5.748 -0.2894  0.8707 -0.2150
  190SAPI  H10R21889   3.444   1.343   5.679 -0.8190  1.7010  0.7709
  190SAPI  H10S21890   3.345   1.272   5.804 -0.0724  0.7167  0.1995
  190SAPI  C21121891   3.442   1.123   5.677  0.4507  0.3007 -0.1013
  190SAPI  H11R21892   3.453   1.034   5.741  1.6095  0.9448  0.6423
  190SAPI  C21221893   3.429   1.097   5.548 -0.2543  0.4335 -0.4261
  190SAPI  H12R21894   3.445   0.994   5.512  0.5173  1.7325 -4.2038
  190SAPI  C21321895   3.444   1.183   5.425  0.2358  0.6298  0.2952
  190SAPI  H13R21896   3.495   1.118   5.351  1.1208  1.9793 -0.3175
  190SAPI  H13S21897   3.525   1.255   5.452 -1.0610  1.4516  2.2912
  190SAPI  C21421898   3.330   1.271   5.378 -0.2152 -0.6922  0.4488
  190SAPI  H14R21899   3.228   1.253   5.415 -0.3233 -0.3029  0.3500
  190SAPI  C21521900   3.342   1.376   5.296 -0.3296  0.6171  0.3568
  190SAPI  H15R21901   3.246   1.417   5.262 -1.2733 -1.0467  0.8679
  190SAPI  C21621902   3.464   1.428   5.225  0.3745 -0.1665  0.3805
  190SAPI  H16R21903   3.551   1.361   5.242 -0.5878 -1.5637 -0.0391
  190SAPI  H16S21904   3.490   1.530   5.260 -0.1735  0.1677 -0.1693
  190SAPI  C21721905   3.437   1.442   5.071  0.6892 -0.4737  0.1794
  190SAPI  H17R21906   3.533   1.488   5.039  1.4650 -2.4785 -0.5744
  190SAPI  H17S21907   3.346   1.503   5.053  0.7452 -0.3270  0.3901
  190SAPI  C21821908   3.420   1.303   4.995 -0.9664  0.4303  0.0903
  190SAPI  H18R21909   3.327   1.261   5.038  0.3188  0.1578  2.8152
  190SAPI  H18S21910   3.506   1.234   5.009  0.4389  1.8590 -1.1610
  190SAPI  C21921911   3.420   1.344   4.843  0.0115  0.0538  0.2650
  190SAPI  H19R21912   3.349   1.425   4.814 -0.2966 -1.1266 -2.5387
  190SAPI  H19S21913   3.372   1.267   4.779  0.0995  0.2602 -0.0473
  190SAPI  C22021914   3.562   1.366   4.789  0.0687  0.6068 -0.4903
  190SAPI  H20R21915   3.607   1.452   4.843  1.8102  0.7647 -2.0686
  190SAPI  H20S21916   3.562   1.398   4.682  3.1776  0.0608 -0.7616
  190SAPI  H20T21917   3.632   1.281   4.779 -0.0622  0.5199 -0.6830
  190SAPI   C3321918   3.197   2.129   6.133  0.1589 -0.4158 -0.3252
  190SAPI   H3X21919   3.249   2.032   6.117 -0.6383 -0.7513 -0.9360
  190SAPI   H3Y21920   3.276   2.206   6.141  0.4988 -0.8017  0.0688
  190SAPI   C3421921   3.104   2.155   6.016  0.2302 -0.1646 -0.7468
  190SAPI   H4X21922   3.017   2.218   6.043 -0.0625 -0.5898 -0.6912
  190SAPI   H4Y21923   3.053   2.061   5.986 -0.5595 -0.0183  0.0929
  190SAPI   C3521924   3.180   2.209   5.897 -0.0805  0.4601 -0.1090
  190SAPI   H5X21925   3.269   2.143   5.890  0.4143  0.4888  3.5735
  190SAPI   H5Y21926   3.199   2.316   5.919  0.7523 -0.0739  2.0246
  190SAPI   C3621927   3.101   2.191   5.766  0.0253 -0.1253  0.5290
  190SAPI   H6X21928   3.009   2.253   5.759 -0.3977 -0.9171 -2.1431
  190SAPI   H6Y21929   3.070   2.090   5.732 -0.9974  0.0714  0.8348
  190SAPI   C3721930   3.192   2.241   5.651  0.0618  0.6509 -0.6543
  190SAPI   H7X21931   3.287   2.183   5.658 -1.3686 -1.6356  1.8632
  190SAPI   H7Y21932   3.216   2.346   5.675 -0.1515  0.0971  2.3676
  190SAPI   C3821933   3.142   2.224   5.506 -0.0545 -0.4025 -1.0234
  190SAPI   H8X21934   3.044   2.276   5.496  0.4498  0.5594 -1.1203
  190SAPI   H8Y21935   3.116   2.120   5.477 -0.2092 -0.6276 -0.0964
  190SAPI   C3921936   3.246   2.280   5.409 -0.0071  0.1832 -0.1723
  190SAPI   H9X21937   3.337   2.223   5.439 -1.4703 -0.4420  3.5646
  190SAPI   H9Y21938   3.272   2.385   5.434  1.1677 -0.5721  2.0223
  190SAPI  C31021939   3.203   2.255   5.261  0.2375  0.3778  0.2145
  190SAPI  H10X21940   3.113   2.307   5.220 -0.2564 -2.4500 -2.6448
  190SAPI  H10Y21941   3.186   2.146   5.249  1.6128 -0.0861  2.1584
  190SAPI  C31121942   3.332   2.297   5.174  0.6830 -0.6474  0.3236
  190SAPI  H11X21943   3.428   2.255   5.213  0.0514 -1.4761  1.0216
  190SAPI  H11Y21944   3.338   2.408   5.172  1.1989 -0.6841 -0.9082
  190SAPI  C31221945   3.312   2.240   5.034  0.1827 -0.1190 -0.0851
  190SAPI  H12X21946   3.281   2.133   5.036  0.4047 -0.2077 -0.8545
  190SAPI  H12Y21947   3.413   2.236   4.987 -0.8342  0.5211 -2.4798
  190SAPI  C31321948   3.219   2.327   4.949 -0.2462 -0.4255  0.6008
  190SAPI  H13X21949   3.262   2.430   4.952 -2.5160  0.5750  0.9757
  190SAPI  H13Y21950   3.122   2.334   5.003  0.7538  0.2924  2.3900
  190SAPI  C31421951   3.224   2.287   4.806  0.2384 -0.6987 -0.0974
  190SAPI  H14X21952   3.330   2.287   4.772  0.2617 -0.6925 -0.0258
  190SAPI  H14Y21953   3.194   2.376   4.746  2.7335  0.0876 -0.3155
  190SAPI  C31521954   3.159   2.149   4.772 -0.3770 -0.4900 -0.5578
  190SAPI  H15X21955   3.050   2.141   4.749 -0.8630 -3.2318  1.9444
  190SAPI  H15Y21956   3.155   2.104   4.874 -3.1113  1.8378  0.5011
  190SAPI  C31621957   3.241   2.054   4.682  0.1421 -0.4329 -0.4007
  190SAPI  H16X21958   3.203   1.952   4.700  0.1372 -0.5013 -0.8023
  190SAPI  H16Y21959   3.345   2.064   4.719  0.3791  1.2187 -1.3928
  190SAPI  C31721960   3.235   2.094   4.532  0.4350 -0.8718  0.0209
  190SAPI  H17X21961   3.268   2.199   4.518  0.1415 -1.0886 -3.1209
  190SAPI  H17Y21962   3.126   2.091   4.512 -0.2270  0.9100  2.8502
  190SAPI  C31821963   3.306   1.991   4.447  0.3862  0.6649  0.3862
  190SAPI  H18X21964   3.416   1.989   4.454  0.5439 -0.2783 -1.5972
  190SAPI  H18Y21965   3.279   2.005   4.340  1.7467  2.0184  0.1946
  190SAPI  H18Z21966   3.273   1.889   4.475 -3.5207  1.7590  0.4347
  191SAPI   C1221967   6.753   2.351   2.147  0.1498 -0.0556 -0.8033
  191SAPI    H221968   6.695   2.261   2.116 -0.1260 -0.1270 -0.1025
  191SAPI    O221969   6.884   2.302   2.145 -0.3032 -0.1009  0.3258
  191SAPI   HO221970   6.889   2.213   2.181 -0.2609 -1.2474 -2.2971
  191SAPI   C1321971   6.733   2.460   2.039  0.3809 -0.4937 -0.0962
  191SAPI    H321972   6.627   2.492   2.033  0.1159 -1.2725  0.2831
  191SAPI    O321973   6.753   2.399   1.910 -0.2413 -0.1455 -0.3971
  191SAPI   HO321974   6.843   2.368   1.907  0.1001  0.7585  0.0961
  191SAPI   C1421975   6.832   2.575   2.061 -0.3093 -0.3576  0.5100
  191SAPI    H421976   6.935   2.537   2.047  0.2555  1.2233  0.1340
  191SAPI    O421977   6.816   2.684   1.970  0.5129  0.2128  0.5144
  191SAPI   HO421978   6.908   2.705   1.951  0.2823  0.8310  0.0466
  191SAPI   C1521979   6.813   2.620   2.210  0.3689 -0.8052  0.7762
  191SAPI    H521980   6.719   2.678   2.200 -0.3495 -1.9075  0.9410
  191SAPI    O521981   6.905   2.718   2.252  0.1404 -0.5786  0.5619
  191SAPI   HO521982   6.982   2.666   2.276 -0.9887 -2.4411  0.3735
  191SAPI   C1621983   6.777   2.517   2.323 -0.2542  0.0032 -0.8248
  191SAPI    H621984   6.876   2.483   2.359 -0.8252 -0.2761  0.5534
  191SAPI    O621985   6.714   2.569   2.446  0.7281  0.0965  0.8784
  191SAPI   HO621986   6.677   2.490   2.485  2.8591 -2.1793 -1.3146
  191SAPI   C1121987   6.699   2.395   2.273  0.3639 -0.0147 -0.0262
  191SAPI    H121988   6.595   2.433   2.260  0.6836  1.5113  1.5263
  191SAPI     P21989   6.589   2.163   2.365  0.0921  0.0932  0.0293
  191SAPI   O1321990   6.664   2.038   2.394 -0.2248 -0.7479  0.4138
  191SAPI   O1421991   6.501   2.165   2.242 -0.0512 -0.3718 -0.6067
  191SAPI   O1221992   6.701   2.289   2.367 -0.9289 -0.1928 -0.1613
  191SAPI   O1121993   6.502   2.201   2.489  0.3275  0.4109 -0.2907
  191SAPI    C121994   6.560   2.226   2.619  0.6371  0.0268  0.0510
  191SAPI    HA21995   6.663   2.267   2.611  0.3375  1.1442  1.5140
  191SAPI    HB21996   6.503   2.305   2.672  0.3226  0.1705 -0.4930
  191SAPI    C221997   6.554   2.100   2.705 -0.1518  0.4957 -0.1199
  191SAPI    HS21998   6.583   2.015   2.640  0.0226  0.6076 -0.1883
  191SAPI   O2121999   6.418   2.085   2.754 -0.1701 -0.2189 -0.2970
  191SAPI   C2122000   6.388   1.963   2.792  0.2742 -0.1669  0.2319
  191SAPI   O2222001   6.454   1.862   2.763 -0.0474  0.2498  0.2761
  191SAPI   C2222002   6.249   1.958   2.861 -0.5996  0.0907 -0.1438
  191SAPI   H2R22003   6.184   1.909   2.786 -0.8344 -1.8118  1.2146
  191SAPI   H2S22004   6.247   1.892   2.951  1.5207 -1.4625 -1.1377
  191SAPI    C322005   6.664   2.094   2.815 -0.1723 -0.2214 -0.6220
  191SAPI    HX22006   6.765   2.109   2.770 -1.1254  3.3112 -1.9569
  191SAPI    HY22007   6.668   1.999   2.872 -2.6799  0.3034  0.5831
  191SAPI   O3122008   6.659   2.205   2.908 -0.0468  0.0855 -0.0219
  191SAPI   C3122009   6.584   2.188   3.017  0.0942  0.4099 -0.5954
  191SAPI   O3222010   6.535   2.080   3.048  0.0599  0.7565 -0.2283
  191SAPI   C3222011   6.585   2.314   3.103 -0.0776 -0.8138  0.3596
  191SAPI   H2X22012   6.502   2.371   3.057 -0.9514 -1.0145  1.6210
  191SAPI   H2Y22013   6.682   2.367   3.104 -0.5712  0.0997  1.0449
  191SAPI   C2322014   6.182   2.091   2.890  0.3090 -0.2934 -0.6654
  191SAPI   H3R22015   6.155   2.150   2.799  3.0565  4.3815  1.1931
  191SAPI   H3S22016   6.252   2.151   2.951 -0.9037 -1.1577  1.6722
  191SAPI   C2422017   6.046   2.070   2.965  0.6332  0.1711  0.4250
  191SAPI   H4R22018   6.065   2.028   3.066  0.5202 -1.4437 -0.1846
  191SAPI   H4S22019   5.987   2.001   2.901  2.0538  1.6645 -2.7120
  191SAPI   C2522020   5.960   2.189   2.993  0.5028 -0.1656 -0.5470
  191SAPI   H5R22021   5.887   2.212   2.914  0.3057 -2.7712 -1.1980
  191SAPI   C2622022   5.942   2.266   3.109  0.6933 -0.5453  1.1097
  191SAPI   H6R22023   5.861   2.338   3.092  1.3112 -0.0689  0.1033
  191SAPI   C2722024   6.013   2.267   3.241  0.5495 -0.0377 -0.0230
  191SAPI   H7R22025   6.087   2.348   3.255  0.9079 -0.7926  2.9640
  191SAPI   H7S22026   6.075   2.177   3.257  0.4595  0.0806  1.0498
  191SAPI   C2822027   5.905   2.279   3.341  0.4215  0.4338  0.0085
  191SAPI   H8R22028   5.803   2.258   3.304  0.0164 -0.5460  1.5616
  191SAPI   C2922029   5.927   2.288   3.471 -0.4840 -0.1307 -0.4406
  191SAPI   H9R22030   5.838   2.279   3.536 -0.2412  1.6403  0.1822
  191SAPI  C21022031   6.058   2.300   3.542 -0.3264  0.0174 -0.2415
  191SAPI  H10R22032   6.069   2.408   3.566 -0.4123 -0.2076  0.8914
  191SAPI  H10S22033   6.142   2.277   3.473  0.3116 -0.4446  0.6647
  191SAPI  C21122034   6.081   2.208   3.658 -0.7492 -0.6694 -0.3554
  191SAPI  H11R22035   6.120   2.107   3.639 -1.1749 -1.0084  0.5048
  191SAPI  C21222036   6.078   2.250   3.787  0.1096 -0.2185  0.2993
  191SAPI  H12R22037   6.095   2.176   3.867  2.0396 -0.4010 -0.2427
  191SAPI  C21322038   6.046   2.393   3.840  0.4254 -0.0737  0.0927
  191SAPI  H13R22039   6.030   2.469   3.761  0.8747 -0.6467 -0.5626
  191SAPI  H13S22040   6.134   2.437   3.891  0.2574  2.3294 -1.5213
  191SAPI  C21422041   5.925   2.385   3.932 -0.2370 -0.0532  0.3859
  191SAPI  H14R22042   5.829   2.351   3.890 -0.1191  0.6951 -0.5122
  191SAPI  C21522043   5.920   2.453   4.047 -0.0040 -0.0111  0.3161
  191SAPI  H15R22044   5.833   2.449   4.113  0.4966 -1.8539  0.9199
  191SAPI  C21622045   6.037   2.527   4.110  0.3201  0.1123 -0.0459
  191SAPI  H16R22046   5.995   2.609   4.172  1.6527 -0.0887  1.1608
  191SAPI  H16S22047   6.096   2.577   4.030  1.6670 -0.5266  0.5139
  191SAPI  C21722048   6.118   2.434   4.200  0.7371  0.4083 -0.8101
  191SAPI  H17R22049   6.214   2.489   4.211  2.3952 -1.9204 -2.6631
  191SAPI  H17S22050   6.154   2.346   4.142 -0.1416  0.3402 -1.2764
  191SAPI  C21822051   6.060   2.398   4.343 -0.1253 -0.0161  0.2832
  191SAPI  H18R22052   5.984   2.329   4.299  0.6198  0.0827 -1.2201
  191SAPI  H18S22053   6.011   2.488   4.386  0.2112 -0.7334  2.2803
  191SAPI  C21922054   6.160   2.356   4.445 -0.4959 -0.1321 -0.3548
  191SAPI  H19R22055   6.244   2.428   4.454 -0.7707  0.3663 -1.6382
  191SAPI  H19S22056   6.219   2.272   4.403  0.7494  0.8460 -0.6063
  191SAPI  C22022057   6.095   2.325   4.580  0.3134 -0.2041  0.7337
  191SAPI  H20R22058   6.033   2.413   4.607 -1.9768 -1.5362  0.1111
  191SAPI  H20S22059   6.156   2.294   4.667 -2.4288 -0.0370  2.8429
  191SAPI  H20T22060   6.029   2.238   4.560  0.9253 -0.1818 -1.7084
  191SAPI   C3322061   6.553   2.287   3.254 -0.7999  0.0871  0.2335
  191SAPI   H3X22062   6.501   2.190   3.265 -0.2405 -0.2777 -0.2710
  191SAPI   H3Y22063   6.486   2.367   3.293  0.4810  1.2655  0.1169
  191SAPI   C3422064   6.680   2.310   3.330  0.0607  0.8069 -0.4345
  191SAPI   H4X22065   6.709   2.416   3.315  0.6200  1.1632  2.6721
  191SAPI   H4Y22066   6.765   2.245   3.299 -0.8364 -0.2726 -0.7188
  191SAPI   C3522067   6.656   2.288   3.483  0.2140  0.1900  0.1238
  191SAPI   H5X22068   6.563   2.336   3.521 -1.1973 -2.2689  0.0640
  191SAPI   H5Y22069   6.733   2.336   3.546 -0.9933  1.8447  0.3880
  191SAPI   C3622070   6.627   2.141   3.518  0.2162  0.1117  0.0960
  191SAPI   H6X22071   6.721   2.088   3.495 -1.4640 -3.8225  1.4509
  191SAPI   H6Y22072   6.549   2.100   3.450 -1.4789  0.1366  1.9236
  191SAPI   C3722073   6.594   2.122   3.670  0.6272 -0.4645  0.7859
  191SAPI   H7X22074   6.497   2.171   3.692 -0.1731 -1.4914 -0.3046
  191SAPI   H7Y22075   6.666   2.180   3.731 -2.0774  2.9356  1.0536
  191SAPI   C3822076   6.575   1.981   3.712  0.0757  0.2802 -0.7568
  191SAPI   H8X22077   6.664   1.932   3.666  0.5771  0.1166  0.3640
  191SAPI   H8Y22078   6.483   1.928   3.677 -1.2293  1.1375  1.2292
  191SAPI   C3922079   6.555   1.974   3.858  0.7545 -0.1952  0.7759
  191SAPI   H9X22080   6.478   2.045   3.893 -1.7323 -1.4586 -1.7240
  191SAPI   H9Y22081   6.653   2.005   3.901  0.7173  0.2611  0.5321
  191SAPI  C31022082   6.533   1.832   3.909 -0.5112 -0.2567 -0.3993
  191SAPI  H10X22083   6.607   1.771   3.853  1.9832 -0.2349  2.5710
  191SAPI  H10Y22084   6.432   1.788   3.893 -0.5397 -0.5149  0.4295
  191SAPI  C31122085   6.576   1.812   4.058 -0.3543 -0.1641  0.1363
  191SAPI  H11X22086   6.503   1.883   4.103  0.3311  1.4999 -1.2545
  191SAPI  H11Y22087   6.681   1.848   4.071  0.2568 -0.8058 -2.4399
  191SAPI  C31222088   6.555   1.671   4.110 -0.4057  0.6192 -0.0296
  191SAPI  H12X22089   6.613   1.595   4.053  0.9222  1.3430  0.3118
  191SAPI  H12Y22090   6.448   1.643   4.100 -0.2020  0.0251 -0.5367
  191SAPI  C31322091   6.598   1.656   4.262 -0.4609  0.6961  0.0217
  191SAPI  H13X22092   6.636   1.754   4.300  0.9317 -0.2115  1.0358
  191SAPI  H13Y22093   6.682   1.584   4.270  0.9794  1.3999 -5.1434
  191SAPI  C31422094   6.486   1.618   4.351  0.2747  0.9338 -0.3397
  191SAPI  H14X22095   6.421   1.538   4.309  0.8881  0.1003  0.2682
  191SAPI  H14Y22096   6.424   1.708   4.369 -0.3020  0.4038  0.3992
  191SAPI  C31522097   6.536   1.560   4.489 -0.4474  0.3589  0.3343
  191SAPI  H15X22098   6.619   1.612   4.541 -0.0691 -0.8562  1.0040
  191SAPI  H15Y22099   6.556   1.453   4.466  2.1791  1.3394 -2.5760
  191SAPI  C31622100   6.421   1.561   4.587 -0.1173 -0.6883  0.5052
  191SAPI  H16X22101   6.321   1.545   4.543 -0.5739 -1.0868  1.6405
  191SAPI  H16Y22102   6.418   1.662   4.633  0.5733 -0.9264  1.0890
  191SAPI  C31722103   6.452   1.466   4.703  0.8016  0.2136  0.2253
  191SAPI  H17X22104   6.532   1.513   4.765 -0.2255  0.5200  1.3573
  191SAPI  H17Y22105   6.500   1.370   4.673  0.6945  0.4979 -0.8640
  191SAPI  C31822106   6.334   1.445   4.803 -0.5462 -0.4149 -0.3927
  191SAPI  H18X22107   6.365   1.396   4.898 -2.1830 -0.2838  0.2592
  191SAPI  H18Y22108   6.250   1.385   4.763 -1.1761  1.4695 -2.0588
  191SAPI  H18Z22109   6.303   1.547   4.836  0.4547 -0.3775  0.5065
  192SAPI   C1222110   1.771   6.687   2.424 -0.2845 -0.8964 -0.0967
  192SAPI    H222111   1.666   6.669   2.455  0.4758 -1.8756  2.1282
  192SAPI    O222112   1.853   6.567   2.435 -0.0045  0.7381 -0.4670
  192SAPI   HO222113   1.819   6.511   2.505  2.1643 -1.2338 -0.8726
  192SAPI   C1322114   1.749   6.732   2.278  0.5381  0.0477  0.6524
  192SAPI    H322115   1.681   6.820   2.275 -1.8722 -1.7474 -0.5005
  192SAPI    O322116   1.673   6.630   2.206 -0.4295 -0.4909  0.7947
  192SAPI   HO322117   1.718   6.548   2.187 -1.7267 -0.7237 -1.6068
  192SAPI   C1422118   1.874   6.775   2.217  0.0109  0.0941  0.0854
  192SAPI    H422119   1.931   6.686   2.185  2.6327  2.2910 -1.7476
  192SAPI    O422120   1.861   6.816   2.084 -0.1503 -0.1687 -0.1490
  192SAPI   HO422121   1.790   6.881   2.083  1.9744  2.3180  0.5136
  192SAPI   C1522122   1.961   6.865   2.302 -0.3346  0.3493  0.1127
  192SAPI    H522123   1.924   6.968   2.285  0.6623  0.9281  1.2547
  192SAPI    O522124   2.104   6.877   2.264  0.5489 -0.1936  0.1661
  192SAPI   HO522125   2.135   6.963   2.293  0.1406 -0.6537  2.1271
  192SAPI   C1622126   1.950   6.858   2.455 -0.0865  0.2027 -0.1102
  192SAPI    H622127   2.027   6.785   2.487  1.1990  0.4876 -2.2991
  192SAPI    O622128   1.973   6.983   2.516 -0.8098 -0.1611 -0.0909
  192SAPI   HO622129   1.977   6.967   2.610  1.6726 -1.9905 -0.4056
  192SAPI   C1122130   1.823   6.804   2.506 -0.4845 -0.1497 -0.3096
  192SAPI    H122131   1.747   6.882   2.483 -0.1473 -0.2120 -1.7450
  192SAPI     P22132   1.752   6.844   2.767  0.1829 -0.3937  0.1964
  192SAPI   O1322133   1.779   6.770   2.886 -0.4755  0.0839  0.0941
  192SAPI   O1422134   1.609   6.862   2.732 -0.3274  0.1668  0.5697
  192SAPI   O1222135   1.829   6.770   2.643 -0.2908 -1.0297  0.1630
  192SAPI   O1122136   1.819   6.983   2.771  0.1566 -0.0579 -0.1833
  192SAPI    C122137   1.940   7.009   2.848 -0.1136  0.2856 -0.8379
  192SAPI    HA22138   2.006   6.921   2.866 -0.1977  0.8551  3.3811
  192SAPI    HB22139   2.005   7.085   2.800  1.2245  1.1411  2.0375
  192SAPI    C222140   1.912   7.070   2.990  0.2633  0.1885 -0.2076
  192SAPI    HS22141   1.854   6.995   3.048 -2.0076  1.5726 -0.5391
  192SAPI   O2122142   1.841   7.199   2.980  0.4399  0.3899 -0.0584
  192SAPI   C2122143   1.767   7.223   3.084 -0.6637 -0.4558 -0.0796
  192SAPI   O2222144   1.759   7.143   3.182  0.3976 -0.1132 -0.2440
  192SAPI   C2222145   1.695   7.359   3.065  0.6814  0.0300  0.4122
  192SAPI   H2R22146   1.673   7.377   2.957  1.8855  0.6536  0.2606
  192SAPI   H2S22147   1.602   7.364   3.125 -0.7123  3.3116 -1.7633
  192SAPI    C322148   2.051   7.093   3.048  0.0451  0.2294  0.5515
  192SAPI    HX22149   2.102   7.183   3.009  0.8407 -0.3495  0.2246
  192SAPI    HY22150   2.112   7.004   3.022 -0.0050  0.6693 -1.1893
  192SAPI   O3122151   2.051   7.113   3.193 -0.3629  0.1681 -0.4824
  192SAPI   C3122152   2.037   6.996   3.268 -0.5309  0.5143 -0.2617
  192SAPI   O3222153   2.026   6.885   3.214 -0.1990 -0.4716  0.2167
  192SAPI   C3222154   2.058   7.022   3.417 -0.0358 -0.9773 -0.0734
  192SAPI   H2X22155   1.992   7.111   3.430 -1.7280 -2.2610  0.5574
  192SAPI   H2Y22156   2.167   7.038   3.432  0.2815 -2.3136 -0.8571
  192SAPI   C2322157   1.786   7.484   3.100 -0.1464 -0.3365 -0.1756
  192SAPI   H3R22158   1.743   7.570   3.044 -0.4151  0.7055  1.5517
  192SAPI   H3S22159   1.887   7.468   3.058 -0.0428 -1.7922  0.5586
  192SAPI   C2422160   1.786   7.514   3.252 -0.7007 -0.2469  0.2224
  192SAPI   H4R22161   1.858   7.443   3.298  0.2133 -0.2470 -1.1876
  192SAPI   H4S22162   1.684   7.486   3.287 -0.7910  1.2207  1.2285
  192SAPI   C2522163   1.841   7.656   3.280 -0.0645  0.1994  0.6753
  192SAPI   H5R22164   1.876   7.699   3.185 -1.5056 -1.4435 -0.6679
  192SAPI   C2622165   1.844   7.731   3.392 -0.6137 -0.5272 -0.8623
  192SAPI   H6R22166   1.897   7.827   3.384 -0.9544 -0.0204  2.0080
  192SAPI   C2722167   1.813   7.683   3.531 -0.5708 -0.6057 -0.0076
  192SAPI   H7R22168   1.873   7.749   3.598 -0.2409 -1.1830  0.2778
  192SAPI   H7S22169   1.850   7.578   3.525 -0.5710 -0.5722 -0.7023
  192SAPI   C2822170   1.666   7.674   3.560  0.2044  0.5743 -0.2066
  192SAPI   H8R22171   1.589   7.708   3.490  2.4990  1.2576 -2.5551
  192SAPI   C2922172   1.627   7.599   3.664  0.5400 -0.3355 -0.0547
  192SAPI   H9R22173   1.519   7.591   3.678  0.3130  0.3355 -1.2536
  192SAPI  C21022174   1.716   7.535   3.771  0.4470  0.0772  0.6181
  192SAPI  H10R22175   1.816   7.583   3.776  0.5573  0.1931 -1.6208
  192SAPI  H10S22176   1.738   7.441   3.716 -2.3572 -0.0174 -0.5006
  192SAPI  C21122177   1.666   7.512   3.915  0.7134 -0.6049 -0.2130
  192SAPI  H11R22178   1.587   7.585   3.940  1.4623 -0.1035  0.7513
  192SAPI  C21222179   1.714   7.419   3.994  0.1732 -0.7468 -0.2267
  192SAPI  H12R22180   1.676   7.429   4.097 -1.2128  2.3242 -0.9074
  192SAPI  C21322181   1.809   7.312   3.964 -0.7968 -1.1471 -0.2168
  192SAPI  H13R22182   1.822   7.323   3.854 -1.4260 -1.5602 -0.3339
  192SAPI  H13S22183   1.791   7.204   3.983  1.1039 -1.3435  0.7919
  192SAPI  C21422184   1.938   7.331   4.038 -0.1931  0.7601 -0.4760
  192SAPI  H14R22185   1.931   7.327   4.148 -0.1013 -1.3844 -0.4979
  192SAPI  C21522186   2.063   7.316   3.988  0.0771 -0.2139  0.3747
  192SAPI  H15R22187   2.151   7.318   4.053  1.0570 -4.0058 -0.5572
  192SAPI  C21622188   2.087   7.282   3.839 -0.2862  0.1457  0.4758
  192SAPI  H16R22189   2.001   7.227   3.797  0.8194 -1.8097  0.6567
  192SAPI  H16S22190   2.173   7.212   3.834  0.5360  1.0210  1.7371
  192SAPI  C21722191   2.109   7.400   3.748  0.4574  0.3154  0.0011
  192SAPI  H17R22192   2.211   7.437   3.773  0.0649  0.9604  0.6797
  192SAPI  H17S22193   2.035   7.481   3.758  0.2189 -0.1763  2.8791
  192SAPI  C21822194   2.109   7.343   3.600 -0.8016  0.0620 -0.6491
  192SAPI  H18R22195   2.009   7.302   3.574 -1.4285  1.4046 -0.4945
  192SAPI  H18S22196   2.187   7.264   3.602  1.3542  1.9665  2.9006
  192SAPI  C21922197   2.161   7.445   3.496  0.1953 -0.4878  0.6394
  192SAPI  H19R22198   2.271   7.455   3.497  0.0410  1.8298 -0.0571
  192SAPI  H19S22199   2.124   7.547   3.522 -1.5787 -0.5469 -1.3779
  192SAPI  C22022200   2.118   7.407   3.361 -0.5302  0.2893  0.1807
  192SAPI  H20R22201   2.017   7.361   3.356  0.5408 -2.1623  0.1536
  192SAPI  H20S22202   2.190   7.335   3.317 -1.1856  1.5370 -3.2920
  192SAPI  H20T22203   2.126   7.493   3.291 -3.0342  0.6402  0.2164
  192SAPI   C3322204   2.006   6.913   3.510 -0.3945 -0.1363  1.0816
  192SAPI   H3X22205   2.084   6.838   3.532  0.1117  0.6303  1.9543
  192SAPI   H3Y22206   1.920   6.853   3.472 -1.1309  1.4225  0.1887
  192SAPI   C3422207   1.967   6.978   3.645  0.0725  0.4022  0.4084
  192SAPI   H4X22208   1.879   7.045   3.646 -0.2033  0.0451  1.3603
  192SAPI   H4Y22209   2.052   7.043   3.673 -1.0446  2.3285 -0.4742
  192SAPI   C3522210   1.961   6.871   3.758 -0.4289  0.4280 -0.8139
  192SAPI   H5X22211   2.054   6.811   3.767 -1.7299 -1.5556 -0.0215
  192SAPI   H5Y22212   1.889   6.800   3.712  0.5068 -1.0536 -0.0736
  192SAPI   C3622213   1.919   6.933   3.889  0.2674 -0.1714 -0.6260
  192SAPI   H6X22214   1.825   6.992   3.877  1.1166  1.1105 -1.2126
  192SAPI   H6Y22215   2.005   6.997   3.920 -1.4105  0.1874  4.0943
  192SAPI   C3722216   1.900   6.819   3.993  0.4075 -0.2248  0.1218
  192SAPI   H7X22217   2.006   6.786   3.999  0.5249 -0.0758 -0.8953
  192SAPI   H7Y22218   1.830   6.742   3.955 -0.2629  0.2312  0.4322
  192SAPI   C3822219   1.843   6.874   4.121 -0.2990 -0.0496  0.8129
  192SAPI   H8X22220   1.738   6.903   4.101 -0.6157  0.2215  2.6714
  192SAPI   H8Y22221   1.890   6.970   4.150 -0.0229 -0.0154  0.2710
  192SAPI   C3922222   1.849   6.769   4.234  0.1943 -0.1197 -0.1320
  192SAPI   H9X22223   1.944   6.711   4.238 -0.7512 -2.0091 -2.5192
  192SAPI   H9Y22224   1.764   6.701   4.211  0.6411 -0.5332 -0.5946
  192SAPI  C31022225   1.829   6.834   4.371 -0.4443  0.1318 -0.0510
  192SAPI  H10X22226   1.736   6.889   4.393  0.8942  1.6834  2.0695
  192SAPI  H10Y22227   1.913   6.905   4.387 -1.8993  1.6216  1.2686
  192SAPI  C31122228   1.846   6.725   4.476 -0.4789  0.3928  0.8858
  192SAPI  H11X22229   1.938   6.662   4.478 -2.6978 -3.1317  0.7479
  192SAPI  H11Y22230   1.771   6.644   4.463  0.4355 -0.4606  0.8344
  192SAPI  C31222231   1.832   6.780   4.615  0.1515 -0.2447 -0.3929
  192SAPI  H12X22232   1.733   6.832   4.614 -0.2386 -0.9066  1.1067
  192SAPI  H12Y22233   1.914   6.850   4.640 -1.4900  0.4525  3.7879
  192SAPI  C31322234   1.809   6.674   4.729 -0.0366 -1.1845 -0.1285
  192SAPI  H13X22235   1.913   6.644   4.756  1.2959  1.7751 -1.5361
  192SAPI  H13Y22236   1.751   6.587   4.691  0.2753 -1.7989  0.7776
  192SAPI  C31422237   1.739   6.737   4.852 -0.3347 -0.0396 -0.7620
  192SAPI  H14X22238   1.645   6.794   4.836  0.5166  1.3713 -0.9022
  192SAPI  H14Y22239   1.819   6.796   4.900 -2.1352  2.2741 -0.4474
  192SAPI  C31522240   1.697   6.627   4.956  0.5684  0.8196 -0.5883
  192SAPI  H15X22241   1.673   6.667   5.057 -2.3555  0.5177 -1.0684
  192SAPI  H15Y22242   1.780   6.555   4.972 -0.5588 -0.4534 -0.2742
  192SAPI  C31622243   1.566   6.556   4.926 -0.0026  0.4730  0.5184
  192SAPI  H16X22244   1.574   6.484   4.842 -1.4108 -0.4655  1.1565
  192SAPI  H16Y22245   1.491   6.632   4.892  0.0203  0.2497 -0.0496
  192SAPI  C31722246   1.513   6.474   5.038  0.0134  0.4228  0.2904
  192SAPI  H17X22247   1.402   6.476   5.036  0.0142  0.4044 -1.4557
  192SAPI  H17Y22248   1.543   6.516   5.136  0.7471  0.3268  0.1152
  192SAPI  C31822249   1.557   6.323   5.037 -0.1338 -0.1007  0.2104
  192SAPI  H18X22250   1.520   6.269   4.947  1.8232 -2.9969  0.9977
  192SAPI  H18Y22251   1.518   6.270   5.127 -2.6342  2.1573  0.5727
  192SAPI  H18Z22252   1.668   6.320   5.036  0.1145  2.1949 -4.4115
  193SOD    SOD22253   2.582   5.246   0.365 -0.1017 -0.3676 -0.0453
  194SOD    SOD22254   0.455   3.796   2.961 -0.1612  0.1980  0.5051
  195SOD    SOD22255   1.879   3.075   7.791 -0.3670  0.0517 -0.0448
  196SOD    SOD22256   1.184   2.521   1.518 -0.0649  0.2618 -0.3144
  197SOD    SOD22257   2.784   4.625   7.558 -0.6257  0.5766 -0.0309
  198SOD    SOD22258   1.253   1.598   7.719  0.5352  0.1828  0.0154
  199SOD    SOD22259   1.534   4.317   7.220  0.1757  0.3096 -0.6483
  200SOD    SOD22260   4.467   3.749   2.460  0.1015 -0.0016  0.1679
  201SOD    SOD22261   1.043   4.346   0.107  0.1154 -0.0368  0.2033
  202SOD    SOD22262   4.540   3.428   8.160 -0.8884 -0.0210  0.1183
  203SOD    SOD22263   2.455   2.221   0.928  0.1760 -0.1835 -0.1337
  204SOD    SOD22264   0.418   4.119   2.348 -0.3840  0.2496 -0.2244
  205SOD    SOD22265   0.726   2.782   7.711 -0.8055  0.3029  0.0234
  206SOD    SOD22266   4.063   0.409   2.076 -0.4961  0.1428 -0.3050
  207SOD    SOD22267   3.218   5.184   2.871 -0.3942 -0.3428  0.1068
  208SOD    SOD22268   0.582   3.554   7.631  0.2685  0.1402 -0.2060
  209SOD    SOD22269   1.225   4.991   8.450 -0.0866  0.0752 -0.0012
  210SOD    SOD22270   5.737   3.577   2.752  0.3781  0.0767  0.5872
  211SOD    SOD22271   2.868   2.370   6.952 -0.3279 -0.1163 -0.1565
  212SOD    SOD22272   2.209   2.833   2.444  0.0510 -0.3215 -0.1498
  213SOD    SOD22273   6.119   3.984   1.943 -0.4633 -0.4760 -0.3683
  214SOD    SOD22274   3.215   0.709   8.585  0.0541 -0.0216 -0.0614
  215SOD    SOD22275   0.233   0.467   7.956  0.3497 -0.1793 -0.4060
  216SOD    SOD22276   1.237   5.426   2.414 -0.2423 -0.4700  0.1025
  217SOD    SOD22277   0.253   4.849   0.919  0.0514 -0.0811 -0.2366
  218SOD    SOD22278   6.635   2.036   1.594 -0.4551  0.5426  0.1331
  219SOD    SOD22279   3.720   4.566   7.759  0.2795  0.5817  0.5618
  220SOD    SOD22280   6.368   3.751   8.324  0.1195  0.4787  0.0342
  221SOD    SOD22281   3.590   3.022   2.085 -0.6392 -0.4160  0.1781
  222SOD    SOD22282   1.210   6.744   2.940 -0.4508  0.0274 -0.5354
  223SOD    SOD22283   5.697   6.168   8.236 -0.3543  0.3224 -0.2705
  224SOD    SOD22284   4.252   4.895   1.839 -0.1327 -0.0434 -0.0592
  225SOD    SOD22285   4.694   2.898   0.403  0.2390  0.2007 -0.1413
  226SOD    SOD22286   3.739   4.825   7.033  0.4258 -0.4984  0.3787
  227SOD    SOD22287   4.545   3.463   7.245 -0.2532  0.2863 -0.4142
  228SOD    SOD22288   2.747   2.877   2.253  0.0634 -0.1399 -0.1467
  229SOD    SOD22289   1.877   4.684   0.124  0.0786  0.1991  0.0020
  230SOD    SOD22290   3.413   1.334   7.687 -0.0926 -0.4649  0.0948
  231SOD    SOD22291   0.373   0.803   0.139  0.3086 -0.0731  0.1369
  232SOD    SOD22292   3.288   6.840   7.567  0.1332  0.0314  0.2287
  233SOD    SOD22293   3.098   5.833   0.605 -0.1610  0.0506 -0.2623
  234CLA    CLA22294   0.934   5.104   2.362 -0.1442 -0.4139 -0.6153
  235CLA    CLA22295   4.134   5.629   8.291  0.0648  0.1701  0.0252
  236CLA    CLA22296   1.431   4.579   8.598  0.4304 -0.0957  0.1403
  237CLA    CLA22297   5.397   0.139   0.214 -0.3531  0.4214 -0.4625
  238CLA    CLA22298   1.484   0.669   0.453  0.1795 -0.1366  0.3931
  239CLA    CLA22299   4.025   6.268   2.231  0.5954 -0.1951  0.0850
  240CLA    CLA22300   2.922   4.424   0.933  0.2440 -0.1137 -0.1764
  241CLA    CLA22301   2.478   3.103   8.238 -0.0235 -0.0586  0.3334
  242CLA    CLA22302   0.111   1.054   0.582 -0.2136 -0.4442  0.3262
  243CLA    CLA22303   5.092   4.425   8.483  0.3678  0.2665  0.5665
  244CLA    CLA22304   3.806   5.331   1.785  0.2814 -0.0680  0.3547
  245CLA    CLA22305   1.900   0.042   8.471 -0.1904 -0.2935 -0.2094
  246CLA    CLA22306   3.079   0.862   1.301  0.2379 -0.1465 -0.4064
  247CLA    CLA22307   6.814   6.856   1.876 -0.0144 -0.0820 -0.1364
  248CLA    CLA22308   5.971   3.566   8.385 -0.3140 -0.1776 -0.0042
  249CLA    CLA22309   2.689   0.347   8.090  0.1379  0.0739  0.1920
  250CLA    CLA22310   5.153   0.148   0.970  0.1163 -0.2549 -0.0215
  251TIP3   OH222311   1.699   3.575   1.162 -0.3468 -0.3805  0.1637
  251TIP3    H122312   1.687   3.493   1.208 -0.1475 -1.3222 -1.3698
  251TIP3    H222313   1.667   3.558   1.073 -1.0219  1.4349  0.0051
  252TIP3   OH222314   0.741   3.090   6.940  0.1270 -0.6477  0.7593
  252TIP3    H122315   0.799   3.075   6.865 -0.6785 -1.2851  0.2351
  252TIP3    H222316   0.795   3.069   7.016  0.7866 -0.5672  0.3254
  253TIP3   OH222317   1.926   0.435   2.711  0.2965  0.4936 -0.1486
  253TIP3    H122318   1.910   0.359   2.767 -0.3386  0.3835 -0.4678
  253TIP3    H222319   1.985   0.491   2.762  1.9029 -0.8328 -0.4348
  254TIP3   OH222320   0.433   1.515   8.623  0.3441 -0.1965  0.4376
  254TIP3    H122321   0.527   1.499   8.612 -0.2899 -3.4008 -1.7894
  254TIP3    H222322   0.402   1.441   8.674 -1.1975  0.0265 -0.1199
  255TIP3   OH222323   6.305   1.253   0.274 -0.3767 -0.3328 -0.3444
  255TIP3    H122324   6.255   1.319   0.226  1.7998  0.4731 -1.6792
  255TIP3    H222325   6.362   1.304   0.332  0.9266 -0.9976 -0.9745
  256TIP3   OH222326   5.654   4.535   0.550 -0.1466  0.0352  0.4856
  256TIP3    H122327   5.712   4.480   0.602  0.6229 -0.0651 -0.4583
  256TIP3    H222328   5.575   4.482   0.537 -0.4098  0.1066  1.6197
  257TIP3   OH222329   2.952   6.412   0.218 -0.2176  0.1842  0.1519
  257TIP3    H122330   3.026   6.466   0.193 -1.7524  2.0757 -0.5423
  257TIP3    H222331   2.987   6.323   0.221  1.9962  0.9788 -0.3599
  258TIP3   OH222332   6.592   0.390   7.165 -0.5249  0.1049  0.1537
  258TIP3    H122333   6.534   0.466   7.170  0.6199  1.0475 -0.4816
  258TIP3    H222334   6.541   0.319   7.203 -1.0976  1.5042  2.1872
  259TIP3   OH222335   6.196   4.487   2.826  0.6936 -0.3042 -0.0140
  259TIP3    H122336   6.237   4.404   2.803  0.4647 -0.0135 -1.6208
  259TIP3    H222337   6.105   4.479   2.796  0.2441 -0.0220  1.2112
  260TIP3   OH222338   1.249   5.755   0.993  0.3999  0.3437  0.2416
  260TIP3    H122339   1.332   5.708   0.996  0.3466  0.2879  0.9710
  260TIP3    H222340   1.212   5.745   1.081 -0.1528  0.7716  0.0654
  261TIP3   OH222341   4.527   2.605   2.044  0.4556  0.3099 -0.0457
  261TIP3    H122342   4.434   2.627   2.049  0.1892 -0.8008  0.2059
  261TIP3    H222343   4.528   2.510   2.030  1.5354  0.5172 -1.5786
  262TIP3   OH222344   4.720   1.358   0.985  0.0621 -0.0130 -0.1927
  262TIP3    H122345   4.810   1.329   0.998 -0.0468 -0.3655 -0.2219
  262TIP3    H222346   4.670   1.277   0.971 -0.6986 -0.0836  2.3158
  263TIP3   OH222347   4.667   3.276   7.163  0.1517  0.5118  0.3454
  263TIP3    H122348   4.714   3.212   7.216  0.0291 -0.0203 -0.1770
  263TIP3    H222349   4.717   3.282   7.082 -0.5708  0.0571 -0.1537
  264TIP3   OH222350   0.902   5.953   1.594 -0.2899  0.1771 -0.0670
  264TIP3    H122351   0.981   5.982   1.548  1.1112  0.6848  2.4673
  264TIP3    H222352   0.833   6.013   1.564 -0.2165 -1.2038 -3.4718
  265TIP3   OH222353   0.127   4.769   8.142 -0.5346  0.1520 -0.1533
  265TIP3    H122354   0.146   4.861   8.161 -1.8594  0.5201 -0.5135
  265TIP3    H222355   0.032   4.762   8.149 -0.3268 -1.6774  1.9671
  266TIP3   OH222356   5.074   2.621   6.870  0.0687 -0.6127 -0.1026
  266TIP3    H122357   5.002   2.648   6.926  0.0391  0.5226 -0.6565
  266TIP3    H222358   5.123   2.702   6.853 -0.1625 -0.8197 -2.0353
  267TIP3   OH222359   3.422   3.398   6.909 -0.3930  0.0205  0.7200
  267TIP3    H122360   3.360   3.470   6.897 -1.1227 -0.7515 -0.2808
  267TIP3    H222361   3.405   3.339   6.836  1.1746 -0.4778  0.7154
  268TIP3   OH222362   4.825   6.362   0.601 -0.1430 -0.1303 -0.5586
  268TIP3    H122363   4.798   6.430   0.662 -0.5786 -0.6829 -0.1301
  268TIP3    H222364   4.776   6.380   0.521  0.5660  0.7008 -0.8206
  269TIP3   OH222365   2.189   6.178   0.700 -0.3265  0.9821 -0.1651
  269TIP3    H122366   2.235   6.241   0.757 -0.5918  1.2547 -0.2471
  269TIP3    H222367   2.132   6.233   0.646  0.1471  0.7531 -0.9047
  270TIP3   OH222368   4.451   4.770   1.870  0.0523  0.4745 -0.2752
  270TIP3    H122369   4.519   4.745   1.932  1.4370 -0.5486 -2.1010
  270TIP3    H222370   4.498   4.811   1.797 -1.4537  1.2693 -0.8539
  271TIP3   OH222371   3.876   5.911   1.690 -0.0196  0.5773 -0.4001
  271TIP3    H122372   3.942   5.843   1.674 -0.5694 -0.0913  0.1296
  271TIP3    H222373   3.888   5.973   1.618  0.5550 -0.0353 -0.8408
  272TIP3   OH222374   1.645   5.576   8.000 -0.1550  0.5014  0.2970
  272TIP3    H122375   1.563   5.595   7.954  0.2993 -0.7612 -1.1434
  272TIP3    H222376   1.634   5.486   8.030 -0.1814  1.1009  2.1768
  273TIP3   OH222377   1.483   3.082   1.143  0.0123  0.3953 -0.1094
  273TIP3    H122378   1.434   3.000   1.153  0.5479  0.1762  0.8684
  273TIP3    H222379   1.474   3.125   1.229  1.2169  0.5208 -0.0368
  274TIP3   OH222380   3.155   4.540   1.623 -0.0560 -0.4004 -0.1817
  274TIP3    H122381   3.224   4.573   1.565  0.9844 -0.9676  0.7160
  274TIP3    H222382   3.156   4.445   1.611  1.1490 -0.6807  1.7844
  275TIP3   OH222383   0.037   6.867   8.396 -0.2780  0.0817  0.3303
  275TIP3    H122384   0.039   6.798   8.330  0.5922  0.4369 -0.0281
  275TIP3    H222385   0.079   6.828   8.473 -0.9594 -0.2094  0.5623
  276TIP3   OH222386   2.232   4.434   8.065 -0.2625  0.3936 -0.2907
  276TIP3    H122387   2.151   4.464   8.024 -1.0022  0.4409  1.1487
  276TIP3    H222388   2.284   4.513   8.076 -1.0451  0.7612  0.9580
  277TIP3   OH222389   0.593   2.424   1.929 -0.6869 -0.2986  0.2572
  277TIP3    H122390   0.542   2.353   1.888 -0.5787 -0.0173 -0.3867
  277TIP3    H222391   0.652   2.453   1.859  1.5377 -1.6984  1.4528
  278TIP3   OH222392   4.171   0.652   0.897  0.6512  0.0248  0.1843
  278TIP3    H122393   4.163   0.714   0.970 -0.6570  0.7809 -0.5713
  278TIP3    H222394   4.247   0.684   0.848  0.3469  0.6915  0.1331
  279TIP3   OH222395   6.805   2.023   7.675 -0.1925  0.1047  0.0571
  279TIP3    H122396   6.769   2.112   7.673 -0.5336 -0.0359 -1.0206
  279TIP3    H222397   6.750   1.976   7.737 -1.4027  0.1040 -0.9788
  280TIP3   OH222398   4.377   4.480   7.815  0.1292 -0.1160 -0.1515
  280TIP3    H122399   4.302   4.460   7.759 -0.0170  0.0157 -0.0053
  280TIP3    H222400   4.440   4.411   7.797 -0.5965 -1.0498  0.7800
  281TIP3   OH222401   3.932   1.771   6.852  0.1988 -0.2803 -0.1715
  281TIP3    H122402   3.953   1.850   6.802  0.7558  0.3858  1.0451
  281TIP3    H222403   4.017   1.740   6.884 -0.1272 -0.7409  0.2598
  282TIP3   OH222404   4.339   5.094   1.998 -0.2312 -0.1052 -0.7086
  282TIP3    H122405   4.405   5.047   2.049 -0.9360  1.1330  1.5189
  282TIP3    H222406   4.388   5.164   1.954 -0.0341  1.2216  1.4579
  283TIP3   OH222407   3.755   1.868   7.549  0.1333 -0.2131 -0.4153
  283TIP3    H122408   3.681   1.876   7.610  0.1655 -2.6608  0.0536
  283TIP3    H222409   3.718   1.888   7.463 -0.1708  2.2173  0.2135
  284TIP3   OH222410   0.778   6.405   1.072 -0.2970  0.6778 -0.1155
  284TIP3    H122411   0.728   6.367   1.143  2.8115  0.7213  2.3242
  284TIP3    H222412   0.809   6.329   1.021 -1.5511  0.5736 -0.7454
  285TIP3   OH222413   4.856   6.685   7.556 -0.1048 -0.5573  0.3311
  285TIP3    H122414   4.919   6.629   7.601  1.4156  0.9397  0.1384
  285TIP3    H222415   4.890   6.693   7.467 -0.6668  0.1321  0.1694
  286TIP3   OH222416   0.221   1.821   2.182  0.4868  0.4792  0.3186
  286TIP3    H122417   0.126   1.826   2.174  0.5627  0.1000 -0.9673
  286TIP3    H222418   0.236   1.741   2.233  0.1548 -0.4349 -0.9665
  287TIP3   OH222419   4.234   6.019   7.757  0.1715 -0.0675  0.2910
  287TIP3    H122420   4.225   5.948   7.694 -1.5158 -0.1583  0.5832
  287TIP3    H222421   4.221   6.099   7.706  3.2654  0.1935 -0.2736
  288TIP3   OH222422   1.242   2.865   0.146  0.2761  0.2748 -0.0011
  288TIP3    H122423   1.286   2.942   0.181  0.2289  0.5569 -0.5487
  288TIP3    H222424   1.250   2.799   0.214  0.5839  0.6711  0.3472
  289TIP3   OH222425   2.940   1.038   0.089  0.3111 -0.0256  0.2964
  289TIP3    H122426   3.022   0.998   0.115 -0.0878  0.5428  2.6540
  289TIP3    H222427   2.965   1.123   0.051  0.7850  0.6836  2.1291
  290TIP3   OH222428   1.817   1.684   7.519  0.2870  0.2171 -0.3761
  290TIP3    H122429   1.887   1.698   7.583 -0.5021 -0.5864  0.6894
  290TIP3    H222430   1.804   1.770   7.479  0.6954  0.7719  0.6467
  291TIP3   OH222431   2.614   3.570   1.936  0.3302  0.4759 -0.5228
  291TIP3    H122432   2.534   3.622   1.929  0.3223  0.4355 -0.7471
  291TIP3    H222433   2.590   3.484   1.901  0.0810  0.0204  0.7280
  292TIP3   OH222434   1.393   4.875   8.625  0.0057 -1.0426 -0.6186
  292TIP3    H122435   1.477   4.916   8.648 -1.1155  1.1295 -0.0685
  292TIP3    H222436   1.413   4.782   8.618  2.0428 -0.8984  1.6481
  293TIP3   OH222437   1.160   2.710   2.521  0.1207 -0.0022  0.1635
  293TIP3    H122438   1.195   2.639   2.574 -3.0516 -1.4801  0.4878
  293TIP3    H222439   1.165   2.678   2.431 -0.7408 -0.3950  0.2505
  294TIP3   OH222440   0.102   3.575   0.348  0.0584 -1.0394 -0.8956
  294TIP3    H122441   0.104   3.670   0.356  0.7692 -0.9328 -2.1015
  294TIP3    H222442   0.158   3.543   0.418  0.7662 -0.5036 -1.2085
  295TIP3   OH222443   1.427   3.119   7.943  0.2134  0.3151  0.0747
  295TIP3    H122444   1.462   3.203   7.973  0.7871 -0.1660  0.8153
  295TIP3    H222445   1.485   3.054   7.983 -0.3692 -0.4420 -0.2842
  296TIP3   OH222446   5.480   5.504   0.234  0.1088  0.3784 -0.5243
  296TIP3    H122447   5.445   5.563   0.301 -0.3660  0.2168 -0.6220
  296TIP3    H222448   5.549   5.554   0.191 -0.3493  0.9032 -0.6672
  297TIP3   OH222449   6.425   5.856   0.458 -0.2879 -0.1410 -0.0092
  297TIP3    H122450   6.391   5.933   0.412  1.7335 -0.0198 -1.4641
  297TIP3    H222451   6.374   5.783   0.424 -0.5480  0.2647 -0.5084
  298TIP3   OH222452   1.367   0.080   7.877 -0.0943 -0.0565 -0.3337
  298TIP3    H122453   1.298   0.075   7.943  0.5087 -2.3704  0.2216
  298TIP3    H222454   1.320   0.090   7.794 -0.9171  1.3989  0.2609
  299TIP3   OH222455   5.939   5.591   7.796 -0.5747 -0.0770 -0.6762
  299TIP3    H122456   5.963   5.550   7.712 -0.9616  0.7027 -1.1751
  299TIP3    H222457   5.990   5.543   7.861 -0.4192 -0.8304 -1.3335
  300TIP3   OH222458   1.670   2.104   6.598  0.5352  0.2425 -0.0675
  300TIP3    H122459   1.621   2.041   6.546  1.8136 -0.0917 -0.9248
  300TIP3    H222460   1.632   2.098   6.686  0.0273 -1.0518 -0.3535
  301TIP3   OH222461   3.108   2.198   8.078 -0.7040 -0.0519 -0.3257
  301TIP3    H122462   3.057   2.260   8.026 -1.7025 -0.9030 -0.3975
  301TIP3    H222463   3.125   2.245   8.160 -1.4360  0.3186 -0.3773
  302TIP3   OH222464   3.868   4.607   2.147 -0.3775 -0.1290 -0.1113
  302TIP3    H122465   3.853   4.573   2.059 -2.4851 -0.5784  0.3592
  302TIP3    H222466   3.780   4.620   2.183  0.4149  0.9146  1.6073
  303TIP3   OH222467   2.777   5.175   1.380  0.4315  0.1513  0.2370
  303TIP3    H122468   2.848   5.114   1.359 -0.2784 -1.7101  2.7835
  303TIP3    H222469   2.715   5.123   1.431 -1.0385  2.6247  1.1303
  304TIP3   OH222470   3.533   2.446   0.953 -0.1107  0.0471 -0.3120
  304TIP3    H122471   3.532   2.452   1.048 -0.5615  0.0025 -0.3142
  304TIP3    H222472   3.551   2.535   0.923 -1.3885  0.3431 -0.2183
  305TIP3   OH222473   0.580   1.240   8.556  0.0926  0.4302  0.4546
  305TIP3    H122474   0.500   1.236   8.607 -0.4740  1.6408 -0.2743
  305TIP3    H222475   0.595   1.334   8.543  1.9906  0.2527  1.1130
  306TIP3   OH222476   4.326   5.578   7.325  0.8828  0.9464 -0.2524
  306TIP3    H122477   4.303   5.554   7.235 -0.6648  1.7322 -0.0946
  306TIP3    H222478   4.286   5.664   7.338  1.7825  1.2054  0.9321
  307TIP3   OH222479   6.836   4.825   2.676 -0.8180 -0.5786  0.2952
  307TIP3    H122480   6.813   4.918   2.681 -1.7107 -0.7277 -0.5809
  307TIP3    H222481   6.752   4.779   2.678 -0.5712 -1.2259 -1.6285
  308TIP3   OH222482   2.464   0.168   7.745  0.6095  0.7227 -0.0299
  308TIP3    H122483   2.419   0.196   7.825  1.5560 -2.0249  1.6212
  308TIP3    H222484   2.393   0.153   7.682 -0.2573  1.9925  0.6031
  309TIP3   OH222485   1.969   5.406   8.034  0.2212  0.1975 -0.2782
  309TIP3    H122486   1.899   5.342   8.020  0.8633 -0.4513 -0.5716
  309TIP3    H222487   2.029   5.362   8.095  0.0245  1.0219  0.5334
  310TIP3   OH222488   6.270   6.538   2.530  0.0609 -0.5442 -0.3026
  310TIP3    H122489   6.302   6.621   2.496 -1.4636 -0.2639 -1.1786
  310TIP3    H222490   6.348   6.489   2.554  0.9940  1.0674  0.0523
  311TIP3   OH222491   1.391   4.950   8.298 -0.5374 -0.4770  0.2719
  311TIP3    H122492   1.388   4.971   8.204  0.5475 -0.4225  0.2323
  311TIP3    H222493   1.437   4.866   8.302  2.5032  1.0556  0.9088
  312TIP3   OH222494   4.948   0.084   7.633  0.0417 -0.1118  0.6809
  312TIP3    H122495   4.931   0.117   7.721  0.4018  1.8255  0.0664
  312TIP3    H222496   4.876   0.024   7.616 -1.0102  0.8148  1.6509
  313TIP3   OH222497   6.427   0.737   0.411  0.0069  0.2300  0.1281
  313TIP3    H122498   6.518   0.707   0.411 -0.0021  0.0900  1.8679
  313TIP3    H222499   6.434   0.832   0.423 -0.0663  0.1858  0.5456
  314TIP3   OH222500   4.673   1.810   0.835  0.3548 -0.2355  0.4435
  314TIP3    H122501   4.674   1.775   0.924 -0.0099 -0.5128  0.3376
  314TIP3    H222502   4.761   1.792   0.801 -0.2477 -2.3551 -0.1201
  315TIP3   OH222503   0.091   0.437   0.797 -0.1780 -0.2294  0.2558
  315TIP3    H122504   0.040   0.386   0.860 -0.3041 -1.7273 -1.0006
  315TIP3    H222505   0.169   0.465   0.845 -0.6534 -0.6487  1.2895
  316TIP3   OH222506   0.386   4.927   0.496 -0.0945  0.3931  0.4580
  316TIP3    H122507   0.305   4.923   0.446  1.2885  1.8805 -2.0918
  316TIP3    H222508   0.391   5.017   0.527  1.2469  0.7404 -0.6840
  317TIP3   OH222509   1.103   4.575   8.608 -0.3800 -1.0641  0.3989
  317TIP3    H122510   1.196   4.551   8.607 -0.7881 -2.9896 -2.1360
  317TIP3    H222511   1.099   4.653   8.663  2.8349 -0.5276  0.0797
  318TIP3   OH222512   4.213   6.713   8.299  0.6828 -0.3361  0.2922
  318TIP3    H122513   4.301   6.743   8.280  0.7131 -0.5070  0.1661
  318TIP3    H222514   4.215   6.689   8.392  0.3124  1.2961  0.7542
  319TIP3   OH222515   1.708   1.228   1.992 -0.0256 -0.0659  0.3947
  319TIP3    H122516   1.636   1.173   1.960 -0.1523  0.5715 -0.4228
  319TIP3    H222517   1.665   1.303   2.033  0.1700  0.1453  0.2152
  320TIP3   OH222518   0.653   4.210   8.173  0.7201 -0.3326 -0.4777
  320TIP3    H122519   0.670   4.272   8.102  1.6305 -0.9867 -0.8565
  320TIP3    H222520   0.623   4.130   8.129 -1.5845  0.1583  0.0698
  321TIP3   OH222521   2.386   5.055   1.611 -0.2794 -0.0331  0.0887
  321TIP3    H122522   2.298   5.016   1.614 -1.1650  1.7590 -1.0133
  321TIP3    H222523   2.388   5.114   1.686 -0.2799  0.4271 -0.2682
  322TIP3   OH222524   1.524   6.700   0.436 -0.3614 -0.4929  0.1555
  322TIP3    H122525   1.435   6.700   0.398  0.1771  1.1332 -1.2345
  322TIP3    H222526   1.515   6.751   0.516 -0.1855  2.4351 -1.5336
  323TIP3   OH222527   4.159   6.355   1.948 -0.0520 -0.0741  0.0370
  323TIP3    H122528   4.115   6.318   2.025  1.4710 -0.6645  0.6695
  323TIP3    H222529   4.171   6.280   1.889 -0.4218  0.2002 -0.3918
  324TIP3   OH222530   1.482   3.753   1.888 -0.1002  0.7009  0.3769
  324TIP3    H122531   1.441   3.698   1.822  1.1537  0.7073 -0.4511
  324TIP3    H222532   1.508   3.693   1.957  0.9274  0.2798 -0.3530
  325TIP3   OH222533   0.268   6.345   2.911  0.3067 -0.1232  0.1140
  325TIP3    H122534   0.307   6.259   2.927  0.6382  0.0214  0.0988
  325TIP3    H222535   0.311   6.376   2.831 -1.6988 -1.0548 -1.4186
  326TIP3   OH222536   2.116   5.204   7.059  0.0736 -0.0455  0.3544
  326TIP3    H122537   2.120   5.177   6.967  0.2295  0.5370  0.1829
  326TIP3    H222538   2.191   5.160   7.100 -0.2430 -0.6423  0.2976
  327TIP3   OH222539   2.455   4.046   8.618  0.2422  0.3845  0.2380
  327TIP3    H122540   2.401   4.007   8.549 -0.0329 -1.2530  1.3259
  327TIP3    H222541   2.393   4.099   8.668 -0.3284 -1.1405  1.2190
  328TIP3   OH222542   3.650   0.864   1.198 -0.1841 -0.1049  0.2159
  328TIP3    H122543   3.665   0.952   1.232  0.3631 -0.7897  1.8052
  328TIP3    H222544   3.559   0.845   1.220 -0.1953 -0.0844  0.1878
  329TIP3   OH222545   2.992   4.834   2.372 -0.3929 -0.3151  0.2312
  329TIP3    H122546   3.053   4.904   2.349 -0.1879 -0.3903  0.5346
  329TIP3    H222547   2.913   4.879   2.402  0.0181 -0.1955  1.1810
  330TIP3   OH222548   1.158   0.099   8.045 -0.2532 -0.9156 -0.7140
  330TIP3    H122549   1.082   0.135   7.997 -0.2262 -1.5718 -1.2570
  330TIP3    H222550   1.184   0.170   8.103 -1.2624 -0.6590 -0.5457
  331TIP3   OH222551   1.988   5.331   8.422  0.1884 -0.0382 -0.7499
  331TIP3    H122552   1.958   5.410   8.468 -1.1615 -1.2080  0.4605
  331TIP3    H222553   2.071   5.357   8.382 -0.1968  1.9758 -0.3350
  332TIP3   OH222554   2.983   1.213   0.444 -0.5245 -0.0056 -0.5768
  332TIP3    H122555   2.994   1.292   0.497 -3.0853  0.4421 -0.6018
  332TIP3    H222556   2.977   1.246   0.354  1.6255 -0.5775 -0.9872
  333TIP3   OH222557   0.308   4.473   0.123  0.2748 -0.2650  0.1926
  333TIP3    H122558   0.268   4.506   0.042  0.5318 -1.2770 -0.3701
  333TIP3    H222559   0.277   4.532   0.191 -0.3368  0.3253 -0.5786
  334TIP3   OH222560   2.776   2.708   2.439 -0.1208  0.0587 -0.1621
  334TIP3    H122561   2.760   2.625   2.484 -2.3527  1.6142  2.1617
  334TIP3    H222562   2.860   2.739   2.474  0.0768 -0.5778 -0.0616
  335TIP3   OH222563   1.827   4.246   1.644  0.0674 -0.2169  0.3532
  335TIP3    H122564   1.829   4.175   1.579  1.4756 -1.7140  1.9289
  335TIP3    H222565   1.919   4.262   1.664 -0.3194  0.5502  1.6156
  336TIP3   OH222566   6.424   3.314   1.093  0.5172 -0.1072  0.0047
  336TIP3    H122567   6.342   3.271   1.118 -0.3576  1.9003  0.8181
  336TIP3    H222568   6.436   3.382   1.159  2.8756 -0.3396 -0.1025
  337TIP3   OH222569   1.254   2.056   1.423  0.1646  0.0526 -0.0261
  337TIP3    H122570   1.186   1.995   1.450 -1.0832  1.0871 -0.7214
  337TIP3    H222571   1.248   2.059   1.328  0.1144  1.3444 -0.0008
  338TIP3   OH222572   3.845   1.839   2.657  0.3161  0.0416 -0.3320
  338TIP3    H122573   3.776   1.905   2.665 -1.5322 -1.8781  0.5547
  338TIP3    H222574   3.889   1.860   2.574 -2.1517  0.6335 -1.5828
  339TIP3   OH222575   2.828   1.699   8.256  0.4167  0.0112  0.4348
  339TIP3    H122576   2.872   1.766   8.308  1.7591  1.2128 -2.0530
  339TIP3    H222577   2.873   1.702   8.171 -0.5525 -2.9585 -0.2896
  340TIP3   OH222578   1.994   0.746   1.730 -0.1670 -0.0549 -0.0971
  340TIP3    H122579   1.938   0.758   1.807 -1.0929 -0.8689 -0.6195
  340TIP3    H222580   2.025   0.834   1.709  0.9852  0.0565  1.8300
  341TIP3   OH222581   1.142   1.068   0.464  0.6763 -0.1305  0.7219
  341TIP3    H122582   1.140   0.986   0.415 -0.1967 -0.2930  1.0049
  341TIP3    H222583   1.231   1.101   0.453  0.9194 -0.9144  0.2733
  342TIP3   OH222584   5.047   3.514   8.634  0.1968 -0.2155 -0.3339
  342TIP3    H122585   5.128   3.506   8.584  0.1968 -1.7843 -0.1111
  342TIP3    H222586   5.007   3.595   8.601  1.6120  0.3410 -0.7627
  343TIP3   OH222587   0.025   4.299   0.311 -0.2478  0.2810  0.2880
  343TIP3    H122588   0.010   4.307   0.217  0.7841  1.1960  0.1872
  343TIP3    H222589  -0.004   4.383   0.347 -0.2377  0.0955  0.7405
  344TIP3   OH222590   3.881   3.578   7.683  0.1319 -0.3504  0.0367
  344TIP3    H122591   3.906   3.596   7.593 -2.7507 -1.8532 -1.1827
  344TIP3    H222592   3.941   3.509   7.711  1.1285  0.2077 -0.6704
  345TIP3   OH222593   0.829   4.634   0.843 -0.0692  0.9535  0.2544
  345TIP3    H122594   0.904   4.611   0.897 -0.8666  0.1171  1.0482
  345TIP3    H222595   0.805   4.552   0.798  0.5187  1.6044 -1.3268
  346TIP3   OH222596   4.268   4.336   1.153 -0.3424 -0.6362 -0.8661
  346TIP3    H122597   4.363   4.336   1.165  0.2822  2.8364 -3.8427
  346TIP3    H222598   4.235   4.398   1.218 -0.9804 -3.0848  1.3245
  347TIP3   OH222599   6.731   6.627   1.675 -0.1831 -0.3170 -0.3312
  347TIP3    H122600   6.640   6.616   1.705 -0.3955  1.0962 -0.3511
  347TIP3    H222601   6.771   6.683   1.742  0.4817 -0.3733 -0.6774
  348TIP3   OH222602   1.755   1.768   7.129  0.5315 -0.1960 -0.7596
  348TIP3    H122603   1.692   1.835   7.101 -0.0987 -0.8541 -0.9445
  348TIP3    H222604   1.803   1.809   7.201  0.4843  0.6277 -1.1762
  349TIP3   OH222605   2.152   1.845   2.575 -0.0191 -0.0645  0.3206
  349TIP3    H122606   2.213   1.807   2.512 -0.9929 -0.9575 -0.1042
  349TIP3    H222607   2.069   1.802   2.557 -0.5442  0.3802  1.5789
  350TIP3   OH222608   5.459   4.732   8.083 -0.4384 -0.5780 -0.1860
  350TIP3    H122609   5.374   4.688   8.089 -1.1356  0.8840  1.7716
  350TIP3    H222610   5.438   4.820   8.052  0.2449  0.0177  0.9803
  351TIP3   OH222611   0.318   1.416   0.204 -0.5240 -0.1430 -0.1789
  351TIP3    H122612   0.238   1.466   0.190 -1.5892 -1.2898  1.5415
  351TIP3    H222613   0.299   1.359   0.278  1.1931 -1.9288 -1.0195
  352TIP3   OH222614   3.837   5.705   8.306  0.4877  0.2668 -0.0909
  352TIP3    H122615   3.799   5.652   8.236  0.8403 -0.9330  0.5895
  352TIP3    H222616   3.927   5.721   8.278  0.4424  0.3165 -0.2064
  353TIP3   OH222617   6.264   1.737   1.244  0.2353 -0.7030  0.7246
  353TIP3    H122618   6.216   1.772   1.319  0.2014 -0.2470  0.4926
  353TIP3    H222619   6.213   1.661   1.217 -1.2816  0.6592 -0.4954
  354TIP3   OH222620   1.311   5.673   0.665  0.2726 -0.0830  0.5855
  354TIP3    H122621   1.240   5.694   0.605 -1.4487 -0.4257  2.3780
  354TIP3    H222622   1.382   5.731   0.641 -0.8758  0.7906 -0.8229
  355TIP3   OH222623   3.692   6.846   6.715  0.2445  0.0828 -0.0602
  355TIP3    H122624   3.621   6.830   6.778  0.1744 -0.1827 -0.2032
  355TIP3    H222625   3.698   6.941   6.710 -0.7974  0.1297 -0.8178
  356TIP3   OH222626   3.596   2.200   0.831  0.0588  0.0131  0.0257
  356TIP3    H122627   3.565   2.283   0.868 -0.1700 -0.7710  1.6569
  356TIP3    H222628   3.521   2.140   0.840  0.6441 -0.7232  0.0450
  357TIP3   OH222629   3.711   3.116   7.302  0.9381 -0.7197  0.1701
  357TIP3    H122630   3.695   3.096   7.394 -2.6710  0.3957 -0.0608
  357TIP3    H222631   3.703   3.211   7.296 -2.2387 -0.9629 -1.6457
  358TIP3   OH222632   2.924   4.766   1.454  0.2082 -0.0479 -0.0741
  358TIP3    H122633   2.958   4.855   1.447 -3.5745  1.4778 -1.4124
  358TIP3    H222634   2.938   4.727   1.368  0.1864 -0.0643 -0.0704
  359TIP3   OH222635   2.334   3.727   2.486  0.0775 -0.3092 -0.5294
  359TIP3    H122636   2.265   3.672   2.448  0.7399 -2.2964  0.9526
  359TIP3    H222637   2.287   3.787   2.543 -0.4929 -1.6018  0.4246
  360TIP3   OH222638   3.840   5.981   7.393  0.3078 -0.6477  0.1189
  360TIP3    H122639   3.854   5.956   7.302 -1.5266  1.3694 -0.7973
  360TIP3    H222640   3.748   6.007   7.398  0.5529  0.0480  2.3596
  361TIP3   OH222641   4.802   5.767   7.498 -0.1063  0.3622 -0.0605
  361TIP3    H122642   4.859   5.749   7.423 -0.6511 -1.5827 -0.0473
  361TIP3    H222643   4.714   5.744   7.468 -0.3340 -0.4576  1.1699
  362TIP3   OH222644   3.309   2.070   7.966 -0.1365  0.0258  0.3079
  362TIP3    H122645   3.239   2.115   8.012  0.4501  0.5725  0.6690
  362TIP3    H222646   3.388   2.086   8.018 -0.2557 -3.3686  1.8193
  363TIP3   OH222647   5.260   0.273   1.918  0.1754 -0.5503  0.0569
  363TIP3    H122648   5.296   0.338   1.856 -0.8212 -0.5420 -0.5300
  363TIP3    H222649   5.273   0.189   1.874 -0.3448 -0.5639 -0.0729
  364TIP3   OH222650   4.267   3.615   1.280 -0.0793  0.5379  0.2915
  364TIP3    H122651   4.259   3.685   1.215  0.0868  0.9940  0.7466
  364TIP3    H222652   4.356   3.625   1.314  0.1590 -0.2860 -0.0664
  365TIP3   OH222653   6.518   5.131   1.422  0.4463  0.3162  0.1491
  365TIP3    H122654   6.446   5.179   1.461  0.0802  1.3047 -1.6101
  365TIP3    H222655   6.597   5.174   1.456  0.1230  2.5436 -1.6931
  366TIP3   OH222656   3.577   0.736   1.503 -0.2294 -0.2203 -0.1904
  366TIP3    H122657   3.532   0.767   1.425  1.4148  1.4457 -0.5561
  366TIP3    H222658   3.513   0.746   1.573 -1.4771 -1.0224 -1.1627
  367TIP3   OH222659   5.537   3.934   8.014  0.1358  0.0228 -0.6752
  367TIP3    H122660   5.590   3.946   8.092  1.0132 -2.0478 -0.8795
  367TIP3    H222661   5.600   3.931   7.942 -0.3075 -1.4844 -1.0336
  368TIP3   OH222662   3.551   3.449   0.508 -0.4152  0.1461 -0.1723
  368TIP3    H122663   3.556   3.523   0.448  0.5475 -0.3286 -0.7096
  368TIP3    H222664   3.508   3.380   0.458 -0.4374  0.0350 -0.0020
  369TIP3   OH222665   4.105   4.514   0.203  0.4601 -0.1890 -0.4011
  369TIP3    H122666   4.132   4.463   0.280  0.8707 -0.8097 -0.9492
  369TIP3    H222667   4.169   4.492   0.136  1.0466  1.5511 -0.4726
  370TIP3   OH222668   6.487   5.615   1.010  0.4415  0.4401  0.0365
  370TIP3    H122669   6.447   5.529   0.992 -1.1639  0.9153  1.1843
  370TIP3    H222670   6.571   5.594   1.051  0.3427 -0.5806 -0.2528
  371TIP3   OH222671   0.045   5.684   0.190  0.8439  0.8291 -0.0764
  371TIP3    H122672   0.054   5.747   0.118 -2.2319 -0.2784 -1.5893
  371TIP3    H222673  -0.024   5.721   0.246  0.8504  0.0528  0.4586
  372TIP3   OH222674   2.803   2.605   6.933 -0.3863  0.2420 -0.3334
  372TIP3    H122675   2.789   2.672   6.866  0.9946  1.2162  0.3123
  372TIP3    H222676   2.734   2.622   6.998 -1.2093 -0.1790 -1.0824
  373TIP3   OH222677   3.314   3.795   8.443  0.0253  0.1607  0.0899
  373TIP3    H122678   3.385   3.731   8.435 -1.7476 -2.0780  1.0506
  373TIP3    H222679   3.333   3.862   8.377  1.2054 -2.1596 -2.0660
  374TIP3   OH222680   2.912   0.430   0.859 -0.0133 -0.9688  0.4558
  374TIP3    H122681   2.832   0.417   0.808 -1.5092  0.8061  2.1849
  374TIP3    H222682   2.928   0.524   0.854  2.3228 -1.3538 -0.2772
  375TIP3   OH222683   1.263   1.128   2.135  0.0030  0.1793  0.0976
  375TIP3    H122684   1.355   1.119   2.111 -0.3686  1.0030 -1.8879
  375TIP3    H222685   1.232   1.038   2.146  0.7262 -0.1666 -0.5997
  376TIP3   OH222686   2.855   3.835   6.691 -0.0464 -0.5218  0.8426
  376TIP3    H122687   2.847   3.911   6.634 -0.7452 -2.0074 -1.1232
  376TIP3    H222688   2.776   3.837   6.745 -1.6522 -1.4679 -1.3315
  377TIP3   OH222689   3.393   6.298   7.785 -0.1247  0.5922  0.3049
  377TIP3    H122690   3.376   6.312   7.692 -0.2557  1.0793  0.3986
  377TIP3    H222691   3.307   6.308   7.827 -0.4125 -1.4308  0.2879
  378TIP3   OH222692   2.595   5.104   1.137 -0.2189 -0.6297 -0.2992
  378TIP3    H122693   2.521   5.077   1.083  0.9838 -2.2933 -1.1936
  378TIP3    H222694   2.556   5.162   1.203 -1.9324  0.4881 -2.1584
  379TIP3   OH222695   3.537   2.857   7.838  0.6263 -0.6547  0.0021
  379TIP3    H122696   3.600   2.916   7.880  0.3063 -1.1153  1.1857
  379TIP3    H222697   3.579   2.771   7.843 -0.4245 -1.1229  1.6114
  380TIP3   OH222698   5.767   4.804   0.817 -0.6838 -0.0451 -0.0323
  380TIP3    H122699   5.852   4.758   0.818 -0.0491  1.0157 -1.2298
  380TIP3    H222700   5.785   4.886   0.770 -2.0330  0.9232  1.0621
  381TIP3   OH222701   3.356   4.719   1.538  0.2887  0.4763  0.0063
  381TIP3    H122702   3.427   4.676   1.491  0.8143  1.3869 -0.0566
  381TIP3    H222703   3.395   4.747   1.621 -0.6051 -1.0366  0.9865
  382TIP3   OH222704   5.164   0.603   1.950  0.2764 -0.1655 -0.1280
  382TIP3    H122705   5.155   0.698   1.950  0.6844 -0.1140 -1.2404
  382TIP3    H222706   5.247   0.586   1.904  1.7423 -0.9406  2.5640
  383TIP3   OH222707   2.606   0.487   8.376  0.1701 -0.1077 -0.0017
  383TIP3    H122708   2.627   0.437   8.297  0.2173  2.7631 -1.9988
  383TIP3    H222709   2.682   0.544   8.389  0.4104 -0.9195  2.5357
  384TIP3   OH222710   4.907   3.587   2.320  0.2361  0.4644  0.4567
  384TIP3    H122711   4.859   3.641   2.384 -0.2626  0.4852  0.0724
  384TIP3    H222712   4.838   3.537   2.276  0.5655  0.5390 -0.1485
  385TIP3   OH222713   2.709   3.902   7.414  0.0454 -0.3821  0.1116
  385TIP3    H122714   2.679   3.908   7.505  0.5135  1.6938  0.1906
  385TIP3    H222715   2.792   3.950   7.413  0.7016 -1.4683 -1.1754
  386TIP3   OH222716   1.337   1.577   1.580 -0.2528 -0.0794  0.1143
  386TIP3    H122717   1.329   1.501   1.524 -3.1386  0.6831 -0.6494
  386TIP3    H222718   1.290   1.554   1.660 -3.3912  1.6128 -1.0803
  387TIP3   OH222719   2.965   2.338   7.885  0.4161 -0.3705 -0.3841
  387TIP3    H122720   3.020   2.338   7.807  1.6042  1.2631  0.4029
  387TIP3    H222721   2.928   2.426   7.888  0.7904 -0.2398  1.1534
  388TIP3   OH222722   4.292   0.857   0.103  0.4127  0.5248  0.6312
  388TIP3    H122723   4.237   0.918   0.054  1.8107 -1.2925 -3.6662
  388TIP3    H222724   4.245   0.773   0.097  1.8280 -0.2704  0.0631
  389TIP3   OH222725   1.153   0.494   1.746  0.2542 -0.0321 -0.4562
  389TIP3    H122726   1.150   0.437   1.822  0.5461  0.2030 -0.2663
  389TIP3    H222727   1.150   0.582   1.782 -0.4772  0.0768 -0.7596
  390TIP3   OH222728   1.190   4.670   2.912  0.2699  0.1938  0.2521
  390TIP3    H122729   1.278   4.646   2.885  0.5955  1.5837 -0.0057
  390TIP3    H222730   1.148   4.587   2.936  1.6209 -0.4890  0.3267
  391TIP3   OH222731   2.614   5.389   1.581 -0.1049  0.2613  0.2351
  391TIP3    H122732   2.654   5.348   1.657  0.4323 -1.1375 -0.7610
  391TIP3    H222733   2.670   5.365   1.507 -1.9442 -0.5390 -0.9895
  392TIP3   OH222734   6.838   1.753   1.839 -0.0513  0.4387  0.2122
  392TIP3    H122735   6.756   1.742   1.888 -0.2374  0.4740 -0.0939
  392TIP3    H222736   6.885   1.671   1.853 -0.5827  0.0116 -0.4459
  393TIP3   OH222737   4.954   6.285   1.190  0.5755  0.1545 -0.2488
  393TIP3    H122738   4.990   6.322   1.109 -0.5363 -0.0258 -0.8405
  393TIP3    H222739   4.980   6.193   1.188  0.3398  0.0925 -0.5292
  394TIP3   OH222740   2.980   0.591   6.479 -0.3078  0.0713  0.7773
  394TIP3    H122741   2.972   0.543   6.562 -1.6450 -1.1771 -0.0202
  394TIP3    H222742   3.073   0.587   6.458 -0.2860 -1.7476  1.0305
  395TIP3   OH222743   3.485   3.582   7.644  0.0735  0.2519  0.2687
  395TIP3    H122744   3.475   3.489   7.627 -0.5744  0.1852  0.9782
  395TIP3    H222745   3.397   3.619   7.634  0.5718  1.0699 -1.5598
  396TIP3   OH222746   5.210   0.452   0.382 -0.2772  0.3266  0.1008
  396TIP3    H122747   5.142   0.501   0.428  0.2193 -0.3353  1.6080
  396TIP3    H222748   5.207   0.364   0.421 -0.0369 -0.3635 -1.3685
  397TIP3   OH222749   2.376   2.815   0.032 -0.5927  0.2083 -0.0362
  397TIP3    H122750   2.373   2.750   0.102  0.3746  0.3042  0.1126
  397TIP3    H222751   2.464   2.851   0.037  0.0349 -0.8618 -2.2920
  398TIP3   OH222752   6.532   3.930   1.357  0.3746 -0.8828  0.0756
  398TIP3    H122753   6.598   3.897   1.296  0.4733 -3.0558  1.2768
  398TIP3    H222754   6.567   4.015   1.385  1.1841 -0.6395 -1.5198
  399TIP3   OH222755   0.960   5.420   8.558 -0.5732 -0.0584  0.4832
  399TIP3    H122756   0.878   5.392   8.599 -0.4363 -1.3770 -0.0866
  399TIP3    H222757   0.983   5.348   8.500  0.5533  0.6731 -0.0072
  400TIP3   OH222758   0.572   3.481   8.228  0.1338  0.1621  0.3715
  400TIP3    H122759   0.597   3.499   8.138 -1.4594 -0.0636 -0.1453
  400TIP3    H222760   0.499   3.540   8.245 -0.8736 -1.1560  0.8317
  401TIP3   OH222761   1.627   1.471   7.877  0.3379 -0.2665  0.1333
  401TIP3    H122762   1.635   1.423   7.959  3.1583  1.3171  0.9057
  401TIP3    H222763   1.709   1.455   7.832  0.1750  1.5238 -0.8830
  402TIP3   OH222764   4.790   2.572   8.034 -0.2401  0.2564  0.0551
  402TIP3    H122765   4.768   2.564   8.127 -0.3051 -2.0874 -0.1058
  402TIP3    H222766   4.771   2.486   7.997 -0.2582  1.1442 -2.1639
  403TIP3   OH222767   4.016   1.047   8.439  0.4245 -0.4697  0.2671
  403TIP3    H122768   4.020   1.033   8.534  0.6654 -0.2489  0.2925
  403TIP3    H222769   4.105   1.029   8.409  0.2466 -0.9558  0.0206
  404TIP3   OH222770   2.074   2.827   8.337 -0.1283  0.2066 -0.2716
  404TIP3    H122771   2.041   2.828   8.247  0.9087 -2.0014 -0.7447
  404TIP3    H222772   2.162   2.864   8.331 -0.0703  0.0876 -0.1710
  405TIP3   OH222773   4.531   6.747   1.398 -0.4933 -0.3999 -0.8834
  405TIP3    H122774   4.517   6.682   1.467  0.7024  1.5674  1.3796
  405TIP3    H222775   4.449   6.797   1.396  0.3596  1.2386  1.1701
  406TIP3   OH222776   2.356   3.883   2.187 -0.0003  0.4507  0.1391
  406TIP3    H122777   2.431   3.931   2.223 -0.8903  0.3643  2.2863
  406TIP3    H222778   2.295   3.877   2.261 -1.2949 -1.1650 -1.0032
  407TIP3   OH222779   3.248   2.670   2.258  0.7704  0.5019 -0.1229
  407TIP3    H122780   3.291   2.715   2.185  0.6027  0.3339 -0.3276
  407TIP3    H222781   3.308   2.681   2.332  1.7938 -0.7938 -0.7086
  408TIP3   OH222782   0.925   2.914   0.547  0.0279  0.9530  0.3298
  408TIP3    H122783   0.855   2.886   0.487 -0.3610  0.8934  0.8043
  408TIP3    H222784   1.002   2.923   0.491  0.6021 -2.5007  0.3324
  409TIP3   OH222785   6.776   4.204   0.062  0.1039 -0.0747 -0.2736
  409TIP3    H122786   6.709   4.250   0.013  0.5567  1.7870  0.7556
  409TIP3    H222787   6.850   4.197   0.001  0.9408  2.8862  0.2635
  410TIP3   OH222788   3.848   4.792   0.796 -0.3560  0.2844 -0.1055
  410TIP3    H122789   3.887   4.724   0.851 -0.1813 -0.0986 -0.6882
  410TIP3    H222790   3.755   4.791   0.819 -0.0861  1.0496  1.1376
  411TIP3   OH222791   0.928   1.154   7.873  0.2411  0.1511 -0.1364
  411TIP3    H122792   0.988   1.190   7.938  2.4780 -1.4378 -1.1816
  411TIP3    H222793   0.891   1.231   7.829  2.2841  1.2348 -0.0781
  412TIP3   OH222794   4.638   1.184   2.736  0.1036 -0.3278 -0.6074
  412TIP3    H122795   4.557   1.197   2.785  0.9127  0.4416  0.5657
  412TIP3    H222796   4.667   1.095   2.759  0.2699 -0.1184 -0.0035
  413TIP3   OH222797   2.809   2.591   1.588  0.2614  0.2937 -0.3371
  413TIP3    H122798   2.844   2.678   1.609 -0.1347  0.2534  0.5395
  413TIP3    H222799   2.817   2.542   1.670 -1.9759  0.3435 -0.0224
  414TIP3   OH222800   5.395   5.987   2.682  0.0206  0.0427  0.0082
  414TIP3    H122801   5.367   6.068   2.640  0.3397  0.0425 -0.2050
  414TIP3    H222802   5.338   5.980   2.759 -0.8311 -0.1586 -0.6186
  415TIP3   OH222803   4.666   2.025   8.021  0.0302  0.0980  0.7901
  415TIP3    H122804   4.747   2.043   7.972  0.1873 -0.9615  0.6506
  415TIP3    H222805   4.597   2.064   7.967  0.3014 -0.2338  0.1865
  416TIP3   OH222806   4.276   1.785   0.907 -0.8165  0.0536 -0.2898
  416TIP3    H122807   4.317   1.702   0.881 -0.6573 -0.0604  0.3175
  416TIP3    H222808   4.322   1.811   0.987 -1.5195  0.2342  0.0647
  417TIP3   OH222809   2.933   6.516   1.390  0.4789  0.0880  0.5394
  417TIP3    H122810   2.927   6.422   1.408 -0.3122 -0.1969 -0.9988
  417TIP3    H222811   2.842   6.546   1.385  0.6038  0.2896 -1.8355
  418TIP3   OH222812   3.524   0.484   0.111  0.2518  0.1540  0.1482
  418TIP3    H122813   3.467   0.519   0.180 -1.4370 -1.2214 -0.4631
  418TIP3    H222814   3.562   0.405   0.149  0.2938  0.0702 -0.0658
  419TIP3   OH222815   1.015   0.239   1.476 -0.4177 -0.1325  0.6129
  419TIP3    H122816   0.956   0.217   1.404 -0.3300  0.5777  0.3106
  419TIP3    H222817   0.980   0.191   1.551 -1.3519  0.2296  0.4280
  420TIP3   OH222818   5.714   6.184   2.269 -0.1493 -0.1387  0.5434
  420TIP3    H122819   5.621   6.208   2.268  0.0142  0.5413 -1.1448
  420TIP3    H222820   5.723   6.131   2.347 -2.1580 -0.9625  0.2864
  421TIP3   OH222821   5.898   1.320   1.895  0.1692  0.0301  0.1498
  421TIP3    H122822   5.877   1.390   1.958 -2.1617  1.6370 -2.2217
  421TIP3    H222823   5.958   1.361   1.833  0.6992 -0.8634  0.0529
  422TIP3   OH222824   5.579   0.242   8.634 -0.1595  0.2686  0.5406
  422TIP3    H122825   5.616   0.317   8.682  0.4184 -1.5375  3.1569
  422TIP3    H222826   5.506   0.213   8.689  0.8899 -2.2749  0.7190
  423TIP3   OH222827   5.906   0.549   8.266 -0.5391 -0.1153 -0.6000
  423TIP3    H122828   5.850   0.581   8.337  1.1164  1.8171 -0.0806
  423TIP3    H222829   5.847   0.502   8.208 -2.1373 -0.8415  1.5028
  424TIP3   OH222830   3.708   2.717   7.005 -0.2321  0.5037 -0.2548
  424TIP3    H122831   3.635   2.658   7.022  0.3387  0.5257  2.8797
  424TIP3    H222832   3.719   2.714   6.910 -3.2521 -0.6982 -0.6984
  425TIP3   OH222833   5.374   2.158   7.770  0.0597 -0.6140 -0.0744
  425TIP3    H122834   5.355   2.116   7.686 -1.4605 -1.0705  0.4703
  425TIP3    H222835   5.307   2.125   7.829  0.0183  1.0689  0.8717
  426TIP3   OH222836   5.072   2.198   0.176 -0.1165  0.2386  0.1277
  426TIP3    H122837   5.070   2.169   0.267 -1.4348  0.8685  0.3230
  426TIP3    H222838   5.120   2.129   0.130 -0.0332 -0.4313  1.1755
  427TIP3   OH222839   2.907   5.730   2.434 -0.4759 -0.0604 -0.9739
  427TIP3    H122840   2.965   5.765   2.501 -1.2557 -0.1065 -0.2598
  427TIP3    H222841   2.910   5.794   2.363 -1.8433  1.4711  0.2787
  428TIP3   OH222842   4.875   5.424   6.688  0.4169  0.3475  0.5056
  428TIP3    H122843   4.929   5.402   6.612  1.5594 -0.5202  1.5366
  428TIP3    H222844   4.834   5.342   6.714 -0.4096  0.7498  0.5128
  429TIP3   OH222845   5.493   5.219   1.414  0.0249  0.2405 -0.4844
  429TIP3    H122846   5.417   5.183   1.368 -0.9939  0.8821  0.6140
  429TIP3    H222847   5.554   5.244   1.345 -0.5154 -0.8224 -1.3671
  430TIP3   OH222848   1.173   5.562   0.372  0.1494 -0.1741  0.2966
  430TIP3    H122849   1.182   5.639   0.429 -1.0405 -0.2866  0.6647
  430TIP3    H222850   1.202   5.489   0.426  0.1559 -0.1386  0.3413
  431TIP3   OH222851   0.155   2.200   0.787 -0.2584 -0.3056 -0.0174
  431TIP3    H122852   0.104   2.246   0.721  0.6614  0.3308 -0.3010
  431TIP3    H222853   0.103   2.209   0.867 -0.0856  1.3130 -0.0478
  432TIP3   OH222854   4.195   6.629   2.034 -0.3746  0.1224  0.2178
  432TIP3    H122855   4.182   6.544   1.993  1.9802 -0.2965  0.2287
  432TIP3    H222856   4.232   6.684   1.964  0.3993  0.4116  0.8422
  433TIP3   OH222857   6.258   6.668   0.318 -0.2701 -0.2057 -0.0074
  433TIP3    H122858   6.239   6.631   0.404 -2.5824  0.9602  0.0460
  433TIP3    H222859   6.177   6.658   0.269 -0.2642  2.5347 -0.7594
  434TIP3   OH222860   6.494   2.290   0.322  0.2663 -0.2588 -0.1066
  434TIP3    H122861   6.513   2.348   0.396  2.5556 -1.2774  0.2063
  434TIP3    H222862   6.495   2.347   0.246 -2.8952  0.9468  0.5964
  435TIP3   OH222863   0.605   2.296   1.154 -0.9288 -0.0951 -0.4942
  435TIP3    H122864   0.666   2.227   1.129 -0.5821  0.6769 -1.8723
  435TIP3    H222865   0.611   2.361   1.083 -1.2237  1.3674  0.7589
  436TIP3   OH222866   5.144   3.706   0.468 -0.7160  0.4112 -0.0579
  436TIP3    H122867   5.147   3.687   0.374  2.8913 -0.1324  0.0249
  436TIP3    H222868   5.110   3.795   0.473 -1.5362  0.2396 -1.8300
  437TIP3   OH222869   3.935   2.546   6.944 -0.2317  0.7492 -0.1691
  437TIP3    H122870   3.869   2.604   6.982  0.6031  0.7047  1.4077
  437TIP3    H222871   4.014   2.561   6.996  0.8760  0.4066 -1.6716
  438TIP3   OH222872   3.767   4.805   8.139  0.3063  0.3828  0.2754
  438TIP3    H122873   3.716   4.884   8.158  0.9033  0.7741  0.2839
  438TIP3    H222874   3.858   4.831   8.153  0.5699 -0.0876 -0.4796
  439TIP3   OH222875   0.631   6.366   0.560 -0.2484  0.3619 -0.4664
  439TIP3    H122876   0.623   6.271   0.552 -0.5990  0.4682 -1.5056
  439TIP3    H222877   0.711   6.387   0.512 -0.5660  0.6625 -0.8735
  440TIP3   OH222878   3.113   4.304   1.479 -0.0288  0.5351 -0.1245
  440TIP3    H122879   3.061   4.346   1.410 -1.2894 -0.2223  0.3172
  440TIP3    H222880   3.161   4.235   1.434 -0.6390  0.2184 -0.3036
  441TIP3   OH222881   5.776   4.388   2.157  0.0304 -0.5835 -0.1077
  441TIP3    H122882   5.754   4.301   2.191 -1.7690 -0.3380 -0.5424
  441TIP3    H222883   5.814   4.434   2.232 -1.9596 -0.7356  1.0731
  442TIP3   OH222884   1.758   3.970   8.500 -0.2670  0.0091 -0.2612
  442TIP3    H122885   1.758   3.993   8.593  0.2415 -0.1209 -0.2270
  442TIP3    H222886   1.670   3.993   8.470 -0.9569 -1.3885  0.5979
  443TIP3   OH222887   6.554   0.664   8.593 -0.3079  0.2220  0.2215
  443TIP3    H122888   6.514   0.662   8.680 -0.6932 -2.8357  0.0881
  443TIP3    H222889   6.647   0.650   8.609 -0.4833 -1.1720  0.1625
  444TIP3   OH222890   4.979   5.673   0.794  0.2640 -0.0006  0.4477
  444TIP3    H122891   5.031   5.679   0.714 -0.0766  1.2679  0.2938
  444TIP3    H222892   4.963   5.764   0.819  0.6166 -0.3835  2.1398
  445TIP3   OH222893   0.718   2.677   0.215 -0.4521 -0.1797  0.1830
  445TIP3    H122894   0.721   2.705   0.123 -0.5900 -0.8160 -0.0211
  445TIP3    H222895   0.781   2.733   0.259  1.7520 -1.7270 -0.8225
  446TIP3   OH222896   4.907   1.523   2.152 -0.5264 -0.0635 -0.1352
  446TIP3    H122897   4.847   1.494   2.084 -0.6990  0.9491 -0.4235
  446TIP3    H222898   4.875   1.610   2.178  0.0252 -0.0771  0.6473
  447TIP3   OH222899   3.602   1.588   1.033  0.1823 -0.6964 -0.2692
  447TIP3    H122900   3.554   1.657   0.987  0.4370  0.2267  0.8122
  447TIP3    H222901   3.545   1.564   1.106  1.8081  1.3419  1.8270
  448TIP3   OH222902   2.030   3.259   7.934  0.6134  0.3682 -0.4867
  448TIP3    H122903   1.951   3.298   7.972 -0.2090 -0.3304 -1.4470
  448TIP3    H222904   2.078   3.225   8.010 -0.1268  0.5592  0.0808
  449TIP3   OH222905   5.722   3.606   0.212 -0.0300 -0.0110 -0.3274
  449TIP3    H122906   5.696   3.526   0.257  1.0314  0.8030  1.8814
  449TIP3    H222907   5.800   3.582   0.163 -0.6788 -0.6999 -1.0513
  450TIP3   OH222908   6.539   2.813   0.520  0.0666  0.6295  0.5110
  450TIP3    H122909   6.530   2.811   0.616  0.1526  2.8151  0.6216
  450TIP3    H222910   6.622   2.860   0.505  0.4324 -0.3440 -0.6450
  451TIP3   OH222911   1.084   1.124   7.017  0.2392  0.2469  0.0189
  451TIP3    H122912   1.132   1.051   6.978 -1.0526  0.0935 -1.3626
  451TIP3    H222913   1.099   1.197   6.958 -1.8326 -0.0162 -0.9222
  452TIP3   OH222914   0.561   1.681   7.610 -0.1476  0.0320 -0.6051
  452TIP3    H122915   0.546   1.701   7.517 -1.8170  0.1113 -0.3471
  452TIP3    H222916   0.530   1.591   7.621  0.3990 -0.1139 -0.1868
  453TIP3   OH222917   6.336   6.203   8.661  0.1985  0.5200 -0.3889
  453TIP3    H122918   6.268   6.268   8.682 -0.4213 -0.1493 -0.3000
  453TIP3    H222919   6.414   6.256   8.643 -0.7826  1.4034 -2.2625
  454TIP3   OH222920   3.632   3.863   1.440  0.7500  0.3051 -0.3154
  454TIP3    H122921   3.591   3.781   1.411  1.9697 -0.1504 -0.8399
  454TIP3    H222922   3.610   3.926   1.373  3.0778 -0.6045 -2.0983
  455TIP3   OH222923   0.584   6.441   8.350  0.1817 -0.1737  0.1205
  455TIP3    H122924   0.651   6.494   8.393  0.2247 -1.1498  1.3244
  455TIP3    H222925   0.632   6.371   8.308  0.2739  1.5037 -2.8264
  456TIP3   OH222926   1.537   2.926   0.047  0.0791  0.0747  0.0072
  456TIP3    H122927   1.489   2.844   0.038 -0.1272  0.0455  1.2167
  456TIP3    H222928   1.490   2.975   0.114  1.4501  0.2454  0.8927
  457TIP3   OH222929   4.512   4.706   7.928  0.3357 -0.3210 -0.2731
  457TIP3    H122930   4.538   4.725   7.838  3.0664 -0.9810  0.2670
  457TIP3    H222931   4.452   4.632   7.922  1.8557 -1.5153 -1.4947
  458TIP3   OH222932   6.056   0.196   2.043 -0.2954  0.3620 -0.4225
  458TIP3    H122933   6.116   0.270   2.043  0.8981 -0.5678  0.5560
  458TIP3    H222934   5.974   0.231   2.078  0.9286  0.7262  2.3311
  459TIP3   OH222935   3.924   2.425   0.686  0.3665 -0.4101 -0.1480
  459TIP3    H122936   3.856   2.492   0.686  1.1355  0.3945  0.6733
  459TIP3    H222937   3.893   2.358   0.747  0.1483 -0.2296 -0.0643
  460TIP3   OH222938   0.606   2.664   2.050  0.4629  0.7570  0.3099
  460TIP3    H122939   0.586   2.581   2.007 -0.2181  0.3435  1.3905
  460TIP3    H222940   0.684   2.696   2.005 -1.0725  1.1058 -2.2882
  461TIP3   OH222941   1.050   0.510   1.473  0.2275  0.0069 -0.6897
  461TIP3    H122942   1.072   0.496   1.565 -1.1306 -1.4023 -0.5316
  461TIP3    H222943   0.998   0.433   1.449 -1.2819  1.3564 -2.0204
  462TIP3   OH222944   0.704   3.180   1.153 -0.1175 -0.2895 -0.4770
  462TIP3    H122945   0.634   3.114   1.157 -0.2762 -0.1875 -1.3732
  462TIP3    H222946   0.658   3.264   1.160  0.0084 -0.2435 -0.1639
  463TIP3   OH222947   6.234   6.169   1.455 -0.3213 -0.4219  0.0283
  463TIP3    H122948   6.307   6.121   1.416 -0.5507 -0.5115 -0.2993
  463TIP3    H222949   6.248   6.163   1.549 -0.0585 -0.6810 -0.0273
  464TIP3   OH222950   1.358   0.936   1.732  0.3076 -0.4375  0.3043
  464TIP3    H122951   1.347   0.941   1.637  1.6834 -1.6619  0.0605
  464TIP3    H222952   1.291   0.996   1.766  0.4213  0.7720 -1.4570
  465TIP3   OH222953   5.406   1.435   1.149  0.4466 -0.1902  0.3347
  465TIP3    H122954   5.485   1.480   1.179  0.3638 -0.5789  1.1666
  465TIP3    H222955   5.433   1.343   1.141 -0.0810 -0.4452  1.2850
  466TIP3   OH222956   2.648   6.709   1.009 -0.2181 -0.0995 -0.0806
  466TIP3    H122957   2.732   6.694   0.966 -0.8099 -1.8670 -0.6811
  466TIP3    H222958   2.610   6.622   1.021 -2.5589  0.7101 -1.0317
  467TIP3   OH222959   5.662   3.979   8.255  0.2778  0.4106  0.4522
  467TIP3    H122960   5.700   4.060   8.289  0.3788  0.3219  0.5531
  467TIP3    H222961   5.570   3.983   8.279 -0.3504  1.7656 -1.8939
  468TIP3   OH222962   3.362   3.122   7.125  0.3954 -0.0072 -0.7431
  468TIP3    H122963   3.307   3.045   7.140  0.7179 -0.2053 -0.5592
  468TIP3    H222964   3.422   3.096   7.055 -0.4788  0.5930 -1.7428
  469TIP3   OH222965   4.604   0.170   7.409 -0.5867 -0.3877 -0.1024
  469TIP3    H122966   4.691   0.164   7.369 -0.3825  0.2222  0.2383
  469TIP3    H222967   4.617   0.223   7.487 -1.4233  0.4915 -0.5334
  470TIP3   OH222968   5.087   2.251   7.654  0.4440 -0.4893 -0.3775
  470TIP3    H122969   5.033   2.328   7.675 -1.7657 -1.8292 -0.8335
  470TIP3    H222970   5.172   2.271   7.694 -1.1653  0.5369  2.9901
  471TIP3   OH222971   1.620   4.846   2.630 -0.2349  0.3909 -0.5769
  471TIP3    H122972   1.614   4.772   2.690 -2.0233  0.0441 -1.1083
  471TIP3    H222973   1.534   4.888   2.636 -0.0241  1.0790 -1.9603
  472TIP3   OH222974   6.596   1.786   7.818 -0.7510 -0.0989 -0.0462
  472TIP3    H122975   6.504   1.784   7.789 -0.9712  0.4044  0.5806
  472TIP3    H222976   6.618   1.694   7.834 -1.3398 -0.1748  0.3671
  473TIP3   OH222977   4.020   3.357   0.762  0.2481  0.1036  0.2085
  473TIP3    H122978   3.997   3.375   0.853 -0.8009 -1.0539  0.2053
  473TIP3    H222979   3.965   3.415   0.711  0.4651  0.3886  0.2983
  474TIP3   OH222980   0.499   2.997   1.134 -0.4761  0.8557 -0.5445
  474TIP3    H122981   0.501   2.918   1.079 -0.5989  1.4504 -1.4131
  474TIP3    H222982   0.483   2.963   1.222  0.4479 -0.1740 -0.7472
  475TIP3   OH222983   0.817   6.374   1.956 -0.0882  0.7264 -0.6967
  475TIP3    H122984   0.877   6.303   1.934  0.9402  1.1247  0.6820
  475TIP3    H222985   0.783   6.403   1.872 -0.3035 -1.1798 -1.3244
  476TIP3   OH222986   4.636   3.513   2.937 -0.3204  0.3675  0.3848
  476TIP3    H122987   4.579   3.588   2.953 -1.4805 -0.0515 -1.5049
  476TIP3    H222988   4.598   3.470   2.861  0.7516 -1.7218  0.9523
  477TIP3   OH222989   3.683   3.755   7.788  0.1191 -0.8967  0.6239
  477TIP3    H122990   3.761   3.716   7.748  0.5525 -1.9763  2.4030
  477TIP3    H222991   3.610   3.702   7.755  0.0381  0.2807 -1.2529
  478TIP3   OH222992   4.283   4.431   8.662 -0.6603 -0.1630  0.7291
  478TIP3    H122993   4.364   4.383   8.681  0.6663  1.9108  0.5427
  478TIP3    H222994   4.277   4.430   8.566 -0.5560  0.1641  0.7193
  479TIP3   OH222995   1.827   2.142   7.559  0.0451 -0.3887 -0.2892
  479TIP3    H122996   1.909   2.105   7.527 -0.7420 -1.5589 -1.0540
  479TIP3    H222997   1.830   2.130   7.654  0.7162 -0.5221 -0.3269
  480TIP3   OH222998   0.503   2.626   8.001  0.1713  0.4743 -0.2961
  480TIP3    H122999   0.552   2.692   7.953  1.0898  0.2930  0.3735
  480TIP3    H223000   0.569   2.569   8.039 -0.5842 -0.3823 -0.2102
  481TIP3   OH223001   4.378   0.020   1.127 -0.0838  0.0715  0.1082
  481TIP3    H123002   4.434  -0.057   1.140  1.0524  1.1594  2.0820
  481TIP3    H223003   4.341   0.038   1.213 -0.8176  1.3794 -0.4517
  482TIP3   OH223004   4.242   2.937   0.182  0.4069  0.0020 -0.5215
  482TIP3    H123005   4.218   2.966   0.270  0.0108 -0.4781 -0.4707
  482TIP3    H223006   4.161   2.906   0.144  0.7177 -0.4794 -0.7945
  483TIP3   OH223007   5.577   0.591   0.637  0.2024 -0.4185  0.6601
  483TIP3    H123008   5.646   0.596   0.571  0.8120 -0.0256  1.3221
  483TIP3    H223009   5.623   0.588   0.720 -0.5992  0.7278  1.1636
  484TIP3   OH223010   3.776   4.004   1.828  0.3447  0.0272  0.1435
  484TIP3    H123011   3.735   4.089   1.846  0.3252  0.2923 -1.0790
  484TIP3    H223012   3.824   3.983   1.908  1.0212  1.5759  0.1697
  485TIP3   OH223013   0.373   6.806   1.678  0.6052 -0.2122  0.0270
  485TIP3    H123014   0.365   6.823   1.584  2.0003  0.4104 -0.0095
  485TIP3    H223015   0.309   6.865   1.718  1.8140  1.4684 -0.4130
  486TIP3   OH223016   4.074   2.837   0.729 -0.1108  0.0953  0.8250
  486TIP3    H123017   4.079   2.925   0.768  1.6257  0.1899  0.4330
  486TIP3    H223018   3.993   2.840   0.677 -0.3526  1.2829  1.2185
  487TIP3   OH223019   5.695   0.434   1.630  0.0823  0.0706 -0.1232
  487TIP3    H123020   5.770   0.389   1.590 -0.9480 -1.1793 -0.7376
  487TIP3    H223021   5.643   0.464   1.555 -1.1612 -1.0785  0.2176
  488TIP3   OH223022   2.806   0.674   7.610  0.1375  0.2524 -0.0109
  488TIP3    H123023   2.788   0.672   7.704 -0.0488 -0.8100 -0.0516
  488TIP3    H223024   2.860   0.596   7.594  0.5183  0.6538 -0.7164
  489TIP3   OH223025   0.674   1.767   0.771  0.2780  0.2656 -0.0391
  489TIP3    H123026   0.581   1.760   0.748 -0.1967 -2.1340  2.2252
  489TIP3    H223027   0.709   1.679   0.757  1.8160  0.7260  0.7378
  490TIP3   OH223028   0.710   4.352   1.729 -0.0045  0.0842 -0.2664
  490TIP3    H123029   0.712   4.380   1.638 -0.4783 -1.0461 -0.6345
  490TIP3    H223030   0.665   4.424   1.774 -0.0309  0.5147 -0.9644
  491TIP3   OH223031   2.780   5.316   7.825  0.5137 -0.4918 -0.0700
  491TIP3    H123032   2.764   5.244   7.763 -0.2382 -1.7533  1.5329
  491TIP3    H223033   2.701   5.370   7.820  0.4967 -0.5337 -0.2763
  492TIP3   OH223034   0.603   5.078   1.274 -0.1986  0.0469  0.2572
  492TIP3    H123035   0.537   5.070   1.344 -0.6392 -0.5158 -0.2126
  492TIP3    H223036   0.637   5.167   1.284  1.2281 -0.6774  2.4664
  493TIP3   OH223037   1.813   2.178   2.677  0.1703 -0.1811 -0.6362
  493TIP3    H123038   1.837   2.127   2.754 -0.1379  0.4288 -0.1308
  493TIP3    H223039   1.738   2.131   2.640 -1.8881  1.3242  1.3625
  494TIP3   OH223040   5.149   5.707   0.593  0.6064 -0.1405 -0.0655
  494TIP3    H123041   5.159   5.620   0.553  1.1599  0.0598 -0.3796
  494TIP3    H223042   5.234   5.749   0.579  0.2699  0.5334 -0.1085
  495TIP3   OH223043   3.713   6.419   2.326 -0.0843  0.2189 -0.0013
  495TIP3    H123044   3.792   6.455   2.287 -0.8095  0.9431 -0.8455
  495TIP3    H223045   3.744   6.351   2.385  1.1225 -0.1293 -0.9936
  496TIP3   OH223046   6.247   5.605   1.167 -0.1367 -0.1294 -0.1881
  496TIP3    H123047   6.254   5.599   1.072  1.4387 -1.0179 -0.0599
  496TIP3    H223048   6.293   5.527   1.199  1.3044  1.2730  1.3304
  497TIP3   OH223049   4.166   2.863   7.239 -0.1184 -0.4930 -0.4233
  497TIP3    H123050   4.076   2.885   7.215  0.0212  0.4107 -0.1601
  497TIP3    H223051   4.157   2.791   7.302 -0.6560 -0.3871 -0.3695
  498TIP3   OH223052   0.911   1.882   0.934 -0.5205 -0.4344 -0.0867
  498TIP3    H123053   0.833   1.868   0.880  0.8377 -2.4551 -1.6933
  498TIP3    H223054   0.906   1.813   1.001 -0.2947 -0.3404  0.0280
  499TIP3   OH223055   5.779   5.300   0.830  0.4725  0.5905  0.3846
  499TIP3    H123056   5.847   5.303   0.763  0.8918  2.6390  0.8319
  499TIP3    H223057   5.823   5.261   0.906  0.6754  0.4749  0.2106
  500TIP3   OH223058   1.368   4.372   8.370  0.1082 -0.3018 -0.1790
  500TIP3    H123059   1.275   4.388   8.389  0.1731 -1.4156  1.2301
  500TIP3    H223060   1.414   4.441   8.418  0.0383 -0.0793 -0.4306
  501TIP3   OH223061   3.890   5.026   7.069  0.2630 -0.0887 -0.6515
  501TIP3    H123062   3.958   5.093   7.059  0.0863  0.3144  0.7151
  501TIP3    H223063   3.876   5.020   7.163 -0.2524 -1.5344 -0.7975
  502TIP3   OH223064   5.244   0.038   1.773  0.2810 -0.3664 -0.5225
  502TIP3    H123065   5.165  -0.014   1.757  0.7682 -1.6287  0.9243
  502TIP3    H223066   5.311  -0.027   1.793  1.2922  0.7717 -0.1403
  503TIP3   OH223067   2.270   1.702   2.343 -0.2004 -0.0464  0.1901
  503TIP3    H123068   2.324   1.736   2.272 -0.8984 -1.7938 -1.2730
  503TIP3    H223069   2.180   1.707   2.309 -0.6780  0.3039  1.4805
  504TIP3   OH223070   4.658   2.418   8.569  0.1359 -0.4389 -0.0511
  504TIP3    H123071   4.741   2.464   8.578  0.0980 -0.1180 -1.1863
  504TIP3    H223072   4.679   2.340   8.518 -0.4427  0.2432 -1.3743
  505TIP3   OH223073   5.966   5.510   0.941 -0.0893 -0.0292  0.1704
  505TIP3    H123074   6.025   5.437   0.957  0.6850  0.4387 -0.5032
  505TIP3    H223075   5.933   5.495   0.852  0.4274  0.6717 -0.1463
  506TIP3   OH223076   2.588   4.555   1.045 -0.2373  0.2010 -0.3533
  506TIP3    H123077   2.649   4.627   1.056 -0.6253  0.3365  1.0931
  506TIP3    H223078   2.633   4.493   0.987  0.6225  0.9865 -0.5428
  507TIP3   OH223079   4.570   5.614   7.823 -0.0920  0.9295  0.5187
  507TIP3    H123080   4.506   5.673   7.862 -0.4339  1.0055 -0.1363
  507TIP3    H223081   4.614   5.572   7.897 -0.9159  0.8528  0.9688
  508TIP3   OH223082   0.583   1.999   0.938  0.8633 -0.0372 -0.9378
  508TIP3    H123083   0.617   1.926   0.887  1.6308 -0.1309 -0.3016
  508TIP3    H223084   0.532   2.051   0.875  1.0959 -0.6028 -1.5992
  509TIP3   OH223085   6.154   6.290   3.116 -0.2909 -0.1448  1.1324
  509TIP3    H123086   6.134   6.205   3.154  0.6131 -0.4422  0.9772
  509TIP3    H223087   6.070   6.323   3.085 -0.7533 -0.6863  1.7809
  510TIP3   OH223088   2.424   2.269   7.600  0.3701  0.4874  0.5550
  510TIP3    H123089   2.469   2.244   7.520  0.6594  0.5903  0.6815
  510TIP3    H223090   2.409   2.187   7.646 -0.4841  0.3476  0.0474
  511TIP3   OH223091   6.198   4.196   8.184  0.4444  0.0188 -0.4381
  511TIP3    H123092   6.143   4.257   8.136  0.8710 -0.3572 -1.4394
  511TIP3    H223093   6.138   4.149   8.242 -0.6150 -1.4541 -2.5650
  512TIP3   OH223094   1.194   4.606   7.022 -0.7195  0.4176 -0.1575
  512TIP3    H123095   1.269   4.553   6.994 -0.3233 -0.2797  2.0362
  512TIP3    H223096   1.125   4.585   6.960 -0.0566 -1.4391 -0.3202
  513TIP3   OH223097   4.548   1.851   8.240 -0.5230  0.0143 -0.3353
  513TIP3    H123098   4.474   1.878   8.294 -1.1000  0.9111 -1.5190
  513TIP3    H223099   4.564   1.926   8.183 -1.1033 -1.5022 -2.6196
  514TIP3   OH223100   4.664   4.004   1.861  0.3714 -0.1538 -0.2458
  514TIP3    H123101   4.640   3.972   1.773  1.5295 -0.3466 -0.5024
  514TIP3    H223102   4.625   3.940   1.920  1.9861 -1.6828 -0.7306
  515TIP3   OH223103   4.773   6.418   7.806  0.3361  0.2831  0.2404
  515TIP3    H123104   4.858   6.445   7.770 -0.0898  2.4188  0.6781
  515TIP3    H223105   4.710   6.436   7.736  0.2611 -1.9568 -0.3489
  516TIP3   OH223106   0.188   2.756   1.887  0.4365  0.2299 -0.2069
  516TIP3    H123107   0.236   2.676   1.864  1.7853  1.2527 -1.0996
  516TIP3    H223108   0.247   2.804   1.946 -0.8520  0.0574  1.3016
  517TIP3   OH223109   5.059   1.236   1.567 -0.3829  0.4385  0.0413
  517TIP3    H123110   5.098   1.210   1.650 -1.8669  0.5638  0.8067
  517TIP3    H223111   5.122   1.208   1.501 -0.4920 -2.3107  1.0016
  518TIP3   OH223112   3.897   4.224   2.031  0.4217  0.0193 -0.1187
  518TIP3    H123113   3.894   4.316   2.004 -1.8597 -0.3260 -1.2057
  518TIP3    H223114   3.963   4.185   1.974  0.5193  0.6981 -0.4880
  519TIP3   OH223115   0.970   5.995   2.083  0.3423  0.2392 -0.4210
  519TIP3    H123116   0.975   5.904   2.052  0.2169 -0.0718  0.4526
  519TIP3    H223117   0.881   6.004   2.115  0.2419  0.7916 -0.8444
  520TIP3   OH223118   5.957   3.682   2.308 -0.5655  0.0797 -0.7607
  520TIP3    H123119   6.017   3.658   2.379 -0.0436 -0.8364 -1.4715
  520TIP3    H223120   5.882   3.722   2.352  0.7647  1.7433  0.1299
  521TIP3   OH223121   4.010   0.885   1.636  0.3155  0.5354  0.1357
  521TIP3    H123122   4.097   0.883   1.597  0.5567 -2.5319  0.5289
  521TIP3    H223123   4.022   0.848   1.724 -1.2188  1.0118  0.5834
  522TIP3   OH223124   0.661   6.152   8.406 -0.3156  0.3420 -0.2876
  522TIP3    H123125   0.677   6.110   8.491 -2.2770  0.5356  0.2293
  522TIP3    H223126   0.567   6.165   8.404 -0.1256  1.7014 -1.8858
  523TIP3   OH223127   3.513   6.064   2.598 -0.4998 -0.1153 -0.1896
  523TIP3    H123128   3.585   6.123   2.577  0.2881 -1.3108 -1.0111
  523TIP3    H223129   3.545   6.012   2.673 -1.1856  0.4707  0.5328
  524TIP3   OH223130   5.030   4.607   1.963 -0.5163 -0.1111  0.0674
  524TIP3    H123131   5.124   4.623   1.972 -0.6857  0.2874  1.4561
  524TIP3    H223132   4.993   4.691   1.937 -0.8383  0.6778  2.7480
  525TIP3   OH223133   5.829   5.710   8.233  0.1845 -0.7924  0.3982
  525TIP3    H123134   5.901   5.773   8.232 -0.0303 -0.5413 -0.7906
  525TIP3    H223135   5.872   5.624   8.229  0.4481 -0.7080  1.1544
  526TIP3   OH223136   6.397   6.059   2.269  0.3683  0.2482 -0.1337
  526TIP3    H123137   6.451   6.052   2.191  1.2310  1.3397  0.3385
  526TIP3    H223138   6.422   6.142   2.309 -1.4001  0.6161  0.3208
  527TIP3   OH223139   6.302   6.113   2.669 -0.3025 -0.0784  0.6242
  527TIP3    H123140   6.271   6.202   2.652  0.4293  0.1046  0.2241
  527TIP3    H223141   6.388   6.109   2.628 -0.3010 -0.9568  0.6912
  528TIP3   OH223142   2.006   4.345   0.263  0.4905 -0.7335 -0.1408
  528TIP3    H123143   2.033   4.415   0.322 -0.8474 -0.3121  0.0137
  528TIP3    H223144   1.935   4.384   0.211  1.3180 -1.2384 -1.7134
  529TIP3   OH223145   5.458   3.395   0.035  0.7502 -0.0381  0.4842
  529TIP3    H123146   5.375   3.371   0.077  0.5465  0.0514  0.1406
  529TIP3    H223147   5.512   3.316   0.043  0.9669  0.2097  1.5234
  530TIP3   OH223148   4.235   4.027   0.898  0.1770  0.4662 -0.1588
  530TIP3    H123149   4.206   4.051   0.985 -0.2975  2.7574 -0.9007
  530TIP3    H223150   4.325   4.060   0.892  1.2317 -2.0915  0.3521
  531TIP3   OH223151   2.975   3.183   2.901 -0.3245  0.3131  0.3020
  531TIP3    H123152   2.893   3.229   2.919 -0.3682  0.4585 -0.2325
  531TIP3    H223153   3.004   3.218   2.817  0.7199  0.8649  0.8748
  532TIP3   OH223154   2.406   4.945   7.402 -0.7589 -0.3779  0.2525
  532TIP3    H123155   2.346   4.904   7.463 -0.4902  1.5494  1.9064
  532TIP3    H223156   2.473   4.986   7.457  1.2435 -1.1645 -1.4589
  533TIP3   OH223157   3.309   4.803   6.881 -0.4359  0.2967 -0.0025
  533TIP3    H123158   3.272   4.784   6.795 -2.0857  1.7741  0.2933
  533TIP3    H223159   3.246   4.766   6.943  0.6367 -0.5886  0.5927
  534TIP3   OH223160   4.917   3.277   0.028  0.0755 -0.0256 -0.2548
  534TIP3    H123161   4.940   3.357  -0.020  2.1692 -0.1245  0.5028
  534TIP3    H223162   4.877   3.309   0.109  0.9850  0.2932  0.0847
  535TIP3   OH223163   4.688   3.048   1.231 -0.3275 -1.0768  0.1358
  535TIP3    H123164   4.725   2.965   1.203  0.3130 -1.1148  1.0472
  535TIP3    H223165   4.755   3.113   1.211 -0.6781 -0.8212 -0.2418
  536TIP3   OH223166   3.665   4.686   8.603  0.4976  0.4547  0.0265
  536TIP3    H123167   3.740   4.745   8.608  0.9958 -0.1816  0.3588
  536TIP3    H223168   3.689   4.613   8.661 -0.1820  0.0279 -0.2179
  537TIP3   OH223169   4.830   0.387   1.376 -0.0540  0.0737 -0.0567
  537TIP3    H123170   4.832   0.338   1.458  0.1645 -0.0755 -0.1503
  537TIP3    H223171   4.862   0.326   1.310 -1.5459 -0.2742 -0.5089
  538TIP3   OH223172   3.299   6.615   1.088  0.4077 -0.4461  0.2182
  538TIP3    H123173   3.210   6.631   1.118  0.3945  0.4723 -0.2757
  538TIP3    H223174   3.339   6.564   1.159  0.1262  0.9525  1.4276
  539TIP3   OH223175   4.383   2.212   8.409  0.3411 -0.0404 -0.5209
  539TIP3    H123176   4.479   2.209   8.405  0.2843 -0.5081 -2.0409
  539TIP3    H223177   4.355   2.183   8.323 -1.1637  1.0758 -0.4354
  540TIP3   OH223178   5.350   4.007   1.493 -0.2456 -0.4065  0.2307
  540TIP3    H123179   5.417   4.056   1.445 -0.8366  0.6475  0.4580
  540TIP3    H223180   5.378   4.012   1.584 -0.5525 -0.0814  0.3097
  541TIP3   OH223181   1.884   4.738   1.121  0.1417 -0.0881  0.1384
  541TIP3    H123182   1.947   4.678   1.081  0.0624 -0.1619  0.1237
  541TIP3    H223183   1.825   4.762   1.050  1.5506  1.8633 -0.4474
  542TIP3   OH223184   0.779   4.032   7.708  0.0571  0.5997 -0.2930
  542TIP3    H123185   0.709   4.038   7.773 -0.1565  1.6578 -0.5979
  542TIP3    H223186   0.859   4.046   7.758 -0.1162  1.5533 -0.2570
  543TIP3   OH223187   0.863   4.773   0.339 -0.2952  1.1190  0.0386
  543TIP3    H123188   0.797   4.728   0.391 -0.2004  0.2791 -0.5582
  543TIP3    H223189   0.915   4.704   0.300 -1.0066  1.6804 -2.0264
  544TIP3   OH223190   3.234   5.988   2.896  0.0660 -0.0351  0.5000
  544TIP3    H123191   3.267   5.908   2.938 -0.6101  0.1950  1.5119
  544TIP3    H223192   3.294   6.056   2.926  0.2126 -0.0420  0.2233
  545TIP3   OH223193   3.636   1.644   0.431  0.7428  0.2583 -0.0623
  545TIP3    H123194   3.721   1.671   0.465  0.6392 -0.0878  0.4706
  545TIP3    H223195   3.614   1.711   0.366  1.5633  0.1758 -0.4291
  546TIP3   OH223196   2.312   3.705   0.023  0.3181  0.1436  0.0223
  546TIP3    H123197   2.233   3.757   0.012  1.1492  1.4905  0.2434
  546TIP3    H223198   2.373   3.740  -0.043  0.2182 -1.9676 -1.2988
  547TIP3   OH223199   1.124   3.445   8.643 -0.8142  0.9791 -0.4842
  547TIP3    H123200   1.090   3.520   8.594 -1.6794 -0.9693 -3.1277
  547TIP3    H223201   1.212   3.431   8.608  0.4404  2.2022  1.8776
  548TIP3   OH223202   5.256   1.938   0.243 -0.3514  0.0527 -0.1605
  548TIP3    H123203   5.305   1.907   0.166 -0.0060 -0.2361  0.1753
  548TIP3    H223204   5.249   1.861   0.299 -1.3488  0.0427 -0.2825
  549TIP3   OH223205   4.270   2.712   0.893 -0.5393 -0.1683  0.4408
  549TIP3    H123206   4.198   2.754   0.848 -1.1944 -1.5196  0.1713
  549TIP3    H223207   4.325   2.677   0.823 -1.0377 -1.4167  0.6490
  550TIP3   OH223208   5.441   5.362   1.068 -0.2168 -0.3185  0.3653
  550TIP3    H123209   5.484   5.436   1.025  0.1311 -2.3157 -3.0994
  550TIP3    H223210   5.348   5.382   1.062 -0.0854  1.0456  2.0456
  551TIP3   OH223211   2.308   4.405   1.868  0.0628  0.0580 -0.0364
  551TIP3    H123212   2.237   4.341   1.864 -0.8884  1.1188 -1.1838
  551TIP3    H223213   2.383   4.356   1.901 -1.3493 -0.9502  1.8600
  552TIP3   OH223214   5.098   4.752   1.167  0.7197  0.4778  0.5562
  552TIP3    H123215   5.127   4.774   1.079 -0.3734  1.1936  0.3599
  552TIP3    H223216   5.125   4.661   1.179 -0.5192 -0.1537 -1.1307
  553TIP3   OH223217   0.188   0.713   2.163 -0.6261  0.0798  0.1587
  553TIP3    H123218   0.203   0.708   2.258  0.5983  1.0043  0.0284
  553TIP3    H223219   0.096   0.688   2.153 -1.0287  0.7924  1.6827
  554TIP3   OH223220   0.230   3.593   7.896 -0.0797  0.0325  0.1316
  554TIP3    H123221   0.159   3.581   7.832  0.5356  0.4877 -0.6602
  554TIP3    H223222   0.307   3.612   7.842  0.4933  0.2509  1.0116
  555TIP3   OH223223   0.895   4.469   7.817 -0.7881  0.1475 -0.5152
  555TIP3    H123224   0.885   4.456   7.723 -0.5397  0.6111 -0.6086
  555TIP3    H223225   0.927   4.559   7.825 -0.3525 -0.0542 -0.0133
  556TIP3   OH223226   6.569   4.965   7.646  0.1653  0.0749 -0.4643
  556TIP3    H123227   6.524   5.049   7.647  0.6433  0.3741 -1.7715
  556TIP3    H223228   6.615   4.964   7.562  1.8219 -0.6184  0.4104
  557TIP3   OH223229   1.224   2.323   1.414 -0.3626  0.1178 -0.1215
  557TIP3    H123230   1.253   2.300   1.326  1.4232 -0.9062  0.6611
  557TIP3    H223231   1.222   2.239   1.461 -3.4802  0.3122  0.2761
  558TIP3   OH223232   5.140   0.677   2.701 -0.0824  0.1081 -0.1749
  558TIP3    H123233   5.154   0.762   2.660  2.0996  1.2658  2.6955
  558TIP3    H223234   5.062   0.689   2.755  0.3791  0.3653  0.4332
  559TIP3   OH223235   6.227   4.001   1.486  0.4219 -0.9805  0.3078
  559TIP3    H123236   6.304   3.947   1.506 -0.2965 -2.3678 -0.5116
  559TIP3    H223237   6.154   3.953   1.523  0.0337  1.0368  2.3373
  560TIP3   OH223238   1.506   6.796   0.694  0.2771 -0.2624 -0.0132
  560TIP3    H123239   1.469   6.820   0.779  0.4913 -0.0951  0.0343
  560TIP3    H223240   1.510   6.701   0.696 -0.7305 -0.3203 -0.2676
  561TIP3   OH223241   6.659   6.269   1.151 -0.1916  0.8057 -0.0943
  561TIP3    H123242   6.629   6.357   1.126  0.6467  0.6785 -1.6844
  561TIP3    H223243   6.693   6.232   1.070 -2.0765 -1.6764  0.1287
  562TIP3   OH223244   4.348   6.588   7.881  0.3411 -0.5791  0.0398
  562TIP3    H123245   4.286   6.539   7.935  0.0767  1.0902  1.3506
  562TIP3    H223246   4.426   6.597   7.936  0.0844  1.1105  0.1933
  563TIP3   OH223247   6.795   2.435   1.260 -0.3585 -0.0037 -0.4540
  563TIP3    H123248   6.732   2.499   1.293 -0.4118 -1.1689  1.9467
  563TIP3    H223249   6.796   2.448   1.166 -1.3767  2.5779 -0.1799
  564TIP3   OH223250   3.974   5.286   1.426  0.7006 -0.0428  0.5798
  564TIP3    H123251   3.893   5.335   1.439  0.4583 -0.2474 -0.1456
  564TIP3    H223252   3.978   5.270   1.332  1.4525 -0.2627  0.6404
  565TIP3   OH223253   1.850   2.544   0.361 -0.2937 -0.7316  0.2690
  565TIP3    H123254   1.927   2.495   0.332 -0.6851 -0.1285 -1.9997
  565TIP3    H223255   1.882   2.600   0.432  0.8397 -2.0063  0.8098
  566TIP3   OH223256   4.956   1.785   0.751  0.2799  0.0407 -0.4159
  566TIP3    H123257   4.964   1.726   0.676 -0.8860  1.5043 -1.7631
  566TIP3    H223258   5.004   1.741   0.821 -0.7622 -2.6440 -1.2495
  567TIP3   OH223259   1.344   1.302   1.520 -0.1133 -0.2572 -0.3521
  567TIP3    H123260   1.393   1.269   1.595  1.0791  0.6400 -0.6946
  567TIP3    H223261   1.404   1.292   1.446 -0.9298 -0.2934 -1.0240
  568TIP3   OH223262   5.727   0.646   2.630  0.3553  0.3392 -0.1188
  568TIP3    H123263   5.787   0.638   2.556  2.4022  1.1184  1.3593
  568TIP3    H223264   5.724   0.559   2.669  1.8491  0.6498  0.7375
  569TIP3   OH223265   2.728   1.808   0.941  0.5855  0.0079  0.1442
  569TIP3    H123266   2.750   1.870   0.871 -0.2118  0.9275  0.6801
  569TIP3    H223267   2.812   1.771   0.967  1.0687  0.7557 -0.2955
  570TIP3   OH223268   1.088   2.846   2.881 -0.6561  0.1298  0.6531
  570TIP3    H123269   1.068   2.861   2.789  1.2806 -1.3289 -0.0902
  570TIP3    H223270   1.004   2.830   2.922 -1.5109  0.2365 -0.9891
  571TIP3   OH223271   3.411   4.603   8.501 -0.2145 -0.2459  0.3750
  571TIP3    H123272   3.463   4.617   8.581 -0.5229  0.5565  0.4391
  571TIP3    H223273   3.376   4.689   8.480 -0.1916 -0.4663 -0.5962
  572TIP3   OH223274   1.619   4.904   7.977 -1.2069 -0.0848 -0.0857
  572TIP3    H123275   1.644   4.909   7.884  0.5239 -1.2077  0.2713
  572TIP3    H223276   1.659   4.823   8.008  0.5199  1.5328  2.2712
  573TIP3   OH223277   4.043   6.871   2.075  0.0849 -0.5759 -0.0573
  573TIP3    H123278   4.047   6.884   1.980  1.9605 -0.4705 -0.0167
  573TIP3    H223279   4.072   6.780   2.088  0.3602 -0.4261  0.4231
  574TIP3   OH223280   4.753   4.900   1.966  0.1749  0.2898  0.6818
  574TIP3    H123281   4.771   4.842   1.891 -1.5626  0.4872  0.0675
  574TIP3    H223282   4.774   4.987   1.935  0.0461  0.3002  0.6201
  575TIP3   OH223283   2.998   3.649   0.261 -0.0970  0.1554  0.1387
  575TIP3    H123284   3.090   3.671   0.245  0.3820 -0.6837  1.5675
  575TIP3    H223285   2.949   3.724   0.228  1.1520  1.0118  0.1724
  576TIP3   OH223286   5.191   1.836   7.360  0.0994  0.2074 -0.0675
  576TIP3    H123287   5.202   1.926   7.389  0.2465 -0.1169  0.9015
  576TIP3    H223288   5.277   1.811   7.325  0.4858 -0.0299  1.0261
  577TIP3   OH223289   5.680   2.757   0.031 -0.1665 -0.2790 -0.3908
  577TIP3    H123290   5.618   2.828   0.013 -0.5219  0.1973  2.1771
  577TIP3    H223291   5.707   2.726  -0.055  0.2246  3.1532 -1.6880
  578TIP3   OH223292   5.885   2.320   1.265 -0.3724 -0.5257 -0.1921
  578TIP3    H123293   5.916   2.231   1.250  0.4930 -0.4196  0.8211
  578TIP3    H223294   5.797   2.322   1.228 -1.6841 -2.7220  2.4678
  579TIP3   OH223295   6.153   1.351   8.325 -0.4902 -0.0394 -0.6247
  579TIP3    H123296   6.136   1.395   8.242  1.5367 -2.4586 -2.4712
  579TIP3    H223297   6.115   1.263   8.315  1.2083 -0.9431  0.3061
  580TIP3   OH223298   2.977   1.924   2.258  0.0175  0.1628 -0.6150
  580TIP3    H123299   3.031   1.865   2.204 -0.0160 -0.4475  0.0063
  580TIP3    H223300   2.974   1.881   2.344  1.2429  1.8106  0.3120
  581TIP3   OH223301   1.693   2.358   7.298  0.2955 -0.0798 -0.7982
  581TIP3    H123302   1.698   2.357   7.393 -0.0807 -0.3191 -0.7797
  581TIP3    H223303   1.601   2.340   7.278  0.2666  0.4526 -1.1946
  582TIP3   OH223304   2.066   5.574   0.372  0.1016 -0.1407  0.0387
  582TIP3    H123305   2.052   5.552   0.465  0.9538  2.1697  0.7684
  582TIP3    H223306   2.042   5.666   0.366  0.8907 -0.0315 -1.8769
  583TIP3   OH223307   2.184   4.645   1.807 -0.1542  0.2444  0.5678
  583TIP3    H123308   2.206   4.569   1.860 -1.7672 -0.3300  0.4600
  583TIP3    H223309   2.267   4.670   1.765  0.7998 -0.2376  2.1080
  584TIP3   OH223310   0.444   4.790   2.242 -0.1912 -0.4125 -0.1562
  584TIP3    H123311   0.441   4.872   2.194 -1.7422 -1.5492 -2.1943
  584TIP3    H223312   0.493   4.810   2.322  0.4955  2.1566 -1.1212
  585TIP3   OH223313   0.138   1.442   2.900 -0.0015 -0.3762  0.2035
  585TIP3    H123314   0.194   1.404   2.968  0.8351 -1.2865 -0.9418
  585TIP3    H223315   0.192   1.509   2.860 -1.3830  1.9990  2.0413
  586TIP3   OH223316   1.166   4.413   3.001  0.2049 -0.5499 -0.0190
  586TIP3    H123317   1.106   4.339   3.008  1.8269 -1.8242  1.0777
  586TIP3    H223318   1.253   4.376   3.018  1.0275  1.6636  1.0476
  587TIP3   OH223319   4.735   0.625   2.956  0.4488  0.6188  0.2301
  587TIP3    H123320   4.781   0.707   2.939 -0.2515  1.2813  1.4108
  587TIP3    H223321   4.673   0.617   2.883  0.6528  1.0338  0.0069
  588TIP3   OH223322   0.464   1.713   8.187 -0.2080 -0.2575 -0.3012
  588TIP3    H123323   0.382   1.763   8.192  0.0979  0.1460  1.1986
  588TIP3    H223324   0.441   1.625   8.216 -0.0185 -0.0212  0.5677
  589TIP3   OH223325   1.635   1.820   0.394  0.1991 -0.0181 -0.0467
  589TIP3    H123326   1.616   1.896   0.448  0.3279 -0.1391  0.1733
  589TIP3    H223327   1.617   1.745   0.451 -4.6248 -0.4003 -1.6688
  590TIP3   OH223328   2.464   2.677   0.484 -0.0569 -0.5488  0.0260
  590TIP3    H123329   2.511   2.753   0.450  0.7227 -1.3205 -0.6877
  590TIP3    H223330   2.502   2.660   0.570  1.9332 -1.9049 -1.0348
  591TIP3   OH223331   2.039   5.691   8.118  0.2396 -0.1283 -0.0953
  591TIP3    H123332   2.060   5.602   8.147 -0.0909 -0.1121  0.1971
  591TIP3    H223333   1.944   5.693   8.115  0.2174  0.4861  0.7480
  592TIP3   OH223334   3.777   0.559   2.462 -0.3196  0.3869  0.4614
  592TIP3    H123335   3.707   0.591   2.519  0.4701  0.0122  1.6906
  592TIP3    H223336   3.857   0.574   2.512  0.4149  0.0922 -0.5903
  593TIP3   OH223337   6.174   5.427   1.858 -0.3931 -0.2835 -0.1919
  593TIP3    H123338   6.235   5.472   1.916 -1.0096  0.5242 -0.1573
  593TIP3    H223339   6.095   5.480   1.859 -1.1594 -1.3773 -0.1385
  594TIP3   OH223340   3.679   0.439   1.519 -0.2234 -0.1217  0.2440
  594TIP3    H123341   3.722   0.436   1.433  0.9226 -0.2133  0.8057
  594TIP3    H223342   3.633   0.523   1.519  0.1573  0.0943 -0.2886
  595TIP3   OH223343   4.843   5.920   1.523 -0.1041  0.0020  0.5446
  595TIP3    H123344   4.768   5.977   1.508 -0.0763 -0.6566 -2.6893
  595TIP3    H223345   4.913   5.979   1.553 -1.2834  0.9059  1.6263
  596TIP3   OH223346   6.485   3.416   6.891 -0.0759 -0.3869 -0.1761
  596TIP3    H123347   6.405   3.461   6.919  0.9254 -0.2760  2.8517
  596TIP3    H223348   6.555   3.480   6.908  1.2707 -2.4765  3.2660
  597TIP3   OH223349   0.660   1.057   1.270 -0.4719 -0.0553  0.3475
  597TIP3    H123350   0.599   1.051   1.343 -1.9840 -0.4249 -0.8806
  597TIP3    H223351   0.612   1.020   1.196  0.9254  0.4927 -0.8848
  598TIP3   OH223352   0.360   6.094   0.543 -0.1029 -0.0095 -0.3533
  598TIP3    H123353   0.445   6.100   0.498  0.3703 -2.6064  0.0266
  598TIP3    H223354   0.381   6.058   0.629 -1.5896 -0.7316 -0.2647
  599TIP3   OH223355   0.696   1.477   8.612 -0.1209  0.9780  0.3837
  599TIP3    H123356   0.734   1.493   8.699 -0.8800  2.0238  0.5379
  599TIP3    H223357   0.772   1.465   8.555  0.4330  1.9486  0.8903
  600TIP3   OH223358   2.489   0.832   8.460  0.5496 -0.2610 -0.0712
  600TIP3    H123359   2.416   0.777   8.489 -0.0756  0.9093  0.6445
  600TIP3    H223360   2.554   0.824   8.531 -0.4187  1.5324  1.0945
  601TIP3   OH223361   2.199   0.253   0.784 -0.0657 -0.3815 -0.0835
  601TIP3    H123362   2.134   0.294   0.841  0.3605 -0.4895  0.4957
  601TIP3    H223363   2.282   0.297   0.806 -0.1608  0.8000 -1.8521
  602TIP3   OH223364   5.108   3.216   8.043  0.1561 -0.1288 -0.1022
  602TIP3    H123365   5.036   3.163   8.009 -0.5474  0.7959 -0.0915
  602TIP3    H223366   5.175   3.212   7.974 -0.7004  0.5848 -1.0141
  603TIP3   OH223367   1.153   5.676   1.227 -0.0593  0.6521 -0.2818
  603TIP3    H123368   1.087   5.743   1.242 -0.5378 -0.4517  3.5493
  603TIP3    H223369   1.107   5.593   1.242  2.0248 -0.1727  2.2765
  604TIP3   OH223370   0.272   5.816   1.001  0.1786  0.6129 -0.1285
  604TIP3    H123371   0.278   5.830   1.096 -1.0468 -0.4227  0.1340
  604TIP3    H223372   0.218   5.888   0.970  1.4677  1.5636 -0.2248
  605TIP3   OH223373   0.359   3.869   1.975  0.0466 -0.1084 -0.5862
  605TIP3    H123374   0.368   3.811   1.899 -0.0461  1.4514 -1.8497
  605TIP3    H223375   0.268   3.899   1.971 -0.3195 -0.9694  0.8887
  606TIP3   OH223376   0.160   0.266   1.671  0.0329 -0.0315  0.0421
  606TIP3    H123377   0.217   0.340   1.651  1.3873  0.4564  4.5320
  606TIP3    H223378   0.092   0.304   1.728  0.0285 -1.9363  1.4117
  607TIP3   OH223379   3.392   2.461   8.259  0.3362  0.3694 -0.1714
  607TIP3    H123380   3.366   2.553   8.258  3.1001  1.2194 -0.1399
  607TIP3    H223381   3.486   2.462   8.243  0.1546 -2.5937 -2.1018
  608TIP3   OH223382   0.981   6.172   1.848  0.5252 -0.4422 -0.0467
  608TIP3    H123383   1.023   6.161   1.762 -0.5192 -1.0941 -0.5055
  608TIP3    H223384   1.031   6.116   1.907  1.5516  0.3898 -0.1180
  609TIP3   OH223385   0.767   4.012   7.158  0.6039  0.4369 -0.8733
  609TIP3    H123386   0.840   3.964   7.198  1.0231 -0.3910 -2.5489
  609TIP3    H223387   0.754   3.971   7.073 -2.9290 -0.5574 -0.0293
  610TIP3   OH223388   4.777   0.596   7.514  0.0471  0.1623 -0.2293
  610TIP3    H123389   4.810   0.686   7.521  1.2464 -0.2525 -0.3745
  610TIP3    H223390   4.841   0.543   7.562 -0.9123 -0.5661  0.2902
  611TIP3   OH223391   3.966   2.891   8.479  0.0840  0.1564  0.5582
  611TIP3    H123392   3.940   2.982   8.494  1.0384  0.2890  1.5608
  611TIP3    H223393   3.925   2.868   8.396  0.3814  1.7143 -0.0600
  612TIP3   OH223394   6.349   4.602   7.256  0.1907 -0.0743  0.2233
  612TIP3    H123395   6.388   4.680   7.294 -2.9163  2.0767 -0.5808
  612TIP3    H223396   6.357   4.614   7.161 -0.1540 -0.8045  0.0894
  613TIP3   OH223397   4.541   3.855   8.131  0.2828 -0.0360  0.2190
  613TIP3    H123398   4.504   3.767   8.134  2.8476 -1.1984  0.6310
  613TIP3    H223399   4.508   3.898   8.210 -0.4515 -0.8548  0.3728
  614TIP3   OH223400   5.512   1.313   2.482  0.1657  0.4454  0.1355
  614TIP3    H123401   5.466   1.380   2.533  2.1234  1.8626  0.1600
  614TIP3    H223402   5.463   1.306   2.401  0.5323  2.8371 -0.3733
  615TIP3   OH223403   2.853   2.639   8.225  0.5131 -0.5952  0.1394
  615TIP3    H123404   2.850   2.567   8.162  0.7960  1.3306 -2.1994
  615TIP3    H223405   2.905   2.707   8.182 -1.2856  1.7464  1.3972
  616TIP3   OH223406   4.379   4.482   2.597 -0.9610 -0.1854 -0.0976
  616TIP3    H123407   4.443   4.549   2.621 -0.4640 -0.1933 -1.3639
  616TIP3    H223408   4.338   4.514   2.517 -2.9324  0.0529  0.9302
  617TIP3   OH223409   0.403   1.820   7.785  0.7526 -0.2442 -0.6108
  617TIP3    H123410   0.476   1.816   7.848 -0.2534 -1.0097  0.5635
  617TIP3    H223411   0.436   1.774   7.708  2.1317  1.0008 -0.8066
  618TIP3   OH223412   5.830   0.998   7.499  0.6687  0.1838  0.1049
  618TIP3    H123413   5.870   0.918   7.466  1.5211  0.8499 -0.5195
  618TIP3    H223414   5.792   1.039   7.422  3.7038  2.3510 -0.4096
  619TIP3   OH223415   0.146   0.764   0.100 -0.0752  0.4228  0.4099
  619TIP3    H123416   0.111   0.814   0.027  0.6376  0.2989 -0.0271
  619TIP3    H223417   0.069   0.725   0.142 -0.5612  1.1976  0.2518
  620TIP3   OH223418   6.667   1.082   0.630  0.4582  0.5498 -0.1037
  620TIP3    H123419   6.675   1.161   0.684 -0.4369  0.7061 -0.1805
  620TIP3    H223420   6.757   1.059   0.608  0.7596  1.2701  0.3242
  621TIP3   OH223421   5.329   6.562   7.907 -0.4436  0.4971  0.2982
  621TIP3    H123422   5.294   6.649   7.890  0.4215  1.0942  1.5021
  621TIP3    H223423   5.403   6.553   7.847  0.8971  1.5259  1.7251
  622TIP3   OH223424   2.690   3.460   7.303 -0.6509  0.3253  0.2651
  622TIP3    H123425   2.756   3.424   7.244 -1.5968  0.5279 -0.9499
  622TIP3    H223426   2.674   3.548   7.270 -1.2140  0.4338  0.8161
  623TIP3   OH223427   3.627   1.960   2.744 -0.1192  0.1696 -0.3610
  623TIP3    H123428   3.657   1.990   2.829 -2.5551  3.8667 -0.6161
  623TIP3    H223429   3.557   1.898   2.764 -1.0073  1.3834  0.3635
  624TIP3   OH223430   6.404   6.400   2.759 -0.2995 -0.0875 -0.4583
  624TIP3    H123431   6.357   6.475   2.796 -0.6657  0.5647 -2.1569
  624TIP3    H223432   6.491   6.435   2.739  0.3444 -0.7905  0.9245
  625TIP3   OH223433   5.129   1.592   8.598  0.2715  0.1882 -0.1844
  625TIP3    H123434   5.046   1.630   8.568 -0.5789 -1.1140  0.4235
  625TIP3    H223435   5.112   1.498   8.603  1.5023 -0.0112  0.8469
  626TIP3   OH223436   0.110   1.178   2.234  0.0844  0.5639 -0.2973
  626TIP3    H123437   0.203   1.164   2.247  0.2243  1.1299 -0.6379
  626TIP3    H223438   0.087   1.121   2.161 -0.0355 -0.2598  0.3739
  627TIP3   OH223439   0.852   2.159   1.658 -0.0667  0.2262  0.4547
  627TIP3    H123440   0.783   2.130   1.719 -1.1587  1.1558 -0.2923
  627TIP3    H223441   0.927   2.104   1.679 -0.5385  0.2427  2.3747
  628TIP3   OH223442   3.308   3.902   7.440  0.0631 -0.2102 -0.3219
  628TIP3    H123443   3.325   3.913   7.347 -1.6890 -0.3421 -0.6904
  628TIP3    H223444   3.276   3.812   7.449 -1.0958  0.2250  0.1675
  629TIP3   OH223445   4.484   1.996   0.864 -0.3692 -0.1424 -0.0387
  629TIP3    H123446   4.555   1.933   0.877  0.5251  0.5633 -1.3710
  629TIP3    H223447   4.406   1.941   0.857  0.0571 -0.9486  1.1063
  630TIP3   OH223448   0.809   6.379   2.239  0.5567  0.3887  0.4572
  630TIP3    H123449   0.794   6.391   2.145 -0.9039  0.5248  0.6934
  630TIP3    H223450   0.903   6.362   2.246  0.3787 -1.7638 -1.2601
  631TIP3   OH223451   2.678   5.190   2.298 -0.0768 -0.1768 -0.2198
  631TIP3    H123452   2.674   5.258   2.365 -3.1166  1.9959 -2.3043
  631TIP3    H223453   2.753   5.215   2.243  0.3489 -0.0184  0.4181
  632TIP3   OH223454   4.567   1.769   2.193  0.0698 -0.2114  0.7565
  632TIP3    H123455   4.537   1.727   2.113  0.0974  1.0285  0.0768
  632TIP3    H223456   4.520   1.723   2.263  0.3752 -1.5926  0.0765
  633TIP3   OH223457   3.033   2.045   7.557  0.3390 -0.1389 -0.6074
  633TIP3    H123458   3.045   2.128   7.603  0.8068 -0.4548 -0.1492
  633TIP3    H223459   3.091   2.051   7.481 -1.7100  1.0994 -2.1849
  634TIP3   OH223460   3.428   3.340   0.036  0.1837 -0.1985 -0.1715
  634TIP3    H123461   3.386   3.408   0.089  0.5142  0.7042 -1.0419
  634TIP3    H223462   3.357   3.278   0.017  0.0645 -0.5732  1.3255
  635TIP3   OH223463   4.248   5.386   1.789  0.3059  0.1761  0.0554
  635TIP3    H123464   4.182   5.377   1.719  0.5009 -1.0552  0.0248
  635TIP3    H223465   4.219   5.464   1.838 -2.1419 -1.2420  1.0479
  636TIP3   OH223466   1.080   4.190   2.060 -0.0226 -0.1630  0.3006
  636TIP3    H123467   1.133   4.269   2.068 -1.8761  1.0916  0.8878
  636TIP3    H223468   1.101   4.155   1.973  0.7083  1.0542 -0.0329
  637TIP3   OH223469   3.689   4.919   2.133  0.5432  0.8500 -0.0108
  637TIP3    H123470   3.740   4.978   2.078  2.6225 -0.7955 -0.0247
  637TIP3    H223471   3.734   4.921   2.218  2.2995 -2.3791 -0.6612
  638TIP3   OH223472   3.182   3.224   8.441  1.1216  0.3316 -0.3726
  638TIP3    H123473   3.216   3.186   8.360  0.3973 -0.0035 -0.5267
  638TIP3    H223474   3.105   3.274   8.414  0.8873  0.2371  0.1019
  639TIP3   OH223475   6.556   6.513   1.227  0.0984 -0.2278  0.2472
  639TIP3    H123476   6.510   6.594   1.203  0.6882 -0.3393 -1.3897
  639TIP3    H223477   6.501   6.474   1.295  0.1244  1.8351  1.5537
  640TIP3   OH223478   4.691   1.546   1.963  0.5537 -0.4036  0.7292
  640TIP3    H123479   4.603   1.510   1.948 -0.1749  1.5133  0.1106
  640TIP3    H223480   4.706   1.605   1.890  2.2346 -0.4182  1.0261
  641TIP3   OH223481   3.375   4.234   8.415  0.1053  0.4615  0.1884
  641TIP3    H123482   3.288   4.255   8.450 -1.0601 -1.7495 -1.1651
  641TIP3    H223483   3.378   4.277   8.330  0.0077 -0.1335 -0.1174
  642TIP3   OH223484   3.789   1.264   0.343 -0.0255  0.2294  0.6767
  642TIP3    H123485   3.742   1.260   0.259 -0.4413  0.9928  0.8695
  642TIP3    H223486   3.864   1.205   0.331 -0.1449  0.2409 -0.1907
  643TIP3   OH223487   6.656   1.480   1.709  0.4618  0.0649 -0.4410
  643TIP3    H123488   6.643   1.534   1.787  1.7818  0.0688 -0.1947
  643TIP3    H223489   6.603   1.402   1.723 -0.3923  0.6859 -0.1765
  644TIP3   OH223490   5.527   4.053   2.303 -0.0032 -0.6889  0.0064
  644TIP3    H123491   5.456   4.116   2.291  1.6861  1.1551 -0.8595
  644TIP3    H223492   5.566   4.078   2.387  2.4387  1.4088 -1.6100
  645TIP3   OH223493   1.771   0.796   1.359  0.2216 -0.5770 -0.1208
  645TIP3    H123494   1.815   0.726   1.407 -0.6545 -0.3972  0.9847
  645TIP3    H223495   1.693   0.754   1.322  0.3219 -0.4574 -0.4689
  646TIP3   OH223496   1.837   5.837   1.515  0.1697 -0.3910  0.0592
  646TIP3    H123497   1.816   5.877   1.431  2.0033  1.1682  0.2788
  646TIP3    H223498   1.761   5.854   1.570 -1.2985 -1.9085 -1.3613
  647TIP3   OH223499   6.117   4.488   7.545  0.0358  0.3523 -0.0002
  647TIP3    H123500   6.206   4.521   7.552  0.0754  0.4922 -1.1171
  647TIP3    H223501   6.075   4.516   7.627  1.0203  0.2275  0.5681
  648TIP3   OH223502   6.539   4.701   2.208  0.0363 -0.4056 -0.3816
  648TIP3    H123503   6.581   4.644   2.145  1.9020 -1.3737  1.6197
  648TIP3    H223504   6.611   4.741   2.257 -1.3013  1.2442  0.3506
  649TIP3   OH223505   1.143   0.533   7.974 -0.0191  0.3598  0.1418
  649TIP3    H123506   1.121   0.509   8.064 -2.6886  0.3072 -0.4304
  649TIP3    H223507   1.127   0.627   7.970  0.6917  0.4744 -0.1475
  650TIP3   OH223508   2.685   5.320   0.961  0.4879 -0.1361  0.1474
  650TIP3    H123509   2.656   5.269   1.037 -0.5076  0.3977  0.1400
  650TIP3    H223510   2.649   5.273   0.885 -1.0164  0.9246  0.1756
  651TIP3   OH223511   4.112   3.111   0.799  0.0860  0.1564  0.5666
  651TIP3    H123512   4.077   3.110   0.888  0.6262  0.2771  0.7878
  651TIP3    H223513   4.082   3.194   0.762  0.6630  0.5572  0.9757
  652TIP3   OH223514   5.841   2.567   8.014 -0.3277  0.8448  0.2048
  652TIP3    H123515   5.884   2.601   8.093  1.2407  0.1179 -0.2962
  652TIP3    H223516   5.911   2.522   7.966 -1.9212 -1.6220 -0.0001
  653TIP3   OH223517   1.159   1.017   8.348 -0.5871 -0.0787  0.2005
  653TIP3    H123518   1.186   0.964   8.422 -1.3034  0.1227  0.6107
  653TIP3    H223519   1.081   1.063   8.378 -0.9123 -0.0287 -0.6922
  654TIP3   OH223520   6.082   2.545   7.062 -0.1319 -0.1463 -0.1099
  654TIP3    H123521   6.172   2.551   7.095 -0.5304 -0.7699  1.1593
  654TIP3    H223522   6.059   2.635   7.040  0.5361  0.1420  0.3145
  655TIP3   OH223523   3.575   5.775   0.293 -0.4356  0.9249  0.7121
  655TIP3    H123524   3.624   5.693   0.302 -1.7657  0.2237  1.8730
  655TIP3    H223525   3.631   5.841   0.335 -0.6799  0.0408  2.4888
  656TIP3   OH223526   0.025   3.061   8.113  0.4416  0.0410  0.4014
  656TIP3    H123527  -0.049   3.058   8.173  0.7047 -1.7472  0.6697
  656TIP3    H223528  -0.015   3.072   8.026 -0.0853 -0.0959  0.6237
  657TIP3   OH223529   4.211   5.099   8.305 -0.6706 -0.2700  0.0243
  657TIP3    H123530   4.271   5.081   8.232 -1.0385 -0.6179 -0.1943
  657TIP3    H223531   4.128   5.122   8.264 -0.4681  1.0509  0.3164
  658TIP3   OH223532   2.137   0.549   0.296  0.1855 -0.0531  0.0543
  658TIP3    H123533   2.116   0.533   0.388 -0.1052  2.1546  0.4228
  658TIP3    H223534   2.230   0.572   0.297  0.3450 -0.6380 -0.3211
  659TIP3   OH223535   4.200   6.702   8.606 -0.7036  0.3321  0.9514
  659TIP3    H123536   4.226   6.662   8.689 -1.2491 -0.2983  0.8273
  659TIP3    H223537   4.151   6.780   8.632  0.8017  1.2397  1.1892
  660TIP3   OH223538   3.690   4.292   8.658 -0.2719  0.5116  0.6483
  660TIP3    H123539   3.643   4.228   8.604 -0.2679 -1.0063  2.3855
  660TIP3    H223540   3.768   4.314   8.606 -0.2804 -0.8684 -0.0049
  661TIP3   OH223541   0.589   3.954   8.069  0.2995 -0.2417  0.1121
  661TIP3    H123542   0.496   3.933   8.081  0.2726 -0.8252 -0.9822
  661TIP3    H223543   0.616   3.902   7.994  0.8395  1.8540 -1.2332
  662TIP3   OH223544   4.371   4.227   1.703 -0.4076 -0.3547  0.2750
  662TIP3    H123545   4.419   4.306   1.680  0.2478 -0.8660 -0.1455
  662TIP3    H223546   4.357   4.182   1.620  0.0931 -1.1564  0.6066
  663TIP3   OH223547   3.402   3.044   8.546  0.0311 -0.1303 -0.2622
  663TIP3    H123548   3.382   2.966   8.495  1.9642 -0.4609 -0.5801
  663TIP3    H223549   3.380   3.117   8.488 -1.7786 -0.3909  0.0364
  664TIP3   OH223550   1.341   1.779   0.333  0.1618  0.0223  0.7092
  664TIP3    H123551   1.381   1.753   0.250  0.1041  0.2995  0.5935
  664TIP3    H223552   1.351   1.874   0.336  1.6892 -0.1445  1.8170
  665TIP3   OH223553   2.566   4.050   2.266 -0.3858 -0.0136  0.9615
  665TIP3    H123554   2.660   4.045   2.285 -0.3687  1.9711  1.6036
  665TIP3    H223555   2.526   4.078   2.348 -1.3416  0.7301  0.2695
  666TIP3   OH223556   1.223   2.630   2.266 -0.2865  0.7020 -0.2436
  666TIP3    H123557   1.174   2.558   2.227  1.0407  0.0200 -0.7231
  666TIP3    H223558   1.307   2.629   2.220  0.7098  0.9280  1.5018
  667TIP3   OH223559   1.687   1.881   8.380  0.0126 -0.5280  0.1367
  667TIP3    H123560   1.675   1.849   8.470  0.9669 -2.2047 -0.2852
  667TIP3    H223561   1.765   1.835   8.349 -0.5913 -0.3438 -1.7371
  668TIP3   OH223562   2.669   0.096   1.547  0.0450  0.2520  0.1117
  668TIP3    H123563   2.759   0.103   1.517 -0.6702  0.9208 -2.0371
  668TIP3    H223564   2.659   0.169   1.609  1.5726 -1.2129  2.2366
  669TIP3   OH223565   5.734   1.150   1.755 -0.9725  0.0950 -0.2946
  669TIP3    H123566   5.773   1.165   1.668 -0.7773 -1.1410 -0.4448
  669TIP3    H223567   5.784   1.207   1.813  0.9934 -1.3007 -0.5153
  670TIP3   OH223568   3.107   3.646   8.434 -0.1681  0.3046 -0.2016
  670TIP3    H123569   3.126   3.587   8.507 -1.1935  1.7650  1.3239
  670TIP3    H223570   3.181   3.706   8.431  0.0538  0.0147 -0.6273
  671TIP3   OH223571   0.231   1.455   2.166  0.0708 -0.2616  0.1291
  671TIP3    H123572   0.308   1.400   2.180 -0.9556 -1.6700  0.5189
  671TIP3    H223573   0.243   1.529   2.225  1.0940 -0.4953  0.2359
  672TIP3   OH223574   4.227   1.705   7.776 -0.3800 -0.7558  0.9463
  672TIP3    H123575   4.262   1.693   7.688 -0.4246 -0.2763  0.8625
  672TIP3    H223576   4.137   1.733   7.762  0.4118  2.1562  1.0558
  673TIP3   OH223577   5.069   2.657   1.178 -0.2086  0.2062  0.4040
  673TIP3    H123578   5.087   2.568   1.209  0.8197  0.6013  1.0029
  673TIP3    H223579   5.153   2.687   1.144 -0.9578  0.3432 -1.4233
  674TIP3   OH223580   5.930   4.069   0.938 -0.2436 -0.1807 -0.5476
  674TIP3    H123581   5.923   4.016   0.858 -0.3745  1.3787 -1.6021
  674TIP3    H223582   5.866   4.139   0.927  0.5258  0.7069  0.4099
  675TIP3   OH223583   6.082   4.449   1.968  0.2523 -0.6576 -0.0590
  675TIP3    H123584   6.032   4.527   1.990 -0.6783 -1.6529  1.5116
  675TIP3    H223585   6.158   4.482   1.920  1.1566  1.4590  2.6035
  676TIP3   OH223586   3.073   1.054   8.354 -0.4034  0.1985  0.0264
  676TIP3    H123587   3.067   1.126   8.291 -0.7081  1.2922  1.2597
  676TIP3    H223588   2.998   0.998   8.335 -0.7090  0.7239 -0.3387
  677TIP3   OH223589   4.771   5.364   8.373  0.0569  0.9012 -0.0832
  677TIP3    H123590   4.714   5.441   8.374 -0.6398  0.3892  0.7057
  677TIP3    H223591   4.860   5.399   8.371 -0.0656  1.8355  3.8458
  678TIP3   OH223592   2.018   3.672   0.445 -0.0010  0.8960  0.3354
  678TIP3    H123593   2.070   3.747   0.417  1.1961 -0.2794 -0.7121
  678TIP3    H223594   2.020   3.612   0.371 -2.3891  0.5345  0.4869
  679TIP3   OH223595   6.469   2.166   0.791  0.5815  0.1102  0.3698
  679TIP3    H123596   6.423   2.082   0.794  1.7432 -0.5524  0.0711
  679TIP3    H223597   6.406   2.226   0.751  0.1720 -0.9148 -0.5746
  680TIP3   OH223598   2.647   5.360   2.513  0.2231  0.5684  0.7490
  680TIP3    H123599   2.635   5.437   2.569 -1.9372 -0.3031  1.5845
  680TIP3    H223600   2.680   5.293   2.572 -3.2905 -0.7441  1.4535
  681TIP3   OH223601   3.937   1.036   1.324  0.3216  0.3530  0.2776
  681TIP3    H123602   3.904   1.076   1.244 -2.0463  0.0503  1.0181
  681TIP3    H223603   3.862   0.985   1.358  2.1419 -1.9550  1.1291
  682TIP3   OH223604   3.445   6.303   0.511  0.2239  0.1702  0.2839
  682TIP3    H123605   3.524   6.308   0.458  0.3282  1.4519  0.5287
  682TIP3    H223606   3.461   6.232   0.572  1.1445  0.3443  0.2562
  683TIP3   OH223607   4.810   1.307   7.553  0.0708 -0.4353  0.1941
  683TIP3    H123608   4.849   1.393   7.541 -0.1635 -0.4819 -1.0054
  683TIP3    H223609   4.859   1.268   7.625  0.1396  0.7160  0.7904
  684TIP3   OH223610   0.295   6.555   2.170  0.2517  0.2526  0.2545
  684TIP3    H123611   0.245   6.633   2.196 -0.4259 -0.2872  0.5798
  684TIP3    H223612   0.339   6.581   2.089  2.0157  1.8166  1.6020
  685TIP3   OH223613   4.043   3.856   7.849 -0.1101 -0.3779 -0.6488
  685TIP3    H123614   3.983   3.910   7.901  0.3935  1.7335 -2.1177
  685TIP3    H223615   3.988   3.817   7.782 -0.2291 -0.4709 -0.4988
  686TIP3   OH223616   2.103   4.236   1.843  0.1487 -0.0293  0.0902
  686TIP3    H123617   2.023   4.287   1.848 -0.9220 -1.6071 -0.0751
  686TIP3    H223618   2.074   4.149   1.815  2.0021 -0.4550 -0.6573
  687TIP3   OH223619   0.349   6.128   8.507 -0.7637  0.2741  0.3662
  687TIP3    H123620   0.361   6.042   8.466  1.5516  0.0687  1.2917
  687TIP3    H223621   0.348   6.109   8.601  0.2825  1.2762  0.5984
  688TIP3   OH223622   1.762   3.162   2.013 -0.1705  0.5474 -0.4779
  688TIP3    H123623   1.824   3.195   1.947 -1.4585  0.9815 -1.5013
  688TIP3    H223624   1.700   3.233   2.026 -0.3840  0.1710  0.6528
  689TIP3   OH223625   5.493   5.610   8.085  0.6103  0.4662  0.2587
  689TIP3    H123626   5.469   5.691   8.130 -0.9865 -0.6853  1.6103
  689TIP3    H223627   5.543   5.639   8.009 -0.0046  2.7301  0.6366
  690TIP3   OH223628   4.194   4.516   0.976 -0.4241  0.7032  0.4785
  690TIP3    H123629   4.229   4.439   1.021 -0.3315  0.0049 -0.7349
  690TIP3    H223630   4.272   4.561   0.941 -0.5783  0.2693 -0.4653
  691TIP3   OH223631   4.428   2.175   7.322  0.2514  0.8794 -0.3193
  691TIP3    H123632   4.446   2.162   7.229 -0.0603 -0.3774 -0.2238
  691TIP3    H223633   4.502   2.226   7.354 -0.7808  3.4548 -1.7147
  692TIP3   OH223634   1.141   3.845   2.885 -0.6022 -0.3178  0.5924
  692TIP3    H123635   1.114   3.923   2.837 -1.6605 -1.0545 -0.0371
  692TIP3    H223636   1.195   3.879   2.957 -0.9783  0.9807  0.2870
  693TIP3   OH223637   6.081   6.362   2.168 -0.0017  0.2382  0.1328
  693TIP3    H123638   6.013   6.381   2.232 -1.1306  0.8884 -1.2056
  693TIP3    H223639   6.056   6.413   2.090  1.4444 -0.3320 -0.7485
  694TIP3   OH223640   6.807   4.735   2.297  0.6995  0.3632  0.2449
  694TIP3    H123641   6.872   4.736   2.367  0.2314  3.3908  0.7684
  694TIP3    H223642   6.845   4.679   2.229  0.9201 -3.1447  2.9888
  695TIP3   OH223643   2.663   1.693   7.835  0.0810  0.9467 -0.2217
  695TIP3    H123644   2.616   1.623   7.881 -0.3163  1.6597  0.4859
  695TIP3    H223645   2.690   1.654   7.752  0.1615 -0.1393  0.3088
  696TIP3   OH223646   4.488   5.307   1.880 -0.2366 -0.5599  0.5118
  696TIP3    H123647   4.400   5.337   1.858  0.3365 -0.3508 -1.7334
  696TIP3    H223648   4.539   5.388   1.891 -0.2543 -0.6811  1.6158
  697TIP3   OH223649   3.698   2.190   8.564 -0.4948 -0.2517  0.1200
  697TIP3    H123650   3.617   2.238   8.547 -1.0473 -0.9483  0.7208
  697TIP3    H223651   3.696   2.172   8.658 -0.3106 -1.4594 -0.0988
  698TIP3   OH223652   0.394   5.173   2.730 -0.2609 -0.0740 -0.6759
  698TIP3    H123653   0.332   5.172   2.803 -1.1968 -2.1571 -1.4146
  698TIP3    H223654   0.469   5.124   2.762 -0.5950 -0.8280 -1.0313
  699TIP3   OH223655   3.908   3.181   6.899  0.0007 -0.3126  0.1595
  699TIP3    H123656   3.962   3.106   6.875  1.4153  0.7448 -0.0512
  699TIP3    H223657   3.820   3.144   6.910  0.8315 -2.1674  1.0335
  700TIP3   OH223658   3.704   0.973   1.503 -0.2003 -0.3145  0.0605
  700TIP3    H123659   3.773   0.969   1.570 -0.0148 -0.8732 -0.1577
  700TIP3    H223660   3.673   0.882   1.496  1.3504 -0.7394 -2.2418
  701TIP3   OH223661   0.229   5.616   2.550 -0.2201 -0.5751 -0.6150
  701TIP3    H123662   0.312   5.640   2.592  0.3640 -4.0987  0.6343
  701TIP3    H223663   0.177   5.696   2.553  1.6367  0.7295  2.4307
  702TIP3   OH223664   0.781   0.965   2.824 -0.0728 -0.3318 -0.0627
  702TIP3    H123665   0.754   1.026   2.892 -0.7098 -0.6362 -0.0326
  702TIP3    H223666   0.867   0.934   2.853  0.0349  0.1710  0.1703
  703TIP3   OH223667   3.775   0.646   7.934 -0.2805 -0.3628  0.1024
  703TIP3    H123668   3.732   0.710   7.879 -0.1084 -1.8013 -1.8151
  703TIP3    H223669   3.708   0.581   7.953 -0.5863  0.5370  2.4130
  704TIP3   OH223670   0.647   5.075   0.074 -0.8360  0.0507  0.2947
  704TIP3    H123671   0.626   5.083  -0.019 -1.4253 -1.0529  0.3113
  704TIP3    H223672   0.597   5.144   0.116  0.3407  1.3248 -0.3138
  705TIP3   OH223673   1.462   6.880   8.158 -0.1009 -0.4564  0.6625
  705TIP3    H123674   1.430   6.790   8.165  1.0682 -0.9201  0.1773
  705TIP3    H223675   1.393   6.926   8.109 -0.5616 -1.1486  0.6478
  706TIP3   OH223676   4.101   2.566   6.731 -0.9009  0.8448  0.7901
  706TIP3    H123677   4.034   2.587   6.795  0.8608 -2.3055  4.0262
  706TIP3    H223678   4.114   2.471   6.739  0.8018  0.5541 -2.9522
  707TIP3   OH223679   3.411   4.021   7.946  0.1582  0.2221 -0.4585
  707TIP3    H123680   3.362   3.970   7.882  0.6299 -0.4740 -0.2650
  707TIP3    H223681   3.473   3.960   7.985 -1.6827 -0.0278  2.3981
  708TIP3   OH223682   2.466   1.757   1.884 -0.9040 -0.0549 -0.5000
  708TIP3    H123683   2.390   1.792   1.837 -1.2228  1.0296  0.7778
  708TIP3    H223684   2.451   1.779   1.975  1.1633  0.5907 -0.2558
  709TIP3   OH223685   5.142   3.712   0.753  0.0057 -0.1022  0.3610
  709TIP3    H123686   5.177   3.702   0.665 -1.1734 -0.6962 -0.0607
  709TIP3    H223687   5.207   3.672   0.810  0.7415  0.2216 -0.2328
  710TIP3   OH223688   5.308   1.243   0.331 -0.3196  0.6265 -0.0186
  710TIP3    H123689   5.313   1.151   0.354 -1.8687  0.7759  1.0393
  710TIP3    H223690   5.223   1.272   0.365 -0.0978  2.3113 -0.7968
  711TIP3   OH223691   5.636   2.445   8.534  0.5076 -0.0275  0.3734
  711TIP3    H123692   5.634   2.531   8.492  2.3038  1.4825  3.0481
  711TIP3    H223693   5.570   2.451   8.603 -0.5648 -1.4879 -0.4664
  712TIP3   OH223694   0.581   1.839   2.213  0.1093 -0.5585  0.0183
  712TIP3    H123695   0.504   1.847   2.157  0.8016 -3.4718 -1.5273
  712TIP3    H223696   0.645   1.899   2.175 -0.8566  0.7970  0.4503
  713TIP3   OH223697   3.240   1.080   0.453  0.7307  0.5902  0.2352
  713TIP3    H123698   3.311   1.123   0.501 -0.4654  1.6258  1.1579
  713TIP3    H223699   3.161   1.122   0.486 -0.2885 -0.2231 -1.0938
  714TIP3   OH223700   3.072   6.337   1.048 -0.1228 -0.3883  0.0758
  714TIP3    H123701   3.014   6.322   0.973 -0.0179  0.4689 -0.1835
  714TIP3    H223702   3.076   6.432   1.057 -0.0370 -0.4827  1.1071
  715TIP3   OH223703   1.501   5.753   0.095 -0.2866 -0.1673  0.1850
  715TIP3    H123704   1.550   5.672   0.107 -1.2309 -1.1565 -1.9544
  715TIP3    H223705   1.549   5.801   0.027 -0.6493  0.2585  0.2198
  716TIP3   OH223706   3.535   4.024   0.791  0.1839 -0.2748  0.2704
  716TIP3    H123707   3.487   4.106   0.786  0.9183  0.1179 -0.5533
  716TIP3    H223708   3.515   3.990   0.879 -0.7038  0.4100  0.3495
  717TIP3   OH223709   3.079   5.233   8.060 -0.1788 -0.3745  0.3819
  717TIP3    H123710   3.079   5.195   8.148  0.9277 -1.3358 -0.0078
  717TIP3    H223711   3.046   5.163   8.004 -0.5159  0.1069 -0.0263
  718TIP3   OH223712   5.231   4.416   1.504  0.5651  0.1162  0.4597
  718TIP3    H123713   5.252   4.423   1.597  1.6081  1.6844  0.1416
  718TIP3    H223714   5.176   4.338   1.498  0.7271 -0.1937  2.3379
  719TIP3   OH223715   4.702   3.890   1.612 -0.4026 -0.5379  0.2031
  719TIP3    H123716   4.773   3.830   1.588 -0.4927 -0.3781 -0.4983
  719TIP3    H223717   4.744   3.976   1.614 -0.6719 -0.3778 -0.6976
  720TIP3   OH223718   0.390   6.795   0.901 -0.3770 -0.3423  0.9752
  720TIP3    H123719   0.429   6.838   0.978  1.2219  0.7221 -0.3521
  720TIP3    H223720   0.449   6.817   0.829 -2.1719 -0.7490 -0.7048
  721TIP3   OH223721   5.879   5.792   1.017  0.3181  0.0039 -0.1020
  721TIP3    H123722   5.791   5.789   1.054  0.0859 -0.0204 -0.6466
  721TIP3    H223723   5.912   5.703   1.026 -0.0509 -0.1937 -0.7047
  722TIP3   OH223724   5.468   5.476   8.566 -0.6776 -0.2406  0.5021
  722TIP3    H123725   5.482   5.507   8.655  1.3041  0.9558 -0.1576
  722TIP3    H223726   5.542   5.510   8.516 -1.8682 -0.6090 -1.6840
  723TIP3   OH223727   0.978   6.573   0.955 -0.7944  0.1009 -0.1875
  723TIP3    H123728   0.896   6.530   0.979 -1.9856  2.1239 -0.4101
  723TIP3    H223729   1.019   6.594   1.039  0.3218 -2.2710 -0.0653
  724TIP3   OH223730   4.373   3.962   8.334 -0.2913  0.2232  0.3195
  724TIP3    H123731   4.372   4.054   8.358  1.0532  0.4127 -0.2943
  724TIP3    H223732   4.381   3.915   8.417  1.3603  0.7596  0.4919
  725TIP3   OH223733   1.927   2.190   6.503 -0.3307 -0.3169 -0.0034
  725TIP3    H123734   1.841   2.174   6.543 -0.4051  0.1785  0.0341
  725TIP3    H223735   1.974   2.107   6.514 -1.3357 -1.0942 -1.3982
  726TIP3   OH223736   0.433   2.166   7.629  0.2756 -0.3198 -0.7818
  726TIP3    H123737   0.425   2.072   7.614  0.5872 -0.4334 -0.2750
  726TIP3    H223738   0.412   2.177   7.722  1.6769 -0.0827 -0.4695
  727TIP3   OH223739   6.662   4.786   1.688  0.0648 -0.2599  0.6419
  727TIP3    H123740   6.639   4.878   1.676  2.2480  0.0979 -1.4974
  727TIP3    H223741   6.616   4.740   1.618  3.2289  0.0765 -1.8451
  728TIP3   OH223742   2.069   2.435   0.018  0.0395  0.0206  0.5655
  728TIP3    H123743   2.138   2.390  -0.031 -0.9014 -0.1011 -0.7031
  728TIP3    H223744   1.998   2.447  -0.045 -0.8519  0.7440  1.6503
  729TIP3   OH223745   2.546   1.844   8.388  0.0317  0.0153 -0.2466
  729TIP3    H123746   2.526   1.778   8.454 -0.6448 -2.0159 -2.3584
  729TIP3    H223747   2.635   1.824   8.360  0.5273  1.2201  0.3446
  730TIP3   OH223748   0.412   1.971   6.814 -0.4222  0.3984 -0.1916
  730TIP3    H123749   0.463   1.897   6.849  1.4436 -0.3395 -3.9927
  730TIP3    H223750   0.321   1.940   6.816 -0.0760 -0.6184  1.3706
  731TIP3   OH223751   5.982   4.784   2.074  0.0351 -0.0922  0.0037
  731TIP3    H123752   5.888   4.796   2.059 -0.4724 -0.9194  2.1644
  731TIP3    H223753   6.013   4.871   2.100  0.2576  0.5624 -2.2324
  732TIP3   OH223754   1.759   3.286   6.650 -0.0887 -0.0781 -0.3003
  732TIP3    H123755   1.784   3.348   6.718  0.8352 -0.6071 -0.1484
  732TIP3    H223756   1.798   3.321   6.570 -1.7252  0.9004 -0.7155
  733TIP3   OH223757   2.343   3.300   7.254 -0.2333 -0.4565  0.2220
  733TIP3    H123758   2.298   3.383   7.237  0.8294 -0.1738 -1.3446
  733TIP3    H223759   2.401   3.318   7.328  1.2562  0.7143 -1.1862
  734TIP3   OH223760   6.599   6.554   0.199  0.0929  0.0315  0.1174
  734TIP3    H123761   6.643   6.484   0.246  1.4356  0.3208 -0.6685
  734TIP3    H223762   6.629   6.546   0.108 -0.3086  1.1627 -0.1437
  735TIP3   OH223763   5.993   2.148   0.146 -0.8227  0.8734 -0.1574
  735TIP3    H123764   6.048   2.196   0.208  0.4459  0.8914 -1.2532
  735TIP3    H223765   5.923   2.211   0.124  0.2491  1.8788 -0.8023
  736TIP3   OH223766   5.590   6.765   0.582 -0.3462  0.7384  0.1907
  736TIP3    H123767   5.637   6.799   0.506 -0.7092  2.2129  0.5931
  736TIP3    H223768   5.573   6.842   0.637 -1.8370  0.0288  0.8007
  737TIP3   OH223769   3.675   3.798   7.246  0.0039 -0.0403  0.1696
  737TIP3    H123770   3.713   3.811   7.333 -0.5392  0.1586  0.3826
  737TIP3    H223771   3.730   3.849   7.188 -0.4405  0.9609  0.5982
  738TIP3   OH223772   1.637   4.769   2.908 -0.2341 -0.2048 -0.0273
  738TIP3    H123773   1.631   4.864   2.915  0.7750 -0.1701  0.4510
  738TIP3    H223774   1.730   4.750   2.913 -0.4649 -1.2703  0.6267
  739TIP3   OH223775   3.582   2.647   7.291 -0.9032 -0.0889  0.2729
  739TIP3    H123776   3.561   2.604   7.209 -0.3186 -0.6646  0.4121
  739TIP3    H223777   3.574   2.741   7.273 -1.0214 -0.2241 -0.3657
  740TIP3   OH223778   0.227   1.139   1.517 -0.2661 -0.0857 -0.6700
  740TIP3    H123779   0.160   1.096   1.463  0.2653 -0.5344 -0.9869
  740TIP3    H223780   0.178   1.186   1.584 -0.8760 -0.8738 -0.5526
  741TIP3   OH223781   4.676   2.132   2.386  0.3024  0.2426  0.1256
  741TIP3    H123782   4.648   2.043   2.404 -0.2251  0.6478  1.4283
  741TIP3    H223783   4.603   2.187   2.417  0.9898  1.1502  0.1850
  742TIP3   OH223784   1.230   4.628   7.303  0.0003  0.2047  0.2066
  742TIP3    H123785   1.150   4.607   7.351 -0.0942 -0.8211 -0.3733
  742TIP3    H223786   1.209   4.609   7.212  1.4636 -1.9831  0.2484
  743TIP3   OH223787   3.614   6.106   0.624 -0.3542  0.0712  0.4890
  743TIP3    H123788   3.691   6.163   0.627  0.2753 -0.4296 -2.4172
  743TIP3    H223789   3.609   6.068   0.711  1.4618  1.6839  1.3793
  744TIP3   OH223790   4.805   3.251   2.654  0.3311 -0.2197 -0.3262
  744TIP3    H123791   4.865   3.177   2.653  0.5383 -0.0463 -0.6420
  744TIP3    H223792   4.861   3.328   2.664 -0.0531 -0.2828  4.4159
  745TIP3   OH223793   0.024   2.791   8.597  0.3943 -0.1196  0.2012
  745TIP3    H123794  -0.064   2.755   8.584 -0.0574  0.7027  0.8921
  745TIP3    H223795   0.010   2.885   8.609  1.1693 -0.1907  2.0097
  746TIP3   OH223796   6.677   2.179   7.302 -0.0482 -0.1351 -0.0167
  746TIP3    H123797   6.655   2.255   7.355  0.4706 -1.3187  2.0033
  746TIP3    H223798   6.600   2.123   7.307  0.3056 -0.6138  0.1671
  747TIP3   OH223799   3.177   2.010   2.724 -0.2664  0.1044  0.3872
  747TIP3    H123800   3.178   1.950   2.798 -1.2460 -2.3282 -1.4102
  747TIP3    H223801   3.100   1.983   2.673  0.9233  0.9333 -2.0241
  748TIP3   OH223802   1.698   1.603   1.264  0.0003 -0.1578  0.1997
  748TIP3    H123803   1.607   1.633   1.268  1.0431  3.5150  0.1265
  748TIP3    H223804   1.718   1.573   1.353 -0.2119  2.9761  1.4224
  749TIP3   OH223805   3.885   5.972   1.389  0.4429 -0.3197  0.2035
  749TIP3    H123806   3.809   5.915   1.392  0.4401 -0.3527 -0.3856
  749TIP3    H223807   3.861   6.041   1.327  1.0723 -0.5918 -0.3547
  750TIP3   OH223808   3.743   0.849   8.458 -0.3761  0.8942 -0.1994
  750TIP3    H123809   3.825   0.885   8.423  1.1073 -2.1261 -0.0875
  750TIP3    H223810   3.710   0.792   8.388 -0.4828 -0.6392  1.0565
  751TIP3   OH223811   2.175   2.948   7.130 -0.4081 -0.0293  0.4621
  751TIP3    H123812   2.145   2.885   7.195  1.1501  0.3424  1.5945
  751TIP3    H223813   2.159   2.905   7.046 -2.2525 -0.6041  1.0644
  752TIP3   OH223814   6.815   6.491   1.343 -0.5921 -0.0806 -0.1000
  752TIP3    H123815   6.843   6.575   1.380  0.6364 -0.0353 -1.0626
  752TIP3    H223816   6.728   6.508   1.308 -1.3407  0.1536  1.7636
  753TIP3   OH223817   0.356   4.063   1.047 -0.5713 -0.2597  0.0918
  753TIP3    H123818   0.433   4.090   0.996  0.7432 -3.2274  0.3190
  753TIP3    H223819   0.290   4.041   0.981  0.7051 -2.8935 -0.4409
  754TIP3   OH223820   4.595   1.737   7.516  0.1049  0.3438 -0.5570
  754TIP3    H123821   4.638   1.672   7.461  0.9492  0.0749  0.3959
  754TIP3    H223822   4.524   1.689   7.558 -0.1062  0.3762 -0.8739
  755TIP3   OH223823   5.390   6.129   7.574 -0.1014 -0.6829 -0.0300
  755TIP3    H123824   5.372   6.037   7.553 -0.5438 -0.2583 -1.5995
  755TIP3    H223825   5.484   6.138   7.562  0.0550 -1.0871  0.8155
  756TIP3   OH223826   2.539   5.526   2.719  0.2149  0.0152 -0.3374
  756TIP3    H123827   2.611   5.588   2.711 -1.0828  1.7150  0.6536
  756TIP3    H223828   2.474   5.570   2.774 -2.5967 -0.5013 -2.9796
  757TIP3   OH223829   6.132   2.112   0.878 -0.0316  0.7341 -0.0924
  757TIP3    H123830   6.092   2.147   0.799 -0.2171  2.1565  0.5956
  757TIP3    H223831   6.066   2.054   0.915 -0.7242  1.5496 -0.0014
  758TIP3   OH223832   3.008   3.172   0.680  0.6005  0.2687  0.4731
  758TIP3    H123833   3.081   3.178   0.620  1.3202 -0.1591  1.2873
  758TIP3    H223834   2.984   3.263   0.699 -1.4159  0.5113 -2.5034
  759TIP3   OH223835   1.149   5.140   0.120  0.5493  0.0039  0.0831
  759TIP3    H123836   1.192   5.126   0.204  0.4537  0.2206  0.1684
  759TIP3    H223837   1.107   5.226   0.128  1.9887  0.8443 -0.7851
  760TIP3   OH223838   0.510   5.441   8.628  0.6862 -0.7846 -0.1908
  760TIP3    H123839   0.448   5.499   8.583 -0.3256 -0.2188  1.8194
  760TIP3    H223840   0.455   5.388   8.686  2.0849 -0.0561  1.8780
  761TIP3   OH223841   6.755   2.237   1.517 -0.4224  0.7066  0.2614
  761TIP3    H123842   6.761   2.253   1.423 -1.3238  0.7617  0.2109
  761TIP3    H223843   6.718   2.317   1.553 -1.8455 -0.0033  0.4256
  762TIP3   OH223844   4.866   6.583   3.244  0.6489 -0.4563  0.3457
  762TIP3    H123845   4.788   6.622   3.204  1.1137  1.2762  1.0364
  762TIP3    H223846   4.866   6.492   3.214 -1.3597 -0.3603 -0.0778
  763TIP3   OH223847   1.952   6.292   7.378 -0.2147  0.8348 -0.3777
  763TIP3    H123848   2.002   6.321   7.454 -0.6170  0.7384 -0.0726
  763TIP3    H223849   1.896   6.367   7.356 -0.7253  0.5585 -0.0410
  764TIP3   OH223850   3.028   2.653   7.758  0.5312  0.0980 -0.0439
  764TIP3    H123851   3.042   2.741   7.723  1.1761  0.2434  0.5792
  764TIP3    H223852   2.945   2.660   7.805  0.1388  0.1427 -0.7223
  765TIP3   OH223853   0.543   3.934   7.484 -0.3785 -0.4707  0.1870
  765TIP3    H123854   0.489   3.941   7.563 -1.4174  0.9308 -0.5911
  765TIP3    H223855   0.496   3.872   7.428  0.2712 -1.3393  0.5959
  766TIP3   OH223856   0.829   5.286   8.031 -0.1821 -0.1621 -0.2972
  766TIP3    H123857   0.860   5.334   7.954  0.1675  0.8524  0.4544
  766TIP3    H223858   0.738   5.263   8.010 -0.2040  0.4126 -0.8661
  767TIP3   OH223859   0.306   6.030   2.689 -0.5548  0.1011 -0.0039
  767TIP3    H123860   0.331   5.956   2.634 -1.3054  0.4185 -0.7897
  767TIP3    H223861   0.301   6.104   2.629  1.5196  1.1278  0.9917
  768TIP3   OH223862   5.310   2.776   1.074  0.1163 -0.3322 -0.1422
  768TIP3    H123863   5.367   2.726   1.132  1.4149 -1.1394 -2.0185
  768TIP3    H223864   5.341   2.755   0.986 -2.5122 -0.0670 -1.2194
  769TIP3   OH223865   2.635   0.628   1.400 -0.1627  0.3205 -0.3716
  769TIP3    H123866   2.663   0.703   1.454  0.9753  0.9832 -1.8122
  769TIP3    H223867   2.691   0.632   1.323 -1.0333 -1.2309 -1.1306
  770TIP3   OH223868   5.454   1.520   0.770 -0.0732 -0.1665  0.4801
  770TIP3    H123869   5.385   1.507   0.704  0.3804 -1.2105  0.1959
  770TIP3    H223870   5.415   1.580   0.833 -0.8754  0.0804 -0.2229
  771TIP3   OH223871   3.714   5.406   1.475  0.1498  0.0778 -0.5335
  771TIP3    H123872   3.698   5.331   1.532  0.0358 -0.3782 -1.1531
  771TIP3    H223873   3.683   5.481   1.525  1.6859 -0.0803  0.7384
  772TIP3   OH223874   1.703   0.265   1.065  0.7104  0.5043 -0.0183
  772TIP3    H123875   1.731   0.301   0.980  0.1666  2.7513  0.6869
  772TIP3    H223876   1.754   0.315   1.129 -0.7047  0.6035  1.0513
  773TIP3   OH223877   4.392   6.582   0.521  0.1672  0.0203  0.1065
  773TIP3    H123878   4.450   6.507   0.509  0.0784  0.0092 -0.2852
  773TIP3    H223879   4.332   6.578   0.446  0.5565  0.8313 -0.2642
  774TIP3   OH223880   6.425   3.962   8.259 -0.1550  0.6744  0.0799
  774TIP3    H123881   6.488   3.994   8.195 -1.6996 -0.6643 -2.2348
  774TIP3    H223882   6.353   4.024   8.256  0.4881  1.5848  1.9065
  775TIP3   OH223883   2.060   4.191   2.594 -0.3785  0.0680  0.0569
  775TIP3    H123884   2.055   4.261   2.659  0.4283  0.7034 -0.5468
  775TIP3    H223885   1.987   4.133   2.616  0.5715 -0.4220  2.3049
  776TIP3   OH223886   5.544   4.726   7.466 -0.1872 -0.6883 -0.4531
  776TIP3    H123887   5.575   4.812   7.439 -1.2070 -0.2217 -0.1613
  776TIP3    H223888   5.537   4.732   7.561 -0.2490 -1.1068 -0.4268
  777TIP3   OH223889   5.967   0.194   0.395  0.1091 -0.4763 -0.1397
  777TIP3    H123890   5.880   0.176   0.358 -0.0284  0.1085 -0.1204
  777TIP3    H223891   6.028   0.175   0.325 -0.1780  1.0138 -0.8378
  778TIP3   OH223892   2.336   0.578   1.315  0.2745  0.3283  0.4096
  778TIP3    H123893   2.357   0.584   1.408 -0.4326  1.4036  0.5213
  778TIP3    H223894   2.308   0.666   1.292 -2.6453 -0.6162 -0.0670
  779TIP3   OH223895   3.278   2.251   0.560 -0.0723 -0.2245 -0.3308
  779TIP3    H123896   3.305   2.283   0.646  0.1736 -1.2741 -0.0084
  779TIP3    H223897   3.293   2.157   0.563 -0.2923 -0.3117 -1.4433
  780TIP3   OH223898   4.474   0.729   8.613 -0.2485  0.5583  0.2824
  780TIP3    H123899   4.408   0.778   8.661 -0.4342  0.9221 -0.3319
  780TIP3    H223900   4.491   0.652   8.667 -0.6898  0.7932  0.7646
  781TIP3   OH223901   2.025   1.865   2.219  0.0104 -0.7821  0.9886
  781TIP3    H123902   1.991   1.953   2.201  0.1071 -0.9220  0.0843
  781TIP3    H223903   2.059   1.835   2.135 -0.0493 -1.6999  1.2843
  782TIP3   OH223904   2.912   1.826   2.917  0.3488 -0.2157  0.2254
  782TIP3    H123905   2.915   1.731   2.916 -0.9324 -0.2719  0.4097
  782TIP3    H223906   3.004   1.853   2.915  0.7160 -1.4411 -0.0990
  783TIP3   OH223907   6.833   2.785   1.674  0.1816 -0.1136 -0.0731
  783TIP3    H123908   6.881   2.762   1.754  0.1490 -0.9036 -0.2671
  783TIP3    H223909   6.742   2.796   1.703  0.2742  0.2129  0.0993
  784TIP3   OH223910   4.386   3.601   8.261 -0.3965  0.1341  0.5085
  784TIP3    H123911   4.340   3.653   8.195  0.0906  0.5356  0.4819
  784TIP3    H223912   4.331   3.608   8.339 -2.5606 -2.7015 -0.5498
  785TIP3   OH223913   1.253   0.463   0.352 -0.0186 -0.1786 -0.1831
  785TIP3    H123914   1.306   0.402   0.300 -0.0381  0.3125 -0.7928
  785TIP3    H223915   1.318   0.517   0.398  0.0238 -1.7788  1.7632
  786TIP3   OH223916   4.428   1.925   8.503 -0.5007 -0.2919 -0.5231
  786TIP3    H123917   4.481   1.928   8.583  0.9579  0.5767 -1.4690
  786TIP3    H223918   4.414   2.017   8.480 -1.2029 -0.5241 -1.0853
  787TIP3   OH223919   3.539   6.477   8.407  0.8170 -0.3513  0.0310
  787TIP3    H123920   3.625   6.517   8.396  1.4611 -1.5248  0.5082
  787TIP3    H223921   3.482   6.547   8.438  1.9574  0.1331  1.0799
  788TIP3   OH223922   2.677   1.810   0.528  0.3136 -0.4305  0.0759
  788TIP3    H123923   2.766   1.792   0.557  0.5351 -4.0261 -2.1682
  788TIP3    H223924   2.688   1.867   0.451  0.3855  1.3856  1.3773
  789TIP3   OH223925   3.325   3.060   0.553  0.4257 -0.4300 -0.4007
  789TIP3    H123926   3.248   3.054   0.497  0.0208  0.9725 -0.0158
  789TIP3    H223927   3.390   3.106   0.500 -0.6778  2.9454  0.9232
  790TIP3   OH223928   5.537   5.901   0.810  0.3043 -0.1668  0.5095
  790TIP3    H123929   5.525   5.939   0.896 -0.3579 -1.3933  0.9848
  790TIP3    H223930   5.508   5.968   0.749 -0.6693  0.1584  1.3060
  791TIP3   OH223931   1.276   0.281   0.788 -0.0213 -0.2919  0.1451
  791TIP3    H123932   1.345   0.279   0.722 -1.1152 -1.0786 -1.0349
  791TIP3    H223933   1.321   0.263   0.871  0.8384 -4.0845 -0.9462
  792TIP3   OH223934   5.426   6.023   2.316 -0.6548 -0.2034  0.5519
  792TIP3    H123935   5.403   5.945   2.367 -0.0470  0.2267  1.5125
  792TIP3    H223936   5.399   6.097   2.371 -2.7050  0.3221 -1.0117
  793TIP3   OH223937   6.589   5.249   0.218 -0.2074  0.1921  0.1137
  793TIP3    H123938   6.554   5.338   0.203  1.1523  0.7052 -0.1872
  793TIP3    H223939   6.511   5.193   0.222 -1.0781  1.3457 -0.0658
  794TIP3   OH223940   2.957   4.486   8.086  0.0627  0.0284 -0.0558
  794TIP3    H123941   2.915   4.569   8.063  0.1787 -0.4164 -2.1463
  794TIP3    H223942   3.032   4.511   8.140  1.3959  1.5869 -2.4047
  795TIP3   OH223943   6.231   0.647   8.645 -0.0821 -0.4817 -0.4067
  795TIP3    H123944   6.252   0.738   8.665  0.4862 -0.3534 -1.5503
  795TIP3    H223945   6.237   0.602   8.729  1.5432  0.1741 -0.1486
  796TIP3   OH223946   5.757   1.985   8.425 -0.0340  0.7614 -0.5911
  796TIP3    H123947   5.841   1.969   8.469 -0.5411 -1.9900 -0.5003
  796TIP3    H223948   5.733   2.074   8.453  1.4510  0.5390  1.7036
  797TIP3   OH223949   0.724   2.519   8.119  0.1950  0.0482  0.1868
  797TIP3    H123950   0.720   2.600   8.170 -1.3995 -0.8479  1.5765
  797TIP3    H223951   0.781   2.462   8.171  2.1652  0.5265 -1.2922
  798TIP3   OH223952   3.014   6.631   8.505 -0.1592 -0.3571  0.4422
  798TIP3    H123953   3.078   6.566   8.479  0.2883 -0.8431  2.5548
  798TIP3    H223954   2.956   6.641   8.429  1.6942 -0.7669 -1.0833
  799TIP3   OH223955   6.297   6.596   6.976  0.5835 -0.2770  0.0609
  799TIP3    H123956   6.264   6.576   6.889 -1.4062  1.4806  0.3520
  799TIP3    H223957   6.340   6.514   7.004  0.8378 -1.0373 -2.3090
  800TIP3   OH223958   1.157   0.903   2.232  0.1439 -0.2184  0.6743
  800TIP3    H123959   1.202   0.921   2.315 -0.5602 -0.7255  1.1808
  800TIP3    H223960   1.065   0.921   2.251  0.1203  0.8436 -0.3598
  801TIP3   OH223961   5.244   6.443   1.883 -0.1923  0.3981 -0.2485
  801TIP3    H123962   5.264   6.523   1.933 -0.0495  0.0979  0.1832
  801TIP3    H223963   5.286   6.457   1.798 -2.9127  2.2231 -1.4610
  802TIP3   OH223964   5.126   2.010   0.633 -0.4451  0.1518  0.0661
  802TIP3    H123965   5.201   1.952   0.624 -2.0661 -1.6795 -3.1890
  802TIP3    H223966   5.056   1.955   0.667 -1.6806  0.3810 -1.9214
  803TIP3   OH223967   6.572   5.745   2.018 -0.0927 -0.5746 -0.0998
  803TIP3    H123968   6.486   5.704   2.004  0.1363 -1.4889  1.0549
  803TIP3    H223969   6.621   5.681   2.069  1.3002 -0.0715 -0.7552
  804TIP3   OH223970   0.865   5.875   0.833 -0.3625 -0.6236  0.5095
  804TIP3    H123971   0.824   5.911   0.912 -0.8727 -0.6259  0.2534
  804TIP3    H223972   0.934   5.937   0.811  0.6878 -1.3051  1.7142
  805TIP3   OH223973   4.603   0.139   2.019 -0.0983  0.0015  0.1584
  805TIP3    H123974   4.520   0.095   2.035 -0.2765  0.6418  1.0902
  805TIP3    H223975   4.669   0.081   2.057 -0.2631  0.1740  0.7199
  806TIP3   OH223976   0.244   0.758   2.411  0.8690 -0.4367 -0.5141
  806TIP3    H123977   0.254   0.853   2.410 -1.2149 -0.1844 -1.0621
  806TIP3    H223978   0.281   0.732   2.496  2.4484  0.6850 -0.7956
  807TIP3   OH223979   6.588   2.050   8.576 -0.7361 -0.3948 -0.2367
  807TIP3    H123980   6.577   2.099   8.657 -1.7540  1.4595 -1.4201
  807TIP3    H223981   6.680   2.027   8.574 -0.6436 -0.2761  1.3129
  808TIP3   OH223982   3.944   2.837   2.306 -0.0851  0.3020  0.5479
  808TIP3    H123983   4.039   2.838   2.303 -0.0419 -1.4001  0.1506
  808TIP3    H223984   3.921   2.889   2.384  1.0653  1.9870 -0.1838
  809TIP3   OH223985   2.082   2.986   7.731 -0.4985  0.4637  1.0543
  809TIP3    H123986   2.106   3.020   7.644 -1.1912 -1.3767  0.0889
  809TIP3    H223987   2.154   3.012   7.788  0.6652  0.4941 -0.3815
  810TIP3   OH223988   2.980   0.461   6.732  0.2245  0.1868 -0.4220
  810TIP3    H123989   2.995   0.409   6.811  0.6996 -2.5210 -2.1694
  810TIP3    H223990   2.891   0.495   6.743  0.6196  0.7179  1.6643
  811TIP3   OH223991   2.821   0.928   8.275  0.4184  0.2647  0.6769
  811TIP3    H123992   2.764   0.868   8.226 -0.3705  0.3605  1.4556
  811TIP3    H223993   2.804   1.014   8.237  0.6261  0.1780  0.3864
  812TIP3   OH223994   0.515   2.480   7.250  0.1111  0.3512 -0.1945
  812TIP3    H123995   0.481   2.504   7.164 -0.0494 -1.0147 -0.5476
  812TIP3    H223996   0.591   2.425   7.230  0.0482 -0.0046  0.5226
  813TIP3   OH223997   6.856   3.126   1.909 -0.0878 -0.2056 -0.1430
  813TIP3    H123998   6.939   3.079   1.916 -0.8126 -1.4135  0.7187
  813TIP3    H223999   6.845   3.167   1.995 -0.1265  0.4163 -0.4380
  814TIP3   OH224000   0.356   4.687   2.617 -0.1948 -0.0208 -0.3701
  814TIP3    H124001   0.444   4.721   2.603 -0.0098  0.5194  1.7903
  814TIP3    H224002   0.365   4.592   2.613  0.4935  0.0341 -0.1303
  815TIP3   OH224003   2.727   5.280   1.857  0.0907  0.4179 -0.2504
  815TIP3    H124004   2.757   5.273   1.948  0.8638  1.7548 -0.3893
  815TIP3    H224005   2.765   5.204   1.813  0.7198  0.4329  0.2619
  816TIP3   OH224006   2.387   0.914   8.016 -0.1400  0.1510 -0.2802
  816TIP3    H124007   2.334   0.843   7.981  1.1142 -1.6971  1.3527
  816TIP3    H224008   2.438   0.874   8.086  3.2643  1.8250 -1.5615
  817TIP3   OH224009   1.307   2.385   0.614 -0.9468 -0.1802 -0.7380
  817TIP3    H124010   1.332   2.293   0.627 -0.4300 -0.0625 -0.8774
  817TIP3    H224011   1.214   2.381   0.592 -1.2100 -0.5777  0.3945
  818TIP3   OH224012   2.926   3.981   1.883  0.5622 -0.2695  0.6748
  818TIP3    H124013   2.985   3.953   1.813 -0.0842 -3.1496  1.1387
  818TIP3    H224014   2.936   4.076   1.887  2.2536 -0.2540 -1.8153
  819TIP3   OH224015   1.228   4.397   7.623  0.5743  0.1890  0.0706
  819TIP3    H124016   1.153   4.419   7.568 -1.6003 -0.3061  2.6181
  819TIP3    H224017   1.249   4.307   7.600  0.5244  0.3888 -0.7894
  820TIP3   OH224018   5.583   5.131   0.033  0.0506  0.9985 -0.3341
  820TIP3    H124019   5.598   5.220  -0.000 -0.7600  0.9053 -1.0091
  820TIP3    H224020   5.489   5.118   0.023  0.2093 -0.0736 -0.6024
  821TIP3   OH224021   5.495   6.017   0.243  0.0070  0.5061  0.0942
  821TIP3    H124022   5.473   5.948   0.181 -2.3768  0.9254  0.3999
  821TIP3    H224023   5.585   6.042   0.220  0.4668 -1.7724 -0.8443
  822TIP3   OH224024   1.123   5.140   1.597  0.2664  0.0516 -0.0789
  822TIP3    H124025   1.029   5.129   1.584  0.4283 -0.0012 -1.2783
  822TIP3    H224026   1.163   5.112   1.515  1.3962 -0.7040  0.6965
  823TIP3   OH224027   4.495   3.313   7.411  0.2336 -0.3301  0.1059
  823TIP3    H124028   4.451   3.229   7.409 -0.5182  0.0487  0.3524
  823TIP3    H224029   4.543   3.314   7.494 -1.0601  0.1138  0.8857
  824TIP3   OH224030   2.838   4.735   7.356  0.5677 -0.2011  0.0119
  824TIP3    H124031   2.908   4.683   7.316 -1.2560 -2.7012 -0.2169
  824TIP3    H224032   2.772   4.743   7.286  0.2612  1.4052  0.4519
  825TIP3   OH224033   5.247   3.114   8.564  0.6523  0.6247 -0.0194
  825TIP3    H124034   5.290   3.192   8.528 -0.0679  1.2023  0.3505
  825TIP3    H224035   5.154   3.135   8.560  0.4779 -0.0469  0.4953
  826TIP3   OH224036   3.421   4.435   1.947  0.2030  0.4180  0.5598
  826TIP3    H124037   3.328   4.448   1.965  0.0661  0.7424 -0.3531
  826TIP3    H224038   3.465   4.505   1.995 -0.0947  0.8028  0.2729
  827TIP3   OH224039   0.031   2.767   8.052  0.5567 -0.1360  0.3053
  827TIP3    H124040   0.077   2.763   7.968  1.0313 -3.4522  0.6067
  827TIP3    H224041   0.086   2.824   8.106 -0.3907  3.1001 -1.8315
  828TIP3   OH224042   3.605   3.305   1.395 -0.2615 -0.6762 -0.2369
  828TIP3    H124043   3.610   3.275   1.486  0.5666  1.1875  0.3662
  828TIP3    H224044   3.520   3.273   1.365 -0.7314 -0.9858  1.3155
  829TIP3   OH224045   5.433   6.436   2.676 -0.3761 -0.0795  0.2449
  829TIP3    H124046   5.477   6.353   2.697  0.9334  0.2369 -1.1266
  829TIP3    H224047   5.445   6.489   2.755 -0.4729 -0.8717  0.8141
  830TIP3   OH224048   3.167   0.919   1.981 -0.0512  0.2889  0.0143
  830TIP3    H124049   3.217   0.858   1.926  1.3849  1.2610  0.1862
  830TIP3    H224050   3.201   1.006   1.958 -1.9621  1.0346 -0.1276
  831TIP3   OH224051   1.146   5.362   1.751  0.0808  0.6904 -0.1500
  831TIP3    H124052   1.103   5.429   1.698  0.2739  1.8669  1.1092
  831TIP3    H224053   1.140   5.282   1.698 -0.9887  1.4771 -1.2960
  832TIP3   OH224054   0.205   6.589   0.911 -0.1894  0.2452  0.7054
  832TIP3    H124055   0.275   6.643   0.874 -1.6696  0.9371 -1.2532
  832TIP3    H224056   0.171   6.539   0.837 -1.4092 -0.5054  1.7256
  833TIP3   OH224057   2.160   4.130   1.466  0.0346 -0.1414 -0.2969
  833TIP3    H124058   2.178   4.177   1.548 -1.8265  1.0084 -0.4902
  833TIP3    H224059   2.186   4.040   1.484  0.4076  0.2496  1.2895
  834TIP3   OH224060   4.675   5.332   8.663 -0.2967 -0.8300  0.6915
  834TIP3    H124061   4.604   5.367   8.608  0.6320  0.0703  0.0202
  834TIP3    H224062   4.733   5.287   8.601  1.5807  1.5157  0.6144
  835TIP3   OH224063   2.126   6.359   2.172  0.7960  0.2105 -0.3754
  835TIP3    H124064   2.207   6.308   2.166  0.5950 -0.0948 -0.5212
  835TIP3    H224065   2.124   6.390   2.263  0.1424 -1.3519  0.1787
  836TIP3   OH224066   4.060   2.344   0.468  0.2924  0.2777 -0.1880
  836TIP3    H124067   4.004   2.366   0.543  0.8144 -0.1520  0.3350
  836TIP3    H224068   4.123   2.417   0.463  0.9995 -0.2682  0.5347
  837TIP3   OH224069   4.846   5.545   1.134 -0.2935 -0.2718 -0.4448
  837TIP3    H124070   4.784   5.564   1.204 -1.0128  2.1527 -1.6346
  837TIP3    H224071   4.792   5.534   1.056  0.6438 -0.2730 -1.1108
  838TIP3   OH224072   4.080   4.963   2.241 -0.1264 -0.1497 -0.9415
  838TIP3    H124073   4.083   5.035   2.178  1.9104 -0.7846 -1.6450
  838TIP3    H224074   4.136   4.895   2.203  0.1081 -1.0715  0.9247
  839TIP3   OH224075   3.830   6.019   8.198  0.2335 -0.0785  0.0694
  839TIP3    H124076   3.897   6.011   8.266  0.8573  2.3761 -0.1805
  839TIP3    H224077   3.792   6.105   8.212 -1.2568 -0.4676 -1.2954
  840TIP3   OH224078   5.590   3.180   8.203 -0.3085 -0.0297  0.5329
  840TIP3    H124079   5.537   3.101   8.211  0.7155 -0.9261 -0.9127
  840TIP3    H224080   5.527   3.249   8.185 -1.1077 -0.8497  0.0688
  841TIP3   OH224081   0.393   6.235   7.860  0.1060 -0.3412  0.3263
  841TIP3    H124082   0.372   6.169   7.794  0.4131 -1.0031  0.8756
  841TIP3    H224083   0.309   6.258   7.900  0.0080 -0.4395  0.1762
  842TIP3   OH224084   2.869   6.118   1.805  0.0131 -0.1716 -0.1538
  842TIP3    H124085   2.952   6.152   1.840  1.0325 -2.9101  0.3501
  842TIP3    H224086   2.824   6.082   1.881 -1.3405  0.6457 -0.5443
  843TIP3   OH224087   2.685   2.148   8.249  0.0079  0.2172 -0.2325
  843TIP3    H124088   2.755   2.088   8.222 -0.3867  0.2697 -1.4621
  843TIP3    H224089   2.622   2.093   8.296  0.7219  0.1177  0.6318
  844TIP3   OH224090   4.437   3.611   0.884 -0.2577 -0.0820 -0.1471
  844TIP3    H124091   4.396   3.651   0.961  0.0576 -0.1969  0.0774
  844TIP3    H224092   4.441   3.682   0.820 -0.4750  0.0258 -0.0426
  845TIP3   OH224093   4.782   1.217   1.587 -0.2056 -0.2243 -0.0204
  845TIP3    H124094   4.766   1.161   1.663 -0.3865 -1.9646 -1.2862
  845TIP3    H224095   4.877   1.217   1.577 -0.2061 -0.3163 -0.0272
  846TIP3   OH224096   3.094   0.812   6.688 -0.4582  0.1935 -0.2458
  846TIP3    H124097   3.031   0.863   6.740  0.3923  1.1947 -0.1659
  846TIP3    H224098   3.040   0.764   6.626 -1.4366 -0.3736  0.9991
  847TIP3   OH224099   3.079   6.596   7.217  0.2604  0.1411 -0.7557
  847TIP3    H124100   3.135   6.568   7.289  1.0563 -0.7923 -1.6959
  847TIP3    H224101   3.121   6.676   7.184 -0.7091  1.1995  0.4547
  848TIP3   OH224102   2.057   1.290   7.499 -0.0220  0.0048  0.0426
  848TIP3    H124103   2.003   1.343   7.441  0.1763 -0.4746 -0.5782
  848TIP3    H224104   2.030   1.200   7.483  0.5628 -0.1949  0.1385
  849TIP3   OH224105   6.823   4.328   8.292  0.1265 -0.8314 -0.0236
  849TIP3    H124106   6.898   4.370   8.334  1.8089 -2.8102 -0.8584
  849TIP3    H224107   6.858   4.295   8.209 -1.8032 -1.4406 -0.6468
  850TIP3   OH224108   4.523   2.339   2.026 -0.2731 -0.5862  0.0441
  850TIP3    H124109   4.599   2.285   2.046  0.4026  0.4472  0.3725
  850TIP3    H224110   4.461   2.280   1.984 -0.1019 -1.9064  1.5731
  851TIP3   OH224111   4.711   4.865   0.487 -0.0934 -0.7635 -0.1387
  851TIP3    H124112   4.624   4.899   0.507  0.4207 -0.2103  1.3353
  851TIP3    H224113   4.702   4.823   0.402 -1.2825  1.1963 -1.0370
  852TIP3   OH224114   1.988   1.707   1.328 -0.4261 -0.2473  0.1876
  852TIP3    H124115   2.002   1.659   1.410  1.5235 -2.1932 -1.1627
  852TIP3    H224116   2.022   1.648   1.260  2.1706  3.0298 -1.6418
  853TIP3   OH224117   1.988   4.551   7.780  0.1999  0.1669 -0.2777
  853TIP3    H124118   2.081   4.560   7.760  0.4839  1.9941  1.4970
  853TIP3    H224119   1.959   4.640   7.800 -1.1705 -0.7386  2.1937
  854TIP3   OH224120   6.457   3.803   2.887 -0.4617  0.4740 -0.3829
  854TIP3    H124121   6.543   3.847   2.885 -0.4929  0.5198 -2.1111
  854TIP3    H224122   6.394   3.874   2.875 -0.7252  0.3742  0.3690
  855TIP3   OH224123   5.691   2.256   7.455  0.4527 -0.0292  0.0433
  855TIP3    H124124   5.766   2.302   7.417 -1.3081  1.6698 -1.6043
  855TIP3    H224125   5.701   2.166   7.424  1.9016  0.1091  0.0226
  856TIP3   OH224126   6.879   4.924   2.999  0.5404  0.4831 -0.4202
  856TIP3    H124127   6.866   4.844   3.050  0.7623 -0.0294 -1.1659
  856TIP3    H224128   6.889   4.992   3.065 -0.4105  0.0293  0.2249
  857TIP3   OH224129   3.402   5.775   8.454 -0.2961 -0.7845 -0.0424
  857TIP3    H124130   3.365   5.851   8.501  0.8727 -0.6217  0.6508
  857TIP3    H224131   3.352   5.771   8.373  1.2065  2.2812 -1.3118
  858TIP3   OH224132   2.871   5.553   1.511 -0.2847  0.5768 -0.2485
  858TIP3    H124133   2.846   5.562   1.603 -1.3122  1.4187 -0.5944
  858TIP3    H224134   2.926   5.630   1.494  2.5325 -1.1421  0.4494
  859TIP3   OH224135   4.975   1.651   1.171 -0.5879  0.2375  0.1707
  859TIP3    H124136   5.048   1.632   1.112  0.4466 -1.7220  1.9576
  859TIP3    H224137   4.999   1.609   1.254 -3.0233  0.9158  1.3202
  860TIP3   OH224138   6.505   5.926   3.254  0.0434  0.2378 -0.0894
  860TIP3    H124139   6.590   5.954   3.222 -0.0430  0.1487 -0.3931
  860TIP3    H224140   6.508   5.943   3.348  0.8593 -0.8983  0.1153
  861TIP3   OH224141   4.040   0.769   0.232  0.2861  0.1509 -0.2917
  861TIP3    H124142   3.955   0.733   0.206 -0.1422  1.7162 -1.1898
  861TIP3    H224143   4.060   0.725   0.315 -0.8589 -1.0554 -0.6194
  862TIP3   OH224144   4.361   2.022   0.355 -0.1287  0.0157  0.2469
  862TIP3    H124145   4.453   2.045   0.364 -0.0767 -0.3841  0.8136
  862TIP3    H224146   4.329   2.077   0.284  0.6507 -0.1482 -0.2469
  863TIP3   OH224147   6.596   6.592   7.872  0.3583 -0.7137 -0.1554
  863TIP3    H124148   6.563   6.522   7.928 -0.2925 -0.2094  0.1044
  863TIP3    H224149   6.573   6.565   7.783  0.2533 -0.9068 -0.0707
  864TIP3   OH224150   2.804   4.247   2.406 -0.3855  0.2758 -0.3865
  864TIP3    H124151   2.755   4.327   2.424 -1.3725 -0.6242  1.1090
  864TIP3    H224152   2.830   4.215   2.492  0.3981 -0.7772 -0.9928
  865TIP3   OH224153   2.730   0.894   8.604  0.4324  0.1774 -0.3506
  865TIP3    H124154   2.791   0.957   8.643  0.1451  0.1624  0.1350
  865TIP3    H224155   2.654   0.946   8.579 -0.7953 -0.2504  2.1376
  866TIP3   OH224156   1.763   2.828   8.223 -0.1393  0.4799 -0.2456
  866TIP3    H124157   1.711   2.748   8.229  1.1757 -0.5507 -1.7557
  866TIP3    H224158   1.802   2.838   8.310  1.2490 -1.6718 -0.5510
  867TIP3   OH224159   1.707   6.479   1.531  0.6444 -0.2105  0.1599
  867TIP3    H124160   1.800   6.501   1.526  0.2708  1.4188 -0.0856
  867TIP3    H224161   1.705   6.393   1.573  2.1677  0.5594  1.9391
  868TIP3   OH224162   6.246   5.977   8.349  0.1107 -0.2683 -0.6090
  868TIP3    H124163   6.313   5.947   8.287  1.3397  0.8268  0.1311
  868TIP3    H224164   6.206   6.052   8.305  1.0596  0.5786 -0.0778
  869TIP3   OH224165   5.790   2.343   0.197 -0.2539  0.1051  0.4944
  869TIP3    H124166   5.696   2.356   0.190 -0.4881 -0.1907  2.4506
  869TIP3    H224167   5.829   2.424   0.164 -1.0603 -0.6213 -2.4955
  870TIP3   OH224168   1.990   2.308   1.081 -0.1361 -0.1482  0.4329
  870TIP3    H124169   1.978   2.352   0.997 -0.1648 -0.2935  0.3616
  870TIP3    H224170   1.906   2.266   1.098 -1.1998  2.3447  1.9710
  871TIP3   OH224171   2.267   1.641   0.397 -0.5071  0.1405 -0.5260
  871TIP3    H124172   2.315   1.680   0.325  0.4425 -0.0013  0.0164
  871TIP3    H224173   2.180   1.680   0.392 -0.4331  0.1782 -1.7005
  872TIP3   OH224174   5.197   5.997   1.484  0.2579 -0.4456  0.3624
  872TIP3    H124175   5.231   6.059   1.549 -0.7896  0.1369  0.3761
  872TIP3    H224176   5.275   5.963   1.441  0.9497 -0.3884  1.5040
  873TIP3   OH224177   6.629   5.903   2.954 -0.0914  0.2005 -0.8052
  873TIP3    H124178   6.617   5.810   2.972 -0.9657  0.3077 -0.7641
  873TIP3    H224179   6.661   5.940   3.036  2.3267 -0.3953 -1.4152
  874TIP3   OH224180   0.847   1.463   8.391 -0.3803  0.6340  0.2448
  874TIP3    H124181   0.790   1.539   8.404 -0.9275  0.3502 -0.4221
  874TIP3    H224182   0.910   1.491   8.325 -0.1881  0.7136  0.4615
  875TIP3   OH224183   2.613   6.106   0.317  0.6722  0.2083  0.0803
  875TIP3    H124184   2.574   6.102   0.229  1.9464 -0.2305 -0.4937
  875TIP3    H224185   2.601   6.197   0.344 -0.2561  0.2062 -0.2955
  876TIP3   OH224186   1.861   3.717   8.460 -0.0757 -0.3611 -0.0758
  876TIP3    H124187   1.845   3.811   8.457  0.8124 -0.2264 -1.5799
  876TIP3    H224188   1.848   3.693   8.552 -2.2648  0.8552 -0.0012
  877TIP3   OH224189   2.048   5.794   1.821  0.2109 -0.7695 -0.4638
  877TIP3    H124190   2.073   5.848   1.746  2.6127 -2.2891 -0.8596
  877TIP3    H224191   2.014   5.856   1.885  0.3662  0.8620 -1.8833
  878TIP3   OH224192   1.561   0.536   1.318 -0.0095 -0.0517 -0.2818
  878TIP3    H124193   1.500   0.609   1.331  0.0134 -0.1450  0.3660
  878TIP3    H224194   1.607   0.558   1.237  0.4475  0.9777  0.2349
  879TIP3   OH224195   3.525   4.061   0.165 -0.1528 -0.5051  0.0127
  879TIP3    H124196   3.441   4.026   0.196 -0.5976 -0.4542 -1.0950
  879TIP3    H224197   3.508   4.089   0.076  1.4672 -2.0583 -0.8540
  880TIP3   OH224198   6.843   3.980   0.717 -0.1772  0.5310  0.2781
  880TIP3    H124199   6.818   3.897   0.675  1.6370 -0.0725  0.2857
  880TIP3    H224200   6.832   4.046   0.649 -1.5264  0.2897  0.2320
  881TIP3   OH224201   5.962   5.287   1.775  0.1310 -0.5486  0.0294
  881TIP3    H124202   5.923   5.363   1.730 -1.1054 -0.4451  1.2153
  881TIP3    H224203   6.052   5.313   1.791 -0.1942  0.5657  0.1544
  882TIP3   OH224204   1.600   3.950   2.449 -0.2277 -0.0899  0.4203
  882TIP3    H124205   1.616   3.955   2.355  0.7032 -0.9073  0.5091
  882TIP3    H224206   1.592   4.041   2.477  2.2176  0.3512 -0.0468
  883TIP3   OH224207   2.010   4.529   3.052  0.0488 -0.3631  0.1461
  883TIP3    H124208   1.968   4.478   3.121 -1.1890 -1.0398 -1.0524
  883TIP3    H224209   2.074   4.469   3.013 -0.5709 -0.6260 -0.4889
  884TIP3   OH224210   2.479   5.167   1.888 -0.0002  0.0589 -0.1676
  884TIP3    H124211   2.493   5.072   1.882  0.9691  0.0078  1.8030
  884TIP3    H224212   2.565   5.205   1.876 -0.7471  0.9526 -3.5401
  885TIP3   OH224213   6.238   4.755   0.229 -0.3183 -0.3329  0.2260
  885TIP3    H124214   6.164   4.726   0.283 -0.5088 -1.7045 -0.7126
  885TIP3    H224215   6.202   4.765   0.141 -0.0615  2.1144  0.3403
  886TIP3   OH224216   1.162   5.840   8.457  0.2367 -0.3926 -0.0169
  886TIP3    H124217   1.171   5.776   8.527  1.0242  0.8285  1.0552
  886TIP3    H224218   1.072   5.831   8.427  0.7454 -3.0966 -1.0397
  887TIP3   OH224219   1.972   3.224   7.347 -0.5155 -0.1036  0.2631
  887TIP3    H124220   2.024   3.263   7.277 -0.1919  0.4475  0.8033
  887TIP3    H224221   1.895   3.280   7.354 -1.8072 -1.5691 -1.3215
  888TIP3   OH224222   0.706   6.685   7.649  0.2512 -0.2423  0.3670
  888TIP3    H124223   0.775   6.622   7.627  0.7998  0.6788 -0.6552
  888TIP3    H224224   0.707   6.748   7.577 -1.7294 -0.2408  0.2924
  889TIP3   OH224225   0.783   5.861   2.652 -0.2666  0.1463 -0.0280
  889TIP3    H124226   0.861   5.808   2.666 -0.3557  0.3155  1.1338
  889TIP3    H224227   0.724   5.837   2.723 -1.0732  0.4019 -0.5939
  890TIP3   OH224228   0.356   1.320   7.983 -0.5515 -0.3921  0.1164
  890TIP3    H124229   0.407   1.344   8.061  0.3603 -0.9518 -0.2817
  890TIP3    H224230   0.273   1.366   7.993  0.7819  2.2531 -0.2387
  891TIP3   OH224231   2.500   3.751   8.477 -0.0025 -0.1242 -0.3223
  891TIP3    H124232   2.538   3.834   8.447 -0.0263  0.5628  1.4413
  891TIP3    H224233   2.448   3.720   8.403  0.9117  0.8636 -1.4086
  892TIP3   OH224234   4.036   6.143   1.631 -0.6719  0.1116  1.0865
  892TIP3    H124235   4.111   6.118   1.578 -1.0359 -1.7740  1.3684
  892TIP3    H224236   3.965   6.156   1.568 -0.8983 -1.3264  1.0037
  893TIP3   OH224237   2.054   1.862   0.013  0.1374 -0.1506  0.0638
  893TIP3    H124238   2.066   1.779  -0.033 -0.4401 -0.4596  0.4631
  893TIP3    H224239   1.960   1.870   0.024  0.2286  0.2473  0.5921
  894TIP3   OH224240   3.096   4.782   7.073  0.0696 -0.0776  0.0578
  894TIP3    H124241   3.129   4.814   7.157  1.7951  0.5026 -0.7959
  894TIP3    H224242   3.055   4.698   7.094 -0.2610  0.4265  1.5924
  895TIP3   OH224243   4.585   3.414   2.646  0.5550  0.2705 -0.1290
  895TIP3    H124244   4.662   3.357   2.641  0.0578 -0.4736  0.4437
  895TIP3    H224245   4.529   3.385   2.575  1.1784  1.4114 -1.1151
  896TIP3   OH224246   3.625   3.314   7.073  0.1618 -0.3065  0.3667
  896TIP3    H124247   3.564   3.376   7.033  0.8310  0.0511 -0.1245
  896TIP3    H224248   3.609   3.231   7.027  2.4697  0.6063 -2.3432
  897TIP3   OH224249   0.154   2.068   8.041 -0.2227 -0.3380  0.5040
  897TIP3    H124250   0.074   2.109   8.008 -0.2018 -0.5408  0.1934
  897TIP3    H224251   0.131   2.039   8.129  0.3728  2.1266  1.5360
  898TIP3   OH224252   4.887   4.389   1.849 -0.0775  1.1143  0.3844
  898TIP3    H124253   4.922   4.462   1.899 -0.5027  0.6672  1.3620
  898TIP3    H224254   4.826   4.346   1.908 -0.3197  0.3444 -0.3941
  899TIP3   OH224255   4.307   3.347   0.824 -0.1854 -0.0728  0.1461
  899TIP3    H124256   4.368   3.414   0.855  0.8814 -1.2580  0.7257
  899TIP3    H224257   4.224   3.393   0.813  1.0335  1.8649 -1.8069
  900TIP3   OH224258   1.912   1.565   8.310 -0.5284  0.0075 -0.2245
  900TIP3    H124259   1.845   1.497   8.299  0.3015 -0.6624 -1.5048
  900TIP3    H224260   1.909   1.614   8.228  0.7537 -0.2618 -0.4663
  901TIP3   OH224261   6.764   1.102   2.901 -0.4543 -0.1226  0.3228
  901TIP3    H124262   6.797   1.168   2.839  0.4651 -1.6805 -0.9231
  901TIP3    H224263   6.685   1.067   2.860 -0.0199 -0.9371  0.1558
  902TIP3   OH224264   5.334   2.732   7.104  0.7312 -0.3413 -0.0978
  902TIP3    H124265   5.285   2.687   7.173 -2.6560  3.8925  0.7479
  902TIP3    H224266   5.343   2.667   7.035 -3.0522 -2.6201  1.2114
  903TIP3   OH224267   5.370   6.713   0.207  0.5264 -0.1532  0.6767
  903TIP3    H124268   5.434   6.680   0.271  0.0901 -0.5165  0.9296
  903TIP3    H224269   5.376   6.809   0.216  0.6228 -0.1946  1.1189
  904TIP3   OH224270   1.215   0.474   2.640 -0.1526 -0.3654  0.1189
  904TIP3    H124271   1.189   0.387   2.672 -1.8044 -0.0525 -0.2666
  904TIP3    H224272   1.134   0.525   2.643  0.4112  0.6590 -1.2686
  905TIP3   OH224273   5.084   4.410   8.137  0.4540 -0.0897 -0.4579
  905TIP3    H124274   5.068   4.407   8.231  1.3818 -1.2663 -0.3154
  905TIP3    H224275   5.131   4.492   8.123 -1.1765  0.9535 -0.1804
  906TIP3   OH224276   2.209   4.628   2.300  0.0705 -0.3942  0.1400
  906TIP3    H124277   2.226   4.722   2.292  1.6885 -0.5695  1.0944
  906TIP3    H224278   2.281   4.586   2.253 -1.0560 -1.1744 -0.9418
  907TIP3   OH224279   1.058   5.516   0.659 -0.4370  0.0761 -0.2087
  907TIP3    H124280   1.051   5.586   0.724 -0.7448  1.7511 -1.9683
  907TIP3    H224281   1.152   5.501   0.649 -0.3828 -0.0816  0.4693
  908TIP3   OH224282   1.629   1.375   6.904 -0.2550  0.0797  0.1812
  908TIP3    H124283   1.624   1.389   6.810 -2.4638  1.5902  0.4618
  908TIP3    H224284   1.538   1.374   6.934  0.3741 -0.6334  2.2773
  909TIP3   OH224285   3.454   2.943   1.553 -0.3006 -0.1945  0.3237
  909TIP3    H124286   3.458   3.022   1.606  4.0971 -0.4089  0.6913
  909TIP3    H224287   3.419   2.973   1.469  0.9017  2.1664  0.5587
  910TIP3   OH224288   1.344   4.799   0.235 -0.5647  0.1640 -0.8492
  910TIP3    H124289   1.333   4.821   0.142 -1.0504 -1.0761 -1.1075
  910TIP3    H224290   1.364   4.882   0.277  2.7106  0.3480 -2.4981
  911TIP3   OH224291   5.021   4.187   7.492 -0.2722  0.0121  0.7281
  911TIP3    H124292   5.083   4.154   7.427 -0.0667 -0.6941  1.2810
  911TIP3    H224293   5.058   4.162   7.576 -1.7382 -1.2373  1.0505
  912TIP3   OH224294   4.300   6.381   1.597  0.3458 -0.0406  0.4122
  912TIP3    H124295   4.348   6.411   1.674  0.6004 -0.3563  0.3829
  912TIP3    H224296   4.210   6.368   1.627  0.1565  1.0683  0.3380
  913TIP3   OH224297   6.321   5.609   2.034  0.0250 -0.4192  0.3541
  913TIP3    H124298   6.294   5.544   2.100 -0.5050 -0.3766  0.1786
  913TIP3    H224299   6.293   5.693   2.070 -3.0982 -0.6348 -1.2967
  914TIP3   OH224300   3.206   3.664   0.748 -0.0105  0.8276 -0.0255
  914TIP3    H124301   3.122   3.708   0.761 -1.7328 -2.0526 -0.5106
  914TIP3    H224302   3.220   3.668   0.654 -1.1815 -1.1568 -0.3488
  915TIP3   OH224303   1.536   1.389   0.737  0.2967  0.0415  0.5461
  915TIP3    H124304   1.441   1.382   0.745 -0.0839  3.4478  0.7672
  915TIP3    H224305   1.566   1.408   0.826  0.7657  1.6053  0.0942
  916TIP3   OH224306   6.104   5.785   0.356 -0.3322  0.5612 -0.8149
  916TIP3    H124307   6.051   5.744   0.424  0.7634  1.2347  0.5169
  916TIP3    H224308   6.147   5.712   0.312 -1.7977  0.0548 -1.4696
  917TIP3   OH224309   0.932   0.938   7.319 -0.6017  0.2248  0.5516
  917TIP3    H124310   0.989   1.015   7.324 -2.9436  2.1821 -0.7323
  917TIP3    H224311   0.906   0.933   7.227 -3.1031 -0.0487  1.1954
  918TIP3   OH224312   2.402   6.221   1.915 -0.0207 -0.2826 -0.6026
  918TIP3    H124313   2.465   6.244   1.846  0.0015 -0.0358 -0.4993
  918TIP3    H224314   2.413   6.126   1.926  2.3642  0.1497  1.4075
  919TIP3   OH224315   0.077   1.897   0.708 -0.4716 -0.4493 -0.1295
  919TIP3    H124316   0.058   1.974   0.762  2.3450  1.3485 -1.4720
  919TIP3    H224317   0.159   1.863   0.743 -0.1855 -1.0779 -1.3608
  920TIP3   OH224318   6.754   5.113   2.080 -0.1491  0.0321  0.5371
  920TIP3    H124319   6.682   5.111   2.144 -0.5597 -2.5588  0.1097
  920TIP3    H224320   6.712   5.094   1.997  0.8312  0.2032 -0.0066
  921TIP3   OH224321   1.868   4.416   6.459 -0.1268  0.1009  0.0429
  921TIP3    H124322   1.909   4.450   6.379  0.0842 -0.7265 -0.2088
  921TIP3    H224323   1.934   4.357   6.496  0.0326  0.9455  1.1704
  922TIP3   OH224324   2.291   4.790   2.875 -0.3101  0.4633 -0.0712
  922TIP3    H124325   2.289   4.752   2.787 -1.5161 -1.5654  0.7686
  922TIP3    H224326   2.384   4.803   2.893 -0.0615  2.0923 -2.0611
  923TIP3   OH224327   6.757   3.619   0.790  0.5871  0.8896 -0.3101
  923TIP3    H124328   6.713   3.659   0.715  0.6229  1.9626  0.2261
  923TIP3    H224329   6.849   3.643   0.780  0.9424 -0.6497 -0.9792
  924TIP3   OH224330   4.630   4.705   0.229 -0.1410  0.8240  0.5385
  924TIP3    H124331   4.623   4.706   0.133  0.2734 -1.2241  0.4356
  924TIP3    H224332   4.660   4.616   0.249  2.8972  2.0894  2.3438
  925TIP3   OH224333   2.735   0.297   8.644  0.0058 -0.4335  0.3976
  925TIP3    H124334   2.808   0.355   8.665  1.1941 -2.3799  2.1315
  925TIP3    H224335   2.759   0.257   8.560 -0.2806  0.7154 -0.2449
  926TIP3   OH224336   6.130   0.234   7.726 -0.3564 -0.2642 -0.4069
  926TIP3    H124337   6.042   0.199   7.740  0.0686 -0.6236  1.7166
  926TIP3    H224338   6.123   0.327   7.745 -0.3264 -0.2731 -0.3485
  927TIP3   OH224339   4.802   1.154   7.254  0.2556 -0.1259  0.8732
  927TIP3    H124340   4.871   1.216   7.277 -1.2783  1.2318  2.0935
  927TIP3    H224341   4.755   1.140   7.336 -1.2687 -0.5517 -0.0443
  928TIP3   OH224342   3.029   5.430   1.045  0.6865  0.3628  0.6788
  928TIP3    H124343   2.963   5.456   1.109  0.8780  1.0874  0.5912
  928TIP3    H224344   3.019   5.335   1.037  0.9324  0.2017  2.0847
  929TIP3   OH224345   5.544   5.770   7.854 -0.1251 -0.2076 -0.0542
  929TIP3    H124346   5.484   5.835   7.891 -0.5379 -1.7687  2.2107
  929TIP3    H224347   5.628   5.788   7.897 -0.5585 -1.9077  1.6377
  930TIP3   OH224348   3.338   0.284   1.997  0.4160  0.2955  0.2144
  930TIP3    H124349   3.354   0.369   1.955  0.3022  0.8838  1.3255
  930TIP3    H224350   3.263   0.299   2.054  0.7157 -0.4153  0.8180
  931TIP3   OH224351   5.221   6.540   0.800  0.0833 -0.4481 -0.1970
  931TIP3    H124352   5.236   6.565   0.708 -3.8503 -0.6325 -1.0832
  931TIP3    H224353   5.226   6.622   0.848  1.5812 -0.2535 -0.6495
  932TIP3   OH224354   3.192   2.420   1.148 -0.0352  0.7064 -0.3101
  932TIP3    H124355   3.099   2.434   1.162 -0.2624 -0.3753 -0.6059
  932TIP3    H224356   3.230   2.414   1.236 -0.3991  0.2920 -0.1761
  933TIP3   OH224357   3.439   2.300   1.434  0.3051 -0.7819 -0.9678
  933TIP3    H124358   3.529   2.268   1.443  0.3938 -0.5063 -0.8756
  933TIP3    H224359   3.416   2.333   1.521 -0.2832 -1.8803 -0.6895
  934TIP3   OH224360   2.683   1.204   1.705  0.0437 -0.3996 -0.5639
  934TIP3    H124361   2.610   1.250   1.664  0.5237  0.1893 -0.7661
  934TIP3    H224362   2.758   1.223   1.649  0.7492  0.5602  0.6651
  935TIP3   OH224363   5.068   0.300   7.492 -0.7218  0.0716 -0.2428
  935TIP3    H124364   4.992   0.301   7.434 -1.4208  0.7882  0.6571
  935TIP3    H224365   5.043   0.240   7.562  0.8347 -2.2751 -1.5405
  936TIP3   OH224366   1.237   5.424   0.925 -0.0649  0.3061  0.0383
  936TIP3    H124367   1.162   5.483   0.928 -0.2666  0.1081 -0.9709
  936TIP3    H224368   1.203   5.342   0.891  0.7801  0.5187 -1.4138
  937TIP3   OH224369   1.471   0.806   1.211  0.2889  0.5285  0.2364
  937TIP3    H124370   1.384   0.766   1.208 -0.4597  2.0961 -0.6137
  937TIP3    H224371   1.495   0.816   1.118  0.8882  1.0906  0.4484
  938TIP3   OH224372   3.908   1.656   2.297 -0.2868  0.2063  0.3166
  938TIP3    H124373   3.975   1.717   2.265 -0.2920 -0.9484 -2.2203
  938TIP3    H224374   3.958   1.580   2.328 -0.3010 -0.6098 -1.4759
  939TIP3   OH224375   5.442   5.059   1.681 -0.1414 -0.2574 -0.0049
  939TIP3    H124376   5.415   4.986   1.626 -0.3335 -0.8887  0.9056
  939TIP3    H224377   5.450   5.133   1.621 -0.1028 -0.9850 -0.9118
  940TIP3   OH224378   4.755   0.913   1.465 -0.4795  0.1988 -0.0397
  940TIP3    H124379   4.781   0.841   1.408  0.7826  2.1329 -2.0569
  940TIP3    H224380   4.826   0.976   1.458 -2.0055  2.1207  0.8317
  941TIP3   OH224381   6.766   3.115   2.655  0.2386  0.1348  0.3263
  941TIP3    H124382   6.848   3.065   2.656  0.3229  0.2648  0.0254
  941TIP3    H224383   6.730   3.100   2.568  0.7450  1.3739 -0.1082
  942TIP3   OH224384   4.984   3.180   2.054  0.0108 -0.4062  0.1087
  942TIP3    H124385   5.057   3.188   2.115  0.4582 -1.1438 -0.2988
  942TIP3    H224386   5.014   3.114   1.991 -0.1193  0.8707 -1.3463
  943TIP3   OH224387   4.969   4.790   8.064 -0.1748 -0.0942  0.6990
  943TIP3    H124388   4.982   4.751   8.150 -0.9998 -0.4857  0.6572
  943TIP3    H224389   5.013   4.875   8.069 -0.5689  0.0620  1.6404
  944TIP3   OH224390   3.224   0.218   1.493 -0.1124  0.5196  0.0528
  944TIP3    H124391   3.284   0.238   1.422  1.0548 -0.4974  0.7071
  944TIP3    H224392   3.164   0.153   1.456  1.2463 -0.9271  0.3161
  945TIP3   OH224393   2.330   5.864   2.195 -0.5942  0.5599  0.0185
  945TIP3    H124394   2.250   5.909   2.222 -1.9130 -1.2631 -0.5898
  945TIP3    H224395   2.350   5.900   2.109 -1.6439  0.0173 -0.4767
  946TIP3   OH224396   0.336   5.694   1.863  0.3276  0.1857 -0.1851
  946TIP3    H124397   0.348   5.665   1.954 -0.7572  0.0335 -0.0789
  946TIP3    H224398   0.261   5.753   1.867  0.3546  0.2789 -0.9683
  947TIP3   OH224399   6.591   6.023   2.015  0.3295 -0.1250  0.7305
  947TIP3    H124400   6.595   6.047   1.923 -1.6970 -0.7298  0.4294
  947TIP3    H224401   6.593   5.927   2.015 -2.4944 -0.2750  1.0253
  948TIP3   OH224402   4.214   2.411   1.869 -0.4235 -0.6196 -0.1925
  948TIP3    H124403   4.181   2.477   1.808 -2.3989 -0.5893  0.8392
  948TIP3    H224404   4.222   2.458   1.952 -2.5658 -1.7888  0.7371
  949TIP3   OH224405   0.177   0.230   8.305 -0.0230 -0.5993 -0.8799
  949TIP3    H124406   0.150   0.139   8.322 -3.3118  0.1864 -1.3189
  949TIP3    H224407   0.166   0.241   8.211  0.4823  0.2627 -0.8456
  950TIP3   OH224408   5.841   4.365   0.688 -0.2816  0.1745  0.5895
  950TIP3    H124409   5.930   4.381   0.720 -0.1853 -0.4941  0.6692
  950TIP3    H224410   5.797   4.322   0.761  0.7497 -4.0488 -0.9846
  951TIP3   OH224411   1.585   3.110   1.500 -0.1514  0.7967  0.1964
  951TIP3    H124412   1.508   3.098   1.444  0.4520 -2.1933 -0.1476
  951TIP3    H224413   1.549   3.146   1.581 -1.8572  0.0132 -0.1523
  952TIP3   OH224414   1.722   6.457   1.880  0.1096 -0.0973  0.1669
  952TIP3    H124415   1.763   6.517   1.819  1.9722 -3.0835 -1.7624
  952TIP3    H224416   1.634   6.443   1.845  0.2653  0.2236 -0.3575
  953TIP3   OH224417   4.279   4.268   8.367  0.3238 -0.1364 -0.1883
  953TIP3    H124418   4.270   4.293   8.275 -0.1716 -0.5794 -0.2674
  953TIP3    H224419   4.358   4.313   8.397  1.2068 -0.9857 -1.1761
  954TIP3   OH224420   5.945   2.950   1.067  0.1277  0.4356 -0.0615
  954TIP3    H124421   5.908   3.024   1.115  1.4814  1.4744 -0.5303
  954TIP3    H224422   5.996   2.991   0.996  0.6531 -0.9540 -0.5222
  955TIP3   OH224423   4.300   0.020   1.427 -0.4054  0.3779  0.2644
  955TIP3    H124424   4.223   0.029   1.370 -0.5095  0.4785  0.4233
  955TIP3    H224425   4.309   0.105   1.469  1.1740  1.1396 -1.5050
  956TIP3   OH224426   3.500   0.793   6.824 -0.0540 -0.0409  0.5368
  956TIP3    H124427   3.552   0.824   6.899 -2.3011  1.0767  1.7442
  956TIP3    H224428   3.509   0.862   6.759  0.4322 -0.1399  0.4935
  957TIP3   OH224429   5.942   4.293   6.964 -0.0865 -0.4131  0.0455
  957TIP3    H124430   5.979   4.209   6.938 -1.0455 -1.3133  1.4601
  957TIP3    H224431   5.852   4.274   6.989 -0.7994  1.3189 -1.0446
  958TIP3   OH224432   1.556   0.201   8.378  0.0639 -0.0928 -0.3275
  958TIP3    H124433   1.577   0.139   8.309 -1.2085 -0.9982  0.0459
  958TIP3    H224434   1.532   0.146   8.453 -0.7861  0.8405  0.1121
  959TIP3   OH224435   4.435   2.749   7.204 -0.0423 -0.0353 -0.7573
  959TIP3    H124436   4.490   2.672   7.190 -1.9426 -2.0718  2.0462
  959TIP3    H224437   4.350   2.726   7.167 -1.0608  0.0265  1.3949
  960TIP3   OH224438   6.293   1.497   6.973 -0.3812 -0.2254  0.5151
  960TIP3    H124439   6.243   1.492   7.054  1.7722 -0.3874  1.9094
  960TIP3    H224440   6.346   1.576   6.983  1.7301 -1.5499  0.4168
  961TIP3   OH224441   3.721   1.965   8.282 -0.0446 -0.7655 -0.1214
  961TIP3    H124442   3.769   1.886   8.307  0.3254 -0.1321  1.2853
  961TIP3    H224443   3.774   2.037   8.317  0.4589  0.2389 -2.7108
  962TIP3   OH224444   0.866   6.025   2.456  0.2538 -0.3759 -0.5229
  962TIP3    H124445   0.784   6.060   2.422  0.2347  0.8410  0.6774
  962TIP3    H224446   0.839   5.951   2.511  0.0283 -0.4317 -0.7057
  963TIP3   OH224447   3.438   5.688   7.263  0.1161 -0.0557  0.2677
  963TIP3    H124448   3.459   5.603   7.301 -0.9932 -0.9111 -0.9263
  963TIP3    H224449   3.346   5.679   7.235  0.8372  0.4608 -2.5846
  964TIP3   OH224450   6.225   2.479   8.500  0.2664 -0.6111 -0.3944
  964TIP3    H124451   6.273   2.519   8.427 -3.6883  0.1217 -2.8673
  964TIP3    H224452   6.204   2.391   8.469  1.0492 -1.4028  1.2080
  965TIP3   OH224453   5.039   5.560   1.717  0.0605 -0.6915  0.6949
  965TIP3    H124454   4.949   5.553   1.684 -0.0555 -0.6371  0.9912
  965TIP3    H224455   5.094   5.550   1.640 -0.1978 -0.9026  0.5345
  966TIP3   OH224456   0.550   5.995   1.583 -0.1337  0.4018  0.3528
  966TIP3    H124457   0.501   6.000   1.501  1.9519 -0.7972 -1.0517
  966TIP3    H224458   0.623   6.057   1.572  0.6760 -0.4245  0.9136
  967TIP3   OH224459   1.798   2.385   1.799  0.2603  0.3858  0.1159
  967TIP3    H124460   1.732   2.379   1.867 -0.7958 -1.3340 -0.9673
  967TIP3    H224461   1.748   2.405   1.719  0.4681 -3.7924 -1.3035
  968TIP3   OH224462   6.433   6.777   0.163 -0.5272  0.4085  0.1032
  968TIP3    H124463   6.477   6.693   0.173 -1.6113 -0.1036  0.7914
  968TIP3    H224464   6.351   6.767   0.212 -0.4922  2.0100  0.5310
  969TIP3   OH224465   5.514   2.339   7.646 -0.0790  0.1591  0.5707
  969TIP3    H124466   5.459   2.271   7.684 -2.3006 -0.0260 -2.6308
  969TIP3    H224467   5.568   2.294   7.582 -0.7386  1.1737 -0.7482
  970TIP3   OH224468   2.489   2.046   0.298 -0.1289  0.3187 -0.2084
  970TIP3    H124469   2.502   2.071   0.206 -2.8349  0.5746 -0.5990
  970TIP3    H224470   2.395   2.053   0.312  0.2556  1.1325  2.8620
  971TIP3   OH224471   4.387   1.527   0.914  0.3588 -0.2287  0.1717
  971TIP3    H124472   4.330   1.480   0.974 -0.3321  1.9988  1.3895
  971TIP3    H224473   4.432   1.592   0.969  0.1636  1.4838 -1.5704
  972TIP3   OH224474   2.627   4.273   1.784  0.0112 -0.3917 -0.6568
  972TIP3    H124475   2.652   4.186   1.815 -1.7006 -1.4943 -2.2034
  972TIP3    H224476   2.676   4.333   1.841  0.7817 -2.3231  0.8451
  973TIP3   OH224477   5.410   6.415   0.186 -0.3302 -0.0301 -0.4846
  973TIP3    H124478   5.358   6.494   0.176 -0.2833  0.0452 -0.1384
  973TIP3    H224479   5.500   6.446   0.191 -0.3020 -0.1153 -0.4602
  974TIP3   OH224480   2.385   1.071   1.274 -0.0900 -0.3743 -0.0787
  974TIP3    H124481   2.479   1.071   1.288 -0.2419 -2.7201  1.5295
  974TIP3    H224482   2.359   1.162   1.288  1.8319  0.1996  0.0796
  975TIP3   OH224483   1.022   0.973   0.902 -0.2224  0.1517  0.5330
  975TIP3    H124484   1.003   1.014   0.987 -0.6753 -0.7770  0.8955
  975TIP3    H224485   0.961   0.899   0.897  1.7564 -1.5753  0.6955
  976TIP3   OH224486   5.303   0.266   1.221  0.0283 -0.3838 -0.4396
  976TIP3    H124487   5.252   0.249   1.142  1.2443 -1.6482 -0.9957
  976TIP3    H224488   5.394   0.249   1.195  0.4984 -0.4643  1.1364
  977TIP3   OH224489   4.801   1.107   0.308 -0.1259  0.0370 -0.1664
  977TIP3    H124490   4.717   1.062   0.311 -0.8655  1.2956 -1.1484
  977TIP3    H224491   4.780   1.198   0.329  1.2982  0.0245  1.5549
  978TIP3   OH224492   3.762   3.716   1.756  0.0660 -0.4596 -0.7223
  978TIP3    H124493   3.754   3.810   1.770 -1.5654 -0.8438  1.3458
  978TIP3    H224494   3.847   3.706   1.713  0.7950  1.8642  0.0183
  979TIP3   OH224495   6.353   6.325   0.294 -0.1371  0.0513  0.2678
  979TIP3    H124496   6.355   6.416   0.267 -2.0881  0.6224  1.8163
  979TIP3    H224497   6.298   6.324   0.372 -0.7813 -2.5499 -0.1173
  980TIP3   OH224498   5.262   4.437   2.730  0.1049  0.3882  0.5079
  980TIP3    H124499   5.219   4.381   2.794  0.5632 -2.2591 -1.3341
  980TIP3    H224500   5.355   4.435   2.755  0.1082  0.4141  0.4974
  981TIP3   OH224501   3.705   5.747   1.932 -0.0563 -0.2188 -0.0998
  981TIP3    H124502   3.666   5.675   1.983 -0.8347  1.4090  1.7373
  981TIP3    H224503   3.761   5.793   1.995 -1.6325  2.3404 -0.4293
  982TIP3   OH224504   4.951   3.480   2.732  0.6454  0.5798 -0.0067
  982TIP3    H124505   4.929   3.476   2.825  3.3030  1.6071  0.7715
  982TIP3    H224506   4.974   3.572   2.717  2.6110 -0.0251 -1.0424
  983TIP3   OH224507   1.436   5.058   7.187  0.7686 -0.5995  0.6995
  983TIP3    H124508   1.522   5.039   7.150 -0.3668 -0.2977 -2.4107
  983TIP3    H224509   1.375   5.003   7.137 -1.1706  1.5921  0.4609
  984TIP3   OH224510   0.442   3.675   2.553 -0.7137  0.2722 -0.3523
  984TIP3    H124511   0.437   3.664   2.648  1.1058  0.3731 -0.1932
  984TIP3    H224512   0.373   3.620   2.518  0.9170 -2.8032  0.8989
  985TIP3   OH224513   5.627   1.179   0.234 -0.2317 -0.4308  0.4871
  985TIP3    H124514   5.603   1.257   0.285 -1.5099 -1.8763  2.1983
  985TIP3    H224515   5.623   1.208   0.143  2.1739  2.2766  1.0863
  986TIP3   OH224516   6.759   6.178   0.903 -0.2728  0.0735  0.3885
  986TIP3    H124517   6.668   6.198   0.880  0.3883  2.0333 -0.8259
  986TIP3    H224518   6.809   6.206   0.826  1.5425  1.2839  1.9210
  987TIP3   OH224519   3.262   0.853   0.784  0.2234  0.3093 -0.4908
  987TIP3    H124520   3.200   0.894   0.845  0.4166 -1.6235  1.1312
  987TIP3    H224521   3.347   0.889   0.808  0.0217  1.3348 -1.2584
  988TIP3   OH224522   5.421   5.185   7.819 -0.3522  0.1453 -0.1330
  988TIP3    H124523   5.471   5.265   7.836 -0.2974  0.1635 -0.3817
  988TIP3    H224524   5.436   5.166   7.726 -0.2198 -0.2553 -0.0320
  989TIP3   OH224525   4.847   3.765   0.095 -0.2568  0.2937  0.2548
  989TIP3    H124526   4.815   3.733   0.011 -0.9789  0.9288  0.2775
  989TIP3    H224527   4.867   3.686   0.145  1.7598 -0.1157 -1.0782
  990TIP3   OH224528   6.239   5.761   8.151  0.0589  0.3574  0.7039
  990TIP3    H124529   6.159   5.794   8.190 -0.0125 -1.0421  1.8238
  990TIP3    H224530   6.266   5.830   8.090 -2.3407  0.5773 -0.2316
  991TIP3   OH224531   2.940   1.876   0.642  0.1673 -0.7190  0.3651
  991TIP3    H124532   2.904   1.927   0.714 -1.0500 -0.1924 -0.5902
  991TIP3    H224533   2.969   1.941   0.578 -1.6984 -1.1661 -1.0057
  992TIP3   OH224534   1.140   3.247   0.183  0.0653 -0.4771 -0.1425
  992TIP3    H124535   1.107   3.336   0.181  1.1887  0.0035  1.1632
  992TIP3    H224536   1.215   3.247   0.124  0.9403 -0.1660  0.9507
  993TIP3   OH224537   4.528   3.810   2.234  0.0260  0.3182  0.2868
  993TIP3    H124538   4.525   3.778   2.144 -1.6550  0.3699  0.2851
  993TIP3    H224539   4.516   3.905   2.225 -1.5221  0.1797  0.6006
  994TIP3   OH224540   3.906   5.471   0.133  0.1096 -0.2434 -0.3013
  994TIP3    H124541   3.989   5.423   0.135  0.5741  0.5459  0.2158
  994TIP3    H224542   3.917   5.534   0.062 -0.1496 -0.3174 -0.4055
  995TIP3   OH224543   5.117   3.889   1.521 -0.8140 -0.1717  0.1201
  995TIP3    H124544   5.181   3.952   1.489 -1.4065  0.3309 -0.1012
  995TIP3    H224545   5.165   3.807   1.530 -0.1505  0.1987 -0.0536
  996TIP3   OH224546   4.928   0.255   1.601 -0.1836  0.2554 -0.3422
  996TIP3    H124547   4.877   0.193   1.653  0.1472  0.7615  0.6204
  996TIP3    H224548   4.936   0.332   1.657 -1.1703  1.4545 -1.7717
  997TIP3   OH224549   2.067   1.526   1.131 -0.3578  0.3316 -0.1537
  997TIP3    H124550   2.128   1.455   1.111  0.0452  0.9542 -1.2061
  997TIP3    H224551   2.076   1.587   1.058 -2.8164  0.0712 -0.7589
  998TIP3   OH224552   5.509   2.382   7.161  0.5653  0.3796  0.4118
  998TIP3    H124553   5.565   2.403   7.236  3.7938  2.9705 -2.3948
  998TIP3    H224554   5.556   2.314   7.113 -0.7993 -0.3198  0.0031
  999TIP3   OH224555   6.166   0.591   1.755 -0.0313  0.2929 -0.2036
  999TIP3    H124556   6.079   0.565   1.786 -0.4264 -0.4309 -1.8043
  999TIP3    H224557   6.164   0.687   1.754  0.9021  0.5721  4.3106
 1000TIP3   OH224558   2.734   4.911   6.974  0.4982  0.0838 -0.2937
 1000TIP3    H124559   2.714   4.873   7.059  0.9259 -0.9333 -0.6321
 1000TIP3    H224560   2.678   4.989   6.969 -2.5883 -1.9859 -0.6999
 1001TIP3   OH224561   1.596   4.775   0.447  0.4243 -0.1835 -0.1530
 1001TIP3    H124562   1.573   4.773   0.354 -1.7126 -0.9700  0.3216
 1001TIP3    H224563   1.627   4.687   0.466  2.4938  0.4441 -0.4443
 1002TIP3   OH224564   6.268   5.045   7.538  0.1510  0.5564  0.2117
 1002TIP3    H124565   6.216   5.113   7.496  0.3422 -0.1664 -1.2468
 1002TIP3    H224566   6.237   5.045   7.629 -1.9341  0.5976 -0.4425
 1003TIP3   OH224567   1.383   4.531   0.742 -0.5129 -0.5180  0.0040
 1003TIP3    H124568   1.475   4.540   0.766 -0.4241  1.4414 -0.9001
 1003TIP3    H224569   1.383   4.477   0.663 -0.2522 -1.3368  0.5492
 1004TIP3   OH224570   5.279   1.903   8.163  0.1670 -0.1063  0.5772
 1004TIP3    H124571   5.345   1.923   8.229  1.9451  2.1671 -1.6761
 1004TIP3    H224572   5.327   1.854   8.096 -1.5299 -2.1277  0.7317
 1005TIP3   OH224573   1.157   1.637   2.885 -0.2578  0.1952  0.7105
 1005TIP3    H124574   1.229   1.635   2.947  0.0275  0.0345  0.3781
 1005TIP3    H224575   1.133   1.545   2.874 -0.4734  0.2428  0.7704
 1006TIP3   OH224576   1.947   3.667   8.224 -0.1308 -0.0067 -1.1973
 1006TIP3    H124577   1.921   3.679   8.316  0.2958 -4.1637 -0.3591
 1006TIP3    H224578   2.035   3.705   8.220 -0.2926  0.5726 -0.0261
 1007TIP3   OH224579   0.401   4.351   0.875  0.2578  0.6114 -0.5149
 1007TIP3    H124580   0.307   4.334   0.869  0.2787 -0.7954  1.8281
 1007TIP3    H224581   0.441   4.264   0.880  1.5376  1.2029  0.1566
 1008TIP3   OH224582   0.110   4.425   0.899  0.0076  0.3288  0.9040
 1008TIP3    H124583   0.065   4.485   0.839 -0.5021 -2.7581 -2.1089
 1008TIP3    H224584   0.040   4.384   0.949 -0.0675 -0.6390  0.0288
 1009TIP3   OH224585   4.953   5.552   7.814 -0.8985  0.4934  0.0476
 1009TIP3    H124586   4.951   5.566   7.909 -2.2225  1.3882 -0.0795
 1009TIP3    H224587   4.898   5.475   7.799  1.9276 -1.7137  0.2416
 1010TIP3   OH224588   3.886   1.000   6.738  0.6363  0.1671 -0.0012
 1010TIP3    H124589   3.973   1.010   6.775 -0.5354  0.5305  2.9667
 1010TIP3    H224590   3.858   0.913   6.767 -0.0592  0.1161 -0.7871
 1011TIP3   OH224591   4.282   3.208   1.076  0.6077 -0.6517 -0.1463
 1011TIP3    H124592   4.189   3.217   1.099  1.0594 -0.6172  1.8813
 1011TIP3    H224593   4.293   3.264   1.000 -1.0156 -0.5777 -0.3735
 1012TIP3   OH224594   1.723   0.887   8.544 -0.3701 -0.5984  0.1579
 1012TIP3    H124595   1.717   0.878   8.449 -0.6205 -2.3335  0.3078
 1012TIP3    H224596   1.778   0.813   8.572  1.1221  0.8465  1.2201
 1013TIP3   OH224597   3.943   1.954   1.341 -0.6604 -0.1643  0.2246
 1013TIP3    H124598   3.931   1.860   1.353  1.8136 -0.7802 -1.3339
 1013TIP3    H224599   4.036   1.968   1.356 -0.8562  1.9241 -0.2842
 1014TIP3   OH224600   0.245   4.200   3.122 -0.2342 -0.7963 -0.3384
 1014TIP3    H124601   0.241   4.136   3.193 -1.5145 -1.3616 -0.8866
 1014TIP3    H224602   0.293   4.274   3.159 -0.3940 -1.2999  0.9263
 1015TIP3   OH224603   0.021   0.620   1.647  0.4201  0.0788 -0.1232
 1015TIP3    H124604   0.005   0.539   1.696  0.7943  0.4497  0.6171
 1015TIP3    H224605   0.113   0.641   1.663  0.8700 -0.3835 -1.8878
 1016TIP3   OH224606   5.439   5.647   2.127  0.1265  0.0498 -0.3759
 1016TIP3    H124607   5.493   5.718   2.162 -1.0075  0.4608  0.6109
 1016TIP3    H224608   5.479   5.567   2.161  0.8859  0.2567 -0.7602
 1017TIP3   OH224609   2.420   4.690   1.667 -0.3367  0.4255  0.5187
 1017TIP3    H124610   2.427   4.605   1.623 -0.1181  0.1635  1.0557
 1017TIP3    H224611   2.507   4.730   1.656 -0.4151  0.5449  0.3357
 1018TIP3   OH224612   3.166   3.079   7.394 -0.2403 -0.3463 -0.7004
 1018TIP3    H124613   3.212   3.052   7.315  0.5168 -1.8210  0.1967
 1018TIP3    H224614   3.073   3.064   7.375  0.1016 -3.4711 -0.3753
 1019TIP3   OH224615   2.468   4.099   0.744  0.5542  0.2081 -0.0496
 1019TIP3    H124616   2.475   4.025   0.803  1.1574 -1.2222 -1.8190
 1019TIP3    H224617   2.536   4.084   0.678  0.9277  2.5273 -0.2994
 1020TIP3   OH224618   5.251   5.284   8.523  0.4630 -0.4091 -0.0996
 1020TIP3    H124619   5.215   5.237   8.599 -0.0700  1.0641  0.6009
 1020TIP3    H224620   5.340   5.307   8.549  0.7309 -1.0083 -0.4516
 1021TIP3   OH224621   0.959   5.467   1.963  0.5616  0.0246  0.4588
 1021TIP3    H124622   0.978   5.391   1.908  1.5338  1.0226 -0.6435
 1021TIP3    H224623   0.863   5.473   1.963  0.3787 -1.9804  1.7275
 1022TIP3   OH224624   5.688   6.390   7.907 -0.3624 -0.2421  0.0485
 1022TIP3    H124625   5.639   6.429   7.834 -2.2687 -0.9810  0.8763
 1022TIP3    H224626   5.765   6.350   7.865 -0.4907  0.8411 -1.3158
 1023TIP3   OH224627   5.773   4.277   7.479  0.2425  0.1356 -0.0126
 1023TIP3    H124628   5.787   4.362   7.437 -1.4587  0.2375 -0.4686
 1023TIP3    H224629   5.845   4.268   7.541  0.9004  1.5434 -0.5308
 1024TIP3   OH224630   0.897   4.535   2.334 -0.1832  0.5207  0.2213
 1024TIP3    H124631   0.855   4.479   2.269 -0.6095 -0.2917  1.1633
 1024TIP3    H224632   0.874   4.624   2.308  2.5701  0.5280 -2.7680
 1025TIP3   OH224633   0.142   3.291   7.837  0.7791  0.2816  0.3612
 1025TIP3    H124634   0.180   3.328   7.916  0.1675  1.1560  0.2542
 1025TIP3    H224635   0.107   3.366   7.789  0.2163 -0.3482 -0.2343
 1026TIP3   OH224636   5.289   6.470   7.155  0.1112  0.2453 -0.1259
 1026TIP3    H124637   5.298   6.564   7.138  1.3842  0.0500 -0.6302
 1026TIP3    H224638   5.378   6.435   7.147  0.4038 -0.3978  3.9386
 1027TIP3   OH224639   5.479   0.276   7.206 -1.1629 -0.2539 -0.1026
 1027TIP3    H124640   5.467   0.350   7.146 -0.8485 -0.8061 -0.8707
 1027TIP3    H224641   5.429   0.299   7.283 -0.3824  1.1639  0.0229
 1028TIP3   OH224642   5.543   6.584   8.155  0.1334 -0.2655 -0.1048
 1028TIP3    H124643   5.525   6.622   8.070 -1.6321  1.3087  0.9070
 1028TIP3    H224644   5.457   6.559   8.189  0.3631  1.9886  2.4494
 1029TIP3   OH224645   0.739   3.250   8.429 -0.1065  0.8575 -0.2361
 1029TIP3    H124646   0.675   3.317   8.452 -1.1885 -0.5190  0.9709
 1029TIP3    H224647   0.799   3.247   8.504 -0.1079  0.4282 -0.2489
 1030TIP3   OH224648   3.978   5.644   8.595 -0.1474 -0.5105 -0.0544
 1030TIP3    H124649   3.940   5.726   8.627 -0.1175 -0.7039  0.4949
 1030TIP3    H224650   3.973   5.650   8.500 -2.1065 -0.7631 -0.0162
 1031TIP3   OH224651   3.272   6.340   1.804  0.5189 -0.8369 -0.5339
 1031TIP3    H124652   3.306   6.267   1.752  0.1464 -1.9780  0.7553
 1031TIP3    H224653   3.198   6.374   1.754  2.0762  0.2000 -2.2680
 1032TIP3   OH224654   3.314   6.252   8.285 -0.0913 -0.3992  0.5894
 1032TIP3    H124655   3.377   6.225   8.351 -1.3494  0.8483  2.4106
 1032TIP3    H224656   3.244   6.187   8.290  0.3301 -0.9377 -0.3481
 1033TIP3   OH224657   5.021   5.448   8.437 -0.5978 -0.3077  1.0242
 1033TIP3    H124658   5.067   5.531   8.425 -2.0114  0.6434  1.9132
 1033TIP3    H224659   5.090   5.387   8.464  0.0444  1.3978  3.7059
 1034TIP3   OH224660   5.454   5.617   1.354  0.1168 -0.2384  0.2667
 1034TIP3    H124661   5.524   5.624   1.420  0.6371 -1.1157 -0.1684
 1034TIP3    H224662   5.383   5.573   1.400 -0.1699  0.6941  0.7248
 1035TIP3   OH224663   5.455   6.444   1.543  0.1129  0.6300  0.4022
 1035TIP3    H124664   5.545   6.429   1.514 -0.1972 -0.6347  0.0124
 1035TIP3    H224665   5.427   6.359   1.577 -1.5839  0.4434 -1.3046
 1036TIP3   OH224666   4.210   3.889   7.458 -0.4972  0.4966  0.4890
 1036TIP3    H124667   4.222   3.798   7.484  0.0386 -0.4556 -2.6094
 1036TIP3    H224668   4.122   3.891   7.421 -0.3077  1.0850  0.0620
 1037TIP3   OH224669   2.946   0.492   8.615  0.1409 -0.3248  0.5220
 1037TIP3    H124670   3.022   0.440   8.641  0.8861  0.7529  0.5622
 1037TIP3    H224671   2.964   0.515   8.523 -0.6548 -0.9455  0.2011
 1038TIP3   OH224672   4.600   2.892   1.439 -0.2262  0.2554  0.5544
 1038TIP3    H124673   4.612   2.958   1.371 -1.4309 -0.6660 -0.6344
 1038TIP3    H224674   4.679   2.839   1.436 -0.0236  0.5706  0.2843
 1039TIP3   OH224675   0.177   4.406   8.382 -0.3546 -0.4125 -0.4823
 1039TIP3    H124676   0.250   4.345   8.383 -0.0108 -0.0028  0.2244
 1039TIP3    H224677   0.185   4.451   8.297 -0.4352 -1.1181 -0.8735
 1040TIP3   OH224678   1.720   2.345   0.661  0.1334  0.0327 -0.5217
 1040TIP3    H124679   1.752   2.435   0.657 -0.6389  0.3179 -0.6218
 1040TIP3    H224680   1.777   2.296   0.602 -0.4857  0.8006 -1.8021
 1041TIP3   OH224681   2.542   3.967   3.087  0.0319 -0.9643  0.6796
 1041TIP3    H124682   2.512   4.051   3.120 -0.5641 -0.5577 -0.8073
 1041TIP3    H224683   2.466   3.910   3.092  1.1071 -2.4011  4.4090
 1042TIP3   OH224684   0.588   3.293   0.433 -0.1101  0.3370 -0.8073
 1042TIP3    H124685   0.558   3.212   0.391 -0.5119 -0.7052  1.3621
 1042TIP3    H224686   0.557   3.286   0.523  1.5726  2.0044 -0.0388
 1043TIP3   OH224687   3.994   5.258   1.162 -0.1930  0.7601  0.0938
 1043TIP3    H124688   3.990   5.330   1.099  0.6575 -0.3996 -1.3471
 1043TIP3    H224689   4.015   5.181   1.109  0.6257 -0.2537  1.8158
 1044TIP3   OH224690   3.268   3.115   2.711  0.0931  0.2316 -0.1854
 1044TIP3    H124691   3.290   3.149   2.798 -1.4349 -1.2374  0.8206
 1044TIP3    H224692   3.262   3.020   2.722  2.7825 -0.3659 -2.5923
 1045TIP3   OH224693   2.277   1.655   8.195  0.8644 -0.2296  0.2877
 1045TIP3    H124694   2.370   1.632   8.203  1.8108  1.9452 -2.5974
 1045TIP3    H224695   2.274   1.749   8.212 -0.8496 -0.2850  0.4464
 1046TIP3   OH224696   6.176   4.885   6.765 -0.1134  0.6508  0.2219
 1046TIP3    H124697   6.186   4.837   6.682 -0.8539  1.1936 -0.1930
 1046TIP3    H224698   6.256   4.864   6.814  0.0329 -0.2047 -0.3562
 1047TIP3   OH224699   5.298   4.376   0.760  0.0917  0.1460  0.1931
 1047TIP3    H124700   5.307   4.322   0.681 -1.4884 -1.1859  0.8687
 1047TIP3    H224701   5.353   4.452   0.742  0.7106 -0.6604 -1.6998
 1048TIP3   OH224702   5.881   0.591   2.382  0.6226 -0.1131  0.0385
 1048TIP3    H124703   5.899   0.506   2.340  0.3715  0.4191 -1.2000
 1048TIP3    H224704   5.945   0.651   2.343  0.0781  0.5031  0.0798
 1049TIP3   OH224705   0.390   5.451   2.840  0.9839 -0.4357 -0.2558
 1049TIP3    H124706   0.312   5.440   2.894  1.7275 -0.1917  0.9151
 1049TIP3    H224707   0.390   5.376   2.781 -1.1218  0.5279 -1.5953
 1050TIP3   OH224708   0.506   0.591   8.363 -0.2642  0.4123 -0.0751
 1050TIP3    H124709   0.595   0.613   8.336 -0.2368 -0.2755 -0.5695
 1050TIP3    H224710   0.455   0.671   8.348 -0.4180 -0.1020 -2.9107
 1051TIP3   OH224711   6.641   5.798   7.941 -0.3102 -0.5177 -0.0926
 1051TIP3    H124712   6.726   5.841   7.951 -0.3257 -0.6275  0.5350
 1051TIP3    H224713   6.626   5.753   8.024 -1.1496 -0.2060 -0.0649
 1052TIP3   OH224714   4.463   5.136   0.990  0.7127 -0.3138  0.8903
 1052TIP3    H124715   4.476   5.048   0.954  1.5837  0.3897 -0.6465
 1052TIP3    H224716   4.549   5.177   0.982  0.2998  0.7036  1.5324
 1053TIP3   OH224717   1.654   4.553   7.904 -0.0844 -0.3329 -0.9119
 1053TIP3    H124718   1.654   4.459   7.924  1.4621  0.0723  1.2708
 1053TIP3    H224719   1.664   4.596   7.988 -0.6024  1.8281 -1.8875
 1054TIP3   OH224720   0.016   5.961   0.331  0.1007 -0.1338 -0.7014
 1054TIP3    H124721  -0.003   6.044   0.287  1.6487  0.9872  0.6348
 1054TIP3    H224722  -0.070   5.928   0.357 -0.4438  2.2013  0.7362
 1055TIP3   OH224723   0.082   5.484   2.189 -0.1119  0.4141 -0.9529
 1055TIP3    H124724   0.097   5.578   2.203 -0.4623  0.2779  0.4814
 1055TIP3    H224725   0.133   5.464   2.111 -2.0536  2.3118 -2.8225
 1056TIP3   OH224726   0.940   3.754   7.899 -0.3107  0.0887  0.3892
 1056TIP3    H124727   0.922   3.669   7.860 -0.9856  0.2267  0.3773
 1056TIP3    H224728   0.937   3.738   7.994 -3.0214  0.5386  0.4764
 1057TIP3   OH224729   0.263   2.030   1.660  0.6694 -0.6416  0.1697
 1057TIP3    H124730   0.179   2.047   1.702  0.2712 -1.9409 -0.0643
 1057TIP3    H224731   0.240   2.000   1.572  1.3888 -0.6423 -0.0278
 1058TIP3   OH224732   2.494   0.254   0.093 -0.1564 -0.0323  0.0421
 1058TIP3    H124733   2.581   0.256   0.052 -0.2448 -1.3558 -0.2779
 1058TIP3    H224734   2.433   0.264   0.020 -0.3116  2.4932  0.4273
 1059TIP3   OH224735   0.724   2.354   0.680 -0.5350  0.1081  0.4426
 1059TIP3    H124736   0.686   2.267   0.670 -1.7504  0.6290  0.4426
 1059TIP3    H224737   0.793   2.357   0.613  0.6940 -1.4529  1.5581
 1060TIP3   OH224738   5.339   2.243   1.619 -0.4565 -0.0624  0.4052
 1060TIP3    H124739   5.334   2.334   1.591 -0.4781 -0.4990 -1.1050
 1060TIP3    H224740   5.271   2.234   1.685  1.6284  1.7924  3.0154
 1061TIP3   OH224741   2.074   1.009   1.595  0.2326 -0.1802 -0.3723
 1061TIP3    H124742   2.017   1.025   1.519 -0.8815  0.0530  0.4948
 1061TIP3    H224743   2.131   1.086   1.598 -0.6599  0.4962 -0.1648
 1062TIP3   OH224744   5.674   3.823   2.163  0.1268  0.2905  0.6068
 1062TIP3    H124745   5.612   3.761   2.124  0.4187  0.3282  0.0651
 1062TIP3    H224746   5.622   3.900   2.184 -0.1334  0.0707  0.7663
 1063TIP3   OH224747   4.258   2.744   8.503  0.2267  0.0310 -0.2572
 1063TIP3    H124748   4.329   2.710   8.558 -0.2539 -0.9023 -0.1919
 1063TIP3    H224749   4.272   2.838   8.502  1.4813 -0.1383 -0.2635
 1064TIP3   OH224750   1.225   6.378   8.205  0.1731  0.3875  0.1203
 1064TIP3    H124751   1.235   6.284   8.191 -2.1107  0.2793 -1.2396
 1064TIP3    H224752   1.214   6.387   8.300  1.5724 -0.5458  0.4060
 1065TIP3   OH224753   5.330   2.114   0.441 -0.0112 -0.2976  0.0038
 1065TIP3    H124754   5.323   2.062   0.361  1.6881 -1.4445  0.5331
 1065TIP3    H224755   5.350   2.050   0.510 -1.1743  0.6897  1.3143
 1066TIP3   OH224756   3.870   4.643   7.086  0.0430 -0.1194 -0.0351
 1066TIP3    H124757   3.833   4.566   7.130 -0.4003 -0.9402 -1.7729
 1066TIP3    H224758   3.963   4.622   7.074  0.0188 -0.1876 -0.1022
 1067TIP3   OH224759   3.285   5.408   2.807  0.0945 -0.4085 -0.2288
 1067TIP3    H124760   3.374   5.420   2.773 -0.1964  3.0167 -0.1458
 1067TIP3    H224761   3.284   5.457   2.889 -1.4840 -1.6452  0.5393
 1068TIP3   OH224762   6.827   0.384   1.805 -0.5465 -0.6012  0.2652
 1068TIP3    H124763   6.778   0.318   1.756  0.1772  0.2129 -1.6677
 1068TIP3    H224764   6.813   0.361   1.897 -3.0973 -1.3977 -0.2451
 1069TIP3   OH224765   0.242   6.327   0.462  0.2786  0.6917 -0.1884
 1069TIP3    H124766   0.238   6.321   0.366  0.5255 -0.9880 -0.1188
 1069TIP3    H224767   0.275   6.242   0.490  0.6062  1.3035  1.3829
 1070TIP3   OH224768   5.914   5.107   7.854  0.0226 -0.1410 -0.2512
 1070TIP3    H124769   5.937   5.151   7.772 -0.3223  0.2298 -0.1513
 1070TIP3    H224770   5.818   5.107   7.856 -0.0567  2.3126  1.4145
 1071TIP3   OH224771   6.615   4.064   0.241 -0.2018 -0.4044 -0.7222
 1071TIP3    H124772   6.536   4.107   0.208 -0.1316 -0.0031 -0.3696
 1071TIP3    H224773   6.686   4.125   0.219 -0.2004  0.0572  0.5280
 1072TIP3   OH224774   1.741   1.062   1.021 -0.0372  0.0498  0.7373
 1072TIP3    H124775   1.684   1.106   1.084 -2.0111 -2.2185  0.7008
 1072TIP3    H224776   1.792   1.001   1.074  1.2694  0.9615  0.5694
 1073TIP3   OH224777   0.083   3.537   7.657 -0.1858  0.4107  0.4359
 1073TIP3    H124778   0.013   3.517   7.595  0.6590 -0.8549 -0.1607
 1073TIP3    H224779   0.154   3.569   7.601  0.5680 -0.6942  0.7326
 1074TIP3   OH224780   4.022   5.903   7.594  0.0686 -0.4080  0.1116
 1074TIP3    H124781   4.015   5.942   7.682  1.4820  0.4379 -0.1213
 1074TIP3    H224782   3.942   5.930   7.549  0.1637  0.6616  0.5677
 1075TIP3   OH224783   5.744   3.876   2.410 -0.2135 -0.6584  0.1913
 1075TIP3    H124784   5.701   3.959   2.429 -0.7504 -0.7189 -0.6969
 1075TIP3    H224785   5.690   3.836   2.342  1.1210 -0.8350 -0.8028
 1076TIP3   OH224786   6.554   3.665   8.248 -0.1161  0.5092  0.1390
 1076TIP3    H124787   6.593   3.627   8.326 -0.0042  0.6511  0.1521
 1076TIP3    H224788   6.606   3.631   8.175  0.4283  1.1897  0.1983
 1077TIP3   OH224789   4.826   3.727   1.197  0.2996 -0.4634 -1.1176
 1077TIP3    H124790   4.841   3.748   1.105  3.0601 -1.4526 -0.9834
 1077TIP3    H224791   4.911   3.739   1.239 -0.3971 -1.9667  0.9084
 1078TIP3   OH224792   6.704   1.555   0.215  0.4688 -1.2837  0.1930
 1078TIP3    H124793   6.698   1.475   0.266  0.6969 -0.0777  2.2184
 1078TIP3    H224794   6.615   1.570   0.183 -0.3384 -0.7281  2.4865
 1079TIP3   OH224795   6.253   3.033   1.257  0.3200 -0.5294 -0.1204
 1079TIP3    H124796   6.218   2.958   1.305  1.5903 -0.7314  0.5166
 1079TIP3    H224797   6.193   3.105   1.279 -0.6435 -1.2337 -0.3729
 1080TIP3   OH224798   4.234   6.691   1.741  0.4858  0.3106  0.3658
 1080TIP3    H124799   4.200   6.655   1.660 -0.6995  1.4524  0.3349
 1080TIP3    H224800   4.204   6.782   1.743  1.3452  0.6038  1.5956
 1081TIP3   OH224801   4.276   6.208   0.972 -0.5238  0.4723 -0.5538
 1081TIP3    H124802   4.354   6.158   0.948 -0.6749 -0.9333  1.6318
 1081TIP3    H224803   4.307   6.297   0.983  0.0447  0.6741 -3.0748
 1082TIP3   OH224804   3.635   5.657   0.000  0.3227 -0.6905  0.2367
 1082TIP3    H124805   3.575   5.584   0.013  0.6752 -1.2469 -1.0876
 1082TIP3    H224806   3.578   5.730  -0.026  0.1564 -1.0623 -0.4643
 1083TIP3   OH224807   2.259   5.665   1.343 -0.3557 -0.3170 -0.0925
 1083TIP3    H124808   2.248   5.673   1.437  0.2899 -1.2211  0.0695
 1083TIP3    H224809   2.172   5.685   1.307 -0.2895  1.3932  0.5849
 1084TIP3   OH224810   3.588   3.466   8.070 -0.1271  0.5006  0.7907
 1084TIP3    H124811   3.508   3.413   8.078 -1.0449  1.6606 -0.3088
 1084TIP3    H224812   3.629   3.436   7.989 -1.6062  2.6096 -0.8407
 1085TIP3   OH224813   2.474   0.574   8.071  0.7421 -0.7528  0.3639
 1085TIP3    H124814   2.540   0.505   8.066  1.7162  0.2594 -1.7991
 1085TIP3    H224815   2.434   0.576   7.984 -1.7187 -0.8770  1.4111
 1086TIP3   OH224816   3.976   2.210   0.031 -0.4463 -0.8595  0.0505
 1086TIP3    H124817   3.937   2.283   0.079  0.6091 -1.5405  2.0808
 1086TIP3    H224818   3.953   2.227  -0.061  0.4743  2.4702  0.2914
 1087TIP3   OH224819   0.402   3.844   0.080 -0.0271  0.2842 -0.0821
 1087TIP3    H124820   0.315   3.884   0.084 -0.3894 -0.5496  0.8947
 1087TIP3    H224821   0.385   3.750   0.079  0.8572  0.1156 -0.1326
 1088TIP3   OH224822   5.939   4.516   2.735 -0.5680  0.5705 -0.0141
 1088TIP3    H124823   5.911   4.607   2.749  0.8366  1.2960 -1.5967
 1088TIP3    H224824   5.864   4.475   2.692 -0.9813  1.1471  0.1407
 1089TIP3   OH224825   3.547   0.114   7.859  0.0493 -0.5956 -0.2432
 1089TIP3    H124826   3.476   0.051   7.843  0.5650 -1.4384  0.6619
 1089TIP3    H224827   3.624   0.073   7.819  0.1173  0.1554 -0.9178
 1090TIP3   OH224828   0.344   6.517   2.669 -0.0479 -0.2866  1.0184
 1090TIP3    H124829   0.395   6.546   2.745  0.1161  0.8057  0.5137
 1090TIP3    H224830   0.280   6.587   2.655 -0.4197 -0.7300  0.4790
 1091TIP3   OH224831   0.060   2.330   0.268 -0.6996 -0.4147 -1.0078
 1091TIP3    H124832   0.150   2.325   0.236 -0.8070 -0.6952 -1.2641
 1091TIP3    H224833   0.069   2.335   0.363 -0.4242 -0.7636 -1.0145
 1092TIP3   OH224834   3.372   4.267   8.073  0.5861 -0.0483 -0.0799
 1092TIP3    H124835   3.383   4.188   8.020  0.8493 -0.1963  0.1922
 1092TIP3    H224836   3.457   4.279   8.116  0.4895  0.2767  0.0228
 1093TIP3   OH224837   2.836   6.375   0.895  0.2951  0.1873 -0.3846
 1093TIP3    H124838   2.749   6.359   0.859 -0.6067  0.5575  1.4796
 1093TIP3    H224839   2.844   6.470   0.898  0.2964  0.1681  0.4495
 1094TIP3   OH224840   0.968   5.994   0.543  0.1711  0.5980 -0.2798
 1094TIP3    H124841   1.017   6.024   0.467  0.9894  0.5343  0.2085
 1094TIP3    H224842   0.999   6.049   0.615 -0.0038  0.1237  0.1692
 1095TIP3   OH224843   3.905   6.326   0.977 -0.0148 -1.0981 -0.3337
 1095TIP3    H124844   3.813   6.339   0.954  0.0514 -1.6742 -0.9503
 1095TIP3    H224845   3.947   6.409   0.956 -0.0586 -1.4301 -1.8215
 1096TIP3   OH224846   1.413   0.845   7.653 -0.2316 -0.6634 -0.1126
 1096TIP3    H124847   1.420   0.846   7.558  0.7333  0.4243 -0.0527
 1096TIP3    H224848   1.381   0.933   7.675  2.0819  0.0581  0.6986
 1097TIP3   OH224849   5.931   1.000   0.836  0.3039  0.8206  0.0828
 1097TIP3    H124850   5.866   1.001   0.766 -1.0009 -1.4868  1.1522
 1097TIP3    H224851   5.970   0.913   0.831  3.3660  2.0616 -0.4475
 1098TIP3   OH224852   5.504   0.447   1.426  0.4546  0.4964  0.0086
 1098TIP3    H124853   5.436   0.514   1.439 -0.0576 -0.0297  0.0729
 1098TIP3    H224854   5.529   0.457   1.334  0.2804  0.6861 -0.0213
 1099TIP3   OH224855   3.961   0.228   2.173  0.4456 -0.4397  0.4579
 1099TIP3    H124856   3.874   0.218   2.135  0.8637  0.6299 -0.8752
 1099TIP3    H224857   4.007   0.148   2.148  1.0987  0.7233 -2.5342
 1100TIP3   OH224858   3.255   1.155   0.968 -0.3378  0.0502  0.1874
 1100TIP3    H124859   3.205   1.076   0.987  1.0235 -0.5849  1.3021
 1100TIP3    H224860   3.346   1.131   0.987 -0.1109  2.5572  2.9812
 1101TIP3   OH224861   4.743   1.033   0.820  0.5230  0.0138  0.4826
 1101TIP3    H124862   4.654   0.999   0.827 -0.0233  1.5148  1.2577
 1101TIP3    H224863   4.777   0.993   0.740 -1.1396  0.0626 -0.2986
 1102TIP3   OH224864   0.016   5.123   3.169 -0.1027 -0.2970  0.3334
 1102TIP3    H124865   0.086   5.145   3.230 -1.1953  1.6826  0.9601
 1102TIP3    H224866  -0.065   5.142   3.217 -1.0726 -1.7193 -0.6616
 1103TIP3   OH224867   2.588   5.821   6.888  0.3758  0.8797 -0.6251
 1103TIP3    H124868   2.670   5.805   6.936 -0.1732 -0.9143 -0.2106
 1103TIP3    H224869   2.521   5.821   6.956 -0.4928 -2.2457 -1.3086
 1104TIP3   OH224870   5.053   5.738   1.452  0.2242 -0.2540 -0.0514
 1104TIP3    H124871   5.108   5.783   1.516  1.6163 -1.4532 -0.3497
 1104TIP3    H224872   4.967   5.781   1.459  1.2094  1.7498  0.3527
 1105TIP3   OH224873   2.136   3.159   8.173 -0.1652 -0.1347  0.2259
 1105TIP3    H124874   2.222   3.127   8.202 -0.4927 -0.8111  0.4753
 1105TIP3    H224875   2.078   3.141   8.247 -0.5802  0.0534 -0.0534
 1106TIP3   OH224876   2.992   3.162   3.168  0.0403 -0.1510 -0.0961
 1106TIP3    H124877   2.977   3.245   3.212 -0.6587 -0.0269 -0.5556
 1106TIP3    H224878   2.993   3.184   3.075 -1.4589 -0.8217 -0.3066
 1107TIP3   OH224879   3.355   5.227   1.539 -0.1365 -0.1857 -0.5887
 1107TIP3    H124880   3.410   5.204   1.464  1.0031 -2.6621  0.8873
 1107TIP3    H224881   3.415   5.268   1.601 -0.4492 -0.7654  0.1007
 1108TIP3   OH224882   5.154   4.545   0.378 -0.4591  0.0634  0.2646
 1108TIP3    H124883   5.201   4.465   0.353 -0.6111 -0.1976  0.8119
 1108TIP3    H224884   5.223   4.609   0.396 -0.3423  0.3394 -1.0656
 1109TIP3   OH224885   2.882   2.364   8.551 -0.0379 -0.3105  0.7430
 1109TIP3    H124886   2.921   2.313   8.622 -2.1539 -2.1922  0.6518
 1109TIP3    H224887   2.803   2.402   8.590 -0.8122 -0.7207 -0.3751
 1110TIP3   OH224888   4.127   0.231   1.164  0.0400  0.0101  0.2840
 1110TIP3    H124889   4.139   0.317   1.204  3.4738 -1.1040  2.0312
 1110TIP3    H224890   4.144   0.245   1.071  2.1053  1.0774  0.7515
 1111TIP3   OH224891   5.431   6.309   3.107  0.1475  0.1000  0.0943
 1111TIP3    H124892   5.350   6.339   3.066 -0.5497  1.3046  2.2102
 1111TIP3    H224893   5.497   6.373   3.081 -0.1576  0.5294  0.3710
 1112TIP3   OH224894   2.567   4.807   7.203  0.5246 -0.0620  0.3820
 1112TIP3    H124895   2.520   4.853   7.272  1.6661  0.6250  0.7407
 1112TIP3    H224896   2.522   4.723   7.194 -1.5227  1.0269 -0.1811
 1113TIP3   OH224897   3.742   1.410   1.877  0.4840 -0.5441 -0.2312
 1113TIP3    H124898   3.806   1.375   1.938 -0.7675 -1.0644  0.8256
 1113TIP3    H224899   3.744   1.505   1.891  2.7172 -0.2598 -1.9498
 1114TIP3   OH224900   1.889   1.936   1.734  0.2708  0.7193  0.5863
 1114TIP3    H124901   1.862   1.844   1.744 -2.5001  1.3708 -0.0072
 1114TIP3    H224902   1.956   1.934   1.666 -1.5177 -0.6654 -1.2629
 1115TIP3   OH224903   6.577   0.635   1.069 -0.1851  0.5127  0.6109
 1115TIP3    H124904   6.526   0.555   1.058  0.8156  0.2316 -3.9762
 1115TIP3    H224905   6.515   0.706   1.049  0.2781  0.3700 -1.6048
 1116TIP3   OH224906   1.694   6.134   0.459 -0.2597  0.7437 -0.3428
 1116TIP3    H124907   1.778   6.168   0.426  1.6423 -0.1034  3.0777
 1116TIP3    H224908   1.660   6.205   0.514 -1.4200  0.7727 -1.0768
 1117TIP3   OH224909   0.463   2.669   2.606 -0.6948 -0.7176  1.1616
 1117TIP3    H124910   0.381   2.620   2.610  0.2923 -2.4567  1.3551
 1117TIP3    H224911   0.525   2.616   2.656  0.6527  0.3138  0.6489
 1118TIP3   OH224912   5.760   5.165   0.344  0.3882 -0.0395 -0.0909
 1118TIP3    H124913   5.748   5.254   0.310 -2.0520  0.3496  1.5305
 1118TIP3    H224914   5.838   5.133   0.299  0.7189  2.5057 -1.5554
 1119TIP3   OH224915   5.778   2.746   1.201  0.1290 -0.4043 -0.4373
 1119TIP3    H124916   5.792   2.823   1.145 -1.0991 -0.3858 -0.7586
 1119TIP3    H224917   5.840   2.681   1.169  1.4039  0.5519  0.0457
 1120TIP3   OH224918   3.061   2.989   0.424 -0.0387  0.0982  0.7561
 1120TIP3    H124919   2.997   2.937   0.473 -0.8081  0.5931  0.2808
 1120TIP3    H224920   3.083   2.935   0.348 -1.2448  0.6736 -0.0257
 1121TIP3   OH224921   0.006   0.765   0.391 -0.0202 -0.1708 -0.2422
 1121TIP3    H124922  -0.034   0.720   0.466  2.0289 -1.9347 -0.0992
 1121TIP3    H224923   0.035   0.849   0.426 -0.3205 -0.3940  0.5714
 1122TIP3   OH224924   0.270   3.176   8.244  1.0532  0.1657  0.4130
 1122TIP3    H124925   0.196   3.148   8.190  1.5652  0.3909 -0.4194
 1122TIP3    H224926   0.331   3.102   8.240  1.5055  0.5574 -0.1037
 1123TIP3   OH224927   0.246   4.538   7.866 -0.0375 -0.1748 -0.4689
 1123TIP3    H124928   0.200   4.487   7.800  0.5954 -0.9415 -0.3383
 1123TIP3    H224929   0.322   4.574   7.820  1.1336 -1.7770  0.0864
 1124TIP3   OH224930   1.160   5.678   0.015  0.5880 -0.8528 -0.0045
 1124TIP3    H124931   1.211   5.601  -0.009 -0.3268 -0.8127 -2.2589
 1124TIP3    H224932   1.076   5.643   0.045  0.0824 -0.7480 -1.2646
 1125TIP3   OH224933   4.658   0.756   7.738 -0.0287  0.1282  0.3158
 1125TIP3    H124934   4.659   0.851   7.729  1.5975  0.2247  1.1175
 1125TIP3    H224935   4.629   0.724   7.653 -0.9424  1.3321  0.1460
 1126TIP3   OH224936   1.698   0.444   8.441 -0.0035 -0.5947 -0.9875
 1126TIP3    H124937   1.754   0.464   8.366  0.3662 -0.9880 -0.8221
 1126TIP3    H224938   1.651   0.365   8.415  0.3568 -0.9119 -0.6866
 1127TIP3   OH224939   0.268   1.114   8.243 -0.2184  0.3952  0.4544
 1127TIP3    H124940   0.199   1.180   8.235 -1.6834 -0.9813  1.2210
 1127TIP3    H224941   0.260   1.062   8.163  1.1025  1.2308 -0.2726
 1128TIP3   OH224942   6.873   4.976   8.389 -0.0049 -0.2336 -0.2183
 1128TIP3    H124943   6.849   5.040   8.322  1.7946  1.8308  0.9977
 1128TIP3    H224944   6.964   4.994   8.409 -0.1918 -1.4409  2.0781
 1129TIP3   OH224945   1.641   5.003   0.035 -0.4323  0.6023 -0.2138
 1129TIP3    H124946   1.592   5.086   0.038 -0.5054  0.5324  1.5923
 1129TIP3    H224947   1.729   5.025   0.066 -0.2411  0.1388 -0.4134
 1130TIP3   OH224948   6.670   0.698   7.984  0.0270  0.3817 -0.2389
 1130TIP3    H124949   6.608   0.693   8.057  2.3525  1.1587  1.9452
 1130TIP3    H224950   6.742   0.753   8.017  0.7246  1.7005 -3.5264
 1131TIP3   OH224951   4.723   4.219   0.967  0.4112  0.0197 -0.1962
 1131TIP3    H124952   4.759   4.270   0.895  1.4504 -2.5389 -1.6311
 1131TIP3    H224953   4.790   4.222   1.035 -0.4346  2.1772  0.6260
 1132TIP3   OH224954   3.234   5.881   0.397  0.0842  0.2533 -0.2211
 1132TIP3    H124955   3.304   5.823   0.423 -0.6277 -1.0599 -1.1169
 1132TIP3    H224956   3.278   5.953   0.352  0.9415  0.1626  0.4587
 1133TIP3   OH224957   1.802   4.029   0.964  0.0851 -0.0669 -0.0031
 1133TIP3    H124958   1.849   3.999   0.886  0.3026  1.8677 -0.6909
 1133TIP3    H224959   1.737   3.961   0.981  0.1673 -0.6533 -1.7619
 1134TIP3   OH224960   1.372   4.538   1.197 -0.3872 -0.0947 -0.1538
 1134TIP3    H124961   1.348   4.600   1.129  0.2284  2.2851  1.6541
 1134TIP3    H224962   1.409   4.592   1.267  0.3250 -2.5341  1.5033
 1135TIP3   OH224963   1.125   6.237   0.210  0.7886  0.7415  0.6446
 1135TIP3    H124964   1.117   6.181   0.133 -1.0589  0.6102  0.8953
 1135TIP3    H224965   1.130   6.177   0.284  0.6141  0.8903  0.7781
 1136TIP3   OH224966   4.964   1.135   8.165  0.4137 -0.3587  0.0198
 1136TIP3    H124967   5.017   1.140   8.244  1.7211 -1.6246 -0.7201
 1136TIP3    H224968   4.952   1.041   8.150 -2.5719 -0.1561  0.4589
 1137TIP3   OH224969   0.119   6.518   8.499 -0.6480  1.0485  0.0285
 1137TIP3    H124970   0.197   6.473   8.532 -0.8881  1.3160  0.9923
 1137TIP3    H224971   0.068   6.449   8.456  0.2093  0.9103 -0.8057
 1138TIP3   OH224972   5.470   1.999   1.840 -0.4854  0.1321  0.3524
 1138TIP3    H124973   5.414   2.011   1.917 -0.1174 -0.9497  0.8034
 1138TIP3    H224974   5.513   2.083   1.828 -2.7057  1.2320 -0.4183
 1139TIP3   OH224975   0.781   0.540   1.743  0.6714  0.4095 -0.0395
 1139TIP3    H124976   0.836   0.493   1.805  1.4392  2.2252  0.7262
 1139TIP3    H224977   0.753   0.619   1.791 -1.0642  0.4603 -1.0492
 1140TIP3   OH224978   1.959   0.277   7.545 -0.4494  0.0560 -0.2442
 1140TIP3    H124979   1.925   0.218   7.478 -0.8545  1.5493 -1.3937
 1140TIP3    H224980   1.909   0.254   7.624 -1.5937 -0.1910 -1.0131
 1141TIP3   OH224981   1.831   5.934   1.965  0.2173  0.2452  0.1429
 1141TIP3    H124982   1.778   5.884   1.902 -0.5937 -0.7441  1.5526
 1141TIP3    H224983   1.776   6.009   1.989  0.5012  0.5884 -0.2685
 1142TIP3   OH224984   6.056   4.118   0.651 -0.1113 -0.5145 -0.1853
 1142TIP3    H124985   6.048   4.203   0.693 -1.6375 -0.6950 -0.0681
 1142TIP3    H224986   5.966   4.087   0.641  0.3578 -1.6187 -1.2446
 1143TIP3   OH224987   2.463   4.339   0.892 -0.5243 -0.1997 -0.6414
 1143TIP3    H124988   2.457   4.265   0.832  1.9673 -1.0054 -0.0466
 1143TIP3    H224989   2.507   4.303   0.970 -0.7627  1.5288  0.3502
 1144TIP3   OH224990   0.807   6.186   0.852  0.4951 -0.3109 -0.6240
 1144TIP3    H124991   0.902   6.184   0.866  0.1778  0.3921  2.2916
 1144TIP3    H224992   0.772   6.134   0.924 -1.3681 -0.4654 -1.5909
 1145TIP3   OH224993   3.589   2.218   8.020 -0.0201  0.0665  0.3934
 1145TIP3    H124994   3.672   2.243   8.059  0.0597  0.3091  0.0763
 1145TIP3    H224995   3.593   2.253   7.931 -0.2976 -0.2639  0.2471
 1146TIP3   OH224996   5.316   5.451   6.698  0.2817 -0.2557  0.4094
 1146TIP3    H124997   5.335   5.542   6.722  0.2089 -0.6776  2.1867
 1146TIP3    H224998   5.264   5.458   6.618 -0.8095  1.3289  1.1940
 1147TIP3   OH224999   5.500   1.081   0.643 -0.3002 -0.2587 -0.0113
 1147TIP3    H125000   5.433   1.131   0.689  0.2428  0.7193 -0.2566
 1147TIP3    H225001   5.454   1.003   0.610 -0.7582 -0.8592  1.9141
 1148TIP3   OH225002   0.904   0.283   2.355 -0.4755 -0.9587 -0.7159
 1148TIP3    H125003   0.971   0.215   2.355 -0.3555 -0.8667  0.2498
 1148TIP3    H225004   0.952   0.365   2.358 -0.6125 -0.9002  0.3397
 1149TIP3   OH225005   3.865   4.924   1.258  0.4015 -0.4903  0.0074
 1149TIP3    H125006   3.801   4.932   1.329  1.5602 -1.8732  1.2656
 1149TIP3    H225007   3.936   4.983   1.283 -0.7631  1.8583 -1.9189
 1150TIP3   OH225008   2.645   4.964   1.517 -0.4526 -0.1106 -0.1032
 1150TIP3    H125009   2.556   4.985   1.544 -0.4864 -0.7395  0.3021
 1150TIP3    H225010   2.668   4.886   1.568  0.7208  0.6513  0.5862
 1151TIP3   OH225011   5.364   2.028   7.521 -0.4388  0.2597 -0.6549
 1151TIP3    H125012   5.406   1.965   7.579 -0.0665  1.1109  0.0286
 1151TIP3    H225013   5.393   2.005   7.433  1.0772  0.5187 -0.2486
 1152TIP3   OH225014   5.590   6.456   7.440 -0.5669 -0.8467 -0.1974
 1152TIP3    H125015   5.636   6.378   7.408  3.7687  1.2348  0.2285
 1152TIP3    H225016   5.594   6.518   7.368 -1.5121 -0.0836  0.3761
 1153TIP3   OH225017   2.780   5.856   1.018 -0.0371  0.4485  0.1631
 1153TIP3    H125018   2.708   5.913   0.991 -0.4962 -0.1604  0.0869
 1153TIP3    H225019   2.743   5.768   1.017  0.7859  0.0983 -0.1239
 1154TIP3   OH225020   2.114   4.994   2.928 -0.1548  0.1002 -0.3369
 1154TIP3    H125021   2.022   4.990   2.903  0.5286 -0.7535 -3.0557
 1154TIP3    H225022   2.153   4.914   2.893  1.9457  1.2362 -0.8224
 1155TIP3   OH225023   5.507   0.714   1.314  0.2759  0.4145 -0.1599
 1155TIP3    H125024   5.590   0.745   1.350  0.5150 -0.7289  0.3143
 1155TIP3    H225025   5.532   0.648   1.249 -0.2570 -0.2702  0.3089
 1156TIP3   OH225026   3.569   3.110   1.074 -0.0125 -0.3054 -0.3498
 1156TIP3    H125027   3.550   3.082   0.984  1.2036  0.6305 -0.9228
 1156TIP3    H225028   3.584   3.204   1.068 -0.0844 -0.1940  0.8808
 1157TIP3   OH225029   3.766   1.835   1.891  0.5662  0.7647  0.2811
 1157TIP3    H125030   3.680   1.876   1.877  0.8724  1.6209  0.8093
 1157TIP3    H225031   3.817   1.902   1.937  1.7070  0.4707 -0.5282
 1158TIP3   OH225032   3.778   6.590   1.104 -0.2855  0.3413 -0.1648
 1158TIP3    H125033   3.872   6.578   1.113  0.1050  1.5226 -2.0883
 1158TIP3    H225034   3.756   6.661   1.165 -0.0748 -0.3898  0.7790
 1159TIP3   OH225035   6.831   6.262   2.543 -0.7767  0.3915  0.3766
 1159TIP3    H125036   6.892   6.317   2.494 -0.6698 -0.4108 -0.4235
 1159TIP3    H225037   6.861   6.268   2.634  0.0560  0.5684  0.0988
 1160TIP3   OH225038   2.186   6.761   0.804 -0.0900  0.1819  0.4819
 1160TIP3    H125039   2.220   6.802   0.724 -0.3623 -0.1235  0.2072
 1160TIP3    H225040   2.199   6.827   0.872  0.8825  0.1457  0.3477
 1161TIP3   OH225041   0.075   0.046   1.133  0.7366  0.0080  0.0639
 1161TIP3    H125042   0.005   0.061   1.197  1.5804  0.5451  0.8737
 1161TIP3    H225043   0.070  -0.048   1.115  1.3954 -0.4478  2.0231
 1162TIP3   OH225044   5.325   3.097   1.493  0.0333  0.0625 -0.1770
 1162TIP3    H125045   5.414   3.130   1.479 -0.4143  1.5695  0.3244
 1162TIP3    H225046   5.300   3.060   1.408  0.7728  0.5704 -0.6333
 1163TIP3   OH225047   6.201   6.770   2.405 -0.0887 -0.1589  0.1565
 1163TIP3    H125048   6.119   6.738   2.368  0.0434 -0.0639 -0.2272
 1163TIP3    H225049   6.217   6.853   2.360 -0.4478  0.4778  1.1785
 1164TIP3   OH225050   0.903   3.935   2.513  0.3420  0.0712 -0.5147
 1164TIP3    H125051   0.871   4.025   2.503  0.8297  0.5469  1.7138
 1164TIP3    H225052   0.989   3.944   2.554  0.0941 -1.4327  0.4151
 1165TIP3   OH225053   3.306   0.861   1.729 -0.0199 -0.4885  0.5979
 1165TIP3    H125054   3.217   0.877   1.696 -0.7697  2.0281  3.4682
 1165TIP3    H225055   3.357   0.936   1.698 -1.2231  3.1800  6.1035
 1166TIP3   OH225056   0.468   2.535   1.564 -0.7548  0.3162  0.5534
 1166TIP3    H125057   0.560   2.557   1.548 -1.1495  1.7529  0.0626
 1166TIP3    H225058   0.435   2.510   1.478 -1.7065  3.4689 -0.1363
 1167TIP3   OH225059   6.627   4.813   7.262  0.4071 -0.1138  0.0836
 1167TIP3    H125060   6.662   4.898   7.289  0.5766 -0.3327  0.5648
 1167TIP3    H225061   6.664   4.798   7.175 -0.3154  0.6993 -0.3809
 1168TIP3   OH225062   4.975   4.748   0.651  0.3941 -0.0270  0.1892
 1168TIP3    H125063   4.904   4.744   0.586 -0.7634  0.4895  1.3651
 1168TIP3    H225064   5.012   4.661   0.652  0.8614  0.1180 -1.6174
 1169TIP3   OH225065   1.884   3.422   1.780 -0.8913 -0.1818 -0.9335
 1169TIP3    H125066   1.803   3.432   1.831 -0.2920  0.0568 -0.0120
 1169TIP3    H225067   1.883   3.495   1.719 -0.7326  0.5884 -0.0323
 1170TIP3   OH225068   4.405   4.772   1.386 -0.7861  0.8013  0.6596
 1170TIP3    H125069   4.387   4.866   1.392  1.9416  1.4633 -0.0012
 1170TIP3    H225070   4.496   4.764   1.415 -1.2041 -1.7861  1.4762
 1171TIP3   OH225071   2.329   6.378   1.639 -0.1589 -0.3024  0.3680
 1171TIP3    H125072   2.333   6.409   1.730 -1.4842 -1.6628  0.9319
 1171TIP3    H225073   2.376   6.294   1.640 -0.8309 -0.6915 -0.0226
 1172TIP3   OH225074   4.115   1.800   2.224 -0.2466  0.2475 -0.3575
 1172TIP3    H125075   4.176   1.729   2.244  0.6466  0.4649 -2.0781
 1172TIP3    H225076   4.160   1.851   2.156 -2.2680  0.4968 -1.5858
 1173TIP3   OH225077   3.052   3.269   0.426  0.2879 -0.0074 -0.3944
 1173TIP3    H125078   3.042   3.174   0.422 -2.8560 -0.0425  2.8061
 1173TIP3    H225079   2.963   3.303   0.413  1.0015  2.3660  0.3401
 1174TIP3   OH225080   2.989   5.139   0.982  0.0389 -0.2027 -0.4864
 1174TIP3    H125081   3.005   5.137   0.888 -0.4855 -0.6276 -0.5733
 1174TIP3    H225082   2.907   5.089   0.994  1.7476 -3.0157  0.5373
 1175TIP3   OH225083   6.865   1.747   2.683 -0.2267 -0.1202  0.2985
 1175TIP3    H125084   6.945   1.743   2.735 -0.9105  0.7499  1.4793
 1175TIP3    H225085   6.894   1.782   2.598  0.5595  0.8957  0.9510
 1176TIP3   OH225086   1.100   1.906   1.136 -0.1543 -0.2751  0.3581
 1176TIP3    H125087   1.070   1.910   1.045 -2.3904  0.4893  1.0504
 1176TIP3    H225088   1.027   1.864   1.182  1.1680 -1.1570  1.7387
 1177TIP3   OH225089   1.657   3.669   7.920 -0.2077 -0.4567  0.3300
 1177TIP3    H125090   1.588   3.658   7.985 -1.3299 -2.6150 -1.0819
 1177TIP3    H225091   1.716   3.594   7.934  0.9207  0.4238  0.4244
 1178TIP3   OH225092   1.916   2.640   2.051  0.1848  0.7488 -0.0125
 1178TIP3    H125093   1.929   2.659   1.958 -1.9987  0.2727 -0.4848
 1178TIP3    H225094   1.857   2.708   2.081  1.8793  1.6623  1.4116
 1179TIP3   OH225095   4.567   1.618   0.651  0.8129 -0.1804 -0.0724
 1179TIP3    H125096   4.612   1.687   0.699 -1.4505  1.3576 -0.0009
 1179TIP3    H225097   4.495   1.591   0.708 -0.8214  0.3892 -1.7437
 1180TIP3   OH225098   4.246   1.630   1.559 -0.0326 -0.5879 -0.1963
 1180TIP3    H125099   4.245   1.583   1.476 -2.5911  1.3299 -1.4204
 1180TIP3    H225100   4.302   1.706   1.542  0.7161 -1.0076  0.3741
 1181TIP3   OH225101   6.464   6.638   1.785 -0.2578  0.0153  0.2176
 1181TIP3    H125102   6.482   6.719   1.832 -1.2968  0.5224 -0.2411
 1181TIP3    H225103   6.370   6.622   1.799 -0.2372 -0.6764 -0.3578
 1182TIP3   OH225104   6.591   6.246   3.393 -0.2383 -0.8444  0.6857
 1182TIP3    H125105   6.666   6.203   3.352 -0.2257 -1.0138  0.8849
 1182TIP3    H225106   6.623   6.333   3.417 -0.8477  0.1261 -1.6469
 1183TIP3   OH225107   2.982   2.584   1.374  0.3068 -0.2202 -0.0263
 1183TIP3    H125108   2.933   2.584   1.291 -1.2750 -0.3823  0.8706
 1183TIP3    H225109   2.918   2.555   1.439  1.8916 -1.4480  1.0543
 1184TIP3   OH225110   5.469   3.109   6.833 -0.2623 -0.5742 -0.0315
 1184TIP3    H125111   5.394   3.167   6.846  0.1394 -0.1896  0.6502
 1184TIP3    H225112   5.452   3.066   6.749 -0.5746  0.5192 -0.5488
 1185TIP3   OH225113   3.581   1.599   2.640 -0.0664  0.4497  1.3114
 1185TIP3    H125114   3.500   1.551   2.659 -0.8605  1.9972  2.0149
 1185TIP3    H225115   3.570   1.683   2.683  2.0320  0.6329  1.6045
 1186TIP3   OH225116   6.416   0.670   2.482 -0.0432  0.3214  0.0629
 1186TIP3    H125117   6.438   0.737   2.416 -0.4076  0.3341 -0.0466
 1186TIP3    H225118   6.328   0.642   2.459 -0.6239  1.1324  1.2081
 1187TIP3   OH225119   4.905   1.577   7.555 -0.6326  0.2356  0.2909
 1187TIP3    H125120   4.910   1.595   7.462  0.3715 -0.0752  0.2709
 1187TIP3    H225121   4.983   1.618   7.592 -0.8282  0.0450  0.9392
 1188TIP3   OH225122   5.267   4.176   7.641 -0.0405 -0.0629  0.2191
 1188TIP3    H125123   5.352   4.218   7.622 -1.1062  2.0357 -0.2218
 1188TIP3    H225124   5.227   4.234   7.706 -0.5197 -1.8942  1.6304
 1189TIP3   OH225125   6.806   3.097   1.630 -0.1395  0.0720 -0.1711
 1189TIP3    H125126   6.873   3.158   1.598 -0.0048 -0.0382 -0.1013
 1189TIP3    H225127   6.800   3.116   1.723 -0.3295  0.1989 -0.2081
 1190TIP3   OH225128   6.053   1.000   8.061  0.2762 -0.5667 -0.0801
 1190TIP3    H125129   6.108   1.073   8.033 -2.6847  1.7447 -0.3312
 1190TIP3    H225130   6.020   0.962   7.980 -1.1467  0.3211  0.0391
 1191TIP3   OH225131   4.784   3.772   2.513  0.3005  0.3315  0.1741
 1191TIP3    H125132   4.727   3.731   2.577 -0.5269 -0.8553 -1.2662
 1191TIP3    H225133   4.860   3.802   2.564 -0.3331 -0.5211  1.6834
 1192TIP3   OH225134   2.796   3.450   0.434  0.2093  0.3959  0.0580
 1192TIP3    H125135   2.720   3.426   0.381  0.7507 -0.8181 -0.2079
 1192TIP3    H225136   2.857   3.488   0.372  1.2240 -1.8776 -0.4460
 1193TIP3   OH225137   2.186   1.679   7.909  0.7422 -0.1002 -0.2764
 1193TIP3    H125138   2.254   1.718   7.853  1.2858  0.3472  0.6799
 1193TIP3    H225139   2.234   1.634   7.978  0.0940  0.7936  0.7995
 1194TIP3   OH225140   1.561   1.998   7.321  0.2205 -0.0566  0.2791
 1194TIP3    H125141   1.495   2.063   7.345 -0.3556 -0.8148  0.7703
 1194TIP3    H225142   1.566   2.003   7.225 -1.2332 -0.6425  0.1608
 1195TIP3   OH225143   6.573   6.792   1.169  0.0956  0.4791  0.0128
 1195TIP3    H125144   6.659   6.771   1.205  0.4476  0.9327 -0.5456
 1195TIP3    H225145   6.542   6.865   1.223  0.3935  0.8138 -0.2663
 1196TIP3   OH225146   4.674   1.272   8.419  0.4415 -0.3288 -0.0628
 1196TIP3    H125147   4.693   1.207   8.486  0.7725 -0.1487  0.0217
 1196TIP3    H225148   4.645   1.350   8.468  0.2065 -0.3566 -0.1543
 1197TIP3   OH225149   3.692   0.126   2.080  0.4814  0.5241 -0.1546
 1197TIP3    H125150   3.671   0.084   2.164 -0.3026  2.3056  0.5946
 1197TIP3    H225151   3.617   0.106   2.024  0.4362  0.3542 -0.0353
 1198TIP3   OH225152   5.469   6.112   0.642  1.4361  0.2269 -0.1182
 1198TIP3    H125153   5.476   6.161   0.560  0.9362 -0.0050 -0.3029
 1198TIP3    H225154   5.431   6.174   0.704  0.3808 -0.0447 -0.4701
 1199TIP3   OH225155   2.764   3.009   2.049  0.3916  0.1890  0.9790
 1199TIP3    H125156   2.779   2.991   1.956  1.1654 -2.0397  1.4739
 1199TIP3    H225157   2.713   3.089   2.050  2.3469  1.6029 -1.2880
 1200TIP3   OH225158   3.144   6.852   8.124 -0.9883  0.1126 -0.2464
 1200TIP3    H125159   3.134   6.933   8.074 -0.5110  0.9202  0.9203
 1200TIP3    H225160   3.083   6.860   8.198 -0.6026 -0.3769  0.1400
 1201TIP3   OH225161   4.261   1.856   0.643 -0.1990 -0.4641 -0.0478
 1201TIP3    H125162   4.205   1.842   0.567 -1.1632  0.1553  0.5210
 1201TIP3    H225163   4.212   1.817   0.716  0.8628 -1.3422  0.2091
 1202TIP3   OH225164   3.182   6.410   0.567  0.1669 -0.8607  0.2911
 1202TIP3    H125165   3.247   6.440   0.631  0.9442  0.6578 -1.1492
 1202TIP3    H225166   3.231   6.357   0.505 -0.0339 -0.1072 -0.5380
 1203TIP3   OH225167   6.773   5.952   8.101  1.0441 -0.3058  0.2433
 1203TIP3    H125168   6.833   6.026   8.101 -0.0756  0.7086 -2.4842
 1203TIP3    H225169   6.825   5.879   8.135  3.7244  0.6424 -1.5012
 1204TIP3   OH225170   3.478   0.670   8.103 -0.7318  0.3999 -0.2482
 1204TIP3    H125171   3.424   0.616   8.045  0.1955 -1.2360  0.3432
 1204TIP3    H225172   3.473   0.758   8.066 -0.5727 -0.4935 -2.5173
 1205TIP3   OH225173   2.317   0.690   0.641  0.6011  0.3950 -0.0348
 1205TIP3    H125174   2.302   0.739   0.722 -2.0754 -3.2386  2.0029
 1205TIP3    H225175   2.353   0.607   0.670 -1.4621 -1.4888 -2.3521
 1206TIP3   OH225176   4.073   3.093   2.055  0.0198  0.4140 -0.1318
 1206TIP3    H125177   4.086   3.097   2.150  0.1300 -0.2248 -0.1127
 1206TIP3    H225178   4.131   3.160   2.020  0.6669  0.0415  0.2033
 1207TIP3   OH225179   4.978   6.731   7.874 -0.3386 -0.5255 -0.4133
 1207TIP3    H125180   4.969   6.645   7.916 -2.3832 -0.1942 -0.1083
 1207TIP3    H225181   5.066   6.760   7.899 -0.8277 -1.0891  2.2692
 1208TIP3   OH225182   6.592   3.703   0.055  0.0052  0.4582  0.1447
 1208TIP3    H125183   6.569   3.726   0.145 -1.9373  1.5106 -0.5720
 1208TIP3    H225184   6.677   3.660   0.063 -0.6955 -0.6592  2.6242
 1209TIP3   OH225185   2.607   6.627   1.726  0.0250 -0.0585  0.4680
 1209TIP3    H125186   2.548   6.695   1.694  0.9056  0.4450 -0.1668
 1209TIP3    H225187   2.550   6.555   1.752 -0.9001  0.7297  0.6666
 1210TIP3   OH225188   5.731   0.419   0.094 -0.7310  0.3354  0.1585
 1210TIP3    H125189   5.704   0.469   0.171 -1.2153 -0.1884  0.3366
 1210TIP3    H225190   5.802   0.363   0.125 -2.1091 -1.1837  0.6950
 1211TIP3   OH225191   6.825   1.241   7.748 -0.0522  0.1329  0.6396
 1211TIP3    H125192   6.751   1.256   7.808 -0.5608 -1.0510  0.3459
 1211TIP3    H225193   6.895   1.209   7.804  0.1580  0.9768  0.8774
 1212TIP3   OH225194   3.783   3.358   1.889 -0.2185  0.1757  0.1834
 1212TIP3    H125195   3.726   3.432   1.905  1.4620  1.3898  0.9501
 1212TIP3    H225196   3.853   3.392   1.833  0.8861 -0.6263  1.0021
 1213TIP3   OH225197   5.374   2.932   6.663 -0.2636  0.3531  0.0938
 1213TIP3    H125198   5.355   2.981   6.583 -1.0946 -0.0185  0.0531
 1213TIP3    H225199   5.464   2.900   6.651  0.1271  1.4660 -0.0754
 1214TIP3   OH225200   3.524   2.262   2.600  0.2335  0.2020  0.2723
 1214TIP3    H125201   3.610   2.233   2.572 -0.0325 -1.0505  0.7099
 1214TIP3    H225202   3.495   2.322   2.532  1.8371  1.3900  0.5874
 1215TIP3   OH225203   4.106   6.847   0.987 -0.8402  0.1070  0.2791
 1215TIP3    H125204   4.130   6.912   1.053 -1.7198  3.0110 -2.0287
 1215TIP3    H225205   4.011   6.856   0.978 -1.0164 -1.6877  0.0098
 1216TIP3   OH225206   1.860   5.266   1.038  0.3163  0.7887  0.0474
 1216TIP3    H125207   1.888   5.358   1.033  2.7571  0.0796 -0.9697
 1216TIP3    H225208   1.809   5.252   0.958  0.0464  1.2197  0.1401
 1217TIP3   OH225209   2.007   3.983   7.855  0.2968  0.4744 -0.5330
 1217TIP3    H125210   2.044   4.044   7.790  1.0075  1.0769  0.4138
 1217TIP3    H225211   2.074   3.977   7.923  0.0659 -1.0631 -0.3948
 1218TIP3   OH225212   3.335   3.952   1.666  0.0817 -0.0909 -0.5915
 1218TIP3    H125213   3.342   4.046   1.684 -0.4817  0.2793 -2.1536
 1218TIP3    H225214   3.345   3.945   1.571  1.3124 -1.7532 -0.3781
 1219TIP3   OH225215   6.170   2.423   7.584  0.2191 -0.1075  0.1839
 1219TIP3    H125216   6.154   2.338   7.544  0.8726 -0.2799  0.2844
 1219TIP3    H225217   6.213   2.474   7.515 -0.7154  0.3477 -0.0806
 1220TIP3   OH225218   1.636   0.357   2.240 -0.5043 -0.1925  0.3256
 1220TIP3    H125219   1.726   0.345   2.271 -0.6623 -1.9498  0.1892
 1220TIP3    H225220   1.589   0.392   2.316 -0.2979 -1.9138  1.2881
 1221TIP3   OH225221   1.572   0.803   2.003  0.5849  0.0052  0.1195
 1221TIP3    H125222   1.537   0.803   2.093 -0.0017  0.3885 -0.1030
 1221TIP3    H225223   1.514   0.744   1.955 -1.2022  2.3110 -0.7759
 1222TIP3   OH225224   3.084   6.356   1.599 -0.1384  0.7449 -0.2472
 1222TIP3    H125225   3.041   6.440   1.581  0.4180  1.0479 -0.1877
 1222TIP3    H225226   3.029   6.291   1.555 -1.8184  0.8750  1.4918
 1223TIP3   OH225227   0.283   1.283   1.241 -0.3755  0.0111 -0.3344
 1223TIP3    H125228   0.312   1.211   1.186  1.8209 -0.4627  1.3095
 1223TIP3    H225229   0.241   1.241   1.316 -0.9332  0.5394 -0.3420
 1224TIP3   OH225230   5.857   1.091   0.382 -0.1468 -0.0829  0.5338
 1224TIP3    H125231   5.784   1.109   0.323  0.4705 -0.8113 -0.4695
 1224TIP3    H225232   5.882   1.178   0.415  0.7386  0.5941 -1.7659
 1225TIP3   OH225233   3.410   2.034   0.905 -0.6022  0.6140  0.2253
 1225TIP3    H125234   3.322   2.072   0.908 -0.6611  0.4991  3.1465
 1225TIP3    H225235   3.426   2.004   0.994  1.6721 -1.1479 -0.6720
 1226TIP3   OH225236   4.131   3.984   1.715 -0.4492 -0.4197 -0.1312
 1226TIP3    H125237   4.156   3.954   1.802 -1.4258  3.3407  1.6690
 1226TIP3    H225238   4.039   3.961   1.706 -0.6573  0.1936  0.3684
 1227TIP3   OH225239   3.266   1.917   1.995 -0.0014 -0.2068 -0.1018
 1227TIP3    H125240   3.203   1.852   1.963  0.0402 -1.1771  1.6694
 1227TIP3    H225241   3.272   1.901   2.089  1.1457  1.4103  0.1447
 1228TIP3   OH225242   5.651   0.664   2.245  0.4101 -0.1370 -0.3579
 1228TIP3    H125243   5.621   0.733   2.303  2.4165 -0.3528  1.0202
 1228TIP3    H225244   5.719   0.618   2.294  0.7008 -1.6856 -2.0758
 1229TIP3   OH225245   1.933   5.505   2.665  0.3035  0.2062 -0.1427
 1229TIP3    H125246   2.010   5.559   2.684 -0.7710  1.4491  0.9179
 1229TIP3    H225247   1.924   5.448   2.742  1.1958 -1.2355 -1.0785
 1230TIP3   OH225248   2.940   1.659   0.030  0.0646 -0.5754 -0.6220
 1230TIP3    H125249   3.035   1.668   0.023  0.1261 -1.4812 -1.0965
 1230TIP3    H225250   2.911   1.740   0.072  1.2999 -1.2674  1.7957
 1231TIP3   OH225251   4.813   1.038   1.805  0.4974 -0.1810  0.2006
 1231TIP3    H125252   4.895   1.044   1.854 -0.0162 -0.9758  1.2040
 1231TIP3    H225253   4.779   0.951   1.827  0.0526 -0.4202 -1.2889
 1232TIP3   OH225254   1.872   6.661   3.134 -0.3666 -0.0876  0.2395
 1232TIP3    H125255   1.931   6.728   3.168  1.3508 -0.3730 -1.9329
 1232TIP3    H225256   1.815   6.707   3.073  0.9739 -0.5763 -1.4378
 1233TIP3   OH225257   4.371   6.797   2.924 -0.4075  0.2339  0.5734
 1233TIP3    H125258   4.410   6.841   2.999 -1.3009  1.5638  0.3101
 1233TIP3    H225259   4.444   6.780   2.865 -0.0408  1.5853  0.6020
 1234TIP3   OH225260   0.542   2.175   1.551  0.0870 -0.1853 -0.3040
 1234TIP3    H125261   0.575   2.139   1.634 -1.7634 -0.2482  0.4546
 1234TIP3    H225262   0.482   2.245   1.578 -2.4359 -1.7775 -1.4556
 1235TIP3   OH225263   6.081   0.717   7.882 -0.2638  0.4902 -0.2049
 1235TIP3    H125264   6.174   0.712   7.903 -0.3834  0.0453  0.2223
 1235TIP3    H225265   6.073   0.797   7.830  0.3086  0.6870  0.0018
 1236TIP3   OH225266   6.774   6.335   1.828 -0.1352 -0.1141 -0.4692
 1236TIP3    H125267   6.780   6.388   1.907  0.2338 -0.3731 -0.3171
 1236TIP3    H225268   6.686   6.352   1.793  0.2805  1.2669 -0.9130
 1237TIP3   OH225269   6.313   3.289   0.807 -0.3248 -0.1118 -0.1104
 1237TIP3    H125270   6.288   3.360   0.867 -1.6445 -0.6039 -0.0376
 1237TIP3    H225271   6.361   3.227   0.861 -0.1274  0.2058  0.0802
 1238TIP3   OH225272   2.127   1.686   8.473 -0.1106  0.2965 -0.0428
 1238TIP3    H125273   2.157   1.768   8.434 -0.1127  0.1515 -0.3542
 1238TIP3    H225274   2.075   1.644   8.404 -0.7072  0.3649  0.3580
 1239TIP3   OH225275   0.383   0.622   0.012 -0.0061  0.1250  0.1703
 1239TIP3    H125276   0.305   0.566   0.009  0.4991 -0.6114  0.4496
 1239TIP3    H225277   0.457   0.561   0.004  0.5306  0.8958 -1.0457
 1240TIP3   OH225278   5.688   0.130   0.335  0.4067 -0.4401  0.3228
 1240TIP3    H125279   5.600   0.118   0.298  0.2685 -1.1177  0.8617
 1240TIP3    H225280   5.674   0.177   0.417  0.7113  1.0169 -0.4301
 1241TIP3   OH225281   5.369   4.804   0.086 -0.0170 -0.0429  0.1279
 1241TIP3    H125282   5.410   4.732   0.134  0.6029 -0.9552 -1.6647
 1241TIP3    H225283   5.293   4.764   0.042 -1.6866  1.1703  1.7286
 1242TIP3   OH225284   5.839   2.897   8.420  0.0342  0.4729 -0.3704
 1242TIP3    H125285   5.910   2.913   8.483 -0.5690 -0.0559  0.4697
 1242TIP3    H225286   5.780   2.971   8.431  1.0451  1.6059 -1.9915
 1243TIP3   OH225287   5.124   4.107   8.556 -0.1333 -0.3743  0.3207
 1243TIP3    H125288   5.100   4.077   8.468 -0.7368 -1.1866  0.7582
 1243TIP3    H225289   5.143   4.200   8.544  0.8910 -0.7110 -0.8797
 1244TIP3   OH225290   3.501   6.626   2.892  0.2056  0.1234  0.1527
 1244TIP3    H125291   3.485   6.719   2.910  2.2618  0.8332 -1.3193
 1244TIP3    H225292   3.588   6.624   2.853  0.3539 -2.4945  0.4769
 1245TIP3   OH225293   5.268   3.793   8.321 -0.0431  0.3978 -0.6091
 1245TIP3    H125294   5.295   3.884   8.313  0.6611  0.1789 -0.7909
 1245TIP3    H225295   5.347   3.747   8.348 -0.6152 -0.0153  0.4229
 1246TIP3   OH225296   6.467   1.789   7.330  0.0818 -0.5418 -0.0472
 1246TIP3    H125297   6.450   1.758   7.241  0.7676  0.8204 -0.6818
 1246TIP3    H225298   6.486   1.882   7.320  1.8396 -0.7006  1.3147
 1247TIP3   OH225299   1.123   6.469   7.962 -0.1993 -0.2159  0.2759
 1247TIP3    H125300   1.178   6.430   8.030  0.8119 -0.0245 -0.4096
 1247TIP3    H225301   1.184   6.495   7.893 -1.1283  0.2229 -0.4122
 1248TIP3   OH225302   3.760   3.354   7.854 -0.5292  0.3908 -0.2740
 1248TIP3    H125303   3.758   3.414   7.780 -1.5211  1.5964  0.6776
 1248TIP3    H225304   3.685   3.297   7.841  0.6421 -0.9550 -1.3876
 1249TIP3   OH225305   4.808   0.051   2.248  0.2055  0.3371  0.4433
 1249TIP3    H125306   4.813   0.023   2.339  0.6590  0.7356  0.5470
 1249TIP3    H225307   4.806  -0.031   2.198 -1.1195  0.1033  0.8478
 1250TIP3   OH225308   1.524   0.039   8.601 -0.3423  0.3486 -0.2766
 1250TIP3    H125309   1.571  -0.036   8.565 -2.0352 -1.3810  0.8902
 1250TIP3    H225310   1.568   0.059   8.683 -1.3398 -1.0476  0.6463
 1251TIP3   OH225311   4.829   2.370   2.336 -0.1150  1.0079 -0.2606
 1251TIP3    H125312   4.791   2.285   2.359  0.6050  1.0733  1.2788
 1251TIP3    H225313   4.765   2.434   2.365 -1.4133  1.0180 -2.8782
 1252TIP3   OH225314   5.048   1.294   0.432 -0.1129 -0.0854 -0.4197
 1252TIP3    H125315   4.994   1.341   0.368 -0.3077 -0.3257 -0.4318
 1252TIP3    H225316   4.992   1.224   0.465  0.2705 -0.4899 -0.6120
 1253TIP3   OH225317   5.439   6.079   8.638  0.1609 -0.2023  0.2419
 1253TIP3    H125318   5.378   6.084   8.712  0.2081  0.1453  0.2592
 1253TIP3    H225319   5.414   5.999   8.591 -0.7139  0.2560 -0.1014
 1254TIP3   OH225320   1.955   4.682   0.351  1.0388 -0.0453  0.4752
 1254TIP3    H125321   1.978   4.766   0.391 -0.3824  0.2097  0.8110
 1254TIP3    H225322   1.908   4.635   0.420  2.0008 -1.2116  0.3557
 1255TIP3   OH225323   4.348   3.378   8.031 -0.1710 -0.2233 -0.2353
 1255TIP3    H125324   4.378   3.340   7.949  1.5451  0.7898 -0.1155
 1255TIP3    H225325   4.290   3.449   8.005  0.2549  0.0017 -0.5779
 1256TIP3   OH225326   3.091   1.657   2.344  0.2637 -0.2855 -0.7531
 1256TIP3    H125327   3.067   1.640   2.435 -0.0881  2.4429 -0.2483
 1256TIP3    H225328   3.174   1.703   2.349 -0.0489  0.4225 -1.7545
 1257TIP3   OH225329   5.075   0.376   2.138  0.0768  0.1356 -0.1435
 1257TIP3    H125330   5.085   0.470   2.148 -1.8281  0.6622 -2.4927
 1257TIP3    H225331   5.127   0.354   2.060  1.4584 -1.0227  1.0295
 1258TIP3   OH225332   2.438   5.341   8.245  0.2838  0.5032  0.5339
 1258TIP3    H125333   2.516   5.366   8.195  0.9507  0.3753  1.4947
 1258TIP3    H225334   2.462   5.354   8.336  0.2431 -2.4322  1.0486
 1259TIP3   OH225335   1.933   1.650   0.569  0.3014  0.5632  0.6836
 1259TIP3    H125336   1.838   1.640   0.578  0.3701 -0.8800  0.0480
 1259TIP3    H225337   1.944   1.716   0.500 -0.2063  1.9837  1.9099
 1260TIP3   OH225338   1.194   3.189   1.690  0.4449 -0.8397 -0.2925
 1260TIP3    H125339   1.154   3.199   1.777 -1.1347 -2.1685 -0.8197
 1260TIP3    H225340   1.123   3.208   1.629  1.3558 -0.6203 -1.3046
 1261TIP3   OH225341   0.615   5.340   7.672  0.1552 -0.0696 -0.0062
 1261TIP3    H125342   0.525   5.339   7.641 -0.0240  0.0442  0.4971
 1261TIP3    H225343   0.621   5.419   7.726  0.7494  0.2938 -0.5883
 1262TIP3   OH225344   0.345   5.156   0.630 -0.8429 -0.1319 -0.0008
 1262TIP3    H125345   0.363   5.249   0.619  1.4134 -0.5310 -0.1010
 1262TIP3    H225346   0.249   5.150   0.626 -1.0676  2.2001  0.3650
 1263TIP3   OH225347   1.160   1.761   1.466  0.1306  0.0986 -0.1912
 1263TIP3    H125348   1.130   1.809   1.544  0.1315  3.2541 -1.9906
 1263TIP3    H225349   1.234   1.709   1.498 -0.4292  0.5496  2.0809
 1264TIP3   OH225350   6.302   5.257   1.536  0.0488 -0.6412  0.3848
 1264TIP3    H125351   6.222   5.309   1.542  0.1498 -0.5660  1.2038
 1264TIP3    H225352   6.303   5.205   1.617  1.6045  0.4945  1.1304
 1265TIP3   OH225353   2.416   6.838   7.968 -0.0202  0.1516 -0.4687
 1265TIP3    H125354   2.395   6.924   8.004  0.2025  0.3059 -0.7000
 1265TIP3    H225355   2.341   6.815   7.914  0.1898  0.4849 -0.9092
 1266TIP3   OH225356   3.217   3.640   2.876 -0.3433 -0.1751  0.7693
 1266TIP3    H125357   3.229   3.730   2.908  2.8996 -0.0604 -0.3622
 1266TIP3    H225358   3.144   3.646   2.815  1.1536  2.2876 -0.9951
 1267TIP3   OH225359   6.305   5.575   7.828 -0.0239 -0.0728  0.8318
 1267TIP3    H125360   6.236   5.640   7.817 -0.4054 -0.5308  0.4916
 1267TIP3    H225361   6.281   5.504   7.769  1.9827  0.7587 -1.1297
 1268TIP3   OH225362   2.784   4.908   0.150 -0.2589  0.0857  0.1062
 1268TIP3    H125363   2.745   4.870   0.071  1.5130 -2.2719  0.2498
 1268TIP3    H225364   2.875   4.927   0.126  0.7098 -1.8892  1.8313
 1269TIP3   OH225365   5.484   2.491   8.152 -0.3513 -0.0575 -0.7079
 1269TIP3    H125366   5.510   2.439   8.076  1.7395 -0.5162  0.2759
 1269TIP3    H225367   5.541   2.568   8.149 -0.4350  0.0504  0.2727
 1270TIP3   OH225368   6.732   3.570   8.464  0.4435 -0.3774  0.0155
 1270TIP3    H125369   6.786   3.570   8.543 -0.6322 -2.0317  0.7949
 1270TIP3    H225370   6.653   3.524   8.489  0.9067 -2.8455 -2.5672
 1271TIP3   OH225371   3.449   3.259   7.558 -0.7375 -0.1627 -0.9676
 1271TIP3    H125372   3.463   3.282   7.467 -0.4155  1.8804 -0.4411
 1271TIP3    H225373   3.355   3.241   7.564 -1.2528  2.1261 -1.2562
 1272TIP3   OH225374   6.845   1.568   2.458  0.6964  0.6072  0.2282
 1272TIP3    H125375   6.766   1.587   2.408  1.4369  1.1892 -0.7604
 1272TIP3    H225376   6.840   1.627   2.534  0.6343  1.3450 -0.3312
 1273TIP3   OH225377   2.827   3.317   1.268  0.3234  0.3291 -0.3100
 1273TIP3    H125378   2.802   3.243   1.323  2.1594 -0.7152 -0.7979
 1273TIP3    H225379   2.837   3.390   1.330  1.4088 -0.5851  0.6506
 1274TIP3   OH225380   1.400   1.307   8.598 -0.4065 -0.0276  0.3227
 1274TIP3    H125381   1.458   1.381   8.617 -0.5474  0.2480 -0.2990
 1274TIP3    H225382   1.459   1.231   8.593 -0.0783  0.2750 -0.4572
 1275TIP3   OH225383   0.511   1.026   8.380 -0.1789  0.4289 -0.2332
 1275TIP3    H125384   0.542   1.108   8.419 -0.0495  1.3087 -2.0604
 1275TIP3    H225385   0.446   1.054   8.316 -0.7635 -0.9828 -0.2847
 1276TIP3   OH225386   4.872   2.385   0.943  0.0779  0.1016 -0.5433
 1276TIP3    H125387   4.895   2.302   0.900 -0.0256  0.2999 -0.9758
 1276TIP3    H225388   4.956   2.420   0.973  0.1785  0.0930 -0.8143
 1277TIP3   OH225389   5.264   6.209   8.450  0.0099  0.3535  0.3338
 1277TIP3    H125390   5.256   6.304   8.437 -0.6743  0.2993  0.3158
 1277TIP3    H225391   5.252   6.197   8.544 -0.4530  0.2417  0.2656
 1278TIP3   OH225392   1.363   1.598   3.063  0.2475  0.0860 -0.2941
 1278TIP3    H125393   1.330   1.548   3.137  1.3062  0.0743  0.1824
 1278TIP3    H225394   1.458   1.599   3.074  0.5422 -0.8925 -2.2606
 1279TIP3   OH225395   0.228   1.141   1.875  0.0232  0.2736  0.0896
 1279TIP3    H125396   0.299   1.198   1.904  0.2323 -0.7398  1.6436
 1279TIP3    H225397   0.265   1.053   1.876 -0.6231 -0.0372 -1.2078
 1280TIP3   OH225398   0.320   0.658   0.347 -0.0280 -0.5875 -0.3079
 1280TIP3    H125399   0.303   0.672   0.440 -1.1555  1.4219 -0.7436
 1280TIP3    H225400   0.293   0.568   0.330 -1.4514 -0.4293  0.9637
 1281TIP3   OH225401   4.717   6.200   0.334 -0.4180 -0.0803  0.1503
 1281TIP3    H125402   4.674   6.162   0.258 -1.0119  1.7152 -0.4707
 1281TIP3    H225403   4.766   6.128   0.373 -1.6220 -1.4827 -0.8326
 1282TIP3   OH225404   3.557   5.529   7.761 -1.0261  0.2023 -0.3521
 1282TIP3    H125405   3.646   5.502   7.742 -0.9956  0.6265 -0.8404
 1282TIP3    H225406   3.504   5.450   7.751 -0.6824 -0.0972  0.1454
 1283TIP3   OH225407   2.114   3.101   1.393  0.0653  0.1735  0.3509
 1283TIP3    H125408   2.184   3.154   1.356 -0.4483  0.9011  0.4062
 1283TIP3    H225409   2.089   3.042   1.322  0.7623 -0.1246  0.3468
 1284TIP3   OH225410   5.637   0.643   0.275  0.0680 -0.2310  0.1123
 1284TIP3    H125411   5.548   0.614   0.257  0.1075  0.0021 -0.4980
 1284TIP3    H225412   5.630   0.738   0.280  0.4290 -0.1366 -0.8858
 1285TIP3   OH225413   2.936   4.957   8.401 -0.0008  0.1683  0.4802
 1285TIP3    H125414   2.903   4.980   8.487  0.9586 -0.8219  1.1295
 1285TIP3    H225415   3.030   4.972   8.406 -0.0348  0.9506 -0.6865
 1286TIP3   OH225416   4.411   3.670   1.763  0.0950 -0.0788 -0.0702
 1286TIP3    H125417   4.434   3.722   1.686 -0.5305  1.3621  0.7004
 1286TIP3    H225418   4.341   3.612   1.732 -1.3127  1.6193 -0.2345
 1287TIP3   OH225419   3.186   4.071   0.664 -0.2160  0.1631 -0.0484
 1287TIP3    H125420   3.133   4.010   0.613  1.5758 -1.0276 -0.5707
 1287TIP3    H225421   3.180   4.153   0.617 -1.8350  0.1583  0.0903
 1288TIP3   OH225422   2.552   1.346   7.333 -0.1213  0.4908 -0.5878
 1288TIP3    H125423   2.580   1.260   7.364  0.8638  0.7041 -0.8683
 1288TIP3    H225424   2.521   1.391   7.412 -0.0433  0.1149 -0.3397
 1289TIP3   OH225425   1.454   0.368   0.185  0.4278 -0.1456 -0.0375
 1289TIP3    H125426   1.514   0.314   0.235  1.1321 -0.6106 -1.3579
 1289TIP3    H225427   1.510   0.432   0.141 -0.1215 -0.0864 -0.6601
 1290TIP3   OH225428   5.808   0.941   8.507 -0.6471  0.2443 -0.4843
 1290TIP3    H125429   5.864   0.871   8.475 -0.7322  0.7851 -1.9073
 1290TIP3    H225430   5.857   1.022   8.488 -0.1899  0.5946  1.8341
 1291TIP3   OH225431   5.933   4.017   7.201 -0.4882 -0.2953  0.0883
 1291TIP3    H125432   5.985   3.985   7.127 -2.2733  0.4360 -1.5930
 1291TIP3    H225433   5.863   4.070   7.160 -0.5528  1.6034  2.4091
 1292TIP3   OH225434   2.082   0.021   1.635 -0.1973 -0.0972  0.0617
 1292TIP3    H125435   2.142  -0.048   1.604  0.5082 -0.1604  1.4843
 1292TIP3    H225436   1.995  -0.016   1.624 -0.0237 -0.0194 -2.0328
 1293TIP3   OH225437   2.725   6.124   0.588  0.3278 -0.6031 -0.5604
 1293TIP3    H125438   2.673   6.115   0.508 -0.3123  0.1727 -0.2417
 1293TIP3    H225439   2.801   6.176   0.561  0.6240 -1.1842 -0.8783
 1294TIP3   OH225440   2.708   0.762   7.956 -0.1433 -0.2618  1.0129
 1294TIP3    H125441   2.662   0.787   8.036 -0.8112 -0.0565  0.5683
 1294TIP3    H225442   2.714   0.667   7.960  0.3690 -0.2148  1.5951
 1295TIP3   OH225443   5.479   4.572   2.481  0.2055 -0.0143  0.1235
 1295TIP3    H125444   5.483   4.634   2.553 -0.0801  1.6721 -1.2403
 1295TIP3    H225445   5.407   4.514   2.502  0.3781  0.2003  1.3661
 1296TIP3   OH225446   4.076   6.457   7.158 -0.2546  0.5476 -0.3527
 1296TIP3    H125447   4.022   6.378   7.154  3.2013 -1.9908 -1.3847
 1296TIP3    H225448   4.044   6.511   7.086 -0.5550 -1.5173 -1.8563
 1297TIP3   OH225449   4.473   2.607   8.610 -0.3099  0.2141 -0.5069
 1297TIP3    H125450   4.522   2.533   8.575 -1.2015  0.1312 -1.6447
 1297TIP3    H225451   4.535   2.652   8.667  1.2621  0.3750 -2.2349
 1298TIP3   OH225452   2.185   5.438   8.264 -0.0963 -0.0070  0.1100
 1298TIP3    H125453   2.248   5.402   8.201 -1.7255  0.0706 -1.6718
 1298TIP3    H225454   2.232   5.511   8.305  1.1544 -0.2735 -0.7850
 1299TIP3   OH225455   3.387   4.854   1.157  0.4457  0.5450  0.3964
 1299TIP3    H125456   3.479   4.861   1.131  0.7823 -1.8142  0.7243
 1299TIP3    H225457   3.388   4.801   1.236 -1.2411 -0.1707 -0.0034
 1300TIP3   OH225458   4.758   3.788   8.307 -0.0458 -0.5895 -0.1140
 1300TIP3    H125459   4.743   3.879   8.332 -0.2583 -0.9328  1.0850
 1300TIP3    H225460   4.724   3.781   8.218 -0.2676  0.4378 -0.1131
 1301TIP3   OH225461   5.038   3.055   0.139 -0.6732  0.1843  0.6535
 1301TIP3    H125462   5.112   3.000   0.113 -1.1934 -1.0767  1.7163
 1301TIP3    H225463   5.044   3.132   0.083  2.0496  0.6005  1.3683
 1302TIP3   OH225464   0.045   1.271   1.716 -0.7775 -0.5818 -0.0905
 1302TIP3    H125465  -0.041   1.229   1.711 -0.9554 -0.2508  0.1316
 1302TIP3    H225466   0.095   1.218   1.778 -1.2055 -0.1171  0.6690
 1303TIP3   OH225467   4.516   4.958   2.140 -0.6392  0.3696 -0.0354
 1303TIP3    H125468   4.514   4.885   2.201 -1.0437  1.2200  0.9921
 1303TIP3    H225469   4.601   4.951   2.097 -0.3418 -0.2192  0.6366
 1304TIP3   OH225470   6.318   4.820   8.072  0.1261 -0.6599 -0.0600
 1304TIP3    H125471   6.344   4.858   7.988  1.0150  1.2910  1.0120
 1304TIP3    H225472   6.376   4.862   8.136 -1.9288 -0.4219  1.7772
 1305TIP3   OH225473   1.006   0.462   0.470  0.0191 -0.1683  0.3724
 1305TIP3    H125474   1.006   0.548   0.511  1.2510 -0.2746  0.6591
 1305TIP3    H225475   1.080   0.465   0.408 -2.1394  0.1988 -2.3623
 1306TIP3   OH225476   0.555   2.960   7.641  0.0101 -0.3014  0.4806
 1306TIP3    H125477   0.460   2.957   7.645  0.0134 -0.3678  0.5087
 1306TIP3    H225478   0.575   2.962   7.547  0.0597 -3.2365  0.3360
 1307TIP3   OH225479   6.494   6.846   1.973 -0.2532 -0.0711  0.5253
 1307TIP3    H125480   6.586   6.848   1.999  0.1275  0.2690 -0.7381
 1307TIP3    H225481   6.448   6.808   2.047  0.9943 -0.8539  0.9266
 1308TIP3   OH225482   1.100   5.765   0.524  0.3413  0.3043 -0.0488
 1308TIP3    H125483   1.031   5.709   0.559 -0.0684  0.0133 -1.2715
 1308TIP3    H225484   1.062   5.853   0.525  0.2067  0.2468 -0.0735
 1309TIP3   OH225485   1.729   6.866   0.984  0.2625  0.1506 -0.1538
 1309TIP3    H125486   1.817   6.844   1.015 -0.2699 -0.7309  0.7748
 1309TIP3    H225487   1.703   6.942   1.037  0.0774 -0.2102  0.2766
 1310TIP3   OH225488   0.704   1.205   8.183  0.3167 -0.1855 -0.2219
 1310TIP3    H125489   0.791   1.242   8.166 -0.0555  1.0102  0.2926
 1310TIP3    H225490   0.720   1.113   8.200  1.6661  0.2505  1.1211
 1311TIP3   OH225491   0.490   0.963   1.083 -0.3534  0.1000 -0.7371
 1311TIP3    H125492   0.461   1.004   1.164  0.4060 -1.4945  0.3779
 1311TIP3    H225493   0.413   0.967   1.026 -1.1912  0.4161  0.3757
 1312TIP3   OH225494   5.963   2.110   2.615  0.4747 -0.5190  0.0407
 1312TIP3    H125495   5.954   2.130   2.708  0.9848 -0.2297  0.0335
 1312TIP3    H225496   5.938   2.191   2.570  0.2358 -0.6556 -0.0738
 1313TIP3   OH225497   2.205   5.401   7.332 -0.0015  0.4473 -0.5826
 1313TIP3    H125498   2.186   5.333   7.396  0.3740  1.4181  0.5862
 1313TIP3    H225499   2.208   5.354   7.248  0.9888 -1.1009  0.2760
 1314TIP3   OH225500   0.312   2.546   1.782  0.2819  0.0068  0.0771
 1314TIP3    H125501   0.403   2.534   1.752  0.9127  0.7562  1.5920
 1314TIP3    H225502   0.259   2.512   1.710  1.7529 -0.1189 -1.0026
 1315TIP3   OH225503   3.810   6.461   0.675 -0.4436  0.4046 -0.4105
 1315TIP3    H125504   3.757   6.477   0.753  0.1994  1.7731 -0.2283
 1315TIP3    H225505   3.770   6.516   0.607  0.3550  0.9793 -0.4289
 1316TIP3   OH225506   0.520   2.677   0.936 -0.3904 -0.1060 -0.4147
 1316TIP3    H125507   0.598   2.702   0.985 -1.4070  2.6121 -0.0168
 1316TIP3    H225508   0.528   2.722   0.853 -1.3927 -0.0570 -0.4928
 1317TIP3   OH225509   3.679   5.265   0.616  0.8262  0.1887  0.0614
 1317TIP3    H125510   3.714   5.199   0.556 -2.8085 -3.1647  1.1923
 1317TIP3    H225511   3.743   5.269   0.688  1.1908 -2.1879 -0.0612
 1318TIP3   OH225512   0.708   5.235   2.168  0.3869  0.1538  0.4894
 1318TIP3    H125513   0.776   5.229   2.235  0.0273 -0.7385  0.7908
 1318TIP3    H225514   0.630   5.266   2.216  0.2920  0.1135  0.3614
 1319TIP3   OH225515   3.821   0.774   8.196  0.5564  0.0017 -0.0583
 1319TIP3    H125516   3.859   0.862   8.197  1.2262 -0.2439 -1.6197
 1319TIP3    H225517   3.802   0.756   8.104 -0.4366 -1.1356  0.3386
 1320TIP3   OH225518   2.994   0.833   2.697  0.3149  0.1000  0.2974
 1320TIP3    H125519   3.040   0.896   2.751  1.1204 -1.4835  1.5263
 1320TIP3    H225520   2.920   0.805   2.750 -0.1188  0.0908 -0.2945
 1321TIP3   OH225521   5.653   1.272   8.283  0.1481  0.1638 -0.1933
 1321TIP3    H125522   5.666   1.364   8.307  0.4840  0.1298 -0.2327
 1321TIP3    H225523   5.561   1.256   8.299  0.2549  0.2864  0.6017
 1322TIP3   OH225524   3.291   6.728   7.363 -0.3777  0.3721 -0.3702
 1322TIP3    H125525   3.368   6.686   7.324  0.2224 -0.5797  1.6925
 1322TIP3    H225526   3.263   6.792   7.297  0.9841 -0.6121 -2.0059
 1323TIP3   OH225527   3.606   6.774   6.959  0.1094 -0.0896  1.1754
 1323TIP3    H125528   3.539   6.842   6.956 -1.0165 -1.1860 -0.0925
 1323TIP3    H225529   3.574   6.711   7.024 -0.7754 -1.2338 -0.3088
 1324TIP3   OH225530   0.539   1.430   8.161  0.3656  0.3778  0.0640
 1324TIP3    H125531   0.481   1.445   8.236  1.1501  0.0953  0.7410
 1324TIP3    H225532   0.577   1.344   8.177 -2.1599 -1.3721 -2.4901
 1325TIP3   OH225533   3.473   0.304   6.679 -0.0663 -0.1434  0.2043
 1325TIP3    H125534   3.469   0.390   6.638  1.3834  0.0119  0.3425
 1325TIP3    H225535   3.563   0.274   6.664 -0.2428 -1.1839  1.0613
 1326TIP3   OH225536   4.853   2.116   1.281 -0.0667  0.1399  0.3158
 1326TIP3    H125537   4.822   2.075   1.362 -1.7060 -2.6630 -1.5687
 1326TIP3    H225538   4.865   2.043   1.220  1.7857  2.0642 -1.8053
 1327TIP3   OH225539   6.467   5.500   0.287  0.2571 -0.0859 -0.1353
 1327TIP3    H125540   6.417   5.574   0.253  0.0138 -0.6697 -1.0753
 1327TIP3    H225541   6.407   5.454   0.345  0.6029  0.7876  0.9506
 1328TIP3   OH225542   1.929   6.099   2.825 -0.0354 -0.1807 -0.3213
 1328TIP3    H125543   2.005   6.054   2.862 -0.2943 -0.3253  0.0398
 1328TIP3    H225544   1.860   6.088   2.890 -0.6312 -0.8271 -1.0384
 1329TIP3   OH225545   3.560   2.020   1.646  0.4277  0.3412 -0.0899
 1329TIP3    H125546   3.655   2.005   1.643  0.3649 -0.1699  0.2731
 1329TIP3    H225547   3.552   2.112   1.668  0.8556  0.2111  0.6626
 1330TIP3   OH225548   2.260   0.240   2.201 -0.2456 -0.9423 -0.0195
 1330TIP3    H125549   2.269   0.334   2.190  2.0589 -1.1014 -0.1134
 1330TIP3    H225550   2.237   0.207   2.115  0.8567 -0.6193 -0.4513
 1331TIP3   OH225551   4.489   1.041   0.466  0.1438  0.0920 -0.4109
 1331TIP3    H125552   4.395   1.025   0.456  0.0762  1.0431 -1.5272
 1331TIP3    H225553   4.528   1.002   0.388  0.3719  1.9467 -1.2594
 1332TIP3   OH225554   3.024   1.204   6.783  0.8891 -0.3351 -0.2263
 1332TIP3    H125555   2.957   1.136   6.790  0.4777 -0.1512 -1.9194
 1332TIP3    H225556   3.106   1.160   6.806  0.4351 -1.0398  0.0558
 1333TIP3   OH225557   1.441   1.790   1.203  0.3458 -0.4754  0.1174
 1333TIP3    H125558   1.383   1.792   1.279 -0.5252  0.9897 -0.5302
 1333TIP3    H225559   1.394   1.738   1.138  0.0007  0.2317 -0.2095
 1334TIP3   OH225560   1.879   0.495   7.909 -0.7344  0.0594  0.3988
 1334TIP3    H125561   1.853   0.409   7.874 -1.3778  0.8766 -1.2563
 1334TIP3    H225562   1.944   0.527   7.847 -1.1385  1.1356  0.5119
 1335TIP3   OH225563   4.220   4.777   2.044 -0.1011 -0.0280  0.1177
 1335TIP3    H125564   4.178   4.691   2.047 -0.2079  0.0130 -0.1585
 1335TIP3    H225565   4.307   4.763   2.082 -0.1108 -0.2634  0.0526
 1336TIP3   OH225566   5.906   5.556   2.144 -0.0700  0.1104 -0.7139
 1336TIP3    H125567   5.969   5.513   2.202 -0.6244  0.4852  0.1916
 1336TIP3    H225568   5.860   5.484   2.100 -0.3962 -0.2096  0.1418
 1337TIP3   OH225569   5.152   2.452   1.640  0.0590  0.0504 -0.0564
 1337TIP3    H125570   5.082   2.503   1.683  0.5525 -0.2416  1.1216
 1337TIP3    H225571   5.105   2.384   1.592 -0.6892  2.0257 -2.3721
 1338TIP3   OH225572   2.385   6.489   7.422 -1.0612 -0.4085  0.0426
 1338TIP3    H125573   2.436   6.548   7.366 -0.2418 -1.4399 -0.3483
 1338TIP3    H225574   2.451   6.446   7.477 -1.7839  0.0362  1.2823
 1339TIP3   OH225575   1.864   3.248   1.070 -0.5265 -0.2677  0.3238
 1339TIP3    H125576   1.824   3.301   1.140 -1.2393 -0.5150  0.1164
 1339TIP3    H225577   1.856   3.158   1.101 -0.9495 -0.3860 -0.1235
 1340TIP3   OH225578   3.631   0.134   1.347 -0.2301  0.3722  0.6245
 1340TIP3    H125579   3.594   0.096   1.427  0.0719  1.0105  1.0862
 1340TIP3    H225580   3.633   0.063   1.284  3.6438 -1.4817  2.4943
 1341TIP3   OH225581   6.744   5.723   0.549  0.0877  0.3358 -0.3809
 1341TIP3    H125582   6.719   5.661   0.618  0.0790 -0.8007 -1.3826
 1341TIP3    H225583   6.717   5.808   0.583  0.5834 -0.1287  1.2563
 1342TIP3   OH225584   3.099   3.136   0.051 -0.1586  0.1812  0.5188
 1342TIP3    H125585   3.061   3.217   0.086 -0.8038  0.1803 -0.1424
 1342TIP3    H225586   3.123   3.157  -0.039 -1.0977 -0.5681  0.0644
 1343TIP3   OH225587   3.291   2.961   0.835  0.7202 -0.3102 -0.0648
 1343TIP3    H125588   3.293   3.006   0.750 -1.2689  2.4456  1.2142
 1343TIP3    H225589   3.381   2.965   0.866  1.5094 -1.4371 -1.9975
 1344TIP3   OH225590   3.241   1.871   0.366  0.0008 -0.2512  0.1514
 1344TIP3    H125591   3.290   1.938   0.413 -0.2659 -1.6920  2.7226
 1344TIP3    H225592   3.231   1.800   0.430 -0.9553 -2.1521 -1.9534
 1345TIP3   OH225593   2.411   3.601   8.276  0.1349  0.1842  0.0123
 1345TIP3    H125594   2.485   3.588   8.217 -1.7773  0.9290 -2.7431
 1345TIP3    H225595   2.392   3.514   8.310  1.0062 -0.3775 -0.8597
 1346TIP3   OH225596   6.814   0.852   1.819  0.2601 -0.5282 -0.3914
 1346TIP3    H125597   6.750   0.829   1.751  1.1328 -1.1813 -1.0091
 1346TIP3    H225598   6.898   0.855   1.773  0.8107 -0.6131  0.5897
 1347TIP3   OH225599   4.913   5.331   1.911 -0.4081  0.0137  0.2063
 1347TIP3    H125600   4.885   5.405   1.857 -1.0987 -0.3591  0.0435
 1347TIP3    H225601   4.854   5.260   1.887  1.8755 -1.3955 -1.5417
 1348TIP3   OH225602   0.929   3.066   6.725  0.0370  0.5082 -0.0727
 1348TIP3    H125603   0.959   3.039   6.638 -0.4947 -0.0443 -0.0887
 1348TIP3    H225604   0.995   3.129   6.754  1.1050 -0.5179 -0.1969
 1349TIP3   OH225605   6.586   0.962   0.904 -0.6918 -0.2304  0.7787
 1349TIP3    H125606   6.603   1.005   0.820  1.5260 -2.4968 -0.0639
 1349TIP3    H225607   6.492   0.976   0.919 -0.7205  2.1234 -0.9168
 1350TIP3   OH225608   3.898   1.298   8.393  0.7806  0.0380 -0.1976
 1350TIP3    H125609   3.875   1.303   8.486 -1.3129 -0.7794 -0.6284
 1350TIP3    H225610   3.944   1.214   8.385 -0.1619 -0.4965 -0.1063
 1351TIP3   OH225611   0.224   0.400   0.240 -0.3978 -0.3150 -0.3214
 1351TIP3    H125612   0.133   0.429   0.242 -0.0966  0.7036 -0.5061
 1351TIP3    H225613   0.224   0.325   0.181 -0.7620  1.0917 -2.2045
 1352TIP3   OH225614   6.300   5.765   7.479  0.1065  0.1391 -0.5949
 1352TIP3    H125615   6.343   5.846   7.453 -0.7276  1.8756  2.9052
 1352TIP3    H225616   6.371   5.701   7.486  1.2267  1.3675 -0.4888
 1353TIP3   OH225617   4.021   0.870   6.992 -0.4410 -0.2008 -0.2731
 1353TIP3    H125618   4.001   0.787   6.949  1.8720 -1.4507  0.8901
 1353TIP3    H225619   4.004   0.853   7.085  0.5459  0.4233  0.0362
 1354TIP3   OH225620   6.095   3.784   3.029 -0.3129 -0.4947  0.4339
 1354TIP3    H125621   6.123   3.702   3.069  2.3398 -0.2746 -0.8118
 1354TIP3    H225622   6.121   3.851   3.092  3.3933 -0.1942 -1.1453
 1355TIP3   OH225623   3.225   1.063   0.162 -0.2671  0.3604 -0.3114
 1355TIP3    H125624   3.310   1.105   0.152  0.4951 -1.2730 -1.0915
 1355TIP3    H225625   3.205   1.073   0.255  1.7599 -0.9176  0.3420
 1356TIP3   OH225626   5.988   6.659   2.248  0.5910  0.2232  0.5238
 1356TIP3    H125627   5.916   6.716   2.274  0.3219  0.0581  0.1634
 1356TIP3    H225628   5.947   6.573   2.237  0.5297  0.4282 -1.1303
 1357TIP3   OH225629   3.360   3.333   1.603  0.2477  0.2340 -0.1792
 1357TIP3    H125630   3.445   3.292   1.616  0.2352  0.7826  2.0330
 1357TIP3    H225631   3.374   3.425   1.625 -1.1197  0.1158  1.4360
 1358TIP3   OH225632   2.801   0.485   7.819  0.2231 -0.1514 -0.3245
 1358TIP3    H125633   2.889   0.455   7.793  0.3082  0.5239 -0.8339
 1358TIP3    H225634   2.783   0.436   7.900  1.3357  0.1700  0.1443
 1359TIP3   OH225635   6.246   3.643   7.289  0.4035  0.2024 -0.0130
 1359TIP3    H125636   6.189   3.688   7.226 -0.3358 -1.6730 -0.7419
 1359TIP3    H225637   6.334   3.670   7.265  0.0529  0.4098 -1.1202
 1360TIP3   OH225638   3.946   5.132   0.482  0.0587 -0.4650 -0.1789
 1360TIP3    H125639   3.942   5.159   0.574 -0.0381 -0.4880 -0.1755
 1360TIP3    H225640   3.968   5.039   0.485  1.5254 -0.1347 -0.2272
 1361TIP3   OH225641   2.527   0.455   0.303 -0.0163  0.5939  0.3521
 1361TIP3    H125642   2.509   0.398   0.229 -0.2760 -0.3988  1.1498
 1361TIP3    H225643   2.622   0.465   0.304  0.0975 -0.4373  0.6220
 1362TIP3   OH225644   2.908   0.000   2.349  0.8232  0.2957  0.3495
 1362TIP3    H125645   2.864   0.062   2.291 -0.1364 -0.6735  0.0099
 1362TIP3    H225646   2.982   0.049   2.385 -0.3365  1.8628  0.6752
 1363TIP3   OH225647   2.073   6.141   1.300  0.4291 -0.1773  0.0199
 1363TIP3    H125648   2.093   6.087   1.377  0.2741 -0.7264 -0.3132
 1363TIP3    H225649   2.115   6.225   1.317  0.5161 -0.3453  0.6392
 1364TIP3   OH225650   5.856   2.437   1.679  0.0425 -0.3202  0.2703
 1364TIP3    H125651   5.844   2.346   1.704  0.6859 -0.5851 -0.3306
 1364TIP3    H225652   5.847   2.486   1.761 -1.0493 -0.8429  0.4717
 1365TIP3   OH225653   4.469   6.735   7.476  0.0124 -0.7057  0.0098
 1365TIP3    H125654   4.472   6.829   7.493 -3.0573 -0.9666  3.2000
 1365TIP3    H225655   4.400   6.725   7.410 -0.0256 -0.7551  0.0568
 1366TIP3   OH225656   4.722   4.665   1.814  0.2988  0.5830  0.5664
 1366TIP3    H125657   4.757   4.579   1.791  0.1692  0.3628  1.1686
 1366TIP3    H225658   4.691   4.655   1.904 -1.7397  0.6436 -0.0842
 1367TIP3   OH225659   0.056   2.193   2.479  0.5368  0.2009 -0.2561
 1367TIP3    H125660  -0.015   2.246   2.442 -0.0712  0.1693  0.8262
 1367TIP3    H225661   0.087   2.244   2.554  1.2207 -0.1053 -0.3213
 1368TIP3   OH225662   2.728   3.521   0.155 -0.3147  0.5377  0.3196
 1368TIP3    H125663   2.738   3.603   0.107  0.2609 -0.7379 -1.8979
 1368TIP3    H225664   2.647   3.532   0.204 -0.8632  2.0271 -0.8313
 1369TIP3   OH225665   3.608   1.503   0.662  0.5755 -0.0651  0.5846
 1369TIP3    H125666   3.587   1.573   0.724  0.4006 -0.9452  1.5557
 1369TIP3    H225667   3.613   1.546   0.577 -0.7260  0.9219  0.9761
 1370TIP3   OH225668   4.680   6.114   1.438 -0.6876  0.4349  0.0104
 1370TIP3    H125669   4.642   6.165   1.367  0.7892 -1.6532 -2.4412
 1370TIP3    H225670   4.754   6.167   1.469  0.0298  0.4145 -1.5921
 1371TIP3   OH225671   4.442   5.306   7.908  0.4084 -0.3701  0.2992
 1371TIP3    H125672   4.529   5.345   7.896 -0.1889  1.0184  0.1896
 1371TIP3    H225673   4.414   5.337   7.994  0.3704 -1.5484  0.7197
 1372TIP3   OH225674   1.713   2.355   0.225  0.1137  1.0126  0.2181
 1372TIP3    H125675   1.785   2.291   0.225 -0.6438  0.1325 -0.6070
 1372TIP3    H225676   1.747   2.429   0.275  2.3025  1.3947 -1.6281
 1373TIP3   OH225677   2.938   5.875   8.534 -0.3202 -0.2784  0.3409
 1373TIP3    H125678   2.878   5.898   8.463 -0.9179 -0.2471  0.8514
 1373TIP3    H225679   2.914   5.933   8.606  2.4052  2.0336 -0.4315
 1374TIP3   OH225680   3.136   6.482   7.474 -0.2572 -0.5953 -1.3489
 1374TIP3    H125681   3.204   6.541   7.505  0.2457 -0.8484 -1.9349
 1374TIP3    H225682   3.055   6.515   7.512  0.0824  0.2022 -1.3107
 1375TIP3   OH225683   6.573   0.227   0.892  0.3983 -0.6884 -0.5232
 1375TIP3    H125684   6.485   0.263   0.879  0.2974 -0.2224  1.1872
 1375TIP3    H225685   6.569   0.139   0.853 -0.6502 -0.4737 -0.9415
 1376TIP3   OH225686   2.617   0.082   0.929 -0.0904  0.0958 -0.3289
 1376TIP3    H125687   2.633  -0.012   0.925  0.4472  0.1889 -0.4302
 1376TIP3    H225688   2.525   0.090   0.954  0.2577 -0.4492  1.2119
 1377TIP3   OH225689   4.569   4.238   2.777  0.3204 -0.2078  0.6318
 1377TIP3    H125690   4.537   4.321   2.742  0.5269  0.0071  0.9426
 1377TIP3    H225691   4.638   4.263   2.838  0.8285 -0.6454  0.2472
 1378TIP3   OH225692   2.024   1.748   1.973 -0.1091 -0.3386  0.4646
 1378TIP3    H125693   1.943   1.704   1.950  0.5505 -3.0337  2.7481
 1378TIP3    H225694   2.090   1.710   1.915  0.0572 -0.6426  0.8447
 1379TIP3   OH225695   0.256   0.311   7.445  0.5895  0.0919  0.1805
 1379TIP3    H125696   0.166   0.334   7.468  0.3644 -1.1008  0.6235
 1379TIP3    H225697   0.247   0.233   7.390  1.3465 -0.2562  0.5296
 1380TIP3   OH225698   0.497   1.437   7.727 -0.1027  0.4447 -0.6254
 1380TIP3    H125699   0.481   1.356   7.678 -1.7742  0.6829 -0.5336
 1380TIP3    H225700   0.460   1.421   7.813 -0.0908  1.1643 -0.4814
 1381TIP3   OH225701   5.950   5.207   7.605 -0.5167 -0.2823 -0.3009
 1381TIP3    H125702   6.000   5.211   7.524 -0.0404 -0.8505 -0.0517
 1381TIP3    H225703   5.920   5.296   7.620  0.0699 -0.0157 -0.6800
 1382TIP3   OH225704   5.557   4.471   2.781  0.7413 -0.5778 -0.2460
 1382TIP3    H125705   5.608   4.442   2.706  0.6692 -0.8440 -0.1930
 1382TIP3    H225706   5.614   4.459   2.857  1.8726  2.2581 -0.5106
 1383TIP3   OH225707   4.479   3.512   7.718 -0.3217  0.6268  0.1380
 1383TIP3    H125708   4.393   3.550   7.703 -0.3438  0.3402 -0.5177
 1383TIP3    H225709   4.463   3.417   7.720 -0.1171  0.6026  0.6700
 1384TIP3   OH225710   4.622   4.925   7.256 -0.7554 -0.2836  0.3811
 1384TIP3    H125711   4.703   4.969   7.234 -2.1305  1.5452 -1.3752
 1384TIP3    H225712   4.649   4.852   7.312  1.8824  1.2560  1.2970
 1385TIP3   OH225713   4.202   2.188   7.461  0.0784  0.2485 -0.1202
 1385TIP3    H125714   4.292   2.179   7.430 -0.4425  0.2719 -1.7233
 1385TIP3    H225715   4.156   2.232   7.390 -1.0587  0.8997  0.9646
 1386TIP3   OH225716   2.130   1.847   7.102  0.4399  0.4925  0.1272
 1386TIP3    H125717   2.109   1.828   7.011  1.5613  0.0344 -0.0416
 1386TIP3    H225718   2.116   1.764   7.148 -0.6555  0.8533  0.4907
 1387TIP3   OH225719   3.297   6.542   2.658 -0.3051  0.5834 -0.2899
 1387TIP3    H125720   3.368   6.544   2.722 -1.9886  2.9368  1.6407
 1387TIP3    H225721   3.280   6.448   2.645  1.7137  0.0031  0.7865
 1388TIP3   OH225722   3.802   5.421   7.676 -0.0044  0.4759  0.0154
 1388TIP3    H125723   3.851   5.494   7.638  0.3706 -0.1660 -0.7533
 1388TIP3    H225724   3.861   5.385   7.743 -0.3876  1.1757  0.7395
 1389TIP3   OH225725   0.663   1.687   8.361  0.0116  0.0782 -0.0759
 1389TIP3    H125726   0.584   1.681   8.308 -0.4604  0.4069  0.5753
 1389TIP3    H225727   0.655   1.771   8.407  1.0971  0.4734 -0.5603
 1390TIP3   OH225728   2.289   2.237   1.317 -0.0912  0.3066 -0.4141
 1390TIP3    H125729   2.246   2.163   1.273 -1.3290  0.1410  0.9733
 1390TIP3    H225730   2.355   2.196   1.373  0.8508  0.4516 -1.3865
 1391TIP3   OH225731   4.465   1.162   0.982  0.1064 -0.1385 -0.1372
 1391TIP3    H125732   4.449   1.085   1.037 -1.5948 -0.0148 -0.4135
 1391TIP3    H225733   4.471   1.128   0.893  3.6883 -0.4464  0.0746
 1392TIP3   OH225734   2.995   3.446   0.733 -0.4773 -0.1958 -0.4034
 1392TIP3    H125735   3.085   3.448   0.766 -0.4379  0.9538 -0.5510
 1392TIP3    H225736   2.995   3.504   0.657 -1.3623 -0.0934 -0.3432
 1393TIP3   OH225737   5.663   5.145   0.604 -0.0950 -0.4015 -0.5277
 1393TIP3    H125738   5.694   5.152   0.514 -0.6022  3.0130 -0.5518
 1393TIP3    H225739   5.692   5.226   0.646 -4.1885  0.5524  0.9156
 1394TIP3   OH225740   0.788   3.761   1.477  0.1244  0.2593 -0.3588
 1394TIP3    H125741   0.827   3.674   1.479  1.4779  0.8126 -1.3725
 1394TIP3    H225742   0.709   3.751   1.424 -0.3393 -0.5564  0.4513
 1395TIP3   OH225743   3.322   2.462   6.400 -0.3431  0.9795 -0.5130
 1395TIP3    H125744   3.351   2.489   6.487  1.1035  2.1320 -1.3098
 1395TIP3    H225745   3.302   2.368   6.409  1.3104  0.7030  0.6818
 1396TIP3   OH225746   4.692   6.001   1.089  0.0237 -0.0630 -0.0673
 1396TIP3    H125747   4.715   6.085   1.130  0.1280 -0.7098  1.2262
 1396TIP3    H225748   4.774   5.952   1.088 -0.3455 -0.7011  0.5052
 1397TIP3   OH225749   2.261   0.151   7.569 -0.3002 -0.6981  0.2056
 1397TIP3    H125750   2.191   0.203   7.531 -0.3907 -0.5590  0.5691
 1397TIP3    H225751   2.219   0.069   7.595 -0.1239 -1.0302 -0.5292
 1398TIP3   OH225752   1.693   5.932   7.759 -0.3633 -0.5501  0.1811
 1398TIP3    H125753   1.602   5.917   7.787 -0.4617  2.1092  1.6192
 1398TIP3    H225754   1.685   5.990   7.683  0.1177 -0.2818  0.3334
 1399TIP3   OH225755   6.198   4.810   1.899  0.2324  0.2646  0.2049
 1399TIP3    H125756   6.147   4.781   1.974  0.6399 -1.3262 -0.1092
 1399TIP3    H225757   6.141   4.872   1.854 -1.0337 -0.7300  0.3958
 1400TIP3   OH225758   2.745   4.316   8.089 -0.3397  0.4809  0.4902
 1400TIP3    H125759   2.691   4.378   8.138  0.5699  0.8491  1.0692
 1400TIP3    H225760   2.832   4.356   8.089 -0.0698 -0.0740 -0.4523
 1401TIP3   OH225761   3.575   3.696   1.058 -0.0015 -0.1361  0.7198
 1401TIP3    H125762   3.557   3.692   0.964 -1.2573  3.4776  0.6244
 1401TIP3    H225763   3.664   3.732   1.063 -0.4578  1.0111  0.8455
 1402TIP3   OH225764   0.757   4.787   8.175  0.5391 -0.0003  0.0743
 1402TIP3    H125765   0.765   4.819   8.264 -0.5288  2.2954 -0.6020
 1402TIP3    H225766   0.714   4.702   8.184 -3.3101  1.8784  1.5957
 1403TIP3   OH225767   5.336   2.977   0.405  0.9902  0.1359 -0.2990
 1403TIP3    H125768   5.243   2.982   0.383  0.9345 -0.2876 -0.1796
 1403TIP3    H225769   5.347   3.038   0.478 -0.0971 -2.7594  2.5721
 1404TIP3   OH225770   6.171   3.321   8.322 -0.1160 -0.1076 -0.2471
 1404TIP3    H125771   6.139   3.298   8.410 -0.0911 -1.3519 -0.5395
 1404TIP3    H225772   6.142   3.411   8.309  0.2773  0.2700  1.2215
 1405TIP3   OH225773   3.929   5.713   1.190  0.6185 -0.5130  0.4237
 1405TIP3    H125774   4.007   5.768   1.181  0.5110 -0.5433 -0.9450
 1405TIP3    H225775   3.910   5.713   1.283  1.4210  0.6656  0.6074
 1406TIP3   OH225776   5.786   5.803   2.832  0.4605  0.2610 -0.3365
 1406TIP3    H125777   5.772   5.772   2.743 -0.7762 -1.1616  0.2997
 1406TIP3    H225778   5.699   5.831   2.862  0.9206  1.0403  0.3068
 1407TIP3   OH225779   6.027   3.408   1.068 -0.2985 -0.2093 -0.4261
 1407TIP3    H125780   6.081   3.439   1.140 -0.6715  0.3796 -0.3963
 1407TIP3    H225781   6.052   3.463   0.994 -0.5924 -0.1869 -0.5091
 1408TIP3   OH225782   5.241   4.494   7.399  0.1417 -0.0654 -0.0852
 1408TIP3    H125783   5.198   4.507   7.314 -2.0863  1.4406  1.1597
 1408TIP3    H225784   5.332   4.475   7.377 -0.7071 -1.5120 -2.8383
 1409TIP3   OH225785   1.883   0.432   1.183  0.2891  0.0283  0.1901
 1409TIP3    H125786   1.829   0.505   1.153 -0.6177 -0.3845  0.7598
 1409TIP3    H225787   1.971   0.468   1.190 -0.0625  0.9424  0.0231
 1410TIP3   OH225788   1.156   3.835   2.008  0.6099  0.8592  0.1603
 1410TIP3    H125789   1.066   3.863   2.025  0.2084 -0.5525  0.5749
 1410TIP3    H225790   1.170   3.850   1.915 -0.3451  0.3589 -0.0713
 1411TIP3   OH225791   4.636   4.936   1.231  0.1514  0.1692 -0.4772
 1411TIP3    H125792   4.716   4.900   1.270  0.7944  2.1624  0.1710
 1411TIP3    H225793   4.603   4.866   1.175  1.9893 -0.9434 -0.2512
 1412TIP3   OH225794   3.756   6.264   2.573 -0.3724  0.7666 -0.9185
 1412TIP3    H125795   3.810   6.343   2.575  0.6098  0.1601 -2.0572
 1412TIP3    H225796   3.816   6.194   2.598 -0.8892  0.2072 -1.2199
 1413TIP3   OH225797   5.619   0.683   7.858  0.1243 -0.7526  0.3749
 1413TIP3    H125798   5.554   0.615   7.877  1.0115 -1.6638  0.2205
 1413TIP3    H225799   5.697   0.657   7.907  1.0318 -0.7957 -1.0283
 1414TIP3   OH225800   1.748   5.577   3.379 -0.0229  0.3404  0.4072
 1414TIP3    H125801   1.729   5.611   3.466 -1.0554  1.7669 -0.3441
 1414TIP3    H225802   1.778   5.653   3.329 -1.9003  0.0969 -1.1866
 1415TIP3   OH225803   2.379   0.372   8.479  0.1146  0.1821 -0.5891
 1415TIP3    H125804   2.402   0.288   8.438  1.7390 -0.7031  1.8876
 1415TIP3    H225805   2.462   0.420   8.482 -0.6239  1.5386 -1.1643
 1416TIP3   OH225806   5.863   6.123   0.525 -0.3073 -0.3352 -0.3573
 1416TIP3    H125807   5.863   6.093   0.616  0.5757 -1.5171 -0.7215
 1416TIP3    H225808   5.809   6.059   0.479 -0.6727  0.2070 -0.6970
 1417TIP3   OH225809   3.964   5.277   7.857  0.1550  0.2116  0.3165
 1417TIP3    H125810   4.012   5.299   7.937 -0.6073 -1.4746  1.2965
 1417TIP3    H225811   4.032   5.263   7.791  1.0308 -1.3939  1.4853
 1418TIP3   OH225812   3.851   1.550   2.619  0.4323 -0.2625  0.6116
 1418TIP3    H125813   3.890   1.636   2.603  1.3402 -0.3555  2.1824
 1418TIP3    H225814   3.759   1.568   2.637  0.4754  0.3081  0.2733
 1419TIP3   OH225815   1.762   4.556   1.674 -0.9044  0.3780 -0.1398
 1419TIP3    H125816   1.790   4.576   1.585 -2.0543 -0.6482 -0.7732
 1419TIP3    H225817   1.777   4.462   1.684 -0.4642  0.5379  0.8890
 1420TIP3   OH225818   4.954   3.121   6.855  0.8101  0.0161  0.0095
 1420TIP3    H125819   4.881   3.082   6.806  0.7240 -0.7436  0.7274
 1420TIP3    H225820   4.916   3.200   6.894  0.3921 -0.3186  0.2942
 1421TIP3   OH225821   2.145   0.013   1.952  0.8462 -0.2111  0.3167
 1421TIP3    H125822   2.101  -0.007   2.034  1.1823  1.6809  1.0011
 1421TIP3    H225823   2.091   0.081   1.912  1.8388  0.4145  0.0126
 1422TIP3   OH225824   0.498   2.522   2.292 -0.1508 -0.7146 -0.0664
 1422TIP3    H125825   0.562   2.533   2.362  1.2057 -0.4086 -1.2879
 1422TIP3    H225826   0.519   2.591   2.229 -0.9269 -1.3512 -1.0607
 1423TIP3   OH225827   5.229   3.557   1.430  0.7357 -0.1388 -0.0399
 1423TIP3    H125828   5.211   3.610   1.353 -0.9470  1.1818  1.1799
 1423TIP3    H225829   5.161   3.489   1.428  1.1557 -0.5625 -0.1067
 1424TIP3   OH225830   3.066   0.824   7.458 -0.0531 -0.5374 -0.0090
 1424TIP3    H125831   3.036   0.877   7.385  1.4096 -1.4050 -1.2981
 1424TIP3    H225832   3.005   0.844   7.529  0.2953  2.7011 -0.4589
 1425TIP3   OH225833   0.517   4.718   7.569 -0.4683 -0.8437 -0.1988
 1425TIP3    H125834   0.467   4.722   7.650 -2.5917 -0.2429 -1.4552
 1425TIP3    H225835   0.559   4.632   7.570 -0.6314 -0.9236  1.4062
 1426TIP3   OH225836   6.156   1.361   1.331  0.1298  0.2214  0.0078
 1426TIP3    H125837   6.168   1.420   1.257  0.7959  1.3553  0.9810
 1426TIP3    H225838   6.061   1.352   1.339  0.0475 -0.5940 -1.4633
 1427TIP3   OH225839   6.022   3.778   7.622  0.3382 -0.2817 -1.1399
 1427TIP3    H125840   5.991   3.768   7.712  0.0974 -1.0927 -1.3019
 1427TIP3    H225841   6.014   3.872   7.603 -1.0007 -0.3109 -0.8062
 1428TIP3   OH225842   4.317   1.331   0.755 -0.2464  0.3865  0.3587
 1428TIP3    H125843   4.361   1.392   0.814 -1.9838  1.5282  0.5717
 1428TIP3    H225844   4.298   1.383   0.677  0.1087 -0.5006 -0.3371
 1429TIP3   OH225845   3.724   5.342   7.392  0.5280 -0.3700  0.5335
 1429TIP3    H125846   3.752   5.382   7.475 -0.1062 -1.1929  1.1484
 1429TIP3    H225847   3.636   5.375   7.378  0.5822 -0.3425  0.2486
 1430TIP3   OH225848   3.403   0.548   1.323 -0.1171 -0.5576 -0.3193
 1430TIP3    H125849   3.373   0.621   1.270  2.5214  0.0568 -1.1226
 1430TIP3    H225850   3.376   0.569   1.412 -1.4231  0.2056 -0.8761
 1431TIP3   OH225851   6.811   4.489   1.672 -0.4038  0.7899  0.1074
 1431TIP3    H125852   6.739   4.455   1.725 -1.1944  0.9931 -0.7839
 1431TIP3    H225853   6.876   4.420   1.672 -0.5551  0.6403  1.0218
 1432TIP3   OH225854   0.543   3.451   7.845  0.9614 -0.4561 -0.1668
 1432TIP3    H125855   0.620   3.415   7.890  1.9283 -1.2528 -2.3101
 1432TIP3    H225856   0.481   3.379   7.843  0.8402 -0.3587  0.0437
 1433TIP3   OH225857   2.897   4.132   1.198 -0.5197  0.4415 -0.0336
 1433TIP3    H125858   2.813   4.166   1.168 -0.9037 -0.2288  0.2570
 1433TIP3    H225859   2.887   4.123   1.293 -0.4446 -0.4841 -0.1035
 1434TIP3   OH225860   2.516   4.369   7.759 -0.2575  0.3107 -0.1357
 1434TIP3    H125861   2.495   4.344   7.849  0.8181 -1.3465 -0.3062
 1434TIP3    H225862   2.579   4.303   7.729  1.9732  2.6668 -1.0265
 1435TIP3   OH225863   5.100   4.054   8.283 -0.3695 -0.1305  0.1953
 1435TIP3    H125864   5.148   4.106   8.219  1.6410 -1.3622  0.6364
 1435TIP3    H225865   5.067   3.979   8.233 -1.1486  0.2875  0.0663
 1436TIP3   OH225866   6.827   2.789   0.654  0.3016 -0.1351  0.0648
 1436TIP3    H125867   6.881   2.720   0.692  0.3941 -0.9971 -1.5668
 1436TIP3    H225868   6.887   2.836   0.595 -0.4713 -0.5189 -1.0523
 1437TIP3   OH225869   2.633   2.336   0.815  0.2548  0.2515 -0.4150
 1437TIP3    H125870   2.606   2.345   0.724  0.2672  3.7916 -0.2175
 1437TIP3    H225871   2.724   2.366   0.817  0.4956 -0.5003  0.6414
 1438TIP3   OH225872   5.577   5.559   0.917  0.0962 -0.4488 -0.3138
 1438TIP3    H125873   5.520   5.619   0.870 -2.1420 -2.5802 -0.5635
 1438TIP3    H225874   5.629   5.516   0.849  2.1369  1.4604 -0.0898
 1439TIP3   OH225875   6.840   3.420   7.418 -0.1328 -0.0760 -0.2742
 1439TIP3    H125876   6.855   3.333   7.455  1.8532 -0.7778 -2.5278
 1439TIP3    H225877   6.764   3.410   7.361 -1.2580  0.2505  1.1209
 1440TIP3   OH225878   1.580   2.768   0.360 -0.0088  0.1388  0.0366
 1440TIP3    H125879   1.660   2.718   0.346 -0.9062 -1.1974 -0.5713
 1440TIP3    H225880   1.609   2.858   0.374  1.6866 -0.5720  1.4151
 1441TIP3   OH225881   4.806   4.054   8.316  0.4136  0.4349  0.2292
 1441TIP3    H125882   4.777   4.115   8.384  1.4161 -0.4695  1.5169
 1441TIP3    H225883   4.898   4.076   8.303  0.5477 -0.2214  0.0727
 1442TIP3   OH225884   5.001   4.830   7.338 -0.0247 -0.8321 -0.3830
 1442TIP3    H125885   5.096   4.842   7.340 -0.0443 -0.6949 -0.2130
 1442TIP3    H225886   4.967   4.910   7.298 -0.1725 -0.1764  0.9847
 1443TIP3   OH225887   1.258   5.866   0.191  0.1860  0.0742  0.2736
 1443TIP3    H125888   1.350   5.855   0.165  0.1037  0.3954 -0.1644
 1443TIP3    H225889   1.212   5.795   0.145  0.1878  0.0190  0.3565
 1444TIP3   OH225890   0.708   2.804   1.232 -0.1818 -0.0058 -0.1194
 1444TIP3    H125891   0.732   2.871   1.168  1.7619 -0.5412 -0.0336
 1444TIP3    H225892   0.744   2.723   1.195 -2.7901 -1.1161 -0.4064
 1445TIP3   OH225893   5.929   5.456   8.273 -0.0928  0.1030 -0.8334
 1445TIP3    H125894   5.838   5.442   8.248 -0.5391  0.0974  0.7013
 1445TIP3    H225895   5.949   5.384   8.333  0.4958  0.8362 -0.1161
 1446TIP3   OH225896   2.877   5.973   0.180  0.1240 -0.7650 -0.3641
 1446TIP3    H125897   2.799   5.963   0.125  0.2202 -0.2600 -0.5976
 1446TIP3    H225898   2.892   6.068   0.183  1.7875 -0.9292 -1.8476
 1447TIP3   OH225899   2.995   3.844   0.816 -0.1419  0.5322  0.1436
 1447TIP3    H125900   2.966   3.933   0.837  0.5129  0.4776  1.3396
 1447TIP3    H225901   2.973   3.833   0.724  0.4287  2.2053 -0.2211
 1448TIP3   OH225902   0.864   3.009   1.762 -0.1812 -0.6990 -0.7591
 1448TIP3    H125903   0.799   2.982   1.826  1.4363  1.1391  1.8391
 1448TIP3    H225904   0.818   3.070   1.705 -0.3703  2.4561  2.4701
 1449TIP3   OH225905   4.449   2.975   7.937  0.3351 -0.2251 -1.0467
 1449TIP3    H125906   4.519   2.927   7.979 -0.6049 -0.9002 -0.2093
 1449TIP3    H225907   4.401   3.016   8.010 -0.6814 -0.5316 -1.5325
 1450TIP3   OH225908   2.788   0.959   7.780  0.4054 -0.0030 -0.3239
 1450TIP3    H125909   2.717   1.015   7.749 -1.6224 -3.2196 -2.0774
 1450TIP3    H225910   2.744   0.885   7.821  2.9309 -0.3544  2.0872
 1451TIP3   OH225911   6.653   6.587   8.571 -0.2536 -0.4222 -0.2364
 1451TIP3    H125912   6.647   6.497   8.540 -1.5878 -0.4301 -0.0036
 1451TIP3    H225913   6.647   6.640   8.492 -1.8074 -0.4921 -0.1895
 1452TIP3   OH225914   5.061   5.718   2.387  0.4280 -0.2738  0.1811
 1452TIP3    H125915   5.139   5.753   2.429  1.1117  1.4582 -2.3158
 1452TIP3    H225916   5.093   5.643   2.336 -0.2414 -1.7962  1.8610
 1453TIP3   OH225917   1.061   2.320   0.560  0.0808 -0.0793 -0.3709
 1453TIP3    H125918   1.033   2.256   0.496 -2.0631  0.9202 -0.5145
 1453TIP3    H225919   0.994   2.388   0.558 -0.7839 -0.5053  3.6842
 1454TIP3   OH225920   1.744   1.145   2.890  0.2084 -0.0978 -0.1581
 1454TIP3    H125921   1.824   1.123   2.938 -0.5268 -0.6385  0.8638
 1454TIP3    H225922   1.769   1.216   2.832  1.3000  0.1061  0.5416
 1455TIP3   OH225923   6.464   0.694   1.331  0.0694  0.0028  0.2038
 1455TIP3    H125924   6.445   0.787   1.325 -1.7972 -0.1384  2.5571
 1455TIP3    H225925   6.492   0.669   1.243  1.8328  2.9849 -0.2163
 1456TIP3   OH225926   3.235   1.643   8.662  0.6314 -0.3509 -0.4637
 1456TIP3    H125927   3.265   1.572   8.720 -0.2359  0.5085  1.0882
 1456TIP3    H225928   3.306   1.707   8.664 -0.0861  0.4582  1.0784
 1457TIP3   OH225929   5.314   3.678   7.013  0.2677  0.5555  0.3052
 1457TIP3    H125930   5.272   3.677   6.927  0.4803  0.0207  0.2048
 1457TIP3    H225931   5.244   3.700   7.074  0.0928  0.8307  0.0104
 1458TIP3   OH225932   4.440   1.306   1.226 -0.0280  0.3380  0.0411
 1458TIP3    H125933   4.429   1.290   1.132  0.2421  1.3891 -0.1878
 1458TIP3    H225934   4.458   1.220   1.263  0.3582 -0.0289 -0.9522
 1459TIP3   OH225935   5.456   5.573   1.804 -0.0106  0.3205  0.7272
 1459TIP3    H125936   5.453   5.478   1.791  1.0210  0.1189  1.8008
 1459TIP3    H225937   5.463   5.584   1.899  0.5015  1.4525  0.5718
 1460TIP3   OH225938   2.630   6.298   2.256 -0.1942 -0.3654 -0.2190
 1460TIP3    H125939   2.688   6.357   2.207  0.8173 -1.2631 -0.1325
 1460TIP3    H225940   2.638   6.328   2.347 -1.2577  0.6313 -0.4329
 1461TIP3   OH225941   0.487   6.635   2.867  0.4888  0.7930  0.0316
 1461TIP3    H125942   0.555   6.646   2.934 -0.0860  1.6414  0.4851
 1461TIP3    H225943   0.421   6.701   2.888 -0.5042 -0.0349 -0.3803
 1462TIP3   OH225944   3.135   3.177   7.636 -0.0265 -0.2860 -0.0857
 1462TIP3    H125945   3.148   3.148   7.546 -0.4564 -1.1168  0.1117
 1462TIP3    H225946   3.178   3.111   7.690  1.0163  0.6825  0.2999
 1463TIP3   OH225947   5.554   6.423   7.098 -0.5696 -0.0840 -0.2392
 1463TIP3    H125948   5.587   6.437   7.009  0.1132  2.6768  0.3562
 1463TIP3    H225949   5.597   6.490   7.150 -0.1248 -2.2934  2.4508
 1464TIP3   OH225950   4.548   0.546   3.157 -0.2991 -0.2574 -0.3602
 1464TIP3    H125951   4.630   0.563   3.110 -0.9079 -0.4094 -1.5204
 1464TIP3    H225952   4.481   0.585   3.101 -1.1196 -1.0266  0.0772
 1465TIP3   OH225953   2.985   5.846   8.225  0.0702 -0.1711  0.2863
 1465TIP3    H125954   3.078   5.833   8.247  0.5832 -0.7555 -1.9371
 1465TIP3    H225955   2.952   5.757   8.210  0.0271  0.1580 -1.9530
 1466TIP3   OH225956   3.395   3.622   1.623  0.1657  0.5870 -0.2708
 1466TIP3    H125957   3.441   3.693   1.579  1.1665 -0.0156 -0.2279
 1466TIP3    H225958   3.407   3.640   1.717  2.4743 -0.8649 -0.2179
 1467TIP3   OH225959   4.625   5.156   2.351 -0.1398 -0.0193  0.0323
 1467TIP3    H125960   4.621   5.135   2.258  2.3346 -1.8068  0.2421
 1467TIP3    H225961   4.644   5.073   2.394 -0.6053  0.8668  2.1118
 1468TIP3   OH225962   4.565   3.689   2.668  0.4992  0.0779  0.3395
 1468TIP3    H125963   4.577   3.594   2.669 -0.0410 -0.0120 -0.4843
 1468TIP3    H225964   4.563   3.714   2.760 -0.3268 -0.8493  0.5913
 1469TIP3   OH225965   1.973   3.137   8.380  0.2773  0.5455  0.0599
 1469TIP3    H125966   1.938   3.069   8.438  1.0793 -0.1154 -0.2154
 1469TIP3    H225967   1.967   3.218   8.432  0.5724  0.0406  0.8945
 1470TIP3   OH225968   1.921   4.925   0.124 -0.2645 -0.0249  0.4256
 1470TIP3    H125969   2.008   4.952   0.153 -0.6437  0.7528  0.8778
 1470TIP3    H225970   1.914   4.957   0.035  0.4578 -1.3808 -0.1406
 1471TIP3   OH225971   5.891   3.763   7.344 -0.8133 -0.3836 -0.3836
 1471TIP3    H125972   5.877   3.844   7.296  1.7155  1.3704  1.5950
 1471TIP3    H225973   5.982   3.767   7.374 -1.5254 -2.4031  2.5518
 1472TIP3   OH225974   6.620   1.172   1.981  0.2117 -0.4775  0.1689
 1472TIP3    H125975   6.544   1.170   2.039  0.2710 -1.8702  0.2508
 1472TIP3    H225976   6.687   1.220   2.029  0.4347 -2.0555  1.5252
 1473TIP3   OH225977   2.192   1.207   0.149 -0.3528  0.3429 -0.3320
 1473TIP3    H125978   2.227   1.261   0.220 -0.9015  0.0111  0.1967
 1473TIP3    H225979   2.140   1.140   0.193  0.3087 -0.6233 -0.9756
 1474TIP3   OH225980   2.098   5.476   1.973  0.9778  0.4111 -0.0120
 1474TIP3    H125981   2.187   5.460   1.942  0.7781  1.8656 -1.4480
 1474TIP3    H225982   2.072   5.559   1.932 -1.6422 -0.7595 -0.9477
 1475TIP3   OH225983   4.984   4.267   0.295  0.6986  0.3370 -0.5152
 1475TIP3    H125984   4.977   4.171   0.288  0.7267  0.3749 -1.1779
 1475TIP3    H225985   5.074   4.286   0.270  0.2745  0.6478 -1.9179
 1476TIP3   OH225986   0.612   4.538   1.043 -0.3694 -0.4112  0.0677
 1476TIP3    H125987   0.688   4.577   0.999 -0.5461  0.8473  0.8338
 1476TIP3    H225988   0.638   4.447   1.059  1.2184  0.1332  0.8015
 1477TIP3   OH225989   6.427   3.736   1.674  0.1253  0.8299  0.4361
 1477TIP3    H125990   6.491   3.709   1.609  0.4533 -0.3605  1.2362
 1477TIP3    H225991   6.476   3.744   1.755 -0.1658  2.8655  0.4728
 1478TIP3   OH225992   0.139   6.851   0.467 -0.3427 -0.1162 -0.0065
 1478TIP3    H125993   0.071   6.915   0.450 -0.3988 -0.0771  0.3561
 1478TIP3    H225994   0.178   6.879   0.550  2.0824  1.5928 -1.5700
 1479TIP3   OH225995   3.226   2.167   1.275  0.1556  0.1847  1.0416
 1479TIP3    H125996   3.215   2.239   1.214 -0.8206 -1.8071 -1.2927
 1479TIP3    H225997   3.295   2.197   1.335  2.1106  1.8183 -1.7800
 1480TIP3   OH225998   0.023   5.608   7.867 -0.4878 -0.4986 -0.7282
 1480TIP3    H125999   0.060   5.686   7.909 -1.6122  0.0925 -0.8169
 1480TIP3    H226000   0.030   5.626   7.773 -0.1022 -0.8222 -0.7662
 1481TIP3   OH226001   6.239   1.701   0.041  0.6851  0.2580 -0.2289
 1481TIP3    H126002   6.244   1.795   0.025  0.3473  0.1474 -1.0100
 1481TIP3    H226003   6.258   1.661  -0.044 -0.1563 -0.3566 -0.1391
 1482TIP3   OH226004   6.125   0.546   7.608 -0.0290 -0.4411  0.1881
 1482TIP3    H126005   6.218   0.547   7.631 -0.3025 -0.1994  1.3997
 1482TIP3    H226006   6.085   0.606   7.672 -0.8402  0.4759 -1.1348
 1483TIP3   OH226007   1.491   3.375   7.705  0.0740 -0.7378  0.0117
 1483TIP3    H126008   1.412   3.332   7.672 -0.4262 -0.9404  1.4269
 1483TIP3    H226009   1.479   3.379   7.799  0.6761  1.4116  0.0559
 1484TIP3   OH226010   0.641   2.687   0.606 -0.6763 -0.5498  0.0466
 1484TIP3    H126011   0.640   2.776   0.572  0.8369 -0.2794  0.6427
 1484TIP3    H226012   0.577   2.640   0.552 -2.6292  1.2053  0.6999
 1485TIP3   OH226013   2.074   3.874   1.239  0.1272  0.3526 -0.0051
 1485TIP3    H126014   2.041   3.963   1.246  0.8326  0.5426  1.0939
 1485TIP3    H226015   2.075   3.857   1.145 -2.9838  0.3414 -0.1466
 1486TIP3   OH226016   6.253   2.613   8.230 -0.3538 -0.5170  0.6226
 1486TIP3    H126017   6.161   2.608   8.256 -0.5895  1.2184  0.2232
 1486TIP3    H226018   6.250   2.622   8.134  0.3369 -2.3428  0.3779
 1487TIP3   OH226019   3.388   5.876   2.450 -0.5762 -0.5642  0.1121
 1487TIP3    H126020   3.438   5.942   2.498  0.3615 -1.0568 -0.1614
 1487TIP3    H226021   3.399   5.899   2.358 -0.8550 -0.6772  0.0489
 1488TIP3   OH226022   1.540   6.754   7.822 -0.3351 -0.2608 -0.0816
 1488TIP3    H126023   1.523   6.770   7.729 -0.8224  0.1754  0.0810
 1488TIP3    H226024   1.482   6.814   7.868  0.0753 -0.3072  0.5064
 1489TIP3   OH226025   6.718   4.064   7.289  0.0057 -0.2721 -0.0158
 1489TIP3    H126026   6.673   4.090   7.208 -0.0204  0.6780  0.2936
 1489TIP3    H226027   6.661   4.096   7.359 -0.0139 -1.1681  0.3875
 1490TIP3   OH226028   3.859   2.198   0.822 -0.1249  0.2009 -0.1747
 1490TIP3    H126029   3.874   2.197   0.917  1.1566 -0.6453 -0.3660
 1490TIP3    H226030   3.767   2.174   0.813 -0.3262  0.5199  0.8631
 1491TIP3   OH226031   3.581   4.514   1.665  0.1212  0.2419  0.1294
 1491TIP3    H126032   3.644   4.546   1.600 -2.0691  2.6736 -0.9917
 1491TIP3    H226033   3.563   4.590   1.721  0.0828 -1.1103  2.0726
 1492TIP3   OH226034   6.618   5.639   3.007 -0.0534  0.2129  0.6022
 1492TIP3    H126035   6.684   5.577   3.038 -0.8270 -0.3885  1.1000
 1492TIP3    H226036   6.535   5.591   3.016 -0.2899 -0.5683 -3.7252
 1493TIP3   OH226037   5.211   2.967   2.474  0.1634  0.1954  0.0791
 1493TIP3    H126038   5.199   2.950   2.381 -0.0289 -0.0622  0.1469
 1493TIP3    H226039   5.159   2.899   2.517  0.2927  0.2811  0.3742
 1494TIP3   OH226040   2.814   6.743   2.051  0.1053 -0.6739 -0.8238
 1494TIP3    H126041   2.767   6.826   2.048 -0.5020 -0.7679  2.2226
 1494TIP3    H226042   2.887   6.754   1.990 -0.0888  2.0239 -0.6875
 1495TIP3   OH226043   5.487   1.983   8.315  0.2722  0.1559 -0.2936
 1495TIP3    H126044   5.572   1.949   8.342  0.7430  3.7475  3.9575
 1495TIP3    H226045   5.507   2.065   8.270 -0.9360 -0.4279 -1.9824
 1496TIP3   OH226046   2.429   5.949   1.956 -0.1019 -0.2144 -0.8541
 1496TIP3    H126047   2.521   5.924   1.965  0.2934  1.2076 -0.6714
 1496TIP3    H226048   2.387   5.873   1.915  0.6406 -1.8553  1.2737
 1497TIP3   OH226049   6.548   0.556   2.837  0.5139  0.4598 -0.4427
 1497TIP3    H126050   6.639   0.584   2.850  0.8655 -0.2332 -1.2755
 1497TIP3    H226051   6.533   0.492   2.908  0.4332  1.1057  0.1289
 1498TIP3   OH226052   3.556   6.083   0.101  0.0688  0.0366 -0.0158
 1498TIP3    H126053   3.627   6.079   0.166 -0.8406 -0.5037  0.9830
 1498TIP3    H226054   3.573   6.164   0.052  0.9872  0.2729  0.6624
 1499TIP3   OH226055   0.199   2.069   1.162  0.3093 -0.2074 -0.2766
 1499TIP3    H126056   0.189   2.164   1.164  0.2437 -0.2287  1.3028
 1499TIP3    H226057   0.285   2.052   1.199 -0.7308 -0.8523  2.0495
 1500TIP3   OH226058   4.362   6.463   7.188  0.4159  0.7301 -0.0244
 1500TIP3    H126059   4.272   6.487   7.167 -0.3341 -1.3611  0.4995
 1500TIP3    H226060   4.374   6.491   7.279 -0.3852 -0.5757  0.5253
 1501TIP3   OH226061   5.281   0.093   2.385  0.7870  0.6583 -0.3269
 1501TIP3    H126062   5.348   0.134   2.439  0.8531 -0.7970  0.7804
 1501TIP3    H226063   5.222   0.051   2.449  0.0139  0.1517 -1.3435
 1502TIP3   OH226064   3.367   5.679   7.641  0.2552  0.1168 -0.5031
 1502TIP3    H126065   3.300   5.692   7.707  2.4490  1.2103  1.6949
 1502TIP3    H226066   3.421   5.608   7.675  2.3637  1.7587 -0.1856
 1503TIP3   OH226067   4.221   2.886   2.280  0.4019  0.0482 -0.3665
 1503TIP3    H126068   4.284   2.887   2.207 -0.5757  0.4224 -1.2377
 1503TIP3    H226069   4.230   2.973   2.320 -0.3864  0.5660 -1.2552
 1504TIP3   OH226070   2.453   6.784   1.494 -0.1629 -0.0807  0.4449
 1504TIP3    H126071   2.513   6.715   1.465 -0.4060 -0.7291  1.4384
 1504TIP3    H226072   2.511   6.856   1.522  0.0906  0.1536 -0.6239
 1505TIP3   OH226073   0.953   0.278   7.836  0.0152  0.1571  0.3034
 1505TIP3    H126074   0.962   0.229   7.754 -2.3433 -2.4392  1.4106
 1505TIP3    H226075   0.914   0.361   7.810  0.6002 -0.0394 -1.3209
 1506TIP3   OH226076   5.641   5.804   2.608 -0.4608  0.2335  0.0877
 1506TIP3    H126077   5.576   5.872   2.626 -0.0922  0.8192 -0.7696
 1506TIP3    H226078   5.606   5.756   2.533  0.7040  1.3966 -1.2451
 1507TIP3   OH226079   1.257   4.827   0.644 -0.2406  0.1180  0.0666
 1507TIP3    H126080   1.187   4.892   0.642  0.9081  1.3754 -1.1835
 1507TIP3    H226081   1.228   4.759   0.582 -0.4462  0.5315 -0.2977
 1508TIP3   OH226082   0.882   2.931   2.349  0.5272  0.0425 -0.1634
 1508TIP3    H126083   0.881   2.835   2.347 -0.1778  0.0504 -0.4123
 1508TIP3    H226084   0.799   2.957   2.309 -0.1446  0.7413  1.5730
 1509TIP3   OH226085   4.039   4.966   1.865 -0.2814 -0.5652 -0.2529
 1509TIP3    H126086   3.971   4.999   1.923 -0.1716 -0.3121 -0.2648
 1509TIP3    H226087   4.017   5.002   1.779  1.3447  1.8396  0.2033
 1510TIP3   OH226088   6.500   5.004   1.193 -0.2343  0.0367 -0.3400
 1510TIP3    H126089   6.535   5.061   1.261  0.5496  0.2206 -0.8851
 1510TIP3    H226090   6.441   4.944   1.240  0.7334 -0.2174  0.5970
 1511TIP3   OH226091   0.269   5.276   0.009  0.2676 -0.5032 -0.0120
 1511TIP3    H126092   0.235   5.195   0.046  1.0603 -0.7989  0.0956
 1511TIP3    H226093   0.236   5.345   0.066  1.1647 -0.9242  1.0583
 1512TIP3   OH226094   4.770   3.326   1.975  0.3042 -0.3134 -0.2031
 1512TIP3    H126095   4.828   3.376   1.918 -0.3326 -1.2032 -1.7032
 1512TIP3    H226096   4.828   3.268   2.023  1.0154  1.5612  1.3190
 1513TIP3   OH226097   5.005   6.693   1.350 -0.1246 -0.6150 -0.0698
 1513TIP3    H126098   5.053   6.764   1.308 -0.0618 -0.4063  0.3523
 1513TIP3    H226099   4.942   6.737   1.407  0.3834 -0.8961  0.7290
 1514TIP3   OH226100   3.120   3.523   1.594  0.3883  0.0631 -0.1557
 1514TIP3    H126101   3.179   3.448   1.595  1.8621  1.1540 -0.2074
 1514TIP3    H226102   3.179   3.599   1.594 -1.0427  1.2319  0.8696
 1515TIP3   OH226103   2.491   1.339   1.955 -0.7311  0.8877  0.6095
 1515TIP3    H126104   2.549   1.406   1.920 -1.2332  1.1027  0.1858
 1515TIP3    H226105   2.440   1.384   2.023 -0.5569  0.7517  0.8329
 1516TIP3   OH226106   6.248   1.534   1.564 -0.5911  0.0257 -0.1539
 1516TIP3    H126107   6.245   1.449   1.520  1.3330 -0.0812 -0.1678
 1516TIP3    H226108   6.267   1.513   1.656  1.5106  0.4574 -0.4487
 1517TIP3   OH226109   3.369   6.156   2.035  0.4115  0.2759 -0.5194
 1517TIP3    H126110   3.460   6.177   2.056  0.8839 -1.0584 -1.1004
 1517TIP3    H226111   3.347   6.216   1.964  0.7754  0.7250 -0.2591
 1518TIP3   OH226112   3.008   6.807   0.263 -0.0734  0.0131 -1.0770
 1518TIP3    H126113   3.023   6.730   0.318 -1.0672  0.0751 -0.6842
 1518TIP3    H226114   3.091   6.854   0.265  1.3094 -2.1243 -3.1119
 1519TIP3   OH226115   2.406   6.761   0.440  0.3373 -0.1846 -0.1693
 1519TIP3    H126116   2.377   6.834   0.495 -2.0497 -1.7665  0.8353
 1519TIP3    H226117   2.397   6.794   0.350  2.4109  1.7701  0.2374
 1520TIP3   OH226118   0.764   0.917   2.573  0.4885 -0.3320 -0.3245
 1520TIP3    H126119   0.751   0.922   2.668 -1.5444  0.9001 -0.6144
 1520TIP3    H226120   0.779   0.824   2.556 -0.3665 -0.7619  1.0733
 1521TIP3   OH226121   5.017   6.268   3.107  0.5453  0.4600 -0.0663
 1521TIP3    H126122   5.092   6.309   3.064  0.4499 -0.2536 -0.9448
 1521TIP3    H226123   5.056   6.196   3.157  0.3561 -0.5466 -1.3379
 1522TIP3   OH226124   4.373   3.252   7.728 -0.4416  0.0462  0.2993
 1522TIP3    H126125   4.286   3.232   7.693 -0.0816 -0.0402 -0.5978
 1522TIP3    H226126   4.424   3.173   7.710  0.9551  1.4833 -3.1159
 1523TIP3   OH226127   5.243   2.297   8.426  0.2327  0.2872  0.0421
 1523TIP3    H126128   5.179   2.228   8.443  2.5061 -1.7632  0.9279
 1523TIP3    H226129   5.216   2.336   8.343 -2.1214 -0.4558  0.3985
 1524TIP3   OH226130   1.727   5.656   0.191  0.0333  0.2763  0.5603
 1524TIP3    H126131   1.785   5.688   0.121  0.2386 -1.6021 -0.1755
 1524TIP3    H226132   1.698   5.736   0.235  0.8140  1.4543 -0.9348
 1525TIP3   OH226133   5.239   2.874   0.007 -0.2325 -0.1066  0.3800
 1525TIP3    H126134   5.259   2.951  -0.045  0.8328 -1.6852 -1.7167
 1525TIP3    H226135   5.323   2.848   0.045 -0.1763 -1.2518 -0.4728
 1526TIP3   OH226136   6.322   4.758   1.103 -0.3615 -0.3370 -0.1862
 1526TIP3    H126137   6.277   4.819   1.162  1.5624  1.4875 -0.4532
 1526TIP3    H226138   6.374   4.703   1.160  1.5747  1.4899 -0.0685
 1527TIP3   OH226139   4.606   5.593   1.300  0.7222 -0.1000  0.2830
 1527TIP3    H126140   4.567   5.514   1.263  0.5728 -0.0380  0.3092
 1527TIP3    H226141   4.616   5.574   1.394 -0.3499  0.3314  0.4939
 1528TIP3   OH226142   3.538   1.070   7.310 -0.6174  0.2018 -0.0560
 1528TIP3    H126143   3.451   1.102   7.285 -1.3793 -0.3435  1.7248
 1528TIP3    H226144   3.523   0.979   7.337  0.7660 -0.3429 -1.0001
 1529TIP3   OH226145   0.285   4.874   1.144 -1.0243 -0.0542 -0.1065
 1529TIP3    H126146   0.212   4.823   1.179  0.0246  0.4761  3.2475
 1529TIP3    H226147   0.353   4.867   1.211  1.9837 -0.3238 -2.9367
 1530TIP3   OH226148   5.694   0.346   7.849 -0.1463 -0.2267  0.8030
 1530TIP3    H126149   5.603   0.378   7.845  0.4644  1.7432  1.3397
 1530TIP3    H226150   5.713   0.341   7.943  0.1358 -1.1460  0.7002
 1531TIP3   OH226151   2.538   6.372   0.295 -0.1715 -0.1016 -0.0819
 1531TIP3    H126152   2.593   6.407   0.225 -0.1705  1.3321  0.6055
 1531TIP3    H226153   2.449   6.396   0.270 -0.3487 -0.9896 -0.3649
 1532TIP3   OH226154   5.275   4.004   0.723  0.1460 -0.2341  0.3136
 1532TIP3    H126155   5.222   4.081   0.700  1.0161  0.4577  0.5599
 1532TIP3    H226156   5.212   3.932   0.727 -0.9208  0.7062  1.3311
 1533TIP3   OH226157   4.019   5.322   3.042 -0.5161  0.0112  0.0691
 1533TIP3    H126158   3.942   5.272   3.069 -0.5487  0.4953  0.9100
 1533TIP3    H226159   3.989   5.374   2.967 -1.0615  0.3245  0.4980
 1534TIP3   OH226160   3.843   1.407   2.159  0.3860  0.1300 -0.3241
 1534TIP3    H126161   3.918   1.400   2.218 -0.5066  0.3832  0.8948
 1534TIP3    H226162   3.841   1.499   2.134 -0.5124  0.5335  1.0755
 1535TIP3   OH226163   4.578   5.882   8.145 -0.4445  0.0731  0.3083
 1535TIP3    H126164   4.502   5.896   8.088 -0.1790  0.3491  0.0166
 1535TIP3    H226165   4.541   5.873   8.233 -0.9955 -1.8829 -0.0776
 1536TIP3   OH226166   5.781   0.895   2.745 -0.3676  0.1484 -0.3844
 1536TIP3    H126167   5.786   0.805   2.715  0.6875  0.0694 -0.0234
 1536TIP3    H226168   5.688   0.917   2.741 -0.4960 -0.5591 -1.6129
 1537TIP3   OH226169   3.938   6.838   0.349 -0.3114  0.1584  0.1584
 1537TIP3    H126170   3.874   6.902   0.320  0.5301  0.3401 -1.4334
 1537TIP3    H226171   3.976   6.875   0.429 -2.6292 -0.2964  1.5538
 1538TIP3   OH226172   4.914   4.067   1.542  0.5923 -0.4766 -0.5141
 1538TIP3    H126173   4.980   4.001   1.520  1.4169  0.1851 -0.0460
 1538TIP3    H226174   4.958   4.126   1.603 -0.1061  0.5829 -1.0169
 1539TIP3   OH226175   3.416   6.749   0.588  0.2506 -0.0382 -0.2193
 1539TIP3    H126176   3.332   6.795   0.590  0.1365 -0.2524  1.0949
 1539TIP3    H226177   3.409   6.685   0.659  1.0517 -0.9176 -0.9213
 1540TIP3   OH226178   5.780   0.929   1.203 -0.2698  0.4981 -0.1020
 1540TIP3    H126179   5.746   0.882   1.127 -0.0349 -1.3130  0.8753
 1540TIP3    H226180   5.874   0.933   1.189 -0.0403 -1.1602  0.7608
 1541TIP3   OH226181   6.351   4.270   0.427 -0.0005 -0.2317 -0.1576
 1541TIP3    H126182   6.377   4.265   0.336  0.9436  1.0432  0.0153
 1541TIP3    H226183   6.260   4.301   0.424  0.3103  0.6652 -0.6601
 1542TIP3   OH226184   1.038   5.374   2.283  0.6821  0.1219  0.2334
 1542TIP3    H126185   1.032   5.286   2.320  1.2356  0.4077  1.0397
 1542TIP3    H226186   1.010   5.364   2.192 -0.8954 -0.5627  0.7754
 1543TIP3   OH226187   2.590   2.611   1.801 -0.5099  0.7661  0.2867
 1543TIP3    H126188   2.564   2.702   1.785 -0.9580  0.6198  0.1744
 1543TIP3    H226189   2.672   2.601   1.753 -0.8500  0.8915 -0.3308
 1544TIP3   OH226190   1.685   6.148   0.795 -0.0955 -0.2970  0.0829
 1544TIP3    H126191   1.743   6.094   0.743  0.6451  0.3592  0.2216
 1544TIP3    H226192   1.660   6.220   0.738  1.0193  0.6294  0.7296
 1545TIP3   OH226193   1.526   1.692   8.059  0.5361 -0.2402  0.2844
 1545TIP3    H126194   1.529   1.629   7.987 -2.1923 -1.7213  1.2880
 1545TIP3    H226195   1.594   1.756   8.038  2.6577 -2.8096 -1.4491
 1546TIP3   OH226196   6.183   0.728   0.689 -0.3660 -0.1069 -0.2500
 1546TIP3    H126197   6.126   0.781   0.632 -0.8109 -0.8372 -0.5093
 1546TIP3    H226198   6.269   0.733   0.648 -0.9251 -1.5913 -1.7000
 1547TIP3   OH226199   5.647   5.629   8.441  0.5364 -0.2674  0.0337
 1547TIP3    H126200   5.675   5.704   8.494 -1.4456  0.9929 -0.6109
 1547TIP3    H226201   5.692   5.640   8.357  1.3022 -0.5875  0.3879
 1548TIP3   OH226202   4.554   0.844   1.653  0.2145 -0.4057  0.3522
 1548TIP3    H126203   4.609   0.899   1.596  2.2231 -0.1884  2.3477
 1548TIP3    H226204   4.604   0.763   1.662 -2.0665 -2.1379 -1.4280
 1549TIP3   OH226205   2.703   2.183   1.857  0.1191 -0.5309  0.1721
 1549TIP3    H126206   2.646   2.160   1.784  0.2810 -0.6432  0.0800
 1549TIP3    H226207   2.750   2.261   1.828  2.3688 -2.2056 -1.0621
 1550TIP3   OH226208   5.409   2.156   8.641 -0.8705 -0.2333 -0.0169
 1550TIP3    H126209   5.372   2.228   8.592  0.3350 -0.3820 -1.2063
 1550TIP3    H226210   5.496   2.186   8.666 -0.8908 -0.7468  0.7036
 1551TIP3   OH226211   3.430   6.501   1.281  0.2182  0.5555  0.4659
 1551TIP3    H126212   3.515   6.482   1.241 -0.2207  1.1507 -0.8160
 1551TIP3    H226213   3.446   6.499   1.375  1.7958  1.2852  0.2387
 1552TIP3   OH226214   4.970   2.670   7.497  0.1201 -0.0858  0.5189
 1552TIP3    H126215   5.056   2.647   7.461 -0.0377 -1.4822  0.9664
 1552TIP3    H226216   4.910   2.661   7.422  0.2756  0.3107  0.3462
 1553TIP3   OH226217   5.540   4.683   0.967 -0.3884  0.1806 -0.4032
 1553TIP3    H126218   5.623   4.729   0.967  0.0854 -0.6512 -0.0253
 1553TIP3    H226219   5.474   4.752   0.962  0.3014  0.8842  0.0529
 1554TIP3   OH226220   5.395   1.518   7.595  0.0293 -0.2411  0.4273
 1554TIP3    H126221   5.468   1.566   7.555 -1.1040 -0.1965 -1.7059
 1554TIP3    H226222   5.320   1.576   7.586 -0.5806 -0.8581  1.3384
 1555TIP3   OH226223   2.172   5.365   1.593  0.2556  0.0360 -0.5522
 1555TIP3    H126224   2.107   5.301   1.623 -1.2323  0.6579 -2.2810
 1555TIP3    H226225   2.138   5.396   1.509  2.8651  0.3442 -1.5568
 1556TIP3   OH226226   4.462   5.892   7.160  0.0321  0.3985  0.5040
 1556TIP3    H126227   4.442   5.874   7.068 -0.4037  1.9216  0.2808
 1556TIP3    H226228   4.557   5.902   7.162  0.0680  0.1237  0.2658
 1557TIP3   OH226229   4.715   0.611   2.516 -0.4189 -0.0413  0.2609
 1557TIP3    H126230   4.761   0.688   2.549  1.6998 -0.9482 -0.3899
 1557TIP3    H226231   4.674   0.572   2.594  0.5248  0.4368  1.0219
 1558TIP3   OH226232   5.304   0.967   0.360  0.3190 -0.0899  0.3253
 1558TIP3    H126233   5.386   0.938   0.321  1.6570  1.4127  1.8604
 1558TIP3    H226234   5.294   0.911   0.437 -0.4612 -0.6761 -0.1804
 1559TIP3   OH226235   5.138   0.907   7.633  0.3472 -0.0198  0.0043
 1559TIP3    H126236   5.108   0.820   7.659 -0.9993  0.1488 -0.8527
 1559TIP3    H226237   5.222   0.892   7.589 -0.6995 -1.1519 -1.7421
 1560TIP3   OH226238   4.652   0.348   1.860 -0.4192 -0.0577  0.1355
 1560TIP3    H126239   4.747   0.363   1.856 -0.8531  3.9094  0.6040
 1560TIP3    H226240   4.642   0.274   1.919  2.3911 -1.5580 -1.0610
 1561TIP3   OH226241   0.794   1.963   8.131  0.0734 -0.4243  0.4004
 1561TIP3    H126242   0.749   1.998   8.208  2.9057 -1.3612  2.6819
 1561TIP3    H226243   0.863   2.027   8.113 -1.1253  0.2705 -2.0880
 1562TIP3   OH226244   6.488   6.099   1.289  0.7501 -0.3316 -0.2256
 1562TIP3    H126245   6.561   6.151   1.256  0.7010 -0.5463 -0.6840
 1562TIP3    H226246   6.430   6.087   1.213  2.2764 -3.7107 -1.0606
 1563TIP3   OH226247   2.948   0.784   2.266  0.1886 -0.2439  0.6325
 1563TIP3    H126248   2.890   0.746   2.332  0.4179  0.1287  1.0520
 1563TIP3    H226249   2.889   0.828   2.205 -0.0086 -0.3614  0.7373
 1564TIP3   OH226250   4.068   5.394   8.068 -0.0389  0.5888  0.5851
 1564TIP3    H126251   4.141   5.431   8.018 -0.9533 -0.0183 -1.3170
 1564TIP3    H226252   4.070   5.441   8.151  1.1827  2.1380 -0.2494
 1565TIP3   OH226253   1.828   2.709   7.509 -0.8905 -0.7752  0.4749
 1565TIP3    H126254   1.763   2.716   7.440 -0.5994 -0.3901  0.2355
 1565TIP3    H226255   1.813   2.622   7.547 -0.0814 -1.6328 -1.0652
 1566TIP3   OH226256   4.476   6.167   1.740  0.4221 -1.4445  0.8325
 1566TIP3    H126257   4.385   6.137   1.744  0.2146 -0.7313  1.9840
 1566TIP3    H226258   4.528   6.086   1.737 -0.2520 -1.8606 -0.8294
 1567TIP3   OH226259   3.076   0.929   0.968  0.0818 -0.3260  0.2755
 1567TIP3    H126260   3.079   0.892   1.056 -0.7193 -4.8927 -1.3571
 1567TIP3    H226261   2.992   0.973   0.962 -0.4004 -1.0615  1.4412
 1568TIP3   OH226262   5.757   0.563   8.508  0.5752 -0.3284 -0.3438
 1568TIP3    H126263   5.781   0.528   8.594 -1.0291 -0.0584  0.2381
 1568TIP3    H226264   5.724   0.651   8.525 -0.1031 -0.4047 -1.1947
 1569TIP3   OH226265   4.215   2.184   7.040  0.2546 -0.0763 -0.7541
 1569TIP3    H126266   4.266   2.105   7.061 -2.5131 -1.7776  0.1199
 1569TIP3    H226267   4.260   2.222   6.965  2.5555 -1.6577 -0.2754
 1570TIP3   OH226268   0.074   3.539   8.275 -0.2696  0.0288  0.1528
 1570TIP3    H126269  -0.003   3.573   8.320 -0.8017  0.0602 -0.7677
 1570TIP3    H226270   0.039   3.489   8.201  0.6143  1.0952 -1.0243
 1571TIP3   OH226271   5.999   2.363   0.470 -0.2053 -0.5458 -0.4962
 1571TIP3    H126272   6.059   2.303   0.426 -0.7354 -0.2400 -1.6514
 1571TIP3    H226273   5.999   2.442   0.417  0.9971  0.7928  1.3597
 1572TIP3   OH226274   1.359   2.840   8.251 -0.0681  0.2613 -0.0848
 1572TIP3    H126275   1.337   2.889   8.330 -0.4167 -0.3559  0.2181
 1572TIP3    H226276   1.348   2.748   8.276  0.0549  0.0453 -0.7796
 1573TIP3   OH226277   2.934   2.035   8.207 -0.0083 -0.1340  0.0607
 1573TIP3    H126278   2.973   2.113   8.248 -0.9881  0.4978 -0.1739
 1573TIP3    H226279   2.929   2.058   8.114  2.0756 -1.4985 -0.4661
 1574TIP3   OH226280   6.525   1.757   1.327  0.3026 -0.2015 -0.1182
 1574TIP3    H126281   6.433   1.762   1.303  0.0669  0.2156  0.8384
 1574TIP3    H226282   6.526   1.757   1.423  1.1728 -2.5832 -0.0418
 1575TIP3   OH226283   3.745   5.795   7.047  0.0383 -0.0683 -0.9122
 1575TIP3    H126284   3.760   5.810   6.953 -0.4250  2.4607 -0.6524
 1575TIP3    H226285   3.727   5.882   7.082 -4.0118 -1.3611  0.7880
 1576TIP3   OH226286   2.291   1.374   0.357  0.0887  0.0015 -0.0651
 1576TIP3    H126287   2.380   1.397   0.328  0.7775  0.4730  2.2283
 1576TIP3    H226288   2.245   1.458   0.361 -0.4942 -0.2426 -1.2485
 1577TIP3   OH226289   1.446   4.540   2.217 -0.3584 -0.1190  0.0863
 1577TIP3    H126290   1.499   4.612   2.183 -0.3408 -1.0595 -2.0886
 1577TIP3    H226291   1.426   4.564   2.307  0.0161  2.3737 -0.4330
 1578TIP3   OH226292   3.994   5.058   0.980 -0.2070  0.1972  0.4071
 1578TIP3    H126293   3.935   5.105   0.922 -0.6207  0.6325  1.1658
 1578TIP3    H226294   3.999   4.970   0.943  0.1565  0.6795 -0.7170
 1579TIP3   OH226295   3.206   3.626   1.253  0.1118 -0.3617 -0.0812
 1579TIP3    H126296   3.193   3.660   1.164  1.1967 -1.9091 -0.8759
 1579TIP3    H226297   3.178   3.535   1.248 -1.1188 -0.1173  1.5565
 1580TIP3   OH226298   5.600   3.989   0.406 -0.1367  0.7761 -0.3371
 1580TIP3    H126299   5.507   3.967   0.396 -0.0231 -1.3580  2.2624
 1580TIP3    H226300   5.637   3.973   0.319 -1.6977 -1.4241 -0.7062
 1581TIP3   OH226301   6.480   5.341   7.512 -0.3092  0.4669 -0.2081
 1581TIP3    H126302   6.426   5.391   7.450 -0.8712  1.6454  1.1841
 1581TIP3    H226303   6.547   5.301   7.457 -1.1071  1.0227 -1.6618
 1582TIP3   OH226304   1.248   2.172   2.252 -0.3422  0.3875 -0.4058
 1582TIP3    H126305   1.155   2.153   2.265 -0.8072  1.7519 -1.5343
 1582TIP3    H226306   1.291   2.138   2.331 -1.9263  0.7709  0.6525
 1583TIP3   OH226307   3.457   4.276   0.370 -0.5759 -0.5323  0.2541
 1583TIP3    H126308   3.455   4.199   0.315  0.3900 -1.0441  0.8928
 1583TIP3    H226309   3.483   4.347   0.311  1.7781 -1.3043  0.2305
 1584TIP3   OH226310   2.887   0.071   0.589 -0.2801 -0.3691  0.1389
 1584TIP3    H126311   2.937   0.108   0.516 -0.6613  1.8236  0.9031
 1584TIP3    H226312   2.797   0.068   0.557 -0.3038 -0.2719  0.1945
 1585TIP3   OH226313   5.190   2.401   0.916  0.1271 -0.0340 -0.2655
 1585TIP3    H126314   5.248   2.373   0.987 -0.8233 -0.0038  0.5455
 1585TIP3    H226315   5.222   2.354   0.839  0.3123 -1.1670  0.4819
 1586TIP3   OH226316   6.511   0.977   8.491  0.4459  0.2270  0.6346
 1586TIP3    H126317   6.584   0.916   8.502 -0.3320 -0.7087  0.7760
 1586TIP3    H226318   6.497   1.014   8.578  0.3752 -0.0416  0.7393
 1587TIP3   OH226319   4.231   1.327   1.009  0.6671 -0.3527 -0.6244
 1587TIP3    H126320   4.252   1.331   0.916 -0.9690 -0.0759 -1.0184
 1587TIP3    H226321   4.156   1.267   1.015  0.7821 -0.4172  0.5224
 1588TIP3   OH226322   6.031   0.221   8.361  0.0803 -0.1415 -0.1055
 1588TIP3    H126323   6.075   0.299   8.396 -0.2583 -0.1894  0.4313
 1588TIP3    H226324   5.941   0.228   8.393  0.1532 -0.9760  0.3010
 1589TIP3   OH226325   0.178   1.760   8.234  0.3742 -0.5627  0.0825
 1589TIP3    H126326   0.182   1.665   8.243 -1.0268 -0.5797  0.8495
 1589TIP3    H226327   0.110   1.775   8.168  0.6989 -0.0925 -0.1550
 1590TIP3   OH226328   6.882   6.231   0.222 -0.0313 -0.0620  0.1880
 1590TIP3    H126329   6.828   6.289   0.276 -1.5751  0.5020 -1.8636
 1590TIP3    H226330   6.967   6.276   0.217 -0.7151  1.2580 -0.0724
 1591TIP3   OH226331   1.562   3.586   8.161 -0.4685 -0.1110 -0.1727
 1591TIP3    H126332   1.653   3.574   8.187 -0.5394 -1.5747 -0.5192
 1591TIP3    H226333   1.522   3.634   8.233  0.3017 -0.4986  0.5185
 1592TIP3   OH226334   6.318   6.567   2.017  0.1312 -0.1004  0.6065
 1592TIP3    H126335   6.356   6.612   2.092 -0.4200  0.3327  0.6337
 1592TIP3    H226336   6.234   6.611   2.002 -0.8274 -1.6550  1.1640
 1593TIP3   OH226337   3.645   1.672   2.198  0.3005 -0.4340 -0.0549
 1593TIP3    H126338   3.639   1.749   2.255  3.1739  1.4207 -1.9703
 1593TIP3    H226339   3.736   1.642   2.209  0.1777 -1.5339 -1.7640
 1594TIP3   OH226340   4.990   0.322   7.107 -0.0885  0.5827  0.4504
 1594TIP3    H126341   5.071   0.371   7.089  0.9588  0.2929  3.7690
 1594TIP3    H226342   4.927   0.390   7.131 -0.5715  0.7141 -1.0681
 1595TIP3   OH226343   4.698   6.073   7.383 -0.2138 -0.6358 -0.0444
 1595TIP3    H126344   4.739   6.006   7.328  0.3035  1.0235 -1.8226
 1595TIP3    H226345   4.771   6.126   7.415 -0.6370 -0.6484  0.9835
 1596TIP3   OH226346   1.032   3.366   7.237 -0.2605  0.2803 -0.7189
 1596TIP3    H126347   0.944   3.361   7.275 -0.1640  0.9112 -0.4083
 1596TIP3    H226348   1.018   3.400   7.148 -0.1419  2.7512  0.1354
 1597TIP3   OH226349   3.318   3.881   8.187  0.0262  0.3430  0.7214
 1597TIP3    H126350   3.330   3.789   8.165 -0.5194  0.4337  0.0295
 1597TIP3    H226351   3.337   3.928   8.106  0.5314  0.8664  1.1274
 1598TIP3   OH226352   3.703   1.645   8.281  0.0557 -0.1970 -0.0154
 1598TIP3    H126353   3.693   1.552   8.298 -1.0172 -0.4143 -1.5776
 1598TIP3    H226354   3.660   1.688   8.355 -0.2550 -0.9617  0.2595
 1599TIP3   OH226355   0.542   4.208   2.810  0.0366  0.2015  0.0715
 1599TIP3    H126356   0.532   4.128   2.861 -0.9194 -0.8995 -1.7585
 1599TIP3    H226357   0.624   4.196   2.763 -0.8953 -0.4737 -1.4423
 1600TIP3   OH226358   4.226   5.527   0.040  0.7128 -0.1125 -0.3078
 1600TIP3    H126359   4.147   5.576   0.019  0.9706 -0.2775 -1.7604
 1600TIP3    H226360   4.240   5.470  -0.036  1.2191 -1.4011  0.7140
 1601TIP3   OH226361   3.653   2.511   8.179 -1.0324 -0.3855 -0.9251
 1601TIP3    H126362   3.724   2.456   8.146 -0.5282 -0.5061  0.3163
 1601TIP3    H226363   3.697   2.585   8.220 -1.6408 -0.1671 -0.6613
 1602TIP3   OH226364   3.870   3.394   7.090 -0.3616  0.5427 -0.4781
 1602TIP3    H126365   3.775   3.384   7.086 -0.2669 -0.4235 -0.5440
 1602TIP3    H226366   3.904   3.311   7.058  0.5026  0.3783  0.8060
 1603TIP3   OH226367   1.769   1.251   8.183  0.0849 -0.1722 -0.4265
 1603TIP3    H126368   1.792   1.278   8.272  0.1201  0.2683 -0.5628
 1603TIP3    H226369   1.674   1.267   8.177 -0.1579 -1.3666 -0.0742
 1604TIP3   OH226370   2.264   1.535   1.861 -0.9503 -0.1427  0.0443
 1604TIP3    H126371   2.339   1.592   1.879  0.7244 -1.8721 -1.0347
 1604TIP3    H226372   2.228   1.568   1.778  0.9932 -1.4856 -1.4231
 1605TIP3   OH226373   6.623   0.705   7.691  0.0264  0.0152  0.0391
 1605TIP3    H126374   6.646   0.671   7.777 -2.4255  0.6628  1.0448
 1605TIP3    H226375   6.705   0.739   7.655  1.0833 -0.1402  2.1627
 1606TIP3   OH226376   6.700   0.053   0.283  0.5959 -0.3186  0.9639
 1606TIP3    H126377   6.654   0.016   0.359  0.4327 -0.7329  0.6629
 1606TIP3    H226378   6.747   0.129   0.319 -2.3336  1.7118  0.8272
 1607TIP3   OH226379   4.309   4.132   7.590  0.0664  0.0298  0.5405
 1607TIP3    H126380   4.339   4.191   7.520 -0.3680  1.1018  1.2224
 1607TIP3    H226381   4.231   4.089   7.554  1.4750 -1.6302 -0.6790
 1608TIP3   OH226382   2.967   5.767   0.794  0.0820  0.2410 -0.0382
 1608TIP3    H126383   3.017   5.698   0.838 -2.1143 -0.0968  2.1519
 1608TIP3    H226384   2.921   5.812   0.865 -0.6296  2.2750 -1.6809
 1609TIP3   OH226385   2.154   6.249   0.383  0.2261 -0.1537  0.4593
 1609TIP3    H126386   2.072   6.296   0.399  0.2642  1.9628 -4.0765
 1609TIP3    H226387   2.223   6.309   0.411  0.2795 -0.3876  0.8442
 1610TIP3   OH226388   0.600   3.455   8.554  0.0246 -0.2199  0.2828
 1610TIP3    H126389   0.543   3.484   8.483  0.4586  0.2723  0.1283
 1610TIP3    H226390   0.544   3.398   8.607 -0.3102 -0.5774 -0.4336
 1611TIP3   OH226391   0.598   0.950   0.750  0.2580  0.5663  0.2959
 1611TIP3    H126392   0.634   0.876   0.798 -0.1283  0.2048  0.0454
 1611TIP3    H226393   0.507   0.925   0.734 -0.7951  2.3885  2.8261
 1612TIP3   OH226394   0.221   0.084   7.785  0.6371  0.1407  0.6451
 1612TIP3    H126395   0.149   0.145   7.800  0.6625  0.6111 -0.9266
 1612TIP3    H226396   0.227   0.033   7.865 -1.3807  0.1490  0.8398
 1613TIP3   OH226397   5.560   0.905   0.309 -0.7629  0.3301  0.1356
 1613TIP3    H126398   5.571   0.921   0.403  1.1349 -0.5019  0.1094
 1613TIP3    H226399   5.598   0.982   0.267  2.3107 -1.0476  0.0852
 1614TIP3   OH226400   0.430   5.827   8.076  0.7525  0.0548 -0.0073
 1614TIP3    H126401   0.422   5.915   8.115 -0.3831  0.0227 -0.1343
 1614TIP3    H226402   0.476   5.842   7.994 -0.8212  0.7875 -0.7987
 1615TIP3   OH226403   0.913   3.037   1.297 -0.2310 -0.1567  0.3456
 1615TIP3    H126404   0.833   3.068   1.256 -0.6304 -3.1889 -1.4341
 1615TIP3    H226405   0.970   3.013   1.224  1.6882  0.3851  1.5914
 1616TIP3   OH226406   3.060   4.351   2.518 -0.4228 -0.4758 -0.3807
 1616TIP3    H126407   3.061   4.406   2.597 -2.1959 -0.6229 -0.2071
 1616TIP3    H226408   2.991   4.389   2.463 -1.8451 -2.5531 -0.1803
 1617TIP3   OH226409   6.407   4.825   7.407 -0.2821 -0.0140 -0.7318
 1617TIP3    H126410   6.495   4.846   7.376  0.3654 -1.8791 -0.2934
 1617TIP3    H226411   6.376   4.905   7.449  1.7171  0.3142  0.2248
 1618TIP3   OH226412   0.450   6.127   0.131  0.4029  0.6053 -0.5460
 1618TIP3    H126413   0.498   6.209   0.140  2.3929 -0.6266  0.8946
 1618TIP3    H226414   0.372   6.139   0.186  1.3499  1.0821  0.7345
 1619TIP3   OH226415   1.465   3.215   7.287  0.7421 -0.0439 -0.2285
 1619TIP3    H126416   1.510   3.170   7.358 -1.7322 -0.6064  1.0912
 1619TIP3    H226417   1.481   3.308   7.302  2.9757 -0.2497 -0.9447
 1620TIP3   OH226418   6.495   0.066   8.646  0.1084  0.4978  0.2913
 1620TIP3    H126419   6.479   0.007   8.720  0.4239 -1.2260 -0.9529
 1620TIP3    H226420   6.415   0.061   8.593  0.7846 -0.2074 -0.7096
 1621TIP3   OH226421   6.818   2.627   0.212 -0.0369  0.5082 -0.0627
 1621TIP3    H126422   6.888   2.636   0.147  0.0301  1.9478  0.1896
 1621TIP3    H226423   6.833   2.540   0.250 -0.7550 -0.8913 -2.7092
 1622TIP3   OH226424   6.091   6.333   2.472  0.1069  0.1325  0.6596
 1622TIP3    H126425   6.132   6.407   2.517  0.7543 -0.2723  0.7519
 1622TIP3    H226426   6.131   6.334   2.385  1.3360 -1.0579  1.1724
 1623TIP3   OH226427   2.139   5.172   7.494 -0.0532  0.6323 -0.1380
 1623TIP3    H126428   2.161   5.176   7.587 -0.3526  1.8283 -0.1044
 1623TIP3    H226429   2.139   5.079   7.473 -0.5771  0.3195  1.1950
 1624TIP3   OH226430   4.282   0.705   7.470 -0.0254  0.6956  0.1625
 1624TIP3    H126431   4.191   0.705   7.498 -0.2080  0.3771 -0.4241
 1624TIP3    H226432   4.319   0.784   7.510 -1.0143  1.8189 -1.0498
 1625TIP3   OH226433   5.750   6.598   0.083 -0.1389  0.2929  0.1012
 1625TIP3    H126434   5.658   6.622   0.068 -0.7463 -1.7049  0.3122
 1625TIP3    H226435   5.784   6.578  -0.004  0.0987  1.0032  0.0268
 1626TIP3   OH226436   0.408   6.041   7.319  0.5408 -0.4393  0.8922
 1626TIP3    H126437   0.348   6.114   7.333  0.6092 -0.2321  0.1466
 1626TIP3    H226438   0.352   5.967   7.298  0.5774  0.2285 -1.9001
 1627TIP3   OH226439   4.520   3.394   6.830  0.0931 -0.0888 -0.5533
 1627TIP3    H126440   4.539   3.485   6.852 -1.6158  0.2896 -0.4863
 1627TIP3    H226441   4.594   3.366   6.776  0.1552  1.6688 -1.4493
 1628TIP3   OH226442   3.344   2.197   7.726 -0.9064 -0.0986  0.6812
 1628TIP3    H126443   3.331   2.138   7.800 -2.0790  0.0153  0.5749
 1628TIP3    H226444   3.342   2.285   7.765  1.9792 -0.0871  1.0218
 1629TIP3   OH226445   5.365   6.705   1.259 -0.6169 -0.1909 -0.1120
 1629TIP3    H126446   5.299   6.644   1.291 -0.6199  0.0236  0.2989
 1629TIP3    H226447   5.410   6.736   1.338  0.7081 -1.1517 -0.4508
 1630TIP3   OH226448   3.094   5.202   1.912 -0.1310  0.3658  0.1347
 1630TIP3    H126449   3.063   5.206   1.822  2.6254  0.4244 -0.8959
 1630TIP3    H226450   3.087   5.110   1.936  1.8332 -0.1805 -1.2288
 1631TIP3   OH226451   1.482   6.519   1.810 -0.5247  0.2197 -0.8009
 1631TIP3    H126452   1.478   6.612   1.830 -1.5445  0.0061  0.0970
 1631TIP3    H226453   1.407   6.481   1.856  0.6457 -1.2521  0.0178
 1632TIP3   OH226454   1.783   1.817   7.859  0.5543 -0.1929 -0.0191
 1632TIP3    H126455   1.829   1.746   7.814 -1.0594 -2.4688  1.7396
 1632TIP3    H226456   1.714   1.843   7.799  2.0241  0.9873 -1.2868
 1633TIP3   OH226457   4.610   1.085   2.002  0.1575 -0.4688  0.3743
 1633TIP3    H126458   4.559   1.140   1.942  2.0644  1.3086  0.2718
 1633TIP3    H226459   4.698   1.084   1.964  1.6350  1.2820  3.3975
 1634TIP3   OH226460   3.428   1.792   2.800  0.1487  0.3827 -0.5161
 1634TIP3    H126461   3.353   1.756   2.753  0.2282 -0.1815 -0.2212
 1634TIP3    H226462   3.424   1.750   2.887  0.8888  0.2294 -0.5515
 1635TIP3   OH226463   1.267   1.409   0.767  0.0269  0.2096  0.2738
 1635TIP3    H126464   1.262   1.489   0.716 -1.7307 -0.1910 -0.2411
 1635TIP3    H226465   1.177   1.375   0.769  0.5575 -1.2720  1.2391
 1636TIP3   OH226466   0.182   0.764   1.020 -0.1097  0.1247 -0.2866
 1636TIP3    H126467   0.170   0.672   0.999  1.4633  0.2630 -2.1370
 1636TIP3    H226468   0.115   0.809   0.968  0.0369  0.0877 -0.5134
 1637TIP3   OH226469   3.054   0.216   0.027  0.8207  0.5281  0.3171
 1637TIP3    H126470   2.985   0.150   0.019  1.2338  0.2013 -0.8379
 1637TIP3    H226471   3.130   0.176  -0.015  0.8362  2.0571 -1.2066
 1638TIP3   OH226472   4.031   1.313   0.597  0.3977  0.7132 -0.4238
 1638TIP3    H126473   4.064   1.370   0.527 -1.1964 -0.9725 -2.7019
 1638TIP3    H226474   3.994   1.374   0.661 -0.1705  2.3469 -2.1724
 1639TIP3   OH226475   1.649   4.571   1.947 -0.1261 -0.3894  0.2473
 1639TIP3    H126476   1.570   4.517   1.957 -0.6065  0.1921 -0.3680
 1639TIP3    H226477   1.682   4.548   1.860  1.1093 -1.5610  0.9799
 1640TIP3   OH226478   2.837   1.413   7.205 -0.0597 -0.1031 -0.3925
 1640TIP3    H126479   2.865   1.503   7.189  0.2497  0.1034  1.1962
 1640TIP3    H226480   2.753   1.421   7.250  0.0479 -0.5925 -0.0953
 1641TIP3   OH226481   0.732   0.816   1.589 -0.4961 -0.5244  0.2315
 1641TIP3    H126482   0.774   0.771   1.662 -2.0176 -2.7061 -0.1460
 1641TIP3    H226483   0.778   0.784   1.511 -1.6495 -1.5878 -0.0469
 1642TIP3   OH226484   3.317   0.356   1.714  0.1187  0.7094  0.2554
 1642TIP3    H126485   3.408   0.333   1.735  0.3027  1.8335  0.7504
 1642TIP3    H226486   3.295   0.300   1.640  1.0486  0.0620  0.4498
 1643TIP3   OH226487   0.737   1.440   1.673  0.2119  0.5757 -0.8585
 1643TIP3    H126488   0.665   1.435   1.610 -0.5015 -1.3620  0.0380
 1643TIP3    H226489   0.705   1.500   1.741  0.4808  1.6721 -1.6676
 1644TIP3   OH226490   3.393   3.058   1.309  0.2468 -0.2388 -0.1205
 1644TIP3    H126491   3.362   3.148   1.302  1.4948  0.1924 -0.4573
 1644TIP3    H226492   3.444   3.045   1.229 -0.2415 -1.3870 -0.2621
 1645TIP3   OH226493   5.400   6.329   0.776 -0.0660 -0.2299 -0.0542
 1645TIP3    H126494   5.340   6.403   0.789  1.1980  0.5831  1.6477
 1645TIP3    H226495   5.470   6.365   0.721 -0.6883 -0.9317 -1.3392
 1646TIP3   OH226496   2.398   5.923   8.223 -0.6682  0.7402  0.4430
 1646TIP3    H126497   2.305   5.937   8.203 -0.7670  0.7232  0.8857
 1646TIP3    H226498   2.413   5.831   8.205  0.2125  1.4818 -3.4116
 1647TIP3   OH226499   1.572   4.814   2.107  0.8953 -0.0079  0.2101
 1647TIP3    H126500   1.648   4.868   2.132  0.6122  0.5801 -0.1685
 1647TIP3    H226501   1.610   4.734   2.072  1.3197 -0.3186  1.3187
 1648TIP3   OH226502   0.018   1.428   1.229 -0.4456  0.9937  0.5978
 1648TIP3    H126503   0.036   1.450   1.320  0.6099  2.3785  0.1002
 1648TIP3    H226504   0.100   1.389   1.197 -0.3550  1.6989 -0.0790
 1649TIP3   OH226505   3.142   4.399   0.341  0.2847  0.0696  0.5621
 1649TIP3    H126506   3.223   4.373   0.296 -0.0109  1.9532 -1.1937
 1649TIP3    H226507   3.097   4.316   0.358  0.8475 -0.8224 -1.8880
 1650TIP3   OH226508   2.996   0.379   8.097 -0.2270  0.2135 -0.4438
 1650TIP3    H126509   2.903   0.382   8.075 -0.1405  1.1986 -0.7233
 1650TIP3    H226510   3.010   0.291   8.131 -1.1329 -0.1467 -0.9814
 1651TIP3   OH226511   3.346   2.298   7.402 -0.1574 -0.4197 -0.2544
 1651TIP3    H126512   3.282   2.363   7.371 -1.2230 -0.3808  1.8508
 1651TIP3    H226513   3.294   2.233   7.448  1.3663  0.3798  2.8553
 1652TIP3   OH226514   5.954   1.529   8.532  0.4653 -0.0908  0.4712
 1652TIP3    H126515   6.017   1.553   8.464  0.1697 -0.1443  0.1791
 1652TIP3    H226516   5.937   1.611   8.579  1.3287 -0.2191  1.0414
 1653TIP3   OH226517   6.805   6.683   2.459 -0.6740 -0.2217  0.1668
 1653TIP3    H126518   6.883   6.735   2.480  0.6777 -1.1524 -2.1822
 1653TIP3    H226519   6.734   6.747   2.457  0.1573  0.8000  1.4630
 1654TIP3   OH226520   3.362   3.153   2.958  0.5711  0.1708  0.3930
 1654TIP3    H126521   3.320   3.116   3.036  0.5979  0.9171  0.7765
 1654TIP3    H226522   3.358   3.248   2.973  1.8588  0.2781  0.1512
 1655TIP3   OH226523   5.524   2.928   8.559 -0.2351  0.4214  0.5657
 1655TIP3    H126524   5.462   2.976   8.613 -2.1906 -0.0570 -1.1193
 1655TIP3    H226525   5.581   2.995   8.521 -1.3403  1.1610  0.1814
 1656TIP3   OH226526   4.665   0.210   0.219 -0.2999  0.5238 -1.0810
 1656TIP3    H126527   4.669   0.120   0.252  1.8377  0.6971 -0.7454
 1656TIP3    H226528   4.590   0.248   0.265  0.9574 -0.0328  1.6520
 1657TIP3   OH226529   2.377   5.622   8.429 -0.0630 -0.3079  0.0576
 1657TIP3    H126530   2.397   5.541   8.474 -0.2951 -1.0992 -1.2072
 1657TIP3    H226531   2.324   5.672   8.491 -0.9391 -1.6470  0.4291
 1658TIP3   OH226532   4.172   2.121   7.755 -0.0797  0.5335  0.1535
 1658TIP3    H126533   4.260   2.107   7.790  0.0047  0.6530 -0.0111
 1658TIP3    H226534   4.186   2.149   7.665 -0.3097 -0.3526 -0.1662
 1659TIP3   OH226535   5.169   4.849   2.288  0.2972  0.0877 -0.2296
 1659TIP3    H126536   5.088   4.856   2.237 -1.3776 -0.0903  2.2322
 1659TIP3    H226537   5.140   4.833   2.378  3.0978 -0.1899  0.7355
 1660TIP3   OH226538   6.642   5.876   1.257 -0.3191  0.4944 -0.1897
 1660TIP3    H126539   6.574   5.813   1.280  0.9442 -1.3120 -1.1821
 1660TIP3    H226540   6.623   5.953   1.311 -0.7704 -1.4239  2.5911
 1661TIP3   OH226541   0.016   6.652   1.109  0.3796  0.5990 -0.7722
 1661TIP3    H126542   0.069   6.601   1.047  0.6753  0.0284 -0.0734
 1661TIP3    H226543  -0.019   6.586   1.170  3.5763  1.4375  2.2930
 1662TIP3   OH226544   0.504   2.525   0.362  0.3299  0.0900 -0.3249
 1662TIP3    H126545   0.591   2.545   0.326  0.9438  0.8896  1.4922
 1662TIP3    H226546   0.513   2.437   0.399  0.6123  0.4471  0.4914
 1663TIP3   OH226547   4.848   5.706   2.176  0.1251 -0.5182 -0.0231
 1663TIP3    H126548   4.935   5.678   2.146 -0.1496  0.4971 -1.9343
 1663TIP3    H226549   4.823   5.641   2.242  1.8146 -1.5358 -0.3301
 1664TIP3   OH226550   0.850   0.192   0.308  0.6028 -0.1386 -0.4704
 1664TIP3    H126551   0.854   0.287   0.313  0.4182 -0.1879  1.5597
 1664TIP3    H226552   0.854   0.172   0.215  0.0385  1.8802 -0.9710
 1665TIP3   OH226553   4.264   6.128   1.498 -0.4025  0.4371  0.0737
 1665TIP3    H126554   4.307   6.122   1.413 -1.1721 -0.7297 -0.2747
 1665TIP3    H226555   4.282   6.217   1.529  1.2447  0.3556 -0.5573
 1666TIP3   OH226556   0.793   2.571   1.141  0.0300 -0.0141 -0.3504
 1666TIP3    H126557   0.799   2.536   1.052 -0.3411 -1.2942  0.1111
 1666TIP3    H226558   0.851   2.516   1.193 -1.9755 -1.2167  0.7521
 1667TIP3   OH226559   4.556   2.574   1.258  0.1952 -0.1425  0.5159
 1667TIP3    H126560   4.469   2.541   1.280  0.3233 -1.0321 -0.2554
 1667TIP3    H226561   4.614   2.499   1.270  0.1090 -1.2622 -4.1215
 1668TIP3   OH226562   2.204   6.665   1.565 -0.3746  0.0267 -0.0263
 1668TIP3    H126563   2.295   6.687   1.546 -0.7827  2.7815  0.8614
 1668TIP3    H226564   2.207   6.619   1.649  0.0775  2.1858  1.2133
 1669TIP3   OH226565   6.412   0.526   2.165  0.3753  0.0557 -0.1351
 1669TIP3    H126566   6.336   0.491   2.118  0.7280 -0.5708 -0.2344
 1669TIP3    H226567   6.395   0.621   2.169 -0.4532 -0.0877 -0.0822
 1670TIP3   OH226568   1.519   2.333   0.010 -0.4528 -0.2596 -0.3102
 1670TIP3    H126569   1.571   2.299  -0.063 -0.4179  1.1184 -0.9552
 1670TIP3    H226570   1.583   2.347   0.080 -0.7607 -3.4503  0.7603
 1671TIP3   OH226571   5.690   5.519   0.498 -0.3648  0.0829 -0.3038
 1671TIP3    H126572   5.638   5.457   0.448 -0.6974  2.2031 -2.7757
 1671TIP3    H226573   5.649   5.604   0.482  1.5138  1.3108  0.9029
 1672TIP3   OH226574   4.801   5.100   7.485 -0.0167 -0.1734 -0.7412
 1672TIP3    H126575   4.787   5.008   7.507  1.0160 -0.2494 -0.3786
 1672TIP3    H226576   4.856   5.098   7.407  0.1289  0.1342 -0.6483
 1673TIP3   OH226577   2.917   5.813   0.417  0.0740 -0.0921 -0.2937
 1673TIP3    H126578   2.894   5.870   0.343 -0.3027  0.7156  0.4256
 1673TIP3    H226579   2.885   5.727   0.391 -1.4433  0.4783 -0.4448
 1674TIP3   OH226580   2.495   2.121   1.518  0.2703  0.6889 -0.4183
 1674TIP3    H126581   2.472   2.143   1.608 -1.8310 -1.7977 -0.2368
 1674TIP3    H226582   2.578   2.075   1.524 -0.4682 -0.5903  0.4655
 1675TIP3   OH226583   5.184   6.054   0.429 -0.0743  0.2799 -0.5196
 1675TIP3    H126584   5.120   6.079   0.362 -1.3753 -1.6023 -0.0701
 1675TIP3    H226585   5.156   6.100   0.508  1.1940  2.1416 -1.0912
 1676TIP3   OH226586   3.197   2.441   2.122 -0.5752  0.0770  0.1514
 1676TIP3    H126587   3.234   2.501   2.187  0.0700 -0.7287  0.5572
 1676TIP3    H226588   3.235   2.356   2.144 -0.1553 -0.1826 -1.4322
 1677TIP3   OH226589   5.805   1.632   7.696 -0.0324  0.0526  0.3136
 1677TIP3    H126590   5.777   1.623   7.605 -0.1215 -0.9936  0.4283
 1677TIP3    H226591   5.785   1.547   7.735  1.6200 -0.1087  0.8624
 1678TIP3   OH226592   5.462   0.473   7.897 -0.1495 -0.0434 -0.1312
 1678TIP3    H126593   5.395   0.445   7.834 -0.8561  0.5419  0.3430
 1678TIP3    H226594   5.417   0.473   7.982  1.6004 -4.0414  1.0479
 1679TIP3   OH226595   4.513   0.848   8.024 -0.5356 -0.0813 -0.1750
 1679TIP3    H126596   4.487   0.801   7.945  0.8396 -1.1735 -0.0203
 1679TIP3    H226597   4.604   0.874   8.008 -0.9019  1.5346  0.2195
 1680TIP3   OH226598   1.909   1.293   8.649 -0.8342  0.5079 -0.2371
 1680TIP3    H126599   1.894   1.261   8.738  1.9037  0.8148  0.4309
 1680TIP3    H226600   1.951   1.219   8.604  0.4570  1.2774 -0.3499
 1681TIP3   OH226601   1.791   0.447   0.831 -0.2236  0.1731  0.1890
 1681TIP3    H126602   1.712   0.456   0.778  0.0429 -0.4985 -0.3271
 1681TIP3    H226603   1.861   0.481   0.776  0.0450 -0.4671  0.1303
 1682TIP3   OH226604   6.692   5.944   0.704 -0.4271  0.3351 -0.8506
 1682TIP3    H126605   6.624   6.011   0.704 -0.0616  0.7428  0.7710
 1682TIP3    H226606   6.696   5.914   0.795  2.1770  0.9629 -0.7040
 1683TIP3   OH226607   3.988   4.908   7.703  0.3769  0.0345  0.2347
 1683TIP3    H126608   3.980   4.960   7.783 -0.1401  0.4458 -0.0797
 1683TIP3    H226609   4.047   4.959   7.647 -0.7005  0.6614 -0.3601
 1684TIP3   OH226610   5.058   1.092   7.042 -0.4726 -1.0015 -0.5907
 1684TIP3    H126611   5.131   1.033   7.060 -1.0561 -1.5594  0.0329
 1684TIP3    H226612   5.095   1.180   7.053  0.9068 -1.1248 -3.4683
 1685TIP3   OH226613   0.444   3.902   1.620  0.3707  0.1712  0.2869
 1685TIP3    H126614   0.464   3.975   1.678 -0.0217  0.1097  0.5049
 1685TIP3    H226615   0.496   3.918   1.541  1.4558 -0.1162  0.9196
 1686TIP3   OH226616   1.395   0.119   0.373 -0.5520 -0.2373  0.0245
 1686TIP3    H126617   1.370   0.047   0.314 -1.5403 -0.1754  0.3498
 1686TIP3    H226618   1.313   0.145   0.415 -0.9607  3.5303 -2.7144
 1687TIP3   OH226619   5.735   4.395   8.269  0.1577  0.6729  0.2382
 1687TIP3    H126620   5.771   4.479   8.297 -1.2770  0.9936  1.1908
 1687TIP3    H226621   5.641   4.411   8.257 -0.0194 -0.6118 -0.3018
 1688TIP3   OH226622   6.534   5.719   7.689 -0.2877 -0.1800 -0.2511
 1688TIP3    H126623   6.576   5.758   7.765 -1.3493  2.7263 -1.0180
 1688TIP3    H226624   6.457   5.674   7.724 -2.1601  3.1490  0.3741
 1689TIP3   OH226625   1.016   2.412   1.185  0.2876 -0.0598  0.2414
 1689TIP3    H126626   1.058   2.397   1.100 -0.4691 -1.5071  0.0879
 1689TIP3    H226627   0.940   2.354   1.184 -0.1750  0.4959  1.6024
 1690TIP3   OH226628   1.759   3.388   7.342  0.1600  0.0428  0.0463
 1690TIP3    H126629   1.719   3.429   7.419  0.8830  1.2399 -0.1947
 1690TIP3    H226630   1.696   3.400   7.272  1.0867  2.3981 -0.4636
 1691TIP3   OH226631   1.334   3.202   1.371 -0.3344 -0.5878 -0.4751
 1691TIP3    H126632   1.338   3.297   1.358  0.0747 -0.6012 -0.4805
 1691TIP3    H226633   1.260   3.188   1.429 -2.5703 -0.5426 -3.0883
 1692TIP3   OH226634   6.019   1.799   8.158  0.3640  0.2637 -0.0009
 1692TIP3    H126635   6.070   1.877   8.176  1.0462 -0.3203  0.6485
 1692TIP3    H226636   5.928   1.826   8.170  0.6789  0.3969  2.5526
 1693TIP3   OH226637   6.345   5.213   1.809 -0.0895  0.6376  0.1409
 1693TIP3    H126638   6.366   5.207   1.902 -0.0938  1.5279  0.2169
 1693TIP3    H226639   6.315   5.304   1.798 -2.7912 -0.2250 -0.1820
 1694TIP3   OH226640   2.685   6.418   2.485 -0.0688 -0.2273  0.6216
 1694TIP3    H126641   2.761   6.386   2.534  0.9547  1.0838 -0.0466
 1694TIP3    H226642   2.713   6.502   2.448 -0.7360 -1.1616 -2.3101
 1695TIP3   OH226643   6.815   0.486   1.419  0.2301 -0.1762 -0.2143
 1695TIP3    H126644   6.891   0.504   1.475  0.7888  1.2900 -1.3900
 1695TIP3    H226645   6.809   0.562   1.361 -1.0248 -1.1279 -1.3900
 1696TIP3   OH226646   1.880   0.943   8.298  0.3630 -0.0883 -0.2707
 1696TIP3    H126647   1.883   1.029   8.256 -0.7968 -0.2363 -0.6893
 1696TIP3    H226648   1.922   0.957   8.383  2.2861  0.3305 -1.2386
 1697TIP3   OH226649   1.641   3.958   2.183 -0.2128 -0.3709  0.3680
 1697TIP3    H126650   1.575   3.994   2.124 -0.4830 -1.2628  0.1185
 1697TIP3    H226651   1.715   3.936   2.127 -0.2685 -0.7371  0.4371
 1698TIP3   OH226652   3.420   1.979   0.594  0.0602  0.2953  0.2650
 1698TIP3    H126653   3.509   1.998   0.564  0.8493 -0.4203  2.0323
 1698TIP3    H226654   3.421   2.000   0.687 -1.5047 -0.1610  0.4104
 1699TIP3   OH226655   1.049   4.521   0.582 -0.4926  0.6238 -0.2069
 1699TIP3    H126656   1.124   4.470   0.552 -0.6257  0.9868 -1.2144
 1699TIP3    H226657   1.057   4.604   0.534 -1.3521  0.7871 -0.0836
 1700TIP3   OH226658   1.566   0.234   7.751 -0.0672  0.8147 -1.1019
 1700TIP3    H126659   1.518   0.167   7.801  1.6564  0.5986  0.3822
 1700TIP3    H226660   1.547   0.214   7.660 -1.1331 -0.5085 -0.6267
 1701TIP3   OH226661   6.855   3.354   8.108  0.0504  0.4119 -0.0865
 1701TIP3    H126662   6.879   3.297   8.035  1.0245  1.4253 -0.5836
 1701TIP3    H226663   6.760   3.348   8.113 -0.0588  0.5194 -1.6291
 1702TIP3   OH226664   4.421   1.407   0.173 -0.7628 -0.1389  0.4753
 1702TIP3    H126665   4.371   1.487   0.186 -0.3401  0.2769 -0.4073
 1702TIP3    H226666   4.378   1.364   0.099 -0.5779 -0.4041  0.5204
 1703TIP3   OH226667   0.156   2.018   7.100  0.1135 -0.0347  0.3680
 1703TIP3    H126668   0.077   2.039   7.050  1.0891 -0.0372 -1.2537
 1703TIP3    H226669   0.191   1.939   7.057  0.5852 -0.4914  1.5557
 1704TIP3   OH226670   1.465   1.206   7.357 -0.0364  0.4184  0.0220
 1704TIP3    H126671   1.494   1.128   7.310 -0.1755 -0.2322  0.9824
 1704TIP3    H226672   1.388   1.178   7.406  1.0928  0.5518  2.0133
 1705TIP3   OH226673   2.391   5.611   0.266  0.2891  0.6379  0.0529
 1705TIP3    H126674   2.307   5.638   0.230  1.1455  0.5001 -2.2039
 1705TIP3    H226675   2.410   5.675   0.335  0.1278  3.0385 -2.0095
 1706TIP3   OH226676   6.471   5.698   1.356 -0.3067  0.1833  0.1161
 1706TIP3    H126677   6.408   5.662   1.293 -1.0364 -0.6445  1.2876
 1706TIP3    H226678   6.417   5.739   1.423  0.4534  0.7300  0.4029
 1707TIP3   OH226679   5.313   4.341   2.444  0.1818 -0.7109 -0.1732
 1707TIP3    H126680   5.323   4.287   2.522 -0.3900  1.7411  1.7487
 1707TIP3    H226681   5.237   4.305   2.398 -0.5378 -1.1877  1.3477
 1708TIP3   OH226682   4.360   5.897   7.409 -0.1812  0.5373 -0.0679
 1708TIP3    H126683   4.415   5.901   7.487  0.4959 -1.8395 -0.3456
 1708TIP3    H226684   4.421   5.912   7.336  0.0236 -1.2359 -0.3205
 1709TIP3   OH226685   1.659   2.622   1.413  0.3950  0.0948  0.5778
 1709TIP3    H126686   1.605   2.556   1.456  0.6446 -0.6421 -0.2140
 1709TIP3    H226687   1.749   2.600   1.437  0.5737 -0.5836 -0.6231
 1710TIP3   OH226688   5.572   5.849   1.835  0.1113 -0.4142 -0.3910
 1710TIP3    H126689   5.504   5.781   1.837 -0.7019  0.3055  2.7605
 1710TIP3    H226690   5.585   5.872   1.927  3.6204  0.5577 -0.9976
 1711TIP3   OH226691   5.442   3.401   1.132 -0.1476  0.1960 -0.3383
 1711TIP3    H126692   5.453   3.444   1.216 -1.2150  2.6076 -1.3554
 1711TIP3    H226693   5.505   3.329   1.134 -0.7713 -0.4063  2.8320
 1712TIP3   OH226694   2.678   3.751   0.850  0.6196 -1.0587 -0.0768
 1712TIP3    H126695   2.686   3.707   0.766  1.0982 -0.7591 -0.1918
 1712TIP3    H226696   2.731   3.700   0.910  0.7248 -0.9579 -0.0836
 1713TIP3   OH226697   3.147   5.641   7.789 -0.2902  0.5596 -0.4942
 1713TIP3    H126698   3.134   5.698   7.865 -3.3074 -0.7468  0.1174
 1713TIP3    H226699   3.101   5.560   7.812  0.9486 -0.8637 -2.6983
 1714TIP3   OH226700   2.043   1.950   6.556  0.0863 -0.1958  0.1281
 1714TIP3    H126701   2.005   1.863   6.549  0.5725 -0.2690 -2.6416
 1714TIP3    H226702   2.137   1.936   6.567  0.2786 -0.0752 -1.1739
 1715TIP3   OH226703   6.170   5.691   1.601  0.2417  0.3526  0.1129
 1715TIP3    H126704   6.196   5.743   1.677 -0.5428  1.8628 -0.5961
 1715TIP3    H226705   6.075   5.696   1.600  0.2012 -0.3791 -0.4850
 1716TIP3   OH226706   0.542   1.308   2.181 -0.0153  0.4178  0.3362
 1716TIP3    H126707   0.480   1.235   2.192 -0.4606  0.5874 -0.8615
 1716TIP3    H226708   0.530   1.362   2.259  0.4825 -0.8933  1.3533
 1717TIP3   OH226709   0.393   1.679   0.945 -0.0359 -0.0787  0.1689
 1717TIP3    H126710   0.346   1.599   0.968 -2.1354  0.9352 -0.4227
 1717TIP3    H226711   0.410   1.671   0.851  2.8393 -1.2942  0.6604
 1718TIP3   OH226712   4.323   0.150   8.378  0.7017 -0.3010  0.3963
 1718TIP3    H126713   4.350   0.135   8.288  0.4934  0.2143  0.2482
 1718TIP3    H226714   4.327   0.245   8.389  0.6997 -0.3584  0.9187
 1719TIP3   OH226715   1.221   0.814   0.350  0.3371 -0.0127 -0.3831
 1719TIP3    H126716   1.282   0.751   0.387  1.6249  1.0530 -0.6194
 1719TIP3    H226717   1.276   0.875   0.301 -0.8402  1.3439 -0.0873
 1720TIP3   OH226718   2.673   4.013   0.585 -0.1475  0.1382 -0.0140
 1720TIP3    H126719   2.671   3.939   0.524 -1.6120 -3.0528  3.4807
 1720TIP3    H226720   2.766   4.030   0.599  0.3159 -2.3026  0.3088
 1721TIP3   OH226721   4.531   0.732   7.209  0.3302 -0.2769 -0.1443
 1721TIP3    H126722   4.483   0.648   7.208  1.0147 -0.6776  0.0023
 1721TIP3    H226723   4.468   0.794   7.247 -0.3091 -0.6407 -0.5783
 1722TIP3   OH226724   4.793   2.327   7.552  0.3005 -0.6765  0.2826
 1722TIP3    H126725   4.842   2.401   7.590 -0.6392 -0.4492  1.0962
 1722TIP3    H226726   4.832   2.315   7.466 -0.2654  1.5258 -0.3430
 1723TIP3   OH226727   4.559   5.201   8.242  0.7644  0.5113  0.4244
 1723TIP3    H126728   4.637   5.146   8.237 -0.6704 -1.8459  2.2026
 1723TIP3    H226729   4.540   5.208   8.335 -1.1545  1.0058  0.0331
 1724TIP3   OH226730   6.721   1.250   0.036  0.1351 -0.1595 -0.1898
 1724TIP3    H126731   6.748   1.261   0.128  0.4391  0.6221 -0.3617
 1724TIP3    H226732   6.649   1.313   0.025  1.2265  1.0055 -0.9328
 1725TIP3   OH226733   4.706   3.419   0.460  0.2382  0.5175 -0.4461
 1725TIP3    H126734   4.713   3.355   0.531 -0.3825  1.4549  0.4939
 1725TIP3    H226735   4.737   3.501   0.498 -1.3294  1.3310 -0.8178
 1726TIP3   OH226736   4.183   4.627   0.495  0.3432  0.1428  0.2251
 1726TIP3    H126737   4.192   4.535   0.470 -0.3997  0.0372  0.3370
 1726TIP3    H226738   4.107   4.629   0.553 -0.2197  0.9664 -0.5176
 1727TIP3   OH226739   0.412   1.941   7.494 -0.5152 -0.3037  0.3709
 1727TIP3    H126740   0.382   2.001   7.426  0.4065 -0.4097 -0.1560
 1727TIP3    H226741   0.372   1.857   7.471 -1.6012  0.0329  0.9641
 1728TIP3   OH226742   2.680   6.370   1.546  0.0252 -0.1399  0.0701
 1728TIP3    H126743   2.608   6.312   1.571 -0.4047  0.6729  0.7501
 1728TIP3    H226744   2.729   6.383   1.626 -0.5525  1.3569  0.2090
 1729TIP3   OH226745   2.266   3.987   8.416 -0.0643  0.2499  0.3393
 1729TIP3    H126746   2.305   4.032   8.341 -3.0007  2.0090 -0.3218
 1729TIP3    H226747   2.282   3.894   8.399  0.6355  0.6881 -1.7012
 1730TIP3   OH226748   4.480   3.881   0.748 -0.4281 -0.6965 -0.1402
 1730TIP3    H126749   4.561   3.922   0.778 -1.5077 -0.4012  2.6917
 1730TIP3    H226750   4.421   3.954   0.730 -0.6074 -0.9373 -0.5541
 1731TIP3   OH226751   4.565   5.242   7.440 -0.0362  0.6287  0.3335
 1731TIP3    H126752   4.646   5.195   7.459 -1.6299 -1.2583  3.3307
 1731TIP3    H226753   4.562   5.311   7.506 -1.0206  0.3767  0.5766
 1732TIP3   OH226754   5.173   5.231   2.070 -0.2191 -0.3979 -0.5160
 1732TIP3    H126755   5.105   5.234   2.002  1.0944 -0.3042 -1.8779
 1732TIP3    H226756   5.125   5.207   2.150 -2.0052  0.6977 -1.1899
 1733TIP3   OH226757   4.313   2.439   1.349  0.2952  0.0734 -0.1696
 1733TIP3    H126758   4.322   2.417   1.257 -0.1963 -0.9198  0.0082
 1733TIP3    H226759   4.240   2.501   1.352  1.0157  0.9813 -0.5513
 1734TIP3   OH226760   4.264   3.305   1.413  0.5340  0.2195 -0.4896
 1734TIP3    H126761   4.354   3.299   1.381  0.4959 -0.2044 -0.5294
 1734TIP3    H226762   4.272   3.323   1.506  0.6622  0.0742 -0.4732
 1735TIP3   OH226763   4.384   3.277   0.123  0.3605 -0.4050  0.0459
 1735TIP3    H126764   4.424   3.362   0.106 -0.0705 -0.1113  0.4751
 1735TIP3    H226765   4.438   3.238   0.191  1.0880 -0.8648 -0.7708
 1736TIP3   OH226766   3.589   1.237   0.115  0.2308  0.9890  0.1118
 1736TIP3    H126767   3.587   1.183   0.036 -1.5511  1.2322 -0.0503
 1736TIP3    H226768   3.500   1.272   0.122  0.0765  0.3084  2.6768
 1737TIP3   OH226769   4.218   0.628   0.561  0.0800 -0.2972 -0.6466
 1737TIP3    H126770   4.162   0.698   0.594  1.2212 -0.0826  0.9833
 1737TIP3    H226771   4.188   0.550   0.608  0.6076 -0.3407 -0.3747
 1738TIP3   OH226772   3.759   1.158   2.039 -0.4653 -0.4575 -0.5818
 1738TIP3    H126773   3.785   1.240   2.079 -1.4324 -1.3365  2.0724
 1738TIP3    H226774   3.837   1.127   1.993  0.5483  0.8955  0.1823
 1739TIP3   OH226775   3.653   1.975   0.460 -0.4239 -0.6042 -0.1955
 1739TIP3    H126776   3.624   1.931   0.380 -3.0307 -1.0819  0.9241
 1739TIP3    H226777   3.729   1.923   0.489  0.5250 -0.4733 -2.2458
 1740TIP3   OH226778   0.261   6.372   0.192  0.5960 -0.0053  0.3915
 1740TIP3    H126779   0.240   6.458   0.228  0.5104 -0.6564  2.0067
 1740TIP3    H226780   0.307   6.390   0.110 -0.1958  1.5461  0.2603
 1741TIP3   OH226781   2.584   5.821   0.433  0.1929  0.0603  0.2656
 1741TIP3    H126782   2.602   5.912   0.409 -0.4244  0.2544  0.5104
 1741TIP3    H226783   2.616   5.770   0.358  0.2305  0.5054 -0.0283
 1742TIP3   OH226784   0.456   1.185   7.645  0.1617 -0.1236  0.7571
 1742TIP3    H126785   0.441   1.100   7.605 -1.4022  0.4418  0.0310
 1742TIP3    H226786   0.507   1.166   7.724 -0.4320 -1.7723  0.7951
 1743TIP3   OH226787   2.899   5.414   1.276  0.1218 -0.6830  0.0009
 1743TIP3    H126788   2.836   5.345   1.298  0.1010 -0.9578 -0.8926
 1743TIP3    H226789   2.900   5.470   1.354  0.2235 -1.7426  0.7892
 1744TIP3   OH226790   4.146   5.885   1.408  0.5141 -0.0122 -0.9393
 1744TIP3    H126791   4.182   5.969   1.434 -0.6277  0.0477  0.5358
 1744TIP3    H226792   4.060   5.905   1.371 -0.2768 -0.5908  0.4987
 1745TIP3   OH226793   6.083   4.737   8.214 -0.0531 -0.8324  0.0797
 1745TIP3    H126794   6.149   4.747   8.146 -0.9813 -2.2898 -1.0861
 1745TIP3    H226795   6.102   4.808   8.276  1.3069  0.0412 -1.2638
 1746TIP3   OH226796   1.143   2.960   8.103 -0.2753  0.2354 -0.0705
 1746TIP3    H126797   1.071   2.990   8.158 -0.5425  0.3387 -0.4732
 1746TIP3    H226798   1.218   2.953   8.163 -0.4169  0.8982  0.1936
 1747TIP3   OH226799   4.335   2.761   1.211 -0.5258 -0.0282 -0.3736
 1747TIP3    H126800   4.330   2.757   1.115 -0.5916  0.0579 -0.3739
 1747TIP3    H226801   4.421   2.725   1.232  0.6617  2.4506 -0.6417
 1748TIP3   OH226802   5.414   1.423   0.501 -0.2336 -0.0830 -0.0146
 1748TIP3    H126803   5.402   1.342   0.452  3.5234 -1.0548  0.3250
 1748TIP3    H226804   5.484   1.468   0.455 -0.0826  1.4424  1.6031
 1749TIP3   OH226805   3.014   5.863   2.644 -0.6231  0.6307  0.2890
 1749TIP3    H126806   3.084   5.819   2.694  1.4114  0.3856 -2.5521
 1749TIP3    H226807   3.013   5.952   2.679  1.7347  0.8821 -0.0963
 1750TIP3   OH226808   2.289   0.826   1.991  0.0062  0.0573  0.0122
 1750TIP3    H126809   2.355   0.762   1.967  1.3629  0.5814  2.0228
 1750TIP3    H226810   2.307   0.902   1.936  0.4269 -0.1740 -0.1725
 1751TIP3   OH226811   5.617   2.994   7.915  0.5593 -0.0473 -0.4681
 1751TIP3    H126812   5.586   2.936   7.984 -1.0829  0.0500 -1.0646
 1751TIP3    H226813   5.681   2.943   7.867  1.0712 -0.4245  0.5800
 1752TIP3   OH226814   3.910   1.245   1.009  0.5702 -0.3968 -0.5361
 1752TIP3    H126815   3.930   1.151   1.006 -1.1783 -1.1919  4.1064
 1752TIP3    H226816   3.830   1.255   0.958  0.3045 -1.6115 -0.3737
 1753TIP3   OH226817   2.158   1.901   0.537 -0.5128  0.1407 -0.1598
 1753TIP3    H126818   2.170   1.927   0.446  1.8203 -0.4201 -0.0684
 1753TIP3    H226819   2.238   1.853   0.559 -2.2833 -2.3488  1.3122
 1754TIP3   OH226820   0.811   6.823   0.435 -0.3012  0.3329  0.0609
 1754TIP3    H126821   0.816   6.916   0.413  0.5818  0.4011  0.5327
 1754TIP3    H226822   0.740   6.818   0.499 -0.0610  0.7504  0.3672
 1755TIP3   OH226823   2.520   2.275   8.002  0.6198  0.5580  0.5465
 1755TIP3    H126824   2.586   2.226   8.052  2.5952  3.1629  0.7168
 1755TIP3    H226825   2.465   2.208   7.963  1.7116 -1.7053  2.6048
 1756TIP3   OH226826   0.758   0.633   8.275 -0.4613 -0.0783  0.2797
 1756TIP3    H126827   0.758   0.540   8.296 -0.9317 -0.0457  0.4305
 1756TIP3    H226828   0.776   0.677   8.358 -1.4517  0.0137  0.4500
 1757TIP3   OH226829   0.917   2.508   8.640  0.0655  0.1185  0.2410
 1757TIP3    H126830   0.873   2.439   8.690  0.1433  0.5409  0.9022
 1757TIP3    H226831   0.856   2.581   8.641  0.4489  0.4413  0.5025
 1758TIP3   OH226832   1.518   5.513   7.404 -0.2932 -0.1790 -0.1178
 1758TIP3    H126833   1.499   5.425   7.371 -0.2351 -0.8640  1.5754
 1758TIP3    H226834   1.608   5.508   7.436 -0.2644  0.5218 -0.0691
 1759TIP3   OH226835   5.857   4.194   8.086  0.4406 -0.2853  0.4668
 1759TIP3    H126836   5.827   4.200   7.995  1.6413 -0.6953  0.0307
 1759TIP3    H226837   5.842   4.282   8.122  0.9375  0.1878 -0.4485
 1760TIP3   OH226838   1.933   6.727   0.765 -0.2587  0.5608  0.1313
 1760TIP3    H126839   1.910   6.815   0.794  1.3035  0.9938  0.1573
 1760TIP3    H226840   2.025   6.718   0.789 -0.1700 -0.7626 -0.6443
 1761TIP3   OH226841   5.252   2.297   7.445  0.1431  0.4095  0.4582
 1761TIP3    H126842   5.190   2.258   7.508  0.2422  0.0045  0.3099
 1761TIP3    H226843   5.322   2.232   7.437  0.5558  0.8349  0.5694
 1762TIP3   OH226844   5.791   4.371   0.039  0.1483 -0.1308 -0.3144
 1762TIP3    H126845   5.830   4.403  -0.042 -0.3558 -0.7120 -0.7875
 1762TIP3    H226846   5.793   4.276   0.031  1.9839 -0.2978  1.2376
 1763TIP3   OH226847   2.087   5.091   2.068 -0.8225  0.0030  0.3247
 1763TIP3    H126848   2.121   5.155   2.130  1.4428 -2.2097  1.5461
 1763TIP3    H226849   2.093   5.134   1.983  2.0103  0.9520  0.9134
 1764TIP3   OH226850   6.757   6.758   2.158  0.0511 -0.5120  0.5152
 1764TIP3    H126851   6.711   6.835   2.191 -0.4147 -0.9193  0.8132
 1764TIP3    H226852   6.782   6.782   2.069 -1.2120 -0.4882  0.1487
 1765TIP3   OH226853   1.042   1.922   7.837 -0.5180 -0.1293 -0.1361
 1765TIP3    H126854   0.963   1.870   7.847 -1.2862  1.1658  0.9180
 1765TIP3    H226855   1.097   1.872   7.777 -1.0362 -2.3181  1.1229
 1766TIP3   OH226856   3.379   1.526   0.471 -0.8486 -0.7325 -0.3576
 1766TIP3    H126857   3.456   1.580   0.455  0.9106 -2.8026  0.6460
 1766TIP3    H226858   3.323   1.580   0.527  0.0990  0.5924 -0.6367
 1767TIP3   OH226859   5.874   5.552   1.739 -0.4745 -0.3227 -0.3938
 1767TIP3    H126860   5.864   5.615   1.811 -0.8724 -0.3832 -0.3888
 1767TIP3    H226861   5.861   5.604   1.660  3.0721  0.4082 -0.6421
 1768TIP3   OH226862   0.590   4.469   7.582 -0.1858 -0.1651 -0.3102
 1768TIP3    H126863   0.558   4.403   7.521 -0.1481 -0.7779  0.3284
 1768TIP3    H226864   0.685   4.459   7.580 -0.0243  1.1857 -1.6761
 1769TIP3   OH226865   3.251   6.273   2.616 -0.1472  0.4517  0.7046
 1769TIP3    H126866   3.269   6.210   2.546  0.3470  2.0996 -0.7158
 1769TIP3    H226867   3.337   6.300   2.647 -0.3396  1.1173  0.6606
 1770TIP3   OH226868   4.561   4.119   7.261 -0.1216  0.3259  0.0615
 1770TIP3    H126869   4.492   4.184   7.255  2.0467  2.9054  1.0954
 1770TIP3    H226870   4.615   4.148   7.334  1.4713 -2.1933  0.0217
 1771TIP3   OH226871   0.362   0.549   0.880  0.0023  0.1074 -0.0096
 1771TIP3    H126872   0.365   0.574   0.972  0.1287  1.1772 -0.2930
 1771TIP3    H226873   0.409   0.466   0.876 -1.1561 -0.6342  1.0899
 1772TIP3   OH226874   0.119   6.084   2.424 -0.1311 -0.4001 -0.2801
 1772TIP3    H126875   0.065   6.075   2.346  2.1062  2.8730 -2.4871
 1772TIP3    H226876   0.065   6.135   2.484 -0.6285  0.1990 -1.2062
 1773TIP3   OH226877   4.289   0.321   7.069  0.0821 -0.1766  0.5388
 1773TIP3    H126878   4.295   0.252   7.003  1.5552 -0.9768  1.4621
 1773TIP3    H226879   4.196   0.342   7.073 -0.2622 -1.3482 -0.5231
 1774TIP3   OH226880   4.875   4.587   0.447 -0.1309  0.0345  0.3178
 1774TIP3    H126881   4.965   4.555   0.443 -0.6099 -1.2466 -0.7812
 1774TIP3    H226882   4.826   4.528   0.391 -1.1225  2.5436 -1.6168
 1775TIP3   OH226883   6.208   5.856   3.220  0.0090 -0.4607  0.4393
 1775TIP3    H126884   6.152   5.933   3.220  0.1963 -0.2193  3.5441
 1775TIP3    H226885   6.297   5.892   3.226  0.4320 -0.9108 -1.9640
 1776TIP3   OH226886   2.659   2.263   7.023  0.5575  0.4271  0.4692
 1776TIP3    H126887   2.648   2.171   7.001  1.4685 -0.1227  2.1408
 1776TIP3    H226888   2.569   2.297   7.029  0.2280 -0.1623 -0.7713
 1777TIP3   OH226889   0.527   4.122   1.775  0.4121  0.3530  0.1551
 1777TIP3    H126890   0.589   4.154   1.710 -1.3063  2.5674 -0.4826
 1777TIP3    H226891   0.482   4.200   1.807 -1.6822 -1.0922  0.9764
 1778TIP3   OH226892   3.915   6.332   8.427 -0.4042  0.1463 -0.6336
 1778TIP3    H126893   3.869   6.413   8.449  0.6158  0.3703  0.8271
 1778TIP3    H226894   3.849   6.277   8.385 -1.1601  1.6515 -1.5093
 1779TIP3   OH226895   6.645   3.014   2.416  0.2672 -0.2239  0.2220
 1779TIP3    H126896   6.550   3.010   2.423  0.1292  0.4180 -1.0412
 1779TIP3    H226897   6.665   2.973   2.332  1.1013 -0.3387  0.4673
 1780TIP3   OH226898   5.599   6.567   0.343  0.2912  0.0515 -0.0370
 1780TIP3    H126899   5.692   6.547   0.336 -0.0308 -1.2256 -1.0069
 1780TIP3    H226900   5.578   6.552   0.435  0.7700 -0.9387 -0.0841
 1781TIP3   OH226901   0.524   5.423   8.054  0.1472  0.3317  0.0153
 1781TIP3    H126902   0.521   5.472   7.972 -0.1236  0.1176 -0.1045
 1781TIP3    H226903   0.592   5.467   8.106 -1.9556  2.6234  1.0394
 1782TIP3   OH226904   2.273   6.694   2.518  0.6178 -0.0270  0.1617
 1782TIP3    H126905   2.269   6.746   2.438  2.5049  0.2140  0.1871
 1782TIP3    H226906   2.224   6.614   2.498  1.6442 -0.2770 -1.4875
 1783TIP3   OH226907   2.061   4.606   0.976  0.0537 -0.3350 -0.4117
 1783TIP3    H126908   2.067   4.511   0.986  0.3470 -0.4094 -1.2211
 1783TIP3    H226909   2.150   4.638   0.989  0.2147 -0.3164 -1.5249
 1784TIP3   OH226910   6.141   1.479   7.246  0.2679  0.0994 -0.5841
 1784TIP3    H126911   6.057   1.434   7.242  0.0492  0.5176 -0.6771
 1784TIP3    H226912   6.121   1.566   7.279  0.5847  0.4011 -1.1746
 1785TIP3   OH226913   0.994   0.945   1.642  0.1297  0.2370  0.1734
 1785TIP3    H126914   0.954   0.905   1.564  1.5916 -0.3989 -0.2881
 1785TIP3    H226915   0.935   1.017   1.665 -0.4698  0.2866 -1.3741
 1786TIP3   OH226916   5.731   3.865   7.552 -0.8150  0.0714 -0.2983
 1786TIP3    H126917   5.779   3.807   7.494  0.1793  0.0072  0.5580
 1786TIP3    H226918   5.701   3.936   7.496 -1.3036 -0.8164 -1.1910
 1787TIP3   OH226919   6.287   5.299   0.033 -0.3669  0.5979 -0.2157
 1787TIP3    H126920   6.348   5.353  -0.016 -0.7083  0.9112 -0.2992
 1787TIP3    H226921   6.329   5.213   0.037  0.4173  0.9988  0.3694
 1788TIP3   OH226922   5.716   5.780   7.054  0.1065  0.1963 -0.1728
 1788TIP3    H126923   5.676   5.741   7.132 -0.6321  0.6556 -0.3179
 1788TIP3    H226924   5.724   5.707   6.993 -1.3500  0.2700 -0.4745
 1789TIP3   OH226925   6.581   4.620   8.529  0.6457  0.2499  0.0682
 1789TIP3    H126926   6.488   4.607   8.509  0.8587 -0.3615 -0.5719
 1789TIP3    H226927   6.623   4.630   8.443  1.1973  0.3186  0.3389
 1790TIP3   OH226928   5.122   5.437   0.817  0.1006 -0.4324  0.1493
 1790TIP3    H126929   5.059   5.506   0.834  1.5579  0.6022  1.6523
 1790TIP3    H226930   5.203   5.484   0.795  0.7742 -1.6881 -0.1397
 1791TIP3   OH226931   4.890   0.417   8.566 -0.1698 -0.1102  0.7241
 1791TIP3    H126932   4.970   0.433   8.617  1.4091 -1.8081 -1.0792
 1791TIP3    H226933   4.858   0.332   8.598 -0.1908 -0.3279  0.1226
 1792TIP3   OH226934   3.657   2.693   8.452 -0.0222  0.8007  0.3911
 1792TIP3    H126935   3.631   2.763   8.393  1.9561 -0.1609 -1.7768
 1792TIP3    H226936   3.736   2.725   8.495  0.9216 -0.0507 -0.6470
 1793TIP3   OH226937   0.086   6.254   1.532 -0.1917  0.1341 -0.1501
 1793TIP3    H126938   0.073   6.275   1.439 -1.1108 -0.0347 -0.0775
 1793TIP3    H226939   0.073   6.337   1.577  1.5362  0.4938 -0.2460
 1794TIP3   OH226940   5.852   1.940   7.646  0.2978 -0.2221 -0.0165
 1794TIP3    H126941   5.822   2.006   7.708  1.6076 -0.5325  0.9954
 1794TIP3    H226942   5.793   1.866   7.659 -0.7634  0.4868 -0.6869
 1795TIP3   OH226943   0.950   1.053   1.192 -0.1708 -0.4775  0.0628
 1795TIP3    H126944   0.859   1.046   1.220 -0.7139  4.0275  0.0520
 1795TIP3    H226945   1.000   1.061   1.273 -0.1461 -0.1483  0.0161
 1796TIP3   OH226946   3.393   6.550   1.949 -0.0639 -0.3613 -0.0757
 1796TIP3    H126947   3.348   6.485   1.896  0.1289 -0.0244 -0.6655
 1796TIP3    H226948   3.429   6.612   1.886 -0.6782  0.6030  0.4962
 1797TIP3   OH226949   2.057   3.976   6.678 -0.9826 -0.2837  0.0830
 1797TIP3    H126950   2.121   3.905   6.679 -0.6871 -0.0453 -0.7621
 1797TIP3    H226951   2.025   3.980   6.768  0.6785  0.0263  0.7141
 1798TIP3   OH226952   5.512   6.475   1.066  0.0501  0.3675  0.0041
 1798TIP3    H126953   5.531   6.507   0.978 -0.9733 -2.1144 -1.2165
 1798TIP3    H226954   5.437   6.527   1.095 -1.0613 -0.2775 -1.5736
 1799TIP3   OH226955   5.033   3.952   0.432  0.3006  0.2303  0.4150
 1799TIP3    H126956   4.944   3.921   0.448  0.4635  0.2311  1.3501
 1799TIP3    H226957   5.043   4.027   0.491  1.4230 -0.6947  1.4449
 1800TIP3   OH226958   1.235   1.244   7.490 -0.1400  0.1269 -0.1963
 1800TIP3    H126959   1.168   1.212   7.429  0.0103 -0.1452 -0.2193
 1800TIP3    H226960   1.186   1.297   7.553 -0.2606  0.6384 -0.7074
 1801TIP3   OH226961   5.328   5.559   7.407 -0.3667  0.2920 -0.1037
 1801TIP3    H126962   5.275   5.552   7.487 -0.6053  1.6518 -0.1187
 1801TIP3    H226963   5.415   5.582   7.439  0.0411 -1.1848 -0.1248
 1802TIP3   OH226964   4.106   5.277   0.185  0.5261 -0.1876  0.3873
 1802TIP3    H126965   4.129   5.237   0.269 -0.9560  1.4517  1.6621
 1802TIP3    H226966   4.190   5.297   0.144  1.2920 -0.6651  1.6613
 1803TIP3   OH226967   2.011   3.322   2.524  0.2095 -0.0079 -0.0507
 1803TIP3    H126968   1.920   3.353   2.526 -0.3839 -1.6934  0.7000
 1803TIP3    H226969   2.032   3.317   2.431 -0.0554  1.4594 -0.2205
 1804TIP3   OH226970   4.532   6.857   1.760 -0.2263  0.5378  0.3600
 1804TIP3    H126971   4.450   6.848   1.711  0.4301 -0.5075 -0.6049
 1804TIP3    H226972   4.510   6.828   1.849 -1.5855  3.0568  0.9500
 1805TIP3   OH226973   2.798   1.112   8.059 -0.5182 -0.3669  0.2073
 1805TIP3    H126974   2.749   1.085   7.981  2.2183  2.5906 -2.9286
 1805TIP3    H226975   2.777   1.205   8.069  1.7471  0.1480  0.8089
 1806TIP3   OH226976   5.199   4.729   1.601  0.0823 -0.1249 -0.3363
 1806TIP3    H126977   5.120   4.678   1.582 -0.2927  0.1832  0.3294
 1806TIP3    H226978   5.267   4.663   1.615  0.2356 -0.3700 -2.0335
 1807TIP3   OH226979   5.228   2.556   2.068  0.0190 -0.3014 -0.3136
 1807TIP3    H126980   5.298   2.494   2.045  0.6863  0.4471 -0.3576
 1807TIP3    H226981   5.273   2.625   2.118 -0.4762  0.7374 -1.2506
 1808TIP3   OH226982   3.822   5.547   8.104 -0.5922  0.2139 -0.2009
 1808TIP3    H126983   3.840   5.582   8.017  2.8827  0.9655  0.6512
 1808TIP3    H226984   3.844   5.454   8.098 -0.5715  0.2192 -0.2103
 1809TIP3   OH226985   0.904   1.597   1.536 -0.3208 -0.4690 -0.0048
 1809TIP3    H126986   0.990   1.590   1.578 -0.8528  1.7711  1.6634
 1809TIP3    H226987   0.849   1.535   1.584  0.1672 -1.3994 -0.6165
 1810TIP3   OH226988   6.309   2.018   0.447  0.0352 -0.2984 -0.2186
 1810TIP3    H126989   6.365   2.013   0.370  0.2324  1.6313 -0.2492
 1810TIP3    H226990   6.366   1.994   0.520  0.6983  0.8198 -0.3463
 1811TIP3   OH226991   4.409   4.082   1.447  0.8988  0.3416  0.0513
 1811TIP3    H126992   4.460   4.086   1.366  0.0718  0.5061 -0.4757
 1811TIP3    H226993   4.410   3.990   1.472  0.1134  0.0739 -0.8454
 1812TIP3   OH226994   6.202   2.356   0.960 -0.2082 -0.5432  0.0681
 1812TIP3    H126995   6.172   2.273   0.923 -1.9859  0.2338 -0.3663
 1812TIP3    H226996   6.294   2.342   0.979 -0.5369 -2.7242  0.3344
 1813TIP3   OH226997   6.351   5.329   2.168 -0.3390  0.0316  0.0609
 1813TIP3    H126998   6.332   5.235   2.160  1.0145 -0.2902  0.3973
 1813TIP3    H226999   6.446   5.334   2.167 -0.3960  1.5037 -0.9259
 1814TIP3   OH227000   2.276   3.113   0.511 -0.4912 -0.7917 -0.1578
 1814TIP3    H127001   2.231   3.029   0.514 -0.6982 -0.6767 -0.0199
 1814TIP3    H227002   2.205   3.178   0.506 -0.3860 -0.5502  1.1451
 1815TIP3   OH227003   1.993   4.489   2.143 -0.3053  0.3281  0.1861
 1815TIP3    H127004   1.914   4.533   2.175 -0.0966 -0.6643  2.1868
 1815TIP3    H227005   2.065   4.543   2.175 -0.1240  0.4662 -0.4408
 1816TIP3   OH227006   5.641   6.523   3.030  0.0361 -0.0723 -0.7953
 1816TIP3    H127007   5.681   6.597   3.076  0.2249 -0.7962  0.2244
 1816TIP3    H227008   5.581   6.563   2.968  0.8812  0.9732 -0.9678
 1817TIP3   OH227009   6.184   5.070   7.786  0.0177 -0.1902  0.3555
 1817TIP3    H127010   6.097   5.084   7.823  0.1528  1.1069  0.2285
 1817TIP3    H227011   6.242   5.123   7.841  0.8793 -1.6784  0.9572
 1818TIP3   OH227012   1.170   6.759   8.192  0.0090  0.1043 -0.0951
 1818TIP3    H127013   1.152   6.776   8.284  2.0520 -0.0722  0.3684
 1818TIP3    H227014   1.151   6.841   8.148  0.7053  0.7329  0.7489
 1819TIP3   OH227015   2.197   6.775   1.226 -0.2256 -0.2061  0.0261
 1819TIP3    H127016   2.219   6.768   1.318 -0.9667  0.4657  0.2642
 1819TIP3    H227017   2.242   6.854   1.196 -1.2078  0.4307  0.1942
 1820TIP3   OH227018   0.945   3.412   2.215  0.5929 -0.0148 -0.1324
 1820TIP3    H127019   1.018   3.351   2.217  1.9700  1.5427 -0.5644
 1820TIP3    H227020   0.867   3.357   2.217  1.7705 -1.7397 -0.0456
 1821TIP3   OH227021   0.440   2.834   2.366  0.3010  0.1608 -0.1271
 1821TIP3    H127022   0.356   2.869   2.396 -1.0447 -3.0886  0.3047
 1821TIP3    H227023   0.473   2.784   2.440  1.5845 -0.3544 -1.0147
 1822TIP3   OH227024   4.439   4.797   1.045  0.2172  0.4101  0.1942
 1822TIP3    H127025   4.484   4.720   1.080 -1.3451  0.0475  1.5139
 1822TIP3    H227026   4.464   4.799   0.953  0.8121 -1.3038  0.2810
 1823TIP3   OH227027   3.953   0.449   2.716  0.5474 -0.2556 -0.1177
 1823TIP3    H127028   3.984   0.442   2.806  2.6100 -0.0130 -0.7722
 1823TIP3    H227029   3.918   0.362   2.696 -0.5095 -0.1340  1.0877
 1824TIP3   OH227030   6.258   6.675   1.169  0.6609 -0.0239 -0.0039
 1824TIP3    H127031   6.260   6.585   1.199 -1.3590 -0.2414 -0.4046
 1824TIP3    H227032   6.292   6.726   1.243  1.4477 -1.0615  0.3622
 1825TIP3   OH227033   2.759   4.886   1.217  0.2979  0.3585 -0.1631
 1825TIP3    H127034   2.846   4.893   1.256 -0.4027 -0.9711  1.8328
 1825TIP3    H227035   2.724   4.975   1.218  0.8513  0.5794  1.0409
 1826TIP3   OH227036   6.414   3.652   0.859 -0.0920  0.1937 -0.0195
 1826TIP3    H127037   6.398   3.697   0.942  1.3467  0.6214  0.0510
 1826TIP3    H227038   6.508   3.661   0.845  0.1095 -2.0393 -0.4389
 1827TIP3   OH227039   1.641   2.497   7.900 -0.0967  0.2638  0.5022
 1827TIP3    H127040   1.624   2.466   7.989 -0.2183  0.9709  0.7283
 1827TIP3    H227041   1.563   2.470   7.850 -0.1042  0.0222  0.6408
 1828TIP3   OH227042   5.751   1.684   1.558  0.5562 -0.0167  0.6184
 1828TIP3    H127043   5.658   1.701   1.539  0.5392 -1.1707 -0.4018
 1828TIP3    H227044   5.771   1.743   1.630 -0.6752  1.0754  0.1153
 1829TIP3   OH227045   0.130   5.454   0.966 -0.3874 -0.5247 -0.1002
 1829TIP3    H127046   0.177   5.483   0.888  0.8889  1.3735  1.2619
 1829TIP3    H227047   0.048   5.503   0.965  0.5954  1.2572  0.8058
 1830TIP3   OH227048   0.915   0.705   8.648 -0.3110  0.0738 -0.5348
 1830TIP3    H127049   0.844   0.754   8.608 -1.6732 -0.7461  0.7744
 1830TIP3    H227050   0.878   0.619   8.666  1.2571 -0.6349 -0.5092
 1831TIP3   OH227051   5.005   3.185   0.624 -0.2742  0.5869 -0.2622
 1831TIP3    H127052   5.021   3.139   0.707 -2.0695  1.9861  0.9351
 1831TIP3    H227053   5.082   3.241   0.614  0.0125  0.3334  0.4100
 1832TIP3   OH227054   4.274   0.493   8.206  0.4842 -0.1575 -0.0833
 1832TIP3    H127055   4.251   0.460   8.293  1.2879 -1.0383 -0.1875
 1832TIP3    H227056   4.350   0.549   8.222 -1.0645  1.9961  0.1369
 1833TIP3   OH227057   0.879   5.251   8.305  0.3924  0.5186 -0.8774
 1833TIP3    H127058   0.877   5.280   8.213  1.2139 -0.4103 -1.2090
 1833TIP3    H227059   0.819   5.176   8.306  0.6101  0.3484 -0.7228
 1834TIP3   OH227060   2.267   4.642   8.503 -0.6599 -0.2425  0.5660
 1834TIP3    H127061   2.225   4.662   8.419 -1.0008  1.4572  1.1092
 1834TIP3    H227062   2.356   4.615   8.479 -1.3188 -1.6988 -0.4383
 1835TIP3   OH227063   6.099   3.467   7.436 -0.2168 -0.0595  0.0072
 1835TIP3    H127064   6.017   3.443   7.391  0.0707 -0.0260 -0.5465
 1835TIP3    H227065   6.148   3.515   7.370 -0.7145  1.9554  1.0182
 1836TIP3   OH227066   5.687   0.804   0.004  0.3854  0.3148 -0.5804
 1836TIP3    H127067   5.765   0.790   0.058 -0.0428 -1.7052 -0.4261
 1836TIP3    H227068   5.714   0.870  -0.060  2.7278 -1.3393 -1.4459
 1837TIP3   OH227069   1.655   1.984   1.170 -0.0216 -0.0117 -0.0328
 1837TIP3    H127070   1.720   1.926   1.131 -0.5876 -1.3716  0.9656
 1837TIP3    H227071   1.592   1.925   1.211 -1.8273  1.2613 -0.8560
 1838TIP3   OH227072   2.709   1.251   1.096  0.0408 -0.0073  0.3844
 1838TIP3    H127073   2.791   1.300   1.104  1.3624 -1.6524 -1.9545
 1838TIP3    H227074   2.687   1.226   1.186  2.2512  0.2469  1.0457
 1839TIP3   OH227075   5.923   6.520   7.755  0.0374 -0.1712 -0.3679
 1839TIP3    H127076   5.858   6.586   7.779  1.3276  0.4741  1.5176
 1839TIP3    H227077   5.902   6.498   7.664 -3.1416 -0.3856  0.2984
 1840TIP3   OH227078   6.830   0.363   2.639 -0.3701 -0.3394 -0.2665
 1840TIP3    H127079   6.912   0.392   2.599 -0.6183 -0.0264 -0.5479
 1840TIP3    H227080   6.809   0.281   2.595 -0.1935 -0.4392 -0.1691
 1841TIP3   OH227081   5.757   3.578   0.569  0.4726 -0.4177  0.0443
 1841TIP3    H127082   5.692   3.641   0.599 -0.1947 -0.9288 -0.2947
 1841TIP3    H227083   5.717   3.536   0.493  1.1349 -0.8496 -0.0772
 1842TIP3   OH227084   4.102   1.857   0.404 -0.0754 -0.4576 -0.0098
 1842TIP3    H127085   4.088   1.938   0.355 -1.2132 -0.5306  0.1741
 1842TIP3    H227086   4.112   1.789   0.337  0.3374 -0.2543 -0.1556
 1843TIP3   OH227087   6.365   4.167   0.133 -0.1349  0.1908  0.4998
 1843TIP3    H127088   6.339   4.126   0.051 -0.4230  1.4530 -0.0676
 1843TIP3    H227089   6.283   4.199   0.171 -0.0872 -0.9148  1.6060
 1844TIP3   OH227090   2.648   5.609   0.037 -0.0704 -0.3213  0.4687
 1844TIP3    H127091   2.574   5.670   0.032  0.8688  0.7743 -1.2824
 1844TIP3    H227092   2.719   5.659   0.077  0.0014 -1.0976  1.3535
 1845TIP3   OH227093   4.484   4.153   0.870 -0.2411  0.4383  0.0593
 1845TIP3    H127094   4.565   4.181   0.912  1.9613 -1.1120 -2.7476
 1845TIP3    H227095   4.464   4.223   0.807 -1.7715  1.3067  1.4316
 1846TIP3   OH227096   0.855   0.539   7.733 -0.3742 -0.2847 -0.1250
 1846TIP3    H127097   0.804   0.535   7.813  1.2674  2.3404  1.1788
 1846TIP3    H227098   0.835   0.625   7.696  1.3996 -0.0791 -0.7075
 1847TIP3   OH227099   2.587   2.353   0.541  0.3857  0.6181 -0.1761
 1847TIP3    H127100   2.493   2.365   0.525  0.5002 -0.6412 -2.0436
 1847TIP3    H227101   2.600   2.259   0.536  1.5913  0.6665  1.2836
 1848TIP3   OH227102   4.998   6.084   1.759 -0.1881 -0.1358  0.5334
 1848TIP3    H127103   4.958   6.019   1.817  0.2524 -0.1104  0.8704
 1848TIP3    H227104   5.088   6.055   1.750  0.0283  0.4627  0.7376
 1849TIP3   OH227105   2.451   2.498   7.895  0.5282 -0.5896  0.9946
 1849TIP3    H127106   2.466   2.416   7.944 -0.7210 -2.3225 -1.3436
 1849TIP3    H227107   2.526   2.504   7.836  1.7518  1.2129  2.6102
 1850TIP3   OH227108   5.079   2.977   7.335 -0.1137 -0.1656 -0.0386
 1850TIP3    H127109   5.098   3.027   7.256 -0.4888  0.7572  0.4361
 1850TIP3    H227110   5.158   2.986   7.389  0.1347 -0.7792 -0.2813
 1851TIP3   OH227111   4.541   6.158   0.868  0.0894 -0.2410 -0.1543
 1851TIP3    H127112   4.603   6.121   0.805  0.9081 -0.2064  0.6190
 1851TIP3    H227113   4.595   6.203   0.933 -0.8229  1.2362 -0.3617
 1852TIP3   OH227114   2.627   3.081   7.970  0.5149  0.4101  0.4286
 1852TIP3    H127115   2.584   3.117   8.047  1.0322  0.2606  0.7915
 1852TIP3    H227116   2.713   3.051   8.002 -0.0826 -1.6323  0.2728
 1853TIP3   OH227117   3.894   5.472   1.031  0.1842 -0.2478  0.0605
 1853TIP3    H127118   3.916   5.559   1.065  2.1251 -0.8171  0.3173
 1853TIP3    H227119   3.824   5.441   1.089  0.9300  0.2847  1.2801
 1854TIP3   OH227120   2.289   0.255   2.794  0.3994  0.2401 -0.6689
 1854TIP3    H127121   2.322   0.204   2.868 -1.4284 -0.0504 -0.0105
 1854TIP3    H227122   2.262   0.339   2.832  3.5367  1.9491 -1.7620
 1855TIP3   OH227123   4.706   1.668   8.407  0.0363 -0.1885 -0.1222
 1855TIP3    H127124   4.642   1.626   8.465  1.3473 -3.1877 -0.6587
 1855TIP3    H227125   4.653   1.712   8.341 -1.4594  1.3414  1.9303
 1856TIP3   OH227126   4.983   0.129   0.495 -0.0627  0.1032  0.0781
 1856TIP3    H127127   4.915   0.197   0.491 -0.3450 -0.2305 -1.3210
 1856TIP3    H227128   4.935   0.048   0.511 -0.0950 -0.2161 -1.4544
 1857TIP3   OH227129   5.047   5.000   0.265  0.2796  0.3484 -0.2070
 1857TIP3    H127130   4.981   5.020   0.199  0.5823  0.1603 -0.5696
 1857TIP3    H227131   5.003   5.015   0.349 -0.1776  0.3549 -0.4484
 1858TIP3   OH227132   5.309   5.452   1.553  0.4961  0.6241  0.4148
 1858TIP3    H127133   5.314   5.412   1.639  1.5926  0.3993  0.2637
 1858TIP3    H227134   5.348   5.387   1.494 -0.2827  0.7540 -0.2601
 1859TIP3   OH227135   2.308   4.757   1.126  0.1269 -0.5250  0.6367
 1859TIP3    H127136   2.281   4.677   1.171 -1.8658 -0.2712 -0.0162
 1859TIP3    H227137   2.381   4.790   1.178 -1.4068 -0.8048  3.1462
 1860TIP3   OH227138   0.162   0.154   1.395 -0.3960 -0.0410  0.0018
 1860TIP3    H127139   0.162   0.186   1.485  0.7264  2.1862 -0.7090
 1860TIP3    H227140   0.088   0.199   1.354 -1.7196 -2.0287  0.0494
 1861TIP3   OH227141   2.205   5.429   0.921  0.4394 -0.1683 -0.6153
 1861TIP3    H127142   2.288   5.433   0.968  1.1903 -2.5631 -1.5389
 1861TIP3    H227143   2.230   5.414   0.830 -1.0065  2.3148 -1.4980
 1862TIP3   OH227144   5.857   3.934   1.915 -0.5457  0.2089 -0.4401
 1862TIP3    H127145   5.797   3.942   1.989  0.5610  1.3278  0.3629
 1862TIP3    H227146   5.824   3.858   1.867 -0.0748 -1.9510  2.3487
 1863TIP3   OH227147   5.000   6.755   3.108 -0.0156 -0.3766 -0.0059
 1863TIP3    H127148   4.998   6.736   3.202  0.9345 -0.3041  0.0386
 1863TIP3    H227149   4.908   6.748   3.080 -0.4190  0.3550  1.0714
 1864TIP3   OH227150   3.629   5.901   0.800  0.0553 -0.3043  0.0012
 1864TIP3    H127151   3.678   5.818   0.806 -0.6659 -0.6567  1.5406
 1864TIP3    H227152   3.658   5.950   0.877 -0.2403  0.4871 -0.3889
 1865TIP3   OH227153   1.133   4.690   2.229  0.1076  0.0941  0.9939
 1865TIP3    H127154   1.198   4.755   2.255 -0.1319  1.3109 -1.1763
 1865TIP3    H227155   1.052   4.741   2.218 -0.2348 -0.6565 -0.1502
 1866TIP3   OH227156   5.741   4.947   1.299  0.2069 -0.4251  0.2099
 1866TIP3    H127157   5.818   4.995   1.268  0.0097 -0.0992  0.2148
 1866TIP3    H227158   5.679   4.952   1.226  0.3604 -1.0819  0.0302
 1867TIP3   OH227159   2.828   0.824   2.938 -0.0250 -0.5497  0.0279
 1867TIP3    H127160   2.813   0.918   2.950 -1.7752 -0.5738 -1.4750
 1867TIP3    H227161   2.762   0.782   2.992 -2.2829 -0.7662 -2.7031
 1868TIP3   OH227162   0.571   0.510   0.291 -1.0790 -0.4610  0.4217
 1868TIP3    H127163   0.523   0.590   0.308 -0.0630 -0.1747  2.1974
 1868TIP3    H227164   0.555   0.455   0.368  1.2954 -0.3853  1.0593
 1869TIP3   OH227165   6.084   3.598   0.862 -0.1989  0.8101 -0.4847
 1869TIP3    H127166   6.165   3.624   0.907  0.4766  1.0863 -1.8064
 1869TIP3    H227167   6.036   3.680   0.851  0.9628  1.2843 -2.7581
 1870TIP3   OH227168   2.800   1.149   0.651 -0.0990 -0.8092  0.1733
 1870TIP3    H127169   2.855   1.139   0.574  0.5453  3.6503 -0.2264
 1870TIP3    H227170   2.712   1.162   0.617 -0.0626 -0.2679  0.2831
 1871TIP3   OH227171   5.860   1.166   1.476  0.6544  0.2365 -0.3207
 1871TIP3    H127172   5.907   1.084   1.466  0.8016  0.1028  1.1385
 1871TIP3    H227173   5.827   1.187   1.389  0.0912 -1.6706 -0.5968
 1872TIP3   OH227174   6.543   3.365   8.556  0.3396  0.2929 -0.1077
 1872TIP3    H127175   6.569   3.331   8.642 -0.4795 -0.0734  0.0069
 1872TIP3    H227176   6.457   3.404   8.571 -0.9327 -1.8998 -1.2153
 1873TIP3   OH227177   0.491   2.247   0.386  0.3128  0.1511  0.2615
 1873TIP3    H127178   0.400   2.241   0.415  0.5567 -0.5333  0.9202
 1873TIP3    H227179   0.538   2.186   0.443  1.2390  0.7538  0.1591
 1874TIP3   OH227180   3.329   4.387   7.503 -0.8064  0.0956  0.8466
 1874TIP3    H127181   3.374   4.411   7.423  1.3759  0.2801  2.0544
 1874TIP3    H227182   3.257   4.331   7.475  1.8288 -2.6200 -1.0596
 1875TIP3   OH227183   6.647   2.464   1.645  0.3507 -0.4225 -0.5545
 1875TIP3    H127184   6.725   2.460   1.701 -0.2520 -0.3439  0.3057
 1875TIP3    H227185   6.615   2.553   1.654 -0.5394 -0.7896  0.0804
 1876TIP3   OH227186   0.306   5.461   0.265  0.1273  0.1374 -0.2180
 1876TIP3    H127187   0.343   5.534   0.216  1.1927  0.9389  1.6534
 1876TIP3    H227188   0.253   5.501   0.334 -0.6694 -0.9119 -0.1837
 1877TIP3   OH227189   1.598   1.599   0.564 -0.1575 -0.3486 -0.1038
 1877TIP3    H127190   1.564   1.666   0.623  2.1599  0.6466  0.2195
 1877TIP3    H227191   1.569   1.516   0.603 -2.0997  0.3789  0.1174
 1878TIP3   OH227192   6.507   1.412   0.006  0.3731 -0.1876 -0.0037
 1878TIP3    H127193   6.519   1.501  -0.027  1.0919 -0.5127 -0.6306
 1878TIP3    H227194   6.417   1.389  -0.019  0.2952  0.2392 -0.1236
 1879TIP3   OH227195   5.212   0.572   8.577 -0.3551  0.0730 -0.5691
 1879TIP3    H127196   5.287   0.616   8.617  0.1956  1.3422 -2.8145
 1879TIP3    H227197   5.192   0.500   8.637  1.6817  0.6109  0.8759
 1880TIP3   OH227198   3.074   0.106   1.927 -0.1258 -0.4674 -0.2898
 1880TIP3    H127199   3.164   0.139   1.937 -0.4399  0.4338 -0.3420
 1880TIP3    H227200   3.050   0.075   2.014  0.4987 -1.4346 -0.4426
 1881TIP3   OH227201   1.715   6.181   1.719 -0.0951  0.1651 -0.1005
 1881TIP3    H127202   1.745   6.150   1.805  0.6765 -1.6096 -0.9442
 1881TIP3    H227203   1.783   6.242   1.691  0.0750  0.1188  0.2067
 1882TIP3   OH227204   2.224   4.156   7.971 -0.1165  0.1612  0.6954
 1882TIP3    H127205   2.252   4.242   8.002  0.0120  0.6101 -0.5718
 1882TIP3    H227206   2.250   4.155   7.878  0.3798 -1.4512  0.8193
 1883TIP3   OH227207   4.065   2.435   1.006  0.0780  0.0346 -0.0360
 1883TIP3    H127208   4.011   2.357   0.993  0.8022 -0.6708  0.9785
 1883TIP3    H227209   4.003   2.507   1.017 -0.6033 -0.0531 -2.6964
 1884TIP3   OH227210   5.895   1.728   0.039 -0.3350 -0.5034 -0.2082
 1884TIP3    H127211   5.903   1.705   0.131 -1.2886  0.3835  0.1134
 1884TIP3    H227212   5.830   1.798   0.037  1.3286  1.0955 -1.2972
 1885TIP3   OH227213   3.439   1.562   7.753 -0.5522 -0.3735 -0.5907
 1885TIP3    H127214   3.385   1.589   7.827  0.3852  2.0495 -0.7270
 1885TIP3    H227215   3.459   1.643   7.706  1.9393 -1.3607 -1.3954
 1886TIP3   OH227216   0.234   5.499   0.715 -0.0538 -0.1732  0.1421
 1886TIP3    H127217   0.219   5.577   0.663  0.5342  0.0525  0.3053
 1886TIP3    H227218   0.319   5.466   0.687 -0.3081 -0.7738  0.0525
 1887TIP3   OH227219   1.309   0.159   0.028  0.2682  0.2113  0.0664
 1887TIP3    H127220   1.358   0.216   0.087 -0.3504  0.1766  0.6246
 1887TIP3    H227221   1.375   0.102  -0.011  0.4737 -1.1108  2.2163
 1888TIP3   OH227222   4.654   3.423   1.468 -0.3787 -0.0124 -0.8173
 1888TIP3    H127223   4.581   3.420   1.530  0.1741 -0.6413 -0.1723
 1888TIP3    H227224   4.691   3.335   1.472 -0.7060 -0.2453 -2.5121
 1889TIP3   OH227225   3.124   5.648   7.488 -0.1868  0.0880  0.2995
 1889TIP3    H127226   3.143   5.737   7.459 -0.3987 -0.0408 -0.2323
 1889TIP3    H227227   3.181   5.635   7.564 -0.4935  0.8386  0.6592
 1890TIP3   OH227228   1.500   5.296   1.478  0.0610 -0.0790  0.2486
 1890TIP3    H127229   1.450   5.286   1.559  0.1664  1.4614  0.5246
 1890TIP3    H227230   1.561   5.368   1.495 -1.1622  1.5629 -1.7530
 1891TIP3   OH227231   4.443   1.530   1.722 -0.2010 -0.6123  0.0011
 1891TIP3    H127232   4.362   1.578   1.703 -0.6636 -1.6573 -0.7175
 1891TIP3    H227233   4.454   1.471   1.647  0.5938 -1.3211  0.6662
 1892TIP3   OH227234   3.279   5.612   2.330 -0.5176  0.1503 -0.0253
 1892TIP3    H127235   3.313   5.692   2.371  2.1079 -0.8399 -0.0275
 1892TIP3    H227236   3.269   5.550   2.402  1.5355 -0.7597 -0.4366
 1893TIP3   OH227237   4.040   1.422   2.345  0.2284 -0.4560 -0.0375
 1893TIP3    H127238   4.115   1.477   2.324 -0.7500  1.0920  0.3023
 1893TIP3    H227239   4.061   1.384   2.430  0.1062  1.0461  0.7101
 1894TIP3   OH227240   1.151   6.078   8.639  0.5100  0.0814  0.2341
 1894TIP3    H127241   1.107   6.102   8.557  0.2467  1.0090  0.6326
 1894TIP3    H227242   1.143   5.983   8.643 -0.6772  0.1445 -0.1536
 1895TIP3   OH227243   0.475   5.396   0.586  0.4814 -0.1295  0.1062
 1895TIP3    H127244   0.550   5.387   0.644  0.9414  0.3153 -0.3982
 1895TIP3    H227245   0.492   5.477   0.537 -1.7093  1.6237  1.9581
 1896TIP3   OH227246   0.939   5.042   7.838 -0.4789  0.6887  0.1721
 1896TIP3    H127247   0.900   5.044   7.751 -0.4274  1.8987  0.1536
 1896TIP3    H227248   1.024   5.087   7.828 -0.0402 -0.0027  0.6497
 1897TIP3   OH227249   3.547   3.617   0.270  0.4285 -0.3038  0.6225
 1897TIP3    H127250   3.535   3.615   0.175 -0.0402  0.9892  0.6291
 1897TIP3    H227251   3.585   3.703   0.287  0.2375 -0.4100  1.6397
 1898TIP3   OH227252   6.114   2.279   8.070  0.2728  0.2276 -0.4087
 1898TIP3    H127253   6.177   2.250   8.004 -0.4786 -0.2600 -0.9235
 1898TIP3    H227254   6.065   2.349   8.027  0.4544  0.6010 -0.0119
 1899TIP3   OH227255   2.094   3.837   2.159  0.5764  0.5885  0.0258
 1899TIP3    H127256   2.182   3.858   2.127  0.9763 -0.7498  0.1870
 1899TIP3    H227257   2.059   3.920   2.189  1.7228  1.1729 -0.2089
 1900TIP3   OH227258   3.523   2.860   1.895  0.1995 -0.3535  0.1241
 1900TIP3    H127259   3.450   2.859   1.833  1.7869 -0.3159 -1.8743
 1900TIP3    H227260   3.509   2.782   1.949 -0.8045 -0.8953 -0.8577
 1901TIP3   OH227261   3.841   3.965   7.468  0.3002  0.1865  0.2077
 1901TIP3    H127262   3.894   3.914   7.406 -0.2558 -1.1235  0.7652
 1901TIP3    H227263   3.845   4.055   7.435  1.7854 -0.1047 -0.4960
 1902TIP3   OH227264   5.310   6.708   7.020 -0.3721  0.8060 -0.1166
 1902TIP3    H127265   5.382   6.768   6.999 -1.5868  2.5091  0.4594
 1902TIP3    H227266   5.311   6.645   6.947  1.7829  0.6604 -0.0452
 1903TIP3   OH227267   2.655   2.482   7.725 -0.2301 -0.3441  0.5401
 1903TIP3    H127268   2.604   2.526   7.657  0.0498 -0.5801  0.1725
 1903TIP3    H227269   2.713   2.423   7.677 -0.8127 -1.3590  1.0360
 1904TIP3   OH227270   4.938   2.923   7.649 -0.0904  0.0087 -0.0841
 1904TIP3    H127271   4.931   2.874   7.731 -0.2169  0.2980  0.0758
 1904TIP3    H227272   4.942   2.855   7.582 -1.8590 -0.2388  0.0004
 1905TIP3   OH227273   1.289   4.884   7.047 -0.0104  0.5402 -0.2913
 1905TIP3    H127274   1.264   4.792   7.058  1.6119  0.1268  0.2633
 1905TIP3    H227275   1.285   4.899   6.953 -1.1347  0.1764 -0.3155
 1906TIP3   OH227276   3.627   4.337   8.183  0.7402 -0.7877  0.5067
 1906TIP3    H127277   3.635   4.412   8.241 -2.3069 -0.4829  0.7087
 1906TIP3    H227278   3.675   4.362   8.104  0.9469  0.7595  1.0958
 1907TIP3   OH227279   6.143   3.421   1.317  0.0597 -0.0528 -0.4481
 1907TIP3    H127280   6.235   3.435   1.341 -0.0070  0.7638 -0.6303
 1907TIP3    H227281   6.109   3.362   1.384  0.2989  0.9248  0.5574
 1908TIP3   OH227282   6.662   3.772   2.157 -0.4582  0.1450  0.6930
 1908TIP3    H127283   6.643   3.746   2.247 -0.0848 -0.4875  0.5932
 1908TIP3    H227284   6.576   3.788   2.118 -0.6872 -0.6839  0.8383
 1909TIP3   OH227285   3.104   5.776   0.178  0.3863  0.1751 -0.3758
 1909TIP3    H127286   3.045   5.846   0.151  1.2163  1.7510  1.6296
 1909TIP3    H227287   3.125   5.796   0.270  2.6350 -1.3039 -0.4849
 1910TIP3   OH227288   6.476   1.810   2.439 -0.0084  0.1906 -0.6230
 1910TIP3    H127289   6.546   1.873   2.456  0.6541 -0.2438 -1.6600
 1910TIP3    H227290   6.470   1.759   2.519  0.3327  0.7403 -0.2403
 1911TIP3   OH227291   4.193   2.080   2.758 -0.3992  0.3289  0.0952
 1911TIP3    H127292   4.117   2.076   2.700  0.8838  1.7754 -1.8087
 1911TIP3    H227293   4.241   1.999   2.740 -1.2308 -0.3589  0.9428
 1912TIP3   OH227294   3.659   1.840   7.852 -0.4494  0.9049  0.2190
 1912TIP3    H127295   3.749   1.864   7.872  0.3975 -2.0420  0.4990
 1912TIP3    H227296   3.642   1.764   7.908 -2.4574  0.2470 -1.1761
 1913TIP3   OH227297   3.902   6.656   2.433 -0.3638 -0.5756  0.3981
 1913TIP3    H127298   3.879   6.589   2.497  0.1009 -0.6094  0.5323
 1913TIP3    H227299   3.978   6.620   2.387  0.6757  0.3853  1.3133
 1914TIP3   OH227300   4.919   6.216   7.447 -0.0718 -0.0837 -0.1985
 1914TIP3    H127301   4.962   6.289   7.402  0.6924 -0.6608 -0.4266
 1914TIP3    H227302   4.986   6.180   7.505 -0.3667 -0.7438 -0.2483
 1915TIP3   OH227303   5.646   5.631   1.536  0.9350  0.1525  0.4538
 1915TIP3    H127304   5.613   5.581   1.611  1.1880  0.4921  0.7982
 1915TIP3    H227305   5.703   5.569   1.490  1.2048  0.1057  0.8452
 1916TIP3   OH227306   1.556   6.809   7.557 -0.0304 -0.0615  0.5291
 1916TIP3    H127307   1.584   6.899   7.539  1.6828 -0.5078  0.6992
 1916TIP3    H227308   1.593   6.757   7.485  1.4052 -0.9755  1.8577
 1917TIP3   OH227309   5.056   4.267   1.674  0.4730  0.8755 -0.0972
 1917TIP3    H127310   5.004   4.304   1.746 -0.2031 -3.8453  2.2331
 1917TIP3    H227311   5.135   4.235   1.717  0.2239 -1.7620 -1.4523
 1918TIP3   OH227312   4.929   5.894   2.627 -0.3048 -0.4232 -0.3942
 1918TIP3    H127313   4.922   5.811   2.580 -0.1538 -1.8086  1.8978
 1918TIP3    H227314   4.856   5.894   2.688  0.0128  0.9101  0.0341
 1919TIP3   OH227315   3.469   1.355   1.927  0.9287  0.0035 -0.1248
 1919TIP3    H127316   3.470   1.443   1.964  0.6784  0.1808 -0.5330
 1919TIP3    H227317   3.561   1.332   1.918  0.9981 -0.0584  0.6311
 1920TIP3   OH227318   3.992   0.248   0.017  0.2771  0.1590  0.3002
 1920TIP3    H127319   3.898   0.230   0.012  0.3259  0.1212 -0.7113
 1920TIP3    H227320   4.027   0.209  -0.062  1.0873  0.5654  0.4553
 1921TIP3   OH227321   0.935   3.034   8.259  0.4536 -0.3570 -0.4670
 1921TIP3    H127322   0.896   3.122   8.263 -0.2954 -0.6880 -0.2742
 1921TIP3    H227323   0.861   2.976   8.242  1.0952 -0.8507 -1.6757
 1922TIP3   OH227324   5.232   3.568   1.951 -0.7747 -0.5607 -0.2476
 1922TIP3    H127325   5.231   3.616   1.868 -2.6859 -0.7860 -0.4126
 1922TIP3    H227326   5.267   3.482   1.928  1.0298  0.1440 -0.2930
 1923TIP3   OH227327   1.914   1.509   7.821  0.1004  0.3515  0.2217
 1923TIP3    H127328   1.942   1.457   7.896  0.8891 -1.9114 -1.5108
 1923TIP3    H227329   1.981   1.491   7.754 -0.6501  2.1588 -1.0768
 1924TIP3   OH227330   5.414   2.004   7.232  0.0074  0.1083 -0.3680
 1924TIP3    H127331   5.443   1.940   7.167 -0.5845 -0.8803  0.3046
 1924TIP3    H227332   5.392   2.082   7.181  1.9759  0.2577 -1.0882
 1925TIP3   OH227333   3.522   1.635   1.971  0.2691  0.2319 -0.6302
 1925TIP3    H127334   3.509   1.725   1.941 -0.6454  0.1301 -0.5671
 1925TIP3    H227335   3.551   1.644   2.062 -1.3467  0.4441 -0.1023
 1926TIP3   OH227336   3.868   1.716   2.920 -0.0892 -0.2057 -0.1497
 1926TIP3    H127337   3.837   1.800   2.953  2.1294  0.2001  1.0850
 1926TIP3    H227338   3.871   1.728   2.825  0.5614  1.2654  0.0269
 1927TIP3   OH227339   2.667   5.818   1.880 -0.0643  0.7512  0.1311
 1927TIP3    H127340   2.666   5.818   1.784 -2.4734  1.1854  0.1061
 1927TIP3    H227341   2.760   5.818   1.903  0.5905 -1.4503 -2.1767
 1928TIP3   OH227342   3.126   2.344   6.658  0.6754  0.4647  0.0441
 1928TIP3    H127343   3.119   2.386   6.743  0.7742  0.2053  0.1814
 1928TIP3    H227344   3.170   2.261   6.676 -0.5802 -0.2491 -0.0378
 1929TIP3   OH227345   1.067   5.676   7.585  0.1322  0.0455  0.7088
 1929TIP3    H127346   1.017   5.620   7.525 -2.1031  1.5558  1.0352
 1929TIP3    H227347   1.007   5.694   7.656  1.7671  0.6338  2.0047
 1930TIP3   OH227348   3.736   3.672   2.150 -0.0971  0.1911  0.2113
 1930TIP3    H127349   3.796   3.602   2.177 -0.6254  0.0010  0.9542
 1930TIP3    H227350   3.714   3.717   2.232 -0.3001  0.7932 -0.1692
 1931TIP3   OH227351   2.694   0.860   2.144  0.7089  0.5231 -0.2933
 1931TIP3    H127352   2.624   0.926   2.147  0.3918  0.1568  1.3765
 1931TIP3    H227353   2.726   0.863   2.054  0.2569  2.4823 -0.4247
 1932TIP3   OH227354   4.503   6.128   0.153  0.2392  0.2253 -0.0195
 1932TIP3    H127355   4.461   6.113   0.068 -0.3016  0.5439  0.1852
 1932TIP3    H227356   4.430   6.138   0.214  0.5964 -1.6947  0.7995
 1933TIP3   OH227357   5.947   3.848   0.064 -0.3591 -0.2481 -0.1697
 1933TIP3    H127358   5.939   3.857  -0.031 -0.9718  0.0105 -0.1004
 1933TIP3    H227359   5.954   3.753   0.078 -0.2847 -0.2897 -0.4720
 1934TIP3   OH227360   5.467   0.660   8.667 -0.1378 -0.1218 -0.1016
 1934TIP3    H127361   5.470   0.599   8.741 -0.4731  0.2545  0.2280
 1934TIP3    H227362   5.555   0.697   8.664 -0.4435  0.7381  0.8667
 1935TIP3   OH227363   0.409   1.513   1.258 -0.3247  0.5600  0.4193
 1935TIP3    H127364   0.374   1.424   1.265  0.2745  0.3061  0.2171
 1935TIP3    H227365   0.498   1.502   1.225 -0.0383  1.2024  0.9531
 1936TIP3   OH227366   3.522   4.196   7.749  0.5364  0.1996 -0.2838
 1936TIP3    H127367   3.481   4.147   7.820 -0.4935  1.0744 -0.2466
 1936TIP3    H227368   3.585   4.135   7.710  1.4363 -0.1624  1.6360
 1937TIP3   OH227369   6.139   5.710   0.773  0.0280 -0.1652  0.2285
 1937TIP3    H127370   6.134   5.653   0.696  1.2967 -0.8709  0.6366
 1937TIP3    H227371   6.067   5.682   0.828 -1.5080  0.9890 -1.0725
 1938TIP3   OH227372   0.707   2.066   0.145  0.2330 -0.0558  0.4924
 1938TIP3    H127373   0.740   1.986   0.104  0.8440  0.0460  0.7724
 1938TIP3    H227374   0.740   2.062   0.235 -1.9703 -0.7963  1.3213
 1939TIP3   OH227375   1.860   5.271   0.116 -0.3859  0.0541  0.3321
 1939TIP3    H127376   1.851   5.319   0.034 -1.6826 -2.7306 -1.3074
 1939TIP3    H227377   1.795   5.309   0.174 -2.9362 -0.9782 -1.6463
 1940TIP3   OH227378   3.198   2.889   1.210  0.4683 -0.3048  0.0517
 1940TIP3    H127379   3.258   2.822   1.176 -0.4137 -1.8325  1.3687
 1940TIP3    H227380   3.256   2.956   1.247  1.3865 -1.0963  0.1024
 1941TIP3   OH227381   0.078   2.715   2.741 -0.1662 -0.4636  0.0993
 1941TIP3    H127382  -0.004   2.751   2.706  0.2267  0.3474 -0.0233
 1941TIP3    H227383   0.127   2.792   2.770 -0.0961 -1.0470  1.6149
 1942TIP3   OH227384   3.569   2.343   1.739 -0.1337  0.2678 -0.4574
 1942TIP3    H127385   3.636   2.355   1.672  0.8521 -2.3062 -0.0743
 1942TIP3    H227386   3.617   2.346   1.822 -0.8804  0.6493 -0.0304
 1943TIP3   OH227387   1.200   4.951   2.322 -0.3008  0.0063  0.0002
 1943TIP3    H127388   1.108   4.965   2.300 -0.2795  0.4588  0.1910
 1943TIP3    H227389   1.199   4.913   2.410 -0.3020  0.0150  0.0037
 1944TIP3   OH227390   2.595   3.675   2.423  0.8051  0.2283  0.4111
 1944TIP3    H127391   2.519   3.708   2.471  0.6648  0.1493  0.2454
 1944TIP3    H227392   2.560   3.605   2.368  1.0013  0.1801  0.3460
 1945TIP3   OH227393   3.809   3.837   1.062 -0.8390  0.2199 -0.1856
 1945TIP3    H127394   3.799   3.931   1.075 -0.6861  0.2638 -0.3818
 1945TIP3    H227395   3.847   3.805   1.144 -2.0998  0.1218  0.3901
 1946TIP3   OH227396   6.236   2.113   2.200  0.1758  0.4280 -0.3042
 1946TIP3    H127397   6.332   2.119   2.197  0.2877 -0.2507  0.9797
 1946TIP3    H227398   6.217   2.092   2.292 -1.2950  1.9088 -0.2308
 1947TIP3   OH227399   0.776   3.669   2.559 -0.1492 -0.1485 -0.3698
 1947TIP3    H127400   0.763   3.694   2.650 -2.5185  0.1990 -0.7312
 1947TIP3    H227401   0.820   3.743   2.519  0.1889  0.0268  0.3170
 1948TIP3   OH227402   5.954   4.348   1.750  0.4221  0.0715 -0.3654
 1948TIP3    H127403   5.971   4.405   1.676 -0.4096  0.5575 -0.1906
 1948TIP3    H227404   6.007   4.385   1.821 -0.5045  0.9546 -0.1095
 1949TIP3   OH227405   4.919   3.167   1.508 -0.2394  0.2738 -0.0380
 1949TIP3    H127406   4.840   3.136   1.552 -1.6405 -0.0283 -2.5994
 1949TIP3    H227407   4.955   3.089   1.466  0.4395  0.7332 -0.3265
 1950TIP3   OH227408   5.369   3.210   7.833  0.1413  0.0674 -0.4245
 1950TIP3    H127409   5.347   3.303   7.833  1.2920  0.3647 -1.0436
 1950TIP3    H227410   5.453   3.205   7.878  0.3243 -0.6002 -0.8204
 1951TIP3   OH227411   5.920   6.794   8.506  0.5836  0.4139  0.1148
 1951TIP3    H127412   5.887   6.743   8.432  0.9549  2.8974 -1.9041
 1951TIP3    H227413   5.842   6.826   8.550  0.2741 -2.9753  2.4338
 1952TIP3   OH227414   5.407   3.426   7.061 -0.1535 -0.1727  0.4569
 1952TIP3    H127415   5.340   3.358   7.057  0.2060 -0.4704 -1.0639
 1952TIP3    H227416   5.362   3.506   7.034 -0.1238 -0.1910  0.3517
 1953TIP3   OH227417   5.107   5.157   1.697  0.2111  0.2708 -0.6722
 1953TIP3    H127418   5.126   5.176   1.605  0.2394 -1.0853 -0.9706
 1953TIP3    H227419   5.075   5.240   1.732 -0.1322  0.7270 -1.9873
 1954TIP3   OH227420   3.800   4.915   2.366  0.4361  0.2454  0.5912
 1954TIP3    H127421   3.885   4.938   2.328  0.2132  0.3966  0.1667
 1954TIP3    H227422   3.764   4.998   2.397  0.0575  0.3299 -0.0486
 1955TIP3   OH227423   3.416   0.882   7.494 -0.2664  0.4492 -0.4319
 1955TIP3    H127424   3.395   0.816   7.560  0.7420 -0.3692 -0.9084
 1955TIP3    H227425   3.406   0.965   7.539 -0.0012 -0.0849  0.6348
 1956TIP3   OH227426   5.572   2.530   0.838  0.1418  0.0185 -0.1276
 1956TIP3    H127427   5.655   2.519   0.791  0.0433 -1.3363 -0.0191
 1956TIP3    H227428   5.524   2.449   0.820  0.6474 -1.2411  3.3616
 1957TIP3   OH227429   2.943   4.058   0.110  0.6528  0.0586  0.6043
 1957TIP3    H127430   2.923   3.989   0.047  1.6827  0.0568  0.2663
 1957TIP3    H227431   2.880   4.128   0.089  1.1390  0.1581 -0.5943
 1958TIP3   OH227432   2.171   5.761   0.150  0.4920 -0.4846 -0.4528
 1958TIP3    H127433   2.139   5.812   0.224  0.9100  0.2287 -0.7506
 1958TIP3    H227434   2.092   5.733   0.104  0.2505  0.9226 -0.9593
 1959TIP3   OH227435   5.891   5.522   8.627  1.0910 -0.0313 -0.0944
 1959TIP3    H127436   5.884   5.555   8.538 -0.8699  0.1510  0.0837
 1959TIP3    H227437   5.909   5.429   8.618 -0.3562 -0.2778 -0.7411
 1960TIP3   OH227438   2.693   4.962   7.447 -0.3533 -0.0596  0.7747
 1960TIP3    H127439   2.733   5.041   7.411  0.8594  0.2671  2.7286
 1960TIP3    H227440   2.752   4.891   7.419  0.1710  0.0979  1.4745
 1961TIP3   OH227441   2.171   5.230   2.271  0.1306  0.6636 -0.0115
 1961TIP3    H127442   2.259   5.192   2.265  0.5480  0.5925  3.9211
 1961TIP3    H227443   2.185   5.318   2.306 -1.3427  0.5930  0.8189
 1962TIP3   OH227444   2.151   0.871   2.258  0.3229 -0.4313 -0.0622
 1962TIP3    H127445   2.057   0.854   2.261  0.4174 -1.1620 -0.7181
 1962TIP3    H227446   2.168   0.896   2.168  0.9196 -1.4285 -0.2452
 1963TIP3   OH227447   0.700   3.241   1.583  0.3786 -0.4849  0.0556
 1963TIP3    H127448   0.636   3.173   1.606  0.8297 -1.3686 -1.1641
 1963TIP3    H227449   0.652   3.323   1.591 -0.7899 -1.0973 -0.4303
 1964TIP3   OH227450   6.835   1.710   0.916 -0.4907  0.3661 -0.3225
 1964TIP3    H127451   6.914   1.752   0.880  0.1140 -0.4066  0.0642
 1964TIP3    H227452   6.830   1.742   1.006  0.8667 -1.5250  0.4888
 1965TIP3   OH227453   3.758   2.640   7.814  0.2161 -0.4679  0.6651
 1965TIP3    H127454   3.826   2.596   7.764  1.4358  0.1572  1.7245
 1965TIP3    H227455   3.778   2.621   7.905  0.4781  1.7885  1.1289
 1966TIP3   OH227456   4.249   1.974   2.058  0.0693  0.3427 -0.1009
 1966TIP3    H127457   4.312   1.912   2.022 -0.0113 -0.8744  1.6898
 1966TIP3    H227458   4.295   2.015   2.131 -0.8179  0.2958  0.4974
 1967TIP3   OH227459   4.033   6.509   0.533  0.6144 -0.8331  0.2707
 1967TIP3    H127460   4.091   6.568   0.579 -0.4777  0.1428  0.4351
 1967TIP3    H227461   3.969   6.480   0.598 -0.3752 -0.1841 -0.3786
 1968TIP3   OH227462   5.895   6.013   7.782  0.7698 -0.2258 -0.5459
 1968TIP3    H127463   5.852   5.958   7.848  1.2879  0.5169  0.4409
 1968TIP3    H227464   5.951   5.952   7.733 -0.3549 -0.9582 -0.9598
 1969TIP3   OH227465   5.895   3.790   0.349 -0.1461  0.4005 -0.3573
 1969TIP3    H127466   5.949   3.830   0.281 -0.2022  0.9192 -0.0969
 1969TIP3    H227467   5.811   3.773   0.305  0.0669  0.0211 -0.6295
 1970TIP3   OH227468   3.484   4.730   0.596  0.3306 -0.3630  0.5248
 1970TIP3    H127469   3.447   4.644   0.576  0.6055 -0.3566 -0.0429
 1970TIP3    H227470   3.535   4.716   0.676 -0.3409 -0.5219  0.9275
 1971TIP3   OH227471   0.813   6.652   0.157 -0.2920  0.0752 -0.4110
 1971TIP3    H127472   0.827   6.695   0.242 -2.6889  1.1805 -0.5071
 1971TIP3    H227473   0.891   6.597   0.145  0.5625  0.6290  2.0360
 1972TIP3   OH227474   5.026   3.005   1.813  0.3768  0.5791 -0.2210
 1972TIP3    H127475   5.056   3.027   1.724 -1.2231  0.1787 -0.8936
 1972TIP3    H227476   4.984   2.919   1.803 -2.2433  1.7095  0.3461
 1973TIP3   OH227477   0.857   5.807   1.263  0.4238 -0.0245 -0.2881
 1973TIP3    H127478   0.769   5.822   1.228  0.7303  1.9973 -0.3196
 1973TIP3    H227479   0.844   5.746   1.335 -0.7407 -1.1823 -1.4179
 1974TIP3   OH227480   5.945   0.717   0.093 -0.4752  0.1064  0.2361
 1974TIP3    H127481   5.987   0.798   0.121  2.2352 -1.1198 -0.0465
 1974TIP3    H227482   5.960   0.656   0.165  1.1121 -1.2725 -1.1796
 1975TIP3   OH227483   4.377   2.182   1.849 -0.5651 -0.0548 -0.2625
 1975TIP3    H127484   4.283   2.166   1.851 -0.7010  0.4691 -1.6328
 1975TIP3    H227485   4.386   2.274   1.822  0.3300  0.1291  0.5977
 1976TIP3   OH227486   1.043   1.557   8.228 -0.5263 -0.4372  0.0877
 1976TIP3    H127487   1.017   1.639   8.186  1.8516 -0.1425 -0.9642
 1976TIP3    H227488   1.122   1.530   8.181  0.4116 -1.8201  2.3058
 1977TIP3   OH227489   6.576   3.097   1.307  0.0054 -0.5233 -0.7014
 1977TIP3    H127490   6.488   3.063   1.290  0.1479 -1.4501  0.3314
 1977TIP3    H227491   6.611   3.116   1.220  0.2207 -3.8734 -1.4655
 1978TIP3   OH227492   3.337   4.611   0.991  0.1981  0.3138  0.0766
 1978TIP3    H127493   3.305   4.669   1.060  2.8113  0.0157  1.6453
 1978TIP3    H227494   3.324   4.522   1.026 -0.4982  0.0529 -0.7990
 1979TIP3   OH227495   1.440   4.593   2.815 -0.3051 -0.3076 -0.5710
 1979TIP3    H127496   1.458   4.501   2.795 -0.5430 -0.7478  1.1165
 1979TIP3    H227497   1.526   4.630   2.834 -0.2004 -0.1441 -1.3219
 1980TIP3   OH227498   2.969   3.985   7.430 -0.6436  0.7312 -0.2578
 1980TIP3    H127499   2.967   3.912   7.491  0.6548 -1.4893 -2.6227
 1980TIP3    H227500   3.021   3.952   7.356 -2.0571  3.2042 -2.5381
 1981TIP3   OH227501   1.533   5.796   1.146  0.2304  0.2885 -0.3507
 1981TIP3    H127502   1.590   5.721   1.162 -0.0019  0.3561  0.8839
 1981TIP3    H227503   1.561   5.830   1.061  0.6488 -0.9112 -0.7109
 1982TIP3   OH227504   6.109   3.378   0.121  0.2681  0.0345 -1.1094
 1982TIP3    H127505   6.193   3.423   0.109  0.7038 -0.8577 -1.5549
 1982TIP3    H227506   6.100   3.367   0.216  0.3016  0.7829 -1.0198
 1983TIP3   OH227507   2.414   2.113   0.742 -0.0548  0.5282  0.5614
 1983TIP3    H127508   2.478   2.116   0.671 -0.6164  0.6702  0.0523
 1983TIP3    H227509   2.329   2.113   0.698 -0.4063 -0.0822  1.2163
 1984TIP3   OH227510   3.324   2.714   8.130  0.1782 -0.0202  0.1385
 1984TIP3    H127511   3.243   2.669   8.110  0.7121 -0.6324 -0.7321
 1984TIP3    H227512   3.387   2.681   8.066  1.3208 -0.1354  1.2567
 1985TIP3   OH227513   0.156   6.722   8.646 -0.1546  0.2359 -0.3500
 1985TIP3    H127514   0.071   6.764   8.660 -0.7395 -1.7485  3.7442
 1985TIP3    H227515   0.134   6.634   8.614  0.5576  0.4337 -1.4386
 1986TIP3   OH227516   2.766   2.815   7.857  0.7167  0.0303  0.5903
 1986TIP3    H127517   2.769   2.872   7.933  1.2891  0.8465 -0.0346
 1986TIP3    H227518   2.746   2.873   7.784  1.0836 -0.6026 -0.0243
 1987TIP3   OH227519   6.391   0.042   1.697  0.5437 -0.6340 -0.0055
 1987TIP3    H127520   6.404   0.053   1.791  0.0183 -0.0263  0.0033
 1987TIP3    H227521   6.418   0.125   1.658  3.5320 -1.8237 -0.7152
 1988TIP3   OH227522   3.235   3.736   0.488  0.1263  0.5579  0.5101
 1988TIP3    H127523   3.314   3.777   0.523  0.6215  0.5170 -0.5043
 1988TIP3    H227524   3.263   3.647   0.464 -0.2524  0.4994  0.2754
 1989TIP3   OH227525   3.420   2.148   2.035 -0.2297 -0.3333 -0.0276
 1989TIP3    H127526   3.505   2.116   2.004  0.1886  1.5000 -0.9050
 1989TIP3    H227527   3.362   2.072   2.028  0.0301 -0.3901 -4.5635
 1990TIP3   OH227528   3.775   0.345   7.632 -0.0637 -0.2223 -0.3511
 1990TIP3    H127529   3.754   0.321   7.722  0.1890  0.6616 -0.0547
 1990TIP3    H227530   3.800   0.437   7.636  0.6701 -0.3709 -1.2095
 1991TIP3   OH227531   5.797   5.443   1.409 -0.6038 -0.0005  0.6550
 1991TIP3    H127532   5.865   5.491   1.362  2.2956 -2.3301  2.1129
 1991TIP3    H227533   5.755   5.389   1.342  1.9243 -1.5994  0.2305
 1992TIP3   OH227534   4.573   4.924   0.824 -0.4411  0.3764 -0.2526
 1992TIP3    H127535   4.559   4.889   0.736 -0.0710 -0.9414  0.1878
 1992TIP3    H227536   4.667   4.942   0.828 -0.4485  0.3918 -0.1192
 1993TIP3   OH227537   6.370   4.457   0.797 -0.6563  0.6479  0.8314
 1993TIP3    H127538   6.439   4.391   0.793  0.3544  1.7092 -0.4286
 1993TIP3    H227539   6.389   4.508   0.876 -1.0942 -0.1852  1.4829
 1994TIP3   OH227540   4.840   0.886   0.598  0.6051 -0.1201 -0.3244
 1994TIP3    H127541   4.866   0.896   0.507  0.6832 -2.0386 -0.5609
 1994TIP3    H227542   4.756   0.839   0.594 -1.0853  2.6103  0.5348
 1995TIP3   OH227543   1.851   1.593   6.947 -0.2619  0.3320  0.1772
 1995TIP3    H127544   1.788   1.530   6.913 -0.7461  0.4373  0.8570
 1995TIP3    H227545   1.808   1.631   7.024  1.5605 -1.3503  2.1615
 1996TIP3   OH227546   3.408   2.420   0.331 -0.1412  0.3570  0.7305
 1996TIP3    H127547   3.497   2.411   0.298  0.8308  2.2181  2.6221
 1996TIP3    H227548   3.401   2.355   0.401  0.6336  1.7926  2.2094
 1997TIP3   OH227549   5.691   1.916   0.047 -0.2695  0.2901  0.1718
 1997TIP3    H127550   5.608   1.942   0.087  0.2357  2.4165 -0.0248
 1997TIP3    H227551   5.719   1.994  -0.002  0.7666 -1.1051 -1.5776
 1998TIP3   OH227552   6.300   0.430   1.126  0.1029  0.7104 -0.3783
 1998TIP3    H127553   6.332   0.354   1.175 -0.7339  0.8169  0.3455
 1998TIP3    H227554   6.324   0.412   1.035 -0.5654 -0.6759 -0.2989
 1999TIP3   OH227555   5.685   6.262   1.684 -0.2849  0.3027 -0.3587
 1999TIP3    H127556   5.624   6.188   1.686 -0.4379  0.3690 -1.7930
 1999TIP3    H227557   5.769   6.224   1.712 -1.0296  0.3090  2.0830
 2000TIP3   OH227558   5.315   6.718   0.575  0.3057  0.2616  0.3609
 2000TIP3    H127559   5.305   6.763   0.659  1.7323  0.0006  0.6990
 2000TIP3    H227560   5.410   6.716   0.560  0.0624  0.7276 -1.5032
 2001TIP3   OH227561   3.622   4.738   7.893  0.4000 -0.0366  0.1259
 2001TIP3    H127562   3.682   4.746   7.967 -0.0512 -0.2750  0.5215
 2001TIP3    H227563   3.556   4.805   7.909 -0.8962 -1.4838  1.0873
 2002TIP3   OH227564   3.273   5.179   2.586 -0.7232 -0.4369 -0.8138
 2002TIP3    H127565   3.226   5.116   2.532 -1.0547 -1.9087  1.0914
 2002TIP3    H227566   3.317   5.126   2.653  0.2222  1.2374 -0.0369
 2003TIP3   OH227567   3.690   2.141   0.183  0.3042 -0.6512  0.4078
 2003TIP3    H127568   3.670   2.229   0.214  0.9278 -0.6608  0.8453
 2003TIP3    H227569   3.772   2.118   0.226  0.8312 -0.9323 -0.7117
 2004TIP3   OH227570   5.254   5.740   1.701  0.1801 -0.3353 -0.2852
 2004TIP3    H127571   5.323   5.675   1.713 -0.2907 -1.0057 -1.1196
 2004TIP3    H227572   5.180   5.706   1.752  0.3950  0.2933  0.4652
 2005TIP3   OH227573   4.490   2.924   8.358 -0.3132 -0.6103  0.2632
 2005TIP3    H127574   4.495   2.956   8.448 -1.1031 -1.5721  0.6584
 2005TIP3    H227575   4.397   2.919   8.339 -0.1685 -1.1018 -0.3669
 2006TIP3   OH227576   4.844   0.046   8.123  0.1064  0.5968  0.0766
 2006TIP3    H127577   4.815   0.039   8.214  1.3286 -1.3203  0.3703
 2006TIP3    H227578   4.770   0.014   8.071 -1.4136  3.6210  0.1500
 2007TIP3   OH227579   0.691   0.778   8.502  0.2248 -0.3070  0.1211
 2007TIP3    H127580   0.637   0.766   8.581  1.8882  0.9584  1.5425
 2007TIP3    H227581   0.704   0.872   8.497  1.7376 -0.5293 -0.5482
 2008TIP3   OH227582   4.873   0.146   1.225 -0.2743  0.5267  0.2290
 2008TIP3    H127583   4.965   0.132   1.201 -0.3911 -0.4526  0.2950
 2008TIP3    H227584   4.858   0.086   1.298 -1.2744 -0.2118 -0.5390
 2009TIP3   OH227585   2.253   1.409   2.264  0.2783  0.0005  1.2723
 2009TIP3    H127586   2.342   1.444   2.278  0.6148  0.5122 -1.5580
 2009TIP3    H227587   2.256   1.372   2.176 -2.4601  0.4243  0.9300
 2010TIP3   OH227588   5.019   0.624   1.597  0.1969 -0.4749 -0.0378
 2010TIP3    H127589   5.102   0.640   1.554 -0.0317 -0.8366 -0.6313
 2010TIP3    H227590   4.954   0.670   1.543  0.0764  0.3295  0.7655
 2011TIP3   OH227591   4.244   1.530   0.548  0.4118 -0.1280  0.1114
 2011TIP3    H127592   4.235   1.494   0.459  1.2878  0.4967 -0.2457
 2011TIP3    H227593   4.312   1.596   0.540  1.7884 -1.2837  1.6115
 2012TIP3   OH227594   2.383   2.854   1.124 -0.0751  0.3715 -0.3278
 2012TIP3    H127595   2.406   2.768   1.088 -1.1254 -0.4659  0.8807
 2012TIP3    H227596   2.299   2.876   1.083 -0.2408  0.3879  0.0114
 2013TIP3   OH227597   2.165   2.263   0.525  0.4971  0.1409 -0.4532
 2013TIP3    H127598   2.187   2.330   0.461  0.1510  1.7028  0.9757
 2013TIP3    H227599   2.079   2.231   0.499 -0.7439  2.4853  0.5010
 2014TIP3   OH227600   6.056   5.813   2.783  0.0830 -0.1654  0.5003
 2014TIP3    H127601   6.045   5.769   2.699  0.8999  0.0286  0.2858
 2014TIP3    H227602   5.973   5.798   2.829 -0.3369 -0.3389 -0.3031
 2015TIP3   OH227603   3.785   3.093   1.245 -0.6964  0.2137 -0.7329
 2015TIP3    H127604   3.738   3.153   1.302 -1.9223 -0.8660 -0.5537
 2015TIP3    H227605   3.722   3.072   1.176 -1.0113 -2.2825  0.2123
 2016TIP3   OH227606   0.218   1.481   0.956  0.3141 -0.6385 -0.0624
 2016TIP3    H127607   0.124   1.473   0.944 -0.0023 -2.6746  2.8108
 2016TIP3    H227608   0.249   1.392   0.972  2.5545  0.0934  0.1036
 2017TIP3   OH227609   2.593   5.845   1.607  0.0475  0.1137  0.5531
 2017TIP3    H127610   2.603   5.778   1.540 -1.7250  0.4664 -0.1055
 2017TIP3    H227611   2.500   5.866   1.607  0.2128  1.0275  2.2619
 2018TIP3   OH227612   2.736   2.993   1.770  0.2529 -0.3126 -0.0778
 2018TIP3    H127613   2.749   3.032   1.683 -0.7748 -0.1872 -0.1904
 2018TIP3    H227614   2.643   2.973   1.773  0.3824 -0.8221  0.7984
 2019TIP3   OH227615   4.479   5.403   2.215 -1.4069 -0.0385  0.1923
 2019TIP3    H127616   4.496   5.496   2.233  1.1377 -0.2443 -0.7283
 2019TIP3    H227617   4.474   5.362   2.302 -0.1861  0.6193  0.5985
 2020TIP3   OH227618   5.397   3.474   0.365 -0.1083  0.1741 -0.8973
 2020TIP3    H127619   5.478   3.437   0.329 -0.4527 -1.5235 -0.0094
 2020TIP3    H227620   5.330   3.408   0.348 -1.1352  1.1252 -0.7305
 2021TIP3   OH227621   2.698   3.790   0.418  0.2164 -0.2762 -0.3910
 2021TIP3    H127622   2.660   3.741   0.491  1.6594 -0.8373  0.0218
 2021TIP3    H227623   2.657   3.753   0.341  1.5032 -2.4512 -0.1166
 2022TIP3   OH227624   4.263   3.757   8.057 -0.4815 -0.2432  0.3910
 2022TIP3    H127625   4.311   3.838   8.039 -0.0197 -0.8990 -1.5410
 2022TIP3    H227626   4.209   3.743   7.979 -0.8731 -1.5872  0.8771
 2023TIP3   OH227627   1.886   2.567   0.764 -0.2256  0.0095 -0.6527
 2023TIP3    H127628   1.888   2.618   0.845 -0.7370  0.1442 -0.7184
 2023TIP3    H227629   1.926   2.483   0.787  0.1849  0.2667 -0.4200
 2024TIP3   OH227630   4.283   4.020   0.227 -0.6343 -0.0358 -0.0704
 2024TIP3    H127631   4.205   4.061   0.265 -0.7441 -0.8714  0.6460
 2024TIP3    H227632   4.249   3.947   0.175 -0.3260 -0.4217  0.2676
 2025TIP3   OH227633   6.014   1.107   8.319  0.2572 -0.0955 -0.3266
 2025TIP3    H127634   5.994   1.053   8.243  1.3336 -0.8061 -0.1287
 2025TIP3    H227635   6.096   1.071   8.353  0.2195  0.7327  0.6868
 2026TIP3   OH227636   6.138   2.364   1.739 -0.2124  0.3633  0.1490
 2026TIP3    H127637   6.155   2.313   1.660 -0.7971 -0.5812  0.6102
 2026TIP3    H227638   6.060   2.415   1.718 -0.1942  0.3378  0.0179
 2027TIP3   OH227639   0.642   4.448   2.542 -0.2621  1.2127 -0.2341
 2027TIP3    H127640   0.706   4.442   2.613 -0.0584  0.4427 -0.4653
 2027TIP3    H227641   0.643   4.540   2.516  1.1878  1.1152 -0.6235
 2028TIP3   OH227642   6.011   4.712   0.736  0.5624 -0.0533 -1.2980
 2028TIP3    H127643   6.074   4.762   0.788  0.3049 -0.7529 -0.2760
 2028TIP3    H227644   6.065   4.653   0.683  0.8176  0.4396 -1.5904
 2029TIP3   OH227645   3.374   5.951   7.554 -0.1909  0.0047  0.5284
 2029TIP3    H127646   3.287   5.961   7.515 -0.2646  0.0393  0.6995
 2029TIP3    H227647   3.378   5.860   7.581 -0.5640  0.2513  1.4391
 2030TIP3   OH227648   3.957   6.042   7.951 -0.3753  0.5704 -0.0255
 2030TIP3    H127649   4.003   5.966   7.985  0.4626  0.5551 -1.1086
 2030TIP3    H227650   3.901   6.071   8.022  1.7459  0.9392  1.5802
 2031TIP3   OH227651   1.065   3.026   0.022 -0.3260  0.0725 -0.3567
 2031TIP3    H127652   1.083   3.106   0.072 -1.4953  1.1673 -1.5679
 2031TIP3    H227653   1.137   2.967   0.044 -0.1986  0.9030  1.6937
 2032TIP3   OH227654   3.671   6.677   8.140  0.0258  0.5537  0.1645
 2032TIP3    H127655   3.761   6.708   8.142 -0.4783  2.1295  0.0211
 2032TIP3    H227656   3.665   6.615   8.212  0.9890  1.1653  0.7967
 2033TIP3   OH227657   3.028   1.436   6.613 -0.7384 -0.1314 -0.4681
 2033TIP3    H127658   3.120   1.463   6.622 -0.3851 -1.2684 -0.5046
 2033TIP3    H227659   3.015   1.372   6.683 -1.7462  0.6153  0.0435
 2034TIP3   OH227660   2.959   4.446   1.311 -0.2124  0.5399 -0.2317
 2034TIP3    H127661   2.871   4.414   1.292  0.3955 -0.3682 -1.6868
 2034TIP3    H227662   2.975   4.513   1.244  0.7084 -0.2770 -0.8453
 2035TIP3   OH227663   0.128   4.872   1.933  0.2517 -0.5013 -0.3484
 2035TIP3    H127664   0.054   4.909   1.885 -0.1405 -0.3639  0.3521
 2035TIP3    H227665   0.165   4.946   1.981 -2.1848 -1.3469  3.2508
 2036TIP3   OH227666   5.950   6.300   1.766 -0.2527  0.5292  0.3889
 2036TIP3    H127667   5.977   6.352   1.842 -0.1479  0.7949  0.1727
 2036TIP3    H227668   5.968   6.357   1.690  0.6273 -0.1419  0.0843
 2037TIP3   OH227669   5.584   5.422   7.836 -0.1018  0.1436 -0.2574
 2037TIP3    H127670   5.667   5.451   7.797  0.2967 -0.8319 -0.1671
 2037TIP3    H227671   5.525   5.496   7.824  1.1643  1.4244  0.8940
 2038TIP3   OH227672   2.878   0.011   0.006 -0.2018 -0.4443 -0.4520
 2038TIP3    H127673   2.814  -0.056  -0.020 -3.2168  0.9141  2.7682
 2038TIP3    H227674   2.911  -0.019   0.091  0.6266  0.7733 -0.3189
 2039TIP3   OH227675   6.824   2.916   1.412 -0.0334  0.1563 -0.3423
 2039TIP3    H127676   6.839   2.871   1.495 -1.2494 -1.4204 -0.9293
 2039TIP3    H227677   6.832   3.009   1.434  2.1230 -0.2639  1.0069
 2040TIP3   OH227678   3.802   3.083   2.013 -0.2600  0.1967  0.5329
 2040TIP3    H127679   3.896   3.074   2.026 -0.1342  0.9576  0.2077
 2040TIP3    H227680   3.794   3.139   1.936 -0.9823  0.3928  0.7449
 2041TIP3   OH227681   3.264   3.730   1.005 -0.7573 -0.2642 -0.0767
 2041TIP3    H127682   3.243   3.727   0.912  0.0195 -0.7689 -0.2401
 2041TIP3    H227683   3.349   3.774   1.009  0.2614 -2.1388  0.1868
 2042TIP3   OH227684   5.563   1.628   8.636  0.3232 -0.2740 -0.6412
 2042TIP3    H127685   5.483   1.630   8.689  0.3795 -1.8499 -0.4450
 2042TIP3    H227686   5.607   1.711   8.656 -0.1877 -0.3528  0.9570
 2043TIP3   OH227687   2.945   0.813   0.362 -0.0455 -0.4335 -0.2290
 2043TIP3    H127688   2.931   0.791   0.454  0.8794 -1.9466 -0.4069
 2043TIP3    H227689   3.015   0.879   0.363 -1.0836  0.7008  0.1963
 2044TIP3   OH227690   5.487   3.071   2.232  0.1789  0.1927 -0.1639
 2044TIP3    H127691   5.496   3.126   2.310  1.0241  0.7211 -0.6148
 2044TIP3    H227692   5.416   3.112   2.182  1.0653  1.1345 -0.6869
 2045TIP3   OH227693   0.037   4.725   7.875  0.0151 -0.4903  0.4476
 2045TIP3    H127694  -0.021   4.653   7.898  1.0436 -0.6062  3.0514
 2045TIP3    H227695   0.106   4.723   7.942 -0.1150  3.1151  0.9144
 2046TIP3   OH227696   0.845   0.255   0.660  0.5956 -0.3286 -0.0667
 2046TIP3    H127697   0.874   0.268   0.570  1.8975 -1.1932  0.2143
 2046TIP3    H227698   0.912   0.199   0.700 -0.3405 -0.5730  1.2298
 2047TIP3   OH227699   5.218   0.450   1.380  0.1228  0.4450  0.0346
 2047TIP3    H127700   5.219   0.413   1.469  0.4870  0.7378  0.1524
 2047TIP3    H227701   5.254   0.381   1.325 -0.7294  0.0051  0.0109
 2048TIP3   OH227702   5.265   5.150   0.508 -0.4904 -0.1328 -0.4840
 2048TIP3    H127703   5.173   5.167   0.531 -0.2576  0.8123 -0.1857
 2048TIP3    H227704   5.302   5.237   0.494  0.3453 -0.5118 -0.6784
 2049TIP3   OH227705   5.003   2.647   0.862 -0.2528  0.2589  0.5794
 2049TIP3    H127706   5.041   2.560   0.851 -0.8626  0.2579 -2.9690
 2049TIP3    H227707   5.033   2.677   0.948  3.8463 -1.5687  0.0092
 2050TIP3   OH227708   1.024   0.557   1.060 -0.2317 -0.2837  0.1123
 2050TIP3    H127709   0.989   0.522   0.979  0.8753 -0.1477 -0.4348
 2050TIP3    H227710   0.947   0.571   1.115 -0.8536 -1.7822 -0.3460
 2051TIP3   OH227711   0.401   0.962   8.639  0.3213 -0.3222  0.7259
 2051TIP3    H127712   0.465   0.952   8.568 -1.2866 -1.9147 -0.6130
 2051TIP3    H227713   0.365   1.050   8.628 -1.0535 -1.1009 -1.5317
 2052TIP3   OH227714   4.284   4.821   8.092 -0.0437 -0.9974 -0.0574
 2052TIP3    H127715   4.323   4.908   8.089 -0.4586 -0.8365 -1.3127
 2052TIP3    H227716   4.353   4.762   8.062  0.3076 -1.1354  1.0044
 2053TIP3   OH227717   3.020   6.079   0.900  0.3182  0.4631  0.1215
 2053TIP3    H127718   2.931   6.053   0.921  0.9839 -2.0616  0.1676
 2053TIP3    H227719   3.044   6.141   0.969 -0.3953 -1.2034  1.9582
 2054TIP3   OH227720   5.479   3.767   1.740  0.1683  0.0359 -0.1747
 2054TIP3    H127721   5.455   3.858   1.722  0.3584 -0.0898 -1.1171
 2054TIP3    H227722   5.500   3.766   1.834 -0.3403  0.8441 -0.0412
 2055TIP3   OH227723   1.790   4.457   0.133 -0.2952  0.6550 -0.6431
 2055TIP3    H127724   1.700   4.449   0.165  0.2270 -0.5703  0.6293
 2055TIP3    H227725   1.796   4.394   0.060 -0.4892  0.8089 -0.7920
 2056TIP3   OH227726   1.052   5.176   7.598 -0.3001 -0.0004 -0.0435
 2056TIP3    H127727   1.108   5.246   7.565  0.1611  0.9092  2.4446
 2056TIP3    H227728   0.971   5.221   7.624 -1.5272 -1.0212 -1.8629
 2057TIP3   OH227729   2.736   4.665   8.244 -0.2922 -0.9555 -0.0375
 2057TIP3    H127730   2.808   4.644   8.304 -0.8189 -1.3226  0.4760
 2057TIP3    H227731   2.688   4.735   8.288  0.1093 -0.2680 -0.6743
 2058TIP3   OH227732   6.199   3.658   8.175  0.1193 -0.4907  0.0689
 2058TIP3    H127733   6.119   3.616   8.207 -0.3403  0.7055  0.5389
 2058TIP3    H227734   6.236   3.595   8.113 -1.1156 -1.1120 -0.0675
 2059TIP3   OH227735   3.832   2.269   8.102  0.0632 -0.3879  0.0742
 2059TIP3    H127736   3.864   2.244   8.189  1.2287 -1.8293 -0.7213
 2059TIP3    H227737   3.899   2.330   8.069 -0.2671 -0.0149  0.0834
 2060TIP3   OH227738   5.714   3.208   6.913  0.0804  0.0334  0.2628
 2060TIP3    H127739   5.748   3.118   6.912 -2.4061 -0.9723 -0.5237
 2060TIP3    H227740   5.626   3.201   6.875 -0.5645  2.6634  1.0903
 2061TIP3   OH227741   5.383   6.231   1.726  0.2218 -0.0645  0.9407
 2061TIP3    H127742   5.391   6.252   1.819 -1.2233 -1.3235  1.3805
 2061TIP3    H227743   5.331   6.150   1.724 -3.0302  1.8685 -1.0944
 2062TIP3   OH227744   2.364   2.611   0.222 -0.7441  0.5967  0.1597
 2062TIP3    H127745   2.410   2.527   0.233  1.7275  1.7445 -0.7461
 2062TIP3    H227746   2.367   2.650   0.309 -4.2597 -1.2418  1.2891
 2063TIP3   OH227747   2.479   3.487   0.777 -0.0022 -0.1605 -0.3865
 2063TIP3    H127748   2.453   3.399   0.805 -0.7876  0.7233  1.8866
 2063TIP3    H227749   2.531   3.521   0.850 -0.6363  1.6453 -0.7249
 2064TIP3   OH227750   1.307   4.986   1.767  0.7956  0.5649 -0.3781
 2064TIP3    H127751   1.249   5.044   1.717  0.0460 -0.8998 -1.2861
 2064TIP3    H227752   1.254   4.908   1.784  2.3300 -0.6218 -0.7964
 2065TIP3   OH227753   0.018   1.902   2.457  0.1172 -0.2586 -0.9361
 2065TIP3    H127754   0.088   1.967   2.457  1.5359 -1.7373 -0.7770
 2065TIP3    H227755  -0.063   1.954   2.455  1.1715  1.5045 -3.2236
 2066TIP3   OH227756   1.109   6.158   2.462 -0.5894 -0.1900  0.3250
 2066TIP3    H127757   1.037   6.095   2.458 -1.5228  0.6433  2.2868
 2066TIP3    H227758   1.131   6.163   2.555  0.0336  1.6975  0.1238
 2067TIP3   OH227759   5.280   3.170   2.690  0.3301  0.6549  0.0016
 2067TIP3    H127760   5.234   3.135   2.767  3.2816 -1.7756  0.8725
 2067TIP3    H227761   5.278   3.099   2.626  3.6354 -0.0468  0.5078
 2068TIP3   OH227762   3.492   4.456   7.759 -0.0630 -0.4753  0.5358
 2068TIP3    H127763   3.415   4.465   7.815 -0.1781 -0.6464  0.4063
 2068TIP3    H227764   3.490   4.365   7.730  0.4691 -0.6250  0.9406
 2069TIP3   OH227765   0.617   5.758   1.094  0.5965  0.3697 -0.1271
 2069TIP3    H127766   0.674   5.681   1.097  1.9112  1.2551 -1.4579
 2069TIP3    H227767   0.538   5.731   1.141  0.6377 -2.1099 -1.3429
 2070TIP3   OH227768   5.494   3.583   8.326 -0.5917 -0.1277  0.2336
 2070TIP3    H127769   5.497   3.590   8.422 -0.6281 -1.3891  0.3377
 2070TIP3    H227770   5.584   3.596   8.298 -0.8241  1.9757  0.2776
 2071TIP3   OH227771   2.484   3.557   7.565 -0.4509  0.3270 -0.4298
 2071TIP3    H127772   2.579   3.570   7.567 -0.3735 -0.2243  1.4499
 2071TIP3    H227773   2.473   3.462   7.565 -0.9791  0.3646  1.0788
 2072TIP3   OH227774   2.191   4.259   2.206  0.4366 -0.3977  0.3355
 2072TIP3    H127775   2.137   4.325   2.163 -1.9680 -1.2966  1.7536
 2072TIP3    H227776   2.147   4.176   2.188  0.3767 -0.9966  2.8717
 2073TIP3   OH227777   1.790   4.227   0.760 -0.3887 -0.2172 -0.0203
 2073TIP3    H127778   1.796   4.173   0.839  1.6143 -0.7733 -0.4738
 2073TIP3    H227779   1.791   4.164   0.688 -2.9425  0.2425 -0.5512
 2074TIP3   OH227780   4.919   3.419   0.740  0.4302  0.0510  0.1200
 2074TIP3    H127781   4.894   3.329   0.719 -2.4825  0.8190 -0.1730
 2074TIP3    H227782   4.874   3.472   0.674  0.7321  1.7998  1.2563
 2075TIP3   OH227783   6.440   5.569   1.698  0.2324  0.2829  0.2250
 2075TIP3    H127784   6.348   5.552   1.677 -0.5707  1.8241  2.1991
 2075TIP3    H227785   6.447   5.665   1.695  1.2219  0.3036  2.1583
 2076TIP3   OH227786   6.825   6.805   1.349 -0.1460 -0.3367  0.4362
 2076TIP3    H127787   6.752   6.831   1.406 -2.1606 -0.5465 -1.8991
 2076TIP3    H227788   6.891   6.873   1.362 -0.8978  0.1049  2.3061
 2077TIP3   OH227789   1.297   6.372   1.242  0.1852 -0.2209  0.2545
 2077TIP3    H127790   1.317   6.300   1.183  0.7247 -0.8951  1.2309
 2077TIP3    H227791   1.372   6.431   1.235  0.0011 -0.0305 -0.1264
 2078TIP3   OH227792   5.723   4.237   0.896  0.1679 -0.1215 -0.4335
 2078TIP3    H127793   5.709   4.262   0.988 -0.1668  1.4650 -0.8913
 2078TIP3    H227794   5.637   4.209   0.866  0.3434 -0.9581 -0.1953
 2079TIP3   OH227795   4.928   2.354   8.407 -0.6830 -0.1352  0.5979
 2079TIP3    H127796   4.935   2.368   8.501 -1.2493  0.9673  0.4887
 2079TIP3    H227797   4.944   2.261   8.395  1.6460  0.0735  1.5649
 2080TIP3   OH227798   1.026   1.860   7.075 -0.2443 -0.1908  0.2981
 2080TIP3    H127799   1.040   1.942   7.027 -1.9826 -1.1880 -2.1251
 2080TIP3    H227800   1.091   1.862   7.145  0.3177  2.8541 -0.1715
 2081TIP3   OH227801   2.264   5.928   1.542 -0.3363  0.3856  0.9199
 2081TIP3    H127802   2.182   5.970   1.516 -0.4105 -0.5489 -0.4199
 2081TIP3    H227803   2.241   5.836   1.557  0.5915 -0.0694 -0.2644
 2082TIP3   OH227804   3.832   1.493   1.127 -0.0021 -0.1859  0.1184
 2082TIP3    H127805   3.853   1.417   1.073 -0.0880 -1.6787  2.0632
 2082TIP3    H227806   3.754   1.531   1.088  0.9576 -0.0943 -1.8268
 2083TIP3   OH227807   0.291   0.776   8.395  0.1244  0.4100 -0.0147
 2083TIP3    H127808   0.300   0.800   8.487  0.4564 -0.0724  0.0819
 2083TIP3    H227809   0.213   0.823   8.365 -2.2448 -2.2498  1.4975
 2084TIP3   OH227810   3.727   5.552   0.329  0.2515  0.6681  0.0237
 2084TIP3    H127811   3.755   5.512   0.247  0.8538  1.7053 -0.3056
 2084TIP3    H227812   3.802   5.541   0.388  0.0422  0.4308  0.2422
 2085TIP3   OH227813   3.588   3.596   1.926  0.1413  0.0988  0.7747
 2085TIP3    H127814   3.645   3.639   1.989 -0.2272  0.9187  0.5572
 2085TIP3    H227815   3.613   3.633   1.841 -0.5081  0.2464  0.6418
 2086TIP3   OH227816   5.043   4.155   1.996  0.1429  0.5646  0.0060
 2086TIP3    H127817   5.008   4.204   2.070 -0.5380 -0.8723  0.6857
 2086TIP3    H227818   4.967   4.133   1.943  0.2587 -0.6455  0.2974
 2087TIP3   OH227819   3.054   4.898   7.904  0.4533 -0.6846  0.0934
 2087TIP3    H127820   3.085   4.932   7.820  0.6423 -0.1329  0.3791
 2087TIP3    H227821   3.111   4.823   7.922  0.1265 -1.0681 -0.4788
 2088TIP3   OH227822   5.163   1.876   2.387  0.6673 -0.0175  0.2948
 2088TIP3    H127823   5.248   1.886   2.430  0.6959 -0.3973  0.3352
 2088TIP3    H227824   5.113   1.819   2.446  0.1173  0.7963  0.6380
 2089TIP3   OH227825   3.651   6.438   0.904  0.3041  0.1550 -0.5794
 2089TIP3    H127826   3.689   6.477   0.983 -0.4049 -0.2593 -0.0249
 2089TIP3    H227827   3.567   6.401   0.932 -0.1235  0.2982 -1.6003
 2090TIP3   OH227828   4.016   0.715   7.508 -0.2726  0.5754 -0.0327
 2090TIP3    H127829   4.019   0.694   7.601  1.1155  0.0677 -0.1689
 2090TIP3    H227830   3.940   0.666   7.475  0.7741 -1.3887  0.3556
 2091TIP3   OH227831   0.942   3.673   6.679  0.1003 -0.0480 -0.1193
 2091TIP3    H127832   1.005   3.603   6.664 -0.4874 -0.7907  0.7953
 2091TIP3    H227833   0.995   3.753   6.678  0.9177 -0.5805 -0.2626
 2092TIP3   OH227834   2.909   1.621   1.258  0.3107 -0.1575 -0.1156
 2092TIP3    H127835   2.839   1.684   1.243 -2.0970 -3.1087 -2.2063
 2092TIP3    H227836   2.955   1.655   1.336 -3.1414  2.1445  1.1347
 2093TIP3   OH227837   3.539   2.454   7.497 -0.1016 -0.0146 -0.3817
 2093TIP3    H127838   3.537   2.530   7.439 -0.5087  1.6105  1.6471
 2093TIP3    H227839   3.463   2.403   7.472  0.5264 -0.1458 -2.2047
 2094TIP3   OH227840   4.928   5.894   0.517  0.4129 -0.0800 -0.2058
 2094TIP3    H127841   5.003   5.844   0.549 -0.6293 -0.6576  1.5134
 2094TIP3    H227842   4.919   5.966   0.580 -1.1125 -0.6691  0.3048
 2095TIP3   OH227843   6.354   5.272   7.871  0.1834 -0.2499  0.1727
 2095TIP3    H127844   6.324   5.299   7.784 -0.8249 -0.1583  0.5386
 2095TIP3    H227845   6.449   5.282   7.868  0.0917  0.4073 -0.6929
 2096TIP3   OH227846   4.440   1.811   1.497 -0.1968  0.1029  0.5266
 2096TIP3    H127847   4.514   1.803   1.437 -1.0677  0.2982 -0.6060
 2096TIP3    H227848   4.477   1.852   1.575  1.6002 -2.8116  1.3580
 2097TIP3   OH227849   2.624   0.034   2.469 -0.4439 -0.2513  0.7570
 2097TIP3    H127850   2.677  -0.043   2.451 -1.7640 -1.4106  1.6097
 2097TIP3    H227851   2.556   0.033   2.401  0.3539  1.0052 -0.1014
 2098TIP3   OH227852   6.417   3.845   8.562 -0.3926 -0.1362 -0.4830
 2098TIP3    H127853   6.479   3.797   8.618 -1.2264 -0.2792  0.3656
 2098TIP3    H227854   6.451   3.934   8.558 -0.4045 -0.0826  0.4125
 2099TIP3   OH227855   6.787   5.220   1.055 -0.1910  0.4237 -0.2648
 2099TIP3    H127856   6.786   5.194   1.148  1.5532  0.8853 -0.0792
 2099TIP3    H227857   6.870   5.185   1.022  0.1427  1.9430 -1.1272
 2100TIP3   OH227858   1.777   5.718   8.179 -0.0108 -0.7017 -0.5317
 2100TIP3    H127859   1.743   5.671   8.103 -1.6045  0.4544 -0.5783
 2100TIP3    H227860   1.714   5.699   8.249  0.3278 -0.1353 -0.0626
 2101TIP3   OH227861   2.223   6.721   0.135 -0.0095  0.2423 -0.1391
 2101TIP3    H127862   2.271   6.650   0.093 -2.3450 -0.8877 -1.0533
 2101TIP3    H227863   2.221   6.697   0.228  1.0751  0.2999 -0.0779
 2102TIP3   OH227864   6.108   2.895   1.453 -0.4618 -0.0092  0.1988
 2102TIP3    H127865   6.013   2.886   1.443 -0.1459 -2.0495 -2.0609
 2102TIP3    H227866   6.143   2.811   1.423  2.0727  0.5770  1.2540
 2103TIP3   OH227867   3.064   2.838   7.575 -0.0936 -0.0583  0.3191
 2103TIP3    H127868   3.011   2.892   7.517  0.3082  1.3277  1.1792
 2103TIP3    H227869   3.152   2.844   7.540 -0.0449 -0.1602  0.4225
 2104TIP3   OH227870   0.561   5.285   3.067  0.5530  0.2699  0.3465
 2104TIP3    H127871   0.534   5.236   3.145 -1.6588  2.1968  0.9176
 2104TIP3    H227872   0.560   5.220   2.997 -0.9480 -0.8178  1.3002
 2105TIP3   OH227873   3.690   2.799   1.126  0.8619  0.5534  0.0531
 2105TIP3    H127874   3.612   2.855   1.127 -0.6112 -1.3656 -1.0878
 2105TIP3    H227875   3.693   2.760   1.213 -1.1703 -1.4949 -0.6956
 2106TIP3   OH227876   2.201   2.846   0.539 -0.0152  0.6363  0.2738
 2106TIP3    H127877   2.144   2.824   0.612 -2.2477 -1.5116 -1.9483
 2106TIP3    H227878   2.256   2.768   0.526  0.7373  1.1980 -0.0264
 2107TIP3   OH227879   1.265   1.048   7.724  0.2472  0.1412 -0.1800
 2107TIP3    H127880   1.231   1.131   7.692 -1.9737  0.1601  1.9320
 2107TIP3    H227881   1.199   0.984   7.698 -0.5209 -0.1577  2.2136
 2108TIP3   OH227882   3.962   3.632   2.343 -0.4067 -0.8809 -0.1115
 2108TIP3    H127883   3.899   3.695   2.378 -1.2706 -1.5995 -0.3236
 2108TIP3    H227884   3.985   3.577   2.418  0.3567 -0.3112  0.0768
 2109TIP3   OH227885   4.415   2.259   0.852 -0.1024  0.3177  0.4747
 2109TIP3    H127886   4.401   2.164   0.851  2.0685 -0.0652 -0.0464
 2109TIP3    H227887   4.347   2.294   0.794 -0.9381 -0.9071  0.6678
 2110TIP3   OH227888   2.322   3.705   0.698 -0.9733  0.3092 -0.0687
 2110TIP3    H127889   2.298   3.749   0.780 -2.1254 -2.1358  1.0213
 2110TIP3    H227890   2.396   3.650   0.722 -0.1250  0.9331 -1.1797
 2111TIP3   OH227891   1.657   1.061   1.504  0.0635 -0.2783  0.2780
 2111TIP3    H127892   1.734   1.036   1.453  0.1974  1.4697 -0.4444
 2111TIP3    H227893   1.673   1.025   1.591  1.6616 -0.0510  0.1050
 2112TIP3   OH227894   6.140   3.875   8.420  0.2288 -0.4533  0.2664
 2112TIP3    H127895   6.102   3.787   8.429 -0.1697 -0.4911 -1.4567
 2112TIP3    H227896   6.076   3.923   8.368  1.1009  0.4347 -0.0033
 2113TIP3   OH227897   0.112   1.329   8.267 -0.4389  0.2670 -0.1116
 2113TIP3    H127898   0.039   1.294   8.318  0.7400 -0.9255  0.8540
 2113TIP3    H227899   0.078   1.409   8.228 -1.8037  0.5572  1.5215
 2114TIP3   OH227900   5.236   3.680   1.675 -0.1415 -0.2716 -0.1333
 2114TIP3    H127901   5.248   3.626   1.596  1.4620 -0.1849  0.0237
 2114TIP3    H227902   5.324   3.701   1.703 -0.6891 -0.2814  1.6961
 2115TIP3   OH227903   2.125   0.350   8.027 -0.1993  0.1987  0.0254
 2115TIP3    H127904   2.127   0.376   8.119 -0.2229 -1.4148  0.5142
 2115TIP3    H227905   2.083   0.423   7.982  0.2175  1.2019  1.2233
 2116TIP3   OH227906   2.992   2.790   1.682 -0.4289 -0.0115  0.2737
 2116TIP3    H127907   3.000   2.867   1.739 -0.2253 -0.6575  1.1431
 2116TIP3    H227908   3.081   2.757   1.673 -0.5311 -0.2148  0.0054
 2117TIP3   OH227909   2.269   4.338   2.468 -0.0236 -0.0209 -0.0396
 2117TIP3    H127910   2.221   4.280   2.526  0.1502  0.3600  0.4938
 2117TIP3    H227911   2.253   4.304   2.380 -0.3879 -0.5275  0.2237
 2118TIP3   OH227912   2.238   1.585   0.848 -0.6536 -0.1693 -0.5278
 2118TIP3    H127913   2.281   1.584   0.762  2.0858 -0.8112  0.7437
 2118TIP3    H227914   2.275   1.661   0.892 -2.1848  0.2678  0.0805
 2119TIP3   OH227915   1.319   1.911   0.036  0.2860  0.7103 -0.3430
 2119TIP3    H127916   1.407   1.895   0.070  0.8884  0.1121 -2.0967
 2119TIP3    H227917   1.328   1.990  -0.018 -0.5679  1.4316  0.5418
 2120TIP3   OH227918   0.588   0.275   1.670  0.0976  0.0933  0.3373
 2120TIP3    H127919   0.614   0.189   1.705 -0.9393  0.1013  1.1843
 2120TIP3    H227920   0.670   0.321   1.657  0.6030 -0.5300  1.2075
 2121TIP3   OH227921   6.048   0.827   2.481  0.3278  0.0674  0.2553
 2121TIP3    H127922   6.085   0.762   2.541  1.9515  0.4440 -0.2920
 2121TIP3    H227923   5.990   0.880   2.536 -1.3466 -2.0329  0.6288
 2122TIP3   OH227924   1.500   4.269   2.208 -0.0539 -0.3794 -0.2541
 2122TIP3    H127925   1.515   4.234   2.296  1.1891 -0.4927 -0.4939
 2122TIP3    H227926   1.480   4.362   2.222  0.7585 -0.2513  0.1138
 2123TIP3   OH227927   0.571   6.219   2.019  0.3621 -0.2995 -0.3397
 2123TIP3    H127928   0.520   6.189   1.944 -0.5669  1.5297 -0.4797
 2123TIP3    H227929   0.632   6.283   1.983  0.2426  0.2393  0.3956
 2124TIP3   OH227930   1.424   6.104   0.546  0.0001  0.9532  0.4965
 2124TIP3    H127931   1.422   6.074   0.637  0.3787 -2.2674 -0.4371
 2124TIP3    H227932   1.516   6.096   0.521  0.0796  2.8361  0.1013
 2125TIP3   OH227933   4.502   5.497   0.763  0.3917  0.0657  0.7478
 2125TIP3    H127934   4.433   5.500   0.829 -1.0874 -1.8310 -0.6240
 2125TIP3    H227935   4.583   5.505   0.813 -0.6770 -0.9630  2.7751
 2126TIP3   OH227936   3.549   3.914   6.975  0.7310 -0.0852 -0.1814
 2126TIP3    H127937   3.587   3.868   6.900  0.3349  0.2200 -0.5806
 2126TIP3    H227938   3.561   4.007   6.953  0.6490  0.0049  0.1572
 2127TIP3   OH227939   2.712   6.810   7.433  0.3588 -0.1056  0.2878
 2127TIP3    H127940   2.648   6.755   7.388  1.3276 -1.9509  1.0427
 2127TIP3    H227941   2.755   6.751   7.495  0.9335  1.7219  1.7107
 2128TIP3   OH227942   4.100   3.567   7.094  0.1743 -0.2427 -0.3450
 2128TIP3    H127943   4.061   3.652   7.074 -0.5801 -0.0900  1.5164
 2128TIP3    H227944   4.031   3.504   7.075  0.6959 -0.4433 -1.6178
 2129TIP3   OH227945   5.575   0.055   2.226  0.0861  0.2154 -0.3018
 2129TIP3    H127946   5.590   0.061   2.132  0.9373 -1.1995 -0.2943
 2129TIP3    H227947   5.524   0.133   2.248  2.7865  2.4119 -1.3331
 2130TIP3   OH227948   3.520   1.095   0.989 -0.0143  0.2893  0.1507
 2130TIP3    H127949   3.564   1.127   1.068  0.9767  1.0603 -0.6871
 2130TIP3    H227950   3.589   1.054   0.938 -0.5852  0.0808 -0.4654
 2131TIP3   OH227951   4.272   6.424   8.642 -0.3613  0.0472  0.0827
 2131TIP3    H127952   4.211   6.495   8.623 -0.1936  0.3230  0.5625
 2131TIP3    H227953   4.253   6.357   8.576 -1.2570  0.0807  0.2922
 2132TIP3   OH227954   6.344   2.533   7.129  0.3158 -0.6270  0.2408
 2132TIP3    H127955   6.407   2.461   7.133 -1.2482 -2.2917 -2.0658
 2132TIP3    H227956   6.387   2.599   7.074  0.5034 -1.2817 -0.4215
 2133TIP3   OH227957   2.377   4.070   1.797  0.2954 -0.2169  0.0005
 2133TIP3    H127958   2.326   4.142   1.835  0.3610  0.8292 -1.7536
 2133TIP3    H227959   2.464   4.079   1.835 -0.1651 -0.4918  1.1491
 2134TIP3   OH227960   4.354   6.790   2.606  0.1768 -0.3678  0.2741
 2134TIP3    H127961   4.434   6.743   2.631  1.4044  1.5609  0.1719
 2134TIP3    H227962   4.346   6.774   2.512  0.4627 -0.5160  0.2722
 2135TIP3   OH227963   4.093   0.396   0.654  0.1243 -0.2477 -0.0353
 2135TIP3    H127964   4.134   0.403   0.741  1.3261 -0.8811 -0.5350
 2135TIP3    H227965   4.000   0.382   0.673  0.6993 -3.0622  1.2304
 2136TIP3   OH227966   5.256   3.222   7.583 -0.3455  0.3861 -0.2886
 2136TIP3    H127967   5.311   3.183   7.652 -0.6099 -3.2825 -1.9250
 2136TIP3    H227968   5.295   3.190   7.501 -1.1998  3.0102 -1.8158
 2137TIP3   OH227969   0.734   4.791   8.455  0.0448  0.0398 -0.5917
 2137TIP3    H127970   0.776   4.816   8.538 -1.6822  0.1681  0.2829
 2137TIP3    H227971   0.761   4.700   8.441 -0.1625 -0.2020  0.4689
 2138TIP3   OH227972   5.666   1.101   2.528  0.1003  0.5612 -0.0853
 2138TIP3    H127973   5.714   1.121   2.608  0.5726 -0.4429 -0.1010
 2138TIP3    H227974   5.616   1.181   2.509  0.6916  1.1306  0.6950
 2139TIP3   OH227975   1.466   5.994   8.149 -0.3812 -0.5080 -0.1453
 2139TIP3    H127976   1.418   5.943   8.083 -3.1738  3.4572 -1.5593
 2139TIP3    H227977   1.518   6.056   8.098  2.2250 -1.1685  1.4993
 2140TIP3   OH227978   5.719   4.758   0.097 -0.0304  0.4137 -0.1048
 2140TIP3    H127979   5.672   4.813   0.161  0.2107  1.3453 -0.7108
 2140TIP3    H227980   5.713   4.670   0.133 -0.1715  0.8742  1.0499
 2141TIP3   OH227981   3.382   4.237   6.546  0.2274 -0.0094 -0.5864
 2141TIP3    H127982   3.439   4.276   6.479  1.2883  0.0132  0.3041
 2141TIP3    H227983   3.421   4.264   6.629 -2.3192  1.8266  0.1206
 2142TIP3   OH227984   2.369   5.416   2.415  0.2806  0.0479  0.0132
 2142TIP3    H127985   2.457   5.378   2.420  0.6254  0.9343  0.9807
 2142TIP3    H227986   2.371   5.471   2.337  1.0902  1.2329  0.8256
 2143TIP3   OH227987   6.570   3.394   0.887  0.5773 -0.3011 -0.1700
 2143TIP3    H127988   6.646   3.395   0.945 -0.1098 -0.2894  0.7462
 2143TIP3    H227989   6.494   3.397   0.946 -0.1309  0.7142 -1.0998
 2144TIP3   OH227990   3.913   0.834   2.583 -0.0832 -0.0870  0.9347
 2144TIP3    H127991   3.842   0.820   2.520  0.9204 -0.4208 -0.1665
 2144TIP3    H227992   3.884   0.789   2.662 -0.3522 -1.7503 -0.0576
 2145TIP3   OH227993   4.281   2.685   7.590 -0.1266  0.7117  0.3335
 2145TIP3    H127994   4.257   2.599   7.624 -2.6072  1.1353 -0.1668
 2145TIP3    H227995   4.266   2.745   7.663 -0.0508  0.9418  0.1608
 2146TIP3   OH227996   0.766   1.502   0.708  0.2574 -0.4371  0.1493
 2146TIP3    H127997   0.792   1.485   0.799  1.3490  0.0867 -0.0572
 2146TIP3    H227998   0.728   1.419   0.679  0.5848 -0.8470  0.8487
 2147TIP3   OH227999   0.351   1.353   2.678 -0.3748 -0.0987 -0.0979
 2147TIP3    H128000   0.281   1.378   2.617 -1.0677 -0.1164  0.6654
 2147TIP3    H228001   0.348   1.420   2.747 -0.5183 -0.8161  0.6172
 2148TIP3   OH228002   0.996   4.471   1.872  0.3849  0.3094  0.2244
 2148TIP3    H128003   0.991   4.393   1.817  0.1466 -0.3474  1.1667
 2148TIP3    H228004   1.090   4.492   1.876  0.8179 -1.6500  2.3013
 2149TIP3   OH228005   6.128   3.810   2.746  0.2424  0.0056  0.0720
 2149TIP3    H128006   6.212   3.856   2.741  0.4052 -0.1637  1.1257
 2149TIP3    H228007   6.119   3.785   2.838 -1.5900  1.1598  0.2522
 2150TIP3   OH228008   6.207   4.377   8.597  0.1845  0.3615 -0.0635
 2150TIP3    H128009   6.289   4.371   8.645  0.1266 -0.0759 -0.0183
 2150TIP3    H228010   6.185   4.287   8.575 -1.3289  0.2329  1.6947
 2151TIP3   OH228011   4.733   1.807   7.804  0.2454 -0.1165  0.0237
 2151TIP3    H128012   4.817   1.828   7.843  0.0319 -2.0209  1.6639
 2151TIP3    H228013   4.683   1.766   7.875 -1.9098  0.5200 -1.0249
 2152TIP3   OH228014   5.648   5.649   0.108 -0.1055  0.7790  0.3857
 2152TIP3    H128015   5.683   5.686   0.189 -0.0357  0.7025  0.3910
 2152TIP3    H228016   5.722   5.650   0.047 -0.0861  0.5894  0.4064
 2153TIP3   OH228017   5.459   1.802   7.967  0.3054  0.0763 -0.3143
 2153TIP3    H128018   5.445   1.819   7.874  1.2615  1.2100 -0.2616
 2153TIP3    H228019   5.549   1.768   7.972  0.6489  1.0596  0.3095
 2154TIP3   OH228020   1.467   3.530   0.318  0.3315  0.0447 -0.0720
 2154TIP3    H128021   1.404   3.550   0.387  0.5985  1.6898 -0.2526
 2154TIP3    H228022   1.547   3.577   0.345  1.1041 -1.0220 -0.4434
 2155TIP3   OH228023   3.955   2.801   7.421  0.0478  0.1059  0.0484
 2155TIP3    H128024   4.010   2.740   7.471  1.5157  0.4938 -1.0121
 2155TIP3    H228025   3.935   2.871   7.483  2.5682  1.0290 -0.0371
 2156TIP3   OH228026   3.551   6.354   2.095 -0.3834  0.1062 -0.3206
 2156TIP3    H128027   3.615   6.376   2.163 -0.3647  0.8540 -0.5811
 2156TIP3    H228028   3.532   6.437   2.052 -1.9777  0.0067  0.1359
 2157TIP3   OH228029   0.153   1.520   7.985 -0.1103  0.3224 -0.2942
 2157TIP3    H128030   0.132   1.561   7.901 -1.7443 -3.0373 -1.7153
 2157TIP3    H228031   0.069   1.519   8.032 -0.6096 -2.7034 -1.0512
 2158TIP3   OH228032   3.989   0.579   8.294  0.5465  0.0226  0.2650
 2158TIP3    H128033   3.907   0.622   8.267  0.9594 -0.1149 -1.2758
 2158TIP3    H228034   4.054   0.649   8.294  0.6230 -0.0440  0.6305
 2159TIP3   OH228035   0.375   5.852   8.373  0.0741 -0.1879 -0.2692
 2159TIP3    H128036   0.398   5.832   8.282 -0.7011 -2.1609 -0.0798
 2159TIP3    H228037   0.415   5.782   8.424 -0.6370  0.1443  0.7715
 2160TIP3   OH228038   3.574   4.057   8.559 -0.3275  0.9706  0.2025
 2160TIP3    H128039   3.641   4.060   8.491 -1.5216 -0.9221 -1.1768
 2160TIP3    H228040   3.503   4.112   8.524 -0.9183  0.0436 -0.0872
 2161TIP3   OH228041   5.054   6.148   2.720 -0.1512  1.1427 -0.6709
 2161TIP3    H128042   4.985   6.213   2.704 -1.1014  0.5041  0.6642
 2161TIP3    H228043   5.030   6.073   2.667 -0.7962  0.7163  0.2157
 2162TIP3   OH228044   2.509   2.932   7.515  0.1090  0.3508  0.2686
 2162TIP3    H128045   2.535   2.979   7.595 -1.3195 -0.0343  0.9867
 2162TIP3    H228046   2.591   2.919   7.468  0.9921  0.5926  1.6682
 2163TIP3   OH228047   0.682   5.079   8.473  0.2828  0.2341  0.0345
 2163TIP3    H128048   0.763   5.052   8.516  0.1539 -0.2236  0.0014
 2163TIP3    H228049   0.654   5.001   8.425  0.0180  0.5027 -0.2503
 2164TIP3   OH228050   3.608   6.601   1.488  0.1167 -0.0211 -0.4931
 2164TIP3    H128051   3.566   6.644   1.562  0.0478 -3.2561  1.5562
 2164TIP3    H228052   3.688   6.564   1.524 -0.3547 -2.4626 -1.6925
 2165TIP3   OH228053   5.500   4.527   2.214 -0.4814  0.8203  0.7263
 2165TIP3    H128054   5.514   4.539   2.307 -0.2483 -0.0588  0.8160
 2165TIP3    H228055   5.588   4.520   2.177 -0.5778  0.7847  0.4981
 2166TIP3   OH228056   2.303   2.282   2.140  0.1053 -0.0790 -0.1530
 2166TIP3    H128057   2.299   2.343   2.213  1.1093 -1.0838  0.7775
 2166TIP3    H228058   2.376   2.315   2.086 -0.0766  0.1735 -0.2448
 2167TIP3   OH228059   3.507   0.754   2.388  0.1070  0.0801 -0.6157
 2167TIP3    H128060   3.417   0.784   2.403  0.5714  2.2798 -1.8248
 2167TIP3    H228061   3.537   0.726   2.474 -1.9468 -1.4272 -0.3061
 2168TIP3   OH228062   0.337   6.268   1.650  0.5913  0.2024  0.0108
 2168TIP3    H128063   0.243   6.273   1.630  0.8497  1.6983 -0.9587
 2168TIP3    H228064   0.378   6.325   1.586  1.9293  1.6531  2.0611
 2169TIP3   OH228065   1.660   4.566   6.836 -0.2787  0.3297 -0.0302
 2169TIP3    H128066   1.750   4.597   6.852 -0.5219  1.2619 -0.4243
 2169TIP3    H228067   1.648   4.573   6.742 -0.4178 -0.7948 -0.1042
 2170TIP3   OH228068   2.244   1.817   1.745  0.3298 -0.2052 -0.1801
 2170TIP3    H128069   2.185   1.765   1.690 -0.3533  0.1779  0.1725
 2170TIP3    H228070   2.234   1.906   1.712 -0.5833  0.1376  0.9738
 2171TIP3   OH228071   0.258   5.535   8.486  0.4023 -0.4010  0.1289
 2171TIP3    H128072   0.196   5.463   8.474 -0.0034 -0.3985  1.8847
 2171TIP3    H228073   0.288   5.557   8.398 -3.5988  0.9148 -1.1137
 2172TIP3   OH228074   6.728   1.372   0.536  0.6522  0.1878 -0.2252
 2172TIP3    H128075   6.810   1.405   0.574 -0.3470  2.7814 -0.1086
 2172TIP3    H228076   6.673   1.354   0.612  0.3488  0.6238 -0.3400
 2173TIP3   OH228077   5.670   1.655   0.883  0.1568  0.6780 -0.0684
 2173TIP3    H128078   5.738   1.645   0.950  1.8858  2.5981 -1.4001
 2173TIP3    H228079   5.637   1.566   0.870  0.4668  0.0882  2.5602
 2174TIP3   OH228080   2.802   6.276   2.704  0.0289 -0.7070  0.8123
 2174TIP3    H128081   2.856   6.211   2.749 -0.8558 -3.0991 -1.2836
 2174TIP3    H228082   2.713   6.257   2.733 -0.1681  0.0983  0.7491
 2175TIP3   OH228083   0.826   6.007   7.606 -0.1528  0.1148 -0.2870
 2175TIP3    H128084   0.763   6.038   7.540  0.0058  0.9168 -0.0725
 2175TIP3    H228085   0.819   6.070   7.677 -1.7342 -1.8142  1.3605
 2176TIP3   OH228086   3.147   3.319   2.384 -0.0779  0.4078 -0.2067
 2176TIP3    H128087   3.116   3.400   2.343 -2.1385  0.4851  1.3443
 2176TIP3    H228088   3.143   3.254   2.314 -1.6222  0.9528 -0.6723
 2177TIP3   OH228089   4.317   6.206   0.340 -0.0558  0.3329  0.4193
 2177TIP3    H128090   4.253   6.278   0.339 -1.0819 -0.5283  0.9630
 2177TIP3    H228091   4.342   6.198   0.432  0.5453  0.3963  0.2657
 2178TIP3   OH228092   6.178   3.771   1.871  0.1137  0.4083  0.2077
 2178TIP3    H128093   6.105   3.715   1.845  0.8924  0.1484 -1.5657
 2178TIP3    H228094   6.250   3.710   1.887  0.2871  0.7512  0.7917
 2179TIP3   OH228095   6.471   0.662   8.160 -0.1368 -0.3697  0.5517
 2179TIP3    H128096   6.447   0.587   8.215 -2.0506  1.0786  1.8557
 2179TIP3    H228097   6.417   0.653   8.081 -1.4368  0.2716  1.3141
 2180TIP3   OH228098   4.776   0.660   2.171 -0.2833 -0.1077 -0.6382
 2180TIP3    H128099   4.814   0.680   2.257 -0.7394  1.7845 -0.8379
 2180TIP3    H228100   4.720   0.585   2.186 -0.0273 -0.0624  0.6330
 2181TIP3   OH228101   5.685   4.945   8.048 -0.1849  0.7302 -0.6811
 2181TIP3    H128102   5.593   4.967   8.064 -0.5846 -1.5051  0.4570
 2181TIP3    H228103   5.686   4.850   8.041  2.5203  0.2511  3.1042
 2182TIP3   OH228104   3.212   5.333   7.470 -0.1232 -0.8659 -0.1313
 2182TIP3    H128105   3.131   5.282   7.468 -1.0506  0.5453 -0.0906
 2182TIP3    H228106   3.190   5.414   7.423  0.5819  0.4991  1.7649
 2183TIP3   OH228107   6.428   1.525   7.955  0.4824  0.4758  0.0644
 2183TIP3    H128108   6.482   1.543   8.032 -0.3934  1.0971  0.5523
 2183TIP3    H228109   6.342   1.562   7.976  0.5572  1.8582 -1.7143
 2184TIP3   OH228110   2.245   0.701   8.195  0.1213 -0.4741  0.6459
 2184TIP3    H128111   2.257   0.693   8.290  0.2291 -0.0050  0.6776
 2184TIP3    H228112   2.300   0.633   8.158 -0.2525 -0.9445  0.9340
 2185TIP3   OH228113   0.214   5.361   1.979  0.4921 -0.1035  0.4928
 2185TIP3    H128114   0.194   5.376   1.887 -0.0441 -0.0587  0.6129
 2185TIP3    H228115   0.289   5.417   1.997 -0.9146  1.8061  0.7010
 2186TIP3   OH228116   4.639   0.340   7.611 -0.3938 -0.2585  0.1474
 2186TIP3    H128117   4.610   0.401   7.543 -1.5612  0.4572  1.2267
 2186TIP3    H228118   4.706   0.388   7.659  1.8737 -1.4645 -1.5862
 2187TIP3   OH228119   3.420   2.754   1.133  0.4851  0.3413 -0.3928
 2187TIP3    H128120   3.435   2.673   1.181 -0.8422  0.4097  0.1920
 2187TIP3    H228121   3.430   2.730   1.041  0.0812 -0.4935 -0.2272
 2188TIP3   OH228122   4.016   2.826   0.072 -0.2714 -0.2635 -0.6645
 2188TIP3    H128123   4.017   2.730   0.081  1.4722 -0.3023 -0.9228
 2188TIP3    H228124   4.039   2.841  -0.020  3.0342  0.4052  0.1479
 2189TIP3   OH228125   3.059   6.465   2.016  0.0757 -0.6097  0.1270
 2189TIP3    H128126   3.122   6.441   1.948  0.1602  0.1314 -0.0699
 2189TIP3    H228127   3.039   6.557   1.998  0.9678 -0.0449  1.7722
 2190TIP3   OH228128   5.421   1.867   2.483  0.7023 -0.2627  0.1532
 2190TIP3    H128129   5.446   1.926   2.554  0.3263  2.3267 -1.7207
 2190TIP3    H228130   5.500   1.816   2.466  0.5406 -1.6261  2.9355
 2191TIP3   OH228131   0.194   5.025   2.338 -0.2154 -0.3594 -0.2345
 2191TIP3    H128132   0.146   5.035   2.256 -1.1131 -0.0712  0.3046
 2191TIP3    H228133   0.167   4.939   2.371  0.7089 -0.7964 -0.5887
 2192TIP3   OH228134   4.615   3.719   8.572 -0.1141 -0.5591 -0.7376
 2192TIP3    H128135   4.602   3.698   8.479  1.3195 -1.0215 -0.8570
 2192TIP3    H228136   4.540   3.775   8.594 -0.3356 -0.1975 -2.2537
 2193TIP3   OH228137   3.563   1.419   7.318  0.6884 -0.3348  0.2672
 2193TIP3    H128138   3.566   1.449   7.409  1.9054  0.5723 -0.0367
 2193TIP3    H228139   3.648   1.444   7.282 -0.3281  0.7340 -1.5468
 2194TIP3   OH228140   2.401   5.487   1.188 -0.5462 -0.0171  0.6242
 2194TIP3    H128141   2.371   5.554   1.249  1.5380  0.0334  1.6922
 2194TIP3    H228142   2.441   5.420   1.243 -0.0788 -0.7694 -0.5759
 2195TIP3   OH228143   0.360   6.409   8.586  0.2837 -0.3243  0.2460
 2195TIP3    H128144   0.364   6.321   8.550  2.7712 -0.0321 -0.3527
 2195TIP3    H228145   0.426   6.458   8.537  0.8073  1.1811  2.3342
 2196TIP3   OH228146   1.792   6.718   8.198 -0.3063 -0.1477  0.3442
 2196TIP3    H128147   1.874   6.730   8.245  0.8692  1.0328 -1.8907
 2196TIP3    H228148   1.725   6.744   8.262  1.1512  0.6392  1.6219
 2197TIP3   OH228149   6.289   6.475   1.350  0.1660 -0.4448  0.3461
 2197TIP3    H128150   6.345   6.469   1.428  1.1876 -1.9152 -0.4583
 2197TIP3    H228151   6.211   6.425   1.373  0.7681 -1.4720  0.1967
 2198TIP3   OH228152   4.830   6.870   2.495 -0.1662 -0.6451 -0.5374
 2198TIP3    H128153   4.832   6.897   2.587  1.0168  1.2232 -1.0580
 2198TIP3    H228154   4.865   6.781   2.495  0.1068 -0.5498  0.7886
 2199TIP3   OH228155   1.372   2.123   0.709 -0.2209 -0.1169 -0.1889
 2199TIP3    H128156   1.300   2.068   0.738 -0.0724 -0.3878 -0.3234
 2199TIP3    H228157   1.437   2.118   0.779 -0.9405  1.3246  0.6270
 2200TIP3   OH228158   1.860   4.957   2.835 -0.2253 -0.0306 -0.5259
 2200TIP3    H128159   1.840   4.871   2.798  0.2442 -0.1938 -0.3955
 2200TIP3    H228160   1.777   4.985   2.874  0.2531 -1.6436  1.8951
 2201TIP3   OH228161   3.159   4.490   2.743  0.8111 -0.3728 -0.0836
 2201TIP3    H128162   3.171   4.582   2.763 -1.0652 -0.2864  0.9033
 2201TIP3    H228163   3.232   4.446   2.788 -0.3476  0.3319  2.7529
 2202TIP3   OH228164   6.610   1.954   0.483 -0.9432 -0.3523 -0.2638
 2202TIP3    H128165   6.623   1.868   0.523 -0.2768 -0.4044 -0.5849
 2202TIP3    H228166   6.695   1.976   0.445 -1.1796  0.3364 -0.4049
 2203TIP3   OH228167   5.878   2.569   0.107 -0.0134  0.2806 -0.2700
 2203TIP3    H128168   5.953   2.592   0.052 -0.2160 -0.9178 -1.0701
 2203TIP3    H228169   5.818   2.643   0.099  0.4290  0.5865 -0.8099
 2204TIP3   OH228170   3.046   6.062   0.628 -0.0509  0.4903 -0.2267
 2204TIP3    H128171   3.007   6.139   0.586 -1.2892 -0.5146 -0.9802
 2204TIP3    H228172   3.036   6.079   0.721 -0.3549  1.2168 -0.3792
 2205TIP3   OH228173   5.477   0.979   1.480 -0.0156 -0.2408 -0.5796
 2205TIP3    H128174   5.494   1.060   1.433 -1.1631  0.7710  0.6771
 2205TIP3    H228175   5.554   0.925   1.463  2.2228  2.2455  0.9148
 2206TIP3   OH228176   0.476   5.776   2.247  0.4617  0.8991  0.0817
 2206TIP3    H128177   0.458   5.867   2.222 -0.1581  0.6314 -0.4895
 2206TIP3    H228178   0.571   5.769   2.246  0.4957  1.3407 -0.6148
 2207TIP3   OH228179   0.708   6.090   0.643  0.7128  0.1351  0.0405
 2207TIP3    H128180   0.768   6.031   0.598 -1.0407 -1.2906 -0.5947
 2207TIP3    H228181   0.760   6.131   0.712  2.9026  0.6030 -1.7853
 2208TIP3   OH228182   1.978   4.329   6.883  0.4265 -0.2187  0.6037
 2208TIP3    H128183   2.062   4.369   6.907  0.8835 -1.1411  0.5746
 2208TIP3    H228184   1.990   4.300   6.793 -0.2031  0.3551  0.3267
 2209TIP3   OH228185   5.694   4.341   1.557  0.0200  0.0861 -0.3219
 2209TIP3    H128186   5.732   4.270   1.609  0.5098  1.2748  1.0084
 2209TIP3    H228187   5.615   4.365   1.605  0.8379  1.6616  0.2848
 2210TIP3   OH228188   6.867   0.507   0.243  0.7528  0.2363 -0.7040
 2210TIP3    H128189   6.883   0.585   0.296  0.0410  0.8376 -1.3528
 2210TIP3    H228190   6.783   0.473   0.273  0.5245  0.3668 -1.1794
 2211TIP3   OH228191   3.666   4.583   8.347 -0.0309 -0.2922 -0.1862
 2211TIP3    H128192   3.748   4.577   8.395 -0.0143  0.7209 -0.0666
 2211TIP3    H228193   3.603   4.618   8.410 -0.1587  0.4615 -0.7141
 2212TIP3   OH228194   3.940   3.202   0.532  0.1343  0.5946  0.4479
 2212TIP3    H128195   3.867   3.201   0.594 -1.7207  0.2585 -1.6536
 2212TIP3    H228196   4.002   3.264   0.570 -2.6805  3.5096  0.7521
 2213TIP3   OH228197   1.848   5.763   7.405  0.1893  0.1101 -0.1512
 2213TIP3    H128198   1.864   5.850   7.443  1.5203 -0.0589 -0.2830
 2213TIP3    H228199   1.934   5.734   7.374 -0.1615 -1.4126  0.2073
 2214TIP3   OH228200   2.391   1.864   7.050  0.0343 -0.3549  0.2130
 2214TIP3    H128201   2.409   1.806   7.124  0.8176 -0.1159  0.2224
 2214TIP3    H228202   2.301   1.845   7.026  0.6503 -2.5315 -0.6116
 2215TIP3   OH228203   4.461   4.070   2.200  0.0606  0.0882  0.3060
 2215TIP3    H128204   4.453   4.097   2.108  0.5025 -0.9739 -0.0700
 2215TIP3    H228205   4.374   4.086   2.238  0.1437  1.4395 -0.0268
 2216TIP3   OH228206   6.142   6.038   0.453 -0.6347  0.1844  0.2808
 2216TIP3    H128207   6.059   6.082   0.437 -0.0663  1.3535  0.4612
 2216TIP3    H228208   6.131   5.951   0.412 -1.5080  0.7496 -0.7489
 2217TIP3   OH228209   2.297   3.509   1.290 -0.2717 -0.5303 -0.1716
 2217TIP3    H128210   2.251   3.493   1.207 -0.5337  0.4108 -0.2165
 2217TIP3    H228211   2.245   3.463   1.356 -1.3642  0.5908 -0.2045
 2218TIP3   OH228212   0.032   5.291   8.488  0.0719  0.2103 -0.4215
 2218TIP3    H128213  -0.007   5.253   8.567  0.0444 -0.6367 -0.8257
 2218TIP3    H228214   0.011   5.228   8.419  2.1615 -0.2894 -0.6539
 2219TIP3   OH228215   3.680   0.809   7.027 -0.1037 -0.0584  0.7395
 2219TIP3    H128216   3.700   0.802   7.121 -0.1012  2.0826  0.9409
 2219TIP3    H228217   3.766   0.811   6.985  0.0173  1.8616  0.9838
 2220TIP3   OH228218   5.967   2.709   8.252  0.1386  0.0147  0.5655
 2220TIP3    H128219   5.936   2.744   8.336  2.1320  0.7911  1.0243
 2220TIP3    H228220   6.019   2.780   8.214  0.2318 -0.7460 -0.7916
 2221TIP3   OH228221   4.737   6.754   2.049  0.2606 -0.8573  0.1983
 2221TIP3    H128222   4.646   6.726   2.037 -0.0814  0.8439 -1.7287
 2221TIP3    H228223   4.788   6.691   1.998 -0.0914 -0.5435 -0.5680
 2222TIP3   OH228224   6.315   2.968   0.673  0.6471  0.7178  0.6425
 2222TIP3    H128225   6.403   2.933   0.683  0.2847 -0.5614 -0.3402
 2222TIP3    H228226   6.258   2.897   0.704 -0.0558  1.3785  0.8953
 2223TIP3   OH228227   4.424   2.200   1.408  0.1773  0.1724  0.2292
 2223TIP3    H128228   4.400   2.286   1.371 -0.4426 -0.1875 -0.2161
 2223TIP3    H228229   4.433   2.143   1.332 -0.6520 -0.4664  0.6011
 2224TIP3   OH228230   5.062   3.754   7.158 -0.0979 -0.3325 -0.1004
 2224TIP3    H128231   5.023   3.682   7.110  0.6022 -0.2435 -0.8203
 2224TIP3    H228232   5.033   3.833   7.112  2.6479 -0.3318 -2.0360
 2225TIP3   OH228233   0.684   6.423   8.073 -0.0239  0.1469  0.0589
 2225TIP3    H128234   0.663   6.505   8.118  1.0073 -0.0507  0.9505
 2225TIP3    H228235   0.739   6.450   7.999  0.0328  0.3001  0.1563
 2226TIP3   OH228236   1.704   2.088   1.581 -0.0761  0.2253 -0.0820
 2226TIP3    H128237   1.734   2.020   1.521  0.2838 -1.2578  1.6795
 2226TIP3    H228238   1.724   2.054   1.668  0.0029  2.5563  0.8921
 2227TIP3   OH228239   0.238   3.725   7.498  0.8714  0.1289  0.3116
 2227TIP3    H128240   0.296   3.736   7.423  1.1163  0.2908  0.5242
 2227TIP3    H228241   0.204   3.812   7.514  0.9615  0.1274  0.5055
 2228TIP3   OH228242   4.000   3.994   0.033 -0.0334 -0.1801 -0.3119
 2228TIP3    H128243   4.015   4.071  -0.023  0.7504 -0.0871  0.0139
 2228TIP3    H228244   3.945   4.027   0.104  0.2809  0.0763 -0.1858
 2229TIP3   OH228245   6.629   6.486   2.219 -0.5559  0.0937 -0.0212
 2229TIP3    H128246   6.647   6.564   2.271  0.5890 -0.2460  0.1230
 2229TIP3    H228247   6.680   6.499   2.139  0.7168 -1.0658  0.5526
 2230TIP3   OH228248   5.449   6.552   8.508  0.6849 -0.1858  0.3142
 2230TIP3    H128249   5.451   6.646   8.524  2.7993  0.1065 -1.1966
 2230TIP3    H228250   5.423   6.544   8.416  0.4756 -1.1039  0.4390
 2231TIP3   OH228251   0.366   6.302   2.206 -0.2068 -0.0854  0.6477
 2231TIP3    H128252   0.446   6.294   2.154  0.6940 -1.1497  2.1262
 2231TIP3    H228253   0.342   6.395   2.198 -1.6538 -0.5852 -3.7204
 2232TIP3   OH228254   3.717   1.053   2.868 -0.4620 -0.1369  0.0603
 2232TIP3    H128255   3.649   1.119   2.853  0.5003  1.2549  1.4588
 2232TIP3    H228256   3.798   1.098   2.843  0.1044 -1.2000 -0.0499
 2233TIP3   OH228257   0.852   3.585   2.008  0.3677 -0.2140 -0.0952
 2233TIP3    H128258   0.896   3.665   1.979  2.4118 -0.7737  1.2828
 2233TIP3    H228259   0.889   3.567   2.094 -1.4315 -1.6432  0.4393
 2234TIP3   OH228260   0.608   4.009   0.331  0.5266 -0.2436  0.1939
 2234TIP3    H128261   0.549   4.035   0.260  1.3167 -1.2494 -0.8660
 2234TIP3    H228262   0.677   3.960   0.288  1.9332  0.5395  1.4693
 2235TIP3   OH228263   6.360   2.867   8.191 -0.7496  0.2231  0.3325
 2235TIP3    H128264   6.329   2.778   8.203  0.0771 -0.0727  0.3408
 2235TIP3    H228265   6.369   2.902   8.280 -1.2063  0.3648  0.3245
 2236TIP3   OH228266   3.189   4.367   0.756  0.1625  0.2300 -0.1123
 2236TIP3    H128267   3.180   4.442   0.697 -1.2643  0.4193  0.3038
 2236TIP3    H228268   3.105   4.363   0.802  0.4240 -1.2720  0.2877
 2237TIP3   OH228269   5.276   4.329   0.272  0.3313  0.2041 -0.6503
 2237TIP3    H128270   5.308   4.378   0.197  1.2429 -1.3408 -1.3193
 2237TIP3    H228271   5.303   4.238   0.255 -1.5026 -0.5986  0.3989
 2238TIP3   OH228272   0.621   3.626   7.431  0.4152  0.4376  0.3952
 2238TIP3    H128273   0.556   3.664   7.373  0.5660 -0.2782 -0.2540
 2238TIP3    H228274   0.699   3.681   7.419  0.4202  0.3420 -0.0166
 2239TIP3   OH228275   6.249   4.112   8.526  0.6614  0.6534 -0.9456
 2239TIP3    H128276   6.201   4.031   8.511  1.1274  0.1887 -0.0201
 2239TIP3    H228277   6.341   4.089   8.513  0.8502  0.8667 -0.0351
 2240TIP3   OH228278   4.060   0.145   8.464 -0.2998  0.1603 -0.0003
 2240TIP3    H128279   4.155   0.146   8.452 -0.3667  2.2591 -0.6534
 2240TIP3    H228280   4.029   0.084   8.397  0.4201  1.3522 -1.4815
 2241TIP3   OH228281   0.903   2.903   0.241  0.1140 -0.4663 -0.0965
 2241TIP3    H128282   0.872   2.988   0.271 -1.1145 -0.9434  0.0377
 2241TIP3    H228283   0.963   2.923   0.169 -1.0390  0.4698 -0.8237
 2242TIP3   OH228284   6.313   4.329   2.175  0.3173  0.5271  0.1163
 2242TIP3    H128285   6.284   4.318   2.084  1.1635  0.4105 -0.1559
 2242TIP3    H228286   6.324   4.240   2.207 -1.3885  0.5515  0.8213
 2243TIP3   OH228287   3.790   4.135   0.200  0.1424 -0.2822 -0.3060
 2243TIP3    H128288   3.762   4.181   0.121 -1.5567 -1.1856 -0.2700
 2243TIP3    H228289   3.709   4.108   0.242  1.0233 -0.1263  1.5873
 2244TIP3   OH228290   5.592   3.386   2.320 -0.5920 -0.0131  0.5758
 2244TIP3    H128291   5.512   3.439   2.325 -0.5456  0.1854 -0.4725
 2244TIP3    H228292   5.600   3.366   2.227  1.4056  1.2624  0.4202
 2245TIP3   OH228293   2.882   3.132   8.454  0.4564  0.0792 -0.6538
 2245TIP3    H128294   2.907   3.213   8.410  0.2675  0.1853 -0.5680
 2245TIP3    H228295   2.854   3.161   8.541 -1.0775  0.1062 -1.1263
 2246TIP3   OH228296   4.952   0.500   0.717  0.1541  0.3023  0.7105
 2246TIP3    H128297   4.977   0.448   0.641 -0.4074  2.3607 -0.9780
 2246TIP3    H228298   4.857   0.509   0.710  0.3033  2.1217  0.5109
 2247TIP3   OH228299   0.167   4.735   2.430 -0.3258  0.5546 -0.2011
 2247TIP3    H128300   0.241   4.673   2.422 -0.3876  0.2680  1.0899
 2247TIP3    H228301   0.187   4.785   2.509 -2.0577 -0.3116  0.8495
 2248TIP3   OH228302   0.913   2.198   7.811  0.7185 -0.3263 -0.1626
 2248TIP3    H128303   0.956   2.112   7.804  2.5494  0.6031 -1.1305
 2248TIP3    H228304   0.964   2.255   7.753 -1.4452  1.0594 -0.8152
 2249TIP3   OH228305   0.147   1.738   0.485 -0.0891 -0.2093  0.5127
 2249TIP3    H128306   0.081   1.806   0.470  0.0483 -0.1987 -0.0753
 2249TIP3    H228307   0.131   1.708   0.574 -1.0899 -0.4274  0.2753
 2250TIP3   OH228308   6.755   6.127   8.656 -0.5055  0.1536 -0.6874
 2250TIP3    H128309   6.782   6.146   8.746 -0.0018  0.3403 -0.8733
 2250TIP3    H228310   6.743   6.032   8.654  0.0413  0.0775 -0.5681
 2251TIP3   OH228311   5.849   6.398   0.588  0.1179  0.1487 -0.0649
 2251TIP3    H128312   5.870   6.304   0.585 -1.2120 -0.1523 -0.6017
 2251TIP3    H228313   5.874   6.425   0.676 -1.8649 -1.3170  1.0292
 2252TIP3   OH228314   1.017   1.363   2.780 -0.1849  0.2552  0.9342
 2252TIP3    H128315   1.026   1.281   2.732 -0.2453  0.7828  0.0033
 2252TIP3    H228316   0.925   1.367   2.805 -0.5834  0.8432 -0.5254
 2253TIP3   OH228317   2.792   0.401   0.258  0.3207 -0.5337 -0.4548
 2253TIP3    H128318   2.810   0.342   0.185  0.8244 -0.5583 -0.3122
 2253TIP3    H228319   2.815   0.488   0.225 -0.3748 -0.4198 -0.6488
 2254TIP3   OH228320   0.842   6.563   8.463 -0.0434  0.3838 -0.2721
 2254TIP3    H128321   0.868   6.496   8.526 -1.5592  0.3015  0.3302
 2254TIP3    H228322   0.910   6.562   8.396  1.0659 -0.2631  0.8291
 2255TIP3   OH228323   4.678   3.099   1.627 -0.1203 -0.4881 -0.0645
 2255TIP3    H128324   4.607   3.115   1.690 -0.0036 -2.1906  0.5666
 2255TIP3    H228325   4.655   3.014   1.588  1.1752 -0.6950 -0.4016
 2256TIP3   OH228326   6.393   1.746   7.593 -0.3554 -0.1089 -0.7074
 2256TIP3    H128327   6.310   1.702   7.572  0.0393 -1.1897 -0.1179
 2256TIP3    H228328   6.426   1.776   7.509 -0.5419 -1.1642 -1.1803
 2257TIP3   OH228329   3.166   4.969   1.510  0.5975  0.0781  0.0017
 2257TIP3    H128330   3.232   5.021   1.555  2.2413 -0.3356 -1.8314
 2257TIP3    H228331   3.206   4.883   1.499 -0.8455 -0.6451  0.1546
 2258TIP3   OH228332   2.427   5.735   7.913 -0.2912 -0.2166 -0.0024
 2258TIP3    H128333   2.416   5.704   8.002 -0.9159 -0.8033 -0.2758
 2258TIP3    H228334   2.338   5.748   7.880 -0.0933 -0.6861 -0.7692
 2259TIP3   OH228335   6.767   2.057   7.041 -0.1606  0.4571 -0.2632
 2259TIP3    H128336   6.741   1.966   7.054 -1.2254  0.7484 -0.2171
 2259TIP3    H228337   6.750   2.099   7.125  1.0102  0.5590 -0.0631
 2260TIP3   OH228338   1.903   2.350   2.239 -0.4100 -0.0805  0.2967
 2260TIP3    H128339   1.877   2.387   2.155 -0.9517 -0.3712  0.3290
 2260TIP3    H228340   1.911   2.256   2.223  0.0740 -0.0626  0.4274
 2261TIP3   OH228341   5.100   6.151   7.656 -0.6181 -0.4900  0.2623
 2261TIP3    H128342   5.184   6.119   7.622 -0.9314 -0.5043 -0.5310
 2261TIP3    H228343   5.080   6.093   7.729 -0.3718 -1.0489 -0.1075
 2262TIP3   OH228344   6.280   4.643   0.588  0.5341 -0.2910 -0.7009
 2262TIP3    H128345   6.277   4.551   0.614 -0.0405 -0.4061 -1.1605
 2262TIP3    H228346   6.237   4.646   0.503  1.9491  0.1665 -1.4354
 2263TIP3   OH228347   2.420   5.170   2.176  0.1717 -0.0554 -0.1914
 2263TIP3    H128348   2.508   5.179   2.213 -0.0748  1.8045  0.0335
 2263TIP3    H228349   2.434   5.152   2.084  0.9207  3.8887 -1.0264
 2264TIP3   OH228350   4.796   1.199   7.958 -0.5799 -0.2110  0.2872
 2264TIP3    H128351   4.849   1.171   8.032 -2.0888 -1.4469  0.9677
 2264TIP3    H228352   4.752   1.278   7.989  0.8845  0.8741 -0.3144
 2265TIP3   OH228353   5.020   2.621   8.322  0.3818  0.3161  0.4494
 2265TIP3    H128354   4.987   2.590   8.407  0.2255  0.1123  0.3146
 2265TIP3    H228355   5.049   2.542   8.277 -0.0103  0.3623  0.1094
 2266TIP3   OH228356   5.182   2.761   8.029 -0.0420 -0.1980  0.0187
 2266TIP3    H128357   5.157   2.837   7.977  2.2189  0.0831 -0.7469
 2266TIP3    H228358   5.178   2.792   8.120 -0.6849  0.3345 -0.1824
 2267TIP3   OH228359   4.085   0.108   0.516 -0.2086  0.2072 -0.0708
 2267TIP3    H128360   4.105   0.146   0.601 -3.2469 -0.2841  0.9856
 2267TIP3    H228361   4.127   0.166   0.453  0.3356  1.8077  1.6737
 2268TIP3   OH228362   2.657   5.909   0.030 -0.0515 -0.1819 -0.0624
 2268TIP3    H128363   2.574   5.861   0.033  0.0358 -0.8034 -3.6605
 2268TIP3    H228364   2.632   6.000   0.016 -0.1080  0.4384  3.2349
 2269TIP3   OH228365   3.435   5.734   1.281 -0.0458  0.1519  0.6449
 2269TIP3    H128366   3.380   5.681   1.338  0.1371  0.1486  0.8205
 2269TIP3    H228367   3.374   5.787   1.230 -0.2151  0.0289  0.7202
 2270TIP3   OH228368   5.577   3.470   2.594  0.4688  0.7001 -0.1643
 2270TIP3    H128369   5.583   3.418   2.514 -3.6082 -2.9767  1.4813
 2270TIP3    H228370   5.487   3.504   2.592  1.6481  4.3070  0.9543
 2271TIP3   OH228371   5.556   3.663   2.855  0.4419 -0.0669 -0.0158
 2271TIP3    H128372   5.545   3.752   2.886  0.2961 -0.7013  1.8429
 2271TIP3    H228373   5.467   3.630   2.842  0.4963  0.2186 -1.2978
 2272TIP3   OH228374   1.920   4.637   6.909 -0.2937 -1.1481  0.0753
 2272TIP3    H128375   1.984   4.624   6.979 -1.0969  0.5494  1.1894
 2272TIP3    H228376   1.970   4.678   6.839 -0.2535  0.9138  1.2404
 2273TIP3   OH228377   6.749   6.602   2.742 -0.0991  0.2993  0.0450
 2273TIP3    H128378   6.765   6.633   2.653 -1.4801  0.8765 -0.0377
 2273TIP3    H228379   6.790   6.515   2.745 -0.9418 -0.2000 -1.5089
 2274TIP3   OH228380   5.071   2.148   7.210 -0.3320 -0.1509 -0.1816
 2274TIP3    H128381   5.087   2.090   7.285 -0.4663 -0.3790 -0.3295
 2274TIP3    H228382   5.157   2.186   7.190 -0.5624  1.1013  1.0663
 2275TIP3   OH228383   4.392   0.409   1.801 -0.2200  0.4120 -0.5687
 2275TIP3    H128384   4.486   0.396   1.812  0.1756  2.8114 -0.6560
 2275TIP3    H228385   4.372   0.369   1.716  0.4692 -1.0827 -0.0624
 2276TIP3   OH228386   1.985   3.126   0.007 -0.6336 -0.4624 -0.2601
 2276TIP3    H128387   2.046   3.061   0.043  0.7471  1.0085  0.1931
 2276TIP3    H228388   1.899   3.093   0.030  0.0380 -1.9483  0.2781
 2277TIP3   OH228389   0.017   6.555   7.890  0.0749  0.2621 -1.0903
 2277TIP3    H128390  -0.003   6.464   7.868  0.4498 -0.1254  0.1125
 2277TIP3    H228391  -0.068   6.598   7.899 -0.1563 -0.3808 -0.0332
 2278TIP3   OH228392   0.613   3.918   8.345 -0.5625 -0.5588  0.1351
 2278TIP3    H128393   0.702   3.890   8.367 -0.8100 -0.0356  1.9967
 2278TIP3    H228394   0.623   3.966   8.263  0.8525 -0.5941  0.2497
 2279TIP3   OH228395   0.873   1.545   1.973  0.2186  0.0472 -0.0186
 2279TIP3    H128396   0.844   1.476   2.032  2.0541  0.2438  1.2020
 2279TIP3    H228397   0.794   1.570   1.924 -0.6371 -2.4257 -0.0409
 2280TIP3   OH228398   1.475   4.161   0.639 -0.1004  0.3850  0.5192
 2280TIP3    H128399   1.569   4.173   0.649  0.0141 -0.7852  1.0079
 2280TIP3    H228400   1.442   4.157   0.729 -0.6776  1.1283  0.3549
 2281TIP3   OH228401   0.304   5.158   1.170 -0.0910  0.5749 -0.3082
 2281TIP3    H128402   0.316   5.076   1.123  1.6486 -1.0601  2.6697
 2281TIP3    H228403   0.344   5.142   1.255 -2.1479  3.6217  1.3976
 2282TIP3   OH228404   5.244   3.254   6.818 -0.0029  0.2617  0.1802
 2282TIP3    H128405   5.163   3.270   6.866 -0.7728 -0.9260 -0.6658
 2282TIP3    H228406   5.271   3.341   6.788 -2.5775  0.4485 -2.0124
 2283TIP3   OH228407   4.691   4.217   2.519 -0.3041  0.3533  0.4506
 2283TIP3    H128408   4.606   4.256   2.496  0.2082  2.6318  2.0044
 2283TIP3    H228409   4.688   4.210   2.615  1.4341  1.0315  0.5984
 2284TIP3   OH228410   0.860   3.449   0.664  0.1844 -0.0711  0.4112
 2284TIP3    H128411   0.785   3.497   0.698 -0.5889  0.2067 -1.5507
 2284TIP3    H228412   0.842   3.357   0.682 -0.6980 -0.0144 -0.1517
 2285TIP3   OH228413   3.099   2.278   1.859 -0.8388  0.1327 -0.0511
 2285TIP3    H128414   3.136   2.194   1.834 -1.4816 -0.1184 -0.1936
 2285TIP3    H228415   3.094   2.274   1.955 -1.2842 -0.1762 -0.0846
 2286TIP3   OH228416   2.789   2.412   7.484 -0.3667 -0.6578 -0.0201
 2286TIP3    H128417   2.838   2.493   7.468  0.9714 -1.4584 -0.1414
 2286TIP3    H228418   2.709   2.420   7.432 -1.0174  1.2409  1.1695
 2287TIP3   OH228419   4.747   2.189   2.097  0.6347 -0.1630 -0.3494
 2287TIP3    H128420   4.749   2.196   2.193 -0.7422  0.8515 -0.3703
 2287TIP3    H228421   4.837   2.209   2.070  0.7381  0.8642  0.6635
 2288TIP3   OH228422   4.032   6.373   1.402  0.3470  0.3516 -0.2952
 2288TIP3    H128423   3.993   6.459   1.417  0.8581  0.2282  2.1945
 2288TIP3    H228424   4.123   6.392   1.381  0.3956  0.4466 -0.0112
 2289TIP3   OH228425   1.287   0.635   1.342 -0.2544 -0.0761 -0.0673
 2289TIP3    H128426   1.205   0.621   1.389 -0.3508  0.3968 -0.0851
 2289TIP3    H228427   1.274   0.595   1.256 -0.2724 -0.4694  0.1171
 2290TIP3   OH228428   6.046   3.017   1.799 -0.3059  0.5246  0.2242
 2290TIP3    H128429   6.010   2.952   1.860 -0.7272  1.3637  0.8987
 2290TIP3    H228430   6.122   2.974   1.760 -1.6771 -1.1027 -0.8071
 2291TIP3   OH228431   6.739   4.962   0.182  0.3573  0.0991  0.5539
 2291TIP3    H128432   6.716   4.917   0.101 -0.6976 -1.3104  1.5742
 2291TIP3    H228433   6.676   4.929   0.246  0.3468  2.1554  1.6631
 2292TIP3   OH228434   6.666   6.727   8.319 -0.0935 -0.1206 -0.0387
 2292TIP3    H128435   6.741   6.779   8.348  1.4912 -1.1003 -2.0800
 2292TIP3    H228436   6.637   6.772   8.239  0.6023 -1.6480 -1.2078
 2293TIP3   OH228437   2.836   1.886   8.484  0.0568 -0.4135  0.5843
 2293TIP3    H128438   2.926   1.852   8.488  0.0927 -0.2396  1.9749
 2293TIP3    H228439   2.845   1.972   8.445  0.5450 -0.2953  0.9397
 2294TIP3   OH228440   1.834   5.775   2.330 -0.3140  0.1810  0.2529
 2294TIP3    H128441   1.901   5.746   2.268 -0.0433  1.8854 -0.3146
 2294TIP3    H228442   1.884   5.804   2.407 -0.2801  2.1604 -0.4578
 2295TIP3   OH228443   1.021   2.306   2.487 -0.3178  0.5651 -0.4013
 2295TIP3    H128444   1.092   2.348   2.535 -0.4254 -0.3330  0.5672
 2295TIP3    H228445   0.944   2.318   2.543 -0.1517 -1.7907  0.4336
 2296TIP3   OH228446   3.352   0.282   2.528  0.1461  0.0310 -0.2171
 2296TIP3    H128447   3.414   0.314   2.463 -0.3349 -0.6357 -1.0263
 2296TIP3    H228448   3.365   0.187   2.529 -0.0926 -0.0042  0.4179
 2297TIP3   OH228449   3.682   1.371   7.895 -0.3043  0.0369 -0.2268
 2297TIP3    H128450   3.669   1.407   7.808 -1.5333 -1.8139 -0.8517
 2297TIP3    H228451   3.777   1.375   7.909 -0.1136  0.4791 -1.5607
 2298TIP3   OH228452   0.433   6.846   0.360 -0.1395  0.5635  0.5007
 2298TIP3    H128453   0.448   6.753   0.377 -0.2467  0.1836 -1.2580
 2298TIP3    H228454   0.339   6.857   0.369 -0.6082 -0.2704 -2.3615
 2299TIP3   OH228455   3.289   2.815   1.729  0.3958  0.5144 -0.1108
 2299TIP3    H128456   3.336   2.838   1.649  0.6816 -0.3252 -0.1854
 2299TIP3    H228457   3.296   2.720   1.735 -3.7141 -0.0877 -1.6548
 2300TIP3   OH228458   3.163   6.880   8.508  0.3163  0.0272  0.2567
 2300TIP3    H128459   3.234   6.827   8.473  0.6582 -0.2727  1.3667
 2300TIP3    H228460   3.095   6.818   8.533  0.5689  0.1175  1.2223
 2301TIP3   OH228461   6.020   0.522   0.277  0.3110 -0.6437  0.3036
 2301TIP3    H128462   6.007   0.523   0.372 -1.0994 -1.5254  0.1472
 2301TIP3    H228463   6.114   0.530   0.266  0.4317  0.3774  1.7465
 2302TIP3   OH228464   3.676   5.248   7.944 -0.2930 -0.3465  0.1502
 2302TIP3    H128465   3.623   5.188   7.891  0.5680 -0.6152 -0.4289
 2302TIP3    H228466   3.748   5.273   7.886 -0.0323  0.3699  0.7712
 2303TIP3   OH228467   6.535   3.137   2.149  0.0696 -1.0017  0.4430
 2303TIP3    H128468   6.577   3.055   2.172  0.8009 -0.6680  0.3263
 2303TIP3    H228469   6.600   3.204   2.171  0.0024 -0.5437 -0.6973
 2304TIP3   OH228470   5.036   3.314   2.445 -0.1410  0.0356 -0.2500
 2304TIP3    H128471   4.990   3.391   2.411  0.9184  0.8833  0.1740
 2304TIP3    H228472   5.074   3.344   2.528  0.3726 -0.9238 -0.1301
 2305TIP3   OH228473   6.298   0.545   0.239  0.4482  0.2260 -0.0607
 2305TIP3    H128474   6.343   0.602   0.302 -0.6441 -0.5486  1.4706
 2305TIP3    H228475   6.366   0.484   0.210  1.6238  2.1469 -1.6571
 2306TIP3   OH228476   5.479   5.996   3.182 -0.1596  0.2458 -0.9307
 2306TIP3    H128477   5.544   5.932   3.210 -2.3713 -1.8686 -0.2369
 2306TIP3    H228478   5.513   6.081   3.213  2.0823 -0.7724 -0.4050
 2307TIP3   OH228479   6.224   5.138   2.396  0.3808  0.1404 -0.0528
 2307TIP3    H128480   6.283   5.066   2.374  1.0170  0.9040 -0.9446
 2307TIP3    H228481   6.268   5.185   2.467 -1.8810 -2.5848  3.4629
 2308TIP3   OH228482   0.945   1.693   2.223 -0.5963  0.2670  0.1453
 2308TIP3    H128483   0.865   1.651   2.255  0.0505 -0.0852  1.3196
 2308TIP3    H228484   0.927   1.708   2.130 -2.0009  0.1324  0.3634
 2309TIP3   OH228485   6.181   4.468   1.255 -0.3366 -0.1784 -0.7391
 2309TIP3    H128486   6.275   4.483   1.250  0.2214 -2.7563  0.4502
 2309TIP3    H228487   6.160   4.474   1.348 -0.8333 -1.9937 -0.6919
 2310TIP3   OH228488   5.307   1.868   1.686  0.1300 -0.7838  0.0595
 2310TIP3    H128489   5.369   1.927   1.727 -0.8824  0.4815 -0.1693
 2310TIP3    H228490   5.227   1.920   1.675  0.0884 -1.2954 -2.7546
 2311TIP3   OH228491   4.525   6.406   1.415 -0.4692  0.3203 -0.5211
 2311TIP3    H128492   4.592   6.473   1.404  0.1017 -0.1280  0.1075
 2311TIP3    H228493   4.489   6.421   1.503  1.7397 -1.9534  0.9055
 2312TIP3   OH228494   4.334   6.321   2.325  0.0623 -0.0544  0.2664
 2312TIP3    H128495   4.246   6.328   2.288  0.0844 -1.7146 -0.1924
 2312TIP3    H228496   4.319   6.297   2.417  0.0371 -0.0021  0.2759
 2313TIP3   OH228497   4.872   4.593   8.637  0.0333 -0.2350  0.1724
 2313TIP3    H128498   4.938   4.541   8.593 -0.2647 -1.4634  1.1369
 2313TIP3    H228499   4.921   4.648   8.699  0.4293  1.3193 -1.4349
 2314TIP3   OH228500   6.245   5.481   0.485  0.2156 -0.0833 -0.2070
 2314TIP3    H128501   6.237   5.385   0.490 -0.6630 -0.1527 -2.0684
 2314TIP3    H228502   6.156   5.513   0.500  0.7223  0.5710  1.7287
 2315TIP3   OH228503   2.481   2.592   1.035  0.0912 -0.1462  0.1647
 2315TIP3    H128504   2.543   2.572   0.965  2.0249  0.8047  1.4868
 2315TIP3    H228505   2.424   2.515   1.040  2.5108 -2.0646  0.2127
 2316TIP3   OH228506   4.566   0.441   2.199  0.4364  0.1146 -0.0740
 2316TIP3    H128507   4.554   0.392   2.117 -1.5379 -0.8803  0.7520
 2316TIP3    H228508   4.652   0.413   2.231  0.0743 -1.5865 -0.4661
 2317TIP3   OH228509   6.023   5.882   2.304  0.1249 -0.5148  0.7638
 2317TIP3    H128510   6.010   5.938   2.380 -1.4546 -0.7214  0.6926
 2317TIP3    H228511   6.045   5.796   2.340 -1.4145 -0.8171  1.0618
 2318TIP3   OH228512   3.323   0.183   8.035 -0.0537  0.5249 -0.1639
 2318TIP3    H128513   3.376   0.135   8.099  0.1086  0.2968 -0.4633
 2318TIP3    H228514   3.387   0.237   7.988  0.3495 -1.5648 -2.2030
 2319TIP3   OH228515   1.276   2.185   1.822 -0.0476  0.6416 -0.2658
 2319TIP3    H128516   1.325   2.112   1.860  0.4027  0.4244 -1.2264
 2319TIP3    H228517   1.344   2.238   1.779 -0.5740  0.7048 -1.0296
 2320TIP3   OH228518   2.565   3.337   1.188 -0.0442 -0.6655 -0.3022
 2320TIP3    H128519   2.654   3.313   1.214 -0.0842  0.6519  1.2219
 2320TIP3    H228520   2.577   3.406   1.123  0.0252 -1.9240 -1.6835
 2321TIP3   OH228521   3.854   0.007   1.047 -0.4454 -0.0085 -0.5821
 2321TIP3    H128522   3.811   0.093   1.049  0.3567  0.3810  0.6978
 2321TIP3    H228523   3.786  -0.052   1.014 -1.5056  0.8455  0.0090
 2322TIP3   OH228524   2.393   6.489   2.340 -0.2945 -0.3981  0.0725
 2322TIP3    H128525   2.378   6.395   2.345  0.4681 -0.5005  0.6670
 2322TIP3    H228526   2.317   6.528   2.384 -0.2006 -0.7761  0.5780
 2323TIP3   OH228527   3.750   3.832   0.350 -0.1273 -0.0668 -0.0919
 2323TIP3    H128528   3.843   3.839   0.371  0.0620 -1.0684 -0.5248
 2323TIP3    H228529   3.746   3.848   0.255 -0.5720  1.2633  0.1298
 2324TIP3   OH228530   3.760   6.785   8.618  0.2906 -0.3637 -0.8299
 2324TIP3    H128531   3.849   6.812   8.593  0.7105 -0.3561  0.6239
 2324TIP3    H228532   3.714   6.868   8.635  0.1143 -0.3845 -1.1911
 2325TIP3   OH228533   4.851   1.451   0.234  0.7184 -0.1213 -0.7505
 2325TIP3    H128534   4.780   1.507   0.264  0.2147 -1.8900  1.6306
 2325TIP3    H228535   4.840   1.447   0.139 -2.7721 -0.8322 -0.4279
 2326TIP3   OH228536   4.915   4.666   7.835 -0.0557  0.1731  0.3674
 2326TIP3    H128537   4.951   4.716   7.908 -1.6076 -0.7990  1.8762
 2326TIP3    H228538   4.876   4.589   7.875  0.4813 -1.2766 -1.6810
 2327TIP3   OH228539   4.059   3.963   2.561 -0.2881  0.1664  1.0507
 2327TIP3    H128540   3.964   3.974   2.559 -0.4008 -0.5800 -1.0744
 2327TIP3    H228541   4.089   4.023   2.629 -2.1815  1.3132  0.9621
 2328TIP3   OH228542   1.201   4.409   2.186 -0.0460  0.6074  0.0180
 2328TIP3    H128543   1.163   4.496   2.176 -0.2131  0.3483 -2.0963
 2328TIP3    H228544   1.279   4.423   2.239 -1.2012  1.6830  1.5189
 2329TIP3   OH228545   0.732   3.524   1.232 -0.1592 -0.5332  0.0182
 2329TIP3    H128546   0.673   3.554   1.301  0.5509  0.8089  0.0813
 2329TIP3    H228547   0.677   3.470   1.175 -1.0007 -0.7970  1.0511
 2330TIP3   OH228548   2.629   3.978   1.115  0.0741 -0.0353 -0.1679
 2330TIP3    H128549   2.633   4.057   1.063 -1.6610 -0.4814 -1.0237
 2330TIP3    H228550   2.620   3.907   1.051 -1.4314 -0.6479  0.6712
 2331TIP3   OH228551   2.178   4.185   7.196 -0.1171  0.1049  0.2810
 2331TIP3    H128552   2.211   4.101   7.165 -0.3748  0.5853 -1.3775
 2331TIP3    H228553   2.197   4.246   7.125 -1.7006  1.0483  0.6206
 2332TIP3   OH228554   3.254   1.076   6.829 -0.3667  0.0136  0.1130
 2332TIP3    H128555   3.305   1.052   6.906  1.6150  0.2064 -1.0719
 2332TIP3    H228556   3.245   0.995   6.779 -1.2765 -0.0219  0.3162
 2333TIP3   OH228557   4.998   1.301   1.113  0.8578  0.1019 -0.0566
 2333TIP3    H128558   5.028   1.342   1.195 -1.8107  0.7918  0.6536
 2333TIP3    H228559   5.065   1.326   1.049  0.8464  3.2713  0.9558
 2334TIP3   OH228560   6.342   1.659   8.308 -0.1698  0.1510 -0.0954
 2334TIP3    H128561   6.279   1.718   8.350  0.4699  0.8651 -0.1243
 2334TIP3    H228562   6.296   1.575   8.303 -0.6445  0.3200  1.0853
 2335TIP3   OH228563   2.151   0.593   0.034  0.3762  0.1607  0.3104
 2335TIP3    H128564   2.147   0.586   0.129  1.5338  0.1931  0.3732
 2335TIP3    H228565   2.120   0.508   0.002 -0.5370  0.3393  0.6920
 2336TIP3   OH228566   3.229   0.644   1.503 -0.6434 -0.4238  0.2477
 2336TIP3    H128567   3.182   0.719   1.466 -0.8248 -0.3620  0.6046
 2336TIP3    H228568   3.165   0.572   1.502 -0.6139 -0.4516  0.3392
 2337TIP3   OH228569   1.928   6.248   8.570  0.4737 -0.4069  0.2149
 2337TIP3    H128570   1.857   6.310   8.551 -0.7756 -1.3579  1.5445
 2337TIP3    H228571   1.993   6.300   8.617  0.4203  0.3578 -0.5336
 2338TIP3   OH228572   5.596   4.104   1.378 -0.4229  0.1404 -0.3805
 2338TIP3    H128573   5.664   4.047   1.415 -1.4876  0.2301  1.8781
 2338TIP3    H228574   5.606   4.186   1.427 -2.6764 -0.1432  0.6534
 2339TIP3   OH228575   6.248   0.941   8.406 -0.0330  0.0975  0.1989
 2339TIP3    H128576   6.316   0.933   8.474  0.8147  3.3882 -0.1094
 2339TIP3    H228577   6.297   0.951   8.324 -0.9997 -1.0692 -0.5570
 2340TIP3   OH228578   6.239   6.173   0.854  0.5741  0.4348  0.2234
 2340TIP3    H128579   6.299   6.142   0.923  1.0993  0.2265 -0.3128
 2340TIP3    H228580   6.171   6.106   0.850 -0.0500  0.9792  1.2602
 2341TIP3   OH228581   2.543   3.186   0.464  0.1014  0.9793  0.0524
 2341TIP3    H128582   2.453   3.159   0.482  0.3940 -0.5803 -0.7064
 2341TIP3    H228583   2.535   3.276   0.433 -1.3554  0.3841 -1.4070
 2342TIP3   OH228584   4.857   1.270   2.891  0.5509 -0.1159 -0.2144
 2342TIP3    H128585   4.851   1.327   2.968  1.1554  0.2048 -0.3988
 2342TIP3    H228586   4.767   1.258   2.863  0.0483 -2.2209  1.9875
 2343TIP3   OH228587   3.088   5.344   8.617  0.0931 -0.3067  0.4267
 2343TIP3    H128588   3.032   5.421   8.621 -0.4267 -0.4812 -1.9736
 2343TIP3    H228589   3.177   5.378   8.619 -0.1085  0.5398 -1.8360
 2344TIP3   OH228590   5.918   6.495   7.486  0.3735  0.1823 -0.2885
 2344TIP3    H128591   5.851   6.434   7.456  0.0017  0.0792  0.7148
 2344TIP3    H228592   5.891   6.580   7.451 -1.4870  0.5515  1.8225
 2345TIP3   OH228593   6.869   6.155   7.630  0.2208  0.1864 -0.3113
 2345TIP3    H128594   6.959   6.147   7.663  0.0799  0.0287  0.0381
 2345TIP3    H228595   6.878   6.205   7.549  0.4873  1.3275  0.3836
 2346TIP3   OH228596   5.342   0.955   1.236 -0.1224  0.3891  0.0884
 2346TIP3    H128597   5.389   0.878   1.204  1.6840  1.9684 -1.2717
 2346TIP3    H228598   5.371   0.965   1.327  1.4111  0.7034 -0.4048
 2347TIP3   OH228599   0.135   3.292   0.784  0.5897 -0.3052  0.1146
 2347TIP3    H128600   0.081   3.361   0.823  1.9735  0.1598  1.3007
 2347TIP3    H228601   0.131   3.220   0.847 -1.7078 -1.8058 -1.6095
 2348TIP3   OH228602   5.028   5.914   8.656 -0.6056  0.1352 -0.6013
 2348TIP3    H128603   4.964   5.968   8.703 -0.2147  0.6636 -0.6603
 2348TIP3    H228604   5.062   5.853   8.722  0.8257  1.6570  0.1611
 2349TIP3   OH228605   4.577   4.363   8.119  0.3331 -0.2751  0.0342
 2349TIP3    H128606   4.601   4.287   8.172  1.9254  0.6400  0.6944
 2349TIP3    H228607   4.576   4.435   8.181  0.3414  0.4923 -0.8446
 2350TIP3   OH228608   0.444   0.294   8.357  0.2987 -0.2323 -0.2954
 2350TIP3    H128609   0.357   0.262   8.333  0.5589 -0.1119 -1.5057
 2350TIP3    H228610   0.443   0.386   8.332  0.1029  0.3361  1.6411
 2351TIP3   OH228611   0.005   2.306   0.558  0.3326  0.1224  0.2088
 2351TIP3    H128612  -0.085   2.295   0.589  0.5986  2.5032  2.1122
 2351TIP3    H228613   0.016   2.400   0.548  2.8471 -0.0413  0.8519
 2352TIP3   OH228614   0.275   5.025   0.147  0.2053  0.4707 -0.4955
 2352TIP3    H128615   0.221   4.985   0.215 -0.5051  0.6573 -0.9349
 2352TIP3    H228616   0.344   5.071   0.194 -0.4993  0.9181  0.1194
 2353TIP3   OH228617   5.131   6.018   1.223  0.4084  0.0313  0.3603
 2353TIP3    H128618   5.145   5.998   1.315  2.3739 -1.8606 -0.2747
 2353TIP3    H228619   5.192   6.090   1.204  1.5405 -0.9634  0.1048
 2354TIP3   OH228620   1.887   3.234   7.608  0.2262 -0.2694 -0.4940
 2354TIP3    H128621   1.881   3.329   7.622  1.1231 -0.2275 -0.3202
 2354TIP3    H228622   1.945   3.224   7.533  3.6957 -0.7169  1.9552
 2355TIP3   OH228623   6.393   1.462   1.822 -0.4001  0.1424 -0.3197
 2355TIP3    H128624   6.359   1.379   1.854 -0.1854  0.5159  0.9110
 2355TIP3    H228625   6.339   1.528   1.865 -1.3083  0.6575 -2.1186
 2356TIP3   OH228626   6.074   6.010   0.101 -1.0658  0.5872  0.4339
 2356TIP3    H128627   6.120   5.931   0.131 -0.1431  0.4921 -1.0850
 2356TIP3    H228628   6.086   6.073   0.171  0.4958  0.2094  0.5476
 2357TIP3   OH228629   6.587   0.322   8.006  0.1386  0.2382 -0.2199
 2357TIP3    H128630   6.511   0.362   7.963 -0.3415  0.0533  0.4234
 2357TIP3    H228631   6.549   0.277   8.082  0.9825  0.7422  0.5188
 2358TIP3   OH228632   5.942   1.520   1.675 -0.6457  0.0626  0.3505
 2358TIP3    H128633   5.965   1.588   1.739  0.1323 -1.2488  1.5068
 2358TIP3    H228634   5.897   1.568   1.605 -0.1651  1.7621  1.1449
 2359TIP3   OH228635   1.027   2.872   1.586  0.7776 -0.1098  0.2237
 2359TIP3    H128636   1.040   2.908   1.498 -0.0207 -0.7467 -0.1605
 2359TIP3    H228637   0.972   2.937   1.630  1.4388  0.3661  0.3730
 2360TIP3   OH228638   6.691   1.303   8.292 -0.0806  0.6661 -0.4016
 2360TIP3    H128639   6.620   1.352   8.334  0.3288 -1.1135  2.6579
 2360TIP3    H228640   6.649   1.223   8.260  0.5378 -0.7976  2.1828
 2361TIP3   OH228641   1.087   1.676   0.411  0.4218  0.6216  0.3964
 2361TIP3    H128642   1.151   1.691   0.341  1.3345 -1.7419  0.6512
 2361TIP3    H228643   1.136   1.630   0.479 -1.3985 -0.7643  0.8357
 2362TIP3   OH228644   2.444   5.248   1.344 -0.3461 -0.3977 -0.2111
 2362TIP3    H128645   2.358   5.206   1.352 -0.4472 -0.1978 -0.2481
 2362TIP3    H228646   2.479   5.246   1.433 -0.1360 -1.0139 -0.3039
 2363TIP3   OH228647   4.402   0.733   0.365  0.5855 -0.0333 -0.2834
 2363TIP3    H128648   4.343   0.742   0.290  0.4585  1.0594 -0.0646
 2363TIP3    H228649   4.351   0.684   0.429 -0.5260  1.8132  0.3173
 2364TIP3   OH228650   3.696   3.523   7.329 -0.0832 -0.4281  0.1799
 2364TIP3    H128651   3.636   3.580   7.280 -1.6093 -1.5573  0.6578
 2364TIP3    H228652   3.783   3.554   7.306 -0.6753 -1.0441 -3.4800
 2365TIP3   OH228653   2.893   0.381   7.008  0.9035  0.3548  0.5651
 2365TIP3    H128654   2.855   0.442   7.072  0.4902 -0.6057  1.2674
 2365TIP3    H228655   2.857   0.296   7.033  2.5023 -0.3919  0.4398
 2366TIP3   OH228656   0.597   0.673   0.742 -0.0189  0.2836  0.5724
 2366TIP3    H128657   0.593   0.582   0.714 -0.6371  0.5400 -0.1890
 2366TIP3    H228658   0.506   0.695   0.766  0.0216  0.8699  0.2000
 2367TIP3   OH228659   5.916   2.781   1.939  0.1451  0.4131 -0.4929
 2367TIP3    H128660   5.995   2.743   1.978  1.1014  3.8342  1.2241
 2367TIP3    H228661   5.845   2.756   1.998  0.5966  0.6140  0.1376
 2368TIP3   OH228662   1.709   5.921   2.703 -0.1562  0.0798 -0.6995
 2368TIP3    H128663   1.614   5.910   2.696 -0.5588  2.5886 -0.0140
 2368TIP3    H228664   1.724   5.942   2.795  1.0950 -0.2629 -0.8067
 2369TIP3   OH228665   6.282   3.753   1.076 -0.2992  0.4903 -0.4204
 2369TIP3    H128666   6.239   3.838   1.082  0.8823  1.1104 -0.4378
 2369TIP3    H228667   6.273   3.715   1.164  1.9286  2.0494  0.5788
 2370TIP3   OH228668   3.570   5.644   2.576  0.6524  0.1850 -0.6328
 2370TIP3    H128669   3.652   5.644   2.625 -0.1321 -1.7141  0.8046
 2370TIP3    H228670   3.589   5.697   2.498  2.5667  1.5934  0.6785
 2371TIP3   OH228671   6.770   0.353   8.302  0.2626  0.3862  0.1888
 2371TIP3    H128672   6.793   0.287   8.367 -1.0333  0.9348  1.2484
 2371TIP3    H228673   6.814   0.433   8.331 -1.3607  0.9606  1.1630
 2372TIP3   OH228674   0.585   2.227   8.547  0.2878  0.0481 -0.2487
 2372TIP3    H128675   0.547   2.168   8.612  0.5668 -1.0030 -1.0089
 2372TIP3    H228676   0.630   2.294   8.599  0.2652 -0.6108  0.6468
 2373TIP3   OH228677   6.284   6.300   1.961  0.3318 -0.9297 -0.0527
 2373TIP3    H128678   6.218   6.292   2.029  0.7070 -1.3025  0.2759
 2373TIP3    H228679   6.314   6.391   1.967  1.5459 -1.3909  1.4170
 2374TIP3   OH228680   6.605   2.538   8.110  0.4901 -0.0657  0.9098
 2374TIP3    H128681   6.607   2.622   8.064 -0.3867 -0.1180  0.7423
 2374TIP3    H228682   6.580   2.474   8.042  1.0788 -0.4469  1.0502
 2375TIP3   OH228683   0.695   5.900   8.269 -0.3094 -0.2006  0.6081
 2375TIP3    H128684   0.640   5.860   8.336  0.0448 -1.3521  0.2313
 2375TIP3    H228685   0.657   5.987   8.255 -1.3121 -0.5384  1.1810
 2376TIP3   OH228686   0.547   5.865   1.948  0.3154  0.2370 -0.4084
 2376TIP3    H128687   0.477   5.803   1.929  0.5385  0.4038 -1.9596
 2376TIP3    H228688   0.508   5.951   1.932  0.3685  0.4385  0.5012
 2377TIP3   OH228689   6.372   4.590   7.603 -0.2482  0.4612 -0.0076
 2377TIP3    H128690   6.463   4.620   7.592  0.7297 -1.2567  2.5302
 2377TIP3    H228691   6.333   4.656   7.661  0.2409 -0.2073  1.1103
 2378TIP3   OH228692   6.533   5.901   8.240  0.2128  0.7205 -0.0614
 2378TIP3    H128693   6.588   5.914   8.162 -0.8977  0.0719 -0.9789
 2378TIP3    H228694   6.531   5.807   8.252 -0.9100  0.7151 -0.2053
 2379TIP3   OH228695   3.709   5.432   2.352 -0.3493 -0.5939  0.0274
 2379TIP3    H128696   3.804   5.438   2.340 -0.3916 -0.5812 -0.2922
 2379TIP3    H228697   3.676   5.519   2.329 -0.4833 -0.7224 -0.2678
 2380TIP3   OH228698   4.168   6.826   8.060 -0.5367 -0.2684  0.6584
 2380TIP3    H128699   4.194   6.762   8.126 -0.6846 -1.7703 -0.6624
 2380TIP3    H228700   4.243   6.829   8.000 -0.9488  0.0085  0.1491
 2381TIP3   OH228701   6.722   2.387   8.294  0.0041 -0.1367 -0.3250
 2381TIP3    H128702   6.670   2.432   8.228 -0.1669 -0.1700 -0.2127
 2381TIP3    H228703   6.659   2.334   8.343  0.1258 -0.0888 -0.1148
 2382TIP3   OH228704   2.050   0.067   8.046 -0.2002 -0.0239  0.1759
 2382TIP3    H128705   2.042   0.044   7.953 -0.2041 -0.2122  0.2235
 2382TIP3    H228706   2.067   0.161   8.045 -1.0524  0.1376  0.0197
 2383TIP3   OH228707   0.909   1.394   7.255 -0.2554  0.1575 -0.3987
 2383TIP3    H128708   0.953   1.454   7.194  0.8729  1.7517  1.8400
 2383TIP3    H228709   0.839   1.447   7.294 -0.4070 -0.5350  0.2916
 2384TIP3   OH228710   4.257   4.973   1.241 -0.2646 -0.2075  0.0472
 2384TIP3    H128711   4.346   4.970   1.208 -0.1964 -0.5664  0.2608
 2384TIP3    H228712   4.205   5.005   1.168  0.1583  0.8308  0.1848
 2385TIP3   OH228713   3.940   1.607   7.829 -0.3432  0.0422 -0.0807
 2385TIP3    H128714   3.901   1.543   7.769 -3.4429 -0.4113  2.1546
 2385TIP3    H228715   3.951   1.686   7.776  1.1839 -1.5211 -2.2639
 2386TIP3   OH228716   5.027   2.229   1.525 -0.0247  0.1723 -0.3750
 2386TIP3    H128717   4.975   2.222   1.445 -0.7202 -1.0017  0.1616
 2386TIP3    H228718   4.969   2.200   1.594  0.1166  2.4205  0.7860
 2387TIP3   OH228719   3.167   1.758   7.719 -0.3584  0.3355  0.4272
 2387TIP3    H128720   3.246   1.796   7.681  0.8301 -1.2856  1.1669
 2387TIP3    H228721   3.174   1.774   7.813  0.9765 -2.8475  1.0115
 2388TIP3   OH228722   2.099   1.367   8.429  0.5024  0.2342  0.2061
 2388TIP3    H128723   2.116   1.401   8.342 -0.7101 -0.0877 -0.1838
 2388TIP3    H228724   2.017   1.409   8.456  0.9120  0.4111  1.2371
 2389TIP3   OH228725   5.704   4.239   7.840 -0.3890 -0.0461  0.1039
 2389TIP3    H128726   5.648   4.297   7.788 -1.3237 -0.0646  1.0635
 2389TIP3    H228727   5.663   4.153   7.832 -1.3432  0.1976  1.9432
 2390TIP3   OH228728   3.315   1.428   8.420 -0.1678 -0.0849 -0.4283
 2390TIP3    H128729   3.221   1.415   8.426 -0.1700  0.3776  0.8210
 2390TIP3    H228730   3.349   1.344   8.389 -1.0692  0.0729 -1.9719
 2391TIP3   OH228731   4.498   1.040   6.846  0.3257 -0.6587 -0.4291
 2391TIP3    H128732   4.500   0.949   6.816 -3.1231 -0.9033 -0.3275
 2391TIP3    H228733   4.478   1.034   6.940  0.2761  0.2128 -0.3764
 2392TIP3   OH228734   2.986   2.196   2.146 -0.5650  0.1488 -0.7322
 2392TIP3    H128735   2.910   2.224   2.196  1.3672  1.6733  1.6101
 2392TIP3    H228736   2.996   2.103   2.168 -1.2093  0.1866 -0.2618
 2393TIP3   OH228737   0.636   1.629   1.863  0.5639 -0.2491  0.2801
 2393TIP3    H128738   0.541   1.638   1.871  0.5983  1.5766 -0.7348
 2393TIP3    H228739   0.669   1.719   1.869  2.1731 -0.7647 -0.2087
 2394TIP3   OH228740   0.127   1.837   7.801 -0.8635  0.5195  0.3198
 2394TIP3    H128741   0.089   1.920   7.773  0.0332  0.1308 -2.3070
 2394TIP3    H228742   0.221   1.848   7.789 -0.8363 -1.5060 -2.2748
 2395TIP3   OH228743   3.848   3.880   8.346  0.0257 -0.1092 -0.2012
 2395TIP3    H128744   3.801   3.957   8.314  0.0822  0.4494  0.9804
 2395TIP3    H228745   3.929   3.878   8.295  0.5512  1.3060  0.5324
 2396TIP3   OH228746   6.727   0.203   8.544 -0.0595 -0.0416  0.3613
 2396TIP3    H128747   6.785   0.134   8.576  0.4769  0.0840 -0.3164
 2396TIP3    H228748   6.639   0.171   8.563  0.1844 -0.8997  0.0995
 2397TIP3   OH228749   0.910   1.912   0.344 -0.2872 -0.0421  0.3608
 2397TIP3    H128750   0.918   1.907   0.248 -2.2358 -2.4192  0.2324
 2397TIP3    H228751   0.945   1.829   0.376 -2.1277 -0.4533  1.4432
 2398TIP3   OH228752   2.822   5.543   1.783 -0.1360 -0.6025  0.4088
 2398TIP3    H128753   2.744   5.584   1.821  0.1026 -0.0258  0.2938
 2398TIP3    H228754   2.824   5.455   1.820  0.1127 -0.0479  1.7712
 2399TIP3   OH228755   0.182   4.295   6.844  0.0926  0.5181  0.3121
 2399TIP3    H128756   0.235   4.221   6.875 -0.8080  0.3898  1.6359
 2399TIP3    H228757   0.102   4.254   6.812  0.5643  0.7514 -1.2501
 2400TIP3   OH228758   3.655   0.412   1.244  0.5515  0.0430  0.7177
 2400TIP3    H128759   3.610   0.329   1.265  0.9473 -0.2499  0.4222
 2400TIP3    H228760   3.585   0.475   1.232  0.1798 -0.5584 -0.3846
 2401TIP3   OH228761   3.861   2.897   0.952  0.4061 -0.5724 -0.3554
 2401TIP3    H128762   3.944   2.896   1.000  1.0259 -0.8161 -1.4058
 2401TIP3    H228763   3.795   2.877   1.019  1.3069 -1.5353  0.2859
 2402TIP3   OH228764   2.003   0.065   0.483 -0.2634 -0.3400 -0.3879
 2402TIP3    H128765   1.909   0.053   0.497 -0.2073  0.9103  1.3707
 2402TIP3    H228766   2.012   0.156   0.457  0.5081 -0.2973 -0.0038
 2403TIP3   OH228767   5.930   0.558   1.908  0.3728  0.4246  0.2854
 2403TIP3    H128768   5.872   0.512   1.968 -0.1991  0.1996 -0.4341
 2403TIP3    H228769   5.913   0.651   1.924 -1.7774  0.3872 -1.3948
 2404TIP3   OH228770   3.600   6.762   7.539  0.0012  0.0458 -0.5080
 2404TIP3    H128771   3.627   6.831   7.479 -0.7703  1.9405  1.2036
 2404TIP3    H228772   3.676   6.747   7.596  0.6039 -1.4818 -1.6374
 2405TIP3   OH228773   2.228   1.222   2.063  0.1773 -0.6478 -0.2179
 2405TIP3    H128774   2.283   1.209   1.986  0.8448  0.8892 -0.0369
 2405TIP3    H228775   2.270   1.170   2.132  2.0765  1.2999  0.1903
 2406TIP3   OH228776   2.055   0.516   8.382  0.2202  0.3040  0.0012
 2406TIP3    H128777   2.029   0.597   8.425  0.8830  1.1457 -1.1532
 2406TIP3    H228778   1.989   0.502   8.314  0.5152  0.2769 -0.2849
 2407TIP3   OH228779   0.241   4.156   2.491 -0.6812 -0.4373  0.1820
 2407TIP3    H128780   0.246   4.106   2.573 -1.7781  0.7213  0.9992
 2407TIP3    H228781   0.247   4.247   2.518  1.3564 -0.0740 -1.2934
 2408TIP3   OH228782   4.560   3.797   2.912 -0.1210  0.2388  0.0416
 2408TIP3    H128783   4.573   3.792   3.006 -0.5624 -1.4895  0.0515
 2408TIP3    H228784   4.509   3.876   2.898 -0.9541 -0.0424  1.3626
 2409TIP3   OH228785   0.190   3.018   0.853  0.2642 -0.4212  0.1055
 2409TIP3    H128786   0.137   2.950   0.893 -0.3505  0.6803  1.2408
 2409TIP3    H228787   0.170   3.011   0.759 -0.3353 -1.3295  0.2827
 2410TIP3   OH228788   2.507   0.303   1.851 -0.3480 -0.3457  0.7877
 2410TIP3    H128789   2.452   0.281   1.776  0.8895 -1.0486  0.0652
 2410TIP3    H228790   2.464   0.380   1.890  0.0883  1.3713 -1.8717
 2411TIP3   OH228791   6.719   4.124   0.916 -0.2234  0.1686 -0.4200
 2411TIP3    H128792   6.772   4.079   0.850  0.2159 -0.4156  0.3198
 2411TIP3    H228793   6.644   4.066   0.930 -0.1032  0.0884 -0.1037
 2412TIP3   OH228794   5.432   0.459   0.205  0.1335 -0.2738 -0.1799
 2412TIP3    H128795   5.428   0.363   0.197 -0.1491 -0.2369 -0.5384
 2412TIP3    H228796   5.360   0.481   0.264  0.0875 -0.2662 -0.2395
 2413TIP3   OH228797   5.374   2.969   1.754 -0.4033  0.2646  0.1828
 2413TIP3    H128798   5.342   2.999   1.669 -0.0262 -1.8773 -0.7780
 2413TIP3    H228799   5.469   2.978   1.749 -0.4805  2.3141  1.3136
 2414TIP3   OH228800   4.438   1.232   7.883 -0.3098 -0.2702  0.8622
 2414TIP3    H128801   4.478   1.287   7.951 -0.5218 -0.4999  1.1797
 2414TIP3    H228802   4.364   1.190   7.928  0.3529 -1.4764  0.8734
 2415TIP3   OH228803   6.594   3.364   1.491 -0.0709 -0.3702 -0.2641
 2415TIP3    H128804   6.626   3.274   1.485 -1.7250 -1.2972  2.8295
 2415TIP3    H228805   6.643   3.402   1.564  0.4382  1.2319 -1.3869
 2416TIP3   OH228806   3.769   4.136   8.328  0.3551  0.4630 -0.5897
 2416TIP3    H128807   3.843   4.189   8.355  1.3247 -0.8939 -0.4581
 2416TIP3    H228808   3.709   4.197   8.286  2.2346  1.3547 -2.1041
 2417TIP3   OH228809   3.768   4.845   7.270  0.1226 -0.1933 -0.1798
 2417TIP3    H128810   3.759   4.756   7.305 -1.4533 -0.2437 -0.6176
 2417TIP3    H228811   3.777   4.900   7.348  0.7908 -0.6933  0.1101
 2418TIP3   OH228812   5.011   1.593   0.569  0.2004 -0.2098  0.3251
 2418TIP3    H128813   4.922   1.566   0.593 -0.1208 -1.1280 -1.7012
 2418TIP3    H228814   5.068   1.536   0.620 -0.3422  0.3294  1.5843
 2419TIP3   OH228815   3.478   2.471   2.415  0.0325 -0.0701 -0.2968
 2419TIP3    H128816   3.444   2.561   2.415  1.4900  0.5461  1.7218
 2419TIP3    H228817   3.573   2.480   2.414  0.2398 -1.5266  0.9216
 2420TIP3   OH228818   4.386   6.279   6.913  0.0648  0.2742 -0.6397
 2420TIP3    H128819   4.329   6.331   6.856 -1.0367  0.5249  0.6377
 2420TIP3    H228820   4.385   6.326   6.997  1.6908 -0.0568 -0.4076
 2421TIP3   OH228821   4.425   1.750   0.319  0.6019 -0.2274  0.2680
 2421TIP3    H128822   4.381   1.835   0.317  0.3486 -0.2920  1.9576
 2421TIP3    H228823   4.353   1.687   0.325  0.8439 -0.4732  0.5739
 2422TIP3   OH228824   5.873   6.612   0.884  0.1329  0.0289 -0.6987
 2422TIP3    H128825   5.906   6.524   0.898  0.9370  0.6349  1.6419
 2422TIP3    H228826   5.860   6.648   0.972 -0.7559  2.0458 -1.5722
 2423TIP3   OH228827   4.028   6.588   0.888 -0.4463 -0.2000  0.0975
 2423TIP3    H128828   3.979   6.644   0.829 -1.1730  0.5356  1.3575
 2423TIP3    H228829   4.077   6.648   0.944 -0.1682 -0.8609  0.5791
 2424TIP3   OH228830   1.117   3.423   0.533 -0.0003 -0.2633 -0.1231
 2424TIP3    H128831   1.182   3.354   0.537  1.1706  0.8251  0.1972
 2424TIP3    H228832   1.045   3.393   0.588  1.0232 -0.6808  1.0046
 2425TIP3   OH228833   6.614   0.368   0.623  0.3558  0.2157 -0.3297
 2425TIP3    H128834   6.529   0.336   0.593 -0.4953  2.3398 -0.3556
 2425TIP3    H228835   6.610   0.360   0.718  0.4830 -0.4953 -0.3799
 2426TIP3   OH228836   5.911   5.897   7.194 -0.6748 -0.2661  0.0710
 2426TIP3    H128837   5.915   5.992   7.189 -1.5556 -0.2322 -0.2457
 2426TIP3    H228838   5.846   5.872   7.128  0.3610 -1.1816 -0.6445
 2427TIP3   OH228839   3.478   2.684   2.920  0.1941 -0.0756 -0.0506
 2427TIP3    H128840   3.389   2.716   2.909  0.2552 -0.3516 -1.6091
 2427TIP3    H228841   3.523   2.753   2.969 -0.3544  1.0371 -1.0598
 2428TIP3   OH228842   1.527   5.793   0.565 -0.0799  0.4702  0.3825
 2428TIP3    H128843   1.622   5.804   0.574  0.3049 -1.3290 -0.8993
 2428TIP3    H228844   1.503   5.847   0.490  0.3615 -0.8130 -0.7200
 2429TIP3   OH228845   6.001   5.300   0.642  0.3384  0.4114 -0.1327
 2429TIP3    H128846   5.979   5.277   0.551 -1.7596  0.3085  0.3461
 2429TIP3    H228847   6.059   5.230   0.671 -0.3371 -0.4824 -0.8804
 2430TIP3   OH228848   3.787   5.272   2.735 -0.2302 -0.1178  0.4704
 2430TIP3    H128849   3.815   5.345   2.790 -1.7730  1.0160 -0.1601
 2430TIP3    H228850   3.741   5.213   2.795 -1.8464  1.0788  0.5029
 2431TIP3   OH228851   1.955   3.434   0.685  0.0430  0.3606  0.3118
 2431TIP3    H128852   1.891   3.505   0.689 -0.8015 -0.3979  0.4982
 2431TIP3    H228853   2.036   3.474   0.716 -0.2707  1.3975 -0.1511
 2432TIP3   OH228854   3.064   4.022   2.285 -0.1475  0.1992 -0.0933
 2432TIP3    H128855   2.982   3.976   2.267 -1.1567  0.0956  3.8191
 2432TIP3    H228856   3.132   3.955   2.273 -1.1372 -1.0351  0.8512
 2433TIP3   OH228857   1.587   1.395   6.613  0.1951 -0.1830  0.2885
 2433TIP3    H128858   1.571   1.449   6.535 -0.6111  0.6225  0.9906
 2433TIP3    H228859   1.500   1.366   6.640  0.4091  0.0260  1.2206
 2434TIP3   OH228860   2.448   2.335   0.295  0.4070  0.3899  0.2261
 2434TIP3    H128861   2.479   2.280   0.224 -0.9632 -3.3555  2.2478
 2434TIP3    H228862   2.513   2.323   0.365  0.0645  1.3883  0.7460
 2435TIP3   OH228863   3.466   5.414   7.360  0.6488 -0.2100 -0.5271
 2435TIP3    H128864   3.420   5.376   7.434  2.4844  0.3473  0.9721
 2435TIP3    H228865   3.402   5.413   7.288 -1.1478 -0.8432  1.0187
 2436TIP3   OH228866   0.855   0.254   8.096 -0.1041 -0.0079  0.6629
 2436TIP3    H128867   0.916   0.308   8.146  0.4896 -1.0079  1.0336
 2436TIP3    H228868   0.884   0.262   8.005 -0.5282  0.9468  0.6001
 2437TIP3   OH228869   1.814   1.648   1.762  0.6232 -0.0169 -0.2359
 2437TIP3    H128870   1.754   1.685   1.826  1.6785  1.3771  0.0045
 2437TIP3    H228871   1.768   1.656   1.679  0.1218  0.2261  0.0599
 2438TIP3   OH228872   2.431   2.424   1.937  0.8125 -0.2558  0.4156
 2438TIP3    H128873   2.495   2.486   1.902  1.2158 -0.9493 -0.1085
 2438TIP3    H228874   2.444   2.345   1.884 -0.8811 -0.2244 -0.0916
 2439TIP3   OH228875   5.220   5.856   2.051  0.2876  0.6142 -0.4898
 2439TIP3    H128876   5.304   5.832   2.090 -0.1663  1.4370  1.0822
 2439TIP3    H228877   5.166   5.778   2.061  0.3334  0.6531  0.1152
 2440TIP3   OH228878   0.773   1.469   0.193  0.2716  0.8049  0.3333
 2440TIP3    H128879   0.858   1.423   0.193  0.6590  1.5155  0.2835
 2440TIP3    H228880   0.782   1.535   0.262 -0.4608  0.4942  0.7334
 2441TIP3   OH228881   4.248   3.733   2.534 -0.1503  0.0262 -0.2635
 2441TIP3    H128882   4.197   3.813   2.543 -0.6884 -0.1635 -1.4853
 2441TIP3    H228883   4.186   3.662   2.549 -0.3924 -0.2139 -2.0845
 2442TIP3   OH228884   2.405   0.220   8.029  0.3450  0.2658 -0.1645
 2442TIP3    H128885   2.488   0.264   8.045  0.1394  1.1086 -1.3135
 2442TIP3    H228886   2.340   0.275   8.072 -0.0358  1.7469 -2.4445
 2443TIP3   OH228887   4.601   4.604   8.618 -0.7200 -0.0456 -0.3314
 2443TIP3    H128888   4.562   4.686   8.586 -0.0472  0.1827 -0.5908
 2443TIP3    H228889   4.694   4.613   8.596 -0.8146 -1.3607 -1.3944
 2444TIP3   OH228890   2.799   3.058   2.697 -0.1167  0.0808 -0.2871
 2444TIP3    H128891   2.854   3.136   2.705 -0.2905  0.3104 -1.2170
 2444TIP3    H228892   2.827   3.018   2.614 -2.6668  1.2696 -1.8485
 2445TIP3   OH228893   4.576   5.672   7.394 -0.0973 -0.2250  0.1616
 2445TIP3    H128894   4.606   5.679   7.303  0.2014  0.2323  0.2902
 2445TIP3    H228895   4.488   5.637   7.387 -0.3947  0.5909 -0.3550
 2446TIP3   OH228896   2.630   3.936   0.125  0.3542 -0.0179  0.1747
 2446TIP3    H128897   2.634   4.003   0.192  0.9917  0.3299 -0.1991
 2446TIP3    H228898   2.582   3.976   0.053 -1.0091 -0.6547  0.7030
 2447TIP3   OH228899   3.354   5.594   6.915 -0.3528 -0.1238  0.1789
 2447TIP3    H128900   3.272   5.623   6.955 -0.9484 -0.3193 -0.8649
 2447TIP3    H228901   3.377   5.664   6.854 -0.8844 -1.0258 -1.0885
 2448TIP3   OH228902   3.118   2.008   7.285  0.4283 -0.0525  0.7464
 2448TIP3    H128903   3.036   1.960   7.278 -0.1335  1.0785 -1.2439
 2448TIP3    H228904   3.119   2.064   7.208  1.6985  2.1095  2.2364
 2449TIP3   OH228905   0.600   4.023   1.391  0.1179  0.1991  0.5273
 2449TIP3    H128906   0.681   4.002   1.345  1.3787  0.3895  2.5392
 2449TIP3    H228907   0.596   4.119   1.389  0.1315  0.2039  0.7454
 2450TIP3   OH228908   2.747   1.659   1.981  0.0355  0.4479 -0.6319
 2450TIP3    H128909   2.760   1.635   2.073  0.3937 -2.0386 -1.2479
 2450TIP3    H228910   2.697   1.740   1.984  1.3670  1.2852  1.7564
 2451TIP3   OH228911   3.256   5.616   0.033 -0.5584  0.5914  0.6145
 2451TIP3    H128912   3.322   5.682   0.013 -0.7229  0.1493 -1.6298
 2451TIP3    H228913   3.199   5.658   0.097 -1.5805  3.3097 -1.8405
 2452TIP3   OH228914   2.099   5.952   8.238 -0.3490  0.3725  0.4249
 2452TIP3    H128915   2.046   5.955   8.317 -0.6189 -0.0046  0.2657
 2452TIP3    H228916   2.066   5.876   8.190  0.5933 -0.1099  0.5042
 2453TIP3   OH228917   5.238   5.170   8.275 -0.2296  0.2389  0.3041
 2453TIP3    H128918   5.238   5.249   8.221  1.2009 -0.8707 -1.4403
 2453TIP3    H228919   5.226   5.203   8.365  0.5852  2.4699 -0.3158
 2454TIP3   OH228920   3.576   2.098   7.455 -0.0824 -0.8275  0.4158
 2454TIP3    H128921   3.511   2.086   7.386 -0.5099 -0.4196  0.7425
 2454TIP3    H228922   3.546   2.175   7.503  0.4978 -0.7967  0.7351
 2455TIP3   OH228923   4.859   2.883   0.242 -0.0760 -0.0767 -0.5418
 2455TIP3    H128924   4.894   2.962   0.201 -1.5399  0.7862 -0.2135
 2455TIP3    H228925   4.928   2.855   0.302  1.1767 -0.0817 -1.9323
 2456TIP3   OH228926   6.204   5.943   7.926 -0.4413 -0.4548  0.2629
 2456TIP3    H128927   6.126   5.952   7.871 -1.1818 -0.6326  1.2419
 2456TIP3    H228928   6.277   5.952   7.866 -1.1706 -3.0016 -1.1768
 2457TIP3   OH228929   5.034   6.028   7.897  0.4907  0.1395  0.3596
 2457TIP3    H128930   4.970   6.052   7.965  2.0680 -1.4756  2.5599
 2457TIP3    H228931   5.001   5.947   7.860  0.7199 -0.1324  0.7465
 2458TIP3   OH228932   3.078   4.781   8.175 -0.0948  0.5001  0.0052
 2458TIP3    H128933   3.120   4.730   8.105 -1.0540 -0.1799 -0.0951
 2458TIP3    H228934   3.151   4.817   8.225  0.6290 -0.8203 -0.0440
 2459TIP3   OH228935   0.247   1.277   0.411 -0.0204 -0.5030 -0.2893
 2459TIP3    H128936   0.223   1.210   0.475 -2.3153  1.1150  0.7013
 2459TIP3    H228937   0.302   1.338   0.460 -0.2618 -0.2202 -0.3673
 2460TIP3   OH228938   4.256   0.293   2.002  0.9541  0.3871 -0.1339
 2460TIP3    H128939   4.329   0.248   2.043  2.4598  2.6265 -0.1604
 2460TIP3    H228940   4.297   0.357   1.943 -1.0150  1.6409 -0.2479
 2461TIP3   OH228941   2.024   0.406   1.493  0.6395 -0.0397 -0.6233
 2461TIP3    H128942   2.026   0.499   1.468 -0.3003  0.0772 -0.3207
 2461TIP3    H228943   1.931   0.387   1.504  0.9266 -0.0897  2.7647
 2462TIP3   OH228944   3.914   3.692   1.259  0.1300  0.1430 -0.1835
 2462TIP3    H128945   3.886   3.739   1.338  0.5368  1.2668 -0.6812
 2462TIP3    H228946   3.900   3.600   1.280  2.7024  0.1555  2.2220
 2463TIP3   OH228947   6.812   2.105   8.222  0.8902  0.2520  0.6363
 2463TIP3    H128948   6.768   2.097   8.138  0.3349 -0.7883  0.9982
 2463TIP3    H228949   6.791   2.193   8.253  1.4520  0.8009 -0.4855
 2464TIP3   OH228950   6.254   1.240   1.939 -0.0615 -0.0246 -0.0914
 2464TIP3    H128951   6.220   1.230   1.850 -0.9414  1.3610  0.0540
 2464TIP3    H228952   6.200   1.181   1.991 -0.5688  0.2766 -0.2619
 2465TIP3   OH228953   4.191   2.396   0.771 -0.5568 -0.5520  0.6460
 2465TIP3    H128954   4.167   2.398   0.864 -3.1201 -0.7636  0.0564
 2465TIP3    H228955   4.111   2.421   0.725  0.8754  0.3087 -1.4995
 2466TIP3   OH228956   3.167   2.854   2.005 -0.2388 -0.1642  0.1800
 2466TIP3    H128957   3.117   2.928   1.970 -0.0156  0.2926  0.8181
 2466TIP3    H228958   3.220   2.824   1.931 -1.9627 -1.1245 -0.7368
 2467TIP3   OH228959   2.576   1.386   0.217 -0.7781  0.5037 -0.1096
 2467TIP3    H128960   2.584   1.293   0.234 -3.9297  0.2350  0.4903
 2467TIP3    H228961   2.575   1.393   0.121  0.9420  0.1741 -0.1939
 2468TIP3   OH228962   1.627   0.072   0.229  0.2237 -0.1913  0.6772
 2468TIP3    H128963   1.557   0.104   0.286 -0.9485 -1.6244  0.1089
 2468TIP3    H228964   1.659  -0.007   0.274 -0.7485 -1.3653 -0.6144
 2469TIP3   OH228965   6.759   3.394   0.343  0.0103 -0.1246 -0.3595
 2469TIP3    H128966   6.760   3.385   0.438 -1.2485 -1.3843 -0.4325
 2469TIP3    H228967   6.846   3.428   0.321  0.1431  0.6615  1.2692
 2470TIP3   OH228968   0.911   1.875   1.435  0.0351 -0.0225 -0.6223
 2470TIP3    H128969   0.816   1.883   1.445  0.1746  1.9159 -0.5621
 2470TIP3    H228970   0.931   1.787   1.468 -1.6666 -0.3014 -0.2275
 2471TIP3   OH228971   4.461   6.784   8.207  0.9409 -0.2087 -0.5269
 2471TIP3    H128972   4.443   6.858   8.149  1.0472 -0.0465 -0.3538
 2471TIP3    H228973   4.549   6.756   8.182  0.9767 -0.1548 -0.4599
 2472TIP3   OH228974   6.781   4.905   8.019 -0.3522 -0.3051  0.1485
 2472TIP3    H128975   6.795   4.987   7.973 -2.6233 -0.4577 -0.9531
 2472TIP3    H228976   6.840   4.842   7.977 -0.4819  0.1803 -0.7703
 2473TIP3   OH228977   5.043   6.049   2.419 -0.2850  0.0353 -0.1554
 2473TIP3    H128978   5.027   6.027   2.327 -0.5746 -1.3498  0.2016
 2473TIP3    H228979   5.007   5.976   2.468  0.4797  0.4241  1.0437
 2474TIP3   OH228980   5.759   3.167   2.507  0.0103 -0.1739  0.0479
 2474TIP3    H128981   5.700   3.233   2.470 -1.6767 -2.0487 -0.7759
 2474TIP3    H228982   5.708   3.124   2.575  2.0027  1.0707  2.4866
 2475TIP3   OH228983   1.681   4.914   2.375 -0.1156 -0.1020 -0.0452
 2475TIP3    H128984   1.777   4.919   2.373 -0.0430 -1.1441  0.4631
 2475TIP3    H228985   1.658   4.924   2.467 -0.3395 -1.9661  0.1435
 2476TIP3   OH228986   0.548   2.695   8.392 -0.0246  0.6185 -0.5706
 2476TIP3    H128987   0.469   2.746   8.412 -1.6493 -1.3004 -1.7646
 2476TIP3    H228988   0.516   2.611   8.360  2.5389 -0.8137  0.2778
 2477TIP3   OH228989   2.007   1.181   6.790 -0.1411  0.1704 -0.2127
 2477TIP3    H128990   1.955   1.227   6.724 -1.3139 -0.3751  0.3022
 2477TIP3    H228991   1.974   1.091   6.787 -2.2299  0.6836  3.0077
 2478TIP3   OH228992   5.023   6.131   0.235 -0.8241  0.1986  0.1645
 2478TIP3    H128993   5.004   6.037   0.235  0.3580 -0.0853 -1.6366
 2478TIP3    H228994   4.953   6.170   0.183 -1.2723  0.3359  0.8494
 2479TIP3   OH228995   5.909   4.406   1.411  0.8745 -0.4059 -0.4087
 2479TIP3    H128996   5.823   4.364   1.421  1.2935 -1.1890 -0.0755
 2479TIP3    H228997   5.898   4.464   1.336 -0.4636  0.8289  0.6738
 2480TIP3   OH228998   4.293   3.234   8.506 -0.3618  0.1091  1.0843
 2480TIP3    H128999   4.292   3.251   8.600  1.2200  1.0665  0.9678
 2480TIP3    H229000   4.380   3.263   8.478 -0.9682  0.2507 -0.7454
 2481TIP3   OH229001   4.222   4.195   7.862  0.3535 -0.4444  0.0667
 2481TIP3    H129002   4.236   4.219   7.770  1.1185  0.2362  0.3558
 2481TIP3    H229003   4.258   4.106   7.869  0.8300 -0.2739 -0.1544
 2482TIP3   OH229004   3.161   4.461   2.024 -0.0547  0.5732 -0.8992
 2482TIP3    H129005   3.133   4.457   2.115  1.5001  0.2112 -0.4067
 2482TIP3    H229006   3.089   4.506   1.979 -0.3202  1.8642  0.7094
 2483TIP3   OH229007   1.419   0.965   0.240 -0.6734  0.1490  1.0281
 2483TIP3    H129008   1.508   0.968   0.276  0.0655  1.5118 -0.7523
 2483TIP3    H229009   1.430   0.924   0.154 -1.8438 -0.0929  0.9879
 2484TIP3   OH229010   0.870   6.097   1.307  0.0968  0.0829  0.4448
 2484TIP3    H129011   0.896   6.005   1.317 -0.1427  0.1743  2.1721
 2484TIP3    H229012   0.927   6.130   1.237  0.7727 -1.1499  0.3744
 2485TIP3   OH229013   5.792   0.371   2.111 -0.5696 -0.0375 -0.1229
 2485TIP3    H129014   5.745   0.340   2.188 -0.1160  0.2500  0.2725
 2485TIP3    H229015   5.730   0.361   2.039 -2.0150  2.2725  0.6966
 2486TIP3   OH229016   3.912   4.672   7.828 -0.0068 -0.7141 -0.4808
 2486TIP3    H129017   3.992   4.659   7.879  0.5778 -0.8443 -1.4030
 2486TIP3    H229018   3.929   4.750   7.775 -0.9962  0.0209  0.2540
 2487TIP3   OH229019   5.171   5.000   8.647 -0.3552  0.3516  0.3586
 2487TIP3    H129020   5.204   4.932   8.706 -0.9120  1.1161  1.5781
 2487TIP3    H229021   5.225   4.990   8.568 -1.9036 -3.0019 -0.4670
 2488TIP3   OH229022   1.833   1.969   8.086  0.1668 -0.3057 -0.2747
 2488TIP3    H129023   1.873   2.049   8.053 -1.2407  0.4923 -0.1415
 2488TIP3    H229024   1.826   1.912   8.010  3.2828 -1.2901  0.0504
 2489TIP3   OH229025   0.923   1.215   1.825 -0.1571  0.4247 -0.0863
 2489TIP3    H129026   0.889   1.261   1.902 -1.1019 -1.0348  0.4236
 2489TIP3    H229027   0.848   1.209   1.766  0.3874  0.9422 -0.8428
 2490TIP3   OH229028   4.934   0.238   0.128 -0.4483 -0.2723  0.2765
 2490TIP3    H129029   4.955   0.145   0.114 -0.6770 -0.5961  1.9519
 2490TIP3    H229030   4.844   0.238   0.158 -0.2298  0.4332  0.9450
 2491TIP3   OH229031   0.870   6.519   7.896 -0.4550  0.1238  0.0753
 2491TIP3    H129032   0.899   6.539   7.807 -1.3233  0.1865 -0.2004
 2491TIP3    H229033   0.951   6.500   7.943  0.1613  1.5789 -0.3391
 2492TIP3   OH229034   6.815   0.242   1.298 -0.1922 -0.1227  0.3164
 2492TIP3    H129035   6.733   0.229   1.251 -0.9715  0.1876  1.5732
 2492TIP3    H229036   6.798   0.313   1.359  0.5680 -0.9838  1.5831
 2493TIP3   OH229037   3.885   6.211   1.220  0.5052 -0.1222  0.0850
 2493TIP3    H129038   3.946   6.252   1.281  0.5998 -2.0015  1.3146
 2493TIP3    H229039   3.892   6.265   1.141  0.0973  2.6105  1.7763
 2494TIP3   OH229040   1.112   6.272   1.447  0.5132  0.1529  0.1346
 2494TIP3    H129041   1.179   6.316   1.395  0.1787  0.4953 -0.0099
 2494TIP3    H229042   1.043   6.337   1.457 -0.0307 -0.3757 -0.1621
 2495TIP3   OH229043   6.654   2.367   0.705  0.1585 -0.5528 -0.0621
 2495TIP3    H129044   6.598   2.400   0.635 -0.3169 -2.2082 -0.5198
 2495TIP3    H229045   6.614   2.283   0.729  2.0732 -1.4796  0.0269
 2496TIP3   OH229046   4.357   0.697   1.805 -0.2447  0.0248  0.1869
 2496TIP3    H129047   4.415   0.747   1.748  0.1700  1.5664  1.8645
 2496TIP3    H229048   4.387   0.606   1.796  0.1305  0.2884 -1.5953
 2497TIP3   OH229049   4.009   0.401   2.964  0.2524  0.6257 -0.4794
 2497TIP3    H129050   3.964   0.325   3.000 -0.0500  0.5910 -0.9123
 2497TIP3    H229051   4.019   0.461   3.038  1.3858 -0.2351  0.0933
 2498TIP3   OH229052   3.319   3.982   0.320  1.0147 -0.0386 -0.4050
 2498TIP3    H129053   3.264   4.025   0.253 -0.5027 -0.7456  0.3250
 2498TIP3    H229054   3.308   4.037   0.398 -0.0766 -1.1035  0.2289
 2499TIP3   OH229055   3.548   2.977   0.848  0.6915 -0.7353  0.0732
 2499TIP3    H129056   3.599   3.015   0.776  0.9044 -0.3935  0.4051
 2499TIP3    H229057   3.516   2.894   0.812  0.1034 -0.1846 -0.6949
 2500TIP3   OH229058   0.830   2.781   0.901 -0.1835  0.2881 -0.6837
 2500TIP3    H129059   0.768   2.832   0.849  0.7162  0.7081 -1.3670
 2500TIP3    H229060   0.916   2.807   0.868  0.3097 -1.4937 -0.8758
 2501TIP3   OH229061   3.606   0.365   2.340 -0.4785  0.0287  0.3732
 2501TIP3    H129062   3.675   0.413   2.385 -0.5269  0.6442 -0.1837
 2501TIP3    H229063   3.646   0.281   2.316 -0.2262  0.0006  0.8926
 2502TIP3   OH229064   5.900   4.936   6.850 -0.1174  0.6287 -0.3317
 2502TIP3    H129065   5.984   4.924   6.807  0.8262 -2.1746  1.9704
 2502TIP3    H229066   5.905   5.024   6.889  1.2912  0.8978 -1.0705
 2503TIP3   OH229067   0.868   3.732   2.816  0.3936 -0.0998 -0.4024
 2503TIP3    H129068   0.889   3.640   2.833  0.1431  0.1616  1.4936
 2503TIP3    H229069   0.953   3.775   2.805  0.6709 -0.0942  1.4533
 2504TIP3   OH229070   6.414   0.510   8.370 -0.2509  0.2804 -0.7199
 2504TIP3    H129071   6.456   0.557   8.441 -0.1700  0.3597 -0.8211
 2504TIP3    H229072   6.322   0.504   8.397  0.0938 -1.2854  0.2622
 2505TIP3   OH229073   5.705   1.404   1.481  0.0855  0.2173  0.3053
 2505TIP3    H129074   5.672   1.322   1.444  1.1808 -0.2239  0.2596
 2505TIP3    H229075   5.760   1.376   1.554 -0.6318  0.9965  1.1705
 2506TIP3   OH229076   3.828   1.942   1.608  0.3110 -0.1620 -0.4163
 2506TIP3    H129077   3.898   1.987   1.561 -0.5656  0.3860 -1.2162
 2506TIP3    H229078   3.872   1.904   1.684  1.2714  1.1200 -0.2959
 2507TIP3   OH229079   2.106   3.627   2.366 -0.5056  0.2502  0.0005
 2507TIP3    H129080   2.110   3.665   2.278 -0.6119  0.2444 -0.0068
 2507TIP3    H229081   2.035   3.675   2.410  0.0218  0.7517  0.3161
 2508TIP3   OH229082   1.672   4.692   8.142 -0.5814 -0.8542  0.2750
 2508TIP3    H129083   1.585   4.685   8.182 -0.7982  0.6138  0.1337
 2508TIP3    H229084   1.712   4.767   8.186  0.2683 -0.9619 -0.2993
 2509TIP3   OH229085   6.005   1.701   0.902  0.3875 -0.1185 -0.3560
 2509TIP3    H129086   5.944   1.650   0.955 -0.9031 -1.5514 -3.0022
 2509TIP3    H229087   5.997   1.791   0.935 -3.0498 -0.2834 -0.3933
 2510TIP3   OH229088   1.300   2.217   1.144  0.0694  0.0524 -0.0609
 2510TIP3    H129089   1.224   2.243   1.091  0.0659 -0.2498 -0.2060
 2510TIP3    H229090   1.354   2.164   1.085  0.8060  0.9448 -0.2045
 2511TIP3   OH229091   3.529   2.906   7.260  0.1837 -0.0523 -0.1793
 2511TIP3    H129092   3.602   2.967   7.252  1.5456 -1.3668  1.4871
 2511TIP3    H229093   3.494   2.921   7.347 -2.5031  1.4707 -1.3942
 2512TIP3   OH229094   2.522   4.616   0.215  0.1968  0.8899 -0.3720
 2512TIP3    H129095   2.450   4.672   0.243  0.6841  0.5473  1.6973
 2512TIP3    H229096   2.507   4.533   0.261 -0.6769 -0.9212 -3.5535
 2513TIP3   OH229097   0.927   4.371   0.763 -0.6000  0.4549  0.3538
 2513TIP3    H129098   0.971   4.372   0.848  0.5814  1.2740 -0.2450
 2513TIP3    H229099   0.961   4.448   0.717 -1.1609 -0.0154 -0.8936
 2514TIP3   OH229100   3.144   3.884   7.191  0.0752 -0.0588 -0.0231
 2514TIP3    H129101   3.140   3.954   7.126  1.7120  0.7277  0.6699
 2514TIP3    H229102   3.129   3.804   7.141 -0.5957  0.6715 -1.0358
 2515TIP3   OH229103   2.037   5.221   0.369  0.4403 -0.2615  0.5587
 2515TIP3    H129104   1.975   5.246   0.301  0.4610 -0.2611  0.5402
 2515TIP3    H229105   1.983   5.204   0.446  0.3125 -1.2741  0.2655
 2516TIP3   OH229106   0.445   2.975   8.184  0.2558 -0.2543  0.3123
 2516TIP3    H129107   0.449   3.023   8.102  0.0360 -0.2853  0.2831
 2516TIP3    H229108   0.405   2.891   8.160 -1.7660  0.5199  0.8178
 2517TIP3   OH229109   1.615   2.168   7.908 -0.9363 -0.4198  0.2372
 2517TIP3    H129110   1.706   2.184   7.932 -1.1724  0.4492  0.5926
 2517TIP3    H229111   1.618   2.148   7.814 -0.6662  2.5918 -0.4925
 2518TIP3   OH229112   5.531   3.863   7.224  0.0306 -0.7871  0.0505
 2518TIP3    H129113   5.608   3.824   7.182  0.5630 -1.7516  1.8169
 2518TIP3    H229114   5.567   3.923   7.289 -0.7682  0.1959 -0.3821
 2519TIP3   OH229115   4.027   2.125   0.315 -0.0869 -0.0319 -0.3147
 2519TIP3    H129116   4.044   2.211   0.352 -0.4718  0.1541 -0.5579
 2519TIP3    H229117   4.028   2.139   0.220 -0.2511 -0.2752 -0.3541
 2520TIP3   OH229118   4.730   6.103   0.663  0.4642 -0.0422  0.0632
 2520TIP3    H129119   4.750   6.187   0.620  1.9176 -0.9146 -1.0624
 2520TIP3    H229120   4.674   6.057   0.601  0.5901 -0.3485  0.1759
 2521TIP3   OH229121   2.117   5.779   8.538  0.0554 -0.3224 -0.1209
 2521TIP3    H129122   2.193   5.836   8.532 -0.4189  0.1958 -1.3850
 2521TIP3    H229123   2.042   5.839   8.543 -0.4000 -0.8149 -0.8266
 2522TIP3   OH229124   5.340   1.620   8.395 -0.3637  0.1699  0.0758
 2522TIP3    H129125   5.349   1.713   8.378 -2.8768 -0.0204 -3.3858
 2522TIP3    H229126   5.302   1.614   8.482  0.5773  2.3044  0.6732
 2523TIP3   OH229127   1.848   0.196   8.206  0.1031  0.0806  0.1473
 2523TIP3    H129128   1.837   0.150   8.289 -1.7708 -0.5858 -0.4024
 2523TIP3    H229129   1.930   0.163   8.170  0.2973 -0.5752  1.1667
 2524TIP3   OH229130   6.113   2.761   0.700  0.2372  0.0021  0.2884
 2524TIP3    H129131   6.022   2.792   0.697  0.6937  1.5382  1.1208
 2524TIP3    H229132   6.131   2.750   0.793  1.1068  0.3729  0.1733
 2525TIP3   OH229133   5.627   0.053   1.922 -0.2156 -0.0461 -0.0727
 2525TIP3    H129134   5.643   0.147   1.912  0.1633  0.2086  2.3557
 2525TIP3    H229135   5.705   0.011   1.885 -0.6732  0.5233 -1.7624
 2526TIP3   OH229136   0.296   4.505   1.421  0.6379  0.3035 -0.0361
 2526TIP3    H129137   0.361   4.554   1.371  0.3342 -0.8779 -1.7011
 2526TIP3    H229138   0.241   4.464   1.354 -0.9245  0.0826  1.3133
 2527TIP3   OH229139   1.655   0.713   2.427  0.3578  0.6273  0.0971
 2527TIP3    H129140   1.663   0.629   2.472 -0.7234  1.1990  1.4582
 2527TIP3    H229141   1.626   0.774   2.496 -1.0712  1.6138 -1.2985
 2528TIP3   OH229142   2.073   1.169   8.231 -0.5069  0.0090  0.5378
 2528TIP3    H129143   2.065   1.190   8.324 -2.3552 -1.5260  0.7845
 2528TIP3    H229144   2.081   1.254   8.188 -4.9691  1.2518  1.6704
 2529TIP3   OH229145   4.190   0.807   1.103  0.0889  0.8077 -0.0333
 2529TIP3    H129146   4.137   0.886   1.103 -0.6920  0.3125 -0.9715
 2529TIP3    H229147   4.277   0.835   1.131 -0.8205  1.5148  2.3613
 2530TIP3   OH229148   0.432   1.706   0.679  0.1892  0.2246  1.0857
 2530TIP3    H129149   0.424   1.615   0.651  0.3640  0.0314  1.6288
 2530TIP3    H229150   0.418   1.758   0.600 -0.1982 -0.2653  0.8287
 2531TIP3   OH229151   2.903   4.659   8.631 -0.0381 -0.6965 -0.4341
 2531TIP3    H129152   2.941   4.656   8.543 -1.1267 -0.8135 -0.9100
 2531TIP3    H229153   2.821   4.612   8.624 -0.4752 -0.1140  0.4877
 2532TIP3   OH229154   1.251   2.102   7.892  0.2400  0.7853 -0.7344
 2532TIP3    H129155   1.292   2.099   7.978 -1.2798  2.9288  0.1329
 2532TIP3    H229156   1.177   2.042   7.898 -1.0974  2.4614  0.2018
 2533TIP3   OH229157   3.320   3.572   8.204  0.2820  0.2390  0.0643
 2533TIP3    H129158   3.359   3.562   8.291  3.2474  1.9422 -0.9077
 2533TIP3    H229159   3.343   3.492   8.157  1.4736  0.6319 -0.0559
 2534TIP3   OH229160   3.780   0.359   8.358 -0.9764 -0.0689  0.3204
 2534TIP3    H129161   3.852   0.417   8.383 -1.0994  0.1172  0.2410
 2534TIP3    H229162   3.709   0.417   8.334 -1.0300 -0.2486  0.0361
 2535TIP3   OH229163   4.737   2.083   7.287 -0.2911  0.2450  0.4438
 2535TIP3    H129164   4.809   2.030   7.320  2.1268  1.3886 -2.5903
 2535TIP3    H229165   4.756   2.172   7.319 -1.2663  0.3068  0.8998
 2536TIP3   OH229166   4.066   2.829   8.000 -0.1633  0.1579 -0.4021
 2536TIP3    H129167   4.121   2.814   7.922  1.3552  0.1832  0.6266
 2536TIP3    H229168   4.128   2.827   8.073 -1.7086 -0.9664  0.9228
 2537TIP3   OH229169   3.300   0.139   7.443 -0.8934 -0.0520  0.2635
 2537TIP3    H129170   3.320   0.228   7.472  1.5203 -0.4945  0.1342
 2537TIP3    H229171   3.266   0.150   7.355 -0.5829  0.7458  0.2328
 2538TIP3   OH229172   5.453   0.217   0.907 -0.2635  0.6430  0.0180
 2538TIP3    H129173   5.364   0.195   0.933 -0.5247  0.5484 -0.9228
 2538TIP3    H229174   5.507   0.195   0.984 -0.8620 -0.7066  0.0849
 2539TIP3   OH229175   2.415   1.517   1.282 -0.2945  0.0335 -0.1115
 2539TIP3    H129176   2.462   1.433   1.289 -0.6664 -0.2212 -0.5776
 2539TIP3    H229177   2.468   1.569   1.222  0.3089  0.4043  0.7168
 2540TIP3   OH229178   3.121   3.668   7.439  0.8743  0.2002  0.4088
 2540TIP3    H129179   3.187   3.640   7.376  1.7447 -1.1261  1.8326
 2540TIP3    H229180   3.039   3.666   7.389  1.4969 -1.0281 -0.6316
 2541TIP3   OH229181   3.929   3.163   8.583  0.2821 -0.0310  0.2156
 2541TIP3    H129182   4.013   3.182   8.625  0.3655 -0.3531  0.2003
 2541TIP3    H229183   3.864   3.207   8.638  0.2828 -1.3744  1.3420
 2542TIP3   OH229184   1.915   6.004   8.441  0.6038 -0.3489 -0.0063
 2542TIP3    H129185   1.865   6.039   8.367  0.3801 -1.3890 -0.3724
 2542TIP3    H229186   1.931   6.079   8.498  2.3907  0.8604 -1.9888
 2543TIP3   OH229187   2.882   2.926   0.082  0.4707  0.4088  0.0327
 2543TIP3    H129188   2.918   2.841   0.057 -0.5920 -0.0905  0.1418
 2543TIP3    H229189   2.953   2.988   0.065  0.9477 -0.3723 -0.9176
 2544TIP3   OH229190   3.137   4.122   7.019 -0.3492  0.6610 -0.1727
 2544TIP3    H129191   3.117   4.204   7.064  0.1710  1.0700 -0.6683
 2544TIP3    H229192   3.232   4.125   7.005 -0.3967  0.1927 -0.6196
 2545TIP3   OH229193   2.028   1.775   7.665  0.2473  0.1993 -0.1719
 2545TIP3    H129194   2.051   1.868   7.658  2.5768 -0.3715 -0.9640
 2545TIP3    H229195   2.081   1.743   7.737 -2.0873 -0.1552  1.4935
 2546TIP3   OH229196   1.439   3.685   1.148  0.2256  0.2940  0.0189
 2546TIP3    H129197   1.438   3.602   1.100  0.7930 -0.5861  1.4851
 2546TIP3    H229198   1.498   3.670   1.221 -2.4195  0.7950  2.4135
 2547TIP3   OH229199   2.453   0.614   1.927  0.3141 -0.7742  0.0130
 2547TIP3    H129200   2.539   0.592   1.891 -0.2197 -0.8298 -1.2628
 2547TIP3    H229201   2.391   0.563   1.875 -0.6157  0.4741 -0.1534
 2548TIP3   OH229202   6.835   5.176   0.042  0.3276 -0.2323 -0.6844
 2548TIP3    H129203   6.863   5.231   0.115  2.3484 -0.2143 -1.4197
 2548TIP3    H229204   6.805   5.095   0.084  2.5670 -0.6861  0.1614
 2549TIP3   OH229205   5.619   2.846   2.890  0.1894 -0.4094 -0.0833
 2549TIP3    H129206   5.552   2.779   2.899  0.4884 -0.8038 -0.7252
 2549TIP3    H229207   5.702   2.797   2.889  0.5537  0.1189  1.4269
 2550TIP3   OH229208   1.395   3.076   0.221 -0.2098 -0.4508  0.4186
 2550TIP3    H129209   1.413   3.167   0.196 -0.5338 -0.5534 -0.2045
 2550TIP3    H229210   1.459   3.057   0.290  0.8564 -0.2352 -0.4968
 2551TIP3   OH229211   6.525   4.279   1.607  0.3469  0.5423 -0.6242
 2551TIP3    H129212   6.581   4.314   1.676  2.0011  0.0801 -1.6861
 2551TIP3    H229213   6.582   4.220   1.557 -0.5183  1.5629 -2.9490
 2552TIP3   OH229214   3.310   1.264   1.206 -0.4222 -0.1989  0.7818
 2552TIP3    H129215   3.259   1.237   1.282  0.3213 -2.1695  0.6465
 2552TIP3    H229216   3.277   1.209   1.135 -1.1563  1.6541 -0.3931
 2553TIP3   OH229217   6.237   1.439   8.581 -0.0001  0.2269  0.2799
 2553TIP3    H129218   6.216   1.391   8.500  0.8707 -2.2234  1.3847
 2553TIP3    H229219   6.164   1.498   8.593 -1.2055 -0.8528 -1.2138
 2554TIP3   OH229220   2.105   2.538   2.861  0.1181  0.6090 -0.2485
 2554TIP3    H129221   2.197   2.530   2.887  0.1532 -1.1974 -0.8260
 2554TIP3    H229222   2.076   2.618   2.904  1.4196  0.1789  1.5689
 2555TIP3   OH229223   4.356   6.086   8.286 -0.2341 -0.1737 -0.0558
 2555TIP3    H129224   4.311   6.027   8.347 -2.3285 -1.0203 -2.2452
 2555TIP3    H229225   4.314   6.069   8.202  0.5868  2.9281 -1.2248
 2556TIP3   OH229226   0.565   6.185   8.066 -0.0265 -0.1236  0.0309
 2556TIP3    H129227   0.626   6.258   8.056  1.5915 -1.4921 -0.7033
 2556TIP3    H229228   0.519   6.180   7.982  0.0156 -0.0830  0.0056
 2557TIP3   OH229229   2.967   3.385   0.079  0.0916  1.2998 -0.1744
 2557TIP3    H129230   2.890   3.333   0.058 -0.1635  0.5851  2.2439
 2557TIP3    H229231   2.935   3.452   0.139  1.1982  1.5557  0.1561
 2558TIP3   OH229232   1.948   3.696   7.770  0.4746 -0.5118 -1.3646
 2558TIP3    H129233   1.949   3.775   7.824 -0.4842 -0.1929 -1.7971
 2558TIP3    H229234   1.901   3.632   7.823  0.7584 -0.6253 -1.2477
 2559TIP3   OH229235   4.498   6.443   1.787 -0.2631 -0.0376 -0.3129
 2559TIP3    H129236   4.554   6.499   1.734 -0.0831 -0.6284 -0.7565
 2559TIP3    H229237   4.506   6.356   1.748  0.8695 -0.7762  1.4535
 2560TIP3   OH229238   6.019   6.045   1.886 -0.6193 -0.1868  0.5208
 2560TIP3    H129239   5.966   6.037   1.965 -0.9777  0.8152  0.4025
 2560TIP3    H229240   6.001   6.134   1.854 -2.1789 -1.2953 -1.9174
 2561TIP3   OH229241   4.257   5.993   1.753  0.2290  0.1337  0.3738
 2561TIP3    H129242   4.161   5.991   1.748  0.2551 -1.0743 -0.0910
 2561TIP3    H229243   4.284   5.906   1.722  1.5402  0.9630 -0.9416
 2562TIP3   OH229244   0.229   2.547   2.607 -0.1695 -0.7773 -0.6252
 2562TIP3    H129245   0.177   2.470   2.631 -1.5201 -0.1729 -1.4730
 2562TIP3    H229246   0.166   2.620   2.611  0.0444 -0.3044 -3.6456
 2563TIP3   OH229247   4.529   4.973   1.698  0.3808 -0.1989  0.3737
 2563TIP3    H129248   4.448   5.022   1.686 -0.4450 -1.4869  0.4558
 2563TIP3    H229249   4.560   4.956   1.609 -1.6966 -3.2220  0.0618
 2564TIP3   OH229250   2.068   3.972   0.722  0.0914 -0.0313  0.5710
 2564TIP3    H129251   2.125   4.037   0.681 -3.1327  3.4817  1.0550
 2564TIP3    H229252   1.993   3.966   0.662 -0.6527 -1.7280  1.6247
 2565TIP3   OH229253   5.328   5.877   7.530  0.1569  0.5292  0.2164
 2565TIP3    H129254   5.299   5.808   7.470 -0.2050 -0.0306  1.0221
 2565TIP3    H229255   5.374   5.831   7.599  0.7872  1.1954  0.2525
 2566TIP3   OH229256   1.167   5.392   7.803  0.0401 -0.0211  0.1434
 2566TIP3    H129257   1.242   5.436   7.764  0.4297 -0.1005  0.7863
 2566TIP3    H229258   1.174   5.301   7.773 -1.4698  0.5699 -2.2224
 2567TIP3   OH229259   5.557   0.853   2.450 -0.0811  0.5937 -0.2987
 2567TIP3    H129260   5.593   0.939   2.472  1.4966  0.1048 -0.7631
 2567TIP3    H229261   5.583   0.797   2.523 -0.1866  0.2911 -0.4938
 2568TIP3   OH229262   1.707   6.553   0.322  0.0039 -0.1871 -0.6247
 2568TIP3    H129263   1.628   6.601   0.346  0.9425  1.5241 -0.7552
 2568TIP3    H229264   1.765   6.563   0.397  0.9977  0.7434 -1.4658
 2569TIP3   OH229265   2.661   4.028   1.890 -0.1948 -0.3470 -0.1533
 2569TIP3    H129266   2.674   4.005   1.982  0.7527  0.4934 -0.0639
 2569TIP3    H229267   2.738   3.994   1.845  0.8780  1.9256 -0.1282
 2570TIP3   OH229268   4.816   2.076   6.748  0.0809  0.4753 -0.2321
 2570TIP3    H129269   4.803   2.106   6.838 -0.1038  0.2718 -0.1902
 2570TIP3    H229270   4.904   2.107   6.725  1.3087 -1.7732  0.9885
 2571TIP3   OH229271   2.680   2.697   2.118  0.1485 -0.5876  0.0350
 2571TIP3    H129272   2.709   2.636   2.049  0.1076  1.0409 -1.4954
 2571TIP3    H229273   2.641   2.641   2.185  0.7897 -2.2959 -0.9635
 2572TIP3   OH229274   0.349   5.454   3.498 -0.2679  0.4038  0.1033
 2572TIP3    H129275   0.322   5.480   3.410 -1.4498 -0.1336  0.2891
 2572TIP3    H229276   0.268   5.446   3.547  0.4615  2.7424  1.8804
 2573TIP3   OH229277   0.092   1.574   0.226  0.4234 -0.1750  0.0693
 2573TIP3    H129278   0.101   1.612   0.313 -0.7016  1.3437 -0.4442
 2573TIP3    H229279  -0.002   1.570   0.211  0.5998 -0.5148 -1.0429
 2574TIP3   OH229280   1.197   1.460   0.182 -0.3126 -0.2086  1.0213
 2574TIP3    H129281   1.215   1.480   0.274  1.1750 -0.7149  0.8621
 2574TIP3    H229282   1.227   1.370   0.170  2.1534  0.7254 -0.5896
 2575TIP3   OH229283   3.550   0.775   7.284  0.1478  0.1234  0.0186
 2575TIP3    H129284   3.512   0.790   7.370  1.3044  0.7569  0.4366
 2575TIP3    H229285   3.489   0.817   7.223  0.6785  2.0758  0.7621
 2576TIP3   OH229286   0.330   3.664   2.801 -0.2986  0.1297 -0.1945
 2576TIP3    H129287   0.249   3.631   2.761 -0.5639  1.5968 -0.9369
 2576TIP3    H229288   0.381   3.585   2.819 -1.8743 -0.8397  0.2768
 2577TIP3   OH229289   3.943   0.479   0.159 -0.1331  0.0908  0.3037
 2577TIP3    H129290   3.950   0.393   0.117 -1.1742 -1.1173  2.4974
 2577TIP3    H229291   3.939   0.461   0.252  0.6680  2.6162  0.9208
 2578TIP3   OH229292   5.810   5.481   6.937  0.5334  0.3498 -0.0323
 2578TIP3    H129293   5.808   5.423   6.861  0.7464  0.4556 -0.1203
 2578TIP3    H229294   5.902   5.482   6.964  0.3604 -0.1429  0.5783
 2579TIP3   OH229295   3.924   5.741   3.175 -0.3397 -0.1175 -0.6438
 2579TIP3    H129296   3.987   5.806   3.206  0.3270 -0.5526 -1.0718
 2579TIP3    H229297   3.945   5.729   3.083 -1.2129 -0.0878 -0.8616
 2580TIP3   OH229298   2.159   5.796   7.883  0.2390  0.1237 -0.1436
 2580TIP3    H129299   2.095   5.762   7.946  0.3214 -0.1024 -0.1786
 2580TIP3    H229300   2.152   5.737   7.808  0.1862  0.3551 -0.3205
 2581TIP3   OH229301   4.891   6.318   8.054 -0.3717 -0.1252 -0.1035
 2581TIP3    H129302   4.830   6.340   7.983  1.1927  0.3621 -1.3594
 2581TIP3    H229303   4.854   6.239   8.093 -0.8301 -0.9600 -2.0802
 2582TIP3   OH229304   4.665   1.682   8.032 -0.4632 -0.3729  0.4146
 2582TIP3    H129305   4.747   1.661   8.077 -0.0090 -0.0037 -0.2184
 2582TIP3    H229306   4.616   1.734   8.095  0.5641  0.9485  0.1771
 2583TIP3   OH229307   5.788   4.517   7.634 -0.0060 -0.2685  0.7010
 2583TIP3    H129308   5.741   4.434   7.645 -0.2849 -0.1880  0.1295
 2583TIP3    H229309   5.744   4.577   7.694 -1.0757 -0.0191 -0.2891
 2584TIP3   OH229310   5.258   3.925   2.057 -0.4344 -0.1200  0.2155
 2584TIP3    H129311   5.181   3.875   2.083 -2.6028  1.4419 -2.6156
 2584TIP3    H229312   5.257   4.003   2.112 -0.1540 -0.6590  0.9944
 2585TIP3   OH229313   2.594   2.893   0.902  0.1752  0.0523  0.1337
 2585TIP3    H129314   2.603   2.951   0.826 -0.5332  0.0545  0.0449
 2585TIP3    H229315   2.511   2.919   0.942 -0.4848 -1.3222 -0.2830
 2586TIP3   OH229316   2.956   3.475   0.997 -0.2433 -0.1969  0.4377
 2586TIP3    H129317   2.985   3.387   1.021 -2.8409 -0.9736  1.0953
 2586TIP3    H229318   2.966   3.478   0.902  0.6105 -0.8961  0.4870
 2587TIP3   OH229319   3.625   1.134   1.259  0.2010 -0.6943 -0.9528
 2587TIP3    H129320   3.602   1.226   1.256  2.2053 -0.1271 -0.7780
 2587TIP3    H229321   3.647   1.118   1.351  1.4360 -0.8764 -1.2535
 2588TIP3   OH229322   4.611   6.842   0.331 -0.5310  0.2907 -0.1945
 2588TIP3    H129323   4.681   6.781   0.357 -1.1016  0.0967  0.9282
 2588TIP3    H229324   4.566   6.864   0.412  0.6517  3.5347 -0.2616
 2589TIP3   OH229325   3.941   1.677   8.089 -0.4119 -0.5795  0.1583
 2589TIP3    H129326   3.845   1.676   8.091 -0.4826  0.5782 -1.2984
 2589TIP3    H229327   3.964   1.627   8.011  0.2105 -1.1960  0.7204
 2590TIP3   OH229328   5.161   4.730   8.583 -0.0415 -0.4283 -0.2380
 2590TIP3    H129329   5.087   4.746   8.641  0.9928  0.0468  1.0097
 2590TIP3    H229330   5.166   4.634   8.576  0.3457 -0.5395  1.2178
 2591TIP3   OH229331   0.889   4.829   2.214 -0.7103  0.5138  0.2513
 2591TIP3    H129332   0.813   4.860   2.164 -0.2579  1.0312 -0.1235
 2591TIP3    H229333   0.921   4.907   2.259  0.8299  0.7678 -1.2032
 2592TIP3   OH229334   5.364   5.284   0.146 -0.2162 -0.3812  0.6924
 2592TIP3    H129335   5.378   5.221   0.217 -1.9624  0.8061  2.1801
 2592TIP3    H229336   5.396   5.367   0.181  2.3365 -0.3735 -1.3494
 2593TIP3   OH229337   5.313   5.668   1.121 -0.1940  0.0750  0.0881
 2593TIP3    H129338   5.362   5.647   1.201 -1.5532 -0.4876  0.8023
 2593TIP3    H229339   5.223   5.647   1.142 -0.4962 -0.7446 -1.8476
 2594TIP3   OH229340   0.169   3.323   2.017 -0.1346  0.1433 -0.1568
 2594TIP3    H129341   0.140   3.305   2.107  2.0187 -1.6101  0.2800
 2594TIP3    H229342   0.216   3.243   1.991 -1.6864  0.1116 -3.3185
 2595TIP3   OH229343   3.846   3.462   1.413 -0.0439 -0.0958  0.3881
 2595TIP3    H129344   3.898   3.395   1.369  2.0288  1.1774  0.7893
 2595TIP3    H229345   3.756   3.428   1.411  0.5463 -1.6892 -1.6316
 2596TIP3   OH229346   1.828   2.126   8.646 -0.5092 -0.0051  0.3567
 2596TIP3    H129347   1.749   2.128   8.591  0.9077 -2.6144 -2.0271
 2596TIP3    H229348   1.901   2.121   8.584  1.4271 -0.1002  2.4813
 2597TIP3   OH229349   6.273   2.844   0.374 -0.2027  0.1389 -0.0889
 2597TIP3    H129350   6.238   2.822   0.460 -1.4625  0.4825 -0.5077
 2597TIP3    H229351   6.368   2.830   0.383 -0.1084  1.6281  1.7910
 2598TIP3   OH229352   1.680   1.161   7.508 -0.6007  0.2921 -0.0949
 2598TIP3    H129353   1.614   1.181   7.441 -1.8039 -5.0749 -0.9432
 2598TIP3    H229354   1.631   1.159   7.590 -0.7908 -0.3309 -0.2163
 2599TIP3   OH229355   0.120   5.764   8.193  0.9650  0.4220 -0.9689
 2599TIP3    H129356   0.130   5.812   8.276 -1.3962 -0.9626  0.2530
 2599TIP3    H229357   0.194   5.703   8.191 -0.1708 -1.2258  1.4703
 2600TIP3   OH229358   4.580   4.827   6.970 -0.0360 -0.4214 -0.4448
 2600TIP3    H129359   4.615   4.845   7.057 -1.3665  0.4645 -0.0571
 2600TIP3    H229360   4.494   4.788   6.986  0.4329 -1.8960 -1.3636
 2601TIP3   OH229361   1.755   0.388   1.476 -0.1370 -0.2381  0.6013
 2601TIP3    H129362   1.715   0.444   1.410 -0.4689  0.2352  1.1912
 2601TIP3    H229363   1.687   0.324   1.498  0.3443 -1.0703 -0.2875
 2602TIP3   OH229364   6.241   2.026   1.746  0.2081 -0.6219  0.5336
 2602TIP3    H129365   6.238   2.017   1.842 -1.3889 -0.6257  0.4960
 2602TIP3    H229366   6.161   1.984   1.715  0.9567 -1.0861 -0.8588
 2603TIP3   OH229367   6.768   5.950   2.296  0.1804 -0.1869 -0.1193
 2603TIP3    H129368   6.761   5.906   2.212 -2.5479  0.3746 -0.2702
 2603TIP3    H229369   6.759   6.043   2.276 -0.9731 -0.0757  0.7681
 2604TIP3   OH229370   3.983   2.677   0.391  0.4834 -0.0208  0.2682
 2604TIP3    H129371   4.077   2.688   0.405  0.1131  1.4719  2.0156
 2604TIP3    H229372   3.948   2.655   0.478 -0.8552  0.0277 -0.2311
 2605TIP3   OH229373   2.746   4.710   7.976  0.0333  0.2277 -0.2055
 2605TIP3    H129374   2.741   4.717   8.072  0.7971  1.6422 -0.2291
 2605TIP3    H229375   2.657   4.691   7.948 -0.1317 -0.5966  0.8056
 2606TIP3   OH229376   4.977   1.741   2.538  0.5963 -0.2702 -0.1364
 2606TIP3    H129377   5.015   1.663   2.580  0.9045  0.6118  1.3156
 2606TIP3    H229378   4.886   1.716   2.520 -0.0431 -0.2602  2.5259
 2607TIP3   OH229379   1.083   6.078   7.523 -0.4750 -0.5360  0.2345
 2607TIP3    H129380   1.065   6.164   7.561 -0.7578 -0.5948  0.2361
 2607TIP3    H229381   0.997   6.037   7.515 -0.3475 -0.7898  0.1640
 2608TIP3   OH229382   1.828   5.709   1.070  0.3374  0.0149 -0.0578
 2608TIP3    H129383   1.850   5.790   1.117  0.8589 -0.2621  0.1876
 2608TIP3    H229384   1.899   5.649   1.094 -0.1554 -0.5727 -0.0814
 2609TIP3   OH229385   6.557   1.789   0.926  0.5573 -0.4162 -0.4821
 2609TIP3    H129386   6.541   1.709   0.977  2.4118 -1.4114 -1.3364
 2609TIP3    H229387   6.648   1.781   0.898  1.1239  2.5211  0.2319
 2610TIP3   OH229388   3.918   0.975   7.413 -0.5747 -0.7025 -0.3009
 2610TIP3    H129389   3.868   1.003   7.337  1.2095  1.2617 -0.8269
 2610TIP3    H229390   3.962   0.895   7.385 -1.4756 -1.1007 -0.6229
 2611TIP3   OH229391   2.114   3.477   0.003  0.5552 -0.7533  0.0920
 2611TIP3    H129392   2.176   3.540  -0.032 -1.8377  0.4495 -2.4109
 2611TIP3    H229393   2.102   3.502   0.095  0.4740  1.7827 -0.5607
 2612TIP3   OH229394   5.670   1.353   0.708  0.0819 -0.2408  0.0257
 2612TIP3    H129395   5.627   1.287   0.655  0.6866 -0.9631  0.4202
 2612TIP3    H229396   5.603   1.419   0.723 -0.6490 -0.9574 -0.0420
 2613TIP3   OH229397   4.683   3.267   8.572  0.3353 -0.7664  0.0026
 2613TIP3    H129398   4.733   3.241   8.649  1.9462 -4.2257 -1.9747
 2613TIP3    H229399   4.748   3.304   8.512 -0.2833 -1.0774 -0.8857
 2614TIP3   OH229400   6.324   1.989   1.090  0.2650 -0.1955 -0.0449
 2614TIP3    H129401   6.271   2.031   1.022 -2.4523 -0.1746  1.9171
 2614TIP3    H229402   6.308   1.896   1.079  0.8981 -0.2815 -0.2564
 2615TIP3   OH229403   4.941   1.669   7.297  0.0785  0.3580  0.4514
 2615TIP3    H129404   5.027   1.710   7.294 -0.1196  0.9644  2.2133
 2615TIP3    H229405   4.893   1.709   7.224  1.5843 -0.8110 -1.2678
 2616TIP3   OH229406   5.614   0.358   1.886  0.3504  0.2411 -0.1174
 2616TIP3    H129407   5.522   0.382   1.873  0.5151  0.8341 -0.2539
 2616TIP3    H229408   5.657   0.387   1.805  0.7561  0.5345  0.2002
 2617TIP3   OH229409   6.658   6.012   1.750  0.5580 -0.7973  0.1327
 2617TIP3    H129410   6.747   6.045   1.760  0.3841 -0.1894 -0.2092
 2617TIP3    H229411   6.667   5.918   1.737  1.1370 -0.7575  0.2515
 2618TIP3   OH229412   4.464   3.793   1.513  0.2246 -0.8713  0.3054
 2618TIP3    H129413   4.481   3.748   1.431  0.8854  1.3556 -0.8839
 2618TIP3    H229414   4.547   3.838   1.533 -1.1867  2.4190 -0.4340
 2619TIP3   OH229415   2.347   5.699   1.867 -0.3191 -0.1902 -0.0706
 2619TIP3    H129416   2.321   5.681   1.777  0.2603  0.1938 -0.3223
 2619TIP3    H229417   2.358   5.613   1.906 -2.2062 -0.3733  0.1320
 2620TIP3   OH229418   4.307   2.891   1.452  0.8229 -0.2996  0.3125
 2620TIP3    H129419   4.281   2.841   1.375  1.3609  0.5822 -0.4700
 2620TIP3    H229420   4.403   2.893   1.449  0.9409  4.1891 -2.1200
 2621TIP3   OH229421   6.729   1.460   1.024 -0.5596  0.3916 -0.2619
 2621TIP3    H129422   6.779   1.447   1.104 -0.8959 -2.9419 -0.4354
 2621TIP3    H229423   6.757   1.545   0.991  1.9311  0.4505  1.7362
 2622TIP3   OH229424   3.377   0.358   0.345 -0.5258  0.0500 -0.8361
 2622TIP3    H129425   3.326   0.436   0.324 -2.0823 -0.9460 -0.8931
 2622TIP3    H229426   3.369   0.348   0.440  0.7506  0.6539 -0.6410
 2623TIP3   OH229427   2.170   2.267   7.712  0.0856 -0.0778  0.6716
 2623TIP3    H129428   2.196   2.310   7.794  1.3583  0.8188 -0.1721
 2623TIP3    H229429   2.237   2.292   7.649 -0.5445 -1.2420 -0.5147
 2624TIP3   OH229430   1.071   2.723   8.002  0.3417  0.0978 -0.0725
 2624TIP3    H129431   1.037   2.680   8.081  0.5303  0.3252  0.1330
 2624TIP3    H229432   1.101   2.808   8.032 -0.5281  0.5909 -0.5806
 2625TIP3   OH229433   5.156   2.423   1.324  0.0920 -0.3411 -0.0782
 2625TIP3    H129434   5.119   2.471   1.398 -4.3585 -1.1198 -1.4357
 2625TIP3    H229435   5.245   2.455   1.316 -0.5987  2.9903  2.8829
 2626TIP3   OH229436   3.056   0.388   7.784  0.3060 -0.1803 -0.0868
 2626TIP3    H129437   3.038   0.362   7.694 -0.3320 -0.7763  0.1988
 2626TIP3    H229438   3.036   0.309   7.836 -0.0964  0.3935  0.6490
 2627TIP3   OH229439   3.031   3.036   1.846 -0.9698  0.4698 -0.2084
 2627TIP3    H129440   2.938   3.048   1.826 -0.8715  0.4653 -0.6870
 2627TIP3    H229441   3.073   3.115   1.814 -0.7154  0.1558 -0.6648
 2628TIP3   OH229442   1.775   1.989   6.330  0.7149 -0.1560  0.1835
 2628TIP3    H129443   1.867   1.980   6.356  0.3692 -0.8647  1.2406
 2628TIP3    H229444   1.746   2.070   6.371  0.5298 -0.5886  0.9154
 2629TIP3   OH229445   6.703   5.300   3.280 -0.3019 -0.0286  0.4004
 2629TIP3    H129446   6.743   5.372   3.328  2.1476 -0.9891 -0.0385
 2629TIP3    H229447   6.719   5.321   3.188  1.4371 -1.5779  0.2865
 2630TIP3   OH229448   6.544   4.073   8.530  0.0006  0.6610 -0.0151
 2630TIP3    H129449   6.594   4.155   8.532  1.0454  0.0318  1.1510
 2630TIP3    H229450   6.590   4.019   8.467 -0.5182  0.8653 -0.5696
 2631TIP3   OH229451   5.818   3.065   0.777  0.1614  0.4725  0.0789
 2631TIP3    H129452   5.774   3.149   0.762  0.0302  0.4730  0.4636
 2631TIP3    H229453   5.903   3.089   0.814  1.0114  0.5361 -1.7710
 2632TIP3   OH229454   4.214   5.387   7.747 -0.3584 -0.2309  0.0142
 2632TIP3    H129455   4.234   5.467   7.699  0.3109 -0.8390 -0.7526
 2632TIP3    H229456   4.294   5.367   7.796 -0.6951 -0.1653  0.6096
 2633TIP3   OH229457   6.285   2.839   7.811 -1.1097  0.0885 -0.3308
 2633TIP3    H129458   6.377   2.866   7.813 -1.4727  1.3303  0.4392
 2633TIP3    H229459   6.256   2.861   7.722 -0.4607 -1.1401 -0.8852
 2634TIP3   OH229460   4.212   3.802   1.918  0.0106  0.3906  0.5553
 2634TIP3    H129461   4.196   3.780   2.010 -1.0536 -1.1533  0.0477
 2634TIP3    H229462   4.277   3.738   1.889 -0.4822  0.1456 -0.0360
 2635TIP3   OH229463   5.712   1.019   2.159 -0.0223 -0.2038  0.5565
 2635TIP3    H129464   5.688   1.105   2.194  0.7307  0.4398 -0.4513
 2635TIP3    H229465   5.807   1.019   2.158 -0.0203 -0.7540 -0.1587
 2636TIP3   OH229466   2.381   6.528   0.001  0.2812  0.1209  0.2461
 2636TIP3    H129467   2.359   6.570  -0.082 -0.6983 -2.3289 -0.8444
 2636TIP3    H229468   2.408   6.439  -0.024  2.6343  0.1266  2.3501
 2637TIP3   OH229469   5.742   2.705   2.173 -0.5529  0.1591  0.2218
 2637TIP3    H129470   5.787   2.643   2.230 -0.9875  0.1194  0.5218
 2637TIP3    H229471   5.761   2.791   2.211  0.2840  0.2499 -0.3524
 2638TIP3   OH229472   0.939   3.193   0.999  0.4741 -0.0260  0.0337
 2638TIP3    H129473   0.942   3.103   1.032 -0.4729 -1.3266 -3.1198
 2638TIP3    H229474   0.847   3.219   1.008  0.2815 -0.2597 -1.1537
 2639TIP3   OH229475   3.425   4.962   0.475 -0.0695  0.2741  0.2763
 2639TIP3    H129476   3.505   4.991   0.430  0.5712 -0.6022  0.8182
 2639TIP3    H229477   3.450   4.879   0.516 -1.9513 -1.3383 -1.6182
 2640TIP3   OH229478   0.177   0.086   0.724 -0.2559  0.5613  0.2226
 2640TIP3    H129479   0.109   0.135   0.770 -0.4900 -1.8163  2.6577
 2640TIP3    H229480   0.244   0.070   0.791  1.2089  0.0819 -1.2737
 2641TIP3   OH229481   5.181   4.478   1.168  0.0265  0.3145  0.1975
 2641TIP3    H129482   5.268   4.498   1.203  1.1105  1.4003 -2.7874
 2641TIP3    H229483   5.183   4.384   1.150  0.2061  0.1507  1.0408
 2642TIP3   OH229484   4.380   4.793   6.621  0.2249  0.4491 -0.3846
 2642TIP3    H129485   4.412   4.706   6.646  1.0254  0.7808 -0.2348
 2642TIP3    H229486   4.295   4.801   6.665 -0.2729 -0.5915 -1.0886
 2643TIP3   OH229487   2.568   0.772   8.206 -0.0051 -0.1273  0.6382
 2643TIP3    H129488   2.551   0.776   8.300 -1.3356  0.0705  0.4052
 2643TIP3    H229489   2.535   0.687   8.179  0.4748 -0.2306  0.3537
 2644TIP3   OH229490   4.582   3.610   7.979  0.5977 -0.4746 -0.3570
 2644TIP3    H129491   4.550   3.587   7.891  2.5034  1.2540 -1.5866
 2644TIP3    H229492   4.661   3.661   7.963  0.3667  0.8865  2.3588
 2645TIP3   OH229493   1.266   0.633   0.046  0.2082 -0.0382 -0.2453
 2645TIP3    H129494   1.295   0.558  -0.005 -1.7010 -1.7240  1.0369
 2645TIP3    H229495   1.280   0.608   0.137 -1.4360  0.7200  0.2537
 2646TIP3   OH229496   4.725   2.623   7.684 -0.3266 -0.3550  0.1797
 2646TIP3    H129497   4.760   2.620   7.595  1.1809  1.4129  0.6573
 2646TIP3    H229498   4.635   2.652   7.673 -0.7477 -1.8823 -0.8466
 2647TIP3   OH229499   2.405   1.815   1.152 -0.5170 -0.0514  0.5825
 2647TIP3    H129500   2.436   1.726   1.134  0.8528  0.8376 -1.8653
 2647TIP3    H229501   2.378   1.848   1.067 -0.5104  2.0901  1.3693
 2648TIP3   OH229502   6.551   4.141   7.488 -0.1245  0.1386  0.7701
 2648TIP3    H129503   6.468   4.094   7.494 -0.5170  0.8442  1.0251
 2648TIP3    H229504   6.565   4.176   7.576  0.1262  0.5511  0.5711
 2649TIP3   OH229505   3.600   6.323   7.958 -0.2907 -0.2077 -0.6558
 2649TIP3    H129506   3.658   6.395   7.933  0.6164 -1.0402 -0.9986
 2649TIP3    H229507   3.544   6.309   7.882  1.5156 -1.7948 -1.7767
 2650TIP3   OH229508   0.372   5.349   1.631 -0.1631 -0.3333  0.4353
 2650TIP3    H129509   0.293   5.401   1.646 -0.1502  0.1316 -0.9733
 2650TIP3    H229510   0.399   5.321   1.719 -1.3791  0.2433  1.0213
 2651TIP3   OH229511   3.923   3.453   8.652  0.0972  0.4545  0.2912
 2651TIP3    H129512   3.910   3.436   8.745  0.0517  0.1199  0.2260
 2651TIP3    H229513   3.909   3.547   8.642  0.3077  0.5273  0.6551
 2652TIP3   OH229514   5.864   0.025   0.148 -0.5092 -0.0624  0.8785
 2652TIP3    H129515   5.814  -0.027   0.086 -0.3107  0.1678  0.5202
 2652TIP3    H229516   5.799   0.057   0.211 -0.7145 -0.2847  0.7803
 2653TIP3   OH229517   3.972   6.075   2.592 -0.4552  0.4012  0.1357
 2653TIP3    H129518   4.030   6.070   2.516 -0.4498  1.0759  0.0961
 2653TIP3    H229519   4.031   6.074   2.667 -0.4801 -0.7964  0.1634
 2654TIP3   OH229520   2.661   6.535   0.506  0.5039  0.0705  0.1677
 2654TIP3    H129521   2.756   6.546   0.504  0.8257 -2.1136  0.5281
 2654TIP3    H229522   2.642   6.478   0.432 -0.4581  0.1546  0.3388
 2655TIP3   OH229523   0.876   1.601   7.485 -0.3091 -0.1218 -0.1438
 2655TIP3    H129524   0.869   1.637   7.573  1.7878 -0.6870  0.2939
 2655TIP3    H229525   0.797   1.547   7.476 -2.1564  2.3489  0.1514
 2656TIP3   OH229526   0.885   2.484   0.888  0.4139  0.3630 -0.5499
 2656TIP3    H129527   0.868   2.577   0.874  0.7469  0.0893 -3.0858
 2656TIP3    H229528   0.850   2.441   0.811  0.8052 -1.5848  0.3026
 2657TIP3   OH229529   5.544   6.427   0.583 -0.1868  0.2472  0.4673
 2657TIP3    H129530   5.638   6.408   0.581 -0.2686 -0.1283 -1.4236
 2657TIP3    H229531   5.506   6.371   0.515 -1.3356  2.4566 -0.8427
 2658TIP3   OH229532   2.881   3.055   7.683  0.2652  0.5636 -0.3030
 2658TIP3    H129533   2.970   3.076   7.711  0.3100  0.3472 -0.2820
 2658TIP3    H229534   2.892   3.016   7.596  0.1987  0.4723 -0.2708
 2659TIP3   OH229535   5.066   2.099   8.346 -0.0640  0.2477  0.4546
 2659TIP3    H129536   4.991   2.051   8.310 -0.2817  0.9981 -0.1270
 2659TIP3    H229537   5.136   2.034   8.350 -1.1618 -0.9045  2.5679
 2660TIP3   OH229538   3.485   5.528   8.321 -0.4843 -0.2337 -0.4730
 2660TIP3    H129539   3.527   5.476   8.390  0.9373  0.3343 -0.8644
 2660TIP3    H229540   3.520   5.617   8.333  0.0264 -0.1767 -2.0668
 2661TIP3   OH229541   2.927   5.777   1.943  0.2817  0.0768  0.4205
 2661TIP3    H129542   2.985   5.748   2.014 -0.3619  0.4075  1.0945
 2661TIP3    H229543   2.935   5.709   1.876  0.8340 -0.2848  0.8433
 2662TIP3   OH229544   3.451   3.632   2.145 -0.2091  0.0645  0.0394
 2662TIP3    H129545   3.404   3.708   2.110  0.3604 -0.1494 -1.2330
 2662TIP3    H229546   3.528   3.623   2.089 -0.3866 -1.6020  0.0099
 2663TIP3   OH229547   1.943   6.022   0.714 -0.0969  0.1808 -0.6746
 2663TIP3    H129548   1.989   5.953   0.761 -1.9074  0.1113  1.1559
 2663TIP3    H229549   1.997   6.100   0.726 -0.8006  0.3385  2.2789
 2664TIP3   OH229550   5.453   6.132   8.250  0.7425  0.5561  0.0739
 2664TIP3    H129551   5.392   6.135   8.324  0.4212 -0.4917 -0.1336
 2664TIP3    H229552   5.397   6.145   8.173  0.7996 -0.2562 -0.1067
 2665TIP3   OH229553   4.943   6.360   8.460  0.2192  0.0806 -0.6043
 2665TIP3    H129554   4.887   6.405   8.523  0.6368 -1.0485  0.6069
 2665TIP3    H229555   5.028   6.403   8.469  0.5519 -0.7520  0.3734
 2666TIP3   OH229556   6.597   5.354   7.768 -0.1848  0.7001 -0.1598
 2666TIP3    H129557   6.639   5.439   7.773  0.3542  0.4008  0.8063
 2666TIP3    H229558   6.562   5.349   7.679 -1.3848  2.4533  0.1635
 2667TIP3   OH229559   4.369   3.215   2.115  0.3424  0.2515  0.1697
 2667TIP3    H129560   4.296   3.206   2.177  0.6017 -0.0299  0.4352
 2667TIP3    H229561   4.395   3.125   2.096 -1.8137  0.0973 -2.8517
 2668TIP3   OH229562   4.569   5.307   1.253  0.0583 -0.0800 -0.2093
 2668TIP3    H129563   4.475   5.299   1.238  0.0873  0.2362 -0.5735
 2668TIP3    H229564   4.606   5.226   1.217 -0.0881 -0.2782  0.0811
 2669TIP3   OH229565   4.628   6.624   1.634 -0.2403 -0.1109  0.1075
 2669TIP3    H129566   4.711   6.609   1.589 -0.1171 -0.4681  0.4477
 2669TIP3    H229567   4.653   6.663   1.718 -0.5078  1.2321 -0.4132
 2670TIP3   OH229568   4.069   3.260   8.329 -0.4544  0.4010  0.3307
 2670TIP3    H129569   4.156   3.268   8.368 -0.1657 -0.3991 -0.1202
 2670TIP3    H229570   4.009   3.267   8.403  0.0323  0.1604  0.7599
 2671TIP3   OH229571   3.748   6.002   0.366  0.1692 -0.0672 -0.0446
 2671TIP3    H129572   3.839   6.029   0.374 -0.3223  1.5168  0.7779
 2671TIP3    H229573   3.711   6.017   0.453 -0.5941 -1.8627 -0.0294
 2672TIP3   OH229574   5.582   1.691   7.498 -0.0549 -0.1088  0.0241
 2672TIP3    H129575   5.584   1.755   7.427 -2.2446 -1.0391 -0.9693
 2672TIP3    H229576   5.626   1.613   7.461 -0.6712 -0.3976 -0.1053
 2673TIP3   OH229577   1.510   1.095   2.791  0.1106 -0.0954  0.0775
 2673TIP3    H129578   1.508   1.190   2.784 -0.3601  0.0342  1.5751
 2673TIP3    H229579   1.547   1.078   2.877 -1.4140 -1.2027  0.5614
 2674TIP3   OH229580   4.862   6.657   0.062 -0.5987  0.0407  0.2759
 2674TIP3    H129581   4.802   6.583   0.072 -1.8293  1.0694  0.8199
 2674TIP3    H229582   4.942   6.629   0.106 -1.3725 -0.6175  1.3213
 2675TIP3   OH229583   2.261   2.108   7.230 -0.4728  0.0721  0.4621
 2675TIP3    H129584   2.343   2.105   7.280 -1.7185 -0.5563  2.5768
 2675TIP3    H229585   2.288   2.092   7.139  1.6502 -1.0749  1.2237
 2676TIP3   OH229586   6.631   4.644   0.756  0.2027  0.2703 -0.1822
 2676TIP3    H129587   6.665   4.666   0.669 -1.8500 -1.4168 -1.5232
 2676TIP3    H229588   6.677   4.563   0.779  0.4895  0.5270  0.1535
 2677TIP3   OH229589   5.229   6.692   2.032  0.6991 -0.4182  0.0000
 2677TIP3    H129590   5.235   6.787   2.036  1.9400 -0.4478 -0.6823
 2677TIP3    H229591   5.254   6.662   2.119 -1.5119 -0.0813  0.8056
 2678TIP3   OH229592   1.622   1.593   1.533  0.5011  0.3179  0.1692
 2678TIP3    H129593   1.532   1.610   1.562 -0.5988 -0.9981 -2.2345
 2678TIP3    H229594   1.634   1.499   1.546  1.8669  0.5975  1.1862
 2679TIP3   OH229595   2.204   3.383   1.524 -0.0195 -0.2902 -0.6366
 2679TIP3    H129596   2.232   3.451   1.586  0.3871 -0.7529 -0.3065
 2679TIP3    H229597   2.253   3.305   1.550 -1.6875 -1.1666  0.0391
 2680TIP3   OH229598   5.263   0.184   0.497 -0.1112 -0.8530 -0.1329
 2680TIP3    H129599   5.309   0.145   0.423 -1.2063  1.2736 -2.0384
 2680TIP3    H229600   5.171   0.163   0.482 -0.3783 -0.1457  0.4624
 2681TIP3   OH229601   2.658   3.600   0.613 -0.0997 -0.0814  0.4427
 2681TIP3    H129602   2.593   3.555   0.667  0.7820 -0.7399  0.9792
 2681TIP3    H229603   2.707   3.530   0.570  0.8511  0.3734  0.7598
 2682TIP3   OH229604   1.693   5.494   2.104  0.0904 -0.3400 -0.2486
 2682TIP3    H129605   1.664   5.475   2.015  0.1061 -1.4100 -0.0484
 2682TIP3    H229606   1.769   5.437   2.116  0.4962  0.2874  0.2236
 2683TIP3   OH229607   1.025   0.089   0.062  0.0576 -0.1764  0.1786
 2683TIP3    H129608   0.994   0.123  -0.022  1.2634 -2.8040 -1.4304
 2683TIP3    H229609   1.117   0.114   0.066 -0.3234  1.1454  1.4348
 2684TIP3   OH229610   3.084   2.467   6.948  0.3253  0.3239  0.1899
 2684TIP3    H129611   3.061   2.538   7.008 -0.8860 -1.5445  2.1056
 2684TIP3    H229612   3.174   2.445   6.969  0.1558  0.1977  0.7921
 2685TIP3   OH229613   0.423   5.126   1.459 -0.0784  0.4577  0.3795
 2685TIP3    H129614   0.368   5.202   1.479 -0.9449 -0.0566  0.0016
 2685TIP3    H229615   0.391   5.057   1.516 -0.5477 -0.1545 -0.5980
 2686TIP3   OH229616   5.667   6.541   2.481 -0.3732  0.3956 -0.5681
 2686TIP3    H129617   5.692   6.493   2.559  1.7841  1.2110 -0.6942
 2686TIP3    H229618   5.590   6.592   2.507 -0.8591 -0.8109  0.4153
 2687TIP3   OH229619   2.688   1.299   6.952  0.2677 -0.5469 -0.0230
 2687TIP3    H129620   2.700   1.304   7.047 -0.5314 -0.4199  0.0730
 2687TIP3    H229621   2.648   1.383   6.928 -1.5873 -1.4253 -0.1499
 2688TIP3   OH229622   3.943   3.387   0.270  0.2498  0.0920  0.3118
 2688TIP3    H129623   3.870   3.342   0.312 -0.5343  0.5089 -0.5632
 2688TIP3    H229624   3.987   3.433   0.341 -0.9304  0.6342  0.7173
 2689TIP3   OH229625   5.173   1.698   7.592  0.5665  0.2609 -0.1611
 2689TIP3    H129626   5.186   1.769   7.654  0.8408 -0.7832  1.0261
 2689TIP3    H229627   5.196   1.735   7.506 -0.2981  1.8704  0.2794
 2690TIP3   OH229628   4.524   5.177   2.820  0.5195  0.4178 -0.2576
 2690TIP3    H129629   4.610   5.211   2.842  0.1269  0.4888  1.2854
 2690TIP3    H229630   4.538   5.083   2.809  0.9056  0.5184 -0.6262
 2691TIP3   OH229631   1.261   4.286   0.545  0.5014 -0.2706  0.7925
 2691TIP3    H129632   1.347   4.251   0.566  1.1123  0.5270 -0.2488
 2691TIP3    H229633   1.200   4.235   0.598  1.4536 -2.0240  0.2899
 2692TIP3   OH229634   6.229   0.803   2.015  0.2359 -0.0239 -0.1510
 2692TIP3    H129635   6.296   0.801   1.946  0.5314 -0.7660  0.1440
 2692TIP3    H229636   6.262   0.868   2.077 -0.0128  0.6209 -0.6831
 2693TIP3   OH229637   2.551   6.449   1.114  0.1365 -0.2547 -0.7442
 2693TIP3    H129638   2.527   6.359   1.093  0.1248  0.2521 -3.1973
 2693TIP3    H229639   2.468   6.496   1.115  0.2419 -0.0725 -0.6043
 2694TIP3   OH229640   1.999   1.576   0.046 -0.1977 -0.0597  0.4061
 2694TIP3    H129641   1.968   1.491   0.078 -0.5628 -0.5049 -1.0705
 2694TIP3    H229642   2.063   1.555  -0.021 -0.6456  0.8244 -0.3147
 2695TIP3   OH229643   5.096   0.203   8.216  0.0404 -0.8235 -0.0466
 2695TIP3    H129644   5.077   0.114   8.186  0.9480 -0.8437 -0.6191
 2695TIP3    H229645   5.142   0.192   8.299 -0.1027 -0.8789  0.0241
 2696TIP3   OH229646   6.177   6.825   8.574 -0.2988 -0.2411  0.0691
 2696TIP3    H129647   6.084   6.808   8.562 -0.2142 -0.7411  0.0914
 2696TIP3    H229648   6.200   6.884   8.502 -0.6290 -0.1391  0.0483
 2697TIP3   OH229649   0.151   5.653   0.462 -0.2011 -0.0689 -0.4618
 2697TIP3    H129650   0.077   5.701   0.501  0.2017  0.4992 -0.3793
 2697TIP3    H229651   0.159   5.689   0.374 -0.2802 -0.4229 -0.6156
 2698TIP3   OH229652   4.287   0.682   7.036  0.4639  0.7388  0.3173
 2698TIP3    H129653   4.197   0.673   7.067  1.0429  1.0770  2.2888
 2698TIP3    H229654   4.290   0.633   6.954 -1.4685  0.6252  0.2768
 2699TIP3   OH229655   3.242   0.048   7.781  0.1422 -0.5595 -0.1301
 2699TIP3    H129656   3.264   0.070   7.871 -0.5987 -0.7207  0.0954
 2699TIP3    H229657   3.167   0.104   7.760 -0.2584 -1.1633 -0.3431
 2700TIP3   OH229658   2.636   5.673   1.391  0.0819  0.2222 -0.3043
 2700TIP3    H129659   2.655   5.682   1.297 -0.1415  0.8745 -0.2882
 2700TIP3    H229660   2.681   5.592   1.416 -0.4730 -0.3720 -1.1399
 2701TIP3   OH229661   3.597   6.793   1.044 -0.5514  0.0533  0.1294
 2701TIP3    H129662   3.595   6.699   1.066 -0.4182 -0.4659 -1.9009
 2701TIP3    H229663   3.505   6.817   1.035 -0.5730 -0.7217 -2.4347
 2702TIP3   OH229664   2.069   3.745   1.489 -0.1876  1.0279 -0.1317
 2702TIP3    H129665   2.086   3.762   1.396  1.2282 -0.4517 -0.1778
 2702TIP3    H229666   2.151   3.766   1.534 -1.0137  2.2281  0.8957
 2703TIP3   OH229667   4.493   3.661   7.381  0.8050 -0.1738 -0.4886
 2703TIP3    H129668   4.524   3.733   7.436 -2.0003  1.2910 -0.6788
 2703TIP3    H229669   4.477   3.701   7.296 -3.2139 -0.2254  0.0476
 2704TIP3   OH229670   3.964   6.262   0.266 -0.3557  0.2367  0.4535
 2704TIP3    H129671   4.035   6.325   0.259  0.6059 -0.4888  2.6701
 2704TIP3    H229672   3.989   6.189   0.209  0.1044  0.4984  0.3239
 2705TIP3   OH229673   0.029   3.789   2.056 -0.1660  0.4255 -0.0674
 2705TIP3    H129674   0.021   3.694   2.065 -1.3043  0.4700 -0.5602
 2705TIP3    H229675  -0.046   3.824   2.104  1.2906  1.1818  1.8103
 2706TIP3   OH229676   4.727   6.363   0.922  0.0223  0.1414 -0.1347
 2706TIP3    H129677   4.750   6.325   0.838  1.4220 -2.2169  1.1936
 2706TIP3    H229678   4.803   6.416   0.946 -0.9921  2.0508 -0.9649
 2707TIP3   OH229679   4.220   6.418   6.767 -0.3104 -0.6689 -0.6627
 2707TIP3    H129680   4.161   6.418   6.842 -0.8927 -2.0438 -1.0921
 2707TIP3    H229681   4.218   6.507   6.734  0.4594  0.1405  1.3310
 2708TIP3   OH229682   0.465   5.361   1.083  0.0417  0.4916  0.2336
 2708TIP3    H129683   0.393   5.315   1.127 -1.3292  0.9670 -1.3928
 2708TIP3    H229684   0.422   5.429   1.031  1.8041  1.7377  0.3032
 2709TIP3   OH229685   3.726   0.278   7.361 -0.1915 -0.9276 -0.1404
 2709TIP3    H129686   3.767   0.352   7.317  0.3210 -1.4131 -0.5032
 2709TIP3    H229687   3.737   0.296   7.454  0.7105 -0.9675 -0.2345
 2710TIP3   OH229688   1.472   3.164   2.837 -0.0507  0.1704  0.2927
 2710TIP3    H129689   1.527   3.242   2.848 -1.1958  0.8687  1.3034
 2710TIP3    H229690   1.411   3.167   2.911 -2.2226  0.0832 -1.3914
 2711TIP3   OH229691   4.552   0.711   6.926  0.0697 -0.4298 -0.2671
 2711TIP3    H129692   4.481   0.655   6.896 -1.0063  0.5583  0.3549
 2711TIP3    H229693   4.530   0.731   7.017  0.1073  1.4343 -0.6238
 2712TIP3   OH229694   6.395   4.546   2.419  0.2237 -0.0698  0.1225
 2712TIP3    H129695   6.412   4.613   2.485 -0.7078 -0.1989  0.5129
 2712TIP3    H229696   6.411   4.589   2.335  0.6105  0.3420  0.4045
 2713TIP3   OH229697   3.272   3.027   2.436  0.5483  0.1955 -0.2974
 2713TIP3    H129698   3.309   2.938   2.439 -0.7997 -0.3660  1.1690
 2713TIP3    H229699   3.243   3.044   2.525 -2.2122  0.7878 -1.2178
 2714TIP3   OH229700   2.755   3.950   7.790  0.2313  0.3344  0.3437
 2714TIP3    H129701   2.827   3.915   7.737 -0.5720 -1.0064  0.0865
 2714TIP3    H229702   2.682   3.891   7.772 -0.0883 -0.1874  2.9527
 2715TIP3   OH229703   1.660   5.910   8.585  0.4735 -0.2002 -0.0121
 2715TIP3    H129704   1.720   5.914   8.510  0.4410 -1.3123 -0.1221
 2715TIP3    H229705   1.574   5.927   8.547  0.6065  0.4952 -0.0094
 2716TIP3   OH229706   1.969   2.005   0.741  0.5307 -0.0006 -0.9294
 2716TIP3    H129707   2.027   1.967   0.676 -0.3798 -1.3227 -1.0129
 2716TIP3    H229708   1.901   1.939   0.754  0.0746  0.7162  0.5351
 2717TIP3   OH229709   1.128   6.173   2.734 -0.3577  0.4803 -0.1351
 2717TIP3    H129710   1.181   6.150   2.810 -1.2238  1.5745  0.8296
 2717TIP3    H229711   1.139   6.267   2.724 -1.0551  0.5056 -0.7570
 2718TIP3   OH229712   6.576   4.379   7.179 -0.5380 -0.3059 -0.3171
 2718TIP3    H129713   6.500   4.356   7.127 -1.0134 -0.5786  0.4744
 2718TIP3    H229714   6.651   4.344   7.130 -0.8003  0.9014 -1.6352
 2719TIP3   OH229715   0.810   2.402   0.299  0.0260  0.6282 -0.3587
 2719TIP3    H129716   0.818   2.459   0.375  2.1798  0.4747 -0.4132
 2719TIP3    H229717   0.814   2.313   0.334 -1.1833  0.5190 -0.4685
 2720TIP3   OH229718   2.389   0.810   0.099 -0.3418  0.4007  0.4172
 2720TIP3    H129719   2.457   0.751   0.068 -0.6415  0.6678 -0.7825
 2720TIP3    H229720   2.381   0.790   0.193  0.2142 -0.7974  0.2273
 2721TIP3   OH229721   5.838   0.418   1.052 -0.1839 -0.2478  0.7430
 2721TIP3    H129722   5.873   0.355   0.990  0.4117  0.4942  0.3084
 2721TIP3    H229723   5.876   0.394   1.137  0.5764 -0.0678  0.4562
 2722TIP3   OH229724   6.848   2.127   1.000 -0.7398  0.0212  0.3732
 2722TIP3    H129725   6.888   2.115   1.086  0.5802  0.9264 -0.0765
 2722TIP3    H229726   6.776   2.064   0.998  0.4336 -1.4270  1.3700
 2723TIP3   OH229727   1.360   1.409   7.797 -0.1046  0.1500  0.0383
 2723TIP3    H129728   1.446   1.431   7.833 -0.3733  1.1108  0.1243
 2723TIP3    H229729   1.325   1.343   7.856 -1.1307  2.6504  2.4696
 2724TIP3   OH229730   0.870   5.685   8.584 -0.3662  0.2674 -0.0189
 2724TIP3    H129731   0.828   5.684   8.671 -1.8425 -0.6734 -0.6932
 2724TIP3    H229732   0.870   5.593   8.557 -2.1959  0.7500 -2.0033
 2725TIP3   OH229733   1.756   3.569   2.297 -0.2905  0.1071 -0.9236
 2725TIP3    H129734   1.787   3.646   2.345 -1.8881  0.6385 -0.6913
 2725TIP3    H229735   1.750   3.500   2.364 -1.3137  0.5067 -0.5782
 2726TIP3   OH229736   2.689   6.412   0.077  0.7277 -0.6318 -0.1762
 2726TIP3    H129737   2.677   6.459  -0.005  0.9264 -0.9561 -0.3913
 2726TIP3    H229738   2.778   6.432   0.104  0.8024 -0.8579 -0.2517
 2727TIP3   OH229739   4.623   2.092   0.349 -0.0789  0.5210 -0.1994
 2727TIP3    H129740   4.625   2.028   0.421  0.5150  0.9662  0.1968
 2727TIP3    H229741   4.691   2.155   0.372 -0.9185  1.5151 -0.3812
 2728TIP3   OH229742   4.860   2.789   7.844  0.5789 -0.0694  0.0695
 2728TIP3    H129743   4.785   2.762   7.791 -0.0324  0.1980  0.7883
 2728TIP3    H229744   4.868   2.722   7.911  0.8437  0.0230  0.1319
 2729TIP3   OH229745   1.894   4.347   1.932  0.0925  0.1207  0.1768
 2729TIP3    H129746   1.806   4.313   1.948  0.6536 -0.9390  1.1793
 2729TIP3    H229747   1.918   4.389   2.014  1.8076 -2.6255  1.2289
 2730TIP3   OH229748   1.042   5.638   0.884 -0.6578 -0.0388  0.0140
 2730TIP3    H129749   0.967   5.698   0.887 -1.0617 -0.5224 -0.1726
 2730TIP3    H229750   1.117   5.693   0.905 -1.2426  0.1620  1.7528
 2731TIP3   OH229751   2.451   3.359   0.097  0.0714 -0.0273 -0.3985
 2731TIP3    H129752   2.398   3.304   0.040  0.7825 -0.1209 -0.9895
 2731TIP3    H229753   2.514   3.401   0.038  0.3901  0.3905  0.2286
 2732TIP3   OH229754   2.292   6.310   0.902 -0.3256  0.4126 -0.6083
 2732TIP3    H129755   2.340   6.273   0.977 -0.3790  2.5224  0.5615
 2732TIP3    H229756   2.202   6.318   0.934 -0.2731  1.6651 -0.7470
 2733TIP3   OH229757   6.433   2.956   8.656  0.1034  0.1595  0.4655
 2733TIP3    H129758   6.424   3.029   8.718 -1.2287 -0.0329  0.5207
 2733TIP3    H229759   6.478   2.888   8.706  0.4012  0.5558  0.7453
 2734TIP3   OH229760   3.698   6.578   3.107 -0.1166 -0.3152 -0.3640
 2734TIP3    H129761   3.745   6.499   3.080  3.2154  1.7689 -1.2940
 2734TIP3    H229762   3.632   6.591   3.039  1.1020 -0.9034 -1.7216
 2735TIP3   OH229763   2.909   3.789   7.628  0.9489 -0.2405 -0.0268
 2735TIP3    H129764   2.854   3.712   7.619  3.1992 -1.7718 -1.4589
 2735TIP3    H229765   2.986   3.759   7.676  1.2795  1.4576  0.5919
 2736TIP3   OH229766   2.254   0.494   2.106  0.2095  0.0680 -0.0004
 2736TIP3    H129767   2.293   0.510   2.020  0.4974  0.5047  0.2072
 2736TIP3    H229768   2.163   0.521   2.096 -0.6903 -2.9713 -1.1220
 2737TIP3   OH229769   2.989   2.828   2.219 -0.2338  0.8166  0.3490
 2737TIP3    H129770   3.059   2.790   2.272  0.0971  2.5560  1.2267
 2737TIP3    H229771   3.022   2.825   2.129 -0.0102 -0.4608  0.4643
 2738TIP3   OH229772   5.703   0.122   7.699 -0.1452 -0.4085 -0.2058
 2738TIP3    H129773   5.615   0.086   7.704 -0.5157  0.1785 -1.9989
 2738TIP3    H229774   5.700   0.202   7.751 -1.1367  0.4420 -1.5183
 2739TIP3   OH229775   2.302   3.189   7.754 -0.5792  0.2464 -0.4326
 2739TIP3    H129776   2.326   3.198   7.662  0.0062  2.1047 -0.1469
 2739TIP3    H229777   2.234   3.255   7.767 -0.3412  0.3105  0.5560
 2740TIP3   OH229778   5.137   6.074   0.896 -0.6503  0.2243 -0.5170
 2740TIP3    H129779   5.076   6.013   0.854 -1.1372  0.1728  0.2522
 2740TIP3    H229780   5.172   6.025   0.971 -0.3246  0.5605 -0.4463
 2741TIP3   OH229781   2.465   4.441   1.257  0.9057 -0.1964 -0.4802
 2741TIP3    H129782   2.509   4.490   1.188 -0.6150  1.2868 -0.4578
 2741TIP3    H229783   2.387   4.493   1.277  0.0990 -1.7957  0.7245
 2742TIP3   OH229784   1.353   4.333   7.881  0.2845 -0.1191 -0.4898
 2742TIP3    H129785   1.402   4.255   7.856 -1.5669 -1.0885 -1.3032
 2742TIP3    H229786   1.301   4.355   7.804 -2.2382 -0.5027  0.9859
 2743TIP3   OH229787   0.376   5.561   2.106 -0.0298 -0.3251  0.3401
 2743TIP3    H129788   0.384   5.637   2.163 -0.5670 -1.4157  1.9474
 2743TIP3    H229789   0.426   5.492   2.151  0.6231 -0.8922 -1.1748
 2744TIP3   OH229790   2.678   6.730   8.569  0.7768  0.3859  0.8179
 2744TIP3    H129791   2.692   6.648   8.521  2.4246  0.3257  1.3461
 2744TIP3    H229792   2.584   6.731   8.587  0.0449  0.4223 -2.3999
 2745TIP3   OH229793   0.808   5.580   8.083 -0.3768  0.1603  0.3828
 2745TIP3    H129794   0.801   5.670   8.054  1.8191  0.3476  0.2113
 2745TIP3    H229795   0.842   5.533   8.007 -1.4984 -0.8286  0.4709
 2746TIP3   OH229796   3.456   1.216   8.352 -0.4228 -0.0527  0.1507
 2746TIP3    H129797   3.537   1.249   8.313  0.2470 -3.0052 -1.1726
 2746TIP3    H229798   3.483   1.178   8.436  0.2450 -3.5186 -1.4648
 2747TIP3   OH229799   5.269   2.521   7.692 -0.0919 -0.4093  0.7775
 2747TIP3    H129800   5.332   2.574   7.742 -0.7774 -0.1372  1.3766
 2747TIP3    H229801   5.323   2.465   7.637  0.6572  1.0646 -0.0518
 2748TIP3   OH229802   6.214   2.060   2.463 -0.1301  0.3404 -0.8325
 2748TIP3    H129803   6.275   2.073   2.536  0.3931  1.6586 -1.4827
 2748TIP3    H229804   6.129   2.046   2.505  0.6047 -1.7548  0.0974
 2749TIP3   OH229805   1.773   1.094   7.170  0.0292 -0.0927 -0.1233
 2749TIP3    H129806   1.682   1.065   7.179 -0.4181  0.5431 -2.1855
 2749TIP3    H229807   1.824   1.012   7.166 -0.4698 -0.4517  0.5896
 2750TIP3   OH229808   5.840   3.370   0.820 -0.0907  0.2609  0.0040
 2750TIP3    H129809   5.791   3.450   0.803 -1.3127 -0.8537 -2.0161
 2750TIP3    H229810   5.901   3.394   0.891 -1.7044  2.4091  0.7606
 2751TIP3   OH229811   6.690   2.426   7.413 -0.3842  0.0904  0.3275
 2751TIP3    H129812   6.760   2.458   7.355 -1.4833  2.6037  0.2442
 2751TIP3    H229813   6.649   2.506   7.447 -1.6502 -1.3110  2.3133
 2752TIP3   OH229814   1.901   4.689   2.862 -0.3169 -0.1450 -0.2920
 2752TIP3    H129815   1.879   4.614   2.807  0.4139 -0.4021 -0.2494
 2752TIP3    H229816   1.963   4.654   2.926 -1.0463  0.1753  0.6184
 2753TIP3   OH229817   0.881   2.548   0.558  0.0567  0.7050  0.7079
 2753TIP3    H129818   0.935   2.605   0.504 -0.6559  0.7497  0.0246
 2753TIP3    H229819   0.820   2.607   0.602  0.4760  0.6429  1.3916
 2754TIP3   OH229820   1.971   1.711   0.283 -0.1273  0.5210  0.8976
 2754TIP3    H129821   1.996   1.670   0.201  2.0182 -0.1895  1.8281
 2754TIP3    H229822   1.890   1.758   0.263  0.0363 -0.0754 -1.4532
 2755TIP3   OH229823   0.338   5.892   2.468  0.5488 -0.6423 -0.3033
 2755TIP3    H129824   0.305   5.964   2.414  1.3717 -0.3965 -0.4947
 2755TIP3    H229825   0.357   5.822   2.405 -1.1117 -1.3812 -0.0233
 2756TIP3   OH229826   5.274   6.010   2.952  0.2140  0.0727  0.2212
 2756TIP3    H129827   5.278   6.084   3.013  0.8761  0.0899  0.1649
 2756TIP3    H229828   5.192   5.965   2.974  1.4008 -1.1184  2.5327
 2757TIP3   OH229829   1.299   1.888   2.078  0.0158  0.2139  0.1260
 2757TIP3    H129830   1.326   1.897   2.170 -0.6839  1.3863  0.2283
 2757TIP3    H229831   1.277   1.795   2.069 -0.2369  0.1512  1.2404
 2758TIP3   OH229832   5.730   4.189   8.423  0.0715  0.2714 -0.2271
 2758TIP3    H129833   5.728   4.267   8.369  0.0479 -0.0013 -0.6236
 2758TIP3    H229834   5.655   4.197   8.481 -0.9539 -0.2871 -1.4378
 2759TIP3   OH229835   2.537   6.652   7.254 -0.1471  0.0977 -0.0507
 2759TIP3    H129836   2.541   6.570   7.204  1.0212  0.1618 -0.0968
 2759TIP3    H229837   2.560   6.720   7.191  0.1596  0.3133  0.2934
 2760TIP3   OH229838   3.944   2.845   7.702  0.5888 -0.4197 -0.3712
 2760TIP3    H129839   3.868   2.787   7.700  0.2429  0.0274 -0.5178
 2760TIP3    H229840   3.965   2.854   7.795 -0.6721  0.8781 -0.1630
 2761TIP3   OH229841   5.589   0.491   1.174  0.5681 -0.3648  0.1453
 2761TIP3    H129842   5.539   0.502   1.093  1.7223 -1.2171 -0.7172
 2761TIP3    H229843   5.671   0.450   1.146  0.6310 -1.5075  1.8698
 2762TIP3   OH229844   6.673   0.123   2.235  0.0954 -0.4903 -0.1800
 2762TIP3    H129845   6.685   0.101   2.327  0.1005 -2.0003 -0.5100
 2762TIP3    H229846   6.580   0.146   2.228  0.5898  2.0133  0.6161
 2763TIP3   OH229847   3.181   4.567   0.553 -0.8910  0.6183  0.2204
 2763TIP3    H129848   3.168   4.658   0.525 -0.2088  0.7099  0.1848
 2763TIP3    H229849   3.164   4.515   0.475 -0.9599  0.7381  0.1560
 2764TIP3   OH229850   2.670   2.906   6.869 -0.2242  0.2720  0.1736
 2764TIP3    H129851   2.635   2.992   6.844  0.2619  0.3421 -0.2777
 2764TIP3    H229852   2.662   2.853   6.789  0.2866  0.1598  0.1937
 2765TIP3   OH229853   5.816   5.399   0.213  0.4307  0.5843 -0.1943
 2765TIP3    H129854   5.765   5.448   0.148 -0.7201 -1.3625 -0.8411
 2765TIP3    H229855   5.907   5.407   0.185  0.2646  2.1815 -0.3594
 2766TIP3   OH229856   4.987   3.175   7.553  0.1107  0.4323 -0.4309
 2766TIP3    H129857   5.081   3.189   7.554  0.1329  0.5366 -1.9061
 2766TIP3    H229858   4.976   3.080   7.552  0.1498  0.3921  0.7902
 2767TIP3   OH229859   3.087   0.142   2.468 -0.4430  0.7672  0.1040
 2767TIP3    H129860   3.131   0.111   2.547 -0.7557  1.0487  0.3885
 2767TIP3    H229861   3.071   0.235   2.484  0.8035  1.1894 -0.8808
 2768TIP3   OH229862   0.857   2.691   7.521 -0.2538 -0.1551 -0.6666
 2768TIP3    H129863   0.802   2.646   7.456  0.1175 -0.2894 -0.8873
 2768TIP3    H229864   0.924   2.735   7.469  0.5131 -0.9045 -0.3282
 2769TIP3   OH229865   0.574   6.330   7.572 -0.4394  0.5316 -0.4861
 2769TIP3    H129866   0.497   6.376   7.539  0.2103  1.6268 -0.5633
 2769TIP3    H229867   0.596   6.267   7.504 -2.6072 -1.4694  0.5518
 2770TIP3   OH229868   6.500   4.863   1.931 -0.0255  0.3308 -0.0747
 2770TIP3    H129869   6.412   4.825   1.921 -0.6407  1.4416  0.8108
 2770TIP3    H229870   6.557   4.788   1.945 -0.4708 -0.5978 -2.6773
 2771TIP3   OH229871   2.796   1.383   1.921 -0.0010 -0.3760 -0.2544
 2771TIP3    H129872   2.759   1.472   1.917  0.0396 -0.4101 -1.6574
 2771TIP3    H229873   2.738   1.331   1.865 -0.2494 -1.3387  0.8574
 2772TIP3   OH229874   0.530   2.410   0.868 -0.0627 -0.6953  0.8899
 2772TIP3    H129875   0.600   2.414   0.803 -0.3384 -0.1950  0.6191
 2772TIP3    H229876   0.500   2.500   0.876 -2.1260 -1.1827 -0.5883
 2773TIP3   OH229877   5.510   3.665   7.785  0.1633  0.0684  0.0534
 2773TIP3    H129878   5.531   3.617   7.866 -0.5804 -0.2712  0.0528
 2773TIP3    H229879   5.538   3.755   7.803  1.0683 -0.2399  0.2574
 2774TIP3   OH229880   2.560   2.706   8.285  0.0406 -0.0651 -0.0841
 2774TIP3    H129881   2.584   2.624   8.241  2.2155  1.4017 -1.8018
 2774TIP3    H229882   2.643   2.740   8.318 -0.6260  2.0554 -0.4952
 2775TIP3   OH229883   6.623   1.623   2.255 -0.5437  0.1232 -0.4197
 2775TIP3    H129884   6.550   1.679   2.281  0.2720  2.4301 -2.6783
 2775TIP3    H229885   6.628   1.633   2.160  1.4480 -1.5708 -0.5595
 2776TIP3   OH229886   6.851   1.981   8.633  0.2495 -0.2729  0.6184
 2776TIP3    H129887   6.924   1.934   8.594  1.3925  0.1874  2.1251
 2776TIP3    H229888   6.886   2.067   8.657 -1.3623  0.7946 -0.5660
 2777TIP3   OH229889   4.391   2.505   1.612  0.1714  0.0613  0.2651
 2777TIP3    H129890   4.380   2.473   1.522  0.7065  1.9629 -0.5150
 2777TIP3    H229891   4.474   2.467   1.640 -0.5864 -1.5648  0.4685
 2778TIP3   OH229892   2.071   2.725   2.622 -0.4155  0.2917 -0.1315
 2778TIP3    H129893   2.054   2.688   2.708 -0.2367 -2.0080 -1.0069
 2778TIP3    H229894   1.986   2.723   2.578 -0.4030  0.9739 -0.2026
 2779TIP3   OH229895   4.136   6.629   1.439  0.3189 -0.2249  0.5649
 2779TIP3    H129896   4.182   6.572   1.378  0.4330 -0.2521  0.6760
 2779TIP3    H229897   4.130   6.713   1.393 -0.8501 -0.6295 -0.0596
 2780TIP3   OH229898   5.957   6.523   1.953 -1.0270 -0.1014 -0.4785
 2780TIP3    H129899   5.889   6.497   1.892 -0.9404  0.9291 -1.0289
 2780TIP3    H229900   5.982   6.611   1.925 -0.7939  0.2781  0.8716
 2781TIP3   OH229901   3.070   0.384   0.536 -0.1559 -0.1782 -0.2339
 2781TIP3    H129902   3.055   0.397   0.442 -2.0404 -1.0273 -0.0947
 2781TIP3    H229903   2.983   0.389   0.575  0.5989  0.1993  1.5035
 2782TIP3   OH229904   5.590   5.888   1.573 -0.3335  0.2871  0.2247
 2782TIP3    H129905   5.592   5.793   1.564  0.6005  0.1792  1.4217
 2782TIP3    H229906   5.586   5.904   1.668  1.0287  1.4478  0.1300
 2783TIP3   OH229907   5.709   6.492   1.833 -0.2820 -0.1182 -0.2520
 2783TIP3    H129908   5.626   6.480   1.879  0.1729  0.9838  0.9280
 2783TIP3    H229909   5.721   6.412   1.783 -1.8005 -0.5101 -0.0219
 2784TIP3   OH229910   1.323   2.676   0.327  0.0409  0.4721 -0.2432
 2784TIP3    H129911   1.418   2.691   0.330  0.2584 -0.5912 -1.1086
 2784TIP3    H229912   1.315   2.584   0.301 -1.2519  0.9728 -1.7133
 2785TIP3   OH229913   0.456   3.656   1.764 -0.1905  0.0731  0.6726
 2785TIP3    H129914   0.506   3.599   1.706  0.5757 -0.1575  1.5399
 2785TIP3    H229915   0.454   3.740   1.718  1.0329  0.0964  0.6183
 2786TIP3   OH229916   5.098   0.602   7.417 -0.0456  0.1758  0.1550
 2786TIP3    H129917   5.181   0.644   7.396 -0.3583  0.6960 -0.0436
 2786TIP3    H229918   5.042   0.616   7.341 -1.5525  2.9988  1.6263
 2787TIP3   OH229919   1.294   3.567   0.812 -0.0640 -0.1771 -0.5962
 2787TIP3    H129920   1.355   3.540   0.743  0.3761  0.8739 -0.6239
 2787TIP3    H229921   1.219   3.508   0.801  0.1755 -0.2917 -1.7089
 2788TIP3   OH229922   0.756   4.316   0.519 -0.5139 -0.1995 -0.7274
 2788TIP3    H129923   0.789   4.337   0.606 -0.1178  1.5286 -1.2664
 2788TIP3    H229924   0.716   4.230   0.530  1.8684 -1.2523  0.5357
 2789TIP3   OH229925   4.136   0.158   7.760 -0.5713 -0.5544 -0.2579
 2789TIP3    H129926   4.206   0.094   7.756 -0.5612 -0.4844 -2.4677
 2789TIP3    H229927   4.181   0.243   7.759 -0.6344 -0.5012  0.8208
 2790TIP3   OH229928   0.398   5.709   0.197  0.2269  0.3099  0.0418
 2790TIP3    H129929   0.366   5.777   0.256  0.1970 -0.4157  0.8795
 2790TIP3    H229930   0.346   5.719   0.117 -2.7200 -1.2902  1.5981
 2791TIP3   OH229931   0.541   0.165   0.991 -0.0468 -0.0533 -0.1480
 2791TIP3    H129932   0.610   0.102   1.011 -1.5001 -2.2300 -1.6089
 2791TIP3    H229933   0.562   0.197   0.904  1.1053  2.2196  0.8644
 2792TIP3   OH229934   2.851   6.737   0.828 -0.2465 -0.5354 -0.7100
 2792TIP3    H129935   2.923   6.755   0.889 -1.2477 -0.9260  0.6120
 2792TIP3    H229936   2.845   6.817   0.775  0.9190 -0.3595 -0.6049
 2793TIP3   OH229937   4.136   3.421   2.232 -0.8689  0.7109 -0.0248
 2793TIP3    H129938   4.060   3.476   2.250 -1.4696  0.1773 -0.8440
 2793TIP3    H229939   4.134   3.355   2.301 -1.6266  0.2319 -0.4879
 2794TIP3   OH229940   2.221   3.778   8.235 -0.1464 -0.0112  0.5117
 2794TIP3    H129941   2.275   3.843   8.190  1.1758 -0.9082  0.7434
 2794TIP3    H229942   2.267   3.695   8.221 -1.2854 -0.7529  1.0323
 2795TIP3   OH229943   5.710   6.716   7.779 -0.1642 -0.2237 -0.6611
 2795TIP3    H129944   5.776   6.739   7.714  1.9249 -0.8839  1.1157
 2795TIP3    H229945   5.730   6.772   7.854 -0.1537 -2.0069  0.7395
 2796TIP3   OH229946   5.117   2.503   0.539 -0.6145  0.0828 -0.1489
 2796TIP3    H129947   5.093   2.424   0.588 -0.3897 -0.0213 -0.2027
 2796TIP3    H229948   5.066   2.498   0.458 -0.1619 -0.3145 -0.4177
 2797TIP3   OH229949   4.460   1.972   7.573  0.6811 -0.0376  0.9617
 2797TIP3    H129950   4.517   1.896   7.568  1.4003  0.5420 -0.2652
 2797TIP3    H229951   4.483   2.024   7.495 -1.2618  0.3938  0.6271
 2798TIP3   OH229952   2.714   6.098   2.018  0.3396  0.0083  0.1530
 2798TIP3    H129953   2.704   6.146   2.100 -1.8150 -0.3284  0.1396
 2798TIP3    H229954   2.666   6.017   2.031  1.8192 -1.0631 -0.7044
 2799TIP3   OH229955   4.992   2.294   0.623 -0.5662 -0.3460 -0.3903
 2799TIP3    H129956   4.989   2.216   0.569 -0.4177 -0.7733  0.2013
 2799TIP3    H229957   4.903   2.304   0.656 -0.5249 -0.4316 -0.2477
 2800TIP3   OH229958   0.245   6.589   1.294 -0.1218 -0.1350  0.0164
 2800TIP3    H129959   0.184   6.620   1.227 -0.6939 -0.9390  0.1451
 2800TIP3    H229960   0.192   6.532   1.350  0.8986 -1.4119 -0.2751
 2801TIP3   OH229961   3.812   2.970   0.146 -0.3696 -0.1048  0.0765
 2801TIP3    H129962   3.771   3.010   0.069  0.0258 -0.2871 -0.2315
 2801TIP3    H229963   3.887   2.923   0.111 -1.1180 -1.5675  0.3740
 2802TIP3   OH229964   0.562   3.262   7.310 -0.3894 -0.8817 -0.4881
 2802TIP3    H129965   0.538   3.226   7.225  0.6878 -2.0942 -0.3183
 2802TIP3    H229966   0.648   3.303   7.295  0.4318 -2.2518  0.2599
 2803TIP3   OH229967   5.717   1.259   2.284 -1.1651  0.0195  0.5524
 2803TIP3    H129968   5.789   1.320   2.300 -1.4753  0.5671 -0.0494
 2803TIP3    H229969   5.656   1.273   2.356 -1.0902  0.2019  0.5798
 2804TIP3   OH229970   5.483   3.510   1.418 -0.1556  0.3036  0.1659
 2804TIP3    H129971   5.389   3.524   1.422  0.0666  1.9670  0.1942
 2804TIP3    H229972   5.521   3.596   1.434  1.3813 -0.4025  0.5227
 2805TIP3   OH229973   4.882   3.485   0.245 -0.3302  0.1166  0.0419
 2805TIP3    H129974   4.930   3.415   0.290  0.1284  0.0470 -0.5448
 2805TIP3    H229975   4.797   3.487   0.288 -0.1927 -0.5121  0.3528
 2806TIP3   OH229976   0.243   5.844   7.688 -0.7275 -0.5018  0.4784
 2806TIP3    H129977   0.214   5.850   7.779 -1.4039  1.5420  0.1931
 2806TIP3    H229978   0.282   5.757   7.680 -0.1393 -0.5170  2.8605
 2807TIP3   OH229979   5.375   5.020   8.499  0.2576 -0.0188  0.0826
 2807TIP3    H129980   5.450   4.960   8.502  1.6368  1.6108 -0.5727
 2807TIP3    H229981   5.392   5.078   8.425 -1.0561  1.1581  0.6447
 2808TIP3   OH229982   1.799   4.297   8.093  1.3039  0.3023  0.2275
 2808TIP3    H129983   1.827   4.344   8.015  1.0327 -1.4163 -0.9661
 2808TIP3    H229984   1.840   4.211   8.085 -1.2140 -0.9969  0.3440
 2809TIP3   OH229985   4.640   4.574   0.639 -0.3485  0.3176 -0.1368
 2809TIP3    H129986   4.624   4.487   0.604 -1.8361  0.3495  0.4069
 2809TIP3    H229987   4.705   4.612   0.580 -0.2235 -0.8827 -0.8031
 2810TIP3   OH229988   4.346   5.030   7.708 -0.3547 -0.2198  0.6186
 2810TIP3    H129989   4.346   4.937   7.684 -0.4017  0.1155 -0.7614
 2810TIP3    H229990   4.415   5.037   7.775  1.5279 -0.8165 -1.1422
 2811TIP3   OH229991   2.475   4.846   2.223 -0.1444 -0.1070  0.1370
 2811TIP3    H129992   2.511   4.929   2.253 -1.2400  0.0790  0.9986
 2811TIP3    H229993   2.380   4.860   2.221 -0.3283 -1.2768  0.0986
 2812TIP3   OH229994   3.754   5.832   6.748 -0.6636  0.4618 -0.6928
 2812TIP3    H129995   3.787   5.915   6.712 -0.5327  0.0560 -1.5291
 2812TIP3    H229996   3.780   5.766   6.684 -2.6119  0.0339 -1.1179
 2813TIP3   OH229997   0.794   6.402   0.337 -0.3165  0.4748  0.7631
 2813TIP3    H129998   0.816   6.320   0.294 -2.5199  0.5435 -0.6863
 2813TIP3    H229999   0.865   6.462   0.313  0.0883 -0.3648 -0.1735
 2814TIP3   OH230000   1.213   6.065   3.003 -0.4736 -0.0469 -0.1454
 2814TIP3    H130001   1.272   6.044   3.076  0.8251  1.7959 -0.5814
 2814TIP3    H230002   1.211   5.986   2.949  1.9745 -0.0409 -0.3398
 2815TIP3   OH230003   3.199   6.026   2.206  0.0008  0.0977 -0.2839
 2815TIP3    H130004   3.138   6.075   2.261  0.0114  0.0086 -0.1919
 2815TIP3    H230005   3.267   6.089   2.182  0.5052 -0.0964  0.5764
 2816TIP3   OH230006   4.537   3.235   8.306  0.3884 -0.0447  0.2008
 2816TIP3    H130007   4.563   3.144   8.290 -0.1556 -0.3862  1.2044
 2816TIP3    H230008   4.556   3.249   8.399 -1.2153  0.3009  0.4912
 2817TIP3   OH230009   1.336   4.066   8.156 -0.0167 -0.4449  0.4172
 2817TIP3    H130010   1.427   4.077   8.182 -0.0550  1.5823 -0.1592
 2817TIP3    H230011   1.337   4.073   8.061 -0.7181 -1.0545  0.3511
 2818TIP3   OH230012   2.601   2.383   6.533  0.1721  0.0063  0.0288
 2818TIP3    H130013   2.643   2.411   6.451 -1.3832 -0.3358 -0.9197
 2818TIP3    H230014   2.569   2.465   6.571 -1.6201 -0.0677 -1.1844
 2819TIP3   OH230015   4.726   4.545   8.315  0.0836 -0.0668  0.5705
 2819TIP3    H130016   4.798   4.566   8.375 -0.9073  1.3116  1.3503
 2819TIP3    H230017   4.715   4.624   8.262  0.4610 -1.0038 -0.9793
 2820TIP3   OH230018   0.517   1.775   8.596 -0.1018  0.4390  0.1451
 2820TIP3    H130019   0.600   1.742   8.629 -1.2117 -0.3641  2.3927
 2820TIP3    H230020   0.458   1.700   8.601 -1.3315  1.3685  0.1151
 2821TIP3   OH230021   1.821   5.121   1.296 -0.0360 -0.2268  0.4204
 2821TIP3    H130022   1.835   5.158   1.209  1.0621 -2.0028 -0.2275
 2821TIP3    H230023   1.771   5.187   1.343  0.3542  1.2812 -1.1839
 2822TIP3   OH230024   4.926   0.816   2.817  0.1209  0.3624  0.3785
 2822TIP3    H130025   4.946   0.850   2.729  2.3924  1.9260  1.4237
 2822TIP3    H230026   4.837   0.847   2.834  0.3520  1.6725 -0.6258
 2823TIP3   OH230027   3.023   5.484   7.314 -0.2705 -0.0307 -0.1210
 2823TIP3    H130028   3.070   5.542   7.374  0.7301 -1.6369  0.7171
 2823TIP3    H230029   2.934   5.481   7.347  0.0198 -0.0672  0.6853
 2824TIP3   OH230030   2.774   4.698   6.809 -0.3792 -0.3724  0.2109
 2824TIP3    H130031   2.852   4.659   6.849 -0.6704 -0.7846  0.3777
 2824TIP3    H230032   2.753   4.773   6.865  0.3683  0.2305 -0.2914
 2825TIP3   OH230033   1.311   6.801   0.230  0.4130  0.0658 -0.6019
 2825TIP3    H130034   1.230   6.756   0.253 -0.2559  0.1655 -2.5553
 2825TIP3    H230035   1.347   6.749   0.158 -1.4580  3.5437 -4.4249
 2826TIP3   OH230036   1.861   5.094   2.612 -0.4954  0.1940 -0.0546
 2826TIP3    H130037   1.813   5.174   2.633 -0.4683  0.0743  0.4698
 2826TIP3    H230038   1.841   5.034   2.684  1.0666  0.4010  0.5826
 2827TIP3   OH230039   4.322   2.415   1.080  0.4714  0.5793  0.3923
 2827TIP3    H130040   4.232   2.391   1.057  0.1373 -0.6693  2.6948
 2827TIP3    H230041   4.370   2.409   0.998 -0.9167 -1.9546 -0.3553
 2828TIP3   OH230042   1.652   3.403   1.921  0.3387  0.3997  0.6197
 2828TIP3    H130043   1.598   3.460   1.975 -1.9432  0.6394 -1.7178
 2828TIP3    H230044   1.596   3.380   1.846  2.5791 -1.5764 -0.6030
 2829TIP3   OH230045   3.807   2.334   7.501  0.4889 -0.1581  0.1176
 2829TIP3    H130046   3.744   2.401   7.474  1.3498  0.1248 -1.3195
 2829TIP3    H230047   3.763   2.251   7.484 -0.8208 -0.0184  2.4875
 2830TIP3   OH230048   5.093   6.804   8.535 -0.1347  0.4396 -0.9078
 2830TIP3    H130049   5.001   6.815   8.561  0.1823 -0.5319  0.7428
 2830TIP3    H230050   5.113   6.712   8.553  0.7002  0.1505 -2.9325
 2831TIP3   OH230051   1.211   3.522   8.022 -0.1307 -0.3844  0.6621
 2831TIP3    H130052   1.204   3.507   8.116 -0.6631 -0.8907  0.5413
 2831TIP3    H230053   1.235   3.615   8.015  1.2652 -0.6625  1.3335
 2832TIP3   OH230054   3.572   0.255   1.708  0.3558 -0.3178  0.3102
 2832TIP3    H130055   3.602   0.289   1.792 -2.2300  0.9587  0.8078
 2832TIP3    H230056   3.612   0.313   1.643  1.4717 -0.6292  0.6945
 2833TIP3   OH230057   0.787   1.050   8.577  0.9104 -0.1453 -0.0146
 2833TIP3    H130058   0.850   1.098   8.523  1.6356 -0.6817  0.3182
 2833TIP3    H230059   0.714   1.110   8.588  0.7591 -0.0121 -1.5423
 2834TIP3   OH230060   0.839   5.355   0.627  0.1261  0.1755  0.6558
 2834TIP3    H130061   0.910   5.409   0.660  0.3190 -0.2503  0.9455
 2834TIP3    H230062   0.805   5.309   0.705  1.0340 -1.3720  0.1880
 2835TIP3   OH230063   4.168   1.905   7.489 -0.5286 -0.2934 -0.7977
 2835TIP3    H130064   4.156   1.852   7.567  0.7419 -0.5153 -0.7404
 2835TIP3    H230065   4.144   1.994   7.516  1.6602 -0.0047  0.4013
 2836TIP3   OH230066   0.770   0.922   8.214 -0.2957 -0.3708 -0.2805
 2836TIP3    H130067   0.819   0.841   8.224 -1.6263 -1.0364  1.2072
 2836TIP3    H230068   0.695   0.912   8.271 -0.7518  1.7306 -0.4351
 2837TIP3   OH230069   0.487   4.883   0.875  0.3909  0.0453 -0.5768
 2837TIP3    H130070   0.496   4.978   0.864 -0.0239  0.0270 -1.1448
 2837TIP3    H230071   0.543   4.862   0.950  1.0004  0.6365 -0.8612
 2838TIP3   OH230072   1.796   6.393   1.086 -0.0699 -0.4110  0.5151
 2838TIP3    H130073   1.798   6.466   1.148 -0.8899 -0.0041  0.0812
 2838TIP3    H230074   1.711   6.401   1.043  0.4609 -0.7073 -0.6262
 2839TIP3   OH230075   1.350   1.480   7.519 -0.4695  0.1422 -0.6373
 2839TIP3    H130076   1.325   1.388   7.513 -2.0949  0.2192  2.6133
 2839TIP3    H230077   1.445   1.479   7.534 -0.8338 -1.3528  2.4725
 2840TIP3   OH230078   6.849   2.009   2.185 -0.1817 -0.1095  0.0503
 2840TIP3    H130079   6.818   1.976   2.269 -0.6898 -1.5063 -0.6630
 2840TIP3    H230080   6.775   1.996   2.125 -0.1311  1.6312 -0.4575
 2841TIP3   OH230081   4.166   4.528   2.787  0.1732  0.0125  0.2713
 2841TIP3    H130082   4.220   4.486   2.719 -1.5686 -0.5955 -0.7942
 2841TIP3    H230083   4.129   4.455   2.837  0.8329  0.4428  1.4117
 2842TIP3   OH230084   3.520   4.455   0.131 -0.3265  0.1375 -0.2496
 2842TIP3    H130085   3.579   4.397   0.083 -0.2929 -0.2091  0.2101
 2842TIP3    H230086   3.432   4.425   0.107 -0.3098 -0.0475 -0.0758
 2843TIP3   OH230087   2.097   2.676   0.211  0.2615  0.2452  0.1692
 2843TIP3    H130088   2.188   2.647   0.222  0.4721  1.0144  0.4792
 2843TIP3    H230089   2.065   2.625   0.136  1.1932  0.5288 -0.4403
 2844TIP3   OH230090   2.701   4.323   1.308 -0.3913 -0.0562 -0.3794
 2844TIP3    H130091   2.627   4.383   1.312 -0.4244 -0.1599  1.6536
 2844TIP3    H230092   2.670   4.243   1.352  0.4940 -0.6072 -0.7200
 2845TIP3   OH230093   0.358   2.068   2.186 -0.6394  1.0028 -0.0289
 2845TIP3    H130094   0.346   2.142   2.127 -1.3514  1.4749  0.6836
 2845TIP3    H230095   0.301   2.000   2.150 -1.2292  1.3566  0.2088
 2846TIP3   OH230096   2.078   0.199   1.048 -0.0803 -0.2885  0.0702
 2846TIP3    H130097   2.121   0.191   1.133 -0.1763  0.9888  0.2512
 2846TIP3    H230098   1.984   0.201   1.069 -0.1222 -0.3955 -0.1033
 2847TIP3   OH230099   2.339   2.071   7.978  0.1923  0.3109  0.2073
 2847TIP3    H130100   2.338   2.113   8.065  0.4791 -0.9504  0.8464
 2847TIP3    H230101   2.378   1.985   7.994 -1.7960 -0.8350 -0.7501
 2848TIP3   OH230102   6.653   4.310   1.850  0.0959 -0.2969  0.1781
 2848TIP3    H130103   6.646   4.221   1.883 -2.1406 -0.0645  0.4467
 2848TIP3    H230104   6.665   4.365   1.928  0.4208 -0.2569  0.1028
 2849TIP3   OH230105   1.163   4.055   1.820  0.3962 -0.2084  0.4499
 2849TIP3    H130106   1.078   4.094   1.800  0.1208 -1.3011 -0.6517
 2849TIP3    H230107   1.221   4.087   1.751  0.4928 -0.6720  0.3107
 2850TIP3   OH230108   2.719   0.281   2.526 -0.0193 -0.1032  0.1906
 2850TIP3    H130109   2.688   0.191   2.510 -1.3299  0.5355 -1.1504
 2850TIP3    H230110   2.676   0.307   2.607 -1.3195 -0.0167 -0.4886
 2851TIP3   OH230111   1.127   5.683   8.135  0.0741  0.5013  0.8015
 2851TIP3    H130112   1.089   5.713   8.218 -1.2105 -0.8718  0.7583
 2851TIP3    H230113   1.053   5.644   8.088  1.5762 -2.9650  0.9998
 2852TIP3   OH230114   4.551   4.344   8.401 -0.1025  0.4683 -0.8268
 2852TIP3    H130115   4.561   4.311   8.490  0.2427 -0.0594 -1.0567
 2852TIP3    H230116   4.626   4.403   8.389  0.9716 -0.9555 -1.4194
 2853TIP3   OH230117   4.811   1.058   1.094  0.4334  0.1357 -0.0849
 2853TIP3    H130118   4.873   1.131   1.096  1.1127 -0.4073 -0.6456
 2853TIP3    H230119   4.783   1.053   1.003 -1.9392  1.5659  0.4577
 2854TIP3   OH230120   4.813   0.323   2.221 -0.1404 -0.0062  0.1123
 2854TIP3    H130121   4.897   0.344   2.181 -0.6734  0.2675 -0.8852
 2854TIP3    H230122   4.809   0.227   2.221  0.3568 -0.0359  0.5915
 2855TIP3   OH230123   5.693   6.417   1.420 -0.9082 -0.0464 -0.4819
 2855TIP3    H130124   5.770   6.460   1.382  0.5351 -2.5576 -0.5965
 2855TIP3    H230125   5.726   6.377   1.501 -2.2898 -0.5448 -0.1415
 2856TIP3   OH230126   6.878   4.824   0.902 -0.1236  0.6079  0.4478
 2856TIP3    H130127   6.852   4.781   0.820  0.1823  1.8698 -0.3299
 2856TIP3    H230128   6.799   4.822   0.956  0.1849 -1.9875  0.9444
 2857TIP3   OH230129   4.348   0.192   8.077 -0.4885  0.0455 -0.0435
 2857TIP3    H130130   4.266   0.166   8.035 -1.2574  2.0421  0.1265
 2857TIP3    H230131   4.371   0.276   8.036 -0.2455  1.1018  2.1092
 2858TIP3   OH230132   2.993   5.752   1.134 -0.3092  0.2215 -0.5783
 2858TIP3    H130133   2.975   5.658   1.122 -0.0614  0.0341  0.4268
 2858TIP3    H230134   2.918   5.796   1.094 -0.4313 -0.4027 -1.0568
 2859TIP3   OH230135   2.783   0.917   1.447  0.2581 -0.0157  0.5802
 2859TIP3    H130136   2.736   0.997   1.425 -0.4067 -0.0839  1.6768
 2859TIP3    H230137   2.843   0.903   1.374 -2.1715 -0.5225 -1.4463
 2860TIP3   OH230138   3.674   1.343   0.903  0.3561  0.6669  0.3519
 2860TIP3    H130139   3.626   1.298   0.834  0.5670 -0.2849  0.8180
 2860TIP3    H230140   3.631   1.428   0.910 -0.7559  0.1324  0.2291
 2861TIP3   OH230141   0.081   3.481   1.767  0.2243  0.3879  0.5685
 2861TIP3    H130142   0.109   3.447   1.682 -0.1513  2.5468 -0.5011
 2861TIP3    H230143   0.103   3.412   1.829  0.6047 -1.2281 -1.2561
 2862TIP3   OH230144   4.580   1.906   0.070 -0.3430  0.5147 -0.2606
 2862TIP3    H130145   4.598   1.935   0.159  0.8078  0.8793 -0.5889
 2862TIP3    H230146   4.666   1.905   0.027 -0.7814 -0.3275 -1.1678
 2863TIP3   OH230147   0.387   5.651   1.467 -0.0723  0.1423 -0.1910
 2863TIP3    H130148   0.426   5.708   1.533 -0.2219  0.3823 -0.3078
 2863TIP3    H230149   0.381   5.565   1.509  0.5420  0.1123 -0.1576
 2864TIP3   OH230150   1.655   0.118   8.016 -0.1786 -0.2693 -0.5505
 2864TIP3    H130151   1.589   0.087   8.079 -0.3680  0.2905 -0.4668
 2864TIP3    H230152   1.713   0.174   8.068 -0.4156  0.3042 -0.8974
 2865TIP3   OH230153   3.515   5.018   7.851 -0.1883 -0.8556  0.1981
 2865TIP3    H130154   3.454   5.076   7.896  0.7580  0.7186 -0.4913
 2865TIP3    H230155   3.462   4.977   7.783 -1.0030 -1.2709  1.0606
 2866TIP3   OH230156   5.022   6.494   7.640 -0.1269 -0.0029  0.1061
 2866TIP3    H130157   5.052   6.477   7.729  0.5457  1.3571  0.1577
 2866TIP3    H230158   5.043   6.414   7.592  1.8785  0.1918  0.5821
 2867TIP3   OH230159   1.913   4.733   2.262 -0.8725  0.3289 -0.0422
 2867TIP3    H130160   1.869   4.802   2.211 -0.1136  0.2212 -0.8640
 2867TIP3    H230161   2.006   4.753   2.254 -0.5165 -1.7043 -1.6987
 2868TIP3   OH230162   3.453   6.643   0.332  0.2244 -0.6501 -0.0751
 2868TIP3    H130163   3.530   6.585   0.332  1.3465  0.7848 -0.7730
 2868TIP3    H230164   3.438   6.663   0.424  1.4738  0.0212  0.0094
 2869TIP3   OH230165   4.275   2.254   8.110  0.1219 -0.4868  0.3180
 2869TIP3    H130166   4.362   2.242   8.072 -0.0053  1.0290 -0.5149
 2869TIP3    H230167   4.229   2.172   8.090  0.8927 -0.7392 -0.5064
 2870TIP3   OH230168   0.766   5.393   0.081  0.0551 -0.0436 -0.1137
 2870TIP3    H130169   0.744   5.382   0.174  0.4664 -0.7065 -0.0881
 2870TIP3    H230170   0.683   5.384   0.035 -0.3050  1.1521  0.2371
 2871TIP3   OH230171   4.128   6.568   2.295 -0.1906  0.1802  0.1932
 2871TIP3    H130172   4.148   6.572   2.201  0.2917  1.2515  0.3307
 2871TIP3    H230173   4.087   6.482   2.307  1.8198 -0.9798 -0.6083
 2872TIP3   OH230174   0.919   2.945   7.756 -0.5372 -0.1368  0.1434
 2872TIP3    H130175   0.940   3.007   7.825  0.0751  2.0099 -1.8336
 2872TIP3    H230176   0.999   2.937   7.705 -1.3465 -0.5435 -1.1258
 2873TIP3   OH230177   6.235   2.558   0.547 -0.0372 -0.4081  0.0265
 2873TIP3    H130178   6.162   2.546   0.486  0.9853  0.5418 -1.4492
 2873TIP3    H230179   6.202   2.619   0.612 -0.3010  0.8053 -1.1873
 2874TIP3   OH230180   6.633   5.874   0.285 -0.1185 -0.0822  0.1498
 2874TIP3    H130181   6.592   5.841   0.365 -1.9581  0.8597 -0.3483
 2874TIP3    H230182   6.569   5.937   0.249  1.1873  0.4254 -1.4126
 2875TIP3   OH230183   5.388   4.026   8.604  0.2647 -0.3391 -0.8912
 2875TIP3    H130184   5.455   4.093   8.620  0.7630 -0.8773 -0.6719
 2875TIP3    H230185   5.305   4.073   8.606  0.6452  0.3624 -1.2707
 2876TIP3   OH230186   2.931   1.577   0.582 -0.1386 -0.2584  0.5262
 2876TIP3    H130187   2.931   1.671   0.602  1.3428 -0.1834  0.3117
 2876TIP3    H230188   2.866   1.566   0.513 -1.1190  0.4193  1.3140
 2877TIP3   OH230189   3.813   2.454   1.271  0.3394  0.4354 -0.3403
 2877TIP3    H130190   3.812   2.394   1.197  0.6884  1.8163 -1.5082
 2877TIP3    H230191   3.902   2.490   1.271  0.2712  0.6320  0.6194
 2878TIP3   OH230192   6.531   2.350   7.120 -0.2595 -0.3007  0.0982
 2878TIP3    H130193   6.547   2.353   7.025  0.5522 -0.9232  0.2083
 2878TIP3    H230194   6.610   2.310   7.156 -0.9364 -0.8831  0.9573
 2879TIP3   OH230195   2.893   4.882   2.913 -0.1878  0.6090 -0.0884
 2879TIP3    H130196   2.867   4.790   2.912  0.6186  0.3642 -1.6645
 2879TIP3    H230197   2.833   4.924   2.850  1.0041  0.6596 -1.2331
 2880TIP3   OH230198   6.756   1.498   8.488 -0.3199  0.3956 -0.1758
 2880TIP3    H130199   6.696   1.554   8.539  0.1926  2.6012 -1.8725
 2880TIP3    H230200   6.843   1.520   8.521 -0.1552  0.1726 -0.4624
 2881TIP3   OH230201   3.702   6.338   1.836 -0.1941 -0.2644  0.0012
 2881TIP3    H130202   3.651   6.315   1.914 -1.1995  0.9095 -0.2782
 2881TIP3    H230203   3.667   6.281   1.767 -1.7204  1.0270 -0.3647
 2882TIP3   OH230204   6.289   0.188   7.068  0.0010  0.2011  0.3126
 2882TIP3    H130205   6.344   0.226   6.999  1.2455 -0.4569  0.9122
 2882TIP3    H230206   6.204   0.172   7.025  0.2975  1.1314 -0.6614
 2883TIP3   OH230207   4.296   5.715   1.086  0.1526  0.2408  0.4549
 2883TIP3    H130208   4.377   5.759   1.110  0.6178  0.8475 -1.9354
 2883TIP3    H230209   4.229   5.784   1.088  0.5230  0.7260 -1.4451
 2884TIP3   OH230210   2.793   3.877   2.406 -0.0273 -0.1611 -0.1753
 2884TIP3    H130211   2.829   3.879   2.317  0.6106 -1.9018  0.0122
 2884TIP3    H230212   2.722   3.813   2.401  2.4308 -3.2682  1.3486
 2885TIP3   OH230213   5.206   4.924   8.146  0.1106  0.4314  0.1416
 2885TIP3    H130214   5.195   4.983   8.072 -0.0498 -0.0187 -0.1937
 2885TIP3    H230215   5.218   4.982   8.222  1.2167  0.9014 -0.3716
 2886TIP3   OH230216   4.006   0.430   0.399 -0.3860  0.4380 -0.3156
 2886TIP3    H130217   3.915   0.416   0.425 -0.1830  0.8417  0.6574
 2886TIP3    H230218   4.058   0.398   0.473  0.2935 -0.2842 -1.0786
 2887TIP3   OH230219   1.581   2.269   0.881 -0.1126 -0.5224 -0.1162
 2887TIP3    H130220   1.505   2.327   0.884  0.4244  0.1761  0.2626
 2887TIP3    H230221   1.628   2.294   0.801 -0.7291 -1.5521 -0.8258
 2888TIP3   OH230222   0.474   3.772   1.104 -0.3523 -0.0688  0.2114
 2888TIP3    H130223   0.529   3.824   1.044 -0.4043  0.3375  0.5096
 2888TIP3    H230224   0.387   3.775   1.064 -0.1467 -0.8063 -0.3201
 2889TIP3   OH230225   4.556   3.766   1.959 -0.3747 -0.3614 -0.1220
 2889TIP3    H130226   4.642   3.748   1.921 -0.4656  0.9330 -0.9917
 2889TIP3    H230227   4.495   3.713   1.907 -0.0426 -1.9831  1.0704
 2890TIP3   OH230228   3.448   5.634   1.859  0.2878  0.1680  0.0433
 2890TIP3    H130229   3.405   5.714   1.831 -0.3198 -0.4120 -0.7141
 2890TIP3    H230230   3.388   5.595   1.922 -0.8362 -1.1365 -1.7333
 2891TIP3   OH230231   5.489   1.386   2.177  0.4407 -0.4495 -0.1812
 2891TIP3    H130232   5.570   1.339   2.158  0.2725 -1.4446  1.4025
 2891TIP3    H230233   5.511   1.478   2.160  1.7012 -0.7679 -0.4149
 2892TIP3   OH230234   2.905   2.527   1.113 -0.0178 -0.1003 -0.0982
 2892TIP3    H130235   2.864   2.613   1.101  0.7955  0.3108  0.0073
 2892TIP3    H230236   2.895   2.484   1.028  2.9222  1.5792 -1.4866
 2893TIP3   OH230237   4.607   6.638   7.973 -0.2565 -0.1616 -0.0126
 2893TIP3    H130238   4.631   6.716   7.923  1.4014  0.8199  2.1550
 2893TIP3    H230239   4.672   6.572   7.947 -1.4370 -0.7829 -1.5690
 2894TIP3   OH230240   3.114   3.335   2.007  0.2807 -0.0164  0.1067
 2894TIP3    H130241   3.108   3.382   1.923 -0.4393  1.3015  0.8569
 2894TIP3    H230242   3.195   3.367   2.046 -1.2080  2.3067  1.5377
 2895TIP3   OH230243   4.184   3.773   0.110 -0.0326 -0.4175  0.1421
 2895TIP3    H130244   4.124   3.752   0.038  0.0803  1.5000 -0.5628
 2895TIP3    H230245   4.128   3.775   0.188 -0.6067 -0.1925 -0.2672
 2896TIP3   OH230246   1.698   4.890   0.981  0.1851  0.2260 -0.1988
 2896TIP3    H130247   1.633   4.846   0.926 -0.6896  2.1183 -0.7563
 2896TIP3    H230248   1.709   4.976   0.942  3.1267 -0.0211 -0.1454
 2897TIP3   OH230249   5.146   0.702   0.217 -0.0887  0.2458  0.4809
 2897TIP3    H130250   5.149   0.608   0.231  0.6398  0.1607 -0.1993
 2897TIP3    H230251   5.101   0.736   0.295  0.6103 -0.5524  1.2595
 2898TIP3   OH230252   4.508   5.851   7.654 -0.1154 -0.3463 -0.3019
 2898TIP3    H130253   4.584   5.796   7.672 -0.4982 -0.4719  1.0602
 2898TIP3    H230254   4.509   5.915   7.725 -1.4277 -0.5148 -0.1213
 2899TIP3   OH230255   2.738   2.842   1.427 -0.4673 -0.3968 -0.3209
 2899TIP3    H130256   2.750   2.749   1.445 -0.0169 -0.3467 -0.3534
 2899TIP3    H230257   2.652   2.863   1.464  0.2144 -0.4034  1.3519
 2900TIP3   OH230258   6.658   0.932   2.165  0.2207 -0.1864 -0.2045
 2900TIP3    H130259   6.681   0.839   2.159 -1.5898 -0.6435 -0.5700
 2900TIP3    H230260   6.722   0.976   2.109 -0.2220 -1.4639 -1.7977
 2901TIP3   OH230261   4.430   1.536   2.073 -0.2198  0.3090 -0.0096
 2901TIP3    H130262   4.413   1.551   2.165 -2.0545 -1.6331  0.0405
 2901TIP3    H230263   4.351   1.492   2.040  0.9003 -0.2363 -2.1966
 2902TIP3   OH230264   1.816   1.781   1.070  0.0306 -0.1878  0.4792
 2902TIP3    H130265   1.850   1.722   1.002  3.7003 -0.5555  2.3726
 2902TIP3    H230266   1.781   1.722   1.136 -0.4280 -0.0094  0.3939
 2903TIP3   OH230267   3.594   3.215   1.695  0.0899  0.0915  0.7165
 2903TIP3    H130268   3.686   3.189   1.691  0.3999  1.2487 -0.4017
 2903TIP3    H230269   3.577   3.229   1.788  0.5530 -1.7046  1.1298
 2904TIP3   OH230270   3.505   1.809   0.249 -0.2183  0.0277 -0.6363
 2904TIP3    H130271   3.419   1.852   0.254 -0.6112 -0.7673 -0.2943
 2904TIP3    H230272   3.553   1.859   0.184 -1.4372 -0.3592 -1.8859
 2905TIP3   OH230273   6.495   0.249   1.925  0.5854  0.2660  0.2026
 2905TIP3    H130274   6.534   0.336   1.933  3.8042 -1.1699  1.5713
 2905TIP3    H230275   6.462   0.229   2.013  1.7580 -0.6899  0.4395
 2906TIP3   OH230276   2.323   6.498   0.472  0.2950 -0.2206  0.6931
 2906TIP3    H130277   2.380   6.567   0.438  0.4848  0.9902  3.2296
 2906TIP3    H230278   2.359   6.479   0.558 -1.9248 -0.8941  1.5229
 2907TIP3   OH230279   1.487   3.721   0.088  0.1866  0.1134  0.2847
 2907TIP3    H130280   1.427   3.692   0.156  1.4788 -0.4799  1.2187
 2907TIP3    H230281   1.435   3.723   0.008 -2.3167  4.0063  1.7133
 2908TIP3   OH230282   0.380   6.773   7.658  0.3134 -0.2831 -0.5217
 2908TIP3    H130283   0.455   6.746   7.711 -0.3258 -0.5276  0.2606
 2908TIP3    H230284   0.331   6.833   7.713 -0.7076 -1.0400 -0.5846
 2909TIP3   OH230285   6.577   1.223   7.900  0.1585 -0.2504 -0.4195
 2909TIP3    H130286   6.581   1.133   7.866 -0.0644 -1.4487  2.4610
 2909TIP3    H230287   6.485   1.236   7.922  0.4901 -0.0475  0.9188
 2910TIP3   OH230288   3.074   1.806   8.429  0.7061  0.1978  0.0132
 2910TIP3    H130289   3.138   1.823   8.359 -1.0546 -1.3011 -2.1155
 2910TIP3    H230290   3.110   1.730   8.476  1.3630  0.5204  0.0491
 2911TIP3   OH230291   6.364   3.729   1.387 -0.2306 -0.2517 -0.2065
 2911TIP3    H130292   6.359   3.718   1.482 -0.3300 -3.3932 -0.4461
 2911TIP3    H230293   6.443   3.781   1.372 -0.7797  1.1966  1.5862
 2912TIP3   OH230294   4.255   2.594   7.895 -0.1938  0.0423 -0.2450
 2912TIP3    H130295   4.250   2.527   7.826 -0.4691  0.1243 -0.3063
 2912TIP3    H230296   4.333   2.571   7.945 -1.1676 -1.2934  0.7271
 2913TIP3   OH230297   4.428   6.216   7.877  0.3162 -0.1830 -0.2456
 2913TIP3    H130298   4.442   6.256   7.792  0.5728 -2.4549 -1.3386
 2913TIP3    H230299   4.502   6.156   7.888 -0.2046 -0.6099  1.1474
 2914TIP3   OH230300   6.046   2.084   6.821 -0.0358  0.4396  0.0367
 2914TIP3    H130301   5.991   2.124   6.753 -2.7362  0.3083  1.9864
 2914TIP3    H230302   6.081   2.158   6.870 -0.7060  0.5009  0.4295
 2915TIP3   OH230303   3.097   1.159   1.359  0.3248  0.0891 -0.1011
 2915TIP3    H130304   3.123   1.068   1.350  0.3857 -0.0444  1.2026
 2915TIP3    H230305   3.030   1.172   1.291 -1.7798 -1.7540  1.4783
 2916TIP3   OH230306   6.625   5.090   1.853 -0.1436  0.2720  0.7757
 2916TIP3    H130307   6.583   5.009   1.881 -0.1614 -0.9287 -2.3499
 2916TIP3    H230308   6.553   5.146   1.824  0.0675  0.0232 -0.2687
 2917TIP3   OH230309   3.190   3.497   8.647 -0.0558 -0.1793  0.1096
 2917TIP3    H130310   3.223   3.560   8.711 -1.4156  0.4769  0.1958
 2917TIP3    H230311   3.102   3.476   8.677  0.0083 -1.3646 -0.4808
 2918TIP3   OH230312   1.693   4.296   8.356  0.0895  0.2538  0.3742
 2918TIP3    H130313   1.652   4.221   8.314  1.4317 -0.9149  1.0834
 2918TIP3    H230314   1.750   4.333   8.288 -0.1829  0.3304  0.1853
 2919TIP3   OH230315   3.292   0.305   1.239 -0.0464  0.2064 -0.5206
 2919TIP3    H130316   3.331   0.389   1.261  1.0558 -0.3919 -0.1372
 2919TIP3    H230317   3.249   0.319   1.155  1.7189  0.6759 -1.3808
 2920TIP3   OH230318   4.890   1.952   8.166 -0.4762 -0.3418 -0.5124
 2920TIP3    H130319   4.910   1.914   8.080  0.3189 -0.8924 -0.1056
 2920TIP3    H230320   4.809   2.002   8.153  0.3854  0.7604 -1.9137
 2921TIP3   OH230321   3.514   4.632   1.336  0.1572  0.0551  0.1512
 2921TIP3    H130322   3.444   4.567   1.336 -1.2175  1.4406  1.4753
 2921TIP3    H230323   3.584   4.592   1.284 -3.0549  0.1478 -5.0530
 2922TIP3   OH230324   1.264   0.499   8.406  1.3161 -0.1886  0.5996
 2922TIP3    H130325   1.221   0.567   8.355  0.1645 -0.6859  0.8864
 2922TIP3    H230326   1.345   0.540   8.438  1.4652  0.4983 -0.6192
 2923TIP3   OH230327   4.781   5.315   2.155  0.4996  0.2532  0.1895
 2923TIP3    H130328   4.692   5.347   2.150  0.3464 -0.3032 -1.0184
 2923TIP3    H230329   4.822   5.342   2.073  0.5114 -2.1147 -0.6618
 2924TIP3   OH230330   0.122   5.369   1.234  0.0052 -0.2936 -0.3420
 2924TIP3    H130331   0.112   5.384   1.140  0.1351  2.2325 -0.0092
 2924TIP3    H230332   0.168   5.285   1.240 -0.6023 -0.8270 -2.4986
 2925TIP3   OH230333   2.505   3.707   0.210  0.9538  0.0319 -0.5308
 2925TIP3    H130334   2.526   3.788   0.164 -0.7149  1.3299  0.8466
 2925TIP3    H230335   2.436   3.666   0.156  0.9566  0.1418 -0.6181
 2926TIP3   OH230336   2.995   5.095   0.704 -0.0674  0.2092 -0.5330
 2926TIP3    H130337   3.087   5.083   0.682 -0.0506  0.1532 -0.4355
 2926TIP3    H230338   2.949   5.029   0.651  0.0711 -0.6275  0.3523
 2927TIP3   OH230339   5.362   5.641   7.123 -0.1913 -0.7422  0.6667
 2927TIP3    H130340   5.329   5.731   7.112 -1.7722 -1.2776  0.6790
 2927TIP3    H230341   5.448   5.652   7.164  0.0185  0.7909 -0.0853
 2928TIP3   OH230342   3.811   3.453   0.613 -0.3277 -0.0457  0.4946
 2928TIP3    H130343   3.829   3.546   0.619 -0.4923  0.3268 -2.7128
 2928TIP3    H230344   3.718   3.448   0.589 -1.0756 -1.2465  3.2293
 2929TIP3   OH230345   2.661   5.606   1.102  0.3151 -0.3092  0.3263
 2929TIP3    H130346   2.566   5.611   1.098  0.0108  0.2247  4.2093
 2929TIP3    H230347   2.683   5.524   1.058 -1.9498 -0.5931 -0.4004
 2930TIP3   OH230348   2.606   0.230   0.661 -0.1782  0.0648  0.1695
 2930TIP3    H130349   2.611   0.141   0.627 -0.6590  1.0863 -2.8462
 2930TIP3    H230350   2.581   0.219   0.753  0.6731 -2.8947  0.1556
 2931TIP3   OH230351   4.655   0.267   8.382 -0.7645 -0.1390  0.4961
 2931TIP3    H130352   4.599   0.339   8.410 -0.8604  0.1773 -0.4480
 2931TIP3    H230353   4.734   0.309   8.348 -1.0637 -0.4326 -0.6049
 2932TIP3   OH230354   4.361   0.098   2.192  0.4979 -0.1446 -0.2461
 2932TIP3    H130355   4.304   0.162   2.235  0.5695  0.2496 -0.7397
 2932TIP3    H230356   4.330   0.013   2.225 -0.6042  0.0379 -0.7708
 2933TIP3   OH230357   4.970   4.029   0.119  0.4078 -0.3505  0.0188
 2933TIP3    H130358   5.048   4.032   0.064 -1.7293  0.5981 -3.2632
 2933TIP3    H230359   4.945   3.936   0.120 -0.1680 -0.2553 -1.7639
 2934TIP3   OH230360   0.385   3.001   0.007  0.0946  0.5776 -0.5367
 2934TIP3    H130361   0.397   2.920  -0.042 -0.9819  0.8444 -1.3001
 2934TIP3    H230362   0.409   3.070  -0.054 -0.3022  0.8772 -0.3655
 2935TIP3   OH230363   0.644   6.857   1.413  0.2271  0.5867 -0.5569
 2935TIP3    H130364   0.690   6.929   1.370  1.2929  0.7723  0.8277
 2935TIP3    H230365   0.554   6.887   1.422  0.4648  1.3754 -0.8018
 2936TIP3   OH230366   3.593   4.727   0.863  0.4850 -0.1109 -0.0956
 2936TIP3    H130367   3.599   4.796   0.929  0.0961  0.1736 -0.3536
 2936TIP3    H230368   3.520   4.673   0.891  2.0150 -1.6253  1.2185
 2937TIP3   OH230369   2.909   5.513   2.201 -0.2152  0.0558 -0.1686
 2937TIP3    H130370   2.944   5.479   2.283 -0.2236  1.8362  0.6233
 2937TIP3    H230371   2.954   5.596   2.189 -1.0034  0.3240 -1.4208
 2938TIP3   OH230372   2.244   2.670   8.514 -0.5190 -0.3475 -0.1935
 2938TIP3    H130373   2.239   2.734   8.442  0.9268 -0.0960 -0.1064
 2938TIP3    H230374   2.314   2.703   8.570  0.1053 -1.8721 -0.0163
 2939TIP3   OH230375   1.988   2.130   8.438  0.1563  0.2755  0.0462
 2939TIP3    H130376   2.024   2.055   8.391  1.9196  1.9347 -1.4109
 2939TIP3    H230377   1.918   2.162   8.382 -1.2651 -0.7974  1.1415
 2940TIP3   OH230378   0.832   1.142   7.091 -0.4293  0.2661  0.5810
 2940TIP3    H130379   0.854   1.227   7.128  0.4863  0.6460 -0.7460
 2940TIP3    H230380   0.917   1.105   7.065 -0.7296 -1.3739  1.7684
 2941TIP3   OH230381   6.049   3.272   8.085 -0.2228 -0.6378 -0.3034
 2941TIP3    H130382   6.112   3.206   8.055  1.7783  0.9017  0.3212
 2941TIP3    H230383   6.081   3.297   8.172  0.6365  2.9471 -1.5003
 2942TIP3   OH230384   5.409   5.401   6.977 -0.3053 -0.8586  0.0109
 2942TIP3    H130385   5.397   5.491   7.008  1.2934 -0.7726  0.4491
 2942TIP3    H230386   5.396   5.407   6.882 -0.4244 -0.2070  0.0637
 2943TIP3   OH230387   3.010   3.210   1.075  0.4620  0.7303 -0.1936
 2943TIP3    H130388   2.919   3.238   1.089  0.4286 -0.1183  1.4933
 2943TIP3    H230389   3.010   3.117   1.098  1.4238  0.2884 -1.8244
 2944TIP3   OH230390   3.412   1.336   1.627 -0.2699 -0.1163  0.4122
 2944TIP3    H130391   3.356   1.414   1.626 -2.3347 -1.4166  3.1648
 2944TIP3    H230392   3.456   1.340   1.712 -0.0248 -1.6935  0.3798
 2945TIP3   OH230393   2.860   4.622   0.707  0.1103  0.1487 -0.1466
 2945TIP3    H130394   2.935   4.596   0.655  0.0315  0.1273 -0.2505
 2945TIP3    H230395   2.879   4.589   0.795  0.9327  1.4926  0.1958
 2946TIP3   OH230396   4.089   1.836   7.229 -0.3508 -0.3880 -0.2766
 2946TIP3    H130397   4.183   1.821   7.224 -0.1826  0.5474  0.0068
 2946TIP3    H230398   4.072   1.860   7.320 -0.8259 -0.3253 -0.3743
 2947TIP3   OH230399   4.816   2.226   1.758  0.0407  0.1301  0.3108
 2947TIP3    H130400   4.807   2.135   1.729 -3.1272  0.7168 -0.9151
 2947TIP3    H230401   4.832   2.219   1.853 -1.5105 -1.7195  0.4929
 2948TIP3   OH230402   4.111   3.239   0.079  0.1096 -0.7598  0.6844
 2948TIP3    H130403   4.204   3.255   0.097  0.3831  0.9399 -1.8124
 2948TIP3    H230404   4.065   3.278   0.153  1.2883  1.9516  0.0851
 2949TIP3   OH230405   5.809   1.565   7.389  0.3697  0.4007  0.3481
 2949TIP3    H130406   5.830   1.486   7.339 -1.2520 -0.4767  0.9562
 2949TIP3    H230407   5.838   1.637   7.334 -1.2586 -0.5205 -1.8794
 2950TIP3   OH230408   5.783   4.423   7.229 -0.1597 -0.0151 -0.1064
 2950TIP3    H130409   5.857   4.451   7.176 -0.5658  1.3340  0.0048
 2950TIP3    H230410   5.764   4.334   7.198  1.6132 -0.4722  0.0119
 2951TIP3   OH230411   0.137   3.828   1.794  0.1800 -0.4085  0.0201
 2951TIP3    H130412   0.155   3.735   1.778  1.2682 -0.1952 -0.0824
 2951TIP3    H230413   0.073   3.828   1.865 -1.3175 -1.2721 -1.2555
 2952TIP3   OH230414   2.996   2.235   0.074 -0.4204 -0.2831  0.4203
 2952TIP3    H130415   3.045   2.166   0.030 -0.7701 -0.3004  0.0494
 2952TIP3    H230416   3.063   2.298   0.103 -0.2578  0.4144 -1.3351
 2953TIP3   OH230417   3.138   6.399   2.266 -0.6329 -0.3604 -0.0781
 2953TIP3    H130418   3.098   6.400   2.180 -3.1595 -2.0879  0.9612
 2953TIP3    H230419   3.121   6.486   2.302 -0.2771  0.0908 -0.9924
 2954TIP3   OH230420   3.886   5.110   7.341 -0.2063  0.1272  0.2938
 2954TIP3    H130421   3.829   5.187   7.344  0.0639  0.3427 -0.0816
 2954TIP3    H230422   3.915   5.098   7.432  1.7528  1.9906  0.0021
 2955TIP3   OH230423   2.906   4.164   0.650 -0.4210 -0.0624 -0.3571
 2955TIP3    H130424   2.862   4.248   0.632 -0.4746  0.1936  0.8857
 2955TIP3    H230425   2.875   4.139   0.737 -0.1723 -1.2359 -0.5894
 2956TIP3   OH230426   3.974   3.570   7.387  0.7094 -0.0436 -0.4706
 2956TIP3    H130427   4.009   3.486   7.359  1.4193 -0.5304  1.6987
 2956TIP3    H230428   4.038   3.634   7.356  0.6811 -0.3765 -1.2492
 2957TIP3   OH230429   2.515   2.224   7.323  0.5232 -0.0921 -1.3510
 2957TIP3    H130430   2.603   2.189   7.308  1.3164  2.0695 -2.1825
 2957TIP3    H230431   2.527   2.319   7.324 -1.2329  0.2538  2.3969
 2958TIP3   OH230432   1.102   4.333   7.107  0.8585  0.1057 -0.0041
 2958TIP3    H130433   1.039   4.352   7.176  0.6209 -0.0813 -0.1724
 2958TIP3    H230434   1.077   4.392   7.036  0.8720  0.0293 -0.0716
 2959TIP3   OH230435   4.947   0.119   1.936  0.0117 -0.0545  0.0911
 2959TIP3    H130436   5.007   0.181   1.895 -0.7701  0.4081 -0.3876
 2959TIP3    H230437   4.985   0.100   2.021  1.2406 -0.3742 -0.5041
 2960TIP3   OH230438   0.376   4.241   8.028 -0.4062 -0.4505  0.4267
 2960TIP3    H130439   0.373   4.252   7.933  2.0535  3.3912  0.5676
 2960TIP3    H230440   0.305   4.297   8.061  0.6198  0.6334  0.8624
 2961TIP3   OH230441   1.085   4.888   3.005 -0.0531  0.7564 -0.3959
 2961TIP3    H130442   1.125   4.801   2.993 -0.8491  0.3034  0.1298
 2961TIP3    H230443   1.060   4.915   2.917 -1.4658 -0.3781 -0.3713
 2962TIP3   OH230444   6.640   2.812   0.151 -0.2131  0.3170  0.9005
 2962TIP3    H130445   6.707   2.855   0.098 -0.9293  2.1195  1.3968
 2962TIP3    H230446   6.689   2.747   0.202  1.1981  1.6161  1.2819
 2963TIP3   OH230447   1.877   4.630   1.410 -0.7440 -0.0940  0.3057
 2963TIP3    H130448   1.888   4.643   1.316  1.2111  0.2520  0.5499
 2963TIP3    H230449   1.862   4.718   1.445 -1.2556 -0.1976  0.3625
 2964TIP3   OH230450   0.732   0.296   2.144  0.2816  0.4299 -0.3210
 2964TIP3    H130451   0.799   0.352   2.105 -0.0625  2.8805  2.3077
 2964TIP3    H230452   0.772   0.264   2.225 -1.3342  1.1937  0.8335
 2965TIP3   OH230453   2.846   2.942   0.644 -0.0691 -0.3255 -0.2275
 2965TIP3    H130454   2.905   3.016   0.638  1.0931 -1.0232  1.6948
 2965TIP3    H230455   2.759   2.981   0.652  0.6989  1.0514  3.2811
 2966TIP3   OH230456   2.346   6.235   2.253  0.2376 -0.0451 -0.3704
 2966TIP3    H130457   2.427   6.237   2.201  0.9748 -1.1889  0.6836
 2966TIP3    H230458   2.375   6.214   2.342 -1.3286 -2.0662 -0.2555
 2967TIP3   OH230459   2.783   0.301   2.256 -0.2014 -0.4688  0.1303
 2967TIP3    H130460   2.759   0.318   2.347 -0.0419 -0.5274  0.1824
 2967TIP3    H230461   2.761   0.382   2.210  0.9736  0.0541  0.4551
 2968TIP3   OH230462   2.250   0.464   1.820 -0.1529  0.2856 -0.5075
 2968TIP3    H130463   2.277   0.383   1.777  1.2287 -0.2363  1.2128
 2968TIP3    H230464   2.156   0.468   1.806  0.1062 -0.2384 -2.8346
 2969TIP3   OH230465   5.850   3.557   2.069 -0.0768 -0.1077  0.2637
 2969TIP3    H130466   5.762   3.540   2.103 -0.3430  1.4288  0.4198
 2969TIP3    H230467   5.895   3.602   2.140 -0.7663  3.5333 -1.3588
 2970TIP3   OH230468   0.743   4.125   0.081  0.2476 -0.2567 -0.3994
 2970TIP3    H130469   0.709   4.119  -0.008  0.7335 -2.0043 -0.5099
 2970TIP3    H230470   0.715   4.044   0.124 -0.4028  0.7732  1.2139
 2971TIP3   OH230471   5.480   0.521   0.906  0.3393 -0.5938 -0.3059
 2971TIP3    H130472   5.446   0.432   0.913  1.4084 -0.9940 -0.1578
 2971TIP3    H230473   5.472   0.543   0.813 -0.0621 -0.7770 -0.3197
 2972TIP3   OH230474   5.060   1.423   1.360 -0.1523  0.3933  0.0215
 2972TIP3    H130475   5.141   1.419   1.411 -0.5005  0.1585  0.5690
 2972TIP3    H230476   4.992   1.400   1.423 -0.7403  1.4309 -0.2276
 2973TIP3   OH230477   4.504   0.537   7.448  0.0260  0.0386 -0.4211
 2973TIP3    H130478   4.430   0.589   7.480 -0.6784  0.3345 -2.4080
 2973TIP3    H230479   4.579   0.597   7.452 -0.4717  0.7377 -1.2470
 2974TIP3   OH230480   4.285   6.467   2.691 -0.1729 -0.2015 -0.1008
 2974TIP3    H130481   4.205   6.435   2.649  0.5517 -0.6087 -1.2422
 2974TIP3    H230482   4.292   6.418   2.772 -0.7157 -0.6701 -0.3346
 2975TIP3   OH230483   2.742   0.202   8.364  0.4178 -0.4969 -0.1185
 2975TIP3    H130484   2.727   0.265   8.294  0.0275 -0.9787 -0.4830
 2975TIP3    H230485   2.670   0.139   8.354 -0.2001 -0.0548  1.3160
 2976TIP3   OH230486   2.268   2.374   0.857 -0.0266  0.0465 -0.1459
 2976TIP3    H130487   2.193   2.315   0.854  0.4405 -0.5244 -0.9534
 2976TIP3    H230488   2.238   2.453   0.811  0.1136 -0.4816 -1.1634
 2977TIP3   OH230489   4.543   3.035   7.697  0.0340  0.5051 -0.3502
 2977TIP3    H130490   4.510   3.013   7.784 -1.2725  0.1323 -0.9161
 2977TIP3    H230491   4.516   2.961   7.642 -1.0980  1.7262 -1.5062
 2978TIP3   OH230492   3.066   2.588   8.648  0.8506 -0.3313  0.3859
 2978TIP3    H130493   2.992   2.588   8.587  0.7823  0.5573  0.4648
 2978TIP3    H230494   3.052   2.509   8.702 -0.0099 -0.2042  0.3639
 2979TIP3   OH230495   2.234   0.025   0.597  0.4704  0.1986 -0.1270
 2979TIP3    H130496   2.229   0.104   0.652 -0.6081 -1.1610  1.8334
 2979TIP3    H230497   2.155   0.029   0.543  1.6802  1.6932 -1.9562
 2980TIP3   OH230498   4.340   6.733   2.352 -0.1904 -0.0415 -0.5152
 2980TIP3    H130499   4.417   6.678   2.335  0.5347  0.8042 -0.0395
 2980TIP3    H230500   4.266   6.672   2.350  0.4347 -0.7979 -1.4304
 2981TIP3   OH230501   0.022   1.495   1.521  0.2994  0.2235 -0.6208
 2981TIP3    H130502   0.044   1.431   1.589 -1.5014 -0.6806 -0.8244
 2981TIP3    H230503  -0.071   1.514   1.535  0.1805  0.8964 -2.1117
 2982TIP3   OH230504   1.110   3.078   0.410 -0.3223  0.5997 -0.4211
 2982TIP3    H130505   1.191   3.081   0.461 -0.6251  0.3786  0.0783
 2982TIP3    H230506   1.130   3.127   0.330  0.7028 -0.4780 -0.8569
 2983TIP3   OH230507   0.141   1.493   3.276 -0.0146  0.4878 -0.4837
 2983TIP3    H130508   0.082   1.563   3.248 -1.5224 -0.0936  1.0740
 2983TIP3    H230509   0.102   1.413   3.240  0.7044  0.2541 -0.7575
 2984TIP3   OH230510   5.450   4.202   7.277 -0.2784  0.0435 -0.1925
 2984TIP3    H130511   5.493   4.284   7.296  1.8332 -0.7950 -1.0389
 2984TIP3    H230512   5.361   4.227   7.252  0.3196  2.0576 -0.4727
 2985TIP3   OH230513   4.034   0.523   1.591 -0.6787 -0.3686  0.2180
 2985TIP3    H130514   3.984   0.594   1.550 -0.0383 -0.2264 -0.3216
 2985TIP3    H230515   3.968   0.458   1.615 -0.9334 -1.1504 -2.3842
 2986TIP3   OH230516   4.940   0.838   8.273 -0.5549 -0.0852  0.2241
 2986TIP3    H130517   4.881   0.790   8.331 -0.2240 -0.7202  0.0440
 2986TIP3    H230518   5.026   0.799   8.289 -0.2310  0.6380  0.2755
 2987TIP3   OH230519   1.290   1.510   8.099  0.4610 -0.1895 -0.2797
 2987TIP3    H130520   1.293   1.416   8.121  0.3194 -0.2238 -0.4089
 2987TIP3    H230521   1.378   1.542   8.120 -0.1293  0.1347  1.9247
 2988TIP3   OH230522   4.843   6.279   1.550 -0.4853 -0.1013 -0.0218
 2988TIP3    H130523   4.933   6.257   1.574  0.2205  0.0042 -2.2985
 2988TIP3    H230524   4.827   6.364   1.590 -0.6244 -1.3123  2.7267
 2989TIP3   OH230525   3.705   1.261   0.619 -0.1662  0.2646  0.6274
 2989TIP3    H130526   3.695   1.356   0.609  0.4355  0.3082  0.3998
 2989TIP3    H230527   3.787   1.241   0.574 -0.7685 -0.5060 -0.1623
 2990TIP3   OH230528   6.727   0.907   1.376  0.1105 -0.0811 -0.1358
 2990TIP3    H130529   6.765   0.845   1.314  0.8244  1.6671 -1.5465
 2990TIP3    H230530   6.640   0.926   1.340  0.6150  1.1130 -0.7995
 2991TIP3   OH230531   3.696   6.876   7.288 -0.1489  0.2051  0.2439
 2991TIP3    H130532   3.707   6.967   7.313  0.6113  0.3665 -0.5969
 2991TIP3    H230533   3.760   6.863   7.217  0.3791 -1.2169  0.9451
 2992TIP3   OH230534   1.960   6.279   0.622 -0.0540  0.7852  0.0132
 2992TIP3    H130535   1.930   6.346   0.561 -2.6481 -0.1090  0.1977
 2992TIP3    H230536   1.880   6.239   0.655  1.3670 -1.0079  1.4926
 2993TIP3   OH230537   6.156   6.402   0.005  0.0531  0.5860 -0.0242
 2993TIP3    H130538   6.108   6.435   0.081  0.5039  0.1285  0.4552
 2993TIP3    H230539   6.203   6.478  -0.028 -0.8761  1.0154 -0.4209
 2994TIP3   OH230540   6.057   0.730   2.226  0.0907  0.2128  0.1431
 2994TIP3    H130541   6.045   0.811   2.275 -0.6837  0.1581  0.0531
 2994TIP3    H230542   6.115   0.754   2.154 -0.7944  0.8892 -0.3624
 2995TIP3   OH230543   4.622   1.418   2.240 -0.3044 -0.0105  0.0270
 2995TIP3    H130544   4.590   1.476   2.309 -0.5733  0.4656 -0.4854
 2995TIP3    H230545   4.624   1.474   2.162  0.8312 -0.2953 -0.1618
 2996TIP3   OH230546   0.515   1.490   1.500  0.8329 -0.0128  0.1573
 2996TIP3    H130547   0.486   1.477   1.410 -0.3248 -0.0201  0.5172
 2996TIP3    H230548   0.436   1.516   1.548  1.7473  1.6752  0.8349
 2997TIP3   OH230549   4.811   2.035   0.601  0.1508  0.3116 -0.5995
 2997TIP3    H130550   4.753   1.961   0.583  0.6507 -0.2909  0.1843
 2997TIP3    H230551   4.752   2.110   0.610 -0.1756  0.7474 -4.6112
 2998TIP3   OH230552   5.476   1.192   1.063 -0.0597  0.2143  0.0192
 2998TIP3    H130553   5.463   1.099   1.081  3.0022 -0.5242 -1.0119
 2998TIP3    H230554   5.447   1.203   0.972 -0.0598  0.1816  0.0151
 2999TIP3   OH230555   6.475   4.024   0.534  0.0096 -0.6450 -0.1029
 2999TIP3    H130556   6.501   4.098   0.481  0.7117 -2.2559 -2.1462
 2999TIP3    H230557   6.558   3.985   0.564 -0.1098 -2.6121 -2.0608
 3000TIP3   OH230558   1.940   3.644   1.033  0.0336 -0.0192 -0.3114
 3000TIP3    H130559   1.879   3.610   1.099 -0.8007 -0.2033 -1.1545
 3000TIP3    H230560   1.988   3.713   1.078 -0.7913  0.1187  0.3815
 3001TIP3   OH230561   0.381   3.895   2.396 -0.0652 -0.2005 -0.3021
 3001TIP3    H130562   0.439   3.867   2.467  2.1914  0.7470 -1.6426
 3001TIP3    H230563   0.370   3.818   2.341  0.6865 -0.1681 -0.5044
 3002TIP3   OH230564   0.265   6.506   7.972 -0.1008 -0.5608 -0.3263
 3002TIP3    H130565   0.187   6.511   7.916  0.3128  2.6055 -0.7853
 3002TIP3    H230566   0.339   6.511   7.912  0.4467 -1.4049  0.2544
 3003TIP3   OH230567   2.537   0.395   1.531  0.7077 -0.1906  0.1951
 3003TIP3    H130568   2.541   0.490   1.529  0.8283 -0.2029 -0.2661
 3003TIP3    H230569   2.595   0.367   1.459 -0.1252 -0.5857 -0.3349
 3004TIP3   OH230570   4.687   3.277   8.001 -0.1504  0.1041 -0.7220
 3004TIP3    H130571   4.721   3.199   8.043 -1.4739 -0.2012 -0.1682
 3004TIP3    H230572   4.722   3.274   7.912  0.3212 -0.7877 -0.5124
 3005TIP3   OH230573   6.463   2.017   0.229 -0.8219 -0.0415  0.6866
 3005TIP3    H130574   6.535   1.964   0.265 -0.1340  1.0942  1.0462
 3005TIP3    H230575   6.469   2.100   0.277 -2.2564  0.1476  0.5707
 3006TIP3   OH230576   5.926   3.573   0.041 -0.0382 -0.7776  0.0418
 3006TIP3    H130577   5.976   3.500   0.076  0.5186 -0.2434  0.3888
 3006TIP3    H230578   5.947   3.575  -0.052  2.0238  0.5143  0.4673
 3007TIP3   OH230579   0.120   6.659   8.186 -0.1351 -0.4515  0.7793
 3007TIP3    H130580   0.138   6.598   8.257  1.5074 -1.9826 -0.8338
 3007TIP3    H230581   0.121   6.604   8.107 -1.3618  1.2485 -0.4959
 3008TIP3   OH230582   5.044   5.041   1.096 -0.1820 -0.3837 -0.2164
 3008TIP3    H130583   5.009   4.959   1.060  0.0039 -0.3024 -0.5859
 3008TIP3    H230584   5.022   5.107   1.030  1.4414 -0.4710 -0.8921
 3009TIP3   OH230585   4.738   4.118   7.494 -0.5454 -0.2191 -0.6654
 3009TIP3    H130586   4.714   4.095   7.584 -1.7391  1.1769 -0.5984
 3009TIP3    H230587   4.833   4.125   7.496 -0.6739  2.8240  1.3229
 3010TIP3   OH230588   1.937   1.379   0.503  0.8379 -0.9596  0.2469
 3010TIP3    H130589   1.941   1.474   0.512 -1.4981 -0.7769 -0.0682
 3010TIP3    H230590   1.902   1.349   0.587 -2.3935 -1.0741 -1.0171
 3011TIP3   OH230591   0.972   4.954   2.695  0.4826  0.1638 -0.2471
 3011TIP3    H130592   0.893   4.907   2.720  1.1565  0.0989  2.0229
 3011TIP3    H230593   0.945   5.012   2.624 -0.8598 -2.0551 -1.6457
 3012TIP3   OH230594   5.082   6.666   0.443 -0.1724 -0.0841 -0.1050
 3012TIP3    H130595   5.159   6.709   0.482 -0.1590 -0.4083  0.2355
 3012TIP3    H230596   5.010   6.690   0.501 -0.4242  0.6262 -0.6997
 3013TIP3   OH230597   2.044   2.846   7.410  0.2147 -0.3164  0.1158
 3013TIP3    H130598   1.974   2.825   7.472  2.2604 -0.9071  2.4206
 3013TIP3    H230599   2.088   2.921   7.449  1.7479 -0.8808 -0.4459
 3014TIP3   OH230600   2.124   2.760   0.869 -0.0810 -0.1388  0.4446
 3014TIP3    H130601   2.074   2.796   0.942  1.5301  1.1113  0.9673
 3014TIP3    H230602   2.065   2.771   0.793 -0.7489  0.9537  1.0964
 3015TIP3   OH230603   2.427   1.738   0.602 -0.3143 -0.0738 -1.1510
 3015TIP3    H130604   2.402   1.688   0.523  1.2390 -2.3020 -0.3258
 3015TIP3    H230605   2.522   1.742   0.599 -0.2887  0.7629  0.0837
 3016TIP3   OH230606   6.012   2.943   8.115 -0.4648 -0.1218 -0.5036
 3016TIP3    H130607   6.075   3.005   8.076  1.5403 -2.8343 -1.8986
 3016TIP3    H230608   5.972   2.992   8.186  2.0782  2.3116 -0.5679
 3017TIP3   OH230609   1.423   5.261   1.186  0.3827 -0.3994  0.2529
 3017TIP3    H130610   1.372   5.340   1.170 -2.3238 -2.1699 -0.5496
 3017TIP3    H230611   1.449   5.267   1.278 -0.2461  1.1340  0.3506
 3018TIP3   OH230612   0.849   2.036   3.243 -0.0410  0.4189  0.3069
 3018TIP3    H130613   0.908   2.080   3.182 -0.2850  0.4991  0.1276
 3018TIP3    H230614   0.886   1.949   3.254 -0.1425  0.3096 -0.1682
 3019TIP3   OH230615   2.596   1.083   7.416 -0.2373  0.3198 -0.1805
 3019TIP3    H130616   2.532   1.017   7.387 -0.7543  1.4113 -1.6954
 3019TIP3    H230617   2.678   1.035   7.425 -0.9657 -0.8500  0.4331
 3020TIP3   OH230618   4.083   2.900   1.091  0.1183 -0.6425  0.5194
 3020TIP3    H130619   4.151   2.834   1.078 -1.4642 -2.4489  0.9346
 3020TIP3    H230620   4.047   2.881   1.178 -0.6107  0.5622  0.5125
 3021TIP3   OH230621   4.802   3.465   1.220 -0.2284 -0.2877  0.3073
 3021TIP3    H130622   4.818   3.555   1.193  0.7015 -0.6484 -0.4206
 3021TIP3    H230623   4.748   3.472   1.299 -2.0123  0.8356 -0.9413
 3022TIP3   OH230624   1.498   2.642   2.231  0.2271 -0.9124  0.1564
 3022TIP3    H130625   1.547   2.691   2.165  0.0483 -2.6059 -1.3040
 3022TIP3    H230626   1.559   2.635   2.305  0.4831  0.8832  0.1658
 3023TIP3   OH230627   3.141   0.649   7.728 -0.2870 -0.0429  0.2343
 3023TIP3    H130628   3.101   0.562   7.730 -1.1953  0.2560 -1.9933
 3023TIP3    H230629   3.235   0.633   7.732 -0.3267 -1.3379 -2.3295
 3024TIP3   OH230630   4.371   1.956   7.023 -0.0368  0.3165 -0.1453
 3024TIP3    H130631   4.454   1.925   6.988  0.0993  1.2109 -0.6705
 3024TIP3    H230632   4.380   1.948   7.118  1.4671  2.2782 -0.0608
 3025TIP3   OH230633   0.660   6.723   0.953  0.3675  0.2909 -0.3476
 3025TIP3    H130634   0.607   6.661   1.005  1.3686  0.0050  0.3652
 3025TIP3    H230635   0.696   6.669   0.883  0.9578  0.1218  0.0728
 3026TIP3   OH230636   1.443   4.751   2.416 -0.6291 -0.3219  0.2290
 3026TIP3    H130637   1.488   4.832   2.392  0.2038 -0.8310  0.0383
 3026TIP3    H230638   1.365   4.780   2.464 -1.0400  0.6408 -0.9524
 3027TIP3   OH230639   6.577   6.478   8.132  0.2826  0.4272 -0.2584
 3027TIP3    H130640   6.664   6.473   8.173  0.3647  0.1818 -0.4608
 3027TIP3    H230641   6.530   6.544   8.184  0.6131  0.6117 -0.1892
 3028TIP3   OH230642   6.028   0.748   0.909  0.0157 -0.6391  0.3201
 3028TIP3    H130643   6.089   0.729   0.837  0.1966  0.1542  0.2518
 3028TIP3    H230644   6.065   0.703   0.984 -0.3296 -1.7264 -0.1402
 3029TIP3   OH230645   0.338   1.243   0.001 -0.3151  0.0317 -0.5223
 3029TIP3    H130646   0.307   1.272   0.087  0.4351  1.2949 -0.6393
 3029TIP3    H230647   0.267   1.265  -0.059 -0.7519 -0.6529 -0.2676
 3030TIP3   OH230648   5.327   1.752   0.032  0.4419 -0.1922 -0.1032
 3030TIP3    H130649   5.250   1.697   0.019  0.2356  0.0156  0.2097
 3030TIP3    H230650   5.320   1.819  -0.036 -1.2486  1.5755  1.6576
 3031TIP3   OH230651   2.474   2.827   1.707  0.2971 -0.6433 -0.0649
 3031TIP3    H130652   2.433   2.880   1.639  0.0901  1.5311  1.6350
 3031TIP3    H230653   2.403   2.776   1.745 -0.3124  0.7474  0.7630
 3032TIP3   OH230654   2.721   2.529   0.029 -0.1914 -0.4065 -0.0159
 3032TIP3    H130655   2.697   2.592   0.097  0.1653  0.2317 -0.4688
 3032TIP3    H230656   2.752   2.583  -0.043 -2.0294 -0.9673 -1.3092
 3033TIP3   OH230657   0.383   1.213   0.713 -0.1959 -0.1870  0.2103
 3033TIP3    H130658   0.320   1.140   0.711  0.5805 -0.8710  0.2170
 3033TIP3    H230659   0.462   1.177   0.673  0.0922  0.7690 -0.1092
 3034TIP3   OH230660   0.340   3.996   1.317 -0.4256  0.5344  0.0098
 3034TIP3    H130661   0.340   4.010   1.222 -3.1497 -0.9911 -0.3017
 3034TIP3    H230662   0.431   4.008   1.342  0.4186  0.8483 -2.8044
 3035TIP3   OH230663   0.932   2.769   7.265  0.3289 -0.0617 -0.3198
 3035TIP3    H130664   0.893   2.693   7.224  0.5206  0.9807 -2.5816
 3035TIP3    H230665   1.012   2.785   7.214  0.5983  1.2951  0.4820
 3036TIP3   OH230666   3.178   3.797   2.236  0.4297 -0.1758 -0.0867
 3036TIP3    H130667   3.205   3.800   2.144  2.1792  0.8782  0.4110
 3036TIP3    H230668   3.254   3.830   2.284 -0.8527  0.4004  1.6494
 3037TIP3   OH230669   3.747   5.058   6.632  0.3100 -0.5856 -0.3308
 3037TIP3    H130670   3.657   5.083   6.610  0.6814 -0.0207 -1.2456
 3037TIP3    H230671   3.802   5.118   6.582  1.2184  0.3625  1.6831
 3038TIP3   OH230672   5.509   0.358   0.516  0.1609  0.3206  0.2307
 3038TIP3    H130673   5.537   0.448   0.536 -2.4613  1.0769  0.9198
 3038TIP3    H230674   5.439   0.369   0.452  1.2481 -1.4444 -1.3557
 3039TIP3   OH230675   4.390   5.401   8.161 -1.0394 -0.9211  0.2557
 3039TIP3    H130676   4.435   5.326   8.200 -0.7340 -0.9078 -0.0712
 3039TIP3    H230677   4.334   5.434   8.232 -0.8541 -1.1952  0.5338
 3040TIP3   OH230678   5.977   6.333   7.949 -0.0250  0.1283 -0.3767
 3040TIP3    H130679   6.065   6.298   7.948  0.3316  0.9454  0.4006
 3040TIP3    H230680   5.975   6.397   7.878  0.0486  0.1918 -0.3213
 3041TIP3   OH230681   0.116   5.846   1.845 -0.0304  0.1991 -0.5333
 3041TIP3    H130682   0.073   5.932   1.837 -0.3241  0.1661  0.4840
 3041TIP3    H230683   0.055   5.785   1.805 -0.7986  0.2013  0.5852
 3042TIP3   OH230684   1.978   4.568   8.053 -0.0515 -0.1787  0.0156
 3042TIP3    H130685   1.947   4.590   7.965 -1.7872  0.8840  0.8442
 3042TIP3    H230686   2.005   4.652   8.090  4.2304 -1.0185 -0.6881
 3043TIP3   OH230687   2.290   0.841   7.540  0.3824 -0.6714  0.7609
 3043TIP3    H130688   2.293   0.926   7.584 -1.5103 -0.0032 -0.2713
 3043TIP3    H230689   2.345   0.851   7.463 -0.9393  0.1303 -0.1146
 3044TIP3   OH230690   4.199   4.442   7.596 -0.6943  0.0910  0.2873
 3044TIP3    H130691   4.164   4.353   7.598  2.7928 -1.5049 -0.6147
 3044TIP3    H230692   4.236   4.450   7.508  0.0971  1.9775  0.7503
 3045TIP3   OH230693   3.248   0.815   0.493  0.4031  0.3665  0.4326
 3045TIP3    H130694   3.247   0.809   0.588  0.5862  0.1915  0.4234
 3045TIP3    H230695   3.259   0.908   0.475  1.7362  0.2575  0.5933
 3046TIP3   OH230696   6.594   0.470   0.364  0.2980 -0.0293  0.1040
 3046TIP3    H130697   6.533   0.432   0.300  1.4040 -0.8598 -0.4759
 3046TIP3    H230698   6.588   0.413   0.440  0.4085 -0.1432  0.0259
 3047TIP3   OH230699   5.614   6.423   2.075 -0.1254 -0.0075 -0.2693
 3047TIP3    H130700   5.706   6.420   2.101  0.1694  2.3618 -0.8406
 3047TIP3    H230701   5.585   6.511   2.099 -1.7694 -0.1382 -1.6080
 3048TIP3   OH230702   1.452   1.809   0.732 -0.2293 -0.1400  0.1580
 3048TIP3    H130703   1.440   1.791   0.825 -2.7855 -0.5417 -0.1752
 3048TIP3    H230704   1.363   1.819   0.697  0.6330 -0.1532 -2.2796
 3049TIP3   OH230705   3.331   5.197   7.969  0.7044  0.2488  0.2998
 3049TIP3    H130706   3.388   5.256   8.019 -0.4447 -0.7856  3.0448
 3049TIP3    H230707   3.243   5.214   8.003  0.0015 -1.2439 -0.6893
 3050TIP3   OH230708   5.001   3.265   0.325  0.3689  0.2949 -0.7795
 3050TIP3    H130709   5.055   3.291   0.399 -1.6506  0.4304  0.7286
 3050TIP3    H230710   5.001   3.169   0.328  0.6262  0.2927 -0.8559
 3051TIP3   OH230711   0.359   2.169   7.878  0.4779  0.4509 -0.7146
 3051TIP3    H130712   0.283   2.124   7.914  0.3555  1.1833 -0.0096
 3051TIP3    H230713   0.418   2.181   7.953  1.8105 -1.0808 -1.4603
 3052TIP3   OH230714   0.200   5.875   0.698 -0.5342  0.1367 -0.8860
 3052TIP3    H130715   0.149   5.947   0.662 -2.6669 -0.7697  0.1619
 3052TIP3    H230716   0.235   5.910   0.781  1.2094  0.9773 -1.9206
 3053TIP3   OH230717   1.146   3.333   0.887 -0.2874 -0.0455  0.1760
 3053TIP3    H130718   1.224   3.279   0.898  0.1126  0.7606  1.6223
 3053TIP3    H230719   1.073   3.276   0.912  0.0823 -0.0744  1.2165
 3054TIP3   OH230720   5.184   3.265   2.232 -0.1317  0.2879 -0.2519
 3054TIP3    H130721   5.257   3.326   2.241 -0.5609  0.6910  0.5994
 3054TIP3    H230722   5.136   3.272   2.314 -1.3378  0.3055 -0.9286
 3055TIP3   OH230723   1.137   3.368   7.619 -0.1403 -0.2244 -0.3724
 3055TIP3    H130724   1.206   3.312   7.656  1.0257  0.9938 -0.6461
 3055TIP3    H230725   1.070   3.306   7.589 -0.1911 -1.3446  1.8594
 3056TIP3   OH230726   0.253   0.342   1.990  0.2245  0.0735 -0.4488
 3056TIP3    H130727   0.242   0.433   1.965 -0.8770  1.0784  3.1782
 3056TIP3    H230728   0.176   0.298   1.953  1.8482 -0.0433 -4.1473
 3057TIP3   OH230729   3.431   0.025   2.971 -0.3083 -0.2382 -0.5670
 3057TIP3    H130730   3.467   0.114   2.975  0.7152 -0.6537  2.3171
 3057TIP3    H230731   3.336   0.037   2.970 -0.2116  0.9323  0.8684
 3058TIP3   OH230732   0.300   3.694   3.082  0.2540  0.5633  0.3528
 3058TIP3    H130733   0.209   3.689   3.054  0.4849  0.2444 -0.3493
 3058TIP3    H230734   0.313   3.617   3.137  0.6743 -0.5909 -1.2847
 3059TIP3   OH230735   0.901   3.297   8.651  0.5675  0.7613 -0.3577
 3059TIP3    H130736   0.853   3.327   8.728  0.1519 -1.2766  0.2371
 3059TIP3    H230737   0.979   3.352   8.649  0.3633  1.1691  1.2552
 3060TIP3   OH230738   1.598   3.870   1.037  0.5139  0.2851  0.8295
 3060TIP3    H130739   1.556   3.800   1.086 -1.0411  0.3734 -0.2910
 3060TIP3    H230740   1.572   3.950   1.082 -0.2718  0.3164  0.3404
 3061TIP3   OH230741   2.522   3.441   0.345 -0.4089  0.3697  0.4166
 3061TIP3    H130742   2.460   3.514   0.352 -0.7741  0.0338  0.7350
 3061TIP3    H230743   2.507   3.405   0.258  0.1717  1.0271  0.0365
 3062TIP3   OH230744   2.217   4.255   1.223  0.0643  0.2674  0.3469
 3062TIP3    H130745   2.301   4.300   1.216 -0.8587  2.0533  0.3741
 3062TIP3    H230746   2.212   4.227   1.315  1.7511 -2.2463 -0.2251
 3063TIP3   OH230747   2.253   3.032   7.490 -0.3197  0.8252  0.5340
 3063TIP3    H130748   2.268   3.081   7.409 -0.8157 -1.7397 -1.2211
 3063TIP3    H230749   2.339   2.997   7.514 -0.4708  0.1118  0.0688
 3064TIP3   OH230750   1.708   0.611   1.634  0.1466 -0.6452 -0.1059
 3064TIP3    H130751   1.698   0.528   1.586 -1.2337 -0.6312  0.1092
 3064TIP3    H230752   1.788   0.600   1.684  1.1821 -0.9960 -1.7401
 3065TIP3   OH230753   2.074   5.940   2.132  0.2237 -0.0201  0.1094
 3065TIP3    H130754   2.074   5.847   2.156 -0.8281  0.5588  2.6119
 3065TIP3    H230755   1.993   5.952   2.083 -1.0120  0.0544  2.0840
 3066TIP3   OH230756   0.698   1.454   3.311  0.0085 -0.2574  0.1127
 3066TIP3    H130757   0.680   1.426   3.221  1.4184 -1.3977  0.1533
 3066TIP3    H230758   0.613   1.485   3.343 -0.7453 -0.7585 -1.2833
 3067TIP3   OH230759   1.150   2.190   8.210  0.1445 -0.1452  0.3751
 3067TIP3    H130760   1.237   2.228   8.227  0.4282 -0.8068  0.4477
 3067TIP3    H230761   1.163   2.095   8.220 -0.5952 -0.2491  0.4086
 3068TIP3   OH230762   0.043   2.552   8.223 -0.2551 -0.3962 -0.2049
 3068TIP3    H130763   0.005   2.625   8.176 -0.3880 -1.1340 -1.2768
 3068TIP3    H230764  -0.031   2.507   8.263 -0.2998 -0.6707 -0.5984
 3069TIP3   OH230765   4.918   5.426   0.385 -0.2247  0.0377 -0.1862
 3069TIP3    H130766   4.896   5.338   0.354 -0.4221  0.2028 -0.5205
 3069TIP3    H230767   4.860   5.440   0.460  1.0594 -0.8204  1.0222
 3070TIP3   OH230768   2.112   4.852   7.535 -0.0393 -0.8969 -0.2105
 3070TIP3    H130769   2.170   4.821   7.605  0.1576 -1.4691 -0.6169
 3070TIP3    H230770   2.030   4.873   7.580  0.8009  0.9590  0.5365
 3071TIP3   OH230771   0.238   3.724   0.976 -0.6187  0.3747  0.2744
 3071TIP3    H130772   0.174   3.793   0.959 -2.0256 -0.2556  2.5120
 3071TIP3    H230773   0.201   3.676   1.050  1.8496 -0.8224  0.8241
 3072TIP3   OH230774   6.334   5.068   2.044  0.2538 -0.2831  0.2601
 3072TIP3    H130775   6.388   5.015   1.985 -0.2838  0.6033 -1.0818
 3072TIP3    H230776   6.347   5.029   2.130  0.2814 -2.2790 -0.5902
 3073TIP3   OH230777   1.756   1.375   7.160 -0.2464  0.5126  0.6667
 3073TIP3    H130778   1.758   1.283   7.188 -0.7695  0.1787 -0.3176
 3073TIP3    H230779   1.719   1.372   7.072 -0.3431  1.6860  0.6488
 3074TIP3   OH230780   4.505   6.544   2.264  0.1329  0.0150  1.0173
 3074TIP3    H130781   4.467   6.459   2.288  0.6965 -0.7270 -0.6060
 3074TIP3    H230782   4.596   6.538   2.290  0.1278  0.2011  1.0785
 3075TIP3   OH230783   5.807   2.817   7.741  0.0310 -0.0670 -1.0438
 3075TIP3    H130784   5.861   2.858   7.673 -0.1046 -1.2900 -1.9259
 3075TIP3    H230785   5.868   2.798   7.812  0.4951 -0.1830 -1.4686
 3076TIP3   OH230786   4.862   0.155   7.282  0.5278  0.3100  0.2842
 3076TIP3    H130787   4.908   0.203   7.213 -0.2046  0.4425 -0.1217
 3076TIP3    H230788   4.835   0.074   7.239 -1.1553  0.9921 -0.0122
 3077TIP3   OH230789   4.089   2.360   7.283 -0.1015  0.1503  1.0994
 3077TIP3    H130790   4.137   2.390   7.206 -0.6599 -1.5644  0.0399
 3077TIP3    H230791   4.023   2.428   7.298  0.1227  0.5907  0.1751
 3078TIP3   OH230792   6.069   1.670   1.878 -0.0598 -0.3020 -0.9476
 3078TIP3    H130793   6.158   1.663   1.914 -0.1574  0.3139 -0.5644
 3078TIP3    H230794   6.012   1.643   1.950 -0.1479 -1.8034 -1.5554
 3079TIP3   OH230795   4.421   2.371   0.588 -0.5540  0.6438 -0.2162
 3079TIP3    H130796   4.361   2.298   0.601 -0.1095  0.4106  0.6149
 3079TIP3    H230797   4.402   2.432   0.660  0.8925  0.0668  0.7123
 3080TIP3   OH230798   0.034   5.925   7.472 -0.1994 -0.2440  0.6568
 3080TIP3    H130799   0.108   5.886   7.519 -0.0699 -0.0334  0.6297
 3080TIP3    H230800  -0.003   5.988   7.534  0.2136  0.3239  0.3441
 3081TIP3   OH230801   2.582   1.965   1.292  0.2178 -0.5849  0.4582
 3081TIP3    H130802   2.528   2.009   1.358 -2.3066 -0.3295 -1.6591
 3081TIP3    H230803   2.525   1.900   1.253  2.1332 -1.7936 -0.4708
 3082TIP3   OH230804   5.343   5.296   1.776  0.0795  0.5258  0.2790
 3082TIP3    H130805   5.395   5.289   1.856  0.0099  4.0884  0.8208
 3082TIP3    H230806   5.296   5.213   1.770  0.5703 -0.1303  3.5910
 3083TIP3   OH230807   2.201   4.174   0.574  0.2271 -0.5905  0.3137
 3083TIP3    H130808   2.257   4.204   0.646  1.0091 -2.7138  0.6689
 3083TIP3    H230809   2.254   4.110   0.527 -1.5294 -1.9360  0.0543
 3084TIP3   OH230810   1.173   3.693   0.215 -0.2036  0.0977  0.1129
 3084TIP3    H130811   1.092   3.645   0.233  0.7963 -1.5888  0.3338
 3084TIP3    H230812   1.228   3.630   0.167  1.1588  1.0442  0.3749
 3085TIP3   OH230813   2.341   1.619   7.565 -0.2788  0.8039 -0.5556
 3085TIP3    H130814   2.412   1.646   7.506  1.3370 -1.2808  0.3293
 3085TIP3    H230815   2.347   1.681   7.638  0.3423  0.9298 -0.7013
 3086TIP3   OH230816   2.397   5.422   1.960  0.0071  0.1726 -0.2461
 3086TIP3    H130817   2.491   5.436   1.945  0.0738 -1.1219 -1.2167
 3086TIP3    H230818   2.389   5.328   1.975 -1.0310  0.4074  0.8665
 3087TIP3   OH230819   4.286   5.908   0.299 -0.5795 -0.7196 -0.0028
 3087TIP3    H130820   4.206   5.926   0.249 -0.6686 -0.7021  0.1460
 3087TIP3    H230821   4.343   5.983   0.282 -0.0001 -1.4228 -1.3080
 3088TIP3   OH230822   5.926   5.191   1.060 -0.1893 -0.2401  0.9098
 3088TIP3    H130823   5.972   5.158   0.983 -1.7080  1.2424 -0.7156
 3088TIP3    H230824   5.989   5.182   1.131  1.6049 -0.7862 -0.6728
 3089TIP3   OH230825   6.764   5.178   0.445 -0.0945  0.2401  0.3971
 3089TIP3    H130826   6.727   5.198   0.359 -0.5814 -0.5782  0.4094
 3089TIP3    H230827   6.821   5.253   0.465 -0.7944  0.9297 -0.1647
 3090TIP3   OH230828   3.254   2.770   0.478  0.2618  0.3289 -0.3462
 3090TIP3    H130829   3.315   2.738   0.412 -0.4837  0.3215 -1.0416
 3090TIP3    H230830   3.304   2.834   0.529  0.6485  0.8241 -1.3354
 3091TIP3   OH230831   6.844   2.392   0.889 -0.0129  0.1539 -0.3751
 3091TIP3    H130832   6.832   2.307   0.932 -3.3669  1.4710  1.6901
 3091TIP3    H230833   6.775   2.395   0.823 -1.1891  1.9002  0.8490
 3092TIP3   OH230834   3.917   0.590   0.850  0.0766 -0.3094 -0.3099
 3092TIP3    H130835   3.869   0.601   0.932 -0.7713 -2.1700 -0.5197
 3092TIP3    H230836   4.007   0.613   0.873 -0.2021 -0.5034  1.0825
 3093TIP3   OH230837   2.005   5.204   1.822  0.2622 -0.6152  0.1439
 3093TIP3    H130838   2.019   5.294   1.849  0.0516 -1.1499  2.2074
 3093TIP3    H230839   1.910   5.191   1.828  0.1178 -0.6041 -1.5425
 3094TIP3   OH230840   1.990   0.196   1.815 -0.0672  0.3274  0.0809
 3094TIP3    H130841   2.016   0.127   1.753 -3.4225  0.1188 -1.3433
 3094TIP3    H230842   1.976   0.273   1.760 -0.5576  0.8866  0.9701
 3095TIP3   OH230843   1.214   6.491   2.929  0.2118 -0.6346 -0.1582
 3095TIP3    H130844   1.188   6.481   2.838 -1.0930 -1.3743  0.2629
 3095TIP3    H230845   1.161   6.426   2.976  2.6598 -2.0829  0.8302
 3096TIP3   OH230846   6.844   0.483   2.162 -0.1576 -0.1263 -0.1616
 3096TIP3    H130847   6.906   0.473   2.235 -0.0605 -0.9173 -0.3380
 3096TIP3    H230848   6.837   0.395   2.125  0.2223  0.3632 -1.4564
 3097TIP3   OH230849   6.186   5.351   1.014  0.2757  0.2520 -0.2310
 3097TIP3    H130850   6.268   5.340   0.965  0.1095 -1.7788 -0.1129
 3097TIP3    H230851   6.201   5.305   1.097 -0.4877  1.1370  0.4254
 3098TIP3   OH230852   5.777   5.283   2.898  0.1933 -0.6009  0.7332
 3098TIP3    H130853   5.832   5.333   2.959  0.8957  0.3099 -0.5958
 3098TIP3    H230854   5.798   5.191   2.917 -1.5163 -0.5244  3.5947
 3099TIP3   OH230855   5.411   4.915   7.856  0.4649  0.5976  0.3924
 3099TIP3    H130856   5.418   5.011   7.852  0.7588  0.5468 -0.6395
 3099TIP3    H230857   5.326   4.895   7.816  1.3382  0.3322 -1.4731
 3100TIP3   OH230858   3.487   1.170   7.851 -0.1383 -0.7429  0.4228
 3100TIP3    H130859   3.572   1.197   7.886 -0.5118  0.5619  0.3604
 3100TIP3    H230860   3.490   1.074   7.853  0.8810 -0.7129  1.5125
 3101TIP3   OH230861   2.428   5.065   7.995 -0.5160  0.3025 -0.2881
 3101TIP3    H130862   2.444   5.058   7.901 -0.8742 -0.2514 -0.3153
 3101TIP3    H230863   2.510   5.100   8.031  0.0901 -0.6992 -0.6469
 3102TIP3   OH230864   3.168   3.754   2.535  0.1019 -0.6048 -0.5351
 3102TIP3    H130865   3.081   3.750   2.575 -0.0883 -0.1636 -0.8991
 3102TIP3    H230866   3.152   3.737   2.442 -0.2161  3.5879 -1.4506
 3103TIP3   OH230867   6.784   6.213   2.159  0.0138 -0.4882  0.1380
 3103TIP3    H130868   6.743   6.285   2.207  1.0105  0.1851  0.0193
 3103TIP3    H230869   6.715   6.179   2.102 -0.1025  1.3215 -0.8688
 3104TIP3   OH230870   3.524   6.239   7.381 -0.0580 -0.1146 -0.2936
 3104TIP3    H130871   3.592   6.280   7.327  0.7486 -0.4950  0.4035
 3104TIP3    H230872   3.540   6.145   7.371  0.8873 -0.1835  1.5417
 3105TIP3   OH230873   4.815   5.226   0.220 -0.2641 -0.0756 -0.2750
 3105TIP3    H130874   4.748   5.231   0.288  0.3768  0.5342  0.3275
 3105TIP3    H230875   4.765   5.223   0.138 -1.0635 -1.4334  0.2214
 3106TIP3   OH230876   3.384   6.533   0.756 -0.3028 -0.3798  0.0767
 3106TIP3    H130877   3.352   6.593   0.823  0.8231  0.5078 -0.1475
 3106TIP3    H230878   3.470   6.505   0.789 -0.3228 -0.9778 -0.3693
 3107TIP3   OH230879   5.896   5.780   1.584 -0.4476 -0.4434 -0.5245
 3107TIP3    H130880   5.893   5.803   1.492  0.5350 -1.1921 -0.7695
 3107TIP3    H230881   5.821   5.824   1.623  0.7076  2.2143 -1.1309
 3108TIP3   OH230882   1.175   0.368   1.197  0.3305  0.0775 -0.2623
 3108TIP3    H130883   1.144   0.421   1.124 -0.0001  1.0515  0.5637
 3108TIP3    H230884   1.096   0.337   1.240  0.4833  0.9527  0.6936
 3109TIP3   OH230885   4.750   0.472   1.093  0.4457 -0.0953 -0.6786
 3109TIP3    H130886   4.754   0.468   1.189 -1.4641 -2.2800 -0.5872
 3109TIP3    H230887   4.824   0.419   1.064  2.2440  2.1885 -0.5506
 3110TIP3   OH230888   4.190   0.086   0.117  0.4747  0.7768  0.9929
 3110TIP3    H130889   4.272   0.134   0.105  1.0600 -0.4415 -0.1497
 3110TIP3    H230890   4.121   0.152   0.103  1.2461  1.4123  0.1060
 3111TIP3   OH230891   2.629   1.841   0.108  0.2913  0.4609 -0.5775
 3111TIP3    H130892   2.683   1.857   0.031 -0.3669  0.8295 -0.9766
 3111TIP3    H230893   2.660   1.905   0.172  0.7461  0.2491 -0.5833
 3112TIP3   OH230894   1.255   6.388   1.928 -0.2784  0.6152  0.9971
 3112TIP3    H130895   1.208   6.416   1.850  0.4053 -0.3715  0.1962
 3112TIP3    H230896   1.277   6.296   1.911 -0.1811  0.3565  2.3906
 3113TIP3   OH230897   2.770   6.263   1.144 -0.6859  0.2576 -0.0882
 3113TIP3    H130898   2.709   6.335   1.157 -0.8772  0.1170 -0.2044
 3113TIP3    H230899   2.804   6.276   1.055 -0.6510  0.2568 -0.0750
 3114TIP3   OH230900   0.860   3.685   1.060  0.2136  0.0836 -0.3580
 3114TIP3    H130901   0.949   3.701   1.089  0.8416  0.8836 -2.5293
 3114TIP3    H230902   0.829   3.612   1.115  2.1475 -0.1524  0.4876
 3115TIP3   OH230903   0.671   6.465   1.746  0.0188  0.4380 -0.3214
 3115TIP3    H130904   0.700   6.556   1.738  0.1503  0.4878  0.5716
 3115TIP3    H230905   0.576   6.469   1.735  0.0364  0.6739 -0.3887
 3116TIP3   OH230906   3.959   0.973   2.174 -0.1044  0.1913  0.2778
 3116TIP3    H130907   3.891   0.920   2.132  0.2187  0.4588 -0.5997
 3116TIP3    H230908   4.024   0.910   2.203 -0.1301  0.0332 -0.0020
 3117TIP3   OH230909   1.501   6.551   1.335  0.6372 -0.6229 -0.5112
 3117TIP3    H130910   1.464   6.511   1.413  0.2144  0.7920  0.0559
 3117TIP3    H230911   1.596   6.550   1.350  0.6424 -1.5661 -0.5995
 3118TIP3   OH230912   0.349   4.102   6.957  0.5472 -0.3887 -0.4798
 3118TIP3    H130913   0.421   4.112   6.895  0.8198  0.4454 -0.0431
 3118TIP3    H230914   0.392   4.089   7.042  0.1798 -1.3751 -0.4281
 3119TIP3   OH230915   6.396   1.894   8.178 -0.1089  0.2036 -0.5910
 3119TIP3    H130916   6.390   1.931   8.266 -1.1486  0.8845 -0.9321
 3119TIP3    H230917   6.425   1.804   8.192 -2.6053 -0.4952  0.6904
 3120TIP3   OH230918   2.248   1.336   7.945 -0.4322  0.3144 -0.6212
 3120TIP3    H130919   2.220   1.356   7.856  0.5311 -1.6079 -1.4258
 3120TIP3    H230920   2.213   1.248   7.961 -1.1480  0.8743  1.1814
 3121TIP3   OH230921   0.368   1.252   6.707  0.2482  0.1277 -0.1171
 3121TIP3    H130922   0.452   1.243   6.751 -0.9744 -0.9064  2.2120
 3121TIP3    H230923   0.347   1.345   6.713  0.8241  0.2461  0.1058
 3122TIP3   OH230924   5.386   4.119   2.612  0.2345  0.1858  0.3530
 3122TIP3    H130925   5.343   4.036   2.592  0.6510 -0.4370  1.8925
 3122TIP3    H230926   5.477   4.105   2.586 -0.0021  0.7497 -0.8738
 3123TIP3   OH230927   6.882   5.275   7.708 -0.0340  0.4416  0.5554
 3123TIP3    H130928   6.879   5.237   7.620 -1.0177 -0.1363  0.8123
 3123TIP3    H230929   6.938   5.351   7.700 -0.5368  0.7053 -0.7043
 3124TIP3   OH230930   5.463   1.846   7.688  0.0385 -0.0581 -0.3372
 3124TIP3    H130931   5.535   1.904   7.710  0.0138 -0.5423  1.1330
 3124TIP3    H230932   5.503   1.776   7.637  0.1959  0.8230 -1.4601
 3125TIP3   OH230933   1.951   0.716   8.541 -1.1637 -0.0483  0.2554
 3125TIP3    H130934   2.020   0.779   8.559 -0.1656 -0.8628 -0.5612
 3125TIP3    H230935   1.968   0.644   8.602 -0.7253 -0.6426 -0.5415
 3126TIP3   OH230936   2.169   3.359   1.852  0.5963  0.2086 -0.2613
 3126TIP3    H130937   2.158   3.332   1.943  2.4719  0.0380 -0.0454
 3126TIP3    H230938   2.080   3.369   1.819 -0.1349  0.7049  1.7131
 3127TIP3   OH230939   3.284   6.360   7.236 -0.5220  0.3213  0.3397
 3127TIP3    H130940   3.357   6.348   7.176 -1.9309  1.5237 -1.7432
 3127TIP3    H230941   3.324   6.401   7.313  1.1713 -0.2063 -0.2019
 3128TIP3   OH230942   5.474   1.201   1.882 -0.5822 -0.3178  0.0536
 3128TIP3    H130943   5.556   1.175   1.839 -0.4981  0.4558 -0.2650
 3128TIP3    H230944   5.475   1.154   1.966  0.3250 -0.0951  0.1775
 3129TIP3   OH230945   1.904   5.796   3.284 -0.0181 -0.3332  0.2063
 3129TIP3    H130946   1.994   5.818   3.305  0.8158 -0.8157 -2.4089
 3129TIP3    H230947   1.875   5.867   3.226 -1.0141 -0.6183  0.3319
 3130TIP3   OH230948   1.261   0.695   1.023  0.4632 -0.0330 -0.1423
 3130TIP3    H130949   1.306   0.621   0.984  0.4148 -0.2327  0.1823
 3130TIP3    H230950   1.169   0.670   1.023  0.2209  0.7307 -1.6150
 3131TIP3   OH230951   0.695   1.953   7.583  0.3133  0.1247 -0.6225
 3131TIP3    H130952   0.606   1.956   7.548  0.6926 -1.0763 -1.7271
 3131TIP3    H230953   0.696   2.021   7.651 -2.1581 -1.4214  1.1045
 3132TIP3   OH230954   4.389   0.499   1.342 -0.0657  0.0419  0.2881
 3132TIP3    H130955   4.347   0.584   1.355 -2.6517 -0.9525 -1.0239
 3132TIP3    H230956   4.449   0.513   1.268  0.2841  0.9292  0.7221
 3133TIP3   OH230957   4.509   5.862   1.219 -0.2236  0.1887  0.0871
 3133TIP3    H130958   4.573   5.795   1.242  0.4568 -0.0502 -2.2584
 3133TIP3    H230959   4.554   5.919   1.158 -2.1558  0.1202 -1.5118
 3134TIP3   OH230960   1.320   4.303   7.315 -0.3919  0.6217 -0.2254
 3134TIP3    H130961   1.253   4.236   7.305 -2.2180  1.9641  2.1338
 3134TIP3    H230962   1.275   4.377   7.355  1.8748  2.7393 -1.3207
 3135TIP3   OH230963   1.927   1.333   0.775  0.2896 -0.2818 -0.4624
 3135TIP3    H130964   1.841   1.362   0.806 -0.0796 -0.5043 -1.2457
 3135TIP3    H230965   1.916   1.239   0.759  0.5462 -0.2296 -0.9785
 3136TIP3   OH230966   6.544   1.092   8.244 -0.3970 -0.5458  0.1295
 3136TIP3    H130967   6.531   1.047   8.328  1.2165 -0.8013  0.2840
 3136TIP3    H230968   6.494   1.040   8.181 -1.2354 -0.6308  0.8486
 3137TIP3   OH230969   6.003   6.697   0.665  0.0153 -0.3842  0.0621
 3137TIP3    H130970   5.989   6.791   0.671  1.0852 -0.1797 -0.3956
 3137TIP3    H230971   5.954   6.660   0.739  0.2960  0.6103  0.7578
 3138TIP3   OH230972   5.382   2.356   1.136 -0.0096 -0.1138 -0.7001
 3138TIP3    H130973   5.471   2.389   1.143 -0.1980  0.6596 -1.5979
 3138TIP3    H230974   5.371   2.297   1.211  1.5908 -1.0507 -1.1556
 3139TIP3   OH230975   3.185   0.630   1.143 -0.0528  0.1181  0.1491
 3139TIP3    H130976   3.149   0.688   1.211  1.2177  0.7803  0.2917
 3139TIP3    H230977   3.112   0.616   1.082 -0.4554  1.6928  0.2298
 3140TIP3   OH230978   6.755   6.301   8.252  0.1140 -0.2970 -0.1211
 3140TIP3    H130979   6.831   6.255   8.289 -0.0204 -0.5314 -0.1313
 3140TIP3    H230980   6.679   6.261   8.296 -0.0008 -0.0472 -0.0941
 3141TIP3   OH230981   2.680   0.820   0.767 -0.2445  0.3265  0.2231
 3141TIP3    H130982   2.618   0.761   0.809  0.5050  0.0913  1.0333
 3141TIP3    H230983   2.632   0.902   0.755 -0.6687  0.1892  0.9593
 3142TIP3   OH230984   4.151   4.129   2.784  0.5654 -0.1380 -0.1073
 3142TIP3    H130985   4.102   4.070   2.842 -0.3332  0.3069 -0.4048
 3142TIP3    H230986   4.140   4.215   2.823  0.5901  0.0531 -0.5188
 3143TIP3   OH230987   1.121   2.991   7.551 -0.2333  0.5479 -0.3070
 3143TIP3    H130988   1.143   2.904   7.516 -0.6034  0.6585 -0.8414
 3143TIP3    H230989   1.129   3.050   7.476  2.0373  1.3518  0.5109
 3144TIP3   OH230990   1.355   4.752   1.001 -0.4203 -0.3386  0.4709
 3144TIP3    H130991   1.443   4.788   0.992  0.0431 -1.3603  0.7558
 3144TIP3    H230992   1.334   4.719   0.914  0.2490 -1.7328  0.7904
 3145TIP3   OH230993   0.048   6.075   7.208  0.2653  0.2386  0.3033
 3145TIP3    H130994   0.118   6.132   7.243 -0.7365  2.4902 -1.1305
 3145TIP3    H230995   0.020   6.024   7.284  0.1628  2.8176  2.1711
 3146TIP3   OH230996   5.009   6.361   1.790  0.4187 -0.0996 -0.1541
 3146TIP3    H130997   4.976   6.272   1.800 -0.7559  0.4388  1.1622
 3146TIP3    H230998   5.096   6.359   1.831  0.0890 -0.4848  0.5488
 3147TIP3   OH230999   3.517   1.013   1.924 -0.0015  0.0082  0.6905
 3147TIP3    H131000   3.440   1.068   1.910 -0.5796 -0.8786  0.2997
 3147TIP3    H231001   3.579   1.070   1.970 -0.8669  0.7431  0.9779
 3148TIP3   OH231002   3.998   1.904   2.447 -0.1878  0.0226  0.0495
 3148TIP3    H131003   4.052   1.874   2.373 -0.7320  0.6165 -0.6062
 3148TIP3    H231004   4.021   1.996   2.458  1.7578 -0.6361  2.3099
 3149TIP3   OH231005   1.483   1.084   1.951  0.3895 -0.2665 -0.6183
 3149TIP3    H131006   1.462   1.076   1.858  0.1550 -0.7969 -0.5245
 3149TIP3    H231007   1.508   0.995   1.977 -0.5359 -0.3449  0.0564
 3150TIP3   OH231008   2.894   0.122   1.035  0.6132  0.3885  0.2798
 3150TIP3    H131009   2.901   0.197   1.094  1.0943  0.0774  0.6207
 3150TIP3    H231010   2.802   0.121   1.009  0.3878  0.5041  1.0502
 3151TIP3   OH231011   6.580   6.316   8.558  0.4028 -0.2861 -0.1299
 3151TIP3    H131012   6.573   6.269   8.475  0.1022 -3.0943  1.3621
 3151TIP3    H231013   6.640   6.262   8.611  1.6167  2.0994  1.0707
 3152TIP3   OH231014   4.175   0.233   2.801  0.7137  0.3021 -0.3901
 3152TIP3    H131015   4.116   0.301   2.832 -0.1346 -0.5706 -0.0572
 3152TIP3    H231016   4.246   0.281   2.757  0.5272  1.4248  0.4899
 3153TIP3   OH231017   4.756   2.156   7.001 -0.1594  0.2206 -0.2445
 3153TIP3    H131018   4.762   2.249   7.024  2.8687  0.8306 -2.8462
 3153TIP3    H231019   4.769   2.110   7.084  0.4136  2.1467  0.7992
 3154TIP3   OH231020   5.961   0.131   1.790 -0.3869  0.1750 -0.2353
 3154TIP3    H131021   6.002   0.148   1.875 -2.5884 -1.6266  1.2768
 3154TIP3    H231022   5.945   0.037   1.789  0.5585 -0.0715 -3.1841
 3155TIP3   OH231023   5.155   4.515   7.817 -0.5126  0.0588 -0.3511
 3155TIP3    H131024   5.121   4.467   7.893 -0.2424 -0.4700 -0.5563
 3155TIP3    H231025   5.087   4.580   7.797 -0.2704  0.6883  0.7760
 3156TIP3   OH231026   1.815   6.251   7.850  0.2117  0.3639  0.2916
 3156TIP3    H131027   1.728   6.258   7.888  0.3160 -0.1399  0.6415
 3156TIP3    H231028   1.849   6.168   7.884  1.1085  0.8935  0.7292
 3157TIP3   OH231029   5.701   5.285   1.213  0.0141  0.1136  0.3952
 3157TIP3    H131030   5.621   5.308   1.166 -0.1295  0.9730  1.0430
 3157TIP3    H231031   5.764   5.263   1.145  0.3041  2.8891 -0.3197
 3158TIP3   OH231032   3.056   1.992   1.401 -0.1218  0.2710  0.1444
 3158TIP3    H131033   3.128   2.035   1.356  1.2055 -3.1648 -1.3594
 3158TIP3    H231034   3.094   1.963   1.484  0.2100 -1.2095 -0.4872
 3159TIP3   OH231035   1.080   6.602   0.342 -0.5103 -0.2879 -0.1027
 3159TIP3    H131036   1.087   6.579   0.435  0.5402  0.3698  0.0016
 3159TIP3    H231037   1.154   6.557   0.301 -1.2788 -1.0112 -0.7243
 3160TIP3   OH231038   3.780   1.015   7.705  0.2780  0.6939  0.4758
 3160TIP3    H131039   3.804   1.107   7.716 -0.4958  1.0965 -1.0324
 3160TIP3    H231040   3.819   0.990   7.621  1.3528 -0.6728  1.3339
 3161TIP3   OH231041   1.940   2.882   0.636  0.2110 -0.4945 -0.3868
 3161TIP3    H131042   1.855   2.875   0.679  1.6062  1.3579  3.0313
 3161TIP3    H231043   1.953   2.976   0.623  0.3988 -0.8849 -4.0425
 3162TIP3   OH231044   1.490   5.402   2.642 -0.0701 -0.0860  0.2943
 3162TIP3    H131045   1.550   5.369   2.575  1.6502  0.5914  1.4349
 3162TIP3    H231046   1.474   5.326   2.698 -2.2232 -0.8913 -1.3116
 3163TIP3   OH231047   5.757   6.087   1.004  0.4074  0.4290 -0.1283
 3163TIP3    H131048   5.756   6.163   1.061  0.5264  0.7003 -0.4847
 3163TIP3    H231049   5.665   6.074   0.980  0.4757  0.9695 -0.7273
 3164TIP3   OH231050   3.723   2.027   2.273  0.1445 -0.2932  0.1463
 3164TIP3    H131051   3.652   1.984   2.321  0.9254 -2.5786 -0.5872
 3164TIP3    H231052   3.789   2.047   2.340 -0.9629  1.4413  0.7614
 3165TIP3   OH231053   1.943   2.198   0.212 -0.3473  0.5771  0.3075
 3165TIP3    H131054   1.903   2.168   0.130  0.3057 -1.9290  0.8417
 3165TIP3    H231055   2.018   2.250   0.183 -2.0691  2.7121 -0.6547
 3166TIP3   OH231056   0.979   3.227   1.506  0.2888 -0.1592  0.3199
 3166TIP3    H131057   0.977   3.167   1.431  0.6916  0.2802 -0.0477
 3166TIP3    H231058   0.888   3.253   1.518  0.0811 -0.9974  0.6119
 3167TIP3   OH231059   0.323   5.237   7.905 -0.3010  0.3996 -0.1652
 3167TIP3    H131060   0.408   5.237   7.948 -0.3741 -0.8690  0.0236
 3167TIP3    H231061   0.338   5.280   7.821  0.6195 -0.1399 -0.2889
 3168TIP3   OH231062   1.501   3.285   6.695 -0.1724 -0.2028 -0.4574
 3168TIP3    H131063   1.454   3.203   6.706 -0.3972  0.2189  2.3935
 3168TIP3    H231064   1.588   3.260   6.664 -0.5466 -1.4151 -0.5693
 3169TIP3   OH231065   3.055   1.164   7.943 -0.0693  0.2704  0.2900
 3169TIP3    H131066   3.023   1.075   7.927  0.8301  0.3119 -1.9834
 3169TIP3    H231067   2.985   1.205   7.994 -1.2984 -1.1956 -0.1413
 3170TIP3   OH231068   2.556   1.417   0.929  0.2066  0.0115  0.0200
 3170TIP3    H131069   2.547   1.394   0.837 -1.7387 -0.9977  0.3967
 3170TIP3    H231070   2.649   1.405   0.948  0.7416  0.7546 -1.9085
 3171TIP3   OH231071   4.744   2.493   0.686  0.5153  1.0707 -0.6038
 3171TIP3    H131072   4.721   2.400   0.677  2.2641  0.6408 -0.9053
 3171TIP3    H231073   4.758   2.504   0.780 -1.9484  1.6385 -0.2353
 3172TIP3   OH231074   4.837   6.026   8.110  0.0696 -0.0138 -0.5166
 3172TIP3    H131075   4.750   5.985   8.104  0.2063 -0.3771 -0.0517
 3172TIP3    H231076   4.847   6.047   8.203  1.4491 -2.1462 -0.1317
 3173TIP3   OH231077   2.018   4.133   8.215 -0.5081  0.3228 -0.0335
 3173TIP3    H131078   2.017   4.048   8.258 -3.3151  0.1636 -0.2020
 3173TIP3    H231079   2.067   4.120   8.135 -0.9979 -1.1929 -0.1080
 3174TIP3   OH231080   4.780   3.607   7.352 -1.0376  0.4289  0.6329
 3174TIP3    H131081   4.804   3.698   7.336 -3.0344  0.9792  0.4375
 3174TIP3    H231082   4.846   3.556   7.306  0.0680  1.7736  0.6710
 3175TIP3   OH231083   3.732   3.355   7.547 -0.4177  0.4592 -0.1463
 3175TIP3    H131084   3.718   3.427   7.485  0.6683 -0.0192 -0.9799
 3175TIP3    H231085   3.644   3.323   7.566 -0.7503 -0.1656 -2.3945
 3176TIP3   OH231086   3.660   5.724   2.292 -0.4693  0.0554 -0.4375
 3176TIP3    H131087   3.742   5.733   2.244  0.2874  1.0316  0.9378
 3176TIP3    H231088   3.593   5.759   2.233  0.2148 -0.0796 -1.3060
 3177TIP3   OH231089   2.080   6.263   2.626 -0.4571 -0.6513 -0.6593
 3177TIP3    H131090   2.166   6.250   2.666  1.0523 -1.6704 -3.8734
 3177TIP3    H231091   2.045   6.175   2.617 -2.0821 -0.2217  0.9017
 3178TIP3   OH231092   2.190   2.311   1.608 -0.1265  0.3569  0.1079
 3178TIP3    H131093   2.257   2.371   1.576 -0.4144 -0.2773 -1.8051
 3178TIP3    H231094   2.135   2.365   1.665  1.3396  1.1510  0.8259
 3179TIP3   OH231095   6.094   5.397   0.188 -0.2437 -0.0934 -0.7462
 3179TIP3    H131096   6.120   5.409   0.280  0.8508 -0.5508 -0.9850
 3179TIP3    H231097   6.172   5.365   0.145 -1.3362 -1.9661 -1.4249
 3180TIP3   OH231098   1.304   0.928   0.870  0.3219  0.0591 -0.3790
 3180TIP3    H131099   1.214   0.961   0.872  0.1678 -0.3342 -0.6742
 3180TIP3    H231100   1.304   0.854   0.932  0.4065 -0.0256 -0.4797
 3181TIP3   OH231101   1.137   5.358   7.410 -0.3215 -0.1257  1.0475
 3181TIP3    H131102   1.135   5.277   7.358 -1.7113 -0.2086  1.1959
 3181TIP3    H231103   1.220   5.400   7.386 -0.5336 -0.5812 -0.6073
 3182TIP3   OH231104   2.006   2.299   0.781 -0.1060 -0.0613 -0.0560
 3182TIP3    H131105   2.003   2.204   0.788 -1.6642 -0.2156 -1.9268
 3182TIP3    H231106   2.057   2.316   0.702 -1.3593  0.5413 -0.7714
 3183TIP3   OH231107   3.556   5.944   7.338 -0.2577  0.7710 -0.5880
 3183TIP3    H131108   3.530   5.858   7.303  1.8024 -0.5139  0.7825
 3183TIP3    H231109   3.504   5.954   7.417  0.7326 -0.1238  0.2210
 3184TIP3   OH231110   0.155   5.099   2.086 -0.9117  0.3240 -0.6995
 3184TIP3    H131111   0.182   5.189   2.069 -0.5763  0.2295 -0.6759
 3184TIP3    H231112   0.061   5.100   2.073 -0.9413  0.7253 -0.5061
 3185TIP3   OH231113   5.676   1.338   0.014 -0.3029 -0.6536  0.3715
 3185TIP3    H131114   5.743   1.313  -0.049 -1.4405 -1.0265 -0.7446
 3185TIP3    H231115   5.645   1.423  -0.016 -0.1482 -0.3564  1.0358
 3186TIP3   OH231116   3.829   5.204   0.193  0.0031  0.6280 -0.9896
 3186TIP3    H131117   3.825   5.299   0.177 -0.2746  0.9068  0.5382
 3186TIP3    H231118   3.922   5.184   0.193  0.4750  1.8302  3.0926
 3187TIP3   OH231119   4.502   6.819   0.593 -0.1459 -0.3814 -0.2667
 3187TIP3    H131120   4.469   6.737   0.556 -0.8137 -0.0276 -0.4714
 3187TIP3    H231121   4.477   6.816   0.685 -1.7299  0.3570 -0.6436
 3188TIP3   OH231122   2.781   2.331   1.433  0.5365  0.0862  0.7481
 3188TIP3    H131123   2.857   2.296   1.480  1.4640  1.4000  0.2763
 3188TIP3    H231124   2.741   2.392   1.496  0.5329  0.2395  0.5969
 3189TIP3   OH231125   5.107   0.683   1.264 -0.2901  0.7693 -0.2950
 3189TIP3    H131126   5.041   0.647   1.204  0.0795  0.8579 -0.7641
 3189TIP3    H231127   5.162   0.608   1.287 -0.5527  0.6949  0.0989
 3190TIP3   OH231128   3.073   6.104   8.195  0.0741 -0.0566  0.0507
 3190TIP3    H131129   3.015   6.180   8.203  0.5774  0.1901  1.5981
 3190TIP3    H231130   3.016   6.029   8.212 -0.6890 -0.1788 -2.6285
 3191TIP3   OH231131   4.233   3.005   8.389  0.4718  0.6688  0.7775
 3191TIP3    H131132   4.240   3.096   8.418 -0.4358  0.3075  2.2680
 3191TIP3    H231133   4.141   2.983   8.404  0.5977 -0.3858  0.0885
 3192TIP3   OH231134   2.534   4.231   7.444  0.1273 -0.3907  0.5367
 3192TIP3    H131135   2.593   4.214   7.517  0.3700  1.2570  0.7619
 3192TIP3    H231136   2.488   4.148   7.431  0.4748 -0.8902  2.1933
 3193TIP3   OH231137   0.658   6.566   1.305  0.2245  0.6710  0.4017
 3193TIP3    H131138   0.711   6.644   1.287 -1.3545  1.5960 -0.5587
 3193TIP3    H231139   0.610   6.551   1.223  0.9115 -1.6968  0.3774
 3194TIP3   OH231140   4.698   3.178   7.544  0.2015 -0.5544  0.4993
 3194TIP3    H131141   4.637   3.123   7.594 -0.3739  0.6254  1.1602
 3194TIP3    H231142   4.781   3.172   7.592 -0.3571  0.5965  1.6736
 3195TIP3   OH231143   1.733   5.647   0.829 -0.6778 -0.3534 -0.1919
 3195TIP3    H131144   1.642   5.616   0.835 -0.8186  0.2343  1.1413
 3195TIP3    H231145   1.759   5.662   0.920  0.5036  0.2345 -0.6050
 3196TIP3   OH231146   5.711   5.943   8.306 -0.5788 -0.0344  0.2042
 3196TIP3    H131147   5.733   5.860   8.264  3.1269  0.2569  1.2037
 3196TIP3    H231148   5.672   5.917   8.390 -3.8864 -0.5947 -1.3301
 3197TIP3   OH231149   3.662   1.609   7.519 -0.1112 -0.4387  0.4142
 3197TIP3    H131150   3.698   1.698   7.526 -0.8371  0.1822 -2.5551
 3197TIP3    H231151   3.718   1.557   7.577  1.8372  1.5200  0.4550
 3198TIP3   OH231152   4.607   1.159   7.442  0.2675  0.1661 -0.0745
 3198TIP3    H131153   4.673   1.178   7.508  0.1773 -0.5267  0.2216
 3198TIP3    H231154   4.557   1.241   7.434  0.1269  0.1903  0.8916
 3199TIP3   OH231155   5.710   2.575   7.257  0.1864  0.0722  0.5029
 3199TIP3    H131156   5.761   2.617   7.189  0.0762  0.3891  0.6163
 3199TIP3    H231157   5.770   2.568   7.331  0.2027  0.0301  0.4860
 3200TIP3   OH231158   1.591   5.436   1.796 -0.0008  0.4598  0.0531
 3200TIP3    H131159   1.522   5.374   1.773 -1.3064  2.3259 -1.3731
 3200TIP3    H231160   1.593   5.497   1.723  2.3044  1.2232  0.6909
 3201TIP3   OH231161   4.621   0.731   0.547  0.3326  0.3345  0.2244
 3201TIP3    H131162   4.535   0.761   0.517  0.0766  0.3639  0.9563
 3201TIP3    H231163   4.638   0.652   0.497 -0.4435 -0.0654  0.5786
 3202TIP3   OH231164   2.285   1.581   2.810 -0.1869 -0.0973  0.0668
 3202TIP3    H131165   2.335   1.545   2.737  0.7315 -0.1698  0.7144
 3202TIP3    H231166   2.326   1.543   2.888 -1.1886 -0.0659  0.6197
 3203TIP3   OH231167   0.185   2.166   8.665  0.1033  0.1382 -0.0927
 3203TIP3    H131168   0.276   2.144   8.646 -0.3680 -0.3341 -1.9774
 3203TIP3    H231169   0.190   2.224   8.742  1.9730  0.0895 -0.1331
 3204TIP3   OH231170   2.368   4.024   7.457  0.0059  0.3701  0.1453
 3204TIP3    H131171   2.294   4.069   7.499  0.3643  1.2057 -0.1090
 3204TIP3    H231172   2.337   3.934   7.446 -1.9751  1.2093 -2.1883
 3205TIP3   OH231173   6.378   1.329   0.890  0.0820  0.7093  0.3686
 3205TIP3    H131174   6.289   1.365   0.882 -1.1608 -2.4637 -2.3272
 3205TIP3    H231175   6.369   1.257   0.953  0.2251 -0.7486 -1.2054
 3206TIP3   OH231176   2.714   1.325   7.788  0.3989 -0.4202 -0.0815
 3206TIP3    H131177   2.640   1.270   7.814  0.6433 -1.0141 -0.5991
 3206TIP3    H231178   2.687   1.363   7.704  0.0828  0.5534  0.4538
 3207TIP3   OH231179   2.910   4.289   8.324  0.7312  0.0109 -0.1407
 3207TIP3    H131180   2.837   4.236   8.293  0.5774 -0.0563  0.3321
 3207TIP3    H231181   2.870   4.371   8.353  0.7896 -0.1832  0.5030
 3208TIP3   OH231182   4.224   3.621   1.541 -0.2750  0.2877  0.2880
 3208TIP3    H131183   4.196   3.632   1.450  1.5383  0.5201 -0.2861
 3208TIP3    H231184   4.301   3.678   1.550 -0.3505  0.1949  1.9527
 3209TIP3   OH231185   6.645   0.825   0.248  0.4796 -0.4748  0.5628
 3209TIP3    H131186   6.607   0.889   0.308 -0.1828 -1.5209  1.2877
 3209TIP3    H231187   6.733   0.808   0.283  1.3070  1.2173 -0.5623
 3210TIP3   OH231188   4.573   0.916   8.456  0.1371  0.3113  0.2056
 3210TIP3    H131189   4.640   0.978   8.487  0.0703 -0.3546  1.7846
 3210TIP3    H231190   4.549   0.866   8.534 -0.9728 -0.6263 -0.7017
 3211TIP3   OH231191   4.217   5.146   3.028  0.1260 -0.1206 -0.3148
 3211TIP3    H131192   4.146   5.203   3.058 -0.1394 -0.7826  0.3572
 3211TIP3    H231193   4.275   5.204   2.979 -1.7989  0.1137 -2.5280
 3212TIP3   OH231194   1.729   3.724   0.404 -0.3781 -0.0695 -0.1555
 3212TIP3    H131195   1.823   3.740   0.396 -0.3628 -1.0001 -2.3209
 3212TIP3    H231196   1.689   3.806   0.376 -0.1963 -0.5945 -2.0953
 3213TIP3   OH231197   0.828   4.871   0.709  0.1352 -0.0015  0.4714
 3213TIP3    H131198   0.818   4.792   0.761  1.1320  0.3192  1.1736
 3213TIP3    H231199   0.793   4.848   0.623  0.3771 -1.1909  0.6774
 3214TIP3   OH231200   6.149   0.346   0.742  0.4804 -0.8423  0.4734
 3214TIP3    H131201   6.230   0.320   0.699 -0.3599 -0.8024 -1.2255
 3214TIP3    H231202   6.090   0.369   0.670 -0.4505  0.9014  1.7318
 3215TIP3   OH231203   4.592   4.605   6.707  0.2568 -0.3776  0.2155
 3215TIP3    H131204   4.657   4.637   6.645 -1.0200  1.0367 -0.4528
 3215TIP3    H231205   4.629   4.624   6.793  0.2539  1.4475 -0.1637
 3216TIP3   OH231206   1.102   0.761   7.428 -1.1046 -0.2097  0.1492
 3216TIP3    H131207   1.040   0.819   7.384 -0.7083 -0.3333 -0.5776
 3216TIP3    H231208   1.186   0.804   7.417 -1.1690  0.5109  2.0535
 3217TIP3   OH231209   2.372   2.187   1.781 -0.2827 -0.6745  0.1008
 3217TIP3    H131210   2.303   2.217   1.721  0.1127  0.9355  0.3938
 3217TIP3    H231211   2.324   2.149   1.855 -0.8092 -1.3080 -0.5574
 3218TIP3   OH231212   4.760   1.998   1.590  0.2113 -0.3085 -0.4349
 3218TIP3    H131213   4.703   1.963   1.658  0.4297  0.2156  0.0270
 3218TIP3    H231214   4.824   1.929   1.573 -0.5924 -0.9288 -1.0080
 3219TIP3   OH231215   5.914   5.743   7.417  0.7153  0.3315 -0.2326
 3219TIP3    H131216   5.905   5.802   7.342  1.1954 -0.5863 -1.0392
 3219TIP3    H231217   5.827   5.703   7.426  0.5887  0.6220 -0.1338
 3220TIP3   OH231218   0.255   1.729   7.452 -0.1686 -0.2779 -0.5334
 3220TIP3    H131219   0.303   1.675   7.390  0.6974  0.6702 -0.7274
 3220TIP3    H231220   0.180   1.761   7.403  0.2863  0.1270 -0.9810
 3221TIP3   OH231221   6.501   0.535   1.872 -0.1931 -0.4882  0.1910
 3221TIP3    H131222   6.497   0.599   1.943  0.3641 -0.9262  0.6312
 3221TIP3    H231223   6.555   0.576   1.805 -1.0986  0.1147 -0.1853
 3222TIP3   OH231224   6.858   4.165   1.673  0.1073  0.2650 -0.2269
 3222TIP3    H131225   6.766   4.144   1.662  0.0365 -0.0713  0.8685
 3222TIP3    H231226   6.905   4.101   1.619 -0.2376 -0.6125  0.4990
 3223TIP3   OH231227   1.005   0.710   0.551 -0.3818  0.0870  0.4518
 3223TIP3    H131228   1.085   0.750   0.516 -0.5726 -0.6194 -0.8463
 3223TIP3    H231229   0.939   0.779   0.542 -0.3860 -0.0208 -0.4383
 3224TIP3   OH231230   0.156   2.980   0.580  0.2065 -0.4548  0.1215
 3224TIP3    H131231   0.210   2.940   0.513  1.0147  0.9892 -0.1349
 3224TIP3    H231232   0.139   3.069   0.548  0.0751  0.0548  1.5098
 3225TIP3   OH231233   3.460   5.226   2.328 -0.1201 -0.1258 -0.5161
 3225TIP3    H131234   3.514   5.293   2.286  0.8992  0.1085  1.0912
 3225TIP3    H231235   3.452   5.255   2.419  1.1928 -2.6724  0.5011
 3226TIP3   OH231236   2.742   3.282   8.640  0.1051 -0.8895  0.2324
 3226TIP3    H131237   2.648   3.267   8.648  0.1584 -0.3977  2.3311
 3226TIP3    H231238   2.750   3.375   8.621  0.1527 -1.0684 -0.6349
 3227TIP3   OH231239   1.605   1.915   7.636  0.6219 -0.2184 -0.4217
 3227TIP3    H131240   1.645   1.919   7.549 -1.5104 -0.3964 -1.4738
 3227TIP3    H231241   1.526   1.968   7.629 -0.4960 -1.6235  0.8841
 3228TIP3   OH231242   3.995   0.964   1.010  0.4975  0.5347  0.1000
 3228TIP3    H131243   4.033   0.955   0.923 -0.0578  0.4098 -0.1309
 3228TIP3    H231244   3.915   0.912   1.007  0.4792  0.5197  0.6887
 3229TIP3   OH231245   5.519   2.368   0.159  0.1655 -0.2267  0.1658
 3229TIP3    H131246   5.457   2.376   0.232 -0.7448  0.8087 -0.6806
 3229TIP3    H231247   5.465   2.378   0.081  1.3256  0.1624 -0.6099
 3230TIP3   OH231248   0.625   3.523   1.589 -0.2412 -0.3267  0.6308
 3230TIP3    H131249   0.572   3.510   1.511  1.4854 -1.4924 -0.4054
 3230TIP3    H231250   0.674   3.604   1.572 -0.0472 -0.4473  0.6156
 3231TIP3   OH231251   0.800   1.619   0.446  0.2063  0.4488  0.1175
 3231TIP3    H131252   0.895   1.605   0.437  0.6677  1.8839  2.0910
 3231TIP3    H231253   0.773   1.557   0.514 -0.6315 -1.0286 -1.4821
 3232TIP3   OH231254   1.020   3.613   3.062  0.8146  0.3095 -0.2126
 3232TIP3    H131255   1.078   3.663   3.005 -0.5156  2.9368  0.5962
 3232TIP3    H231256   0.999   3.534   3.012  2.4913  0.8226 -1.8278
 3233TIP3   OH231257   4.777   4.467   0.206 -0.2747  0.0963 -0.7852
 3233TIP3    H131258   4.787   4.491   0.113  2.1325  0.3562 -0.5266
 3233TIP3    H231259   4.824   4.384   0.214 -2.7026 -1.3367 -0.2598
 3234TIP3   OH231260   2.021   6.058   1.569  0.0908  0.1423  0.1540
 3234TIP3    H131261   1.928   6.039   1.576 -0.4439  1.4604 -2.1047
 3234TIP3    H231262   2.038   6.124   1.635 -0.6433  0.0878  0.3992
 3235TIP3   OH231263   1.388   3.534   1.695 -0.2465 -0.0242  0.1017
 3235TIP3    H131264   1.389   3.477   1.618 -0.3702  0.1894 -0.0572
 3235TIP3    H231265   1.371   3.474   1.768 -1.1217 -0.0960 -0.1458
 3236TIP3   OH231266   1.693   0.845   7.687  0.4666 -0.6209  1.0134
 3236TIP3    H131267   1.736   0.864   7.771 -0.5056  0.5078  1.2913
 3236TIP3    H231268   1.604   0.877   7.699  0.0276 -1.3694 -0.1250
 3237TIP3   OH231269   1.511   1.301   8.092  0.5282 -0.5910  0.5265
 3237TIP3    H131270   1.481   1.279   8.180  0.3327  1.1084  0.9103
 3237TIP3    H231271   1.440   1.273   8.035 -0.0539 -0.2316  1.0631
 3238TIP3   OH231272   1.922   1.363   2.201 -0.4233  0.6058 -0.3319
 3238TIP3    H131273   1.960   1.409   2.126 -1.1952  0.8184 -0.5988
 3238TIP3    H231274   1.919   1.271   2.173 -0.0611  0.5802 -0.2901
 3239TIP3   OH231275   6.445   0.996   1.639  0.2207 -0.1368 -0.2878
 3239TIP3    H131276   6.424   0.902   1.638 -1.7181  0.2522 -0.5193
 3239TIP3    H231277   6.377   1.036   1.585  1.5895  1.3137 -0.9818
 3240TIP3   OH231278   4.190   6.726   0.656 -0.0034 -0.4267  0.1078
 3240TIP3    H131279   4.221   6.766   0.737  1.5782 -0.5453 -0.3862
 3240TIP3    H231280   4.268   6.683   0.620 -0.8695 -1.0908 -1.0517
 3241TIP3   OH231281   0.595   4.105   2.488 -0.2522  0.1067  0.0941
 3241TIP3    H131282   0.674   4.156   2.477 -0.1230  0.2198  1.4045
 3241TIP3    H231283   0.611   4.051   2.566 -2.1411  1.5302  1.5971
 3242TIP3   OH231284   3.938   4.198   7.876  0.3907  0.7738 -0.4317
 3242TIP3    H131285   3.904   4.109   7.885  0.1433  1.0068  1.4044
 3242TIP3    H231286   4.033   4.188   7.874  0.4931  0.5579  2.2606
 3243TIP3   OH231287   6.843   4.351   7.510  0.5827 -0.5679 -0.0872
 3243TIP3    H131288   6.866   4.434   7.470  2.0221 -0.0140  1.7273
 3243TIP3    H231289   6.749   4.359   7.530  0.8725  1.0331  0.8603
 3244TIP3   OH231290   2.310   5.084   8.254  0.0191 -0.0964  0.2067
 3244TIP3    H131291   2.343   5.069   8.166  0.0853 -0.9049  0.3644
 3244TIP3    H231292   2.325   5.177   8.270 -0.3831  0.1498 -0.7915
 3245TIP3   OH231293   1.665   2.846   2.076  1.4100  0.4980 -0.0184
 3245TIP3    H131294   1.647   2.934   2.111 -1.7361 -0.6144  1.5104
 3245TIP3    H231295   1.643   2.852   1.984  0.2094  1.0946  0.2903
 3246TIP3   OH231296   3.300   6.416   0.268  0.5840 -0.2179 -0.0291
 3246TIP3    H131297   3.346   6.493   0.301 -0.8491  1.2953 -1.3922
 3246TIP3    H231298   3.225   6.451   0.221 -1.0853 -2.5437  0.7507
 3247TIP3   OH231299   4.933   0.614   0.371 -0.0275 -0.3816  0.4292
 3247TIP3    H131300   4.929   0.709   0.366  0.1788 -0.3783  0.2960
 3247TIP3    H231301   4.842   0.585   0.371 -0.2470 -0.0376  3.2962
 3248TIP3   OH231302   0.226   5.045   8.101 -0.0006 -0.7051  0.0865
 3248TIP3    H131303   0.213   5.119   8.042 -0.9162  0.5061  1.7227
 3248TIP3    H231304   0.294   5.074   8.161  0.3717 -1.6120  0.1147
 3249TIP3   OH231305   1.732   3.229   7.855 -0.7990 -0.0179  0.3292
 3249TIP3    H131306   1.727   3.321   7.830 -1.5154  0.1935  1.2045
 3249TIP3    H231307   1.703   3.227   7.946 -0.3646 -1.0542  0.4580
 3250TIP3   OH231308   3.584   1.030   6.671 -0.1768 -0.3980 -0.1513
 3250TIP3    H131309   3.559   1.121   6.690  0.7199 -0.3796  0.9934
 3250TIP3    H231310   3.679   1.031   6.667 -0.1842 -1.1711 -0.8410
 3251TIP3   OH231311   1.055   2.284   1.945 -0.0126  0.7902 -0.5338
 3251TIP3    H131312   1.120   2.287   2.015 -0.9150 -0.2913  0.4021
 3251TIP3    H231313   1.095   2.229   1.878 -0.9837 -2.3977  1.2690
 3252TIP3   OH231314   1.708   2.655   7.279 -0.0781  0.2957  0.3341
 3252TIP3    H131315   1.735   2.565   7.299  0.0298  0.5112  1.1925
 3252TIP3    H231316   1.660   2.647   7.197  1.2197 -0.3243 -0.3981
 3253TIP3   OH231317   4.484   2.818   7.463 -0.0762 -0.7470 -0.5069
 3253TIP3    H131318   4.432   2.766   7.524 -0.4990  0.8302  0.5277
 3253TIP3    H231319   4.446   2.800   7.377  1.0206 -3.6086 -0.4825
 3254TIP3   OH231320   5.727   1.806   8.064  0.5766  0.4022 -0.0038
 3254TIP3    H131321   5.804   1.805   8.006  0.6494  2.8085 -0.0668
 3254TIP3    H231322   5.695   1.896   8.059  0.2324  0.5724  3.2768
 3255TIP3   OH231323   5.008   2.110   0.421 -0.5621 -0.8499 -0.3309
 3255TIP3    H131324   5.080   2.095   0.483 -0.9681  0.9122  0.6149
 3255TIP3    H231325   4.940   2.048   0.448  0.0960 -1.6183 -0.4121
 3256TIP3   OH231326   5.764   0.385   2.698  0.1210 -0.0563 -0.1973
 3256TIP3    H131327   5.692   0.326   2.719  1.4582 -2.0214 -0.7798
 3256TIP3    H231328   5.837   0.355   2.752  1.0119  0.6586 -0.9550
 3257TIP3   OH231329   1.217   4.055   7.825 -0.4766  0.1974  0.4594
 3257TIP3    H131330   1.252   4.081   7.740  0.5617 -2.4679 -0.0171
 3257TIP3    H231331   1.128   4.091   7.826 -0.4509  0.4543 -1.6631
 3258TIP3   OH231332   3.002   0.349   1.804  0.5092  0.5054 -0.3234
 3258TIP3    H131333   3.074   0.410   1.788  0.3476  1.0432  0.9169
 3258TIP3    H231334   3.043   0.271   1.842  0.5343  0.4508 -0.4608
 3259TIP3   OH231335   0.429   6.091   1.819  0.1370  0.1817  0.0029
 3259TIP3    H131336   0.477   6.047   1.749 -0.9590 -0.5421 -0.3358
 3259TIP3    H231337   0.366   6.147   1.773 -3.1930 -3.0121  0.1201
 3260TIP3   OH231338   0.808   0.983   7.701 -0.7429  0.2909 -0.2983
 3260TIP3    H131339   0.838   1.067   7.736 -1.4941  0.0249  1.0487
 3260TIP3    H231340   0.754   1.008   7.626 -0.5627  0.9873 -0.2092
 3261TIP3   OH231341   4.250   1.190   7.218  0.1261  0.0268 -0.3865
 3261TIP3    H131342   4.321   1.243   7.181  1.0754 -1.5345 -0.9147
 3261TIP3    H231343   4.186   1.183   7.147  0.6895 -0.7344 -0.8317
 3262TIP3   OH231344   2.261   6.309   8.304 -0.6443 -0.5860 -0.1490
 3262TIP3    H131345   2.282   6.387   8.252 -0.3659 -1.5442 -1.5143
 3262TIP3    H231346   2.172   6.285   8.276 -1.2224 -0.0738  1.1653
 3263TIP3   OH231347   2.803   2.924   8.103 -0.4919 -0.3549 -0.7634
 3263TIP3    H131348   2.767   2.904   8.189  0.1056  0.1986 -0.3834
 3263TIP3    H231349   2.864   2.996   8.117  2.4707 -2.6076 -0.9688
 3264TIP3   OH231350   5.301   6.370   7.487  0.0284  0.4643 -0.2265
 3264TIP3    H131351   5.319   6.282   7.521  0.0450  0.7310  0.4697
 3264TIP3    H231352   5.368   6.384   7.421  0.6359  0.3312  0.3450
 3265TIP3   OH231353   3.941   5.401   0.456 -0.2223  0.7478  0.4105
 3265TIP3    H131354   3.950   5.317   0.411 -0.5200 -0.1581  1.9894
 3265TIP3    H231355   4.026   5.415   0.499  0.2964  1.9350 -0.9118
 3266TIP3   OH231356   2.541   4.624   7.624  0.0761 -0.2484 -0.3493
 3266TIP3    H131357   2.548   4.542   7.674 -1.0640 -0.2672 -0.2127
 3266TIP3    H231358   2.493   4.600   7.545  1.3081 -0.0815 -1.1809
 3267TIP3   OH231359   4.476   2.254   0.078  0.7582 -0.3973  0.2825
 3267TIP3    H131360   4.527   2.332   0.056  1.7970 -0.8858  0.9016
 3267TIP3    H231361   4.537   2.197   0.124  0.4476 -2.2775 -1.5166
 3268TIP3   OH231362   2.433   3.414   1.805  0.2047 -1.0698  0.7111
 3268TIP3    H131363   2.341   3.401   1.829 -0.0015  0.1994  0.6672
 3268TIP3    H231364   2.431   3.488   1.744  1.4650  0.2717  2.2427
 3269TIP3   OH231365   3.896   3.432   1.010  0.8197  0.2114  0.2649
 3269TIP3    H131366   3.941   3.408   1.091 -1.8898 -0.2647  1.7398
 3269TIP3    H231367   3.806   3.403   1.023 -0.0049  1.2632 -2.4413
 3270TIP3   OH231368   4.777   1.568   2.521 -0.2136  0.2375 -0.2109
 3270TIP3    H131369   4.792   1.481   2.558 -0.3727  0.7538  1.1440
 3270TIP3    H231370   4.689   1.563   2.483 -0.7641  0.1566  1.0156
 3271TIP3   OH231371   6.662   2.263   7.685  0.1195  0.4759  0.2893
 3271TIP3    H131372   6.670   2.315   7.605  0.1396 -0.4886 -0.3473
 3271TIP3    H231373   6.682   2.325   7.755 -0.9732  1.6182 -0.3626
 3272TIP3   OH231374   0.448   0.547   7.922  0.7233 -0.0810  0.1285
 3272TIP3    H131375   0.442   0.640   7.944  0.0486 -0.2585  0.7403
 3272TIP3    H231376   0.541   0.532   7.905  0.9014  0.6030  0.4749
 3273TIP3   OH231377   5.676   0.878   1.802  0.4463 -0.0013  0.2141
 3273TIP3    H131378   5.710   0.968   1.802 -0.6023  0.4083  0.4013
 3273TIP3    H231379   5.696   0.845   1.889  1.0296 -0.0341  0.0743
 3274TIP3   OH231380   0.854   4.283   8.356 -0.3515  0.4196  0.1525
 3274TIP3    H131381   0.784   4.261   8.295 -0.3424 -1.4029  0.7268
 3274TIP3    H231382   0.813   4.277   8.443 -0.0605  1.7524  0.4057
 3275TIP3   OH231383   3.953   6.048   8.535  0.4514 -0.2680 -0.0327
 3275TIP3    H131384   3.926   6.008   8.617  3.6727 -0.3222  1.1588
 3275TIP3    H231385   3.944   6.143   8.551 -1.1741 -0.2964 -0.5620
 3276TIP3   OH231386   2.500   3.474   2.215 -0.1977  0.0840  0.3878
 3276TIP3    H131387   2.510   3.531   2.139 -0.6183  0.3998  0.5636
 3276TIP3    H231388   2.522   3.387   2.183  1.3962  0.4764  0.3475
 3277TIP3   OH231389   5.705   3.024   2.091  0.0942 -0.6040  0.2885
 3277TIP3    H131390   5.765   3.007   2.164 -0.6043 -2.2040  0.5245
 3277TIP3    H231391   5.618   3.012   2.128 -0.4831  2.2786  0.0990
 3278TIP3   OH231392   3.246   4.190   1.785 -0.1196 -0.2370  0.1643
 3278TIP3    H131393   3.151   4.182   1.791 -0.0575 -0.1130  1.6020
 3278TIP3    H231394   3.272   4.234   1.866  0.9397  2.0168 -1.3001
 3279TIP3   OH231395   2.266   6.517   1.175  0.0123  0.2131  0.1465
 3279TIP3    H131396   2.249   6.608   1.200 -0.1304  1.3529 -3.5801
 3279TIP3    H231397   2.192   6.492   1.121  0.8115 -1.5997 -0.1881
 3280TIP3   OH231398   5.229   2.950   1.260 -0.0490  0.4569  0.4053
 3280TIP3    H131399   5.213   3.029   1.208 -1.3153  0.4708  0.7675
 3280TIP3    H231400   5.255   2.884   1.196 -0.4979  0.7669 -0.1084
 3281TIP3   OH231401   6.803   0.981   8.233  0.1755 -0.8809  0.4982
 3281TIP3    H131402   6.718   1.015   8.204  1.4594  0.6763 -1.8133
 3281TIP3    H231403   6.781   0.908   8.290 -2.7265 -1.7668 -1.4923
 3282TIP3   OH231404   4.144   3.198   8.060 -0.1607 -0.5005 -0.2991
 3282TIP3    H131405   4.223   3.252   8.057  0.1172 -0.7047  1.6718
 3282TIP3    H231406   4.133   3.177   8.153 -1.3449 -2.2374 -0.7749
 3283TIP3   OH231407   5.072   5.818   8.103  0.8074 -0.2195  0.7965
 3283TIP3    H131408   5.046   5.908   8.121  1.4004 -0.0326  0.7409
 3283TIP3    H231409   4.993   5.776   8.071  0.2071 -0.0508  2.0097
 3284TIP3   OH231410   1.090   4.626   1.271  0.1049  0.1225  0.5100
 3284TIP3    H131411   1.164   4.686   1.261 -0.4465  0.6246 -0.8400
 3284TIP3    H231412   1.109   4.577   1.350  1.8870  0.2382  0.1902
 3285TIP3   OH231413   2.364   1.572   6.994 -0.0301  0.2113 -0.6652
 3285TIP3    H131414   2.431   1.573   6.926  0.7372 -1.8569 -0.0235
 3285TIP3    H231415   2.286   1.536   6.951  0.0212  0.2745 -0.8083
 3286TIP3   OH231416   6.281   6.829   0.677 -0.4808  0.1229 -0.1340
 3286TIP3    H131417   6.197   6.807   0.636 -0.8596 -1.8667  1.5685
 3286TIP3    H231418   6.277   6.791   0.764  0.5690  3.5889  1.6295
 3287TIP3   OH231419   2.217   5.633   7.670 -0.3087 -0.2201  0.1283
 3287TIP3    H131420   2.138   5.596   7.630  0.9716  0.7825 -3.7898
 3287TIP3    H231421   2.285   5.568   7.654  0.1287 -0.1587  1.5890
 3288TIP3   OH231422   1.804   6.846   1.578  0.5134 -0.1497 -0.2942
 3288TIP3    H131423   1.785   6.828   1.670  0.8236 -0.7554 -0.3427
 3288TIP3    H231424   1.724   6.885   1.544 -0.5641 -2.3327 -0.4140
 3289TIP3   OH231425   1.728   6.121   7.533 -0.1544 -0.2309  0.3072
 3289TIP3    H131426   1.745   6.204   7.576 -0.6359  0.3810 -0.6444
 3289TIP3    H231427   1.811   6.098   7.490  0.7800 -1.5588  2.6282
 3290TIP3   OH231428   1.856   0.239   7.788 -0.5181  0.1129  0.6416
 3290TIP3    H131429   1.761   0.234   7.780 -0.4348 -0.3711 -0.2534
 3290TIP3    H231430   1.885   0.147   7.788 -0.1248  0.2155  2.0446
 3291TIP3   OH231431   6.700   3.514   1.722  0.2280 -0.3399 -0.3456
 3291TIP3    H131432   6.794   3.508   1.736  0.4144  2.2080  0.0348
 3291TIP3    H231433   6.661   3.479   1.803  1.0189  2.3740  1.3460
 3292TIP3   OH231434   4.790   4.855   7.674  0.1673 -0.0447 -0.0371
 3292TIP3    H131435   4.827   4.937   7.707  0.6424 -0.2747  0.0061
 3292TIP3    H231436   4.830   4.788   7.728 -0.3851 -0.2950  0.0720
 3293TIP3   OH231437   2.686   5.407   0.504 -0.1848 -0.0291 -0.4917
 3293TIP3    H131438   2.624   5.456   0.557 -0.5857  1.2332 -2.0505
 3293TIP3    H231439   2.750   5.373   0.567 -1.3211  0.3580  0.9085
 3294TIP3   OH231440   3.805   1.907   7.252 -0.2086 -0.2696 -0.3786
 3294TIP3    H131441   3.782   1.839   7.189  1.6809  0.2818 -1.7714
 3294TIP3    H231442   3.885   1.874   7.294  0.3987  0.8047 -0.6557
 3295TIP3   OH231443   6.128   6.746   1.716 -0.1967 -0.3922  0.0003
 3295TIP3    H131444   6.105   6.772   1.805 -1.5574  1.6874 -0.8780
 3295TIP3    H231445   6.196   6.807   1.689 -0.1443 -0.6884 -0.5673
 3296TIP3   OH231446   3.941   2.087   0.591 -0.5290  0.1622 -0.1565
 3296TIP3    H131447   3.932   2.120   0.680  0.2642  1.0965 -0.4103
 3296TIP3    H231448   4.010   2.140   0.552  0.1269 -1.1728 -0.8920
 3297TIP3   OH231449   1.388   0.418   2.434  0.0424 -0.2931 -0.2238
 3297TIP3    H131450   1.327   0.357   2.392 -0.8718  2.1479 -2.7516
 3297TIP3    H231451   1.339   0.454   2.508 -1.2338  0.7493 -1.5162
 3298TIP3   OH231452   0.332   4.751   7.034 -0.2985  0.1400 -0.0038
 3298TIP3    H131453   0.341   4.659   7.007 -2.7361 -0.4811  0.9906
 3298TIP3    H231454   0.345   4.749   7.129  0.9529  1.0912 -0.1268
 3299TIP3   OH231455   1.754   1.038   2.200  0.6475 -0.1436 -0.3639
 3299TIP3    H131456   1.666   1.034   2.238  0.9341 -0.7707  0.2539
 3299TIP3    H231457   1.748   1.106   2.132 -0.2633 -0.0608 -0.2109
 3300TIP3   OH231458   3.241   4.324   2.322 -0.2648 -0.1787 -0.0737
 3300TIP3    H131459   3.172   4.340   2.257  0.8812  1.8045 -0.8667
 3300TIP3    H231460   3.193   4.319   2.406 -1.5161 -0.4398 -0.7715
 3301TIP3   OH231461   5.946   5.102   1.490 -0.1223 -0.3404  0.1471
 3301TIP3    H131462   5.941   5.007   1.500 -0.9461 -0.4589 -1.1486
 3301TIP3    H231463   5.882   5.136   1.552  0.7273 -0.5744  1.1758
 3302TIP3   OH231464   3.859   1.987   7.973  0.0602  0.1443  0.1762
 3302TIP3    H131465   3.850   2.080   7.955 -0.1934  0.1258  0.2106
 3302TIP3    H231466   3.778   1.962   8.018  0.3239  0.0067  0.5863
 3303TIP3   OH231467   5.942   6.347   0.864 -0.2229 -0.3205  0.2393
 3303TIP3    H131468   6.022   6.305   0.897 -0.7179  0.5046  2.6907
 3303TIP3    H231469   5.875   6.327   0.930 -0.6934  3.5021  1.1689
 3304TIP3   OH231470   1.339   1.379   1.815 -0.2878 -0.0644  0.2838
 3304TIP3    H131471   1.379   1.293   1.806 -0.6209 -0.3857  1.6701
 3304TIP3    H231472   1.247   1.365   1.793 -0.5369 -0.2802  1.4000
 3305TIP3   OH231473   4.294   4.262   8.106 -0.5742  0.1361 -0.4654
 3305TIP3    H131474   4.249   4.242   8.024 -1.2758 -0.0361 -0.0476
 3305TIP3    H231475   4.377   4.302   8.079 -0.6440 -0.2443 -1.2558
 3306TIP3   OH231476   3.665   3.372   8.480 -0.1483 -0.0536 -0.3741
 3306TIP3    H131477   3.734   3.347   8.542  0.8027 -0.8665 -1.7043
 3306TIP3    H231478   3.709   3.427   8.416 -0.7461 -0.5063 -1.1887
 3307TIP3   OH231479   4.270   5.227   7.053 -0.1076  0.4992 -0.8379
 3307TIP3    H131480   4.253   5.310   7.098  0.3386 -1.5611  3.7526
 3307TIP3    H231481   4.363   5.210   7.069 -0.8802 -2.3588  1.6197
 3308TIP3   OH231482   2.948   3.404   8.410 -0.1622  0.3050  0.9195
 3308TIP3    H131483   2.890   3.429   8.482 -1.0317  3.0216 -0.5845
 3308TIP3    H231484   3.007   3.478   8.400  0.6156 -0.4778 -0.4940
 3309TIP3   OH231485   0.616   1.883   1.437  0.1564  0.3444 -0.1274
 3309TIP3    H131486   0.608   1.861   1.344  0.9435 -0.1768 -0.0826
 3309TIP3    H231487   0.526   1.899   1.465 -0.1718 -0.1947 -0.8147
 3310TIP3   OH231488   2.278   2.608   2.090  0.0146  0.8213 -0.5098
 3310TIP3    H131489   2.267   2.572   2.178 -0.5734  2.4409  0.1254
 3310TIP3    H231490   2.334   2.545   2.044 -1.5812 -1.2492  0.2579
 3311TIP3   OH231491   0.296   2.741   1.551 -0.1962 -0.1989  0.0404
 3311TIP3    H131492   0.348   2.662   1.562 -1.6347 -1.2627 -0.4798
 3311TIP3    H231493   0.205   2.711   1.555 -0.7846  1.3038 -0.9450
 3312TIP3   OH231494   3.267   2.455   7.854 -0.9545  1.0033  0.6919
 3312TIP3    H131495   3.251   2.456   7.759 -0.8833 -1.2930  0.6184
 3312TIP3    H231496   3.334   2.522   7.867  0.4918 -0.0021 -1.1847
 3313TIP3   OH231497   0.119   6.051   2.065 -0.0419  0.7056 -0.2057
 3313TIP3    H131498   0.053   6.117   2.089 -0.8730 -0.1492 -0.0619
 3313TIP3    H231499   0.145   6.075   1.976  0.0383  1.5067  0.0189
 3314TIP3   OH231500   3.052   0.864   7.911  0.2446  0.4405 -0.3071
 3314TIP3    H131501   3.098   0.798   7.859  1.1789  0.8441 -0.0134
 3314TIP3    H231502   2.964   0.866   7.875 -0.1866 -1.8426  0.4453
 3315TIP3   OH231503   4.201   1.004   0.392  0.3803  0.4443  0.2232
 3315TIP3    H131504   4.228   0.975   0.305  1.7767 -0.8259  1.0373
 3315TIP3    H231505   4.202   1.099   0.387 -0.7081  0.3914 -1.4746
 3316TIP3   OH231506   5.331   1.749   0.847 -0.5340  0.1065 -0.1785
 3316TIP3    H131507   5.332   1.828   0.793 -2.6555 -0.3573 -1.0094
 3316TIP3    H231508   5.349   1.780   0.936 -2.9277  1.8333 -0.2011
 3317TIP3   OH231509   6.249   3.194   7.456  0.3731  0.5229  0.3253
 3317TIP3    H131510   6.176   3.243   7.417 -1.2078 -2.0781 -0.1858
 3317TIP3    H231511   6.311   3.185   7.384  0.4249  1.2385  0.2662
 3318TIP3   OH231512   6.451   4.277   8.130  0.2554  0.2006 -0.0485
 3318TIP3    H131513   6.426   4.335   8.058 -0.6386 -0.4520 -0.2764
 3318TIP3    H231514   6.368   4.255   8.173  0.8509  1.2466  1.7039
 3319TIP3   OH231515   3.651   2.771   1.393 -0.1374  0.1627 -0.1102
 3319TIP3    H131516   3.598   2.828   1.449 -0.3907 -0.1844  0.0051
 3319TIP3    H231517   3.657   2.689   1.441  1.4982  0.5600  0.4322
 3320TIP3   OH231518   5.336   4.910   1.469  0.2424 -0.8571 -0.4593
 3320TIP3    H131519   5.287   4.935   1.391 -0.6120 -0.7860  0.0911
 3320TIP3    H231520   5.286   4.838   1.506  1.3927 -1.8325 -0.7217
 3321TIP3   OH231521   6.445   2.331   1.401 -0.7948  0.7210 -0.1260
 3321TIP3    H131522   6.489   2.339   1.486 -1.0700  2.0585 -0.0907
 3321TIP3    H231523   6.452   2.238   1.379  0.8002  0.6598  0.5320
 3322TIP3   OH231524   6.173   4.750   2.693 -0.0498 -0.1760 -0.0946
 3322TIP3    H131525   6.177   4.659   2.724 -0.2129  0.0175  0.5232
 3322TIP3    H231526   6.080   4.772   2.696 -0.1182 -0.2796 -1.1345
 3323TIP3   OH231527   6.822   1.333   2.737  0.0076 -0.2342  0.1974
 3323TIP3    H131528   6.827   1.318   2.643 -0.6116 -0.3178  0.1697
 3323TIP3    H231529   6.886   1.401   2.755  0.2477 -0.3386 -0.2595
 3324TIP3   OH231530   2.025   1.483   2.742 -0.2497  0.4914  0.3825
 3324TIP3    H131531   2.096   1.541   2.766  0.7459 -0.7697  0.5747
 3324TIP3    H231532   2.035   1.470   2.647  1.8681 -2.2834  0.8776
 3325TIP3   OH231533   6.711   3.817   0.331 -0.6623  0.4566  0.0029
 3325TIP3    H131534   6.673   3.897   0.296  1.2287  1.9424  1.1646
 3325TIP3    H231535   6.802   3.819   0.302 -0.7203 -1.6536 -0.5128
 3326TIP3   OH231536   2.292   1.343   0.992  0.8391  0.6456 -0.1642
 3326TIP3    H131537   2.387   1.340   0.975  0.3702 -3.2292 -3.7732
 3326TIP3    H231538   2.261   1.415   0.937  1.4244 -0.0632 -1.4698
 3327TIP3   OH231539   2.912   0.710   0.881 -0.2592 -0.0098  0.1366
 3327TIP3    H131540   2.978   0.779   0.877 -0.0804 -0.1581  0.4698
 3327TIP3    H231541   2.836   0.746   0.837  0.0231  0.1913 -0.1885
 3328TIP3   OH231542   0.952   1.196   8.407  0.2241 -0.5099 -0.3054
 3328TIP3    H131543   0.893   1.239   8.346 -0.8855  0.7482  1.5425
 3328TIP3    H231544   0.997   1.267   8.452 -0.3324 -1.2913  1.5952
 3329TIP3   OH231545   0.760   2.035   2.138  0.1850  0.1190  0.1265
 3329TIP3    H131546   0.715   2.116   2.159 -0.6306 -0.4988  0.8101
 3329TIP3    H231547   0.849   2.048   2.171 -0.4305  0.0659  1.9564
 3330TIP3   OH231548   2.415   0.351   3.077 -0.2505 -0.0816 -0.5438
 3330TIP3    H131549   2.382   0.425   3.027 -1.5712 -1.2962 -1.5258
 3330TIP3    H231550   2.437   0.284   3.012  0.6088 -0.6976  0.3340
 3331TIP3   OH231551   1.167   1.920   8.285 -0.2914  0.2884  0.0239
 3331TIP3    H131552   1.141   1.922   8.377 -0.6180 -2.9583  0.1109
 3331TIP3    H231553   1.256   1.885   8.285  1.0371  3.3519 -0.8001
 3332TIP3   OH231554   3.364   2.772   6.838 -0.1002  0.3820 -0.8965
 3332TIP3    H131555   3.276   2.775   6.876 -0.6609 -0.2951 -2.0659
 3332TIP3    H231556   3.404   2.694   6.876 -0.1566  0.4618 -0.6729
 3333TIP3   OH231557   6.447   0.964   1.258  0.0768  0.4405 -0.1519
 3333TIP3    H131558   6.435   0.906   1.183 -0.9060  0.3904  0.0249
 3333TIP3    H231559   6.419   1.050   1.226 -0.1804  0.4530  0.1118
 3334TIP3   OH231560   5.239   0.065   2.106  0.0498 -0.7634  0.2796
 3334TIP3    H131561   5.258   0.152   2.069  0.4518 -0.9813 -0.0408
 3334TIP3    H231562   5.253   0.075   2.200  0.6618 -0.6259  0.1775
 3335TIP3   OH231563   5.739   6.383   8.186  0.3721 -0.1276  0.3847
 3335TIP3    H131564   5.794   6.395   8.109 -1.9214  2.5675 -1.0238
 3335TIP3    H231565   5.662   6.437   8.169 -0.5816  0.0360  4.2848
 3336TIP3   OH231566   6.560   2.325   6.863 -0.3943 -0.1278  0.0428
 3336TIP3    H131567   6.481   2.335   6.809  1.1854  0.5548 -2.3034
 3336TIP3    H231568   6.611   2.258   6.818  1.7566  1.6762 -0.3689
 3337TIP3   OH231569   4.075   4.156   8.506 -0.3372  0.8372  0.0197
 3337TIP3    H131570   4.017   4.230   8.520 -0.8619  0.5781 -0.7562
 3337TIP3    H231571   4.151   4.193   8.461 -0.5991  0.9164 -0.3662
 3338TIP3   OH231572   4.188   0.783   8.337 -0.7430 -0.0047 -0.3916
 3338TIP3    H131573   4.266   0.741   8.301 -1.4709 -1.0888 -0.7546
 3338TIP3    H231574   4.214   0.874   8.350  0.4648 -0.2633 -0.8488
 3339TIP3   OH231575   1.089   4.148   2.339  0.1840 -0.2857  0.1114
 3339TIP3    H131576   1.165   4.091   2.351  2.0941  1.8741 -0.9099
 3339TIP3    H231577   1.092   4.172   2.246 -1.7525 -0.1237  0.0626
 3340TIP3   OH231578   4.775   1.226   0.587  0.0024 -0.8385  0.2204
 3340TIP3    H131579   4.683   1.250   0.581  0.3774  0.8289  0.6636
 3340TIP3    H231580   4.775   1.137   0.620 -1.4476 -0.9439 -0.0190
 3341TIP3   OH231581   6.617   6.649   3.036 -0.3412  0.1083  0.0825
 3341TIP3    H131582   6.673   6.634   2.960 -1.1497  0.8462 -0.6796
 3341TIP3    H231583   6.630   6.742   3.057 -0.7707  0.1188  0.3114
 3342TIP3   OH231584   0.720   2.868   8.259 -0.9522 -0.3403 -0.5000
 3342TIP3    H131585   0.683   2.868   8.170 -1.1470 -1.8647 -0.4499
 3342TIP3    H231586   0.650   2.834   8.314 -0.7076  0.2510  0.1871
 3343TIP3   OH231587   5.599   6.620   0.839 -0.2127  0.2819  0.1430
 3343TIP3    H131588   5.692   6.643   0.840 -0.5259  1.8238 -1.0707
 3343TIP3    H231589   5.576   6.620   0.746 -2.2570  3.8490  0.4883
 3344TIP3   OH231590   1.359   6.763   2.776  0.0593 -0.0022 -0.5337
 3344TIP3    H131591   1.349   6.683   2.724 -1.6456  0.4978 -1.0437
 3344TIP3    H231592   1.449   6.791   2.760  0.2455 -1.0609 -1.4731
 3345TIP3   OH231593   6.197   2.937   8.505 -0.1135 -0.4880 -0.2209
 3345TIP3    H131594   6.282   2.957   8.543  0.8595 -0.6424 -2.1501
 3345TIP3    H231595   6.146   3.017   8.516  0.8652  0.1910 -0.4993
 3346TIP3   OH231596   3.859   6.541   1.980 -0.2667  0.2735  0.3504
 3346TIP3    H131597   3.910   6.471   2.021  0.9427 -0.2348 -1.8315
 3346TIP3    H231598   3.801   6.496   1.918 -1.0871  1.0663  0.5198
 3347TIP3   OH231599   0.254   5.407   2.379  0.3653 -0.3823 -0.0042
 3347TIP3    H131600   0.208   5.447   2.305  0.5617 -1.1124 -0.5234
 3347TIP3    H231601   0.267   5.480   2.441 -0.6627  0.0274 -0.2491
 3348TIP3   OH231602   3.171   5.589   0.848  0.4295  0.0608  0.0393
 3348TIP3    H131603   3.264   5.575   0.863  0.7301  2.4790  0.8554
 3348TIP3    H231604   3.128   5.527   0.907  1.5365  0.0733  0.8914
 3349TIP3   OH231605   4.710   4.436   3.973 -0.1035  0.0031 -0.2933
 3349TIP3    H131606   4.683   4.527   3.960  1.3435  1.0821  3.1696
 3349TIP3    H231607   4.639   4.396   4.023  0.9328  0.4886  1.6815
 3350TIP3   OH231608   6.445   4.921   0.312  0.0715  0.6551  0.6591
 3350TIP3    H131609   6.360   4.882   0.291 -0.8020  3.2586 -1.1915
 3350TIP3    H231610   6.425   4.985   0.381  0.7306  0.5327  0.9662
 3351TIP3   OH231611   5.433   3.683   2.101 -0.3427  0.1892  0.3183
 3351TIP3    H131612   5.387   3.716   2.179 -1.3244  2.4578 -1.1127
 3351TIP3    H231613   5.369   3.625   2.059 -0.5009  0.4034  0.2606
 3352TIP3   OH231614   6.006   2.405   7.857  0.3806  0.2013 -0.0769
 3352TIP3    H131615   5.933   2.379   7.800  0.3266 -1.5479  0.7065
 3352TIP3    H231616   6.075   2.433   7.797  0.0009 -0.7350 -0.9760
 3353TIP3   OH231617   6.058   5.999   1.141  0.0301 -0.2960  0.3274
 3353TIP3    H131618   6.012   5.997   1.057 -1.6254 -1.5854  1.2074
 3353TIP3    H231619   6.029   5.920   1.186  0.9811  0.2987  2.0728
 3354TIP3   OH231620   4.259   5.532   0.891 -0.4398 -0.3817  0.3337
 3354TIP3    H131621   4.244   5.438   0.902  1.5504 -0.6867  0.8543
 3354TIP3    H231622   4.288   5.562   0.977 -1.3691  0.8021  0.2663
 3355TIP3   OH231623   6.386   3.491   0.069  0.4400 -0.0675  0.0166
 3355TIP3    H131624   6.430   3.464   0.150  1.5628 -1.2992 -0.9711
 3355TIP3    H231625   6.418   3.579   0.052  0.5541  0.0219  0.6646
 3356TIP3   OH231626   5.180   0.763   8.394  0.8579  0.2266 -0.1541
 3356TIP3    H131627   5.170   0.679   8.439  0.2017  0.1230 -0.4767
 3356TIP3    H231628   5.211   0.823   8.461  1.4329 -0.3001  0.0576
 3357TIP3   OH231629   2.530   1.086   7.823  0.5073 -0.1082 -0.1750
 3357TIP3    H131630   2.491   1.064   7.739  2.1761 -1.6123 -0.6120
 3357TIP3    H231631   2.479   1.036   7.887 -1.8931  2.3602  0.0167
 3358TIP3   OH231632   4.933   5.037   0.487 -0.1102  0.0048  0.1768
 3358TIP3    H131633   4.877   4.965   0.515  0.5664 -0.4708  0.3103
 3358TIP3    H231634   4.883   5.116   0.510 -0.5501 -0.4085  0.6638
 3359TIP3   OH231635   5.044   2.825   0.437 -0.2848  0.2955 -0.1124
 3359TIP3    H131636   5.113   2.763   0.460 -1.6858 -1.8886 -1.3886
 3359TIP3    H231637   5.004   2.848   0.521  2.0507  1.8190  0.6834
 3360TIP3   OH231638   5.991   6.790   1.424  0.1210  0.0050 -0.4394
 3360TIP3    H131639   5.924   6.780   1.492  0.0285 -0.5179 -0.6025
 3360TIP3    H231640   5.946   6.836   1.353  0.3115  0.8549 -0.0169
 3361TIP3   OH231641   3.801   5.046   8.605  0.4717 -0.0883 -0.6027
 3361TIP3    H131642   3.709   5.067   8.590  0.3342  0.3950  0.8338
 3361TIP3    H231643   3.813   5.051   8.700  1.3907 -2.6466 -0.5099
 3362TIP3   OH231644   2.082   4.191   8.498 -0.2533  0.4142  0.2256
 3362TIP3    H131645   2.156   4.136   8.472 -0.8392 -0.4271  0.3196
 3362TIP3    H231646   2.092   4.271   8.446  0.7353  0.3238  0.2653
 3363TIP3   OH231647   4.558   5.494   7.596  0.3049 -0.3856  0.1367
 3363TIP3    H131648   4.569   5.541   7.679  0.1103  1.1869 -0.6877
 3363TIP3    H231649   4.586   5.557   7.529  2.5915 -2.3461 -0.9146
 3364TIP3   OH231650   6.844   0.463   8.027  0.1449 -0.1787 -0.0980
 3364TIP3    H131651   6.816   0.388   8.080  0.7215  0.9744  1.9439
 3364TIP3    H231652   6.770   0.523   8.028 -0.2632 -0.6236 -1.6110
 3365TIP3   OH231653   5.727   0.026   1.528 -0.7070 -0.0610  0.0655
 3365TIP3    H131654   5.786   0.100   1.541 -2.0768  0.9170  1.0249
 3365TIP3    H231655   5.643   0.066   1.507 -1.3223 -1.3817 -0.0900
 3366TIP3   OH231656   5.569   3.160   1.145  0.1247  0.1323 -0.6069
 3366TIP3    H131657   5.658   3.143   1.114 -0.1766 -0.1775 -1.3104
 3366TIP3    H231658   5.538   3.074   1.175 -0.5695 -0.1380 -2.0214
 3367TIP3   OH231659   1.053   6.846   0.583  0.2855 -0.2763 -0.0893
 3367TIP3    H131660   0.992   6.800   0.525 -1.1356  0.6749  0.5959
 3367TIP3    H231661   1.070   6.929   0.539  1.6694 -0.7887 -0.5990
 3368TIP3   OH231662   2.587   1.671   2.785 -0.0501 -0.0490 -0.7941
 3368TIP3    H131663   2.673   1.639   2.760  0.4408  0.4476  0.2372
 3368TIP3    H231664   2.547   1.698   2.702  1.4194  1.2287 -1.1370
 3369TIP3   OH231665   0.789   0.690   1.128  0.1306  0.0854 -0.0998
 3369TIP3    H131666   0.694   0.681   1.136  0.2854 -0.0410  2.3837
 3369TIP3    H231667   0.805   0.698   1.034 -2.2871 -0.3076 -0.5976
 3370TIP3   OH231668   3.912   5.208   6.463  0.8204 -0.3237  0.2510
 3370TIP3    H131669   4.002   5.229   6.487  1.3017  1.2263 -2.4674
 3370TIP3    H231670   3.918   5.127   6.413  1.0663  0.7189 -1.5137
 3371TIP3   OH231671   3.379   1.965   7.296  0.4813  0.5430 -0.0808
 3371TIP3    H131672   3.402   1.975   7.204 -0.5485 -2.2578 -0.7417
 3371TIP3    H231673   3.287   1.992   7.301 -0.3539 -1.9110 -0.5719
 3372TIP3   OH231674   3.923   5.258   8.428 -0.2069 -0.3292  0.1478
 3372TIP3    H131675   3.885   5.208   8.500  0.9305 -0.9238  0.3637
 3372TIP3    H231676   3.902   5.206   8.350  1.4983 -1.5517  0.4296
 3373TIP3   OH231677   1.041   2.089   3.046 -0.1809  0.1234 -0.0102
 3373TIP3    H131678   1.127   2.131   3.056 -0.0760 -0.0680 -0.0999
 3373TIP3    H231679   1.001   2.133   2.972  0.3742 -0.6646 -0.8096
 3374TIP3   OH231680   1.096   3.941   0.408  0.2764 -0.3481  0.3008
 3374TIP3    H131681   1.156   3.892   0.352  1.0229  1.0347 -0.1713
 3374TIP3    H231682   1.152   3.978   0.477 -0.1108  0.5039  0.1762
 3375TIP3   OH231683   1.835   4.255   8.604  0.2302 -0.0390  0.5134
 3375TIP3    H131684   1.769   4.271   8.536  0.1128  0.4024  0.7322
 3375TIP3    H231685   1.912   4.223   8.555  1.2123  3.1168 -0.2025
 3376TIP3   OH231686   6.672   1.748   2.862  0.6134 -0.2026 -0.6196
 3376TIP3    H131687   6.595   1.792   2.827  0.1550  0.2224  0.8340
 3376TIP3    H231688   6.746   1.787   2.815 -0.0993 -1.6835 -3.1157
 3377TIP3   OH231689   1.162   4.522   1.501  0.2303 -0.1891 -0.2961
 3377TIP3    H131690   1.243   4.477   1.522  0.3272  0.2741  0.3500
 3377TIP3    H231691   1.158   4.596   1.562 -0.4015  0.1156 -0.6839
 3378TIP3   OH231692   6.227   1.006   2.240  0.4481 -0.2809 -0.4821
 3378TIP3    H131693   6.223   1.099   2.262 -1.6642 -0.4886  0.2301
 3378TIP3    H231694   6.138   0.983   2.215  0.3482 -2.6607  1.6442
 3379TIP3   OH231695   3.973   1.862   7.735  0.4639 -0.3460  0.3164
 3379TIP3    H131696   3.949   1.910   7.814 -0.7523  0.2772 -0.4072
 3379TIP3    H231697   3.902   1.880   7.673  2.1375  0.4553 -1.4781
 3380TIP3   OH231698   4.888   4.827   1.345 -0.0051 -0.0407  0.0960
 3380TIP3    H131699   4.941   4.863   1.273  0.2383 -2.0215 -0.7675
 3380TIP3    H231700   4.938   4.752   1.377  0.8144  1.8244  3.6565
 3381TIP3   OH231701   6.191   6.843   7.927 -0.1409 -0.2099  0.6608
 3381TIP3    H131702   6.195   6.751   7.901  0.0274  0.2272 -0.9437
 3381TIP3    H231703   6.131   6.844   8.002  1.1869 -1.8471  1.8353
 3382TIP3   OH231704   0.045   6.176   8.055  0.9882  0.4478 -0.0303
 3382TIP3    H131705   0.076   6.224   8.131  1.5128 -0.2315  0.1947
 3382TIP3    H231706  -0.015   6.237   8.011  1.5168  1.2425  0.3244
 3383TIP3   OH231707   1.170   5.164   7.227 -0.2976 -0.0778 -0.8216
 3383TIP3    H131708   1.167   5.071   7.206 -0.0771 -0.8050  1.9689
 3383TIP3    H231709   1.263   5.182   7.244 -0.6330 -0.0728  1.2678
 3384TIP3   OH231710   4.742   1.487   7.814 -0.6000  0.9912  0.4275
 3384TIP3    H131711   4.778   1.503   7.727  2.3044  0.9040  1.5162
 3384TIP3    H231712   4.721   1.574   7.848 -0.1323  1.1519  0.3027
 3385TIP3   OH231713   5.712   4.786   2.125  0.0306 -0.5182  0.4414
 3385TIP3    H131714   5.733   4.878   2.111  0.1635 -0.6797 -0.4467
 3385TIP3    H231715   5.630   4.772   2.078  0.7333 -1.1857 -0.6223
 3386TIP3   OH231716   6.153   6.032   2.924 -0.1598 -0.0464  0.2340
 3386TIP3    H131717   6.122   5.952   2.882 -0.3740  0.0113  0.2808
 3386TIP3    H231718   6.216   6.069   2.863 -0.1873 -0.1613  0.1360
 3387TIP3   OH231719   6.210   2.223   7.105  0.3784  0.0262  0.0720
 3387TIP3    H131720   6.217   2.140   7.056  1.9172  0.6840 -0.8905
 3387TIP3    H231721   6.249   2.288   7.047 -0.7167  1.4392  0.8624
 3388TIP3   OH231722   5.168   3.742   7.776 -0.0108  0.2134  0.2228
 3388TIP3    H131723   5.229   3.799   7.729  0.7004 -1.3177 -0.8087
 3388TIP3    H231724   5.183   3.762   7.868  1.3775  0.5770 -0.0501
 3389TIP3   OH231725   2.065   5.080   1.014 -0.6539 -0.0356 -0.2748
 3389TIP3    H131726   2.003   5.150   1.035 -1.3689 -1.1387  1.4523
 3389TIP3    H231727   2.064   5.023   1.090  1.2539 -0.9999 -0.9139
 3390TIP3   OH231728   4.432   4.260   2.490  0.0263 -0.3148  0.3248
 3390TIP3    H131729   4.453   4.283   2.400  0.8502 -0.6013  0.4313
 3390TIP3    H231730   4.399   4.341   2.529 -0.1859 -0.1521 -0.1876
 3391TIP3   OH231731   4.039   5.686   0.789 -0.5219  0.1123  0.1238
 3391TIP3    H131732   4.079   5.725   0.712  0.7977 -0.2455  0.5977
 3391TIP3    H231733   4.088   5.605   0.803 -1.7409 -0.5994  0.4554
 3392TIP3   OH231734   6.294   2.951   1.651 -0.0549 -0.8681  0.0831
 3392TIP3    H131735   6.229   2.926   1.585 -0.4219 -0.3438  0.2428
 3392TIP3    H231736   6.369   2.981   1.601 -0.6451  0.3369 -0.1034
 3393TIP3   OH231737   3.403   4.320   1.594 -0.2706  0.0883  0.5735
 3393TIP3    H131738   3.443   4.399   1.630 -1.0683  0.0447  1.6207
 3393TIP3    H231739   3.356   4.281   1.669  1.4904 -2.3107  0.5377
 3394TIP3   OH231740   1.815   6.224   1.286 -0.1045  0.0100  0.0134
 3394TIP3    H131741   1.908   6.207   1.300  0.1986  0.3530 -1.4226
 3394TIP3    H231742   1.810   6.263   1.199 -1.4809  1.1457  0.5584
 3395TIP3   OH231743   0.592   2.600   7.686 -0.6595  0.2500 -0.0639
 3395TIP3    H131744   0.605   2.509   7.711 -0.2947 -0.1829 -1.6634
 3395TIP3    H231745   0.569   2.596   7.593  1.0138  1.8718 -0.6096
 3396TIP3   OH231746   0.778   1.023   0.207 -0.6893 -0.1324  0.1735
 3396TIP3    H131747   0.806   1.062   0.124  0.6972 -0.3328  0.5285
 3396TIP3    H231748   0.845   0.957   0.226 -0.1966  0.8679  2.1296
 3397TIP3   OH231749   4.393   0.903   2.705 -0.2536 -0.4810  0.1794
 3397TIP3    H131750   4.317   0.956   2.683 -0.4043 -0.5272  0.5743
 3397TIP3    H231751   4.356   0.816   2.724 -0.1862 -0.3323  1.0369
 3398TIP3   OH231752   4.537   3.865   7.562 -0.3424 -0.2597  0.4394
 3398TIP3    H131753   4.477   3.930   7.600 -0.9399 -0.8006  0.4357
 3398TIP3    H231754   4.584   3.829   7.638  0.9220  1.0617  0.3335
 3399TIP3   OH231755   0.261   1.615   1.568  0.2400 -0.3530  0.6854
 3399TIP3    H131756   0.278   1.680   1.499 -0.1093  0.4466  1.3290
 3399TIP3    H231757   0.168   1.594   1.557  0.2778 -0.5135  0.6750
 3400TIP3   OH231758   2.741   1.883   2.679 -0.0839  0.1354  0.1249
 3400TIP3    H131759   2.782   1.873   2.765 -1.0222 -0.3315  0.5319
 3400TIP3    H231760   2.652   1.912   2.698 -0.6604 -1.0727 -0.6355
 3401TIP3   OH231761   1.709   3.686   0.818 -0.5183  0.0376 -0.4266
 3401TIP3    H131762   1.701   3.748   0.891 -2.1143 -2.0173  1.2423
 3401TIP3    H231763   1.796   3.648   0.830 -1.3893 -1.5209  1.5434
 3402TIP3   OH231764   6.126   6.794   2.015 -0.5557 -0.2937  0.2731
 3402TIP3    H131765   6.081   6.745   2.083 -0.3531 -0.9710 -0.0636
 3402TIP3    H231766   6.118   6.885   2.041  0.4975 -0.5979  1.8175
 3403TIP3   OH231767   1.203   1.756   7.555  0.0430 -0.0774 -0.0798
 3403TIP3    H131768   1.244   1.833   7.595  1.2586 -0.5848 -0.3048
 3403TIP3    H231769   1.118   1.787   7.524 -0.2438  0.7258  1.4350
 3404TIP3   OH231770   6.107   3.925   8.033 -0.5499  0.1908 -0.2233
 3404TIP3    H131771   6.107   3.849   8.091 -0.3080  0.0489 -0.4100
 3404TIP3    H231772   6.014   3.943   8.017 -0.6302  0.4548  0.4954
 3405TIP3   OH231773   6.202   4.842   0.877 -0.4857  0.0765 -0.5426
 3405TIP3    H131774   6.271   4.833   0.812 -0.6499  0.8861 -0.8471
 3405TIP3    H231775   6.243   4.816   0.959  0.3308  0.9965 -0.6382
 3406TIP3   OH231776   2.842   5.603   6.918  0.0068  0.3725 -0.2133
 3406TIP3    H131777   2.799   5.632   6.838  0.5941  0.9132 -0.3493
 3406TIP3    H231778   2.827   5.675   6.980 -0.6917 -0.1721  0.2580
 3407TIP3   OH231779   6.750   2.826   1.173 -0.3939  0.1549  0.0147
 3407TIP3    H131780   6.791   2.881   1.240 -3.4781  2.2706  0.3757
 3407TIP3    H231781   6.790   2.854   1.091  1.3726 -0.4289  0.6203
 3408TIP3   OH231782   1.310   1.180   7.958 -0.2982 -0.2796 -0.4379
 3408TIP3    H131783   1.303   1.116   8.028 -1.4566  0.8678  0.5553
 3408TIP3    H231784   1.305   1.129   7.878  1.0517 -1.6319  0.2748
 3409TIP3   OH231785   4.339   1.760   1.910  0.3806  0.1802 -0.1448
 3409TIP3    H131786   4.371   1.670   1.913 -0.5809 -0.1594  2.2648
 3409TIP3    H231787   4.244   1.751   1.900  0.4920  1.0512 -2.6753
 3410TIP3   OH231788   6.776   1.342   2.147 -0.0707  0.0654 -0.0010
 3410TIP3    H131789   6.858   1.328   2.194  0.1704  0.8538 -0.1772
 3410TIP3    H231790   6.727   1.404   2.201 -1.0208 -1.2152  0.6480
 3411TIP3   OH231791   4.177   5.415   0.584  0.1785  0.2055 -0.7022
 3411TIP3    H131792   4.236   5.340   0.572 -1.6218 -1.1009 -1.9081
 3411TIP3    H231793   4.217   5.465   0.656  1.1646 -2.2197  0.5694
 3412TIP3   OH231794   0.758   1.375   2.576 -0.3506  0.1944  0.0431
 3412TIP3    H131795   0.762   1.336   2.663 -0.6035 -1.2483 -0.5489
 3412TIP3    H231796   0.742   1.468   2.591  0.3960  0.1077  1.5389
 3413TIP3   OH231797   3.325   1.061   8.171 -0.3299  0.3316 -0.2680
 3413TIP3    H131798   3.266   1.038   8.243  0.7900 -0.7621  0.3379
 3413TIP3    H231799   3.390   1.119   8.211  0.9735 -1.1969 -0.0657
 3414TIP3   OH231800   5.579   0.142   0.672  0.4655  0.1298  0.2698
 3414TIP3    H131801   5.550   0.193   0.597  0.7010  0.8288  0.6488
 3414TIP3    H231802   5.528   0.176   0.745 -0.6701 -1.3747  0.2425
 3415TIP3   OH231803   0.146   6.435   0.696 -0.1192  0.4609  0.2280
 3415TIP3    H131804   0.053   6.427   0.672  0.0466 -0.2242 -0.2199
 3415TIP3    H231805   0.193   6.399   0.620  0.5115  0.7908  0.4586
 3416TIP3   OH231806   4.651   4.728   1.494  0.2222 -0.0325  0.9018
 3416TIP3    H131807   4.695   4.716   1.578  0.6435  0.8005  0.8142
 3416TIP3    H231808   4.719   4.761   1.436  0.3743 -2.2862 -0.2857
 3417TIP3   OH231809   3.532   4.923   8.554  0.0937 -0.2527  0.2306
 3417TIP3    H131810   3.574   4.837   8.555  0.1093 -0.2514 -0.0665
 3417TIP3    H231811   3.444   4.908   8.589 -0.7058 -0.8289 -1.8608
 3418TIP3   OH231812   6.824   4.592   0.352 -0.5214  0.3347 -0.1559
 3418TIP3    H131813   6.813   4.597   0.257  0.7759  1.7791 -0.2765
 3418TIP3    H231814   6.782   4.671   0.385  1.2619  1.1997  0.1859
 3419TIP3   OH231815   6.198   1.726   2.623  0.4354 -0.0131 -0.1955
 3419TIP3    H131816   6.124   1.779   2.654  0.7490  0.5669 -0.4065
 3419TIP3    H231817   6.194   1.647   2.676  1.1063  1.0468  1.5467
 3420TIP3   OH231818   6.453   1.667   0.334  0.1550  0.3524 -0.2377
 3420TIP3    H131819   6.475   1.759   0.348  1.5238  0.1956 -1.1281
 3420TIP3    H231820   6.358   1.667   0.318  0.3992  1.8728 -2.0419
 3421TIP3   OH231821   3.112   2.804   0.959  0.3099  0.5965  0.0770
 3421TIP3    H131822   3.113   2.853   1.042  2.5006  0.3468  0.2479
 3421TIP3    H231823   3.172   2.852   0.902 -0.0145 -0.0830 -0.8594
 3422TIP3   OH231824   0.763   1.104   1.615 -0.0750  0.1159  0.2945
 3422TIP3    H131825   0.702   1.038   1.646  0.2569 -0.5728 -0.5031
 3422TIP3    H231826   0.714   1.154   1.549  0.1856 -0.3742 -0.2745
 3423TIP3   OH231827   0.269   1.470   0.643  0.1630 -0.0856 -0.7914
 3423TIP3    H131828   0.292   1.379   0.661  1.7536  0.1632 -1.3478
 3423TIP3    H231829   0.185   1.483   0.686 -0.7065 -2.1609 -1.7301
 3424TIP3   OH231830   5.384   1.902   1.090  0.4708 -0.1551 -0.0421
 3424TIP3    H131831   5.416   1.914   1.179 -0.7034  2.2284  0.1187
 3424TIP3    H231832   5.307   1.958   1.084 -0.5852 -1.6765 -2.0152
 3425TIP3   OH231833   4.014   2.001   7.029  0.2102  0.2982  0.0030
 3425TIP3    H131834   4.087   2.060   7.015  1.7719 -2.0734 -3.0607
 3425TIP3    H231835   4.049   1.932   7.086  0.3786 -0.7753 -1.3630
 3426TIP3   OH231836   6.282   3.335   1.592 -0.5103 -0.0419 -0.8541
 3426TIP3    H131837   6.375   3.313   1.587  0.0065  1.9591 -0.9034
 3426TIP3    H231838   6.236   3.254   1.568  1.1199 -1.7818  1.4575
 3427TIP3   OH231839   5.689   3.439   7.111 -0.6157  0.1514 -0.0999
 3427TIP3    H131840   5.597   3.450   7.089 -0.6823  0.6811  0.4217
 3427TIP3    H231841   5.723   3.381   7.043 -0.7085  2.0033 -1.8269
 3428TIP3   OH231842   1.144   1.574   1.283  0.0522 -0.0818  0.3699
 3428TIP3    H131843   1.132   1.656   1.330 -0.0889 -0.3721  0.8550
 3428TIP3    H231844   1.067   1.521   1.307  1.3645 -1.3233  2.1573
 3429TIP3   OH231845   2.807   6.016   1.533  0.0514 -0.1983  0.4034
 3429TIP3    H131846   2.758   5.937   1.555 -0.0761  0.3153  2.0943
 3429TIP3    H231847   2.824   6.058   1.617 -0.9005  2.1771 -0.5113
 3430TIP3   OH231848   0.842   5.271   1.052  0.0108  0.6300 -0.1810
 3430TIP3    H131849   0.808   5.242   0.967 -0.5554  0.3847  0.1185
 3430TIP3    H231850   0.884   5.194   1.088  0.6935  0.8703 -0.4471
 3431TIP3   OH231851   3.477   4.587   8.109 -0.3998 -0.7597  0.1120
 3431TIP3    H131852   3.517   4.536   8.039  1.1521 -0.7175  0.9319
 3431TIP3    H231853   3.551   4.622   8.159 -1.4505 -0.9894  1.9205
 3432TIP3   OH231854   0.925   0.102   1.691 -0.3002  0.2465  0.0676
 3432TIP3    H131855   0.891   0.136   1.774 -1.3363  0.7205 -0.5337
 3432TIP3    H231856   0.962   0.017   1.714 -0.1785  0.5569  1.0918
 3433TIP3   OH231857   2.992   0.155   8.257  0.1909 -0.9415  0.1994
 3433TIP3    H131858   2.897   0.156   8.273 -0.0576  2.1969 -0.8273
 3433TIP3    H231859   3.030   0.177   8.342 -0.2168  0.4350  0.0579
 3434TIP3   OH231860   5.739   4.535   2.426  0.1363 -0.4552  0.0241
 3434TIP3    H131861   5.763   4.458   2.477  1.9505  0.9604  1.4409
 3434TIP3    H231862   5.650   4.556   2.453  0.0687 -1.3561  0.5161
 3435TIP3   OH231863   0.664   2.270   7.575 -0.0941 -0.0280  0.5251
 3435TIP3    H131864   0.670   2.314   7.660 -1.5426  0.7830  0.2455
 3435TIP3    H231865   0.577   2.230   7.574  0.3095 -0.9428 -0.1672
 3436TIP3   OH231866   1.107   4.128   1.484  0.4890  0.1032  0.1536
 3436TIP3    H131867   1.080   4.166   1.568  2.3066  1.2090  0.2810
 3436TIP3    H231868   1.121   4.204   1.427  0.9768 -0.5603 -0.6269
 3437TIP3   OH231869   6.355   6.069   7.671 -0.4089 -0.3214 -0.1033
 3437TIP3    H131870   6.361   6.113   7.586 -0.9476 -2.6314 -1.4340
 3437TIP3    H231871   6.446   6.060   7.699 -0.0429 -1.4415 -1.5356
 3438TIP3   OH231872   1.952   6.793   1.127 -0.4375 -0.2477  0.0506
 3438TIP3    H131873   2.045   6.774   1.137 -0.2320 -0.2222 -1.5535
 3438TIP3    H231874   1.934   6.860   1.193  1.1355  1.1097 -0.8169
 3439TIP3   OH231875   5.363   6.223   1.197 -0.4216 -0.4162  0.5661
 3439TIP3    H131876   5.411   6.209   1.279  0.6590 -0.3862 -0.0522
 3439TIP3    H231877   5.399   6.304   1.161 -0.2817 -0.8827 -0.3673
 3440TIP3   OH231878   2.321   3.614   1.662  0.0645  0.7650  0.3862
 3440TIP3    H131879   2.249   3.662   1.702 -0.1948  1.6757 -1.1051
 3440TIP3    H231880   2.342   3.664   1.583  0.2555 -1.1785 -0.8546
 3441TIP3   OH231881   4.268   0.398   8.492  0.2391 -0.0096  0.4952
 3441TIP3    H131882   4.223   0.440   8.565  0.4008  1.6778 -0.3252
 3441TIP3    H231883   4.353   0.442   8.489  0.6532 -0.8323 -0.0365
 3442TIP3   OH231884   1.575   1.873   0.126 -0.3733 -0.1516  0.6035
 3442TIP3    H131885   1.613   1.868   0.214 -0.8112 -0.4114  0.7810
 3442TIP3    H231886   1.644   1.840   0.068  0.5304  1.5573  0.6573
 3443TIP3   OH231887   5.364   1.151   0.037  0.3194 -0.7954 -0.1348
 3443TIP3    H131888   5.341   1.187   0.123 -1.2313 -0.8468 -0.4972
 3443TIP3    H231889   5.425   1.215   0.000  0.2485 -0.2802  0.6175
 3444TIP3   OH231890   0.233   3.955   2.690  0.6947  0.9788 -0.1487
 3444TIP3    H131891   0.143   3.954   2.658  0.0354 -1.4726  1.5794
 3444TIP3    H231892   0.271   3.873   2.658  1.6852  1.0437  0.8117
 3445TIP3   OH231893   3.777   1.281   1.639 -0.2154  0.1438  0.2640
 3445TIP3    H131894   3.738   1.320   1.717 -0.4814 -0.1312  0.2706
 3445TIP3    H231895   3.848   1.226   1.673 -0.0737  0.3370  0.2816
 3446TIP3   OH231896   1.881   6.304   0.368 -0.0258 -0.2327 -0.2335
 3446TIP3    H131897   1.901   6.286   0.276 -0.5368  1.0889 -0.6268
 3446TIP3    H231898   1.835   6.388   0.366  0.5638  0.1475  1.3028
 3447TIP3   OH231899   1.394   4.458   8.124 -0.0028  0.1438  0.2728
 3447TIP3    H131900   1.384   4.406   8.044  0.7410 -1.1846  1.0043
 3447TIP3    H231901   1.420   4.395   8.191  0.3664  1.3812  1.3507
 3448TIP3   OH231902   2.379   0.033   0.224 -0.0238  0.4653 -0.4733
 3448TIP3    H131903   2.384   0.109   0.165 -1.0543  0.5574 -0.4579
 3448TIP3    H231904   2.312  -0.023   0.184 -1.1722  0.8065  0.9081
 3449TIP3   OH231905   0.492   6.485   7.808 -0.6015  0.7997 -0.1978
 3449TIP3    H131906   0.465   6.395   7.827  0.7911  0.3471 -0.2378
 3449TIP3    H231907   0.564   6.476   7.746  1.7018  1.7520  2.1484
 3450TIP3   OH231908   2.815   2.222   0.274 -0.4711  0.2284  0.1947
 3450TIP3    H131909   2.866   2.223   0.193 -0.0142  1.4562  0.4828
 3450TIP3    H231910   2.799   2.314   0.294 -0.7201 -0.0625  1.4226
 3451TIP3   OH231911   4.267   5.648   7.629  0.0384 -0.0669  0.0973
 3451TIP3    H131912   4.349   5.670   7.674  0.1399 -0.7722  0.2642
 3451TIP3    H231913   4.295   5.612   7.545 -0.0058 -2.1446  0.9266
 3452TIP3   OH231914   1.379   1.627   1.887  0.1324 -0.0772  0.1319
 3452TIP3    H131915   1.371   1.535   1.861  1.0315 -0.9467  2.6152
 3452TIP3    H231916   1.297   1.645   1.934 -0.3933  0.6846 -1.0314
 3453TIP3   OH231917   6.458   5.464   8.583  0.5718  0.0633 -0.1503
 3453TIP3    H131918   6.516   5.501   8.649  0.8525  0.4561 -0.6170
 3453TIP3    H231919   6.420   5.539   8.539  0.8332 -0.1932 -0.8283
 3454TIP3   OH231920   4.763   4.142   1.312  0.1561  0.1453 -0.2716
 3454TIP3    H131921   4.789   4.228   1.279  0.4061  0.1071 -0.1755
 3454TIP3    H231922   4.814   4.130   1.393 -1.8576  1.0774  1.2263
 3455TIP3   OH231923   3.367   5.010   7.438  0.3495 -0.6131 -0.3593
 3455TIP3    H131924   3.288   4.976   7.478 -0.7244 -0.6785 -2.4234
 3455TIP3    H231925   3.425   5.029   7.512 -1.0237 -1.8958  1.1133
 3456TIP3   OH231926   5.934   1.609   0.320  0.6042  0.0814  0.4347
 3456TIP3    H131927   5.908   1.627   0.410  3.5811 -2.6322  2.0495
 3456TIP3    H231928   5.874   1.540   0.290 -0.9893  1.6315 -0.1190
 3457TIP3   OH231929   0.272   3.080   1.960  0.1884  0.4417 -0.2455
 3457TIP3    H131930   0.324   3.014   2.005 -2.2496 -1.3912  0.0554
 3457TIP3    H231931   0.281   3.059   1.867  0.0833  0.2293 -0.2063
 3458TIP3   OH231932   6.162   0.185   2.384 -0.2884  0.0657 -0.0036
 3458TIP3    H131933   6.196   0.175   2.473  1.6679  1.0991 -0.5750
 3458TIP3    H231934   6.083   0.238   2.395 -0.0914  0.1565  1.1216
 3459TIP3   OH231935   1.856   1.279   1.749  0.0547 -0.1020 -0.2243
 3459TIP3    H131936   1.798   1.249   1.820  0.0354  0.3820 -0.0286
 3459TIP3    H231937   1.937   1.304   1.794  0.6099 -1.2687 -0.5558
 3460TIP3   OH231938   4.264   2.646   2.095 -0.2262  0.6024  0.5549
 3460TIP3    H131939   4.186   2.684   2.053 -0.8752 -1.6431 -0.4356
 3460TIP3    H231940   4.233   2.616   2.180 -0.1513  0.6830  0.6114
 3461TIP3   OH231941   5.679   3.610   0.843  0.0800 -0.0604 -0.2237
 3461TIP3    H131942   5.591   3.644   0.826 -0.7462 -2.3971 -0.9925
 3461TIP3    H231943   5.705   3.651   0.925 -1.6902  0.7295 -0.0064
 3462TIP3   OH231944   6.607   5.648   8.199 -0.3574  0.0031  0.4753
 3462TIP3    H131945   6.538   5.592   8.163 -0.3102 -0.2779  0.8163
 3462TIP3    H231946   6.677   5.587   8.223 -0.2951  0.2106  0.8277
 3463TIP3   OH231947   5.004   2.214   2.032  0.0095  0.3077  0.9983
 3463TIP3    H131948   5.036   2.160   2.105  0.0664  1.9611  2.2563
 3463TIP3    H231949   5.081   2.233   1.980  0.1174 -0.1881  0.9722
 3464TIP3   OH231950   0.064   4.707   1.210 -0.1505  0.1933 -0.0068
 3464TIP3    H131951  -0.022   4.741   1.185  1.0310  2.6485 -1.0450
 3464TIP3    H231952   0.058   4.696   1.305 -2.2675 -1.9244 -0.2763
 3465TIP3   OH231953   3.836   6.811   1.902 -0.2703  0.3495 -0.2208
 3465TIP3    H131954   3.852   6.720   1.928 -1.5977 -0.7058 -2.7663
 3465TIP3    H231955   3.802   6.853   1.981  2.5392 -0.6580  1.6829
 3466TIP3   OH231956   1.387   3.730   1.495  0.2901  0.0398  0.2879
 3466TIP3    H131957   1.459   3.789   1.520  0.6933  0.4330 -1.6514
 3466TIP3    H231958   1.386   3.663   1.564  0.3042  1.8610  2.1722
 3467TIP3   OH231959   0.853   6.832   8.391 -0.2841  0.1394  0.3030
 3467TIP3    H131960   0.836   6.738   8.395  0.0754  0.0735  0.3361
 3467TIP3    H231961   0.766   6.872   8.380 -0.2466 -0.3501 -2.5807
 3468TIP3   OH231962   1.377   2.446   0.887  0.0505 -0.6914 -0.0782
 3468TIP3    H131963   1.282   2.429   0.885 -0.0229 -0.2745 -0.4262
 3468TIP3    H231964   1.399   2.468   0.797 -0.1732  2.5428  0.5194
 3469TIP3   OH231965   5.005   0.823   0.009  0.1427  0.0594 -0.3842
 3469TIP3    H131966   5.029   0.770   0.085 -1.1656  1.4397  1.0695
 3469TIP3    H231967   5.077   0.885  -0.001  0.3471 -0.1648 -0.3071
 3470TIP3   OH231968   1.373   4.246   7.037 -0.2011  0.4090 -0.2084
 3470TIP3    H131969   1.284   4.247   7.073 -0.0277  1.9023  0.2387
 3470TIP3    H231970   1.394   4.153   7.029 -1.6783  0.0280 -0.0276
 3471TIP3   OH231971   2.905   5.946   2.252  0.0660 -0.5073 -0.2478
 3471TIP3    H131972   2.934   5.981   2.167  0.1747 -0.7026 -0.2909
 3471TIP3    H231973   2.931   6.013   2.315 -1.1530  0.2522 -0.5028
 3472TIP3   OH231974   6.156   5.028   0.240  0.0634 -0.0467 -0.2225
 3472TIP3    H131975   6.195   5.036   0.153  3.2485  0.5220  1.1205
 3472TIP3    H231976   6.101   4.950   0.235 -0.8145  0.6526 -3.0396
 3473TIP3   OH231977   6.544   2.514   0.143  0.5365 -0.9499 -0.8985
 3473TIP3    H131978   6.565   2.489   0.053  0.9255 -0.0654 -1.0623
 3473TIP3    H231979   6.594   2.594   0.158 -0.2997 -0.5332 -0.2285
 3474TIP3   OH231980   6.488   4.602   7.015  0.1945  0.1601  0.4450
 3474TIP3    H131981   6.564   4.569   7.064 -0.7275 -0.5309  1.4590
 3474TIP3    H231982   6.513   4.691   6.990  2.1585 -0.7588 -1.1055
 3475TIP3   OH231983   1.828   1.927   7.344 -0.3882 -0.4431  0.6511
 3475TIP3    H131984   1.749   1.977   7.366  0.5672  0.2722  2.7504
 3475TIP3    H231985   1.892   1.994   7.318  0.0715 -0.8305  0.7661
 3476TIP3   OH231986   1.994   6.246   8.162 -0.1491 -0.0448  0.1915
 3476TIP3    H131987   2.074   6.213   8.122 -0.2213 -0.4745  0.3945
 3476TIP3    H231988   1.940   6.168   8.175  0.1719 -0.0283  1.8043
 3477TIP3   OH231989   0.099   4.986   0.358  0.2580 -0.3616 -0.7165
 3477TIP3    H131990   0.029   4.931   0.322 -1.7284  1.1984  0.5709
 3477TIP3    H231991   0.062   5.074   0.360  1.9107  0.3494  0.9050
 3478TIP3   OH231992   4.513   5.655   1.817 -0.5736 -0.0493 -0.1639
 3478TIP3    H131993   4.530   5.711   1.741  0.2742 -1.0272 -0.7133
 3478TIP3    H231994   4.418   5.660   1.830 -0.3977  2.6109  0.6765
 3479TIP3   OH231995   5.427   0.089   7.765 -0.3048  0.3192  0.0462
 3479TIP3    H131996   5.416   0.084   7.860  1.7432 -0.4784  0.2860
 3479TIP3    H231997   5.366   0.158   7.738 -1.5921 -0.0562  1.8004
 3480TIP3   OH231998   2.371   5.549   1.617 -0.4949  0.0446 -0.0864
 3480TIP3    H131999   2.307   5.478   1.622 -0.7649  0.3409  1.0055
 3480TIP3    H232000   2.456   5.505   1.625 -0.7145 -0.0331  3.2071
 3481TIP3   OH232001   0.292   4.642   1.993 -0.1153 -0.0680 -0.1762
 3481TIP3    H132002   0.219   4.699   1.969  0.4220  1.3073  1.2525
 3481TIP3    H232003   0.303   4.656   2.087  0.6558 -1.8557  0.0313
 3482TIP3   OH232004   1.209   1.130   1.821 -0.1701 -0.2226 -0.0583
 3482TIP3    H132005   1.128   1.171   1.794 -0.1704 -0.5383 -0.5611
 3482TIP3    H232006   1.207   1.131   1.917  0.0042  1.2675 -0.0581
 3483TIP3   OH232007   3.399   4.008   7.170  0.2880 -0.1853 -0.7136
 3483TIP3    H132008   3.406   3.942   7.101 -0.6558  0.1240 -1.1269
 3483TIP3    H232009   3.305   4.022   7.180  0.3066 -1.2983  1.6950
 3484TIP3   OH232010   5.960   2.535   1.416  0.3460 -0.2184  0.5110
 3484TIP3    H132011   5.935   2.489   1.336 -1.6140  1.7154 -0.0892
 3484TIP3    H232012   5.910   2.492   1.485  2.2732 -2.0939  0.8594
 3485TIP3   OH232013   3.871   0.187   2.671  0.6043  0.2746  0.5780
 3485TIP3    H132014   3.912   0.110   2.631  1.8224  0.3277  1.6620
 3485TIP3    H232015   3.794   0.152   2.716  0.9117 -0.2508  0.7110
 3486TIP3   OH232016   0.162   4.024   1.501  0.0728 -0.2103 -0.0602
 3486TIP3    H132017   0.218   4.099   1.522 -0.0822  0.5799 -2.2376
 3486TIP3    H232018   0.209   3.977   1.432 -0.9697 -0.7477 -0.4279
 3487TIP3   OH232019   6.341   0.734   1.567  0.0519 -0.1067 -0.4625
 3487TIP3    H132020   6.313   0.644   1.581 -1.7663  0.5581  0.5514
 3487TIP3    H232021   6.404   0.729   1.495 -0.3349 -2.1191 -0.7187
 3488TIP3   OH232022   4.590   4.324   0.001 -0.4146  0.5075  0.6488
 3488TIP3    H132023   4.593   4.419  -0.005 -0.5367  0.5197  0.7996
 3488TIP3    H232024   4.682   4.297   0.004 -0.3074  0.5168 -1.0987
 3489TIP3   OH232025   2.143   6.488   2.441  0.0411  0.5633 -0.1334
 3489TIP3    H132026   2.147   6.411   2.498  0.6760  1.4811  1.1177
 3489TIP3    H232027   2.052   6.517   2.447  0.3747  1.4054  1.5161
 3490TIP3   OH232028   0.984   2.813   8.440  0.7161 -1.1363  0.4112
 3490TIP3    H132029   0.937   2.826   8.522 -0.4874 -1.6120 -0.1661
 3490TIP3    H232030   0.967   2.893   8.389 -0.1528 -1.6307 -0.1022
 3491TIP3   OH232031   5.211   1.333   0.952 -0.1630 -0.7383  0.2212
 3491TIP3    H132032   5.232   1.256   0.899 -0.7494 -0.0331 -1.0703
 3491TIP3    H232033   5.296   1.364   0.983  0.0380 -2.2493  1.2871
 3492TIP3   OH232034   6.303   2.361   0.076  0.5108 -0.3619  0.2182
 3492TIP3    H132035   6.271   2.413   0.002  0.9329  0.3188  0.5045
 3492TIP3    H232036   6.387   2.400   0.098  0.0553 -0.0728  1.5368
 3493TIP3   OH232037   4.771   0.079   1.736 -0.0098 -1.0165 -0.2695
 3493TIP3    H132038   4.681   0.045   1.740  0.2608 -1.6541  0.4712
 3493TIP3    H232039   4.801   0.078   1.827 -0.0041  1.2745 -0.1930
 3494TIP3   OH232040   2.727   4.460   7.411  0.2704  0.2674  0.1418
 3494TIP3    H132041   2.640   4.421   7.405 -0.0159  0.9795 -0.4693
 3494TIP3    H232042   2.768   4.442   7.327 -0.3755  2.4106 -0.7033
 3495TIP3   OH232043   1.968   5.054   2.368  0.6774  0.5477 -0.2876
 3495TIP3    H132044   2.029   5.122   2.340 -0.7590  1.6334 -0.8702
 3495TIP3    H232045   1.931   5.088   2.449  1.2107 -0.3548  0.3500
 3496TIP3   OH232046   1.331   6.686   8.452  0.1019  0.5022 -0.0791
 3496TIP3    H132047   1.305   6.597   8.476  1.0515 -0.4101 -2.1604
 3496TIP3    H232048   1.248   6.734   8.447 -0.3348  0.0898  2.2237
 3497TIP3   OH232049   1.681   2.275   8.464  0.4294  0.0015  0.4697
 3497TIP3    H132050   1.673   2.369   8.451  2.2422  0.2586  0.9552
 3497TIP3    H232051   1.701   2.241   8.377 -2.4967 -0.2969 -0.1862
 3498TIP3   OH232052   6.874   3.517   2.055  0.2088 -0.4886 -0.0598
 3498TIP3    H132053   6.938   3.453   2.024 -0.1271 -0.9918  0.2643
 3498TIP3    H232054   6.833   3.475   2.131  0.0422  0.1466  0.2119
 3499TIP3   OH232055   1.631   4.532   6.544 -0.1048  0.8215  0.1889
 3499TIP3    H132056   1.576   4.474   6.492 -1.8995  1.5410  1.1734
 3499TIP3    H232057   1.721   4.511   6.518 -0.8420 -0.2729 -1.6243
 3500TIP3   OH232058   4.482   3.957   2.533 -0.8290  0.0141  0.6205
 3500TIP3    H132059   4.482   3.985   2.625 -0.9810 -0.0398  0.6363
 3500TIP3    H232060   4.508   4.036   2.485  1.3892 -0.5034  0.8754
 3501TIP3   OH232061   5.399   4.926   0.785  0.3040 -0.4411 -0.0825
 3501TIP3    H132062   5.403   4.920   0.689  0.0503 -1.0049 -0.0653
 3501TIP3    H232063   5.478   4.974   0.809  0.0267  0.3067 -0.6168
 3502TIP3   OH232064   3.785   6.121   2.089  0.1796  0.3530 -0.0392
 3502TIP3    H132065   3.861   6.176   2.108 -0.0422  0.4732  0.5391
 3502TIP3    H232066   3.752   6.095   2.175  0.6175 -1.1610 -0.3029
 3503TIP3   OH232067   1.392   5.882   2.322  0.3035 -0.3664 -0.0239
 3503TIP3    H132068   1.451   5.850   2.254  0.2099  0.3015 -0.4315
 3503TIP3    H232069   1.323   5.928   2.274  0.7838  1.0162  0.5509
 3504TIP3   OH232070   4.573   6.387   0.444 -0.1372 -0.3832  0.3079
 3504TIP3    H132071   4.603   6.322   0.380  0.4081  0.5764 -0.4354
 3504TIP3    H232072   4.501   6.344   0.490 -0.4499 -1.1469 -0.8663
 3505TIP3   OH232073   1.405   6.188   8.642 -0.1779 -0.0852  0.2228
 3505TIP3    H132074   1.321   6.158   8.678 -1.2447  0.3470 -1.7817
 3505TIP3    H232075   1.464   6.114   8.656 -1.4477 -1.2232 -0.1995
 3506TIP3   OH232076   0.618   0.062   8.330  0.3745 -0.2432 -0.0111
 3506TIP3    H132077   0.546   0.002   8.309 -0.1181 -0.0035  0.9627
 3506TIP3    H232078   0.576   0.147   8.338  0.5959 -0.2641  1.5559
 3507TIP3   OH232079   4.131   4.308   2.224 -0.6138 -0.1002 -0.0707
 3507TIP3    H132080   4.137   4.317   2.129  1.0855  0.7295  0.0787
 3507TIP3    H232081   4.161   4.392   2.259 -2.0899 -0.0481  1.2221
 3508TIP3   OH232082   3.784   5.181   2.460 -0.1535 -0.1445 -0.1329
 3508TIP3    H132083   3.759   5.255   2.405 -2.8736 -1.3653 -0.7279
 3508TIP3    H232084   3.770   5.211   2.550 -1.0773  0.1395 -0.3641
 3509TIP3   OH232085   2.769   3.527   7.571  0.5462 -0.3476 -0.0412
 3509TIP3    H132086   2.812   3.442   7.572  0.1975 -0.5556 -1.2773
 3509TIP3    H232087   2.762   3.550   7.478  0.5595  0.9958  0.2652
 3510TIP3   OH232088   3.339   4.441   1.317 -0.0747 -0.1434 -0.2372
 3510TIP3    H132089   3.291   4.399   1.246 -0.5190 -0.4485  0.2379
 3510TIP3    H232090   3.333   4.380   1.390  0.7935 -0.0562 -0.0773
 3511TIP3   OH232091   4.361   6.085   8.597 -0.3126  0.7790  0.5023
 3511TIP3    H132092   4.334   5.993   8.600  0.0751  0.5536 -1.6456
 3511TIP3    H232093   4.285   6.132   8.564  0.1298  0.9378 -0.3054
 3512TIP3   OH232094   5.801   6.508   8.472  0.2595  0.0048 -0.5582
 3512TIP3    H132095   5.878   6.452   8.462  0.0059 -0.3815 -0.3659
 3512TIP3    H232096   5.761   6.510   8.385  1.4814  1.6899 -1.1338
 3513TIP3   OH232097   4.110   3.509   2.552 -0.1390 -0.0492 -0.1028
 3513TIP3    H132098   4.169   3.452   2.503 -0.6175 -1.6601  1.0932
 3513TIP3    H232099   4.092   3.460   2.633 -2.6447  0.6207 -0.1753
 3514TIP3   OH232100   6.123   0.185   7.440 -0.1308  0.3034 -0.2050
 3514TIP3    H132101   6.092   0.148   7.523 -0.5422 -0.2618 -0.6023
 3514TIP3    H232102   6.134   0.279   7.458 -1.9810  0.5168 -0.0074
 3515TIP3   OH232103   3.899   2.584   2.117 -0.1748 -0.4852 -0.1346
 3515TIP3    H132104   3.961   2.538   2.174 -0.3376 -0.9321 -0.3168
 3515TIP3    H232105   3.946   2.664   2.091  0.3591 -0.8552 -0.3295
 3516TIP3   OH232106   0.909   6.345   8.617  0.9247 -0.3401 -0.1733
 3516TIP3    H132107   0.870   6.299   8.692 -0.1329  0.8416  0.0520
 3516TIP3    H232108   0.930   6.277   8.554 -4.0567 -1.0433 -1.5222
 3517TIP3   OH232109   5.579   5.897   7.331 -0.0512 -0.1650 -0.4012
 3517TIP3    H132110   5.580   5.802   7.321 -0.9853 -0.1602 -0.6308
 3517TIP3    H232111   5.511   5.927   7.271  0.0557  0.6251 -0.1409
 3518TIP3   OH232112   6.255   6.212   8.226  0.2805 -0.0840  0.1015
 3518TIP3    H132113   6.287   6.202   8.137  2.3733  0.5169  0.7262
 3518TIP3    H232114   6.259   6.306   8.243  1.4930 -0.3029  1.3065
 3519TIP3   OH232115   4.273   5.000   0.705  0.3413  0.5996  0.2403
 3519TIP3    H132116   4.279   4.926   0.644 -0.5143  0.4676  0.3045
 3519TIP3    H232117   4.312   5.073   0.657 -0.5732  0.5617 -0.5804
 3520TIP3   OH232118   1.341   5.500   7.609  0.3853 -0.8539  0.2004
 3520TIP3    H132119   1.397   5.516   7.533 -0.2787  2.1007  0.2018
 3520TIP3    H232120   1.261   5.549   7.590  0.3714  0.3521  2.9287
 3521TIP3   OH232121   3.254   0.739   6.902  0.4558  0.5520 -0.1476
 3521TIP3    H132122   3.198   0.762   6.828 -0.1960 -0.5337 -0.0219
 3521TIP3    H232123   3.343   0.754   6.870  0.1612  0.5337 -1.0055
 3522TIP3   OH232124   5.218   4.235   1.039  0.2843 -0.5037 -0.7157
 3522TIP3    H132125   5.241   4.287   0.963 -0.8946  1.5528  0.2488
 3522TIP3    H232126   5.299   4.191   1.064  1.3679  0.9548 -1.5328
 3523TIP3   OH232127   4.231   4.570   2.398  0.3852 -0.0717 -0.0626
 3523TIP3    H132128   4.139   4.593   2.411  0.1401  1.3711 -3.3299
 3523TIP3    H232129   4.279   4.648   2.426  0.3712  0.2221 -0.8210
 3524TIP3   OH232130   1.084   1.444   7.644  0.6590  0.3745 -0.0103
 3524TIP3    H132131   1.033   1.475   7.569 -0.6096 -0.5370  0.4315
 3524TIP3    H232132   1.018   1.417   7.708  1.6794 -1.1793  0.4506
 3525TIP3   OH232133   5.811   3.029   0.467 -0.4901 -0.6998 -0.1385
 3525TIP3    H132134   5.840   3.119   0.478  0.1388 -0.9761  0.5270
 3525TIP3    H232135   5.736   3.020   0.526 -1.2710 -0.3034 -1.0406
 3526TIP3   OH232136   0.264   0.901   8.056 -0.7139 -0.1750 -0.2630
 3526TIP3    H132137   0.341   0.898   7.999  1.0022  1.4151  1.8018
 3526TIP3    H232138   0.247   0.809   8.078  1.4175 -0.5188  0.1858
 3527TIP3   OH232139   0.295   4.621   0.964  0.2545 -0.1796 -0.2334
 3527TIP3    H132140   0.358   4.572   1.016  0.7643 -0.0849 -0.7541
 3527TIP3    H232141   0.253   4.555   0.909  0.0426 -0.2112 -0.0371
 3528TIP3   OH232142   4.009   3.913   0.799  0.1222 -0.2920  0.4943
 3528TIP3    H132143   4.010   3.822   0.829 -0.6648 -0.0763  1.1924
 3528TIP3    H232144   4.097   3.945   0.816  0.8781 -1.3456 -1.1219
 3529TIP3   OH232145   6.783   4.364   1.078  0.4716 -0.6338  0.1983
 3529TIP3    H132146   6.749   4.286   1.035 -1.2600  1.0325 -1.6664
 3529TIP3    H232147   6.719   4.433   1.059  3.0893  1.8656 -0.3593
 3530TIP3   OH232148   5.316   0.549   8.146  0.3209  0.6820 -0.0998
 3530TIP3    H132149   5.327   0.525   8.239  2.4088  1.4409 -0.1044
 3530TIP3    H232150   5.320   0.644   8.146  0.8254  0.6645 -1.0209
 3531TIP3   OH232151   3.794   4.103   1.090  0.0560  0.1809  0.0104
 3531TIP3    H132152   3.875   4.120   1.139  0.1665  0.3032 -0.2138
 3531TIP3    H232153   3.771   4.188   1.052  1.5306 -0.4508 -2.5355
 3532TIP3   OH232154   5.843   2.963   2.325  0.8342  0.0041 -0.3593
 3532TIP3    H132155   5.802   3.011   2.397  0.5030  0.5085 -0.8784
 3532TIP3    H232156   5.884   2.888   2.367  0.1430 -0.0221  0.2834
 3533TIP3   OH232157   1.975   2.274   1.390  0.0629 -0.2486 -0.3638
 3533TIP3    H132158   1.979   2.198   1.332 -0.8776  0.6626 -1.7035
 3533TIP3    H232159   2.063   2.282   1.426  0.7200 -0.7675 -1.8020
 3534TIP3   OH232160   6.365   4.476   1.509 -1.1439 -0.2141  0.0877
 3534TIP3    H132161   6.429   4.537   1.547 -0.9934 -0.5248  0.3382
 3534TIP3    H232162   6.399   4.389   1.531 -0.9441 -0.4099 -0.9343
 3535TIP3   OH232163   0.937   4.202   1.710 -0.5119 -0.1843  0.6390
 3535TIP3    H132164   0.921   4.116   1.672 -0.3630 -1.2041  2.7282
 3535TIP3    H232165   0.850   4.237   1.728 -0.5619 -0.0579  0.1744
 3536TIP3   OH232166   1.084   6.423   2.300  0.0908  0.0225 -0.1054
 3536TIP3    H132167   1.102   6.472   2.381 -0.0950 -0.2147  0.0811
 3536TIP3    H232168   1.168   6.385   2.276 -0.1801 -1.2614  0.8805
 3537TIP3   OH232169   3.985   1.564   8.326 -0.6303  0.4866  0.1020
 3537TIP3    H132170   3.970   1.599   8.239 -2.6708 -0.4785  0.0149
 3537TIP3    H232171   3.927   1.488   8.333 -0.0390  0.1372  2.0613
 3538TIP3   OH232172   0.116   0.515   1.097 -0.0180  0.1629 -0.3563
 3538TIP3    H132173   0.076   0.429   1.085 -0.7833  0.5648 -0.7578
 3538TIP3    H232174   0.189   0.500   1.158  0.1776 -0.8529 -0.8262
 3539TIP3   OH232175   5.191   2.098   7.963 -0.2567  0.0941 -0.5684
 3539TIP3    H132176   5.227   2.048   8.036  0.2140  1.4705  0.1650
 3539TIP3    H232177   5.137   2.165   8.004  2.0244  2.5130 -1.2802
 3540TIP3   OH232178   0.709   0.502   7.964 -0.0840 -0.1996 -0.1512
 3540TIP3    H132179   0.713   0.564   8.037  0.4808 -0.6205  0.1851
 3540TIP3    H232180   0.653   0.431   7.997 -0.6479  0.0786 -0.4976
 3541TIP3   OH232181   5.249   5.278   7.551  0.1522  0.6063 -0.3905
 3541TIP3    H132182   5.337   5.246   7.568  1.2665  3.4487 -0.3203
 3541TIP3    H232183   5.225   5.327   7.629 -1.2650  0.3905 -0.6578
 3542TIP3   OH232184   6.047   0.870   0.452  0.5662 -0.2126 -1.1686
 3542TIP3    H132185   6.093   0.869   0.368  0.0398 -0.6903 -1.4546
 3542TIP3    H232186   5.969   0.923   0.437  1.7828  1.9924 -0.2460
 3543TIP3   OH232187   0.870   5.170   1.941  0.1709 -0.0907 -0.3137
 3543TIP3    H132188   0.809   5.112   1.986 -0.8564  1.2699  0.1075
 3543TIP3    H232189   0.938   5.188   2.006 -0.7062  0.9505  0.3630
 3544TIP3   OH232190   6.108   3.317   7.673  0.0266 -0.4468  0.2051
 3544TIP3    H132191   6.061   3.380   7.618 -0.3279 -0.3660  0.5964
 3544TIP3    H232192   6.116   3.239   7.618  0.7870  0.0540 -0.4146
 3545TIP3   OH232193   6.024   4.532   7.100  0.6231 -0.2365  0.7070
 3545TIP3    H132194   6.060   4.619   7.083 -0.5367  0.1320  0.0412
 3545TIP3    H232195   6.009   4.495   7.014 -2.3803  0.4052  0.8427
 3546TIP3   OH232196   5.223   6.350   2.919 -0.3876 -0.4111 -0.1089
 3546TIP3    H132197   5.190   6.291   2.851 -0.4478 -1.0609  0.4654
 3546TIP3    H232198   5.206   6.438   2.885 -1.3543 -0.7219 -0.4871
 3547TIP3   OH232199   5.669   0.959   7.968 -0.2939 -0.1348  0.1566
 3547TIP3    H132200   5.623   0.970   7.885  0.2313 -0.1273 -0.1422
 3547TIP3    H232201   5.674   0.864   7.979  0.7782 -0.1734 -0.4891
 3548TIP3   OH232202   6.546   3.377   1.949 -0.6629 -0.2867  0.3889
 3548TIP3    H132203   6.606   3.391   2.022  0.1705 -1.5478 -0.0251
 3548TIP3    H232204   6.535   3.282   1.945  0.4287 -0.3825 -1.9739
 3549TIP3   OH232205   5.266   2.823   7.659  0.4173 -0.9694  0.1404
 3549TIP3    H132206   5.329   2.831   7.588 -0.0651  0.0728 -0.1920
 3549TIP3    H232207   5.280   2.735   7.694  1.2646 -1.1692 -0.6649
 3550TIP3   OH232208   2.889   4.872   0.914 -0.7316  0.1947 -0.2138
 3550TIP3    H132209   2.874   4.867   0.820 -3.1976  0.3329  0.0953
 3550TIP3    H232210   2.979   4.901   0.923  0.1403 -1.5513 -2.4947
 3551TIP3   OH232211   3.522   4.351   2.311  0.4003  0.0112  0.0500
 3551TIP3    H132212   3.428   4.337   2.310  0.4533 -0.5750  1.4887
 3551TIP3    H232213   3.555   4.299   2.238 -0.4431  0.7775 -0.8965
 3552TIP3   OH232214   4.398   5.257   0.625 -0.0426 -0.5510 -0.3182
 3552TIP3    H132215   4.434   5.319   0.687 -0.5794 -1.2039  0.6665
 3552TIP3    H232216   4.458   5.260   0.550  0.9222 -0.1652  0.4500
 3553TIP3   OH232217   4.463   0.516   1.062 -0.4305 -0.1025 -0.1370
 3553TIP3    H132218   4.553   0.484   1.050  0.2941  1.4929  0.6235
 3553TIP3    H232219   4.458   0.593   1.005 -1.6852 -0.7899 -0.9782
 3554TIP3   OH232220   3.027   1.231   1.796  0.1016  0.2333  0.4714
 3554TIP3    H132221   3.073   1.307   1.761 -0.0004 -0.3294 -0.9316
 3554TIP3    H232222   2.937   1.261   1.809  0.5282  0.9588  2.0035
 3555TIP3   OH232223   4.565   4.356   1.301 -0.2317 -0.1944  0.8723
 3555TIP3    H132224   4.513   4.360   1.381 -0.5926 -1.7075  0.7477
 3555TIP3    H232225   4.617   4.277   1.310  1.4134  0.8031  0.5832
 3556TIP3   OH232226   1.615   0.103   1.427 -0.2667  0.6325  0.0393
 3556TIP3    H132227   1.569   0.047   1.364  0.4839  0.7682 -0.6395
 3556TIP3    H232228   1.551   0.172   1.447 -0.4663  0.6766 -0.6966
 3557TIP3   OH232229   2.139   4.734   8.287 -0.3452  0.1335  0.2243
 3557TIP3    H132230   2.135   4.827   8.308  0.9843  0.3528 -0.4407
 3557TIP3    H232231   2.052   4.701   8.312 -1.3166  1.7869 -0.7855
 3558TIP3   OH232232   2.116   5.442   0.131 -0.0132 -0.6445  0.0580
 3558TIP3    H132233   2.124   5.360   0.180  1.7412 -0.3108  0.3958
 3558TIP3    H232234   2.123   5.511   0.197 -1.9999 -0.1603 -0.1511
 3559TIP3   OH232235   3.757   2.438   3.098  0.3030  0.7895 -0.0184
 3559TIP3    H132236   3.739   2.532   3.105  1.0341  0.8772  0.8285
 3559TIP3    H232237   3.686   2.405   3.044  0.1119  1.8537 -0.4561
 3560TIP3   OH232238   0.175   2.358   1.177  0.1966 -0.2105  0.1761
 3560TIP3    H132239   0.198   2.419   1.107  2.5781 -1.2241 -0.0247
 3560TIP3    H232240   0.098   2.396   1.218  1.1667  2.5442 -0.3876
 3561TIP3   OH232241   1.181   3.168   7.348 -0.2027  0.0520  0.1882
 3561TIP3    H132242   1.270   3.175   7.313 -0.5257  0.6432 -0.5383
 3561TIP3    H232243   1.137   3.246   7.316 -1.5901 -1.2492 -1.2567
 3562TIP3   OH232244   4.410   1.996   7.827 -0.1126  1.0236  0.2804
 3562TIP3    H132245   4.420   1.968   7.736  1.7061  0.3056  0.6516
 3562TIP3    H232246   4.436   1.920   7.879 -0.6414  1.5839  1.3926
 3563TIP3   OH232247   1.027   1.880   2.855  0.1073  0.3750 -0.3434
 3563TIP3    H132248   1.045   1.946   2.922 -0.5761  0.4261 -0.2033
 3563TIP3    H232249   1.088   1.809   2.874 -0.2420  0.2843  0.4808
 3564TIP3   OH232250   3.326   1.303   0.042  0.1722  0.6537 -0.3374
 3564TIP3    H132251   3.282   1.302  -0.042 -1.2815 -2.6982  0.3305
 3564TIP3    H232252   3.257   1.324   0.105  0.1322 -1.4171  0.3916
 3565TIP3   OH232253   0.471   4.709   8.542  0.3046 -0.3945  0.1949
 3565TIP3    H132254   0.540   4.760   8.499  0.5985  0.1999  1.3027
 3565TIP3    H232255   0.407   4.775   8.570 -0.3493 -0.8652 -0.1754
 3566TIP3   OH232256   2.777   5.169   0.275  0.0473  0.2305 -0.0503
 3566TIP3    H132257   2.787   5.082   0.236 -1.3882  0.2158 -0.4274
 3566TIP3    H232258   2.863   5.188   0.314  0.5121 -1.1488 -0.3603
 3567TIP3   OH232259   2.593   4.851   0.943 -0.1984 -0.5215  0.4684
 3567TIP3    H132260   2.524   4.912   0.969  0.4942  0.4445  0.1064
 3567TIP3    H232261   2.673   4.887   0.983 -0.0856 -2.4198  2.1351
 3568TIP3   OH232262   2.895   1.402   0.786  0.0283  0.6711 -0.5233
 3568TIP3    H132263   2.915   1.459   0.711  2.6971  0.6590  0.0793
 3568TIP3    H232264   2.851   1.327   0.747  1.3345  0.6652 -2.1214
 3569TIP3   OH232265   3.139   4.838   0.571 -0.1105 -0.4317 -0.1342
 3569TIP3    H132266   3.180   4.924   0.563  0.6821 -0.9191 -1.7726
 3569TIP3    H232267   3.161   4.809   0.659  1.7814 -0.0006 -0.4174
 3570TIP3   OH232268   1.065   2.964   2.573  0.0717  0.3833 -0.0358
 3570TIP3    H132269   1.090   2.873   2.553 -0.2725  0.3577 -0.3561
 3570TIP3    H232270   1.000   2.986   2.507 -0.2280  0.6921  0.3586
 3571TIP3   OH232271   2.604   4.138   0.316 -0.2591  0.1612 -0.2194
 3571TIP3    H132272   2.598   4.093   0.401  0.3350 -0.6074 -0.5644
 3571TIP3    H232273   2.543   4.211   0.323  0.3992  0.6213  1.1782
 3572TIP3   OH232274   1.120   5.164   2.080  0.1351  0.2512 -0.1812
 3572TIP3    H132275   1.177   5.138   2.153 -0.0212 -0.1805 -0.2093
 3572TIP3    H232276   1.142   5.255   2.064 -0.7491  0.7499  1.2498
 3573TIP3   OH232277   2.141   4.285   7.460 -0.5442  0.1013 -0.3188
 3573TIP3    H132278   2.182   4.263   7.376  0.0551  2.9051 -0.8619
 3573TIP3    H232279   2.048   4.269   7.446 -0.4764  0.6484 -1.6138
 3574TIP3   OH232280   3.050   5.420   6.956  0.1453  0.7152  0.7647
 3574TIP3    H132281   2.977   5.482   6.960 -1.9892 -1.6761  2.2368
 3574TIP3    H232282   3.076   5.418   6.864 -2.9956  0.2939 -0.2364
 3575TIP3   OH232283   5.937   3.605   2.652 -0.2013 -0.8533  0.6107
 3575TIP3    H132284   6.003   3.653   2.703  0.1672 -0.6096 -0.0781
 3575TIP3    H232285   5.987   3.563   2.582 -0.9730  0.8824 -1.0710
 3576TIP3   OH232286   4.730   4.062   7.758 -0.6076 -1.1293  0.1665
 3576TIP3    H132287   4.792   3.989   7.751 -0.6797 -1.2025  0.3049
 3576TIP3    H232288   4.733   4.089   7.850  1.9082  1.2089 -0.4535
 3577TIP3   OH232289   3.526   3.164   8.305  0.3061  0.1806 -0.2436
 3577TIP3    H132290   3.490   3.251   8.321  0.7304  0.4302 -0.6148
 3577TIP3    H232291   3.620   3.175   8.309  0.3699 -0.2217 -0.4807
 3578TIP3   OH232292   5.143   6.698   1.587 -0.3524  0.2880  0.4590
 3578TIP3    H132293   5.129   6.665   1.499  0.0106 -0.3325  0.6225
 3578TIP3    H232294   5.235   6.678   1.605 -0.6165 -0.2934  1.2514
 3579TIP3   OH232295   5.091   2.173   2.720 -0.3330  0.3693  0.6013
 3579TIP3    H132296   5.031   2.246   2.734 -0.1038  0.2369  2.6815
 3579TIP3    H232297   5.042   2.110   2.668 -1.7106  0.6455  1.5184
 3580TIP3   OH232298   6.629   2.636   1.374  0.5338  0.2820 -0.2466
 3580TIP3    H132299   6.577   2.670   1.447  0.8376  0.1533  0.0302
 3580TIP3    H232300   6.669   2.714   1.336 -0.3299  0.4575 -0.8376
 3581TIP3   OH232301   2.604   1.856   1.667  0.5095  0.0645  0.4080
 3581TIP3    H132302   2.589   1.823   1.755  1.0860 -0.6460  0.2532
 3581TIP3    H232303   2.699   1.868   1.662  0.4876  0.0567 -0.1220
 3582TIP3   OH232304   4.550   0.863   7.497  0.3271  0.0608 -0.2454
 3582TIP3    H132305   4.637   0.844   7.463  0.0893 -0.3341 -0.6445
 3582TIP3    H232306   4.541   0.958   7.488  0.8071  0.1349  0.0265
 3583TIP3   OH232307   1.330   3.042   6.836  0.2797  0.1948  0.0760
 3583TIP3    H132308   1.261   3.107   6.825  0.1045  0.0753  0.4492
 3583TIP3    H232309   1.348   3.042   6.930 -0.9949 -1.5683  0.3888
 3584TIP3   OH232310   6.644   5.903   7.234 -0.4322 -0.1392  0.1894
 3584TIP3    H132311   6.707   5.926   7.165  1.1101 -0.9254  1.2758
 3584TIP3    H232312   6.586   5.839   7.193 -0.2753  0.2686 -0.7092
 3585TIP3   OH232313   4.379   0.874   7.688 -0.7392  0.7860 -0.4324
 3585TIP3    H132314   4.453   0.866   7.628  0.0722  1.3934  0.4594
 3585TIP3    H232315   4.365   0.968   7.698 -1.6315  0.6787 -0.5761
 3586TIP3   OH232316   2.403   5.779   0.008 -0.4477  0.3444  0.4366
 3586TIP3    H132317   2.393   5.857  -0.047 -1.4854  0.8075  1.2513
 3586TIP3    H232318   2.328   5.781   0.067  0.9907  0.2687  2.3860
 3587TIP3   OH232319   2.990   4.285   2.202  0.2296 -0.2368 -0.2542
 3587TIP3    H132320   2.922   4.301   2.267  0.6956  0.1048  0.1564
 3587TIP3    H232321   3.008   4.191   2.209  0.4730 -0.1521  0.3103
 3588TIP3   OH232322   5.597   4.915   0.282  0.5017 -0.1982  0.1408
 3588TIP3    H132323   5.508   4.948   0.277  0.9167  0.7635 -3.4430
 3588TIP3    H232324   5.652   4.994   0.284  1.3310 -0.7188 -1.0624
 3589TIP3   OH232325   3.218   0.669   8.363  0.6479 -0.5481 -0.6439
 3589TIP3    H132326   3.164   0.711   8.296 -0.2335  0.4459  0.6405
 3589TIP3    H232327   3.226   0.578   8.334 -1.5806 -0.6820 -0.9761
 3590TIP3   OH232328   5.950   6.498   1.309 -0.2381  0.0172  0.6057
 3590TIP3    H132329   6.009   6.432   1.272 -1.3062 -0.2637 -0.6920
 3590TIP3    H232330   5.957   6.572   1.249 -1.7547 -0.3103 -0.0102
 3591TIP3   OH232331   1.903   5.570   0.602  0.0524 -0.1545 -0.2127
 3591TIP3    H132332   1.812   5.581   0.575 -1.0054 -2.7695  1.8658
 3591TIP3    H232333   1.907   5.610   0.689  0.8171 -0.3495 -0.1453
 3592TIP3   OH232334   1.695   0.588   1.069 -0.1637 -0.5157  0.2290
 3592TIP3    H132335   1.709   0.550   0.983 -2.8519 -0.3844 -0.3633
 3592TIP3    H232336   1.642   0.666   1.053 -0.1474 -0.1016  1.9466
 3593TIP3   OH232337   6.546   3.025   1.564  0.4273  0.0879 -0.3502
 3593TIP3    H132338   6.559   3.041   1.471  0.5402  0.2038 -0.3143
 3593TIP3    H232339   6.635   3.016   1.600  0.3762 -0.8380 -0.4081
 3594TIP3   OH232340   0.607   4.588   1.849 -0.1774 -0.4875 -0.6527
 3594TIP3    H132341   0.678   4.632   1.894 -1.0654 -0.2804  0.6036
 3594TIP3    H232342   0.554   4.549   1.919 -1.6840 -0.0418 -1.4846
 3595TIP3   OH232343   1.502   4.498   0.473  0.3079  0.2086  0.3497
 3595TIP3    H132344   1.554   4.420   0.490 -0.8790 -0.3130  1.8614
 3595TIP3    H232345   1.486   4.497   0.378  0.3798 -1.3400  0.3329
 3596TIP3   OH232346   3.289   3.024   7.801  0.1102 -0.0468  0.8131
 3596TIP3    H132347   3.350   2.955   7.775 -2.5405 -2.7663  1.2542
 3596TIP3    H232348   3.285   3.017   7.897 -1.5145 -0.6009  0.7411
 3597TIP3   OH232349   2.103   6.638   0.400  0.0754  0.2181 -0.7947
 3597TIP3    H132350   2.185   6.597   0.426 -1.0102 -0.4830  1.8857
 3597TIP3    H232351   2.110   6.728   0.431 -0.1267  0.1830 -0.6444
 3598TIP3   OH232352   1.370   0.001   0.915 -0.5465 -0.1166  0.0110
 3598TIP3    H132353   1.363   0.095   0.931  2.9950  0.0500  1.7725
 3598TIP3    H232354   1.405  -0.034   0.998  1.0794 -2.4464 -1.5450
 3599TIP3   OH232355   3.904   3.161   1.700 -0.0379  0.0836  0.2557
 3599TIP3    H132356   3.946   3.130   1.620  2.5823  1.5609  0.9665
 3599TIP3    H232357   3.927   3.253   1.705  0.3498 -0.1006  3.0099
 3600TIP3   OH232358   2.495   1.992   7.576  0.5835  0.3852  0.1048
 3600TIP3    H132359   2.445   1.952   7.505  1.5507  1.9373 -1.5352
 3600TIP3    H232360   2.586   1.972   7.555  1.0034  2.3895 -0.1043
 3601TIP3   OH232361   2.433   1.609   1.554 -0.2534 -0.1398  0.5795
 3601TIP3    H132362   2.403   1.600   1.463 -0.2706 -1.2817  0.6846
 3601TIP3    H232363   2.411   1.699   1.577  2.0242  1.0114 -1.3485
 3602TIP3   OH232364   1.964   2.154   1.895 -0.4696  0.0176 -0.1165
 3602TIP3    H132365   1.947   2.104   1.816 -0.0233 -0.1714 -0.0918
 3602TIP3    H232366   1.928   2.241   1.877  0.9059  0.4102 -1.0772
 3603TIP3   OH232367   5.966   5.613   0.560 -0.0329  0.1325 -0.1747
 3603TIP3    H132368   5.891   5.572   0.517 -0.7123 -0.8184  1.7795
 3603TIP3    H232369   5.927   5.681   0.615  0.4450 -0.6603  1.1936
 3604TIP3   OH232370   0.138   6.056   0.954 -0.5883 -0.5498 -0.0835
 3604TIP3    H132371   0.046   6.080   0.956 -1.1112 -0.7921 -5.6656
 3604TIP3    H232372   0.185   6.140   0.961 -1.4155 -0.0495 -0.4085
 3605TIP3   OH232373   4.630   4.614   2.053  0.1339 -0.3854 -0.0185
 3605TIP3    H132374   4.673   4.557   2.117 -0.3860 -1.2824 -0.4374
 3605TIP3    H232375   4.554   4.649   2.099 -0.1075 -0.8398 -0.0671
 3606TIP3   OH232376   0.650   1.767   8.003  0.8723 -0.3855 -0.4144
 3606TIP3    H132377   0.585   1.748   8.071  2.4804 -0.1477  1.2529
 3606TIP3    H232378   0.709   1.830   8.044  2.2085 -0.6571 -1.8537
 3607TIP3   OH232379   1.117   6.004   1.400  0.2848 -0.5183  0.3440
 3607TIP3    H132380   1.120   6.098   1.417  0.8373 -0.4126 -0.3024
 3607TIP3    H232381   1.208   5.975   1.409  0.3270 -0.7559 -0.7260
 3608TIP3   OH232382   5.270   4.291   1.846 -0.4752 -0.3236  0.2204
 3608TIP3    H132383   5.219   4.237   1.905 -0.7331  0.3467  0.6189
 3608TIP3    H232384   5.299   4.365   1.900 -1.0842  0.5259 -0.5795
 3609TIP3   OH232385   4.541   5.475   1.555 -0.5287  0.5423  0.2624
 3609TIP3    H132386   4.461   5.526   1.545 -1.2618 -0.6257  0.0772
 3609TIP3    H232387   4.527   5.396   1.503  1.3842  1.0341 -1.1218
 3610TIP3   OH232388   3.706   5.545   0.672 -0.0409 -0.6584  0.8252
 3610TIP3    H132389   3.795   5.578   0.683  0.1672 -0.3698 -1.3481
 3610TIP3    H232390   3.717   5.456   0.641 -0.5724 -1.2682  2.2764
 3611TIP3   OH232391   3.940   5.114   8.194 -0.3225 -0.4393 -0.3661
 3611TIP3    H132392   3.983   5.029   8.183 -0.9256 -0.8044  0.0255
 3611TIP3    H232393   3.929   5.148   8.105  2.3150  0.4731 -0.4366
 3612TIP3   OH232394   1.987   3.506   1.393 -0.0299 -0.3192  0.2681
 3612TIP3    H132395   2.050   3.459   1.448  0.9977 -0.5323 -1.0593
 3612TIP3    H232396   1.994   3.597   1.422  1.6119 -0.1738 -0.4921
 3613TIP3   OH232397   2.136   1.417   8.165  0.0936  0.0652 -0.0989
 3613TIP3    H132398   2.169   1.387   8.081  2.7935 -0.4688  1.0314
 3613TIP3    H232399   2.186   1.497   8.184  0.0920 -0.2219  1.2746
 3614TIP3   OH232400   2.130   6.000   2.994  0.4834 -0.2967 -0.2128
 3614TIP3    H132401   2.221   6.031   2.998  1.0379 -1.7100 -0.9413
 3614TIP3    H232402   2.132   5.931   2.927 -0.7645 -1.5346  0.9794
 3615TIP3   OH232403   0.830   6.180   0.166  0.0440  0.0028 -0.8000
 3615TIP3    H132404   0.780   6.125   0.106 -0.5657 -0.6499  0.2774
 3615TIP3    H232405   0.890   6.119   0.209 -1.7736 -0.2165  1.6305
 3616TIP3   OH232406   6.578   2.864   8.028  0.1083  0.1510  0.5616
 3616TIP3    H132407   6.492   2.852   8.067  0.1017  2.0282  1.2431
 3616TIP3    H232408   6.628   2.911   8.095  0.5970  2.0155 -1.0258
 3617TIP3   OH232409   0.246   5.074   0.901  0.4255  0.0930 -0.2717
 3617TIP3    H132410   0.316   5.101   0.841  0.7634  1.0547  0.5255
 3617TIP3    H232411   0.238   5.147   0.962 -1.1443 -0.0828 -0.2194
 3618TIP3   OH232412   2.717   3.148   0.250 -0.5898  0.2821  0.6545
 3618TIP3    H132413   2.676   3.154   0.336  0.1778  1.8119  0.9480
 3618TIP3    H232414   2.726   3.239   0.221 -0.5597 -0.1838 -0.9176
 3619TIP3   OH232415   0.781   6.225   7.767 -0.6710 -0.2344  0.3189
 3619TIP3    H132416   0.705   6.262   7.722 -0.5489 -0.8226 -0.3788
 3619TIP3    H232417   0.856   6.271   7.729 -0.5937 -0.4516  0.2110
 3620TIP3   OH232418   5.816   1.793   1.323 -0.0810  0.0529  0.3221
 3620TIP3    H132419   5.801   1.734   1.397 -0.2006 -0.6433 -0.2465
 3620TIP3    H232420   5.816   1.881   1.361 -0.9278 -0.2469  1.0345
 3621TIP3   OH232421   2.339   6.631   8.439 -0.3044 -0.3740  0.5579
 3621TIP3    H132422   2.277   6.695   8.404  0.5488  0.2100  0.0872
 3621TIP3    H232423   2.409   6.627   8.374  1.5506  1.0627  2.3292
 3622TIP3   OH232424   1.940   1.614   0.877  0.4050  0.0458  0.1613
 3622TIP3    H132425   1.944   1.522   0.850 -2.5417 -0.1172 -0.0808
 3622TIP3    H232426   1.993   1.660   0.812  1.2813 -1.3806 -0.1791
 3623TIP3   OH232427   4.328   3.087   1.704 -0.5696  0.3271  0.3697
 3623TIP3    H132428   4.327   3.031   1.627 -1.6487  1.1888 -0.2780
 3623TIP3    H232429   4.271   3.043   1.767 -0.3592  0.0534  0.3739
 3624TIP3   OH232430   6.483   1.570   1.062  0.5420 -0.0560  0.2851
 3624TIP3    H132431   6.549   1.501   1.061  0.0642 -0.5191  0.2445
 3624TIP3    H232432   6.513   1.632   1.128  0.3719 -0.9107  1.1774
 3625TIP3   OH232433   4.236   2.115   0.002  0.4456  0.0157  0.0453
 3625TIP3    H132434   4.171   2.185   0.010  0.0591 -0.2231 -0.8378
 3625TIP3    H232435   4.321   2.159   0.007  0.2160  0.3858  0.7611
 3626TIP3   OH232436   0.413   2.116   1.316  0.4402  0.1442 -0.2641
 3626TIP3    H132437   0.481   2.123   1.249 -0.0415 -1.2069 -0.9325
 3626TIP3    H232438   0.461   2.115   1.399  0.9947  2.7090 -0.4764
 3627TIP3   OH232439   6.027   3.862   1.613 -0.1273  0.1115  0.1472
 3627TIP3    H132440   6.056   3.774   1.592 -1.1578 -0.7077  1.9436
 3627TIP3    H232441   5.966   3.851   1.686  1.0290  2.4454  1.5957
 3628TIP3   OH232442   4.501   0.516   8.431  0.0375 -0.4061 -0.5949
 3628TIP3    H132443   4.482   0.574   8.357 -1.2785  0.8157  0.6481
 3628TIP3    H232444   4.518   0.575   8.504 -0.4841 -1.5772  0.5155
 3629TIP3   OH232445   5.694   3.130   8.484  0.1939 -0.0555  0.2565
 3629TIP3    H132446   5.726   3.214   8.517 -1.4117  0.1389  1.4058
 3629TIP3    H232447   5.659   3.150   8.397 -0.7104  0.5896  0.7610
 3630TIP3   OH232448   1.281   6.116   1.902 -0.1823  0.6538 -0.1280
 3630TIP3    H132449   1.327   6.035   1.923 -2.4046 -0.5810  0.3575
 3630TIP3    H232450   1.289   6.124   1.807  1.8241  1.0597  0.0335
 3631TIP3   OH232451   2.477   1.321   1.511 -0.3900 -0.1652 -0.0674
 3631TIP3    H132452   2.390   1.305   1.548 -0.9692  0.2202 -1.2293
 3631TIP3    H232453   2.502   1.407   1.545 -1.9611  1.3134 -2.3740
 3632TIP3   OH232454   2.364   3.649   2.021  0.5063 -0.1821  0.8014
 3632TIP3    H132455   2.293   3.657   1.957  1.2342  0.0360 -0.0075
 3632TIP3    H232456   2.367   3.733   2.066 -1.0566 -0.8718  2.2868
 3633TIP3   OH232457   6.208   1.390   0.542  0.8151  0.2048  0.1604
 3633TIP3    H132458   6.299   1.412   0.523  0.7270  1.5856  1.1419
 3633TIP3    H232459   6.211   1.303   0.580  1.3233 -1.2265 -2.8519
 3634TIP3   OH232460   0.935   2.473   2.123 -0.4826  0.0741  0.7748
 3634TIP3    H132461   0.870   2.407   2.145 -0.7303 -0.1897 -0.6379
 3634TIP3    H232462   1.006   2.424   2.080  0.6003  0.3764  2.1309
 3635TIP3   OH232463   4.182   6.119   2.772 -0.2221 -0.0526  0.0746
 3635TIP3    H132464   4.239   6.178   2.822 -0.8617  0.4719  0.1943
 3635TIP3    H232465   4.227   6.109   2.688  0.4939 -0.3568  0.4777
 3636TIP3   OH232466   0.247   1.633   2.382  0.0106 -0.2725  0.4438
 3636TIP3    H132467   0.279   1.708   2.432 -1.1631 -0.2601  1.2407
 3636TIP3    H232468   0.155   1.624   2.409 -0.9519  0.2385 -2.3328
 3637TIP3   OH232469   0.617   0.768   7.672 -0.3078 -0.3085 -0.1628
 3637TIP3    H132470   0.671   0.847   7.673 -0.3003 -0.2696  1.7782
 3637TIP3    H232471   0.651   0.716   7.600  2.3290 -0.2474  0.9387
 3638TIP3   OH232472   3.304   6.455   2.985  0.3038  0.1306  0.1456
 3638TIP3    H132473   3.374   6.516   2.962  1.6741 -1.0751  0.9258
 3638TIP3    H232474   3.223   6.503   2.967  1.3207  1.7490 -0.3217
 3639TIP3   OH232475   6.101   4.109   1.757  0.1120 -0.0282  0.2007
 3639TIP3    H132476   6.061   4.051   1.692 -0.3696  0.1436  0.3359
 3639TIP3    H232477   6.041   4.184   1.761  0.7668  0.5155 -0.0271
 3640TIP3   OH232478   3.963   2.522   7.640  0.0533 -0.1792  0.3116
 3640TIP3    H132479   3.913   2.465   7.582 -0.1846  0.3318  0.0138
 3640TIP3    H232480   4.055   2.499   7.623 -0.0185 -0.0939 -0.2012
 3641TIP3   OH232481   3.247   0.605   7.443 -0.1592 -0.1616  0.8591
 3641TIP3    H132482   3.202   0.684   7.472  0.5885  0.4835  0.2984
 3641TIP3    H232483   3.253   0.614   7.348 -1.2859 -1.5584  0.6070
 3642TIP3   OH232484   0.187   5.015   2.663  0.5841  0.0947 -0.0086
 3642TIP3    H132485   0.259   5.077   2.650  0.0390  0.3419 -2.2067
 3642TIP3    H232486   0.109   5.070   2.673  0.0980 -0.1782 -1.9687
 3643TIP3   OH232487   5.217   0.187   1.518  0.1444 -0.2647 -0.0749
 3643TIP3    H132488   5.130   0.183   1.479  0.4840 -1.6205 -0.7505
 3643TIP3    H232489   5.205   0.159   1.608 -0.2251  0.3014  0.0589
 3644TIP3   OH232490   5.179   1.519   2.503  0.1526 -0.6626 -0.1954
 3644TIP3    H132491   5.271   1.529   2.527 -0.5277  0.8344  2.1488
 3644TIP3    H232492   5.153   1.437   2.545 -0.2197  0.3376  1.6527
 3645TIP3   OH232493   0.495   0.148   0.596  0.8546 -0.6128 -0.2124
 3645TIP3    H132494   0.527   0.058   0.597  0.5847 -0.7509 -1.6363
 3645TIP3    H232495   0.447   0.155   0.513 -0.8165  0.2631  0.7758
 3646TIP3   OH232496   1.823   4.222   2.413  0.3320 -0.5581  0.4187
 3646TIP3    H132497   1.730   4.241   2.400  0.7316  1.1209 -0.2148
 3646TIP3    H232498   1.838   4.239   2.506 -0.2975 -2.3976  0.9030
 3647TIP3   OH232499   4.875   0.880   7.855  0.4269 -0.4313  0.6214
 3647TIP3    H132500   4.808   0.818   7.828  2.0374 -1.7671 -0.5249
 3647TIP3    H232501   4.827   0.962   7.871 -1.4738 -1.3930  0.1370
 3648TIP3   OH232502   2.638   4.621   8.640  0.1209 -0.2361 -0.0451
 3648TIP3    H132503   2.616   4.597   8.730  2.2863  0.1891  0.6603
 3648TIP3    H232504   2.584   4.698   8.622 -0.7453 -0.6602  0.6637
 3649TIP3   OH232505   3.030   5.239   2.750 -0.3814  0.2846  0.5935
 3649TIP3    H132506   3.077   5.267   2.671 -0.6183 -1.0703 -0.0597
 3649TIP3    H232507   2.942   5.216   2.718 -0.5823  0.0361  1.3121
 3650TIP3   OH232508   1.526   4.822   0.724  0.3198 -0.6089 -0.3939
 3650TIP3    H132509   1.435   4.853   0.730  0.1904 -0.6283 -1.8816
 3650TIP3    H232510   1.538   4.803   0.631  1.0243 -3.1674  0.1562
 3651TIP3   OH232511   6.445   0.263   2.951 -0.3506 -0.5528  0.0524
 3651TIP3    H132512   6.360   0.306   2.946  0.5758  1.3419 -0.3380
 3651TIP3    H232513   6.493   0.311   3.018  1.4265  0.4270 -1.8044
 3652TIP3   OH232514   4.993   5.225   0.890  0.2769 -0.2703  0.2520
 3652TIP3    H132515   5.052   5.292   0.857  0.4096 -1.0439 -1.1587
 3652TIP3    H232516   4.999   5.154   0.826 -1.4978 -0.7397  0.5478
 3653TIP3   OH232517   1.071   1.168   7.283 -0.2457 -0.7300 -0.0510
 3653TIP3    H132518   1.016   1.247   7.285  0.8532  0.0670 -0.0968
 3653TIP3    H232519   1.096   1.160   7.191  1.3374  0.1135  0.2660
 3654TIP3   OH232520   4.760   3.915   7.228 -0.2618 -0.6664 -0.0467
 3654TIP3    H132521   4.691   3.981   7.239 -0.8539 -1.1704 -0.6491
 3654TIP3    H232522   4.833   3.962   7.188 -0.5847 -0.3135 -0.2256
 3655TIP3   OH232523   6.773   2.825   2.574 -0.2602  0.6795  0.0727
 3655TIP3    H132524   6.757   2.736   2.543  0.2580  0.2259  1.0830
 3655TIP3    H232525   6.702   2.877   2.535 -0.8407 -0.2515 -0.1367
 3656TIP3   OH232526   4.360   1.293   8.340 -0.1089 -0.0570 -0.8737
 3656TIP3    H132527   4.446   1.312   8.302  0.1231  1.7047  0.4346
 3656TIP3    H232528   4.306   1.368   8.316 -1.5347 -1.4097 -2.2061
 3657TIP3   OH232529   5.564   3.461   7.608 -0.1664  0.0686  0.4991
 3657TIP3    H132530   5.534   3.529   7.668  0.1480  0.5755  0.0924
 3657TIP3    H232531   5.659   3.468   7.610 -0.1332 -0.3416  0.4293
 3658TIP3   OH232532   5.271   3.800   1.066 -0.6944  0.0352  0.5969
 3658TIP3    H132533   5.303   3.716   1.031 -1.9716 -0.3603  0.3218
 3658TIP3    H232534   5.349   3.855   1.070  0.0286 -0.9042  0.0067
 3659TIP3   OH232535   1.370   5.031   2.624 -0.7566  0.3064 -0.6171
 3659TIP3    H132536   1.348   5.097   2.558  1.3074  0.1431 -1.5504
 3659TIP3    H232537   1.417   5.080   2.691 -3.7406  0.6709  1.3849
 3660TIP3   OH232538   3.102   1.268   8.553 -0.3518 -0.7655  0.5295
 3660TIP3    H132539   3.098   1.204   8.482  0.1759 -1.7863  1.3816
 3660TIP3    H232540   3.024   1.323   8.542 -1.0029 -1.7837 -0.0229
 3661TIP3   OH232541   1.129   1.042   1.400  0.1984 -0.3432 -0.5167
 3661TIP3    H132542   1.127   1.029   1.495  2.0632  3.1350  0.1916
 3661TIP3    H232543   1.173   0.965   1.366 -0.3661 -1.6086  1.4276
 3662TIP3   OH232544   3.259   6.437   8.485 -0.1921  0.3599 -0.6199
 3662TIP3    H132545   3.242   6.344   8.500  4.6435 -0.5789  0.8053
 3662TIP3    H232546   3.311   6.439   8.405  0.9962  1.6255  0.1451
 3663TIP3   OH232547   2.358   0.675   0.366  0.2689  0.5276 -0.2911
 3663TIP3    H132548   2.351   0.711   0.455 -0.0122 -1.5595  0.5951
 3663TIP3    H232549   2.452   0.661   0.353  0.2980  0.6814 -0.2378
 3664TIP3   OH232550   1.529   5.276   0.032  0.0259  0.4050  0.6968
 3664TIP3    H132551   1.579   5.346  -0.010 -0.8026  0.3081 -0.4912
 3664TIP3    H232552   1.460   5.322   0.080  0.6320  0.4810  1.5358
 3665TIP3   OH232553   4.291   2.625   2.367 -0.0288 -0.0425  0.5019
 3665TIP3    H132554   4.271   2.718   2.379 -1.0982 -0.1817 -0.0606
 3665TIP3    H232555   4.368   2.610   2.421 -1.3294  0.6022  2.6822
 3666TIP3   OH232556   0.457   6.396   0.815 -0.2334  0.4613 -0.0594
 3666TIP3    H132557   0.531   6.353   0.771 -0.3287  0.7899 -0.5375
 3666TIP3    H232558   0.412   6.444   0.746 -0.7248  0.5048  0.2886
 3667TIP3   OH232559   1.423   6.875   7.162  0.4952  0.0799 -0.5167
 3667TIP3    H132560   1.329   6.863   7.149  0.1306  0.0711  1.6643
 3667TIP3    H232561   1.432   6.968   7.182  0.9728  0.0970 -0.8090
 3668TIP3   OH232562   5.990   1.955   8.556 -0.1169  0.5876  0.2082
 3668TIP3    H132563   5.985   1.905   8.638  2.2353  1.8591  1.2051
 3668TIP3    H232564   6.057   2.020   8.571 -1.5512  2.6967 -1.8173
 3669TIP3   OH232565   0.618   2.871   2.702  0.4092  0.0211 -0.2068
 3669TIP3    H132566   0.545   2.821   2.665  1.5628 -1.5231 -0.4741
 3669TIP3    H232567   0.696   2.833   2.663  1.4249  1.1602  0.6295
 3670TIP3   OH232568   4.507   0.780   2.165 -0.6901 -0.2466  0.8374
 3670TIP3    H132569   4.477   0.706   2.217  1.2956 -0.3741  1.9051
 3670TIP3    H232570   4.603   0.778   2.172 -0.3803  0.4707 -1.8465
 3671TIP3   OH232571   0.571   6.111   0.368  0.2049 -0.0105 -0.0822
 3671TIP3    H132572   0.595   6.168   0.295  2.9792 -2.9390 -1.7026
 3671TIP3    H232573   0.538   6.032   0.327  1.8734 -1.7645  1.7476
 3672TIP3   OH232574   0.516   0.452   1.195  0.1215 -0.2732  0.4415
 3672TIP3    H132575   0.474   0.417   1.117 -1.2367  2.4471 -0.1648
 3672TIP3    H232576   0.483   0.542   1.203  2.8859  0.7524  2.1696
 3673TIP3   OH232577   6.775   5.166   7.924  0.1515 -0.2120 -0.1226
 3673TIP3    H132578   6.694   5.216   7.920 -0.7247 -1.6559 -1.1281
 3673TIP3    H232579   6.832   5.206   7.858  0.5938  1.2765  1.0873
 3674TIP3   OH232580   4.442   2.956   2.086 -0.5816  0.3765 -0.0819
 3674TIP3    H132581   4.427   2.867   2.052  0.0599 -0.6697  2.1644
 3674TIP3    H232582   4.512   2.991   2.030 -2.0917  0.2515 -2.1865
 3675TIP3   OH232583   3.018   0.958   7.182 -0.5924  0.2650  0.0374
 3675TIP3    H132584   3.020   0.902   7.104 -0.6539 -0.6613  0.6829
 3675TIP3    H232585   2.948   1.020   7.165 -1.2196 -0.5077 -0.2810
 3676TIP3   OH232586   3.895   2.389   1.861  0.6606  0.2943 -0.0515
 3676TIP3    H132587   3.844   2.312   1.885 -3.1662  2.9463  1.3429
 3676TIP3    H232588   3.960   2.399   1.931 -0.6304 -0.1959  1.2606
 3677TIP3   OH232589   4.221   2.582   0.471 -0.1886  0.1306 -0.3384
 3677TIP3    H132590   4.296   2.524   0.466 -0.1573  0.0870  0.5575
 3677TIP3    H232591   4.244   2.647   0.538 -0.3370  1.0204 -1.1146
 3678TIP3   OH232592   3.451   2.155   2.297  0.2143 -0.0561  0.1848
 3678TIP3    H132593   3.446   2.151   2.201  1.5384  1.2701  0.0154
 3678TIP3    H232594   3.545   2.152   2.316  0.0213  0.7845  1.3678
 3679TIP3   OH232595   6.347   1.907   0.779 -0.5745  0.1201  0.0498
 3679TIP3    H132596   6.421   1.873   0.830  0.3857  0.7688 -0.8654
 3679TIP3    H232597   6.275   1.849   0.800  0.0063 -0.1136  1.5171
 3680TIP3   OH232598   6.328   3.281   6.733 -0.1316  0.1195 -0.2575
 3680TIP3    H132599   6.255   3.339   6.753 -0.1259  0.2860 -0.6993
 3680TIP3    H232600   6.403   3.318   6.779  0.3107  1.5608 -2.0122
 3681TIP3   OH232601   4.919   3.854   7.766 -0.6388  0.0534 -0.1850
 3681TIP3    H132602   5.008   3.824   7.752 -0.6569 -0.0719 -0.0269
 3681TIP3    H232603   4.867   3.806   7.702 -0.5913  0.1453 -0.2946
 3682TIP3   OH232604   4.921   3.206   7.820  0.3158 -0.0717 -0.2765
 3682TIP3    H132605   4.937   3.198   7.726 -0.2247  0.7363 -0.4459
 3682TIP3    H232606   4.913   3.300   7.835  1.1922 -0.1442  0.7170
 3683TIP3   OH232607   0.394   2.239   1.806  0.1967  0.0200  0.4998
 3683TIP3    H132608   0.338   2.177   1.758 -0.8081 -0.1092  1.7549
 3683TIP3    H232609   0.332   2.298   1.850  1.1040  0.9367  0.5922
 3684TIP3   OH232610   5.735   3.695   1.126  0.4106  0.6280 -0.2277
 3684TIP3    H132611   5.793   3.768   1.149 -0.2155  0.7859  0.8808
 3684TIP3    H232612   5.754   3.628   1.191 -0.2626  0.4765 -0.1823
 3685TIP3   OH232613   0.709   3.183   7.719  0.1679  0.6333 -0.2708
 3685TIP3    H132614   0.695   3.096   7.754  2.5894 -0.1050 -0.9051
 3685TIP3    H232615   0.645   3.191   7.648 -1.7053  0.3867  1.3019
 3686TIP3   OH232616   5.933   3.506   7.211  0.2361 -0.3508 -0.0838
 3686TIP3    H132617   5.935   3.585   7.265 -1.1239 -0.0958 -0.3860
 3686TIP3    H232618   5.840   3.486   7.199  0.5063 -0.6866 -1.9095
 3687TIP3   OH232619   3.331   4.806   7.225  0.3004  0.2219 -0.4437
 3687TIP3    H132620   3.384   4.828   7.302  0.1727 -1.2970  0.1132
 3687TIP3    H232621   3.372   4.853   7.153  2.3893 -0.8032 -0.0013
 3688TIP3   OH232622   5.305   6.793   0.846  0.2978 -0.5394 -0.4634
 3688TIP3    H132623   5.272   6.877   0.878  0.9868  0.6373 -2.6590
 3688TIP3    H232624   5.399   6.797   0.859  0.3310 -0.9956 -0.5509
 3689TIP3   OH232625   1.264   6.873   1.796 -0.1028 -0.2122 -0.0904
 3689TIP3    H132626   1.171   6.850   1.802  0.3369 -1.7790  1.3498
 3689TIP3    H232627   1.273   6.914   1.710 -2.1565  0.1588 -0.1750
 3690TIP3   OH232628   0.565   5.255   1.926  0.5988  0.4158 -0.1798
 3690TIP3    H132629   0.627   5.236   1.996  1.2103 -1.1823 -1.1115
 3690TIP3    H232630   0.573   5.349   1.912  3.1813  0.1909 -0.6027
 3691TIP3   OH232631   1.503   0.586   8.542 -0.1160  0.1718  0.4896
 3691TIP3    H132632   1.542   0.608   8.627  0.7428 -0.8268  0.3700
 3691TIP3    H232633   1.573   0.539   8.495 -1.0466 -0.5269 -0.2248
 3692TIP3   OH232634   6.372   4.201   1.308 -0.8040 -0.3593 -0.4280
 3692TIP3    H132635   6.294   4.257   1.309 -0.7147 -0.2296  0.2686
 3692TIP3    H232636   6.359   4.142   1.382  0.8570  1.2568  1.2854
 3693TIP3   OH232637   5.430   4.481   1.301  0.2646  0.2680 -0.3202
 3693TIP3    H132638   5.375   4.473   1.379  0.2965  0.5566 -0.2652
 3693TIP3    H232639   5.480   4.562   1.316 -0.9634  1.2642 -1.4229
 3694TIP3   OH232640   1.246   0.140   1.560 -0.0724  0.1392 -0.7762
 3694TIP3    H132641   1.175   0.189   1.519 -0.3098  0.0017 -0.5297
 3694TIP3    H232642   1.326   0.179   1.524 -0.2689  0.3443 -0.9945
 3695TIP3   OH232643   3.726   6.542   0.061  0.4079  0.2400 -0.6765
 3695TIP3    H132644   3.797   6.586   0.015  1.3124  0.8072  1.1443
 3695TIP3    H232645   3.649   6.595   0.043  1.1428  1.6331  0.0800
 3696TIP3   OH232646   0.989   3.158   7.961  0.0640 -0.5951  0.1898
 3696TIP3    H132647   1.068   3.108   7.981  1.9523  1.0761 -2.4110
 3696TIP3    H232648   1.018   3.226   7.900 -3.3566  0.3038 -0.6800
 3697TIP3   OH232649   5.886   6.386   3.077  0.2308  0.0949 -0.2010
 3697TIP3    H132650   5.812   6.446   3.080  0.4059  0.3141 -0.2360
 3697TIP3    H232651   5.847   6.299   3.085 -0.0235  0.2129 -0.1581
 3698TIP3   OH232652   2.764   3.171   0.915  0.4698  0.0223  0.3275
 3698TIP3    H132653   2.847   3.161   0.869  0.8287  0.4573  0.8676
 3698TIP3    H232654   2.709   3.100   0.882  0.7180  0.3173 -0.7663
 3699TIP3   OH232655   3.915   1.055   8.150 -0.5244 -0.0456 -0.3226
 3699TIP3    H132656   3.967   1.076   8.227 -0.5472 -1.7318  0.1796
 3699TIP3    H232657   3.938   1.123   8.087 -0.0056  0.9821  0.9225
 3700TIP3   OH232658   4.569   6.659   1.113  0.0482 -1.1073  0.0053
 3700TIP3    H132659   4.601   6.662   1.203  0.9946  0.6731 -0.3409
 3700TIP3    H232660   4.638   6.701   1.062 -1.7031  0.5143 -1.1524
 3701TIP3   OH232661   5.427   5.292   2.058  0.2044 -0.4367 -0.1507
 3701TIP3    H132662   5.434   5.307   2.152 -0.8082 -0.2504 -0.0951
 3701TIP3    H232663   5.333   5.294   2.040  0.3797 -0.5712 -1.1506
 3702TIP3   OH232664   0.362   6.268   2.522 -0.3217 -0.1994  0.0190
 3702TIP3    H132665   0.327   6.274   2.433  1.1691 -0.6528 -0.6380
 3702TIP3    H232666   0.316   6.335   2.571 -1.7686 -0.4880 -0.8911
 3703TIP3   OH232667   2.864   4.236   2.693  0.4474 -1.1814  0.3699
 3703TIP3    H132668   2.953   4.206   2.714  0.4348 -0.4224  1.6191
 3703TIP3    H232669   2.838   4.287   2.770 -0.6722 -0.5192 -0.4318
 3704TIP3   OH232670   3.405   6.323   0.944  0.2458  0.1355 -0.1446
 3704TIP3    H132671   3.351   6.365   0.877 -2.4504  0.3475  1.9750
 3704TIP3    H232672   3.345   6.262   0.987  2.7065 -2.2247  0.1684
 3705TIP3   OH232673   0.577   0.253   8.035 -0.2277 -0.5638 -0.4703
 3705TIP3    H132674   0.539   0.165   8.037 -2.9993  0.4695 -1.8887
 3705TIP3    H232675   0.662   0.244   8.078 -1.2971 -3.4845  1.3022
 3706TIP3   OH232676   3.109   5.981   7.689 -0.4094 -0.5027 -0.2890
 3706TIP3    H132677   3.196   6.015   7.710  0.2588 -2.6601  0.6961
 3706TIP3    H232678   3.108   5.976   7.593  0.6318 -0.6217 -0.3057
 3707TIP3   OH232679   1.040   5.402   0.203 -0.1552 -0.8393 -0.6134
 3707TIP3    H132680   0.971   5.411   0.138 -2.2866 -1.9609  1.3284
 3707TIP3    H232681   1.052   5.490   0.238  1.4195 -0.1048 -2.7694
 3708TIP3   OH232682   6.303   5.927   8.623  0.3908  0.1169  0.5822
 3708TIP3    H132683   6.313   5.935   8.528  2.1831  0.0666  0.7368
 3708TIP3    H232684   6.301   6.017   8.654  1.0936  0.1252  0.6071
 3709TIP3   OH232685   1.016   5.766   2.727 -0.3642  0.0501  0.2998
 3709TIP3    H132686   1.070   5.839   2.757 -1.0469 -0.1804  2.2463
 3709TIP3    H232687   1.042   5.693   2.783 -1.9908 -0.3083  0.6459
 3710TIP3   OH232688   4.245   2.130   0.617  0.3397  0.0549  0.0944
 3710TIP3    H132689   4.282   2.117   0.529 -0.5491 -0.8648 -0.1623
 3710TIP3    H232690   4.237   2.041   0.652 -2.6233  0.1013 -0.2789
 3711TIP3   OH232691   4.781   6.489   1.368 -0.2399  0.2878  0.0850
 3711TIP3    H132692   4.824   6.408   1.340 -0.7557 -0.2581  0.8426
 3711TIP3    H232693   4.851   6.540   1.407  0.1848  0.4191 -0.8062
 3712TIP3   OH232694   1.528   2.324   1.298  0.1348 -0.4454 -0.2551
 3712TIP3    H132695   1.581   2.273   1.235  0.7086  0.9565 -0.9462
 3712TIP3    H232696   1.438   2.312   1.267  0.4546  0.7585 -1.8089
 3713TIP3   OH232697   1.889   2.466   8.431  0.2847 -0.2565  0.7250
 3713TIP3    H132698   1.877   2.420   8.348 -0.8433 -1.6917  1.6151
 3713TIP3    H232699   1.911   2.556   8.406 -0.4256 -0.5413 -1.1182
 3714TIP3   OH232700   3.807   1.110   7.185  0.0626  0.2294 -0.5005
 3714TIP3    H132701   3.725   1.087   7.229  0.4092 -1.1299 -0.5103
 3714TIP3    H232702   3.798   1.203   7.165 -1.7312 -0.0167 -1.0490
 3715TIP3   OH232703   3.773   4.739   1.636 -0.1275  1.0494  0.3101
 3715TIP3    H132704   3.795   4.826   1.671 -0.4304  0.4216  2.2018
 3715TIP3    H232705   3.849   4.685   1.657 -0.4955  0.5488  0.3726
 3716TIP3   OH232706   5.591   5.907   2.105  0.1863 -0.6204 -0.2701
 3716TIP3    H132707   5.555   5.963   2.174 -1.0546  0.3119 -1.6007
 3716TIP3    H232708   5.663   5.958   2.068 -0.3639 -0.2683 -0.8843
 3717TIP3   OH232709   1.726   1.296   2.399  0.3513 -0.8457 -0.8425
 3717TIP3    H132710   1.694   1.375   2.442 -2.0179 -1.8355 -0.6146
 3717TIP3    H232711   1.780   1.329   2.326  0.4724  0.9195 -0.0153
 3718TIP3   OH232712   5.756   3.773   1.709  0.3634 -0.0081 -0.4141
 3718TIP3    H132713   5.796   3.692   1.678  1.0055  0.1843 -0.0871
 3718TIP3    H232714   5.662   3.757   1.702  0.4775 -0.9423  0.0652
 3719TIP3   OH232715   2.463   6.118   1.616 -0.7086  0.1526 -1.0783
 3719TIP3    H132716   2.547   6.074   1.603 -0.2005  1.5556 -2.9854
 3719TIP3    H232717   2.397   6.053   1.593 -0.1288 -0.7045 -0.3611
 3720TIP3   OH232718   5.634   2.836   2.514 -0.1584 -0.0807 -0.9768
 3720TIP3    H132719   5.565   2.772   2.498 -1.8223  1.6183 -0.9596
 3720TIP3    H232720   5.590   2.908   2.561  1.6551  0.9913 -0.8139
 3721TIP3   OH232721   4.254   0.520   2.265 -0.3998  0.7313  0.4862
 3721TIP3    H132722   4.197   0.515   2.342 -0.5577  0.9291  0.3809
 3721TIP3    H232723   4.341   0.535   2.301 -0.4061  0.3904  0.6497
 3722TIP3   OH232724   5.979   4.115   8.330  0.0137 -0.3658 -0.2063
 3722TIP3    H132725   5.930   4.157   8.401  1.9281  1.8833 -0.0972
 3722TIP3    H232726   5.922   4.123   8.254 -0.8967 -0.2481  0.4683
 3723TIP3   OH232727   3.521   3.898   1.869 -0.1729 -0.3156 -0.1248
 3723TIP3    H132728   3.480   3.938   1.793  1.0574 -0.5767 -0.9704
 3723TIP3    H232729   3.606   3.942   1.876  0.8496 -2.1061 -0.5544
 3724TIP3   OH232730   1.496   5.656   2.547 -0.7271 -0.7668 -0.7044
 3724TIP3    H132731   1.464   5.568   2.569  0.8136 -1.0211  0.7008
 3724TIP3    H232732   1.577   5.641   2.498  0.4193 -0.1870  0.9128
 3725TIP3   OH232733   0.320   4.957   1.714  0.1619  0.9727  0.1301
 3725TIP3    H132734   0.227   4.973   1.731  0.0212 -0.3315  0.6650
 3725TIP3    H232735   0.324   4.864   1.690  1.2670  1.1452 -0.4027
 3726TIP3   OH232736   2.537   4.393   2.417 -0.3632  0.1030  0.1353
 3726TIP3    H132737   2.446   4.416   2.431 -0.3602 -0.1388  0.5714
 3726TIP3    H232738   2.562   4.440   2.337 -1.7033 -2.1019 -1.7130
 3727TIP3   OH232739   5.772   0.776   2.036 -0.7654  0.3717 -0.0253
 3727TIP3    H132740   5.732   0.706   2.088  0.2537  0.3733  0.7928
 3727TIP3    H232741   5.747   0.857   2.082 -0.4967  0.4282  0.0188
 3728TIP3   OH232742   4.150   0.602   8.670 -0.1908  0.0047 -0.2067
 3728TIP3    H132743   4.104   0.654   8.604 -2.1773  0.6191  1.5661
 3728TIP3    H232744   4.081   0.552   8.713  1.1600 -0.9412  0.9197
 3729TIP3   OH232745   3.766   6.032   1.026  0.0237  0.2536 -0.7154
 3729TIP3    H132746   3.805   5.946   1.009  1.6606  0.8540 -0.2275
 3729TIP3    H232747   3.839   6.086   1.056 -0.9656  1.8235 -0.9836
 3730TIP3   OH232748   4.849   3.901   2.105  0.4109  0.1216 -0.5046
 3730TIP3    H132749   4.905   3.829   2.132 -0.6725 -0.1291  1.1839
 3730TIP3    H232750   4.830   3.884   2.013  1.7838 -0.6330 -0.6739
 3731TIP3   OH232751   5.704   4.493   1.905  0.3384  0.5367 -0.5275
 3731TIP3    H132752   5.701   4.419   1.844 -0.0172  0.0717  0.0421
 3731TIP3    H232753   5.750   4.459   1.981 -1.3237  0.3465  0.4383
 3732TIP3   OH232754   0.114   6.603   0.302  0.0857 -0.6304 -0.2448
 3732TIP3    H132755   0.023   6.582   0.322  0.2246 -0.7228  0.3063
 3732TIP3    H232756   0.135   6.676   0.361  0.5023 -0.9070 -0.0444
 3733TIP3   OH232757   0.520   4.996   8.185  0.1627 -0.5440  0.5030
 3733TIP3    H132758   0.500   5.076   8.233  0.0838 -1.4003  1.9284
 3733TIP3    H232759   0.595   5.020   8.130  0.8410  0.2182  1.7158
 3734TIP3   OH232760   1.490   0.955   2.266 -0.5391  0.8335 -0.1044
 3734TIP3    H132761   1.495   1.022   2.333  1.8647 -1.1353  1.8615
 3734TIP3    H232762   1.443   0.882   2.308  2.3938 -1.0539  0.2006
 3735TIP3   OH232763   4.090   0.849   1.893  0.6202 -0.7658  0.0539
 3735TIP3    H132764   4.179   0.879   1.910  0.3680 -0.6211  1.2003
 3735TIP3    H232765   4.084   0.765   1.940 -0.2395 -0.1436  1.1116
 3736TIP3   OH232766   6.546   6.183   2.553 -0.4678 -0.4051 -0.1816
 3736TIP3    H132767   6.514   6.273   2.548  1.1819  0.1494 -1.9327
 3736TIP3    H232768   6.641   6.192   2.559 -0.2842 -2.0352 -0.3692
 3737TIP3   OH232769   4.229   5.262   0.910 -0.0802 -0.2701  0.1607
 3737TIP3    H132770   4.302   5.248   0.970 -1.4623 -0.6923  1.7936
 3737TIP3    H232771   4.201   5.174   0.886  1.0014 -0.1407 -1.9044
 3738TIP3   OH232772   2.526   6.148   8.070 -0.5119 -0.4375 -0.6851
 3738TIP3    H132773   2.590   6.137   7.999  0.6420  1.0799  0.0453
 3738TIP3    H232774   2.532   6.068   8.121  0.1817 -0.6798 -1.1322
 3739TIP3   OH232775   1.164   5.228   2.513 -0.3557  0.3965 -0.4855
 3739TIP3    H132776   1.153   5.234   2.608 -0.5577  2.5091 -0.5850
 3739TIP3    H232777   1.086   5.182   2.482  0.0615 -0.9484  0.4151
 3740TIP3   OH232778   4.831   5.116   8.193  0.0902 -0.2335  0.1938
 3740TIP3    H132779   4.865   5.093   8.106  0.0158 -0.0398  0.1135
 3740TIP3    H232780   4.874   5.198   8.214  1.3131 -1.0365  1.0070
 3741TIP3   OH232781   5.402   3.383   8.159 -0.5198 -0.7565  0.0031
 3741TIP3    H132782   5.433   3.453   8.216 -2.0350 -0.6254  0.6938
 3741TIP3    H232783   5.408   3.419   8.070 -0.6847 -0.0010  0.3009
 3742TIP3   OH232784   6.200   2.252   0.332  0.6834 -0.3329 -0.1054
 3742TIP3    H132785   6.242   2.299   0.260  0.7785 -1.7207 -0.9865
 3742TIP3    H232786   6.265   2.189   0.361  0.1269 -0.7491  0.2409
 3743TIP3   OH232787   6.785   3.138   7.869 -0.2549 -0.1980 -0.2592
 3743TIP3    H132788   6.866   3.188   7.853  0.1639 -0.9229 -0.4279
 3743TIP3    H232789   6.799   3.055   7.826 -1.3771 -0.0875 -0.8676
 3744TIP3   OH232790   3.677   6.871   0.596 -0.2398 -0.5194 -0.4255
 3744TIP3    H132791   3.720   6.922   0.527  0.0370 -1.5685 -1.0514
 3744TIP3    H232792   3.592   6.846   0.558 -0.2434 -0.7800 -0.2517
 3745TIP3   OH232793   0.609   3.610   2.993  0.2909 -0.0564 -0.2419
 3745TIP3    H132794   0.643   3.559   3.066  0.2431 -1.2961 -1.0491
 3745TIP3    H232795   0.684   3.660   2.961  0.5987 -0.4216 -0.0960
 3746TIP3   OH232796   6.515   2.522   0.513  0.1259  0.3581  1.0900
 3746TIP3    H132797   6.546   2.591   0.453 -0.1594 -0.4267  0.0073
 3746TIP3    H232798   6.427   2.550   0.537 -0.4646 -0.2033 -0.3155
 3747TIP3   OH232799   4.227   5.687   1.884 -0.2942 -0.0831 -0.4612
 3747TIP3    H132800   4.151   5.719   1.836  0.4901  1.8952 -0.4605
 3747TIP3    H232801   4.233   5.743   1.961  1.8719  0.6555 -1.0944
 3748TIP3   OH232802   6.064   2.687   8.599  0.3601 -0.7946  0.8100
 3748TIP3    H132803   6.109   2.767   8.569  0.1895  0.0070  2.5830
 3748TIP3    H232804   6.112   2.616   8.557 -0.5154  0.2324 -2.2076
 3749TIP3   OH232805   2.214   2.066   2.030  0.6788 -0.1561 -0.3884
 3749TIP3    H132806   2.239   2.141   2.084  1.7357  0.9240 -2.2838
 3749TIP3    H232807   2.146   2.100   1.971 -0.3398 -1.2629  0.0960
 3750TIP3   OH232808   0.137   0.374   2.370 -0.6811  0.1659  0.2474
 3750TIP3    H132809   0.222   0.335   2.391 -0.7653 -0.2461 -0.1659
 3750TIP3    H232810   0.073   0.308   2.397 -0.8632  0.3984  0.3884
 3751TIP3   OH232811   5.876   6.597   0.408  0.2296  0.1395 -0.4206
 3751TIP3    H132812   5.854   6.532   0.474  3.8469 -0.3793  0.4934
 3751TIP3    H232813   5.922   6.666   0.457 -1.8780  2.5656 -1.6420
 3752TIP3   OH232814   5.101   3.754   1.273 -0.7849 -0.2460 -0.2414
 3752TIP3    H132815   5.102   3.826   1.336 -2.5981  0.0658 -0.5052
 3752TIP3    H232816   5.165   3.779   1.207  1.1245 -0.5668  1.3960
 3753TIP3   OH232817   1.668   1.331   1.551  0.4663 -0.1540 -0.8545
 3753TIP3    H132818   1.668   1.249   1.501 -1.2046 -0.7795  0.0828
 3753TIP3    H232819   1.732   1.316   1.620 -0.7755 -1.2310  0.1093
 3754TIP3   OH232820   5.190   6.303   2.169  0.0968  0.4829  0.3363
 3754TIP3    H132821   5.204   6.355   2.090  0.5621 -1.4133 -0.9082
 3754TIP3    H232822   5.278   6.285   2.202  0.1968 -1.9274 -0.9849
 3755TIP3   OH232823   3.004   1.869   2.571  0.5304 -0.4948  0.3119
 3755TIP3    H132824   3.002   1.774   2.582  0.6574 -0.9241 -2.6578
 3755TIP3    H232825   2.912   1.893   2.554  0.6077 -0.1718  0.3390
 3756TIP3   OH232826   1.905   6.025   7.969  0.6084 -0.0575  0.4191
 3756TIP3    H132827   1.892   5.957   7.902  2.4665 -0.2922  0.2320
 3756TIP3    H232828   1.998   6.045   7.963 -0.0649  3.4334 -0.4005
 3757TIP3   OH232829   3.983   5.622   7.611 -0.3392  0.4680  0.3002
 3757TIP3    H132830   3.968   5.717   7.611 -1.4438  0.3069 -0.4378
 3757TIP3    H232831   4.078   5.614   7.618 -0.3360  1.5785  2.3103
 3758TIP3   OH232832   5.185   2.506   8.110 -0.4693  0.6989 -0.1224
 3758TIP3    H132833   5.274   2.474   8.126 -1.0566 -0.0571  1.9203
 3758TIP3    H232834   5.197   2.592   8.069  1.1961  0.5220 -0.0529
 3759TIP3   OH232835   0.419   5.051   2.122 -0.1756 -0.7512 -0.7604
 3759TIP3    H132836   0.389   5.084   2.207 -0.6825  3.2174 -2.2422
 3759TIP3    H232837   0.340   5.050   2.067  0.5322 -0.9135 -1.8156
 3760TIP3   OH232838   2.396   3.955   0.501  0.0371 -0.0702 -0.0024
 3760TIP3    H132839   2.478   3.912   0.477  0.3731  0.6804 -0.2272
 3760TIP3    H232840   2.343   3.885   0.540  0.4868 -0.7310 -0.5528
 3761TIP3   OH232841   6.624   4.634   7.755  0.9330 -0.3777  0.4082
 3761TIP3    H132842   6.666   4.627   7.841 -1.2740 -0.5020  1.5466
 3761TIP3    H232843   6.647   4.721   7.725  3.5214 -1.0860  0.0696
 3762TIP3   OH232844   2.230   3.475   0.558  0.5619 -0.2499 -0.5476
 3762TIP3    H132845   2.312   3.453   0.603  0.5448 -1.0716 -0.9066
 3762TIP3    H232846   2.219   3.569   0.573 -0.1120 -0.6778  2.3154
 3763TIP3   OH232847   2.128   1.336   3.012  0.4801 -0.1318  0.1878
 3763TIP3    H132848   2.080   1.394   2.953  1.3014  1.0317  0.6223
 3763TIP3    H232849   2.207   1.385   3.034 -1.0680  0.8571  4.6178
 3764TIP3   OH232850   5.374   3.765   0.295 -0.7313 -0.4155  0.0385
 3764TIP3    H132851   5.410   3.678   0.312  1.7110  0.2108 -1.3759
 3764TIP3    H232852   5.281   3.750   0.277 -0.3395 -2.7259 -0.3507
 3765TIP3   OH232853   2.340   4.372   0.076 -0.1316 -0.0492 -0.7707
 3765TIP3    H132854   2.262   4.317   0.075  0.1580 -0.4677 -1.8150
 3765TIP3    H232855   2.357   4.388   0.169 -0.2767 -1.6373 -0.4358
 3766TIP3   OH232856   2.784   6.752   7.695  0.4691 -0.0894  0.0171
 3766TIP3    H132857   2.753   6.831   7.740 -0.6514  0.1499 -1.1189
 3766TIP3    H232858   2.710   6.692   7.698  0.6699 -0.3854 -0.7405
 3767TIP3   OH232859   2.932   4.262   7.817 -0.1040 -0.2268  0.7018
 3767TIP3    H132860   2.935   4.252   7.912 -0.6257  0.1007  0.7565
 3767TIP3    H232861   3.015   4.225   7.787  0.3047  0.1651  1.3242
 3768TIP3   OH232862   2.277   1.346   8.613  0.3166 -0.3313 -0.0290
 3768TIP3    H132863   2.243   1.298   8.689  1.0766  0.4713  0.8334
 3768TIP3    H232864   2.216   1.323   8.543 -0.5691 -0.8775  0.8747
 3769TIP3   OH232865   3.007   3.876   0.535  0.2380 -0.0084  0.6988
 3769TIP3    H132866   2.936   3.866   0.471  1.4881  2.9914 -1.4163
 3769TIP3    H232867   3.077   3.820   0.502  1.2840  2.3558 -1.4076
 3770TIP3   OH232868   2.065   4.612   0.032 -0.0656  0.4041  0.0847
 3770TIP3    H132869   2.095   4.523   0.053 -2.8191 -0.1303  2.2869
 3770TIP3    H232870   2.129   4.644  -0.032  2.1106 -2.4302  0.6345
 3771TIP3   OH232871   3.574   1.384   1.377 -0.3373  0.1487  0.3519
 3771TIP3    H132872   3.633   1.446   1.421 -0.4315 -0.0704  0.7935
 3771TIP3    H232873   3.528   1.340   1.448 -0.9428  0.2217  0.0141
 3772TIP3   OH232874   0.980   2.515   1.431  0.1157 -0.0512  0.2664
 3772TIP3    H132875   0.905   2.456   1.426 -1.5819  1.9820  0.2164
 3772TIP3    H232876   1.023   2.507   1.346 -1.2369  0.2003 -0.4649
 3773TIP3   OH232877   4.241   5.108   0.340 -0.2043  0.2747 -0.1299
 3773TIP3    H132878   4.166   5.052   0.361  0.2587 -0.6556 -0.9502
 3773TIP3    H232879   4.314   5.048   0.328  0.8942  1.2148  1.4406
 3774TIP3   OH232880   2.563   4.772   2.881  0.3943 -0.2618  0.4999
 3774TIP3    H132881   2.600   4.849   2.837 -0.7539 -0.4523 -0.8491
 3774TIP3    H232882   2.636   4.710   2.886  1.1869  0.6802  1.1028
 3775TIP3   OH232883   3.491   1.821   8.591  0.1702 -0.6122 -0.7515
 3775TIP3    H132884   3.485   1.728   8.568 -0.9430 -0.5307 -0.8662
 3775TIP3    H232885   3.445   1.866   8.520 -0.7249 -0.1192  0.1190
 3776TIP3   OH232886   3.320   6.678   8.276 -0.6169  0.1644  0.5710
 3776TIP3    H132887   3.256   6.735   8.234  0.3470  2.3055  1.8500
 3776TIP3    H232888   3.365   6.635   8.202 -0.7587  1.7751 -0.5005
 3777TIP3   OH232889   1.429   5.914   8.429 -0.0075 -0.1310 -0.2497
 3777TIP3    H132890   1.340   5.886   8.452 -0.2031 -0.4114 -1.3300
 3777TIP3    H232891   1.421   5.951   8.341  1.2323 -1.6402 -1.0268
 3778TIP3   OH232892   4.741   2.240   7.819 -0.4721 -0.7617 -0.0696
 3778TIP3    H132893   4.746   2.254   7.724 -0.7875 -2.4175 -0.3608
 3778TIP3    H232894   4.832   2.245   7.848 -0.5809  3.1914  0.1716
 3779TIP3   OH232895   3.610   3.368   1.013  0.0461 -0.1285  0.4020
 3779TIP3    H132896   3.620   3.462   1.028  1.0558  0.2570 -2.1050
 3779TIP3    H232897   3.566   3.363   0.928  2.0879 -1.8707 -0.6368
 3780TIP3   OH232898   5.744   2.842   6.383  0.0571  0.2281  0.2691
 3780TIP3    H132899   5.724   2.749   6.373  0.4970  0.1589 -0.0148
 3780TIP3    H232900   5.690   2.871   6.457  0.1796 -0.3347  0.5871
 3781TIP3   OH232901   6.565   2.998   7.746  0.5584 -0.6322 -0.5939
 3781TIP3    H132902   6.623   3.012   7.821 -1.3015  0.3642  0.7169
 3781TIP3    H232903   6.556   3.084   7.705 -0.5638 -0.5986 -0.3180
 3782TIP3   OH232904   5.364   3.145   7.342  0.2994 -0.3457  0.5255
 3782TIP3    H132905   5.436   3.205   7.324 -0.8984  0.4876 -1.8163
 3782TIP3    H232906   5.366   3.083   7.270 -0.5353 -1.1283  1.1535
 3783TIP3   OH232907   3.919   6.778   0.724  0.8432  0.2894 -0.5678
 3783TIP3    H132908   3.836   6.799   0.681  0.2992  3.1009  1.5525
 3783TIP3    H232909   3.985   6.811   0.663  0.2088  1.4201 -0.6807
 3784TIP3   OH232910   0.886   0.028   2.180  0.0596  0.7603  0.2664
 3784TIP3    H132911   0.957  -0.004   2.235  0.7948  1.2231 -0.4012
 3784TIP3    H232912   0.928   0.086   2.117 -1.0951  2.2110  0.7686
 3785TIP3   OH232913   1.002   4.516   1.035  0.2513 -0.2206  0.2404
 3785TIP3    H132914   1.030   4.564   1.113  0.7344  0.6075 -0.4247
 3785TIP3    H232915   1.084   4.490   0.992 -0.0030 -1.3637  0.4009
 3786TIP3   OH232916   6.182   2.340   6.867  0.5138 -0.3676  0.0105
 3786TIP3    H132917   6.247   2.387   6.816  2.0853  0.3995  2.5420
 3786TIP3    H232918   6.125   2.408   6.903  0.7419 -0.6500  0.9538
 3787TIP3   OH232919   5.671   6.816   3.185 -0.4815  0.7084 -0.0237
 3787TIP3    H132920   5.747   6.815   3.127 -0.2154 -0.3999  0.3196
 3787TIP3    H232921   5.708   6.811   3.273 -0.8785  2.4638  0.2844
 3788TIP3   OH232922   5.067   6.005   3.187  0.2595  0.1147 -0.2988
 3788TIP3    H132923   5.092   5.937   3.249  0.8729 -0.2317 -0.9198
 3788TIP3    H232924   5.006   5.962   3.127  1.1655 -0.0799 -1.0958
 3789TIP3   OH232925   6.494   3.456   0.347 -0.4885 -0.8671  0.3753
 3789TIP3    H132926   6.468   3.458   0.439 -1.6117 -1.6685  0.0941
 3789TIP3    H232927   6.584   3.423   0.348 -0.0336  0.3536  1.2596
 3790TIP3   OH232928   5.324   3.757   2.344 -0.3944  0.4504 -0.0069
 3790TIP3    H132929   5.376   3.777   2.421 -0.1646 -1.0925  0.2658
 3790TIP3    H232930   5.315   3.841   2.299  0.2807  1.1904  1.1842
 3791TIP3   OH232931   5.055   4.511   0.727  0.0585  1.0521  0.2616
 3791TIP3    H132932   5.121   4.442   0.732 -0.8047  0.2470  1.1188
 3791TIP3    H232933   5.034   4.532   0.818 -1.5657  0.5524  0.0493
 3792TIP3   OH232934   5.339   5.922   7.134  0.3887  0.0975  0.6120
 3792TIP3    H132935   5.251   5.958   7.147 -1.0132 -1.9937 -2.0358
 3792TIP3    H232936   5.392   5.997   7.105 -0.8915  1.1084  0.7964
 3793TIP3   OH232937   3.268   3.919   7.739  0.8843  0.1272  0.4233
 3793TIP3    H132938   3.184   3.875   7.749  1.3483 -0.4601  2.0458
 3793TIP3    H232939   3.267   3.953   7.650 -0.5597 -0.9342 -0.0014
 3794TIP3   OH232940   2.789   0.880   7.422  0.1152  0.1592 -0.1335
 3794TIP3    H132941   2.762   0.842   7.338  2.3016 -1.4032 -0.2166
 3794TIP3    H232942   2.760   0.817   7.488  0.5803  0.1362  0.0531
 3795TIP3   OH232943   0.636   3.887   1.954  0.2358 -0.0509 -0.6411
 3795TIP3    H132944   0.556   3.898   1.903 -0.7307  0.8472  0.9835
 3795TIP3    H232945   0.623   3.806   2.002  0.1223  0.2920 -0.0856
 3796TIP3   OH232946   6.406   4.964   2.629  0.2824  0.4588 -0.3490
 3796TIP3    H132947   6.340   4.897   2.649  1.1673  0.2415  2.2577
 3796TIP3    H232948   6.365   5.046   2.654  0.3113  0.5391 -0.5645
 3797TIP3   OH232949   5.216   6.554   2.574 -0.6685  0.1929 -0.1204
 3797TIP3    H132950   5.204   6.603   2.655 -0.1566  0.9211 -0.4692
 3797TIP3    H232951   5.297   6.505   2.586 -0.1748  0.9090 -0.4767
 3798TIP3   OH232952   4.692   6.470   8.617 -0.2831  0.5416  0.1380
 3798TIP3    H132953   4.627   6.486   8.686 -1.0666  0.4377 -0.5519
 3798TIP3    H232954   4.678   6.378   8.593  0.6653  0.2893  0.5230
 3799TIP3   OH232955   4.340   6.083   1.245 -0.1593  0.5643  0.1725
 3799TIP3    H132956   4.354   5.988   1.240  0.8555  0.7087  0.2375
 3799TIP3    H232957   4.413   6.121   1.197 -1.6766  1.2801 -1.7057
 3800TIP3   OH232958   5.284   2.189   1.348 -0.2855  0.6218 -0.1920
 3800TIP3    H132959   5.208   2.246   1.341 -0.1697  0.8737  0.5369
 3800TIP3    H232960   5.296   2.176   1.442  0.6419  0.6721 -0.2946
 3801TIP3   OH232961   0.860   5.099   1.676  0.3670  0.1588  0.9508
 3801TIP3    H132962   0.789   5.150   1.638 -0.8511 -1.2117  1.2941
 3801TIP3    H232963   0.864   5.128   1.767  0.9239  0.9309  0.6900
 3802TIP3   OH232964   0.214   0.080   1.852  0.2054 -0.4717 -0.2207
 3802TIP3    H132965   0.182   0.155   1.802  0.3206 -1.5033 -1.9366
 3802TIP3    H232966   0.144   0.015   1.846 -0.1222 -0.3293  1.7091
 3803TIP3   OH232967   5.741   2.511   1.923  0.1989  0.2503  0.1673
 3803TIP3    H132968   5.763   2.440   1.983  0.9552  0.9364  0.7091
 3803TIP3    H232969   5.713   2.583   1.979 -2.0300 -0.0802 -0.4317
 3804TIP3   OH232970   3.325   1.338   7.477  0.2615  0.0371 -0.0092
 3804TIP3    H132971   3.238   1.303   7.458 -0.0200  0.5328  0.3649
 3804TIP3    H232972   3.377   1.318   7.399 -0.4955  0.7848 -0.7124
 3805TIP3   OH232973   3.216   1.812   8.012  0.0638  0.5544 -1.1489
 3805TIP3    H132974   3.249   1.901   8.000 -2.6973  1.6962 -1.0172
 3805TIP3    H232975   3.258   1.781   8.092  0.2350  2.1587 -0.5891
 3806TIP3   OH232976   5.743   3.385   8.544 -0.2336 -0.2757 -0.1211
 3806TIP3    H132977   5.800   3.436   8.487  0.1303 -0.6393 -0.0810
 3806TIP3    H232978   5.669   3.444   8.562  0.9880  0.9014  1.3087
 3807TIP3   OH232979   2.998   2.011   7.842 -0.2582 -0.1721  0.5056
 3807TIP3    H132980   3.030   1.983   7.756 -1.5431  1.1576 -0.4627
 3807TIP3    H232981   3.068   2.066   7.877  0.6972 -1.5187  0.7854
 3808TIP3   OH232982   4.023   5.896   0.244  0.1152  0.3564  0.5617
 3808TIP3    H132983   3.984   5.903   0.157  0.1961  0.2584  0.5170
 3808TIP3    H232984   3.987   5.814   0.279  0.2152  0.3094  0.5537
 3809TIP3   OH232985   4.831   1.296   2.580  0.2392 -0.1051  0.2385
 3809TIP3    H132986   4.776   1.253   2.646  2.5499 -1.3577  1.4562
 3809TIP3    H232987   4.910   1.322   2.627  1.9128 -0.8999 -1.9540
 3810TIP3   OH232988   3.304   4.289   0.092  0.2499 -0.0988 -0.0455
 3810TIP3    H132989   3.223   4.331   0.063  0.8780  1.2008  0.0019
 3810TIP3    H232990   3.294   4.198   0.066 -1.2970 -0.0081  0.1118
 3811TIP3   OH232991   3.790   6.751   1.331 -0.0685  0.0028  0.4897
 3811TIP3    H132992   3.834   6.795   1.403 -0.2847  1.1483 -0.0572
 3811TIP3    H232993   3.740   6.680   1.372  1.4213 -0.6683  1.2310
 3812TIP3   OH232994   2.897   3.340   7.143 -0.0637 -0.1187 -0.5477
 3812TIP3    H132995   2.911   3.411   7.205 -2.7225  3.0921 -3.2490
 3812TIP3    H232996   2.984   3.322   7.107  0.9135  0.5541  1.3318
 3813TIP3   OH232997   1.461   1.715   7.745  0.3851  0.2895 -0.2690
 3813TIP3    H132998   1.505   1.668   7.674  0.2056 -0.3472  0.0324
 3813TIP3    H232999   1.492   1.805   7.737  1.5468 -0.0833 -0.2331
 3814TIP3   OH233000   1.627   1.699   2.180  0.0742  0.1567  0.1811
 3814TIP3    H133001   1.679   1.693   2.260  0.7795  0.0404 -0.2805
 3814TIP3    H233002   1.546   1.742   2.207 -1.2181 -2.9263  1.7120
 3815TIP3   OH233003   6.205   3.336   1.858 -0.4311  0.3983 -0.2893
 3815TIP3    H133004   6.244   3.254   1.888 -1.0154  0.2320  0.0432
 3815TIP3    H233005   6.243   3.351   1.772 -1.2749 -0.8985 -0.9254
 3816TIP3   OH233006   0.246   5.757   8.627  0.1679  0.2110 -0.2360
 3816TIP3    H133007   0.203   5.823   8.572 -1.0315 -1.0678 -0.8822
 3816TIP3    H233008   0.226   5.674   8.585  0.8415 -0.6495  1.0954
 3817TIP3   OH233009   0.847   1.790   1.184  0.5039  0.5255  0.0068
 3817TIP3    H133010   0.772   1.731   1.196  1.1679 -0.2723  0.3500
 3817TIP3    H233011   0.868   1.820   1.273  1.6421 -0.6045  0.1436
 3818TIP3   OH233012   0.699   2.679   1.487 -0.5192 -0.9893  0.1822
 3818TIP3    H133013   0.756   2.604   1.473  1.1289  0.0368  1.1849
 3818TIP3    H233014   0.711   2.734   1.409 -1.4039 -1.5192 -0.3525
 3819TIP3   OH233015   1.055   0.120   0.806 -0.3798 -0.2804  0.2867
 3819TIP3    H133016   1.123   0.185   0.788 -0.6295  0.0094  0.3719
 3819TIP3    H233017   1.064   0.056   0.736  0.9438 -1.0492  1.1298
 3820TIP3   OH233018   5.979   4.823   0.116  0.1215 -0.4554 -0.1208
 3820TIP3    H133019   5.969   4.911   0.078 -0.9432  1.0761  3.3398
 3820TIP3    H233020   5.893   4.783   0.103  0.7225 -1.2435 -2.0550
 3821TIP3   OH233021   4.072   4.246   6.859  0.4378 -0.2809  0.3768
 3821TIP3    H133022   4.126   4.172   6.831  1.9694  0.5844  0.9264
 3821TIP3    H233023   4.072   4.305   6.784 -0.3111 -0.5683  0.1435
 3822TIP3   OH233024   4.530   2.652   0.242 -0.0626  0.0884 -0.5153
 3822TIP3    H133025   4.441   2.625   0.220  0.1015 -0.1163 -0.9378
 3822TIP3    H233026   4.556   2.595   0.314 -0.8239  1.1571  0.6457
 3823TIP3   OH233027   1.185   6.027   2.225  0.2004  0.2619 -0.1572
 3823TIP3    H133028   1.119   6.031   2.156 -0.5215 -0.0622  0.5021
 3823TIP3    H233029   1.141   6.063   2.303  1.0657  0.8136  0.0962
 3824TIP3   OH233030   2.462   1.094   2.223  0.3518  0.0704  0.0925
 3824TIP3    H133031   2.491   1.134   2.305 -0.6862  0.5078  0.2714
 3824TIP3    H233032   2.523   1.125   2.157  0.9073  0.1106  0.6240
 3825TIP3   OH233033   0.602   3.538   1.992  0.2318  0.0432  0.5551
 3825TIP3    H133034   0.576   3.589   1.916  1.4088 -0.6958 -0.3869
 3825TIP3    H233035   0.698   3.547   1.996  0.3850 -1.3968  0.8333
 3826TIP3   OH233036   2.723   2.933   8.364  0.5524 -0.0338 -0.6466
 3826TIP3    H133037   2.756   3.002   8.422 -0.1451 -0.8797  0.8086
 3826TIP3    H233038   2.635   2.963   8.339  0.4796 -0.1061 -0.4838
 3827TIP3   OH233039   2.059   2.771   2.268 -0.1472  0.2948 -0.0331
 3827TIP3    H133040   1.975   2.812   2.289  0.7013  1.1342  1.9762
 3827TIP3    H233041   2.038   2.703   2.205 -1.9628  2.2044 -1.6115
 3828TIP3   OH233042   5.783   4.767   1.806  0.1069  0.1601 -0.0757
 3828TIP3    H133043   5.796   4.676   1.833  0.7358  0.3659  0.3368
 3828TIP3    H233044   5.693   4.787   1.832 -0.7840 -0.9792 -2.0422
 3829TIP3   OH233045   6.864   6.862   2.755 -0.3738 -0.0536 -0.2855
 3829TIP3    H133046   6.809   6.789   2.784  0.6087  0.1006  2.1924
 3829TIP3    H233047   6.846   6.932   2.818  2.0360  0.2572  0.1250
 3830TIP3   OH233048   0.907   2.213   8.113  0.4170  0.3954  0.0686
 3830TIP3    H133049   0.925   2.233   8.021 -0.5833  1.5541  0.1082
 3830TIP3    H233050   0.993   2.200   8.152  0.8614  0.0706 -0.9821
 3831TIP3   OH233051   6.121   5.406   2.302 -0.1403 -0.5343 -0.3141
 3831TIP3    H133052   6.196   5.360   2.263  1.5764  1.8134 -0.0233
 3831TIP3    H233053   6.128   5.389   2.396 -0.7437 -1.3480 -0.4114
 3832TIP3   OH233054   3.548   5.235   8.490  0.0908 -0.5003  0.3042
 3832TIP3    H133055   3.487   5.263   8.559  0.4773 -0.2239  0.5354
 3832TIP3    H233056   3.619   5.299   8.493 -0.3561  0.0948 -1.0140
 3833TIP3   OH233057   0.900   3.848   8.329 -0.0550 -0.1193  0.2306
 3833TIP3    H133058   0.862   3.806   8.252 -0.0264  1.4932 -0.7274
 3833TIP3    H233059   0.958   3.916   8.293  1.2559 -0.4010  1.6759
 3834TIP3   OH233060   6.826   4.944   0.620 -0.0859  0.2260 -0.5819
 3834TIP3    H133061   6.777   4.962   0.700  1.3048  2.0060 -0.0535
 3834TIP3    H233062   6.805   5.017   0.562 -1.2274 -1.1408 -1.9643
 3835TIP3   OH233063   1.102   6.798   2.333  0.0345 -0.1893 -0.0006
 3835TIP3    H133064   1.072   6.754   2.413 -0.7883 -1.7023 -1.0825
 3835TIP3    H233065   1.195   6.777   2.328 -0.3289 -1.8284 -0.4540
 3836TIP3   OH233066   2.553   0.522   1.148  0.5739 -0.3804  0.6427
 3836TIP3    H133067   2.484   0.552   1.206  0.8765 -0.2069  0.9122
 3836TIP3    H233068   2.602   0.458   1.199 -0.7151 -2.2018 -0.2690
 3837TIP3   OH233069   0.751   6.190   3.066  0.0376 -0.3404 -0.3985
 3837TIP3    H133070   0.753   6.095   3.078  1.5372 -0.1516  1.1357
 3837TIP3    H233071   0.667   6.217   3.103 -0.4069 -1.0428 -0.8602
 3838TIP3   OH233072   1.896   2.161   7.911 -0.3046  0.3858  0.1269
 3838TIP3    H133073   1.896   2.239   7.856 -0.4525 -0.0873 -0.5460
 3838TIP3    H233074   1.974   2.112   7.885 -1.8898 -1.3076 -1.8083
 3839TIP3   OH233075   1.454   4.323   1.040 -0.0026 -0.2636 -0.3199
 3839TIP3    H133076   1.418   4.380   1.108  0.0012 -1.1648  0.4514
 3839TIP3    H233077   1.492   4.383   0.976  0.7301  0.5848  0.8721
 3840TIP3   OH233078   6.377   3.482   8.009  0.6779 -0.1561  0.0635
 3840TIP3    H133079   6.351   3.393   7.988 -1.1985  0.1801  0.7510
 3840TIP3    H233080   6.432   3.509   7.936  1.4101 -1.9067 -0.0856
 3841TIP3   OH233081   1.513   5.247   0.914 -0.1396  0.5033 -0.6209
 3841TIP3    H133082   1.494   5.278   1.002 -0.5798  3.6616 -1.6945
 3841TIP3    H233083   1.430   5.210   0.883 -0.7683  1.8618 -0.6106
 3842TIP3   OH233084   5.995   6.054   2.526 -0.1212 -0.5384 -0.3904
 3842TIP3    H133085   6.043   6.005   2.593 -2.1545 -0.3606  1.2985
 3842TIP3    H233086   6.028   6.143   2.534 -0.0688 -0.5981  0.0925
 3843TIP3   OH233087   0.622   2.093   0.618 -0.2569  0.5584  0.4950
 3843TIP3    H133088   0.617   2.006   0.577  1.4789  0.4589  0.4403
 3843TIP3    H233089   0.536   2.105   0.659 -0.5962 -1.0930  0.3339
 3844TIP3   OH233090   5.668   6.757   1.299 -0.5572 -0.1543 -0.1108
 3844TIP3    H133091   5.704   6.805   1.374 -0.4200 -0.8999  0.3103
 3844TIP3    H233092   5.580   6.731   1.328 -1.5268  1.7246 -1.1606
 3845TIP3   OH233093   0.098   3.969   6.943 -0.0066 -0.2328  0.0130
 3845TIP3    H133094   0.182   4.015   6.931 -0.1815 -0.0883 -0.7346
 3845TIP3    H233095   0.111   3.915   7.021  1.5405 -1.8677 -1.2939
 3846TIP3   OH233096   3.158   6.249   7.933  0.1224  0.0879  0.0703
 3846TIP3    H133097   3.097   6.322   7.923  1.4823  1.6699  2.2593
 3846TIP3    H233098   3.164   6.236   8.028  2.7056 -0.3494 -0.0728
 3847TIP3   OH233099   2.332   0.053   0.963  0.2116 -0.1464 -0.3422
 3847TIP3    H133100   2.371   0.066   1.050 -1.0054 -3.6845  0.9374
 3847TIP3    H233101   2.269   0.125   0.954 -1.2027 -0.7811  2.7909
 3848TIP3   OH233102   1.239   6.392   8.508 -0.3444 -0.1665  0.0512
 3848TIP3    H133103   1.162   6.384   8.564 -0.0385 -1.5886  0.3092
 3848TIP3    H233104   1.306   6.340   8.551  0.6681  0.7673 -0.3531
 3849TIP3   OH233105   5.934   0.323   2.430 -0.5637  0.2094 -0.9661
 3849TIP3    H133106   5.956   0.393   2.490 -0.3158  0.6613 -1.5696
 3849TIP3    H233107   5.841   0.307   2.442 -0.3021 -0.4603  0.3100
 3850TIP3   OH233108   0.479   3.520   2.273 -0.2675 -0.1704  0.6368
 3850TIP3    H133109   0.524   3.510   2.189 -0.7773 -0.8234  0.4319
 3850TIP3    H233110   0.399   3.569   2.252 -1.4360 -2.1145  0.3550
 3851TIP3   OH233111   4.404   1.747   7.973  0.3167 -0.8093  0.2493
 3851TIP3    H133112   4.470   1.678   7.972  0.7773 -0.4014 -1.4952
 3851TIP3    H233113   4.337   1.716   7.912  0.9578  0.6317 -1.2684
 3852TIP3   OH233114   2.127   5.822   0.872 -0.1196 -0.7449  0.2192
 3852TIP3    H133115   2.209   5.870   0.861 -0.3415 -0.3529  0.2538
 3852TIP3    H233116   2.114   5.819   0.967  1.2798 -3.2504  0.4022
 3853TIP3   OH233117   5.460   2.079   2.628 -0.2637 -0.5655 -0.0952
 3853TIP3    H133118   5.425   2.143   2.567  0.4936 -0.4782 -0.4555
 3853TIP3    H233119   5.426   2.105   2.714  0.7923  0.9016 -0.0859
 3854TIP3   OH233120   2.903   0.388   1.137  0.2094  0.3378 -0.3714
 3854TIP3    H133121   2.923   0.380   1.043  0.1463  0.3869 -0.3892
 3854TIP3    H233122   2.912   0.482   1.155  1.8443  0.1219  0.0379
 3855TIP3   OH233123   0.752   5.423   0.369  0.1204  0.4780 -0.2089
 3855TIP3    H133124   0.766   5.403   0.461  0.9911 -0.6669 -0.5732
 3855TIP3    H233125   0.672   5.476   0.368 -0.6495 -0.5926  1.0690
 3856TIP3   OH233126   0.821   4.607   2.023  0.1687  0.1989 -0.6825
 3856TIP3    H133127   0.851   4.696   2.041  0.5541 -0.2396  1.0778
 3856TIP3    H233128   0.886   4.571   1.963  1.5279  0.2696  0.6796
 3857TIP3   OH233129   4.523   1.520   8.554  0.0869  0.1083 -0.4959
 3857TIP3    H133130   4.452   1.572   8.516 -1.0957 -2.7624 -2.5736
 3857TIP3    H233131   4.483   1.477   8.630  0.7160  1.2010  0.4906
 3858TIP3   OH233132   2.768   1.958   0.321 -0.0550 -0.2728  0.0604
 3858TIP3    H133133   2.847   1.927   0.278 -0.4868 -1.1976 -0.1044
 3858TIP3    H233134   2.766   2.052   0.305  1.6099 -0.0458  1.0651
 3859TIP3   OH233135   1.887   5.880   0.069  0.3015  0.3127 -0.5409
 3859TIP3    H133136   1.951   5.951   0.064  0.5298  0.3394  1.7835
 3859TIP3    H233137   1.812   5.912   0.020  1.1001  1.3536 -1.1205
 3860TIP3   OH233138   3.491   5.414   1.702 -0.2078  0.4938 -0.5037
 3860TIP3    H133139   3.567   5.369   1.739 -2.1246  0.0842  3.5087
 3860TIP3    H233140   3.487   5.497   1.750 -1.0387  1.5708 -2.3375
 3861TIP3   OH233141   3.792   6.477   7.392 -0.1890  0.3642 -0.0448
 3861TIP3    H133142   3.883   6.460   7.417 -0.0976  0.0484 -0.5754
 3861TIP3    H233143   3.780   6.428   7.311  0.0804  2.9203 -1.7088
 3862TIP3   OH233144   1.130   1.666   7.900 -0.1039  0.0646  0.4318
 3862TIP3    H133145   1.060   1.714   7.944 -0.3276 -0.2780  0.4570
 3862TIP3    H233146   1.192   1.646   7.970 -0.5474 -0.6382  0.6467
 3863TIP3   OH233147   2.203   4.903   2.249 -0.1425  0.5268  0.2747
 3863TIP3    H133148   2.149   4.959   2.194 -1.9668 -1.1548  0.2113
 3863TIP3    H233149   2.180   4.929   2.339 -2.2947 -1.0978  0.2945
 3864TIP3   OH233150   3.269   1.354   2.392  0.1046  0.0720 -0.6264
 3864TIP3    H133151   3.338   1.398   2.342 -0.1309 -0.0638 -1.0676
 3864TIP3    H233152   3.301   1.355   2.483 -0.7432  2.8630 -0.2768
 3865TIP3   OH233153   3.708   0.182   0.023 -0.0290 -0.3906  0.6239
 3865TIP3    H133154   3.638   0.177  -0.042 -0.1943 -0.6307  0.8186
 3865TIP3    H233155   3.664   0.168   0.107 -0.3839  3.0489  1.1756
 3866TIP3   OH233156   3.934   2.845   1.320 -0.4673 -0.7216  0.0427
 3866TIP3    H133157   3.942   2.934   1.355  0.2049 -1.3417  1.5775
 3866TIP3    H233158   3.840   2.826   1.326 -0.3577 -0.9196  1.9444
 3867TIP3   OH233159   6.436   5.064   0.066  0.2618 -0.7265 -0.2220
 3867TIP3    H133160   6.511   5.045   0.010  1.5049  0.4055  0.9609
 3867TIP3    H233161   6.446   5.005   0.141  2.3647  2.0690  1.9201
 3868TIP3   OH233162   4.635   6.533   7.592  0.2830 -0.0194 -0.3480
 3868TIP3    H133163   4.578   6.592   7.543 -0.0881  0.9807  1.2341
 3868TIP3    H233164   4.723   6.567   7.577  0.0399  1.2627  0.8995
 3869TIP3   OH233165   5.536   4.474   7.337  0.1914  0.5525 -0.0636
 3869TIP3    H133166   5.621   4.461   7.294  0.2935  0.4042  0.1803
 3869TIP3    H233167   5.550   4.545   7.399 -0.3530  1.8253 -1.3548
 3870TIP3   OH233168   2.299   4.816   0.793 -0.2026 -0.1233  0.1081
 3870TIP3    H133169   2.206   4.804   0.774  0.0305  0.3246 -1.4741
 3870TIP3    H233170   2.335   4.728   0.795 -0.1708 -0.2277 -2.1811
 3871TIP3   OH233171   4.371   3.869   8.614 -0.2317  0.3886 -0.3048
 3871TIP3    H133172   4.428   3.898   8.685  0.5757 -3.0097  0.6437
 3871TIP3    H233173   4.292   3.837   8.657 -0.9224  0.8270 -1.2101
 3872TIP3   OH233174   3.028   1.882   0.180  0.6577 -0.0027 -0.6420
 3872TIP3    H133175   3.097   1.873   0.245  0.0059  0.0204  0.0598
 3872TIP3    H233176   3.068   1.936   0.111  1.3165  0.0623 -0.2220
 3873TIP3   OH233177   6.677   0.770   1.610 -0.3446 -0.3349  0.1839
 3873TIP3    H133178   6.680   0.812   1.524 -1.1722  0.4729  0.5340
 3873TIP3    H233179   6.747   0.706   1.607  0.3390  0.4176 -0.7164
 3874TIP3   OH233180   4.916   2.093   0.856 -0.2891 -0.4756  0.0483
 3874TIP3    H133181   4.893   2.066   0.766 -0.6654 -2.9943  0.8159
 3874TIP3    H233182   4.881   2.023   0.911  3.1145 -0.9404  1.8894
 3875TIP3   OH233183   2.188   6.367   1.384 -0.2295 -0.7208 -0.4334
 3875TIP3    H133184   2.233   6.403   1.461 -1.4000 -1.2785  0.5363
 3875TIP3    H233185   2.224   6.417   1.311  0.7461 -0.0160  0.4864
 3876TIP3   OH233186   3.455   3.235   0.342  0.6043 -0.0907  0.2099
 3876TIP3    H133187   3.414   3.185   0.272  2.1187  1.5316 -1.9479
 3876TIP3    H233188   3.545   3.203   0.345  0.2253 -1.1800  2.5279
 3877TIP3   OH233189   0.052   0.383   3.109  0.0494  0.1095 -0.1042
 3877TIP3    H133190   0.067   0.421   3.023  0.5324  0.2153  0.0273
 3877TIP3    H233191   0.053   0.458   3.169 -0.8381  0.1051 -0.0708
 3878TIP3   OH233192   3.188   4.108   0.947 -0.2419  0.2858  0.1895
 3878TIP3    H133193   3.188   4.120   0.852 -0.3536 -0.3684  0.1038
 3878TIP3    H233194   3.129   4.034   0.962 -0.7748  0.8137  0.8268
 3879TIP3   OH233195   6.022   2.608   0.342 -0.7042  0.3458 -0.2106
 3879TIP3    H133196   5.956   2.588   0.276 -0.3720  1.2918 -0.8528
 3879TIP3    H233197   6.068   2.685   0.307  1.9981 -1.3518 -0.7283
 3880TIP3   OH233198   5.081   4.617   2.609 -0.6022  0.4235  0.1402
 3880TIP3    H133199   5.123   4.702   2.622 -0.1893  0.0669  1.1991
 3880TIP3    H233200   5.140   4.555   2.651 -1.4608 -0.2558  0.3617
 3881TIP3   OH233201   3.090   5.183   8.338  0.3793 -0.0299  0.3983
 3881TIP3    H133202   3.184   5.190   8.320  0.1086  1.8725 -0.4851
 3881TIP3    H233203   3.080   5.221   8.425  0.3227  0.5101  0.1557
 3882TIP3   OH233204   3.840   5.649   6.530 -0.7742 -0.0227  0.0864
 3882TIP3    H133205   3.790   5.586   6.479 -1.4984  0.7312 -0.1506
 3882TIP3    H233206   3.899   5.690   6.466 -2.0052  1.2539 -0.2848
 3883TIP3   OH233207   6.584   0.957   7.820  0.0892 -0.5682 -0.1297
 3883TIP3    H133208   6.636   0.884   7.853  1.3386  0.2276 -0.2485
 3883TIP3    H233209   6.549   0.925   7.737 -0.7367 -1.5817  0.5794
 3884TIP3   OH233210   4.394   5.687   0.607 -0.5921 -0.2941  0.1770
 3884TIP3    H133211   4.433   5.620   0.663 -0.9672 -1.1002 -0.4958
 3884TIP3    H233212   4.467   5.721   0.556 -0.3598 -0.0105  0.6833
 3885TIP3   OH233213   5.371   0.480   1.770  0.7125 -0.0264  0.7697
 3885TIP3    H133214   5.348   0.478   1.677  1.0446  0.1605  0.6829
 3885TIP3    H233215   5.408   0.567   1.784  0.4042  0.0477  1.1422
 3886TIP3   OH233216   1.735   3.948   7.928  0.2889  0.1341 -0.6646
 3886TIP3    H133217   1.820   3.976   7.894  0.6163  0.2118  0.1768
 3886TIP3    H233218   1.728   3.856   7.906  0.8668 -0.0204 -0.2216
 3887TIP3   OH233219   3.918   4.800   8.621 -0.2295  0.2209 -0.1393
 3887TIP3    H133220   3.869   4.875   8.586  0.3681  0.1735 -1.1286
 3887TIP3    H233221   3.938   4.824   8.711 -0.2335  1.1555 -0.3798
 3888TIP3   OH233222   0.473   2.920   1.386 -0.4281 -0.1787  0.0127
 3888TIP3    H133223   0.434   2.871   1.459 -0.7785  0.2293  0.1059
 3888TIP3    H233224   0.541   2.862   1.352  0.8259  0.2578  1.6677
 3889TIP3   OH233225   0.719   5.482   8.321 -0.8125 -0.3105 -0.3701
 3889TIP3    H133226   0.769   5.400   8.323 -0.0029  0.1420  2.2780
 3889TIP3    H233227   0.758   5.532   8.249  1.1807 -0.8353  0.2697
 3890TIP3   OH233228   1.829   0.954   7.935 -0.0703  0.1222  0.4136
 3890TIP3    H133229   1.752   0.966   7.992 -1.0854 -0.9776 -0.6619
 3890TIP3    H233230   1.880   0.886   7.979  0.1585  0.6697  1.0023
 3891TIP3   OH233231   0.013   1.976   0.396  0.3967 -0.2723 -0.0670
 3891TIP3    H133232   0.047   2.011   0.314 -1.8783  0.5098 -0.7339
 3891TIP3    H233233   0.018   2.049   0.457 -0.9245  0.1672 -0.4473
 3892TIP3   OH233234   1.405   5.233   1.732 -0.1162 -0.6596  0.0677
 3892TIP3    H133235   1.312   5.252   1.743  0.0205  0.0411  0.0428
 3892TIP3    H233236   1.412   5.138   1.746 -1.0247 -0.9351 -1.2090
 3893TIP3   OH233237   6.649   6.881   7.362  0.2175 -0.6129  0.0369
 3893TIP3    H133238   6.564   6.912   7.332  0.4140 -1.6589 -1.7496
 3893TIP3    H233239   6.704   6.959   7.361 -0.0333 -0.4149 -1.5620
 3894TIP3   OH233240   5.363   2.392   0.372  0.8882  0.5362 -0.0458
 3894TIP3    H133241   5.303   2.443   0.426 -0.0682 -1.1327  0.5525
 3894TIP3    H233242   5.346   2.301   0.397  3.1438 -0.0481 -0.4231
 3895TIP3   OH233243   6.663   2.714   7.806 -0.2775 -0.1821 -0.3076
 3895TIP3    H133244   6.633   2.773   7.875 -0.9205 -0.8447 -0.0025
 3895TIP3    H233245   6.729   2.764   7.758  1.1554 -0.1603  1.5867
 3896TIP3   OH233246   2.695   4.201   7.669  0.6442  0.8306  0.0424
 3896TIP3    H133247   2.687   4.122   7.722 -0.0858 -0.2824 -1.6155
 3896TIP3    H233248   2.781   4.237   7.691  0.2167  0.6654  2.2116
 3897TIP3   OH233249   3.250   0.941   8.589  0.1088 -0.1370 -0.6595
 3897TIP3    H133250   3.187   0.990   8.537 -0.3155 -0.4709 -0.4660
 3897TIP3    H233251   3.241   0.977   8.678  0.0668 -0.3085 -0.5949
 3898TIP3   OH233252   1.299   3.647   0.530  0.2973  0.3138 -0.5401
 3898TIP3    H133253   1.270   3.736   0.550  1.6619  0.8828 -0.9932
 3898TIP3    H233254   1.230   3.591   0.566 -0.6550  1.5435 -0.3645
 3899TIP3   OH233255   2.612   1.629   1.093 -0.2522  0.2648  0.5760
 3899TIP3    H133256   2.586   1.569   1.023 -2.2680 -0.3742  1.7896
 3899TIP3    H233257   2.642   1.708   1.048 -1.1124 -0.2781 -1.0083
 3900TIP3   OH233258   3.047   1.774   1.967 -0.4868  0.3715 -0.6320
 3900TIP3    H133259   2.956   1.801   1.981 -0.4560 -0.2135  0.8897
 3900TIP3    H233260   3.046   1.679   1.972  0.4677  0.4179  1.4170
 3901TIP3   OH233261   2.532   6.721   2.072  0.1840  0.3252 -0.0712
 3901TIP3    H133262   2.488   6.636   2.076 -0.2708  0.5274 -0.6520
 3901TIP3    H233263   2.614   6.703   2.025 -0.8806  0.5747 -2.1701
 3902TIP3   OH233264   3.972   1.295   7.962  0.1401  0.5252  0.0152
 3902TIP3    H133265   3.968   1.269   7.870  1.3458 -0.2953  0.1691
 3902TIP3    H233266   4.042   1.361   7.966  0.4450  0.1847  0.4145
 3903TIP3   OH233267   4.216   1.757   6.914 -0.2103  0.4552 -0.0419
 3903TIP3    H133268   4.255   1.732   6.830  1.1488  0.1718  0.6441
 3903TIP3    H233269   4.262   1.838   6.938 -1.8146  1.5064 -0.3705
 3904TIP3   OH233270   5.159   0.336   0.048  0.1659  0.7761  0.1357
 3904TIP3    H133271   5.214   0.274   0.097 -0.6335 -2.0337 -2.2428
 3904TIP3    H233272   5.072   0.326   0.087  0.0609  0.4821 -0.1724
 3905TIP3   OH233273   2.979   5.614   8.568 -0.4107  0.0925 -0.1226
 3905TIP3    H133274   3.070   5.598   8.542 -0.6382 -0.3642 -0.6340
 3905TIP3    H233275   2.969   5.709   8.563  0.2571  0.2227  0.6814
 3906TIP3   OH233276   3.074   3.318   7.952  0.0536  0.1068 -0.9192
 3906TIP3    H133277   3.056   3.388   8.015  0.9275  1.4393 -2.0786
 3906TIP3    H233278   3.047   3.355   7.867  0.6501 -0.9178 -1.5768
 3907TIP3   OH233279   2.280   4.766   0.292  0.1178 -0.1888  0.0262
 3907TIP3    H133280   2.235   4.816   0.225 -2.2147 -0.2656  1.4104
 3907TIP3    H233281   2.289   4.826   0.366  0.1590 -0.8672  0.5891
 3908TIP3   OH233282   1.061   5.023   0.601 -0.6066  0.4418  0.3174
 3908TIP3    H133283   0.977   5.004   0.643 -1.7036 -0.0739 -1.9380
 3908TIP3    H233284   1.040   5.089   0.535  0.0267 -1.7430 -2.2907
 3909TIP3   OH233285   2.991   0.749   8.158  0.7670 -0.6209  0.3207
 3909TIP3    H133286   3.018   0.788   8.075  0.4346 -1.4619 -0.1974
 3909TIP3    H233287   2.955   0.823   8.208  1.4391 -0.0137 -0.0689
 3910TIP3   OH233288   4.050   1.228   2.609  0.5590 -0.0137  0.1929
 3910TIP3    H133289   4.107   1.259   2.679 -0.2490  1.5388  0.2061
 3910TIP3    H233290   3.961   1.249   2.638  0.0191 -1.5579 -0.2377
 3911TIP3   OH233291   2.438   2.942   1.400  0.4287 -0.2256 -0.0930
 3911TIP3    H133292   2.413   3.034   1.406  0.0661 -0.2508 -1.1428
 3911TIP3    H233293   2.410   2.915   1.313  0.7717 -1.2614  0.1104
 3912TIP3   OH233294   5.924   2.782   2.517 -0.2465 -0.0513  0.2078
 3912TIP3    H133295   5.918   2.703   2.463  1.3209 -0.9865  1.2930
 3912TIP3    H233296   5.833   2.809   2.531 -0.7863 -1.2893 -0.7216
 3913TIP3   OH233297   1.326   3.248   0.536  0.3979 -0.0372  0.4593
 3913TIP3    H133298   1.420   3.258   0.520  0.2019  0.9790 -0.1012
 3913TIP3    H233299   1.321   3.178   0.601  1.5522  0.0216  0.6385
 3914TIP3   OH233300   4.145   0.967   2.611 -0.0433  0.4889  0.5794
 3914TIP3    H133301   4.060   0.926   2.627 -0.8129  1.5512 -0.6730
 3914TIP3    H233302   4.127   1.061   2.607  1.1073  0.6979 -0.1519
 3915TIP3   OH233303   3.804   2.670   0.595 -0.1458  0.5961 -0.5827
 3915TIP3    H133304   3.729   2.649   0.540 -0.3647 -0.2175  0.0106
 3915TIP3    H233305   3.798   2.765   0.610 -2.4225  0.2502  1.3820
 3916TIP3   OH233306   4.191   1.138   2.098 -0.4563  0.2036 -0.4936
 3916TIP3    H133307   4.220   1.054   2.062 -0.6099  0.8609 -2.2265
 3916TIP3    H233308   4.112   1.117   2.148 -0.0169 -0.8007 -0.2038
 3917TIP3   OH233309   2.978   1.698   0.994  0.1153  0.3801  0.3543
 3917TIP3    H133310   3.004   1.623   0.940 -0.7852  1.1764 -1.2627
 3917TIP3    H233311   2.966   1.661   1.081 -3.0708 -2.0335 -0.9127
 3918TIP3   OH233312   4.732   5.572   0.878  0.2310 -0.1554  0.1015
 3918TIP3    H133313   4.694   5.660   0.884 -1.1141 -0.3588 -3.1636
 3918TIP3    H233314   4.820   5.587   0.843  0.6620 -0.0514  1.1980
 3919TIP3   OH233315   1.869   6.560   0.546  0.1649 -0.0734  0.4194
 3919TIP3    H133316   1.932   6.590   0.480 -1.1081 -1.5106 -1.5430
 3919TIP3    H233317   1.899   6.600   0.627  2.8204  0.3875 -0.6890
 3920TIP3   OH233318   4.314   0.365   7.669  0.0614 -0.5780 -0.2802
 3920TIP3    H133319   4.300   0.447   7.715  1.0131 -1.6754  2.1287
 3920TIP3    H233320   4.397   0.377   7.623  1.8104 -1.0889  2.5052
 3921TIP3   OH233321   0.964   1.490   3.209 -0.2392  0.3624 -0.1521
 3921TIP3    H133322   0.894   1.474   3.273  1.3275 -0.1790  1.4829
 3921TIP3    H233323   0.991   1.403   3.180  0.1142  0.5465 -0.3854
 3922TIP3   OH233324   3.058   0.968   1.623 -0.1477 -0.1881  0.0374
 3922TIP3    H133325   3.059   0.964   1.528 -0.6776  0.0039  0.0191
 3922TIP3    H233326   3.041   1.060   1.643 -2.1067 -0.5699  0.2840
 3923TIP3   OH233327   1.402   1.489   1.214 -0.4580 -0.4799  0.0815
 3923TIP3    H133328   1.311   1.510   1.234 -0.7649 -0.9380 -0.7991
 3923TIP3    H233329   1.416   1.403   1.255 -0.2119 -0.1110  0.7895
 3924TIP3   OH233330   1.063   2.966   1.047  0.3104  0.0932 -0.3067
 3924TIP3    H133331   1.057   2.906   0.972 -1.4054 -0.5873  0.3423
 3924TIP3    H233332   1.147   3.010   1.035  0.9394 -1.3677 -1.6098
 3925TIP3   OH233333   6.671   1.796   7.063  0.2074  0.2430 -0.2983
 3925TIP3    H133334   6.712   1.730   7.008 -0.2825  0.2599 -0.6888
 3925TIP3    H233335   6.577   1.779   7.055 -0.0734  2.2660 -2.0425
 3926TIP3   OH233336   2.603   0.367   2.758  0.2496  0.5826 -0.0630
 3926TIP3    H133337   2.518   0.407   2.740 -0.7261 -0.8565  1.1468
 3926TIP3    H233338   2.588   0.309   2.833  1.9995 -0.6682 -0.5983
 3927TIP3   OH233339   3.471   1.500   2.265  0.2709 -0.2114  0.2495
 3927TIP3    H133340   3.433   1.566   2.323 -0.4552 -0.9780  0.6759
 3927TIP3    H233341   3.546   1.543   2.226 -0.2578  0.9102  0.4163
 3928TIP3   OH233342   2.101   4.914   1.216 -0.0646  0.5173  0.2364
 3928TIP3    H133343   2.172   4.853   1.197  1.0282  2.1879 -1.3158
 3928TIP3    H233344   2.029   4.858   1.247  0.8556 -1.5668 -1.1636
 3929TIP3   OH233345   4.169   0.490   2.543  0.5899  0.1971  0.6202
 3929TIP3    H133346   4.088   0.479   2.592  0.6433  0.0445  0.6754
 3929TIP3    H233347   4.215   0.561   2.588 -0.4244  1.7088 -0.6268
 3930TIP3   OH233348   3.600   5.867   8.141  0.0075 -0.2655 -0.1375
 3930TIP3    H133349   3.603   5.963   8.139  0.2935 -0.2661 -1.8320
 3930TIP3    H233350   3.674   5.842   8.196  0.6590  0.4895 -0.6428
 3931TIP3   OH233351   3.388   0.847   1.296 -0.1059  0.1551 -0.2014
 3931TIP3    H133352   3.294   0.834   1.302 -0.0161 -1.1005 -1.0574
 3931TIP3    H233353   3.404   0.931   1.340 -1.4150 -0.3247  1.2810
 3932TIP3   OH233354   1.865   2.960   7.991 -0.3863 -0.2975  0.2087
 3932TIP3    H133355   1.815   2.919   8.062  1.2012 -0.9852  0.9760
 3932TIP3    H233356   1.957   2.947   8.016  0.1945  0.3201 -1.4936
 3933TIP3   OH233357   3.887   2.225   1.103 -0.4576  0.8113 -0.5420
 3933TIP3    H133358   3.835   2.155   1.143 -1.3681  1.2787 -0.8820
 3933TIP3    H233359   3.978   2.198   1.118 -0.7833 -0.4380 -0.6490
 3934TIP3   OH233360   2.631   1.098   2.004 -0.1759 -0.3645  0.4927
 3934TIP3    H133361   2.686   1.057   1.937  0.6463 -0.0959  0.9894
 3934TIP3    H233362   2.612   1.185   1.970  1.9414  0.5472  1.4662
 3935TIP3   OH233363   1.984   0.774   8.099 -0.3552 -1.1203  0.0160
 3935TIP3    H133364   2.070   0.770   8.141 -0.6324 -0.0945  0.7382
 3935TIP3    H233365   1.927   0.812   8.166 -1.0025 -0.2222 -1.0055
 3936TIP3   OH233366   1.251   5.794   2.053  0.0828  0.1032  0.0390
 3936TIP3    H133367   1.165   5.767   2.020  0.7262 -0.5200 -1.2165
 3936TIP3    H233368   1.235   5.876   2.099 -1.5424 -1.0954  1.7947
 3937TIP3   OH233369   2.009   1.104   2.991  0.1989 -0.2879 -0.2760
 3937TIP3    H133370   2.066   1.180   3.001  0.4728 -0.5945  0.6014
 3937TIP3    H233371   2.002   1.068   3.080 -0.9289 -0.5661 -0.4619
 3938TIP3   OH233372   2.737   4.726   1.629  0.1107  0.3688  0.0803
 3938TIP3    H133373   2.753   4.632   1.638 -1.1601  0.2127  1.0095
 3938TIP3    H233374   2.795   4.754   1.558 -0.2427 -1.3126 -0.9148
 3939TIP3   OH233375   4.454   4.299   1.958 -0.1213  0.2314 -0.3090
 3939TIP3    H133376   4.415   4.283   1.872 -0.8685 -1.1700  0.2540
 3939TIP3    H233377   4.547   4.277   1.947 -0.4532 -1.1958 -0.4772
 3940TIP3   OH233378   4.786   4.426   1.569  0.3683  0.0960  0.0368
 3940TIP3    H133379   4.836   4.426   1.651  1.4968  1.8299 -0.5858
 3940TIP3    H233380   4.822   4.354   1.519  0.3221 -0.3912  0.6874
 3941TIP3   OH233381   5.121   1.604   0.950 -0.5272 -0.1018  0.2437
 3941TIP3    H133382   5.132   1.512   0.925 -2.1290  0.1791 -1.8202
 3941TIP3    H233383   5.187   1.650   0.898 -0.4626  0.0057  0.4239
 3942TIP3   OH233384   5.157   5.437   0.539 -0.2109 -0.0529  0.5466
 3942TIP3    H133385   5.104   5.444   0.618 -0.6947 -1.0668  0.3378
 3942TIP3    H233386   5.094   5.416   0.470  0.2005  0.8636 -0.1210
 3943TIP3   OH233387   0.189   2.765   1.278  0.8614  0.0329  0.7434
 3943TIP3    H133388   0.106   2.775   1.324 -0.1575 -1.9347 -0.5063
 3943TIP3    H233389   0.250   2.734   1.344 -0.4672 -2.3427  0.9819
 3944TIP3   OH233390   1.621   2.053   0.562 -0.3923  0.0929  0.2349
 3944TIP3    H133391   1.695   2.102   0.598  0.5114 -1.8640  1.2389
 3944TIP3    H233392   1.544   2.106   0.582  0.3496  0.3751  2.7094
 3945TIP3   OH233393   5.304   1.074   8.072 -0.1707  0.2600  0.4874
 3945TIP3    H133394   5.329   0.982   8.073  0.5926  0.4333 -0.5790
 3945TIP3    H233395   5.266   1.088   7.985 -1.2501  0.7154  1.0183
 3946TIP3   OH233396   0.241   0.166   0.097  0.5958  0.1832 -0.0627
 3946TIP3    H133397   0.326   0.123   0.083  0.2056 -0.9143  0.7973
 3946TIP3    H233398   0.180   0.094   0.114 -0.8934  0.8075 -2.3458
 3947TIP3   OH233399   1.187   2.724   7.589 -0.0853 -0.3995 -0.4940
 3947TIP3    H133400   1.261   2.688   7.541  1.3492  1.1287  0.4327
 3947TIP3    H233401   1.184   2.673   7.670  1.9201  1.3563  0.8023
 3948TIP3   OH233402   1.940   0.389   2.245 -0.1645  0.9296  0.5588
 3948TIP3    H133403   1.977   0.433   2.169  2.1460 -3.6246 -1.3428
 3948TIP3    H233404   2.003   0.407   2.316  0.9344  0.4510 -0.2704
 3949TIP3   OH233405   5.795   3.175   1.434 -0.0459 -0.2351  0.1406
 3949TIP3    H133406   5.701   3.192   1.432 -0.3080 -1.4322 -2.0798
 3949TIP3    H233407   5.801   3.082   1.455  0.4466 -0.6878 -1.7591
 3950TIP3   OH233408   3.264   4.863   8.324  0.1546  0.6505 -0.2882
 3950TIP3    H133409   3.360   4.859   8.328  0.1201 -1.1308 -0.6574
 3950TIP3    H233410   3.238   4.885   8.414  0.8694  0.1243  0.0578
 3951TIP3   OH233411   4.525   0.014   7.163  0.0466  0.2231  0.5628
 3951TIP3    H133412   4.619  -0.007   7.161  0.5692  2.3364  0.4814
 3951TIP3    H233413   4.512   0.052   7.250 -0.7818 -0.1802  0.6193
 3952TIP3   OH233414   2.561   1.498   2.188 -0.0307  0.6459  0.2580
 3952TIP3    H133415   2.632   1.555   2.218  1.0975  0.7932 -2.4551
 3952TIP3    H233416   2.593   1.409   2.206 -0.3939  0.7387  1.5066
 3953TIP3   OH233417   4.920   2.040   2.569 -0.2029  0.1214  0.0851
 3953TIP3    H133418   4.916   1.945   2.559  0.3604 -0.0509  1.2930
 3953TIP3    H233419   4.831   2.070   2.551 -0.0402 -0.4387 -1.8725
 3954TIP3   OH233420   3.700   3.847   0.071 -0.3397 -0.1087  0.3124
 3954TIP3    H133421   3.662   3.767   0.034  2.3150 -1.5522  0.4886
 3954TIP3    H233422   3.638   3.916   0.048 -1.8715 -1.9273 -1.3447
 3955TIP3   OH233423   2.316   2.227   8.251 -0.0330  1.2670 -0.1007
 3955TIP3    H133424   2.239   2.274   8.283  0.6978  1.5784  1.3056
 3955TIP3    H233425   2.387   2.291   8.254  1.0115  0.1228  1.9915
 3956TIP3   OH233426   4.681   5.740   0.493 -1.0995 -0.0214  0.1557
 3956TIP3    H133427   4.740   5.813   0.509 -1.0501  0.0359 -0.2680
 3956TIP3    H233428   4.631   5.766   0.415 -2.8169  0.6354  1.4158
 3957TIP3   OH233429   1.637   4.154   0.122  0.0563 -0.3601 -0.1882
 3957TIP3    H133430   1.733   4.162   0.121  0.0885 -0.7626 -0.2112
 3957TIP3    H233431   1.608   4.200   0.044  0.2487 -0.4714 -0.3249
 3958TIP3   OH233432   6.357   3.066   1.900  0.5164 -0.0498  0.6413
 3958TIP3    H133433   6.350   3.020   1.817 -1.2763  0.8832  0.2200
 3958TIP3    H233434   6.435   3.030   1.941 -0.5294 -3.1425  0.1700
 3959TIP3   OH233435   4.899   6.557   1.623 -0.0025 -0.7092  0.1834
 3959TIP3    H133436   4.937   6.490   1.679 -0.0636  0.7003  2.0077
 3959TIP3    H233437   4.962   6.629   1.624 -1.5466  0.7305  1.3571
 3960TIP3   OH233438   1.962   3.585   7.509  0.5878 -0.3275  0.4915
 3960TIP3    H133439   1.872   3.551   7.507  1.5212 -3.0756  1.0078
 3960TIP3    H233440   1.988   3.580   7.601  1.2139  0.6989  0.3849
 3961TIP3   OH233441   6.443   2.151   1.639 -0.3438  0.1346 -1.0735
 3961TIP3    H133442   6.461   2.215   1.707 -0.8368 -0.1026 -0.7153
 3961TIP3    H233443   6.364   2.107   1.668  0.2489 -0.9655 -1.0774
 3962TIP3   OH233444   5.191   0.841   6.993 -0.1817  0.0881 -0.1662
 3962TIP3    H133445   5.231   0.895   6.925  0.0119 -0.6123 -0.6107
 3962TIP3    H233446   5.264   0.814   7.048 -0.3697  0.8671  0.4841
 3963TIP3   OH233447   6.290   0.203   1.314 -0.1644  0.3805 -0.5764
 3963TIP3    H133448   6.324   0.228   1.400 -3.2372  0.2590  0.8076
 3963TIP3    H233449   6.257   0.114   1.326 -1.5718  0.7457 -1.5494
 3964TIP3   OH233450   4.925   5.935   0.828  0.1210 -0.2759 -0.0811
 3964TIP3    H133451   4.868   5.993   0.777  1.0110  3.6284  2.8380
 3964TIP3    H233452   4.868   5.899   0.895 -0.2706 -2.3914 -1.4598
 3965TIP3   OH233453   6.467   6.021   7.400  0.3049  0.4819  0.2412
 3965TIP3    H133454   6.539   5.984   7.350  2.0290 -1.0859  3.5095
 3965TIP3    H233455   6.489   6.114   7.409  0.4940  0.5655 -0.9844
 3966TIP3   OH233456   4.548   2.609   2.516 -0.1382 -0.0875  0.1115
 3966TIP3    H133457   4.614   2.649   2.460 -0.7072  0.2338 -0.3432
 3966TIP3    H233458   4.570   2.639   2.604  0.7134 -0.5321  0.0560
 3967TIP3   OH233459   0.023   1.299   3.123  0.2075  0.0730 -0.6193
 3967TIP3    H133460  -0.013   1.211   3.131 -1.7045  0.8057 -0.6122
 3967TIP3    H233461   0.020   1.318   3.030 -2.6586  1.3463 -0.3577
 3968TIP3   OH233462   1.686   1.945   2.052 -0.1303  0.4053 -0.1833
 3968TIP3    H133463   1.667   1.910   1.965 -2.6781  1.2388 -0.0638
 3968TIP3    H233464   1.698   1.867   2.107  1.2201 -0.1297 -1.1825
 3969TIP3   OH233465   0.731   2.719   8.617  0.1375  0.0761  0.1434
 3969TIP3    H133466   0.681   2.679   8.546 -0.7309 -1.8169  1.7459
 3969TIP3    H233467   0.722   2.813   8.603 -1.5026 -0.2483 -1.2185
 3970TIP3   OH233468   3.296   1.873   2.274  0.2069  0.2979 -0.0701
 3970TIP3    H133469   3.304   1.947   2.334  0.8650 -0.5626  0.9473
 3970TIP3    H233470   3.374   1.820   2.292 -1.4741 -1.9503  1.0943
 3971TIP3   OH233471   1.874   0.633   0.224  0.3004  0.3250  0.6055
 3971TIP3    H133472   1.854   0.557   0.169 -1.3584 -0.1883  1.8313
 3971TIP3    H233473   1.961   0.616   0.260  0.4149 -0.4400 -0.0308
 3972TIP3   OH233474   2.630   6.030   1.284 -0.2442  0.6389  0.0234
 3972TIP3    H133475   2.673   6.058   1.365  2.2612 -0.2015 -0.9549
 3972TIP3    H233476   2.649   6.100   1.221 -1.2648  0.7602 -0.1797
 3973TIP3   OH233477   0.240   2.139   0.477  0.1614  0.4030 -0.0009
 3973TIP3    H133478   0.218   2.046   0.477 -1.0479  0.6547  1.6811
 3973TIP3    H233479   0.181   2.179   0.540 -0.3803  2.6010 -1.7451
 3974TIP3   OH233480   2.463   5.134   7.645  0.0675 -0.3695  0.0721
 3974TIP3    H133481   2.557   5.131   7.663 -0.2990 -0.2638  2.2450
 3974TIP3    H233482   2.450   5.216   7.598  0.7424  1.0880  2.2497
 3975TIP3   OH233483   0.763   3.371   7.978 -0.2462  0.5533 -0.3440
 3975TIP3    H133484   0.816   3.416   8.044 -1.8513  0.5758  1.0114
 3975TIP3    H233485   0.826   3.330   7.919  1.2568  2.2213  0.0247
 3976TIP3   OH233486   1.415   3.687   7.751  0.2254  0.5315 -0.2121
 3976TIP3    H133487   1.500   3.671   7.792  0.5472  0.7577 -0.7844
 3976TIP3    H233488   1.364   3.732   7.819 -0.2636 -1.6868  0.9718
 3977TIP3   OH233489   5.628   4.916   8.556 -0.6227 -0.2070  0.1501
 3977TIP3    H133490   5.609   4.998   8.601  0.4946 -1.2191  2.6495
 3977TIP3    H233491   5.659   4.857   8.625  1.0285 -1.9562 -1.9199
 3978TIP3   OH233492   4.880   4.943   2.412  0.0983 -0.0013  0.5324
 3978TIP3    H133493   4.793   4.904   2.418  1.1139 -2.6135 -0.5787
 3978TIP3    H233494   4.914   4.916   2.327  2.3092  0.2306  1.2641
 3979TIP3   OH233495   2.083   5.710   1.563  0.7826  0.1089  0.2206
 3979TIP3    H133496   2.004   5.749   1.526  0.7056  0.3558  0.6423
 3979TIP3    H233497   2.062   5.697   1.656  0.8248 -0.8842  0.1052
 3980TIP3   OH233498   3.501   1.769   2.413  0.2023  0.4575 -0.7216
 3980TIP3    H133499   3.549   1.712   2.473 -1.2372 -1.5490 -1.3618
 3980TIP3    H233500   3.456   1.832   2.470  3.0656  2.1096 -0.0898
 3981TIP3   OH233501   2.390   4.861   7.695 -0.7679 -0.0011 -0.2287
 3981TIP3    H133502   2.393   4.957   7.705  0.6174 -0.1929  1.9698
 3981TIP3    H233503   2.469   4.840   7.644 -1.2717  0.0420 -1.0359
 3982TIP3   OH233504   6.183   1.711   0.328  0.0254 -0.4308  0.2936
 3982TIP3    H133505   6.090   1.688   0.335  0.0116 -0.1632  1.0627
 3982TIP3    H233506   6.196   1.730   0.235 -1.8456  4.2565  0.6833
 3983TIP3   OH233507   3.889   3.738   8.566 -0.6082  0.7334 -0.0644
 3983TIP3    H133508   3.903   3.779   8.481 -0.6078  0.9389  0.0343
 3983TIP3    H233509   3.864   3.810   8.624  1.0580  0.8945  0.5218
 3984TIP3   OH233510   2.475   5.644   8.167 -0.5500 -0.8641 -0.2550
 3984TIP3    H133511   2.559   5.605   8.190 -1.2225 -1.9876  0.3830
 3984TIP3    H233512   2.426   5.645   8.249 -0.8954  0.5345 -0.4436
 3985TIP3   OH233513   6.433   5.370   0.863 -0.9610  0.0960 -0.1765
 3985TIP3    H133514   6.403   5.291   0.907 -0.4556  1.3063  2.5438
 3985TIP3    H233515   6.502   5.341   0.804  0.2996 -1.3797  1.8947
 3986TIP3   OH233516   5.252   1.750   6.548  0.3680 -0.4019  0.0623
 3986TIP3    H133517   5.319   1.682   6.544  1.8605  0.9561  0.8545
 3986TIP3    H233518   5.284   1.819   6.490 -0.5543  0.1150  0.1444
 3987TIP3   OH233519   1.265   3.904   0.639 -0.5640 -0.3271 -0.0473
 3987TIP3    H133520   1.223   3.887   0.723 -0.6553  1.0814  0.2002
 3987TIP3    H233521   1.320   3.981   0.654 -0.2081 -0.3469 -1.1543
 3988TIP3   OH233522   4.300   5.650   1.356  0.7495 -0.0149 -0.9744
 3988TIP3    H133523   4.242   5.723   1.378 -1.3363 -1.4893 -1.2854
 3988TIP3    H233524   4.309   5.654   1.261 -1.6399 -1.6492 -1.3671
 3989TIP3   OH233525   1.720   2.937   0.807 -0.1252  0.0445 -0.5870
 3989TIP3    H133526   1.736   3.030   0.794 -0.0283  0.1510  0.2352
 3989TIP3    H233527   1.714   2.927   0.902  1.3158 -1.0167 -0.5761
 3990TIP3   OH233528   1.403   1.134   1.034 -0.2112  0.3900 -0.3164
 3990TIP3    H133529   1.383   1.065   0.970  2.2573  0.6806 -1.5193
 3990TIP3    H233530   1.421   1.212   0.981 -1.0130  1.4576  0.9233
 3991TIP3   OH233531   4.828   4.982   8.424  0.0315 -0.4648 -0.5842
 3991TIP3    H133532   4.853   5.045   8.357 -0.3448  2.4684  1.7837
 3991TIP3    H233533   4.848   5.027   8.507 -2.6442 -2.4388  1.3009
 3992TIP3   OH233534   0.248   4.104   0.424  0.8242 -0.9646  0.4704
 3992TIP3    H133535   0.167   4.154   0.411 -0.1540 -2.4691  0.5336
 3992TIP3    H233536   0.318   4.167   0.408 -0.3571  0.3183  0.1738
 3993TIP3   OH233537   3.284   6.623   7.667 -0.7646 -0.7191  0.7956
 3993TIP3    H133538   3.254   6.608   7.757  0.3047 -0.8559  1.1518
 3993TIP3    H233539   3.366   6.574   7.661 -1.6640 -2.1158 -0.8089
 3994TIP3   OH233540   4.624   2.778   1.847  0.2456  0.6128  0.4192
 3994TIP3    H133541   4.629   2.732   1.763 -3.3615 -1.4170  1.1009
 3994TIP3    H233542   4.597   2.711   1.909  0.8295  2.4853  2.8328
 3995TIP3   OH233543   2.795   4.965   2.498  0.4779  0.1907 -0.5222
 3995TIP3    H133544   2.804   5.059   2.479 -1.2190  0.8184  1.3510
 3995TIP3    H233545   2.752   4.963   2.584  0.5492 -2.3184 -0.4892
 3996TIP3   OH233546   0.476   0.049   0.101 -0.0302 -0.5846  0.0060
 3996TIP3    H133547   0.470  -0.012   0.174  0.7350  0.3980  0.9273
 3996TIP3    H233548   0.548   0.016   0.047  1.7681  0.5495  1.5786
 3997TIP3   OH233549   5.645   0.281   2.426 -0.2615 -0.2203 -0.0193
 3997TIP3    H133550   5.595   0.232   2.491 -0.3554 -1.0764 -0.7141
 3997TIP3    H233551   5.584   0.345   2.391 -1.5333 -2.4208 -2.1613
 3998TIP3   OH233552   1.815   4.992   2.100  0.7222  0.0519 -0.1897
 3998TIP3    H133553   1.830   4.957   2.012 -0.5443  1.2825 -0.9306
 3998TIP3    H233554   1.870   5.070   2.105  0.3860  0.2850 -0.0876
 3999TIP3   OH233555   5.340   3.043   8.198  0.1822  0.3404 -0.1395
 3999TIP3    H133556   5.287   3.103   8.146 -0.3315 -0.2733 -0.3335
 3999TIP3    H233557   5.277   2.982   8.236  0.8556 -1.5165 -1.8285
 4000TIP3   OH233558   4.567   4.973   6.714 -0.1928 -0.2162 -0.6620
 4000TIP3    H133559   4.585   4.920   6.792 -0.1406 -1.2089 -1.3273
 4000TIP3    H233560   4.487   4.936   6.678 -1.9143  2.1190  0.5047
 4001TIP3   OH233561   1.349   6.162   7.522  0.3715  0.2765  0.4738
 4001TIP3    H133562   1.257   6.149   7.542  0.4646  0.2014  0.8620
 4001TIP3    H233563   1.367   6.103   7.449  0.1909  0.0626  0.6038
 4002TIP3   OH233564   2.284   2.906   2.173  0.2630  0.8513 -0.2536
 4002TIP3    H133565   2.325   2.925   2.088  0.5162  0.0764 -0.3176
 4002TIP3    H233566   2.271   2.811   2.172 -2.1114  1.1420 -0.4692
 4003TIP3   OH233567   1.641   6.480   8.138  0.1989 -0.2105 -0.5291
 4003TIP3    H133568   1.555   6.523   8.144  0.3266 -0.1163  0.9353
 4003TIP3    H233569   1.704   6.550   8.153  0.5562 -0.2651 -1.6795
 4004TIP3   OH233570   4.040   3.699   1.724  0.3246 -0.1621  0.0633
 4004TIP3    H133571   4.088   3.729   1.801 -0.5699  0.7483  0.2939
 4004TIP3    H233572   4.105   3.651   1.672  0.7513 -1.5557  1.7729
 4005TIP3   OH233573   5.155   0.506   7.667  0.0253 -0.3192 -0.2918
 4005TIP3    H133574   5.104   0.512   7.587  1.9030  2.1451 -1.4414
 4005TIP3    H233575   5.104   0.555   7.732 -1.2536 -1.8838 -0.0693
 4006TIP3   OH233576   1.655   0.110   2.037  0.1502  0.0455 -0.3939
 4006TIP3    H133577   1.660   0.193   2.084  4.5205  0.4712 -1.1849
 4006TIP3    H233578   1.651   0.134   1.945  2.0791 -0.5061 -0.6703
 4007TIP3   OH233579   1.519   2.763   1.735  0.1358 -0.3866 -0.4031
 4007TIP3    H133580   1.563   2.843   1.706  0.1644 -0.4620 -0.5705
 4007TIP3    H233581   1.439   2.759   1.683 -0.2333 -0.0791  0.1361
 4008TIP3   OH233582   1.309   3.956   2.275  0.3810  0.0997  0.1223
 4008TIP3    H133583   1.341   4.034   2.230 -0.8608  0.3734 -0.3323
 4008TIP3    H233584   1.291   3.894   2.204 -0.2370  0.0169  0.3514
 4009TIP3   OH233585   0.912   1.911   8.670 -0.1290 -0.1681  0.1215
 4009TIP3    H133586   0.879   1.871   8.589 -4.0447 -1.5568  2.1336
 4009TIP3    H233587   0.975   1.847   8.704  2.5067  0.9640 -2.1692
 4010TIP3   OH233588   0.026   4.323   8.013  0.0443  0.0059 -0.2336
 4010TIP3    H133589   0.048   4.355   7.926  0.3206  1.7496  0.4539
 4010TIP3    H233590  -0.007   4.234   7.997  0.4992  0.1153 -2.0527
 4011TIP3   OH233591   6.604   5.582   0.740  0.0363  0.1225 -0.0942
 4011TIP3    H133592   6.609   5.490   0.712  1.0089 -0.3394  1.4142
 4011TIP3    H233593   6.518   5.590   0.780 -0.0328 -0.1566 -0.1834
 4012TIP3   OH233594   4.744   1.447   8.234 -0.0707  0.8460  0.3005
 4012TIP3    H133595   4.757   1.503   8.311 -0.8416 -0.5269  1.4725
 4012TIP3    H233596   4.745   1.358   8.269  0.4354  0.1443 -1.4301
 4013TIP3   OH233597   6.241   6.663   0.890  0.6774  0.3615 -0.6212
 4013TIP3    H133598   6.158   6.637   0.849  1.0035 -0.0210 -1.0430
 4013TIP3    H233599   6.225   6.653   0.984  0.4181 -0.2392 -0.7262
 4014TIP3   OH233600   1.822   3.374   0.139 -0.0333  0.2273 -0.5400
 4014TIP3    H133601   1.862   3.337   0.060 -0.0139  0.4168 -0.6205
 4014TIP3    H233602   1.819   3.468   0.121 -1.4565  0.1184 -0.9615
 4015TIP3   OH233603   4.512   5.385   2.522 -0.0684 -0.2309  0.4438
 4015TIP3    H133604   4.590   5.408   2.473  0.5691 -0.4183  1.3472
 4015TIP3    H233605   4.528   5.295   2.552  0.4807  0.5445  2.6869
 4016TIP3   OH233606   4.380   2.115   2.236  0.0832  0.4531  0.4541
 4016TIP3    H133607   4.364   2.058   2.311 -0.3449  0.6252  0.4939
 4016TIP3    H233608   4.400   2.200   2.274  0.6458  0.3491  0.3923
 4017TIP3   OH233609   1.943   1.674   6.580  0.5798 -0.2695 -0.2594
 4017TIP3    H133610   1.914   1.590   6.546  1.1080 -1.5367  2.1749
 4017TIP3    H233611   1.864   1.713   6.618  1.0833 -1.8735  2.7375
 4018TIP3   OH233612   1.103   3.440   1.173 -0.0195 -0.2603 -0.2589
 4018TIP3    H133613   1.135   3.518   1.127 -0.9218  0.5748  0.4790
 4018TIP3    H233614   1.057   3.389   1.107  0.5617 -0.1541 -0.7473
 4019TIP3   OH233615   4.182   4.849   0.935 -0.1507  0.3567  0.0267
 4019TIP3    H133616   4.198   4.914   0.866  0.9404  0.3859  0.2863
 4019TIP3    H233617   4.267   4.810   0.951 -0.0902  1.2100  2.2279
 4020TIP3   OH233618   4.671   5.618   8.350  0.4135  0.4687  0.1150
 4020TIP3    H133619   4.735   5.680   8.385 -0.1800  0.8649  0.5216
 4020TIP3    H233620   4.588   5.666   8.352 -0.1424 -0.4845  0.8821
 4021TIP3   OH233621   1.710   2.242   1.110  0.4307  0.4166 -0.1109
 4021TIP3    H133622   1.705   2.149   1.133  0.3263  0.1897 -1.0168
 4021TIP3    H233623   1.662   2.249   1.027 -1.7906  1.7178  1.1671
 4022TIP3   OH233624   6.350   1.320   7.384 -0.6068 -0.1406 -0.2591
 4022TIP3    H133625   6.276   1.264   7.409 -1.3262  1.5476  1.6138
 4022TIP3    H233626   6.313   1.383   7.322 -1.3215  1.8461  2.0171
 4023TIP3   OH233627   5.722   6.789   8.236 -0.4783  0.2356  0.1274
 4023TIP3    H133628   5.652   6.724   8.232 -1.3776  1.1218  0.8295
 4023TIP3    H233629   5.698   6.854   8.170 -1.1648  1.3170  1.3838
 4024TIP3   OH233630   6.693   5.064   0.851  0.2012  0.6913  0.4118
 4024TIP3    H133631   6.731   5.093   0.934  0.8791  1.0726 -0.0202
 4024TIP3    H233632   6.599   5.064   0.867  0.3073  1.0868  1.0821
 4025TIP3   OH233633   3.818   6.582   8.407 -0.4769 -0.1882 -0.2445
 4025TIP3    H133634   3.816   6.676   8.426  2.1687  0.0422 -0.6959
 4025TIP3    H233635   3.871   6.574   8.328 -1.3081 -2.0140 -0.6739
 4026TIP3   OH233636   0.409   4.325   0.351  0.2521 -0.1498 -0.3148
 4026TIP3    H133637   0.368   4.350   0.269  1.7850 -0.4707 -1.2206
 4026TIP3    H233638   0.491   4.374   0.354 -0.4065  0.9636  1.7465
 4027TIP3   OH233639   3.013   2.629   0.440  0.1845  0.0327  0.3383
 4027TIP3    H133640   2.940   2.689   0.425 -0.7596 -1.7963 -3.7832
 4027TIP3    H233641   3.089   2.685   0.454 -1.3134  2.0678  0.6818
 4028TIP3   OH233642   3.024   6.165   2.375 -0.2080 -0.0949 -0.5701
 4028TIP3    H133643   3.011   6.182   2.469  2.4260 -1.9585  0.2625
 4028TIP3    H233644   3.074   6.241   2.345 -1.6514  0.8396 -0.6575
 4029TIP3   OH233645   4.819   3.226   1.078 -0.1308 -0.5001  0.3878
 4029TIP3    H133646   4.725   3.240   1.064 -0.1121 -1.1275 -0.4222
 4029TIP3    H233647   4.847   3.303   1.128 -1.1897 -0.5952  1.1722
 4030TIP3   OH233648   4.755   3.037   2.914 -0.0509  1.0235  0.2701
 4030TIP3    H133649   4.796   3.008   2.832  1.0716 -1.8104  1.6910
 4030TIP3    H233650   4.748   3.132   2.905  2.7406  1.1635 -1.9215
 4031TIP3   OH233651   5.147   5.648   7.571 -0.1462  0.3921 -0.0038
 4031TIP3    H133652   5.068   5.687   7.607  0.0227  0.0524  0.7414
 4031TIP3    H233653   5.184   5.596   7.642  1.6757  1.8988  0.2375
 4032TIP3   OH233654   0.864   4.344   2.157 -0.2073 -0.2202  0.6161
 4032TIP3    H133655   0.951   4.342   2.118  0.1131 -0.2141  1.3185
 4032TIP3    H233656   0.807   4.308   2.089  0.0717  1.3263 -0.4827
 4033TIP3   OH233657   6.348   4.898   2.253 -0.5348  0.2006  0.3129
 4033TIP3    H133658   6.275   4.860   2.302 -0.2877 -1.4942 -0.5513
 4033TIP3    H233659   6.407   4.824   2.238  1.4418  1.5335  1.0840
 4034TIP3   OH233660   2.779   2.766   1.082  0.6765  0.0055 -0.6225
 4034TIP3    H133661   2.803   2.828   1.151 -1.7106 -0.8536  1.1119
 4034TIP3    H233662   2.698   2.801   1.046 -1.2004 -2.3891  0.9673
 4035TIP3   OH233663   5.113   6.845   2.571  0.6703  0.3415  0.0350
 4035TIP3    H133664   5.113   6.753   2.546  4.0618  0.3235 -0.4327
 4035TIP3    H233665   5.105   6.844   2.666 -0.6001 -0.3139 -0.0599
 4036TIP3   OH233666   6.202   2.239   8.347 -0.3017 -0.1321 -0.6614
 4036TIP3    H133667   6.225   2.147   8.335 -0.0521  0.0036 -1.2572
 4036TIP3    H233668   6.176   2.270   8.260  1.4258  0.8366 -0.8947
 4037TIP3   OH233669   3.846   4.481   1.505 -0.2881 -0.1203  0.4331
 4037TIP3    H133670   3.940   4.492   1.521 -0.1146 -1.0384  0.1170
 4037TIP3    H233671   3.832   4.518   1.418  0.0898 -1.3781 -0.1856
 4038TIP3   OH233672   0.944   5.034   1.180 -1.0412 -0.0948 -0.0431
 4038TIP3    H133673   0.958   5.016   1.273 -1.1882 -0.0566 -0.0139
 4038TIP3    H233674   1.006   4.976   1.135 -1.6272 -0.8122  0.0438
 4039TIP3   OH233675   2.723   0.674   0.519  0.4770  0.1181 -0.0803
 4039TIP3    H133676   2.706   0.716   0.603 -3.3214 -0.9620 -0.1220
 4039TIP3    H233677   2.731   0.581   0.540 -0.7216 -0.1874 -0.8802
 4040TIP3   OH233678   4.727   0.714   0.128  0.3768  0.0979  0.2465
 4040TIP3    H133679   4.671   0.663   0.071  0.1391 -0.2575  0.7871
 4040TIP3    H233680   4.809   0.724   0.080  0.0018  0.2504 -0.3642
 4041TIP3   OH233681   6.407   2.069   7.289  0.4249  0.0627  0.0785
 4041TIP3    H133682   6.355   2.115   7.355 -0.3602 -0.7269  0.0212
 4041TIP3    H233683   6.361   2.085   7.207  0.8080  0.1521 -0.1200
 4042TIP3   OH233684   4.592   6.208   8.530 -0.3462  0.1265  0.1659
 4042TIP3    H133685   4.559   6.210   8.440 -0.1265 -1.4871  0.0231
 4042TIP3    H233686   4.528   6.154   8.577  1.1372 -1.6291  0.2597
 4043TIP3   OH233687   3.064   3.128   2.177 -0.3415  0.3347 -0.0824
 4043TIP3    H133688   3.012   3.060   2.135 -0.6134 -0.6954  1.8218
 4043TIP3    H233689   3.070   3.198   2.112 -4.3167  0.6367 -0.3199
 4044TIP3   OH233690   4.721   4.230   1.992 -0.3706 -0.1305 -0.0315
 4044TIP3    H133691   4.771   4.191   2.064 -0.4893  0.2181  0.2490
 4044TIP3    H233692   4.700   4.157   1.934  1.6892 -0.0927 -0.9164
 4045TIP3   OH233693   2.825   1.049   0.933  0.1248 -0.3209 -0.0847
 4045TIP3    H133694   2.799   1.126   0.981  0.5079  1.0910 -2.0069
 4045TIP3    H233695   2.802   1.068   0.842 -1.4258 -3.2118 -0.4413
 4046TIP3   OH233696   0.485   0.530   1.917  0.2009 -0.3325 -0.7232
 4046TIP3    H133697   0.530   0.612   1.900 -1.0643  0.5216 -0.1263
 4046TIP3    H233698   0.546   0.462   1.889  0.7044  0.8298 -2.5916
 4047TIP3   OH233699   4.396   4.604   0.787  0.4195 -0.2487  0.0461
 4047TIP3    H133700   4.485   4.591   0.752  0.4157  0.4303 -0.2366
 4047TIP3    H233701   4.351   4.655   0.719 -0.4175 -1.2158 -0.1469
 4048TIP3   OH233702   1.185   1.833   0.627  0.7174  0.1394 -0.2059
 4048TIP3    H133703   1.109   1.781   0.654 -1.2029  2.8415 -0.0121
 4048TIP3    H233704   1.171   1.847   0.533  1.5311 -0.1570 -0.3740
 4049TIP3   OH233705   1.271   3.450   1.393 -0.4694 -0.3065  0.4442
 4049TIP3    H133706   1.266   3.545   1.404 -1.1520 -0.3269  0.3630
 4049TIP3    H233707   1.192   3.427   1.345  0.1820 -0.8034 -0.4147
 4050TIP3   OH233708   0.186   4.102   1.871  0.1454  0.0118  0.5311
 4050TIP3    H133709   0.114   4.148   1.826 -0.0734  0.0063  0.8680
 4050TIP3    H233710   0.200   4.023   1.819  0.9256  0.7384 -0.3938
 4051TIP3   OH233711   3.138   4.672   7.344  0.1144 -0.7882  0.7232
 4051TIP3    H133712   3.113   4.613   7.273 -1.7694  1.2416 -0.4151
 4051TIP3    H233713   3.221   4.711   7.317 -0.6535  0.0670 -0.4716
 4052TIP3   OH233714   0.227   1.786   6.976  0.1201 -0.1209  0.4429
 4052TIP3    H133715   0.315   1.756   6.954  0.5452 -0.0658  1.9544
 4052TIP3    H233716   0.181   1.706   7.005 -0.3292 -0.1431 -0.2981
 4053TIP3   OH233717   0.405   6.752   8.492  0.4222  0.2438  0.4274
 4053TIP3    H133718   0.472   6.786   8.552  0.5751 -0.5413  0.7029
 4053TIP3    H233719   0.327   6.742   8.546  0.8412 -1.4561  0.7663
 4054TIP3   OH233720   6.256   5.282   8.111  0.1180 -0.2676  0.1565
 4054TIP3    H133721   6.288   5.285   8.021 -0.7302  3.1453 -0.1854
 4054TIP3    H233722   6.330   5.312   8.164  0.2343 -1.0801  0.4617
 4055TIP3   OH233723   4.469   4.514   1.635  0.2809  0.0650 -0.2134
 4055TIP3    H133724   4.494   4.560   1.555 -3.2915  2.7620 -0.0313
 4055TIP3    H233725   4.504   4.568   1.706 -0.4742  0.3197 -0.0150
 4056TIP3   OH233726   3.711   2.110   1.362 -0.7888  0.2486  0.5545
 4056TIP3    H133727   3.803   2.084   1.350 -0.2408  2.2617  0.0607
 4056TIP3    H233728   3.679   2.050   1.429  0.5103 -1.3085 -0.1137
 4057TIP3   OH233729   4.596   1.521   1.283  0.1946 -0.3829  0.4542
 4057TIP3    H133730   4.524   1.459   1.272  1.2700 -1.4205 -1.1735
 4057TIP3    H233731   4.634   1.529   1.196  0.0502  2.7019  0.5608
 4058TIP3   OH233732   5.049   6.207   0.612 -0.6630  0.2531 -0.2484
 4058TIP3    H133733   4.979   6.272   0.619 -1.5520 -0.8786  2.2896
 4058TIP3    H233734   5.072   6.186   0.702 -0.0367 -2.5764 -0.9797
 4059TIP3   OH233735   3.038   4.155   0.381 -0.0193  0.5151 -0.3317
 4059TIP3    H133736   3.010   4.125   0.467 -0.2501  1.8446  0.0831
 4059TIP3    H233737   2.982   4.108   0.319  0.9199 -1.3226  0.1495
 4060TIP3   OH233738   1.169   4.052   2.682  0.2750  0.4445  0.1486
 4060TIP3    H133739   1.260   4.081   2.669  0.4400  0.1916  0.6834
 4060TIP3    H233740   1.122   4.132   2.705  1.1786  0.1044  3.8991
 4061TIP3   OH233741   2.097   5.047   7.806  0.0722  0.7031  0.7397
 4061TIP3    H133742   2.171   5.102   7.780  1.0267 -0.4397  0.9491
 4061TIP3    H233743   2.025   5.108   7.819  1.2890  1.9973  1.7073
 4062TIP3   OH233744   3.556   6.344   2.749  1.3750  0.3514  0.1691
 4062TIP3    H133745   3.601   6.407   2.804  2.0450 -0.4155  0.5199
 4062TIP3    H233746   3.621   6.317   2.685  1.1758 -0.1791  0.1858
 4063TIP3   OH233747   1.750   3.343   1.335 -0.3198  0.4646 -0.5991
 4063TIP3    H133748   1.817   3.397   1.377 -1.0182  1.2835 -0.5023
 4063TIP3    H233749   1.735   3.271   1.396  0.8333 -0.0149 -0.8648
 4064TIP3   OH233750   3.591   4.671   2.080  0.6365 -0.1834 -0.5677
 4064TIP3    H133751   3.507   4.717   2.075 -0.3728 -1.7984  0.5096
 4064TIP3    H233752   3.656   4.739   2.065 -0.8403  1.1932 -1.0648
 4065TIP3   OH233753   5.471   2.796   0.775 -0.4229  0.0056  0.2147
 4065TIP3    H133754   5.400   2.779   0.714 -0.6490 -1.0512  0.7529
 4065TIP3    H233755   5.517   2.713   0.783  1.2546  0.8054 -0.5589
 4066TIP3   OH233756   4.175   2.765   6.991  0.4635  0.8382  0.8916
 4066TIP3    H133757   4.133   2.831   6.935 -1.0416 -1.4149 -0.8384
 4066TIP3    H233758   4.180   2.805   7.077 -0.4281  3.1604 -0.0685
 4067TIP3   OH233759   3.244   5.861   1.603 -0.1701  0.6059  0.3658
 4067TIP3    H133760   3.265   5.880   1.695  0.0713  1.1104  0.2088
 4067TIP3    H233761   3.298   5.921   1.553  1.0861 -0.8914 -0.1721
 4068TIP3   OH233762   1.198   6.058   0.410 -0.3143  0.1659  0.2879
 4068TIP3    H133763   1.285   6.074   0.445  0.7298 -1.0777 -1.5542
 4068TIP3    H233764   1.209   5.982   0.353 -2.6199 -0.0249 -0.0084
 4069TIP3   OH233765   6.089   5.435   1.546  0.1355 -0.2060  0.3938
 4069TIP3    H133766   5.995   5.445   1.528 -0.0548 -1.1962  0.8128
 4069TIP3    H233767   6.121   5.525   1.553 -0.8886  0.1470  0.7708
 4070TIP3   OH233768   1.649   5.322   8.151 -0.3617  0.0191  0.0772
 4070TIP3    H133769   1.709   5.308   8.225  3.1601  0.6403 -2.4109
 4070TIP3    H233770   1.668   5.250   8.091 -4.0630 -1.2006  0.1340
 4071TIP3   OH233771   0.670   4.881   1.085 -0.6377  0.2620 -0.7085
 4071TIP3    H133772   0.631   4.954   1.132 -2.2208 -0.2354 -1.1889
 4071TIP3    H233773   0.765   4.896   1.090 -0.8965  1.6984  0.1919
 4072TIP3   OH233774   4.456   0.613   2.426 -0.9346  0.5492 -0.4976
 4072TIP3    H133775   4.547   0.617   2.455 -0.6887  0.9307 -1.2963
 4072TIP3    H233776   4.405   0.624   2.506 -0.3348 -2.2146  0.3832
 4073TIP3   OH233777   0.455   1.449   2.416 -0.0640 -0.2317  0.0240
 4073TIP3    H133778   0.449   1.386   2.488 -1.3601 -1.4717 -1.1002
 4073TIP3    H233779   0.380   1.506   2.428 -1.8105 -2.0122 -1.6750
 4074TIP3   OH233780   1.591   5.906   1.650  0.0183 -0.2990 -0.5011
 4074TIP3    H133781   1.612   5.999   1.658  1.0316 -0.2970 -2.5001
 4074TIP3    H233782   1.516   5.893   1.708  1.7461  1.0602  2.2228
 4075TIP3   OH233783   0.680   3.852   0.122  0.3932  0.2085  0.4158
 4075TIP3    H133784   0.587   3.828   0.117  0.2609  0.8794 -0.8975
 4075TIP3    H233785   0.724   3.785   0.070  0.4118  0.9080 -0.4910
 4076TIP3   OH233786   4.483   2.562   8.043  0.2694 -0.5496 -0.1281
 4076TIP3    H133787   4.454   2.532   8.129 -0.6365  0.8394  0.0883
 4076TIP3    H233788   4.501   2.655   8.056  0.6561 -0.4490 -1.3141
 4077TIP3   OH233789   5.626   1.448   0.278  0.0237 -0.2759 -0.3209
 4077TIP3    H133790   5.648   1.541   0.277  0.3852 -0.2869  1.6756
 4077TIP3    H233791   5.637   1.420   0.187 -1.5965  1.9310 -1.2831
 4078TIP3   OH233792   1.784   5.139   7.977 -0.5409  0.2071  0.6124
 4078TIP3    H133793   1.730   5.060   7.976  0.0981 -0.2478 -1.1672
 4078TIP3    H233794   1.791   5.165   7.885  1.3049  0.9151  0.9095
 4079TIP3   OH233795   1.427   4.675   8.303 -0.3576  0.6710 -0.0891
 4079TIP3    H133796   1.439   4.659   8.397  0.2180  0.2903 -0.2187
 4079TIP3    H233797   1.414   4.588   8.266  0.3572  0.7286 -0.4866
 4080TIP3   OH233798   5.528   4.867   1.910 -0.2807 -0.1075 -0.0694
 4080TIP3    H133799   5.498   4.928   1.843 -1.7912  0.0168  0.6916
 4080TIP3    H233800   5.460   4.868   1.977  1.0537 -0.4388  1.3612
 4081TIP3   OH233801   0.176   4.607   8.578 -0.0530 -0.7132 -0.1079
 4081TIP3    H133802   0.177   4.547   8.503  1.0822 -0.1207 -0.5919
 4081TIP3    H233803   0.195   4.693   8.540 -1.7601  0.0063  0.5637
 4082TIP3   OH233804   3.525   5.003   1.922 -0.1520  1.0822 -0.0291
 4082TIP3    H133805   3.516   5.098   1.925 -0.5870  1.0237  0.6637
 4082TIP3    H233806   3.531   4.976   2.013  1.2308  0.5482 -0.2581
 4083TIP3   OH233807   2.424   1.029   0.330  0.3074 -0.0376 -0.0781
 4083TIP3    H133808   2.482   0.959   0.299 -0.3099 -0.6172  0.0433
 4083TIP3    H233809   2.356   1.035   0.262 -0.1029 -0.1315  0.3207
 4084TIP3   OH233810   4.513   2.931   3.008 -0.4136  0.4806  0.7846
 4084TIP3    H133811   4.599   2.969   2.985 -0.4466  2.4462  3.4357
 4084TIP3    H233812   4.534   2.845   3.043  0.5970  1.1625  1.9455
 4085TIP3   OH233813   0.966   4.203   7.847 -0.2917  0.0923  0.0377
 4085TIP3    H133814   1.010   4.230   7.928 -1.2391 -0.9929  0.9489
 4085TIP3    H233815   0.909   4.277   7.826 -0.1363  0.3284  0.4347
 4086TIP3   OH233816   6.773   5.851   8.673  0.2329  0.0727 -0.2718
 4086TIP3    H133817   6.729   5.840   8.757 -0.4935  1.0305 -0.5173
 4086TIP3    H233818   6.756   5.769   8.626 -0.2067 -0.0657  0.1224
 4087TIP3   OH233819   5.802   5.806   7.919  0.2964 -0.2047  0.0908
 4087TIP3    H133820   5.849   5.732   7.881  0.4049  0.4621 -1.0994
 4087TIP3    H233821   5.832   5.809   8.010  0.4619 -1.4713  0.0952
 4088TIP3   OH233822   3.468   0.558   6.557  0.4701  0.0045 -0.3690
 4088TIP3    H133823   3.424   0.551   6.473  0.7105  0.7065 -0.5604
 4088TIP3    H233824   3.424   0.631   6.602 -0.8664 -1.4786  0.8750
 4089TIP3   OH233825   2.144   2.501   1.255 -0.1162  0.0449  0.1475
 4089TIP3    H133826   2.095   2.432   1.209  1.0604  0.2222 -1.4829
 4089TIP3    H233827   2.216   2.455   1.297  1.7787  0.3448 -2.4862
 4090TIP3   OH233828   2.222   4.564   7.655 -0.1234  0.1981  0.3383
 4090TIP3    H133829   2.305   4.571   7.702 -0.2279 -0.5750  0.6418
 4090TIP3    H233830   2.246   4.545   7.565  0.1548  3.2210 -0.3488
 4091TIP3   OH233831   2.220   2.110   1.051  0.7308  0.0313  0.0286
 4091TIP3    H133832   2.134   2.147   1.075  1.0411  0.6817  0.1675
 4091TIP3    H233833   2.201   2.019   1.027 -0.2340  0.5956 -1.4793
 4092TIP3   OH233834   6.758   4.144   0.523  0.3064 -0.6208 -0.0454
 4092TIP3    H133835   6.720   4.231   0.523  0.6739 -0.4581  0.7891
 4092TIP3    H233836   6.792   4.133   0.434  0.7753  0.3083  0.0110
 4093TIP3   OH233837   3.425   6.192   2.926 -0.2459  0.0915 -0.2967
 4093TIP3    H133838   3.469   6.242   2.857 -0.0259  0.5055  0.1405
 4093TIP3    H233839   3.375   6.257   2.975  0.6195  0.0133  0.7249
 4094TIP3   OH233840   0.409   0.561   7.429  0.1648  0.2983 -0.3005
 4094TIP3    H133841   0.375   0.472   7.438  1.6639 -0.3262 -0.5906
 4094TIP3    H233842   0.341   0.616   7.467 -0.8718 -0.9450 -0.2704
 4095TIP3   OH233843   1.342   0.877   1.455 -0.4623 -0.1041 -0.5683
 4095TIP3    H133844   1.419   0.882   1.398  1.3535 -2.3213  1.4573
 4095TIP3    H233845   1.319   0.784   1.457 -2.2239  0.3024  0.1598
 4096TIP3   OH233846   1.605   3.126   2.329  0.7166 -0.6750 -0.2834
 4096TIP3    H133847   1.604   3.048   2.385 -0.2603  0.1586  0.9270
 4096TIP3    H233848   1.618   3.199   2.390 -2.2178  0.4422 -0.8448
 4097TIP3   OH233849   1.907   3.941   7.541 -0.2718 -0.1804  0.4367
 4097TIP3    H133850   1.814   3.919   7.536  0.4619 -3.5572 -2.1621
 4097TIP3    H233851   1.945   3.874   7.597  0.9786 -0.8753 -1.1573
 4098TIP3   OH233852   0.246   6.120   7.662 -0.0244  0.0097  0.0058
 4098TIP3    H133853   0.269   6.029   7.681 -0.4567 -0.0563  0.2310
 4098TIP3    H233854   0.251   6.126   7.566 -1.5555 -0.7006 -0.1509
 4099TIP3   OH233855   1.185   1.626   2.087 -0.4582 -0.0802  0.1022
 4099TIP3    H133856   1.103   1.662   2.121 -0.1449 -0.4418  1.2817
 4099TIP3    H233857   1.175   1.532   2.095  0.6960 -0.0993  1.8401
 4100TIP3   OH233858   6.495   0.017   8.176  0.0721  0.3960 -0.5926
 4100TIP3    H133859   6.457   0.067   8.104  0.4006  1.1065 -0.2798
 4100TIP3    H233860   6.518   0.083   8.241  1.4229 -0.0524 -0.5861
 4101TIP3   OH233861   4.510   2.964   0.257 -0.4547 -0.1347 -0.5095
 4101TIP3    H133862   4.422   2.930   0.241 -0.2962 -0.1432 -1.4275
 4101TIP3    H233863   4.497   3.057   0.276 -0.7840 -0.4384  0.8760
 4102TIP3   OH233864   5.338   2.269   0.708  0.5949 -0.7420  0.5323
 4102TIP3    H133865   5.280   2.209   0.661  1.3817 -0.8781 -0.2816
 4102TIP3    H233866   5.425   2.230   0.698  1.0117  0.1566  0.6195
 4103TIP3   OH233867   6.672   4.129   8.168  0.1997  0.8082  0.1323
 4103TIP3    H133868   6.587   4.170   8.157  0.6709  2.0881  1.0084
 4103TIP3    H233869   6.721   4.189   8.224  1.5109 -0.1418  0.0671
 4104TIP3   OH233870   3.658   5.426   1.200  0.2960  0.3084  0.0631
 4104TIP3    H133871   3.634   5.336   1.222  0.1390  0.6867  1.6049
 4104TIP3    H233872   3.665   5.470   1.285  0.5750  1.7016 -0.6472
 4105TIP3   OH233873   3.759   4.403   7.920 -0.1275 -0.4439  0.0741
 4105TIP3    H133874   3.758   4.343   7.845  2.0514 -1.1065  0.4968
 4105TIP3    H233875   3.849   4.399   7.953 -0.5047  1.3638  1.5155
 4106TIP3   OH233876   1.507   2.785   7.650  0.7900 -0.3488  0.0704
 4106TIP3    H133877   1.443   2.800   7.720 -0.2097  0.8308 -1.0565
 4106TIP3    H233878   1.482   2.700   7.614  0.0634 -0.0568 -0.1362
 4107TIP3   OH233879   5.553   3.785   1.439 -0.0145  0.0417  0.3896
 4107TIP3    H133880   5.644   3.813   1.442 -0.1502  0.6451 -0.6698
 4107TIP3    H233881   5.502   3.866   1.443 -0.5486 -0.3316  1.8092
 4108TIP3   OH233882   5.093   5.047   0.699 -0.0330 -0.3513  0.1508
 4108TIP3    H133883   5.186   5.041   0.677  0.0419  1.7831 -0.3299
 4108TIP3    H233884   5.048   5.005   0.626  0.5251 -0.0952 -0.3465
 4109TIP3   OH233885   5.665   4.265   0.474  0.1192 -0.2061 -0.3273
 4109TIP3    H133886   5.737   4.258   0.537  2.2311 -0.8444 -2.6539
 4109TIP3    H233887   5.664   4.180   0.430  1.1953  1.2962 -3.5640
 4110TIP3   OH233888   1.082   3.690   1.717 -0.3860  0.2640  0.0034
 4110TIP3    H133889   1.158   3.648   1.758  0.1928  1.3768  0.1139
 4110TIP3    H233890   1.049   3.626   1.655  1.7033  0.3958 -1.3251
 4111TIP3   OH233891   0.167   6.709   2.627  0.0860 -0.2965  0.4527
 4111TIP3    H133892   0.117   6.745   2.700  2.2738 -1.0730  2.4864
 4111TIP3    H233893   0.220   6.782   2.595  0.0435 -0.2519  0.4849
 4112TIP3   OH233894   4.429   6.285   0.629  0.3869  0.5265 -0.2712
 4112TIP3    H133895   4.476   6.270   0.711  1.9590  2.0600 -0.8160
 4112TIP3    H233896   4.347   6.238   0.639  0.2062  1.2469  2.4852
 4113TIP3   OH233897   4.833   4.438   7.644  0.2536 -0.3125  0.3344
 4113TIP3    H133898   4.840   4.425   7.549 -0.6128 -0.8838  0.3328
 4113TIP3    H233899   4.897   4.506   7.664  0.5348 -0.2744 -0.6434
 4114TIP3   OH233900   4.292   0.337   1.538  0.2341 -0.2586 -0.7017
 4114TIP3    H133901   4.223   0.400   1.559 -0.5415 -0.6691 -1.9170
 4114TIP3    H233902   4.331   0.370   1.457 -0.3947 -1.4920 -1.5261
 4115TIP3   OH233903   3.747   6.487   7.763 -0.2697  0.2399 -0.2418
 4115TIP3    H133904   3.813   6.553   7.789  0.6702 -0.0059 -1.8979
 4115TIP3    H233905   3.797   6.407   7.751 -1.1467 -0.3641  0.0579
 4116TIP3   OH233906   3.516   6.628   2.343 -0.4946  0.0366 -0.1264
 4116TIP3    H133907   3.577   6.556   2.326 -2.3234 -2.1528  1.8716
 4116TIP3    H233908   3.553   6.672   2.420 -0.7497 -0.4773  0.2958
 4117TIP3   OH233909   5.515   6.713   2.648  0.0276 -1.1865 -0.1999
 4117TIP3    H133910   5.483   6.665   2.724 -2.2309 -1.9803 -1.5293
 4117TIP3    H233911   5.477   6.801   2.657  1.9427 -0.4153  0.8658
 4118TIP3   OH233912   6.555   1.047   2.663  0.2210  0.7333 -0.4473
 4118TIP3    H133913   6.461   1.034   2.650 -0.0911  2.1654  0.2071
 4118TIP3    H233914   6.584   1.090   2.582 -0.4721  3.7063  0.7248
 4119TIP3   OH233915   6.160   2.228   1.488 -0.1243  0.0966 -0.6151
 4119TIP3    H133916   6.170   2.303   1.429 -1.2893 -0.2733 -1.2981
 4119TIP3    H233917   6.206   2.156   1.444 -2.1762 -0.5491 -1.7982
 4120TIP3   OH233918   0.521   3.093   8.458  0.5935 -0.8385  0.3614
 4120TIP3    H133919   0.594   3.146   8.427 -0.6995  0.2400 -0.9843
 4120TIP3    H233920   0.483   3.056   8.379 -1.1891 -0.1978  0.8744
 4121TIP3   OH233921   0.011   5.240   2.475 -0.1172  0.7434 -0.0870
 4121TIP3    H133922   0.052   5.155   2.463 -0.1076  1.0131 -2.5143
 4121TIP3    H233923   0.075   5.303   2.441 -0.6926  1.5910  0.3369
 4122TIP3   OH233924   0.345   3.377   1.729  0.1643 -0.1344  0.0230
 4122TIP3    H133925   0.382   3.306   1.781  2.2216  1.1380  0.3964
 4122TIP3    H233926   0.360   3.456   1.781 -1.2109  0.7247 -0.8059
 4123TIP3   OH233927   2.204   2.391   7.952  0.3336 -0.2655  0.1508
 4123TIP3    H133928   2.281   2.444   7.928 -0.3939  0.3982 -0.7775
 4123TIP3    H233929   2.196   2.403   8.047  1.6031 -0.6587  0.3224
 4124TIP3   OH233930   2.555   4.903   1.950  0.3521  0.6281  0.6383
 4124TIP3    H133931   2.518   4.872   2.032  0.2731 -0.9455  0.0420
 4124TIP3    H233932   2.643   4.865   1.947  0.8128  1.6608  0.5284
 4125TIP3   OH233933   5.234   3.814   8.644  0.4832 -0.4603 -0.1782
 4125TIP3    H133934   5.301   3.882   8.639  0.9625 -0.8188  1.1105
 4125TIP3    H233935   5.181   3.828   8.565  2.2104 -0.3409 -1.3895
 4126TIP3   OH233936   5.972   2.255   6.614  0.1102  0.2514 -0.6426
 4126TIP3    H133937   5.906   2.267   6.546  0.5522 -0.0297 -1.1322
 4126TIP3    H233938   5.974   2.338   6.661 -2.9430 -0.7091  1.5316
 4127TIP3   OH233939   3.038   5.245   1.587 -0.1393 -0.3810 -0.3246
 4127TIP3    H133940   3.128   5.218   1.569  0.6991  2.2759 -0.6292
 4127TIP3    H233941   3.036   5.338   1.562 -2.8034 -0.1991  0.2790
 4128TIP3   OH233942   0.913   3.951   2.041 -0.0774  0.2995  0.0054
 4128TIP3    H133943   0.928   4.043   2.023 -2.1427  0.4520 -1.2481
 4128TIP3    H233944   0.822   3.935   2.014  0.3718 -2.2201 -0.3086
 4129TIP3   OH233945   1.360   2.665   1.380 -0.2076 -0.1705 -0.1001
 4129TIP3    H133946   1.446   2.638   1.346 -0.4784 -1.9415  0.5395
 4129TIP3    H233947   1.319   2.711   1.306  0.1078 -1.9728 -1.4816
 4130TIP3   OH233948   1.745   2.894   7.723 -0.2653  0.2799  0.1393
 4130TIP3    H133949   1.789   2.829   7.669  0.8586  0.9560  0.1990
 4130TIP3    H233950   1.653   2.868   7.723 -0.3821  0.4999 -2.4345
 4131TIP3   OH233951   5.853   0.634   8.004  0.2199  0.2205 -0.2569
 4131TIP3    H133952   5.918   0.640   8.074  0.0831  0.1011 -0.1204
 4131TIP3    H233953   5.900   0.662   7.926  0.7429 -0.8806 -0.3524
 4132TIP3   OH233954   5.409   2.669   7.892  0.4877  0.2387  0.7368
 4132TIP3    H133955   5.342   2.726   7.928  0.0378 -0.0525  0.3690
 4132TIP3    H233956   5.463   2.645   7.967 -0.7485 -0.7876  1.3188
 4133TIP3   OH233957   1.104   2.317   0.934  0.3654  0.5710  0.3785
 4133TIP3    H133958   1.086   2.243   0.876  0.2062 -0.0940  1.2717
 4133TIP3    H233959   1.033   2.379   0.916 -1.1967 -0.7584  1.7345
 4134TIP3   OH233960   6.297   2.584   1.573 -0.9126  0.9117  0.1895
 4134TIP3    H133961   6.276   2.491   1.582 -2.0310  1.2762  1.7948
 4134TIP3    H233962   6.255   2.610   1.490 -1.1605  0.1375  0.0630
 4135TIP3   OH233963   4.643   3.522   8.363 -0.6003 -0.2413 -0.0508
 4135TIP3    H133964   4.717   3.465   8.380 -1.0368 -0.8148 -0.0509
 4135TIP3    H233965   4.681   3.601   8.324  0.0005 -0.5323 -0.0564
 4136TIP3   OH233966   6.657   0.424   7.481 -0.0173  0.0664 -0.4829
 4136TIP3    H133967   6.746   0.453   7.502  0.5025 -0.8221 -1.3792
 4136TIP3    H233968   6.606   0.504   7.474  0.6934  0.5827  0.1143
 4137TIP3   OH233969   6.036   6.646   0.167  0.0873  0.2236 -0.4213
 4137TIP3    H133970   5.954   6.633   0.215 -0.1755  0.7192 -0.7299
 4137TIP3    H233971   6.028   6.733   0.129  0.1841 -0.2638 -1.5880
 4138TIP3   OH233972   0.925   4.552   8.400  0.5469 -0.0480 -0.1550
 4138TIP3    H133973   0.893   4.462   8.396 -1.8521  0.6574  1.2564
 4138TIP3    H233974   0.978   4.555   8.480 -1.9538  0.4510  1.5901
 4139TIP3   OH233975   1.495   4.110   7.864 -0.0833 -0.1453  0.0159
 4139TIP3    H133976   1.550   4.037   7.892  0.9745  1.1900  1.5892
 4139TIP3    H233977   1.411   4.069   7.841  0.9198 -1.9921 -0.5355
 4140TIP3   OH233978   4.284   4.017   0.597 -0.2007 -0.4552 -0.3364
 4140TIP3    H133979   4.215   4.066   0.641  1.1687 -0.5192  2.0754
 4140TIP3    H233980   4.245   3.932   0.577 -0.8895 -0.4319  0.8409
 4141TIP3   OH233981   3.003   3.892   8.561  0.1704 -0.4655 -0.0498
 4141TIP3    H133982   2.982   3.958   8.495 -1.7269 -0.1855  0.7887
 4141TIP3    H233983   3.034   3.816   8.510  0.8754  0.4949 -1.1026
 4142TIP3   OH233984   3.260   4.530   8.280  0.3595  0.1932  0.1526
 4142TIP3    H133985   3.334   4.547   8.339 -0.1309  3.2463  0.0613
 4142TIP3    H233986   3.295   4.548   8.193  0.1364 -0.8442 -0.1662
 4143TIP3   OH233987   1.436   3.237   2.140 -1.0755  0.0320  0.5076
 4143TIP3    H133988   1.450   3.167   2.076  1.4719 -0.4141  1.4134
 4143TIP3    H233989   1.492   3.213   2.214 -1.7011  1.9988  1.6977
 4144TIP3   OH233990   4.693   4.807   8.208 -0.0953 -0.2229 -0.0635
 4144TIP3    H133991   4.730   4.892   8.232  0.4576 -0.4944  0.0591
 4144TIP3    H233992   4.745   4.779   8.133 -0.2892 -0.4445 -0.1144
 4145TIP3   OH233993   5.817   5.815   0.756  0.7366 -0.4213  0.3447
 4145TIP3    H133994   5.845   5.818   0.848  1.1510 -1.3738  0.2636
 4145TIP3    H233995   5.722   5.816   0.760  0.7183 -1.8154  0.8704
 4146TIP3   OH233996   3.846   0.172   3.048 -0.1919  0.4586 -0.2382
 4146TIP3    H133997   3.836   0.097   3.108 -2.0073  0.7673 -0.0864
 4146TIP3    H233998   3.790   0.150   2.974  0.5921  0.9260 -0.9822
 4147TIP3   OH233999   2.798   6.456   2.106  0.8035  0.1802 -0.0195
 4147TIP3    H134000   2.790   6.552   2.103  0.9409  0.3399  2.7050
 4147TIP3    H234001   2.891   6.440   2.092  0.9128  0.4874  0.3508
 4148TIP3   OH234002   1.927   3.648   2.048  0.3034  0.2878 -0.7201
 4148TIP3    H134003   1.877   3.595   2.110  1.6531 -1.0208 -0.6866
 4148TIP3    H234004   1.982   3.704   2.104  0.7438 -0.1341 -0.7196
 4149TIP3   OH234005   0.325   0.595   0.614  0.7552  0.5831  0.0014
 4149TIP3    H134006   0.338   0.595   0.709  0.2526  0.2922  0.0739
 4149TIP3    H234007   0.297   0.506   0.593  0.7127  0.6880 -0.3989
 4150TIP3   OH234008   1.688   4.315   0.449 -0.3118 -0.3072 -0.5390
 4150TIP3    H134009   1.654   4.313   0.360 -1.5657 -2.4725 -0.0758
 4150TIP3    H234010   1.755   4.247   0.451  1.2020  1.0993 -0.3011
 4151TIP3   OH234011   1.395   2.497   1.639 -0.1994 -0.1387 -0.0755
 4151TIP3    H134012   1.456   2.441   1.590 -1.7565 -1.6913 -0.3273
 4151TIP3    H234013   1.442   2.520   1.719  1.4256  0.3049 -1.1140
 4152TIP3   OH234014   4.354   1.870   7.270  1.0098  0.4039  0.8030
 4152TIP3    H134015   4.403   1.788   7.274 -0.6692 -0.7047 -0.0591
 4152TIP3    H234016   4.322   1.884   7.359  1.1916  0.0493  0.9258
 4153TIP3   OH234017   0.988   1.788   8.102 -0.8040 -0.2522 -0.6102
 4153TIP3    H134018   1.038   1.842   8.163 -0.9396  0.7920 -1.3969
 4153TIP3    H234019   0.899   1.823   8.106 -0.5903  0.5455 -2.1831
 4154TIP3   OH234020   5.087   3.096   7.097 -0.1269 -0.3269 -0.0972
 4154TIP3    H134021   5.042   3.098   7.013 -1.2265 -0.2637  0.4834
 4154TIP3    H234022   5.124   3.184   7.106  0.4081 -0.4730 -0.7121
 4155TIP3   OH234023   4.206   4.057   2.316 -0.4334  0.4028 -0.1308
 4155TIP3    H134024   4.170   4.138   2.280 -0.0781  0.6490  0.0682
 4155TIP3    H234025   4.149   4.037   2.391 -0.7916  0.2256 -0.4459
 4156TIP3   OH234026   0.372   1.868   1.861  0.0585  0.5556  0.3890
 4156TIP3    H134027   0.349   1.908   1.777 -0.0881  0.4819  0.3943
 4156TIP3    H234028   0.312   1.793   1.869  0.6197  0.0717  0.1724
 4157TIP3   OH234029   0.455   5.213   0.234 -0.4927 -0.2301 -0.3567
 4157TIP3    H134030   0.509   5.191   0.310  0.3006  0.7039 -0.6281
 4157TIP3    H234031   0.396   5.282   0.265 -0.8346 -0.5373 -0.3275
 4158TIP3   OH234032   0.329   6.069   8.153 -0.1736 -0.5694  0.0724
 4158TIP3    H134033   0.272   6.131   8.198  0.6006  0.3489 -0.1683
 4158TIP3    H234034   0.410   6.118   8.137 -0.2760 -0.9728 -2.0032
 4159TIP3   OH234035   0.834   5.725   7.701  0.3673  0.3058 -0.4858
 4159TIP3    H134036   0.793   5.640   7.719  0.1529  0.2102 -1.3883
 4159TIP3    H234037   0.773   5.769   7.642  1.1867  0.4756 -1.2262
 4160TIP3   OH234038   3.559   6.060   7.768  0.2580  0.0218 -0.4063
 4160TIP3    H134039   3.507   6.058   7.687 -0.6205  0.8339  0.1244
 4160TIP3    H234040   3.516   6.124   7.823  0.7378 -0.6587  0.8019
 4161TIP3   OH234041   4.071   5.272   2.070 -0.1655 -0.1252  0.4556
 4161TIP3    H134042   4.130   5.239   2.002  0.3260 -0.0292  0.8314
 4161TIP3    H234043   4.035   5.353   2.034  1.5323  0.9279  1.0546
 4162TIP3   OH234044   2.037   3.430   7.708 -0.7431 -0.6503 -0.0523
 4162TIP3    H134045   2.052   3.359   7.771 -0.5331 -0.6094 -0.0557
 4162TIP3    H234046   2.047   3.510   7.761 -2.4706 -0.6283  0.2976
 4163TIP3   OH234047   2.479   6.813   2.681 -0.1016 -0.1221 -0.0061
 4163TIP3    H134048   2.407   6.787   2.623 -2.5266  1.2486  2.2013
 4163TIP3    H234049   2.520   6.887   2.635  0.9090 -1.7821 -1.9434
 4164TIP3   OH234050   4.309   5.332   2.779  0.1272 -0.1310  0.1340
 4164TIP3    H134051   4.300   5.388   2.856  0.2989 -1.8516  1.4586
 4164TIP3    H234052   4.398   5.298   2.785 -0.0603 -0.7428 -0.5191
 4165TIP3   OH234053   2.149   5.063   0.182 -0.6331 -0.0370 -0.5780
 4165TIP3    H134054   2.243   5.050   0.199 -0.5614 -1.0033 -1.5924
 4165TIP3    H234055   2.120   5.122   0.252  0.8224  0.6336 -0.5027
 4166TIP3   OH234056   6.507   6.165   8.331 -0.5595 -0.0338  0.5107
 4166TIP3    H134057   6.534   6.074   8.316 -1.2496  0.0103 -1.1308
 4166TIP3    H234058   6.411   6.160   8.340 -0.7671  0.6788 -1.0314
 4167TIP3   OH234059   1.273   5.878   7.518  0.6530 -0.2691 -0.2941
 4167TIP3    H134060   1.204   5.812   7.525  0.6632 -0.1124  1.6201
 4167TIP3    H234061   1.226   5.957   7.490  0.4696 -0.7665 -1.4630
 4168TIP3   OH234062   6.702   5.483   1.784  0.1706 -0.7082  0.0258
 4168TIP3    H134063   6.718   5.497   1.877 -1.1921 -0.4289  0.2377
 4168TIP3    H234064   6.611   5.510   1.771  0.6008  0.0893 -1.5601
 4169TIP3   OH234065   6.588   4.351   2.128  0.3311 -0.1311  0.2702
 4169TIP3    H134066   6.502   4.385   2.101 -0.0270 -0.4550  0.9733
 4169TIP3    H234067   6.569   4.263   2.160  1.0940 -0.6100 -0.5685
 4170TIP3   OH234068   3.704   6.264   8.219  0.0855  0.8503  0.1349
 4170TIP3    H134069   3.629   6.306   8.260 -2.2845 -2.7271 -0.0695
 4170TIP3    H234070   3.675   6.247   8.129 -0.7104 -3.9463  1.0009
 4171TIP3   OH234071   2.504   0.685   0.907  0.1719  0.1061  0.5047
 4171TIP3    H134072   2.424   0.734   0.925 -0.7704 -1.4838  0.8299
 4171TIP3    H234073   2.521   0.636   0.988 -0.0062 -1.5428 -0.4172
 4172TIP3   OH234074   2.899   6.350   0.502 -0.0776 -0.1167 -0.0931
 4172TIP3    H134075   2.979   6.376   0.547  0.1295  1.4214 -1.2853
 4172TIP3    H234076   2.920   6.355   0.409 -0.2006 -4.1871 -0.4956
 4173TIP3   OH234077   6.617   3.760   0.587 -0.2093  0.4135  0.2288
 4173TIP3    H134078   6.525   3.733   0.594 -0.1680 -0.3233 -1.5839
 4173TIP3    H234079   6.630   3.781   0.495  1.1965  1.5127  0.6357
 4174TIP3   OH234080   1.711   6.455   7.339  0.2812 -0.1114  0.1114
 4174TIP3    H134081   1.663   6.419   7.413 -0.6103 -2.0866 -1.3364
 4174TIP3    H234082   1.672   6.542   7.325  0.7009  0.4504  2.0825
 4175TIP3   OH234083   0.272   5.787   1.263  0.1025 -0.6194 -0.3626
 4175TIP3    H134084   0.179   5.764   1.256 -0.2360  0.6945 -0.5387
 4175TIP3    H234085   0.301   5.746   1.345 -1.1581  0.5168  0.7238
 4176TIP3   OH234086   6.053   4.183   2.042 -0.7232 -0.6708 -0.1164
 4176TIP3    H134087   5.966   4.155   2.072 -1.3212 -0.1950 -1.3481
 4176TIP3    H234088   6.039   4.272   2.009  0.2765 -0.5247 -0.1553
 4177TIP3   OH234089   3.897   0.707   2.825  0.4956 -0.0065 -0.5896
 4177TIP3    H134090   3.894   0.614   2.805 -0.4535  0.0137 -0.5573
 4177TIP3    H234091   3.810   0.728   2.859  1.3630  0.3989  1.5809
 4178TIP3   OH234092   5.348   4.228   0.526 -0.3769 -0.1302  0.3405
 4178TIP3    H134093   5.314   4.248   0.440 -1.9404  2.3216  1.4486
 4178TIP3    H234094   5.443   4.218   0.513 -0.4893  0.9443 -1.5133
 4179TIP3   OH234095   1.016   5.254   0.447 -0.4854  0.2615 -0.1542
 4179TIP3    H134096   0.961   5.294   0.514 -3.0447 -2.2565 -0.5600
 4179TIP3    H234097   1.000   5.307   0.369 -0.6957  0.8073  0.2506
 4180TIP3   OH234098   1.595   4.136   7.585  0.0913 -0.0838 -0.1081
 4180TIP3    H134099   1.643   4.120   7.666  1.0965 -1.3856 -0.9080
 4180TIP3    H234100   1.614   4.058   7.531 -0.4227  0.8106 -1.6271
 4181TIP3   OH234101   5.721   1.874   1.757  0.5639  0.2430 -0.0888
 4181TIP3    H134102   5.765   1.887   1.841 -1.0785 -1.4099  1.1043
 4181TIP3    H234103   5.629   1.890   1.774  0.1952 -0.0594 -1.5925
 4182TIP3   OH234104   0.936   5.788   8.329 -0.0852  0.3414 -0.2623
 4182TIP3    H134105   0.898   5.732   8.397 -0.9055  0.0347 -0.9568
 4182TIP3    H234106   0.868   5.852   8.309  0.7282  1.4294  0.2974
 4183TIP3   OH234107   0.069   4.676   1.484 -0.3081 -0.1130 -0.0714
 4183TIP3    H134108   0.122   4.597   1.495 -1.6548 -1.2425 -1.1587
 4183TIP3    H234109  -0.003   4.666   1.546 -0.8312 -0.0825 -0.6559
 4184TIP3   OH234110   3.602   5.558   6.660  0.3351 -0.5802  0.0455
 4184TIP3    H134111   3.656   5.490   6.619  2.1977  0.5557  0.4985
 4184TIP3    H234112   3.649   5.639   6.644 -1.2536  0.4761  0.5036
 4185TIP3   OH234113   6.861   1.171   1.344  0.2081 -0.1125 -0.4770
 4185TIP3    H134114   6.833   1.083   1.317  2.8408 -0.8603 -1.0437
 4185TIP3    H234115   6.800   1.230   1.300 -0.7357 -1.5944 -1.2684
 4186TIP3   OH234116   0.023   2.969   0.218 -0.2045 -0.6015  0.5688
 4186TIP3    H134117   0.050   2.881   0.243 -0.1379 -0.4263  1.1206
 4186TIP3    H234118  -0.054   2.988   0.272 -0.3720 -0.4192  0.2716
 4187TIP3   OH234119   0.781   1.647   2.556  0.0301  0.2980 -0.9805
 4187TIP3    H134120   0.734   1.612   2.481 -2.3992  0.6949  0.2746
 4187TIP3    H234121   0.764   1.741   2.555  0.2443  0.3558 -0.1272
 4188TIP3   OH234122   5.925   5.474   7.571  0.4899 -0.1318 -0.8823
 4188TIP3    H134123   5.979   5.522   7.509  1.7739  0.8697  0.9172
 4188TIP3    H234124   5.838   5.512   7.562  1.4072  2.4840  0.3059
 4189TIP3   OH234125   4.030   4.849   8.169  0.0096 -0.6054  0.1280
 4189TIP3    H134126   4.125   4.862   8.161  0.0926 -0.9930  0.3978
 4189TIP3    H234127   4.019   4.754   8.165 -0.7369 -0.5019 -3.6065
 4190TIP3   OH234128   4.368   2.506   2.840  0.3201 -0.6181  0.3210
 4190TIP3    H134129   4.284   2.463   2.857  0.0827 -0.5902 -0.7114
 4190TIP3    H234130   4.432   2.435   2.843  0.0152 -0.9607 -0.7087
 4191TIP3   OH234131   5.270   3.897   7.987  0.1722 -0.6560  0.2775
 4191TIP3    H134132   5.366   3.900   7.995  0.0135 -0.9405  3.4119
 4191TIP3    H234133   5.245   3.987   7.966  1.1014 -0.5807 -0.6087
 4192TIP3   OH234134   1.607   4.807   1.217 -0.4816  0.3739  0.2800
 4192TIP3    H134135   1.661   4.786   1.293  0.4113 -3.8791 -1.2881
 4192TIP3    H234136   1.663   4.861   1.162  1.1503 -1.5201  0.0120
 4193TIP3   OH234137   5.301   3.186   0.622  0.3268  0.0418 -0.1649
 4193TIP3    H134138   5.346   3.139   0.691 -0.3233  0.7645  0.7710
 4193TIP3    H234139   5.326   3.278   0.634 -0.3677  0.2786 -0.4174
 4194TIP3   OH234140   4.079   2.937   1.777  0.1394  0.3209  0.2168
 4194TIP3    H134141   4.007   2.980   1.731 -0.2940 -0.1730  0.4242
 4194TIP3    H234142   4.055   2.844   1.779  1.3210 -0.0340 -0.7094
 4195TIP3   OH234143   6.465   4.631   2.891  0.4016  0.2316 -0.9383
 4195TIP3    H134144   6.443   4.716   2.929  0.4364 -0.5361  0.8886
 4195TIP3    H234145   6.387   4.577   2.904  0.9144 -0.4668 -0.6844
 4196TIP3   OH234146   2.208   0.590   7.496  0.8342 -0.5268  0.2199
 4196TIP3    H134147   2.258   0.670   7.517  1.0098 -0.6833  0.4042
 4196TIP3    H234148   2.158   0.613   7.418 -0.9270  0.5411  1.5940
 4197TIP3   OH234149   4.609   2.803   8.099  0.4002  0.1519  0.0651
 4197TIP3    H134150   4.688   2.750   8.108 -0.0726 -0.4194  1.1020
 4197TIP3    H234151   4.591   2.835   8.187 -0.0178  1.0324 -0.3269
 4198TIP3   OH234152   6.154   1.156   1.703  0.0642  0.1979  0.1563
 4198TIP3    H134153   6.212   1.152   1.628  0.3174 -1.2276  0.4116
 4198TIP3    H234154   6.066   1.147   1.666  0.1368  0.2301 -0.0234
 4199TIP3   OH234155   0.160   3.651   2.588  0.1765 -0.3008 -0.0935
 4199TIP3    H134156   0.145   3.557   2.578 -0.0694 -0.1505 -1.3452
 4199TIP3    H234157   0.078   3.686   2.623 -0.7986 -0.1719 -2.3337
 4200TIP3   OH234158   0.278   0.266   8.048 -0.2562 -0.7348  0.6563
 4200TIP3    H134159   0.267   0.177   8.015 -0.9461 -0.1490 -0.7870
 4200TIP3    H234160   0.371   0.274   8.065  0.1191 -1.1652 -0.9979
 4201TIP3   OH234161   3.446   5.387   0.024  0.1396  0.5789  0.3466
 4201TIP3    H134162   3.461   5.380   0.119 -0.6147 -2.1942  0.3545
 4201TIP3    H234163   3.369   5.443   0.016  1.3703  2.4701  1.2149
 4202TIP3   OH234164   5.336   0.749   1.058  0.1761  0.0975  0.5045
 4202TIP3    H134165   5.258   0.756   1.114  1.2683 -0.3787  2.1538
 4202TIP3    H234166   5.302   0.719   0.974 -1.2892 -1.3315  1.5412
 4203TIP3   OH234167   0.248   5.900   3.338 -0.3432 -0.0197  0.5441
 4203TIP3    H134168   0.336   5.905   3.374  0.6390 -2.7001 -1.2133
 4203TIP3    H234169   0.202   5.837   3.394  0.2441 -1.8574 -0.9512
 4204TIP3   OH234170   6.105   4.359   0.789  0.5015  0.0314 -0.3495
 4204TIP3    H134171   6.188   4.407   0.785 -1.2928  3.5294  0.3872
 4204TIP3    H234172   6.077   4.368   0.880 -0.9800 -0.5702 -0.7275
 4205TIP3   OH234173   0.468   0.253   0.337  0.5268 -0.4760  0.6595
 4205TIP3    H134174   0.467   0.298   0.253 -1.1899 -0.4607  0.6444
 4205TIP3    H234175   0.470   0.160   0.314 -1.0031 -0.5075  0.5310
 4206TIP3   OH234176   4.880   1.808   0.350  0.5929  0.3662 -0.1212
 4206TIP3    H134177   4.814   1.739   0.356  0.8273  0.0782 -0.6951
 4206TIP3    H234178   4.960   1.762   0.324  0.9875  0.7282  0.4328
 4207TIP3   OH234179   6.638   1.316   0.802  0.4196 -0.0706 -0.5108
 4207TIP3    H134180   6.546   1.302   0.825  0.4322 -3.3012 -1.8755
 4207TIP3    H234181   6.673   1.368   0.874 -1.9489 -0.6616  1.1940
 4208TIP3   OH234182   2.428   5.869   1.214 -0.0707  0.9281  0.1059
 4208TIP3    H134183   2.501   5.922   1.246  0.1747  0.1691  0.8378
 4208TIP3    H234184   2.414   5.804   1.283 -0.7358  0.4008 -0.5179
 4209TIP3   OH234185   3.244   2.419   1.584 -0.3001  0.8777  0.1669
 4209TIP3    H134186   3.250   2.454   1.673  0.9353  2.3171 -0.4390
 4209TIP3    H234187   3.256   2.495   1.527  1.0055 -0.2860 -1.2182
 4210TIP3   OH234188   3.569   2.451   8.538 -0.0767 -0.0366  0.1724
 4210TIP3    H134189   3.617   2.517   8.488 -0.9516  0.2105 -0.3732
 4210TIP3    H234190   3.482   2.490   8.550 -0.8495 -1.3940 -0.8137
 4211TIP3   OH234191   4.022   3.519   8.161 -0.3139  0.2415 -0.4600
 4211TIP3    H134192   4.064   3.604   8.152 -1.0458  0.8271  1.3183
 4211TIP3    H234193   4.074   3.473   8.227  0.9895 -1.3476 -2.4521
 4212TIP3   OH234194   1.383   5.221   8.129 -0.0491 -0.3465 -0.6118
 4212TIP3    H134195   1.479   5.216   8.136 -0.1300 -1.0352  0.3614
 4212TIP3    H234196   1.362   5.165   8.054  0.2583 -0.9908 -0.2307
 4213TIP3   OH234197   6.010   0.007   8.109 -0.7922 -0.4153 -0.5476
 4213TIP3    H134198   6.019   0.064   8.185  1.8178  1.3141 -1.9798
 4213TIP3    H234199   5.957  -0.066   8.140 -0.5848  0.6202  2.6509
 4214TIP3   OH234200   0.118   2.993   2.803 -0.1676 -0.2693 -0.0980
 4214TIP3    H134201   0.063   3.036   2.868 -0.5550  0.2800 -0.7792
 4214TIP3    H234202   0.178   3.062   2.773 -0.4226 -0.3446 -0.7940
 4215TIP3   OH234203   4.062   6.863   1.298 -0.0572  0.2348 -0.1192
 4215TIP3    H134204   3.981   6.833   1.257  1.0972 -0.6629 -1.8547
 4215TIP3    H234205   4.075   6.951   1.265 -0.5825  0.5975  0.6047
 4216TIP3   OH234206   0.160   3.982   0.876  0.1298 -0.2304 -0.1671
 4216TIP3    H134207   0.086   3.989   0.815  0.1543 -0.1275 -0.1866
 4216TIP3    H234208   0.229   3.941   0.824  0.2472  0.1305 -0.3003
 4217TIP3   OH234209   2.446   4.403   0.353 -0.5162  0.2989  0.3535
 4217TIP3    H134210   2.484   4.403   0.441 -1.4217 -4.3314  1.0532
 4217TIP3    H234211   2.352   4.413   0.368 -0.6373 -0.1101 -0.1149
 4218TIP3   OH234212   6.533   2.697   1.729 -0.5817 -0.0085 -0.3247
 4218TIP3    H134213   6.533   2.791   1.745 -0.4915 -0.1936  0.8935
 4218TIP3    H234214   6.443   2.676   1.707 -1.3247 -0.0559  2.3973
 4219TIP3   OH234215   0.550   3.598   0.409  0.4495 -0.2461  0.2572
 4219TIP3    H134216   0.487   3.601   0.336 -2.6668 -2.2764  2.5824
 4219TIP3    H234217   0.590   3.511   0.403 -1.1129 -1.1398  1.7925
 4220TIP3   OH234218   0.605   2.361   7.845 -0.3672 -0.1695  0.0333
 4220TIP3    H134219   0.633   2.397   7.928 -0.0404  0.8680 -0.5072
 4220TIP3    H234220   0.554   2.283   7.868 -0.8764  0.4925  1.2251
 4221TIP3   OH234221   0.788   0.192   2.599  0.6307 -0.0940  0.1904
 4221TIP3    H134222   0.819   0.235   2.519  0.0813  0.5635  0.3195
 4221TIP3    H234223   0.693   0.192   2.590  0.5615  0.0421  0.8699
 4222TIP3   OH234224   1.968   4.097   2.221  0.0307  0.1916 -0.0593
 4222TIP3    H134225   1.916   4.131   2.294 -0.0154 -0.3788  0.1741
 4222TIP3    H234226   1.920   4.125   2.143  1.2844  2.8747  0.0029
 4223TIP3   OH234227   1.015   6.259   3.040 -0.4801 -0.3505  0.8340
 4223TIP3    H134228   1.078   6.187   3.045 -0.0163 -0.2181 -1.7205
 4223TIP3    H234229   0.930   6.215   3.039 -0.2184 -0.8711 -0.2833
 4224TIP3   OH234230   0.493   5.147   3.305 -0.4465  0.0092 -0.6665
 4224TIP3    H134231   0.535   5.200   3.372 -1.3739 -1.5296  1.2599
 4224TIP3    H234232   0.542   5.065   3.305 -2.0161 -0.9736  0.0280
 4225TIP3   OH234233   6.223   3.586   7.691 -0.3211 -0.1706 -0.4029
 4225TIP3    H134234   6.203   3.521   7.624 -1.5278  0.6062 -0.8140
 4225TIP3    H234235   6.175   3.664   7.665  1.1779  0.9553  0.0198
 4226TIP3   OH234236   4.966   6.822   0.831  0.2073  0.1424 -0.0736
 4226TIP3    H134237   4.997   6.872   0.906  1.4344  0.4245 -0.7383
 4226TIP3    H234238   4.981   6.878   0.756 -1.1539 -0.0709 -0.5456
 4227TIP3   OH234239   2.802   3.751   0.003  0.0773  0.0284 -0.0567
 4227TIP3    H134240   2.858   3.786  -0.066 -0.4967  1.4029  0.1306
 4227TIP3    H234241   2.741   3.822   0.022 -2.3940 -1.7148 -0.9310
 4228TIP3   OH234242   5.127   2.875   8.293  0.3453 -0.2238  0.4077
 4228TIP3    H134243   5.081   2.899   8.373  1.8227 -1.5113  1.7178
 4228TIP3    H234244   5.112   2.781   8.284  2.3481 -0.6098  0.6708
 4229TIP3   OH234245   5.373   1.711   7.211 -0.2037  0.2164  0.1990
 4229TIP3    H134246   5.347   1.629   7.169  0.1258  0.3367 -0.2390
 4229TIP3    H234247   5.431   1.753   7.148  0.3202  0.3853  0.7862
 4230TIP3   OH234248   2.695   6.258   8.310 -0.8148  0.4539  0.2756
 4230TIP3    H134249   2.720   6.174   8.347 -3.8609  0.1942  2.0805
 4230TIP3    H234250   2.639   6.236   8.236  1.4248  1.0082 -1.7171
 4231TIP3   OH234251   1.103   6.736   7.759  0.0925 -0.3610  0.5691
 4231TIP3    H134252   1.022   6.689   7.740 -0.2813 -0.2182  1.7255
 4231TIP3    H234253   1.103   6.746   7.855  0.4437  1.4432  0.4205
 4232TIP3   OH234254   5.360   0.790   2.121  0.3897  0.4319 -0.4248
 4232TIP3    H134255   5.388   0.790   2.029  1.9933 -0.4043  0.0410
 4232TIP3    H234256   5.439   0.772   2.171 -0.7697 -0.9447  1.0314
 4233TIP3   OH234257   2.430   4.224   3.129 -0.2951  0.1827 -0.2264
 4233TIP3    H134258   2.352   4.200   3.080 -0.2389 -1.8795  0.5917
 4233TIP3    H234259   2.402   4.296   3.186 -1.3616  0.0324 -0.5509
 4234TIP3   OH234260   2.566   1.401   8.603  0.4354  0.5287 -0.5525
 4234TIP3    H134261   2.504   1.474   8.596  2.6225  2.4347 -1.8587
 4234TIP3    H234262   2.537   1.339   8.537 -0.2678  1.2447 -0.9420
 4235TIP3   OH234263   0.063   5.842   2.616 -0.3716  0.8356  0.0126
 4235TIP3    H134264   0.090   5.898   2.543 -0.5261 -0.3403 -0.9817
 4235TIP3    H234265   0.055   5.902   2.690  3.3506  1.6035  0.0342
 4236TIP3   OH234266   4.763   4.462   2.220 -0.6525 -0.5394  0.4840
 4236TIP3    H134267   4.810   4.383   2.196 -1.0881 -1.0459  1.2673
 4236TIP3    H234268   4.825   4.511   2.274 -0.0858  0.0638 -0.6725
 4237TIP3   OH234269   5.692   5.890   8.566 -0.8017 -0.2076 -0.1012
 4237TIP3    H134270   5.617   5.904   8.624 -1.0212 -0.2656 -0.3713
 4237TIP3    H234271   5.745   5.968   8.577 -1.1105  0.0214 -0.2223
 4238TIP3   OH234272   0.048   1.007   2.029 -0.1900  0.4123  0.4726
 4238TIP3    H134273   0.094   1.075   1.979 -0.9243  1.2069  0.8427
 4238TIP3    H234274   0.028   0.939   1.965  0.1112  0.7773 -0.0143
 4239TIP3   OH234275   1.611   6.696   7.283  0.2643 -0.1365  0.1743
 4239TIP3    H134276   1.555   6.753   7.231  0.2217  1.1253  1.5668
 4239TIP3    H234277   1.699   6.733   7.273  0.0688  0.9124  1.9931
 4240TIP3   OH234278   3.504   4.351   1.091 -0.6692  0.3243 -0.2937
 4240TIP3    H134279   3.513   4.343   1.186 -0.2602  0.7871 -0.2886
 4240TIP3    H234280   3.411   4.338   1.074 -0.4678 -1.6343 -0.0246
 4241TIP3   OH234281   5.006   1.428   1.809  0.0950  0.2624  0.0595
 4241TIP3    H134282   5.014   1.385   1.894 -0.3308  0.9250  0.4461
 4241TIP3    H234283   5.047   1.368   1.747  0.7023 -0.0811  0.7817
 4242TIP3   OH234284   4.726   2.366   1.261 -0.2408 -0.1311 -0.1357
 4242TIP3    H134285   4.776   2.378   1.180 -1.1235  1.8288 -0.4496
 4242TIP3    H234286   4.737   2.273   1.282 -0.8446 -0.9836 -3.0860
 4243TIP3   OH234287   0.667   2.926   1.940  0.0527 -0.1721  0.1684
 4243TIP3    H134288   0.621   2.845   1.918  1.4160 -0.5152 -1.7007
 4243TIP3    H234289   0.677   2.924   2.035 -0.8151 -1.6950  0.2503
 4244TIP3   OH234290   2.877   2.727   0.813 -0.0173 -0.1249  0.7723
 4244TIP3    H134291   2.924   2.738   0.895  1.3002 -0.9129  0.1598
 4244TIP3    H234292   2.880   2.813   0.771 -0.9849  0.3719  1.6529
 4245TIP3   OH234293   0.297   3.721   2.195  0.0995 -0.0240 -0.4852
 4245TIP3    H134294   0.206   3.727   2.165 -0.1160 -0.9351 -0.0591
 4245TIP3    H234295   0.343   3.789   2.147 -0.4109 -0.8604 -2.2535
 4246TIP3   OH234296   1.941   0.882   1.135 -0.7046 -0.2876 -0.3033
 4246TIP3    H134297   1.981   0.807   1.090  2.4844  0.9264  0.2947
 4246TIP3    H234298   1.898   0.843   1.211  1.4395 -1.5067  0.3628
 4247TIP3   OH234299   2.688   1.679   7.500 -0.3450  0.4577 -0.0110
 4247TIP3    H134300   2.715   1.762   7.539  2.1041  0.1075 -0.7370
 4247TIP3    H234301   2.708   1.690   7.407  0.8114 -1.1832  0.0034
 4248TIP3   OH234302   4.164   0.789   2.175 -0.0758 -0.4243 -0.2588
 4248TIP3    H134303   4.176   0.694   2.171 -0.9633 -0.5291 -0.8272
 4248TIP3    H234304   4.245   0.825   2.141  0.9264 -0.9259  1.4801
 4249TIP3   OH234305   3.118   1.478   1.645  0.5680  0.3132 -0.0016
 4249TIP3    H134306   3.203   1.489   1.688 -0.0382 -1.0845  1.6589
 4249TIP3    H234307   3.065   1.551   1.678  0.5592  0.1034  0.4511
 4250TIP3   OH234308   4.572   0.377   7.123 -0.0157  0.0331  0.1725
 4250TIP3    H134309   4.482   0.349   7.105  0.3321 -1.0610  0.0357
 4250TIP3    H234310   4.575   0.393   7.217 -0.0891 -0.9753  0.3540
 4251TIP3   OH234311   4.592   0.090   8.009 -0.1771  0.3824  0.7070
 4251TIP3    H134312   4.582   0.086   7.914 -0.0371 -0.4963  0.7238
 4251TIP3    H234313   4.521   0.148   8.038 -1.2198 -0.6049  0.2049
 4252TIP3   OH234314   2.074   1.633   1.627  0.3649 -0.0767 -0.4401
 4252TIP3    H134315   2.070   1.553   1.576  2.5624 -0.3357 -0.3041
 4252TIP3    H234316   1.991   1.636   1.674 -0.5012 -1.3066 -1.8180
 4253TIP3   OH234317   1.708   0.374   0.370 -0.0027  0.1970 -0.2560
 4253TIP3    H134318   1.704   0.456   0.420  1.1847 -1.7291  3.3212
 4253TIP3    H234319   1.801   0.357   0.358 -0.2347 -0.7265 -0.8889
 4254TIP3   OH234320   5.532   5.897   2.917 -0.2184  0.2419  0.5150
 4254TIP3    H134321   5.501   5.922   2.829  0.9832  1.2592  0.3541
 4254TIP3    H234322   5.470   5.940   2.976  1.2203  3.0047  0.2120
 4255TIP3   OH234323   2.065   6.343   1.046  0.3810 -0.4671 -0.1069
 4255TIP3    H134324   1.972   6.365   1.045  0.5248  0.2663  0.9604
 4255TIP3    H234325   2.072   6.267   1.104  0.3030 -1.3202 -1.1883
 4256TIP3   OH234326   2.358   1.064   1.853  0.1021  0.0778  0.3457
 4256TIP3    H134327   2.433   1.101   1.900 -0.3972  2.2985 -0.4841
 4256TIP3    H234328   2.397   1.018   1.778  0.6532  1.0957 -0.0020
 4257TIP3   OH234329   1.937   1.147   1.330 -0.1459  0.3751 -0.0848
 4257TIP3    H134330   1.992   1.073   1.302 -0.9403 -0.5552  0.7585
 4257TIP3    H234331   1.930   1.202   1.252 -0.4871 -1.0252 -1.0724
 4258TIP3   OH234332   3.546   0.570   0.477  0.1609  0.3331  0.1380
 4258TIP3    H134333   3.487   0.513   0.527 -2.2818  1.6448 -1.0545
 4258TIP3    H234334   3.561   0.645   0.535 -1.5446  1.2061 -0.4751
 4259TIP3   OH234335   1.088   1.831   1.721  0.2289 -0.2290 -0.2664
 4259TIP3    H134336   1.009   1.843   1.774  0.9889 -1.0124  1.0802
 4259TIP3    H234337   1.113   1.740   1.734  1.4356  0.0375 -0.5745
 4260TIP3   OH234338   6.008   4.401   1.061 -0.0778  0.4319 -0.4372
 4260TIP3    H134339   5.919   4.430   1.082  1.0391  2.7716  1.4765
 4260TIP3    H234340   6.056   4.408   1.143  1.0293 -4.8959 -0.2744
 4261TIP3   OH234341   1.832   6.594   8.540  0.0834 -0.0130 -0.8398
 4261TIP3    H134342   1.816   6.688   8.543 -1.6373 -0.2615 -1.4336
 4261TIP3    H234343   1.842   6.574   8.447 -1.2266 -0.6500 -0.8637
 4262TIP3   OH234344   3.818   1.619   0.008 -0.1518  0.2473  0.6035
 4262TIP3    H134345   3.820   1.714   0.017  0.3523  0.2979 -0.0038
 4262TIP3    H234346   3.766   1.603  -0.070  0.1595  0.0498  0.4322
 4263TIP3   OH234347   5.246   6.182   2.542 -0.2655 -0.1220  0.2421
 4263TIP3    H134348   5.192   6.191   2.621  0.1461 -2.3336  0.8527
 4263TIP3    H234349   5.187   6.145   2.477 -0.1096 -0.1751  0.1305
 4264TIP3   OH234350   6.810   6.017   2.770 -0.1762 -0.3486  0.2243
 4264TIP3    H134351   6.731   5.975   2.804 -0.7810  1.5189  1.2919
 4264TIP3    H234352   6.844   6.069   2.843  1.0857  0.2240 -0.7167
 4265TIP3   OH234353   1.282   5.370   0.547 -0.3956 -0.4147  0.7286
 4265TIP3    H134354   1.360   5.342   0.499 -0.6528 -0.3660  0.2836
 4265TIP3    H234355   1.210   5.321   0.509 -0.6860  0.0355  0.6854
 4266TIP3   OH234356   4.320   0.606   7.776 -0.3519 -0.5271  0.0503
 4266TIP3    H134357   4.350   0.689   7.740 -0.7292 -0.3230  0.1994
 4266TIP3    H234358   4.243   0.629   7.829 -1.2483 -1.1386 -0.9566
 4267TIP3   OH234359   2.472   1.666   7.242  0.3116 -0.0321 -0.6843
 4267TIP3    H134360   2.563   1.696   7.232 -0.1839  1.4637 -1.0040
 4267TIP3    H234361   2.464   1.593   7.181  1.5409 -0.7868  0.0104
 4268TIP3   OH234362   3.732   4.011   7.722 -0.2890  0.0488 -1.0525
 4268TIP3    H134363   3.776   3.997   7.639 -0.6761 -0.6718 -1.1347
 4268TIP3    H234364   3.706   3.924   7.752 -0.4649  0.3310 -0.3490
 4269TIP3   OH234365   4.122   4.438   1.534 -0.4527 -0.1003  0.1705
 4269TIP3    H134366   4.163   4.501   1.476 -0.7384  1.7336  1.8497
 4269TIP3    H234367   4.194   4.384   1.566  0.1003  0.6054  0.1369
 4270TIP3   OH234368   2.825   4.530   7.769 -0.3944 -0.0779 -0.5833
 4270TIP3    H134369   2.837   4.440   7.799  2.0426 -0.2386 -1.7658
 4270TIP3    H234370   2.801   4.578   7.848 -0.6195 -1.5760  0.2986
 4271TIP3   OH234371   3.331   6.150   0.293 -0.0198  0.0505  0.1877
 4271TIP3    H134372   3.316   6.244   0.286 -0.5485 -0.1375 -1.9777
 4271TIP3    H234373   3.425   6.140   0.278 -0.1913  0.1586 -1.0860
 4272TIP3   OH234374   3.439   4.380   0.657  0.1381 -0.5024 -0.5376
 4272TIP3    H134375   3.347   4.381   0.681  0.5693  1.1331  1.2778
 4272TIP3    H234376   3.442   4.328   0.577 -2.3362 -0.6425 -0.6182
 4273TIP3   OH234377   1.853   1.361   1.169 -0.4247 -0.4933 -0.0455
 4273TIP3    H134378   1.788   1.422   1.205 -1.8955 -2.0599  0.1361
 4273TIP3    H234379   1.921   1.416   1.132 -1.4062  1.2317  0.6149
 4274TIP3   OH234380   6.201   0.465   8.140 -0.6840  0.3031 -0.1366
 4274TIP3    H134381   6.159   0.551   8.130  0.2583  0.6365 -1.5345
 4274TIP3    H234382   6.163   0.429   8.220 -3.1581  0.8331 -0.9849
 4275TIP3   OH234383   6.493   1.021   0.403  0.2470  0.4583 -0.3461
 4275TIP3    H134384   6.469   1.097   0.350 -0.8485  0.7092  0.4543
 4275TIP3    H234385   6.533   1.059   0.481 -1.2912  0.3120  0.5587
 4276TIP3   OH234386   3.441   4.716   0.179  0.3170 -0.1401 -0.2674
 4276TIP3    H134387   3.457   4.624   0.158 -0.7247 -0.8287  1.6808
 4276TIP3    H234388   3.514   4.740   0.236  0.1704  0.0085 -0.1426
 4277TIP3   OH234389   5.626   2.230   1.875  0.8926 -0.3010 -0.4794
 4277TIP3    H134390   5.717   2.240   1.905  1.1434  0.2142 -1.3663
 4277TIP3    H234391   5.578   2.299   1.921  1.1206 -0.0168 -0.6631
 4278TIP3   OH234392   6.861   3.799   1.531  0.2550  0.3026  0.2571
 4278TIP3    H134393   6.899   3.851   1.460 -1.8906  0.2907 -0.9999
 4278TIP3    H234394   6.912   3.823   1.608  2.8547  0.1147 -1.2960
 4279TIP3   OH234395   3.783   4.708   2.605 -0.2773 -0.0303  0.2038
 4279TIP3    H134396   3.708   4.767   2.612 -1.4204 -1.5557  1.6510
 4279TIP3    H234397   3.856   4.756   2.643 -1.1236  0.5462  1.1285
 4280TIP3   OH234398   6.781   6.800   0.004 -0.6393  0.5646 -0.7097
 4280TIP3    H134399   6.727   6.822   0.080  0.0474  0.2593 -0.1300
 4280TIP3    H234400   6.757   6.710  -0.018  0.9005 -0.2519  0.6844
 4281TIP3   OH234401   4.168   4.618   7.929  0.5176  0.0273  0.0326
 4281TIP3    H134402   4.238   4.553   7.926  0.5717  0.1097 -1.4214
 4281TIP3    H234403   4.210   4.699   7.957  0.7144 -0.2522  0.5485
 4282TIP3   OH234404   4.123   2.018   8.447  0.0980 -0.3879 -0.0658
 4282TIP3    H134405   4.202   1.980   8.410  0.1676  1.4775 -2.0865
 4282TIP3    H234406   4.147   2.044   8.536  1.4319 -0.8070 -0.2871
 4283TIP3   OH234407   0.645   5.554   2.488 -0.0374 -0.0848 -1.0410
 4283TIP3    H134408   0.581   5.608   2.534 -0.6964 -0.1077 -1.9229
 4283TIP3    H234409   0.719   5.613   2.473  0.1662 -0.0605 -0.0191
 4284TIP3   OH234410   3.474   3.319   0.791 -0.0911  0.7252  0.0065
 4284TIP3    H134411   3.479   3.387   0.724 -0.7960  1.5118  0.7416
 4284TIP3    H234412   3.382   3.316   0.816  0.1016  0.1750  0.6722
 4285TIP3   OH234413   0.060   1.805   7.274 -0.0348  0.6310  0.1138
 4285TIP3    H134414   0.053   1.738   7.206 -1.1898  1.0558 -0.2232
 4285TIP3    H234415   0.072   1.887   7.226 -0.8586  0.9344  0.4030
 4286TIP3   OH234416   2.076   1.453   2.465  0.1160  0.2444  0.2811
 4286TIP3    H134417   2.016   1.524   2.443  1.6762  1.5672  0.1501
 4286TIP3    H234418   2.124   1.436   2.384  0.6592 -0.0630  0.6614
 4287TIP3   OH234419   2.022   5.669   2.166  0.2815  0.2186 -1.0861
 4287TIP3    H134420   2.104   5.624   2.185  0.0614  0.4075  0.4192
 4287TIP3    H234421   1.960   5.599   2.145  0.0626 -0.1896  0.7686
 4288TIP3   OH234422   4.009   4.731   2.777  0.5146  0.0617  0.0049
 4288TIP3    H134423   4.024   4.781   2.858 -1.5115 -0.9627  1.0812
 4288TIP3    H234424   4.061   4.651   2.788  0.8922  0.2874 -0.1005
 4289TIP3   OH234425   6.851   5.586   2.690  0.4827 -0.0835  0.2880
 4289TIP3    H134426   6.884   5.675   2.680 -0.7648  0.5102  1.2855
 4289TIP3    H234427   6.927   5.530   2.672  1.4359  1.1808  0.2813
 4290TIP3   OH234428   3.854   2.765   1.810 -0.7255  0.8114 -0.2225
 4290TIP3    H134429   3.768   2.806   1.812 -0.9331  0.3608  1.0179
 4290TIP3    H234430   3.873   2.744   1.902 -0.0311 -0.6071 -0.6543
 4291TIP3   OH234431   0.130   3.659   0.737 -0.0749 -0.0466  0.1425
 4291TIP3    H134432   0.187   3.694   0.805  0.7286  0.0640 -0.5706
 4291TIP3    H234433   0.182   3.591   0.695 -0.6792 -0.3350 -0.1608
 4292TIP3   OH234434   5.395   3.504   6.737 -0.1575  0.5667 -0.6594
 4292TIP3    H134435   5.351   3.589   6.736  1.1818  1.2933 -2.0020
 4292TIP3    H234436   5.483   3.523   6.771 -0.2761 -0.5494  0.3451
 4293TIP3   OH234437   0.105   1.124   0.240 -0.0218  0.7978  0.0687
 4293TIP3    H134438   0.153   1.192   0.287 -1.2055  1.6413  0.1016
 4293TIP3    H234439   0.167   1.052   0.233  0.6666  1.1915  1.6444
 4294TIP3   OH234440   2.148   5.115   2.636 -0.0966 -0.0044  0.1092
 4294TIP3    H134441   2.171   5.022   2.632 -0.0449 -0.0964  1.7451
 4294TIP3    H234442   2.061   5.117   2.676 -0.7674  0.6049 -1.3100
 4295TIP3   OH234443   3.830   0.795   1.997 -0.1115 -0.1405 -0.6010
 4295TIP3    H134444   3.881   0.866   1.957  0.0679 -0.4939 -0.9978
 4295TIP3    H234445   3.749   0.792   1.946 -1.3232  1.5384  1.0419
 4296TIP3   OH234446   3.979   2.528   1.621  0.0746 -0.2438  0.3934
 4296TIP3    H134447   3.942   2.491   1.701 -2.0726  0.5125 -0.1784
 4296TIP3    H234448   4.058   2.574   1.650 -0.2164 -0.6533  1.9329
 4297TIP3   OH234449   3.190   0.337   0.923 -0.2376 -0.0622 -0.2922
 4297TIP3    H134450   3.202   0.260   0.867 -0.9765  1.0204 -2.0265
 4297TIP3    H234451   3.105   0.373   0.898 -1.1196 -0.1173  2.3466
 4298TIP3   OH234452   4.096   2.155   1.762 -0.0582 -0.0921  0.3567
 4298TIP3    H134453   4.116   2.248   1.745  2.0581 -0.7434 -1.2381
 4298TIP3    H234454   4.134   2.109   1.687 -0.9289 -2.2822  1.1942
 4299TIP3   OH234455   0.496   2.677   7.444  0.1904 -0.3128  0.5225
 4299TIP3    H134456   0.489   2.616   7.370 -0.2065 -0.3590  0.5965
 4299TIP3    H234457   0.541   2.753   7.409  1.3910 -0.9499  0.6116
 4300TIP3   OH234458   6.237   1.142   1.081 -0.1151  0.2901  0.0103
 4300TIP3    H134459   6.169   1.079   1.108  0.4495 -0.4569 -0.2679
 4300TIP3    H234460   6.228   1.215   1.142 -2.2492  0.9739 -1.0119
 4301TIP3   OH234461   0.675   1.601   2.304 -0.1173 -0.4164 -0.1910
 4301TIP3    H134462   0.663   1.681   2.252  2.2255  1.3621  1.7752
 4301TIP3    H234463   0.588   1.581   2.337 -0.6165  2.0085  0.1473
 4302TIP3   OH234464   4.390   2.510   8.329 -0.6001 -0.1796 -0.5510
 4302TIP3    H134465   4.310   2.458   8.334 -1.1683  0.7087 -0.2599
 4302TIP3    H234466   4.376   2.582   8.391  1.0535 -0.8527  0.6752
 4303TIP3   OH234467   0.808   2.709   1.812 -0.4340 -0.1675 -0.2996
 4303TIP3    H134468   0.833   2.744   1.727 -0.2830 -0.5079 -0.3940
 4303TIP3    H234469   0.831   2.616   1.808  2.9606  0.4656  1.3936
 4304TIP3   OH234470   1.895   2.529   1.471 -0.7266 -0.9142  0.2891
 4304TIP3    H134471   1.947   2.525   1.551  0.9362  0.5656 -0.6586
 4304TIP3    H234472   1.902   2.441   1.433  3.3990 -0.1577 -1.1438
 4305TIP3   OH234473   3.349   1.537   1.195  0.2759  0.5645  0.5598
 4305TIP3    H134474   3.308   1.525   1.109  1.6299  0.4896 -0.0956
 4305TIP3    H234475   3.366   1.448   1.226  1.4481  0.5987  0.0666
 4306TIP3   OH234476   2.286   1.908   8.330  0.5850  0.6428  0.3498
 4306TIP3    H134477   2.272   1.994   8.370  0.5219  0.6322  0.3495
 4306TIP3    H234478   2.380   1.892   8.342  0.2869 -0.0510  1.8405
 4307TIP3   OH234479   4.107   3.981   8.274  0.0909 -0.1385 -0.0309
 4307TIP3    H134480   4.199   3.955   8.276  0.1593 -0.0806 -1.2386
 4307TIP3    H234481   4.088   4.010   8.363  1.1110 -0.5882  0.3498
 4308TIP3   OH234482   1.347   2.058   0.415  0.0020  0.2816 -0.1592
 4308TIP3    H134483   1.344   2.032   0.506 -1.3165  0.7624 -0.0519
 4308TIP3    H234484   1.396   2.141   0.415  0.3533  0.0774  0.0449
 4309TIP3   OH234485   6.445   6.252   7.989  0.4893 -0.1066  0.6620
 4309TIP3    H134486   6.516   6.196   7.958  0.2562 -0.2610  0.3987
 4309TIP3    H234487   6.486   6.313   8.050  0.4776 -1.5354  2.1460
 4310TIP3   OH234488   5.084   1.620   0.303 -0.4294 -0.1579  0.8064
 4310TIP3    H134489   5.003   1.577   0.277 -1.2121  0.8544  1.4734
 4310TIP3    H234490   5.085   1.614   0.399 -0.6470  1.3961  0.9322
 4311TIP3   OH234491   2.589   1.569   8.229 -0.1936 -0.2583 -0.0530
 4311TIP3    H134492   2.567   1.522   8.310  0.0980  0.2257  0.3100
 4311TIP3    H234493   2.676   1.605   8.246 -0.0332 -0.3508 -0.6724
 4312TIP3   OH234494   2.338   6.221   8.553 -0.2957 -0.4874 -0.3109
 4312TIP3    H134495   2.336   6.268   8.470  0.2849  1.8301  0.8908
 4312TIP3    H234496   2.274   6.267   8.608  1.5092  0.0620  1.4648
 4313TIP3   OH234497   4.030   1.779   0.780 -0.2129  0.3976 -0.5285
 4313TIP3    H134498   4.110   1.768   0.831  1.0362  1.4408 -2.1714
 4313TIP3    H234499   3.998   1.690   0.766 -0.0162  0.0413  1.1504
 4314TIP3   OH234500   6.358   5.841   0.898 -0.1184  0.0862  0.5271
 4314TIP3    H134501   6.274   5.836   0.852  0.1400  4.5837 -0.8278
 4314TIP3    H234502   6.392   5.751   0.894 -3.4310 -1.2876 -1.5347
 4315TIP3   OH234503   0.306   0.805   7.235 -0.0266  0.0223 -0.6707
 4315TIP3    H134504   0.254   0.740   7.283  0.9189 -0.7214 -0.6066
 4315TIP3    H234505   0.270   0.803   7.146 -1.0325  0.5701 -0.2912
 4316TIP3   OH234506   3.437   5.241   2.005  0.4352  0.0374 -0.3326
 4316TIP3    H134507   3.415   5.280   2.089 -1.0988 -0.3636 -0.5182
 4316TIP3    H234508   3.371   5.275   1.945  0.9260 -0.4382 -1.1586
 4317TIP3   OH234509   6.198   1.510   1.113 -0.2155 -0.5133  0.0680
 4317TIP3    H134510   6.292   1.525   1.103 -0.4102  0.8979  0.1753
 4317TIP3    H234511   6.168   1.486   1.025  0.0504  0.2531 -0.2433
 4318TIP3   OH234512   5.202   4.991   7.472 -0.4446 -0.2074 -0.4344
 4318TIP3    H134513   5.279   4.981   7.416 -1.1105  1.1801 -1.6894
 4318TIP3    H234514   5.195   5.086   7.487 -0.3855 -0.5088  1.9307
 4319TIP3   OH234515   6.649   5.415   1.199 -0.6464  0.5437  0.2711
 4319TIP3    H134516   6.682   5.369   1.122 -1.7150 -0.7758  0.5576
 4319TIP3    H234517   6.714   5.396   1.268 -1.8096 -1.9090  0.7945
 4320TIP3   OH234518   3.835   4.456   2.763 -0.5480  0.0362 -0.2476
 4320TIP3    H134519   3.842   4.551   2.752  0.7959 -0.0937 -0.7387
 4320TIP3    H234520   3.749   4.434   2.727  0.3555  0.7113 -3.0644
 4321TIP3   OH234521   5.534   4.041   0.787  0.6103 -0.1691  0.2526
 4321TIP3    H134522   5.440   4.031   0.772  0.4094  1.6210  0.0535
 4321TIP3    H234523   5.550   4.000   0.872 -0.2750 -0.8371  0.1075
 4322TIP3   OH234524   2.564   1.950   2.384  0.4006  0.3872  0.3371
 4322TIP3    H134525   2.573   1.860   2.415 -1.4325  0.3210  0.8111
 4322TIP3    H234526   2.550   1.942   2.290  1.8754  0.3227  0.0924
 4323TIP3   OH234527   1.359   3.277   8.630  0.6890  0.3895  0.1684
 4323TIP3    H134528   1.435   3.284   8.688  1.0267 -0.2145 -0.1771
 4323TIP3    H234529   1.382   3.331   8.554  0.4911  0.7247  0.3452
 4324TIP3   OH234530   1.128   4.728   0.414  0.1785  0.0209  0.2775
 4324TIP3    H134531   1.067   4.790   0.373 -1.1222 -1.2883  0.1328
 4324TIP3    H234532   1.203   4.725   0.355 -0.2682  0.5549 -0.3336
 4325TIP3   OH234533   4.034   1.656   1.734  0.3002  0.3996  0.0814
 4325TIP3    H134534   4.105   1.670   1.671 -0.4670 -0.6793 -1.0862
 4325TIP3    H234535   3.969   1.605   1.685 -0.2466 -0.6378  1.8153
 4326TIP3   OH234536   5.536   3.296   1.772 -0.4009 -0.5485  0.1451
 4326TIP3    H134537   5.555   3.209   1.807 -0.0045 -0.0641  1.1966
 4326TIP3    H234538   5.454   3.322   1.814  0.3737  0.2732  1.2052
 4327TIP3   OH234539   5.280   0.897   8.620  0.2741  0.4603 -0.8457
 4327TIP3    H134540   5.311   0.974   8.669  1.6001 -1.0120  0.7420
 4327TIP3    H234541   5.324   0.823   8.661  0.2551 -1.0468 -3.3447
 4328TIP3   OH234542   1.856   3.688   1.662 -0.1283 -0.0012 -0.1007
 4328TIP3    H134543   1.929   3.722   1.610  0.8472 -0.2951  1.0466
 4328TIP3    H234544   1.784   3.750   1.645  0.5344  0.5997 -0.8192
 4329TIP3   OH234545   6.375   0.912   8.102 -0.6474  0.4256  0.1677
 4329TIP3    H134546   6.294   0.904   8.053 -1.6090 -0.1080  1.7817
 4329TIP3    H234547   6.390   0.825   8.139  0.7599  0.4701 -0.2288
 4330TIP3   OH234548   6.180   5.209   0.433 -0.4943  0.3541 -0.3724
 4330TIP3    H134549   6.148   5.153   0.362 -1.3466  0.3735 -0.0184
 4330TIP3    H234550   6.244   5.155   0.480  0.1479  0.3782 -1.2020
 4331TIP3   OH234551   1.408   5.268   7.371 -0.5200 -0.7289 -0.9358
 4331TIP3    H134552   1.433   5.194   7.315  0.8650  0.0191 -1.3466
 4331TIP3    H234553   1.434   5.241   7.459 -0.8438 -1.0960 -0.9517
 4332TIP3   OH234554   5.549   4.245   8.105  0.2801  0.4845  0.1795
 4332TIP3    H134555   5.479   4.186   8.078  0.1890  0.1215  1.1748
 4332TIP3    H234556   5.623   4.222   8.047  0.1469 -0.3870  0.3381
 4333TIP3   OH234557   1.025   5.927   7.794  0.1097 -0.3082 -0.2541
 4333TIP3    H134558   0.963   5.860   7.821 -0.3070 -0.4300 -1.4475
 4333TIP3    H234559   0.979   5.975   7.725  0.3076  1.3548  0.7119
 4334TIP3   OH234560   4.481   1.767   1.097 -0.0028 -0.1706 -0.0640
 4334TIP3    H134561   4.477   1.819   1.177 -1.3875 -1.0085  0.4578
 4334TIP3    H234562   4.550   1.703   1.114 -0.0050 -0.0779  0.3150
 4335TIP3   OH234563   1.598   0.655   0.138 -0.3589  0.7311  0.3903
 4335TIP3    H134564   1.570   0.644   0.229  0.7966  1.6681  0.8911
 4335TIP3    H234565   1.694   0.652   0.143 -0.2891 -0.4547 -0.9863
 4336TIP3   OH234566   2.366   3.159   2.272  0.0400 -0.5936 -0.3929
 4336TIP3    H134567   2.335   3.079   2.230 -1.4008  0.8251 -2.2084
 4336TIP3    H234568   2.304   3.226   2.245  0.7950  1.0464  1.6305
 4337TIP3   OH234569   0.383   0.900   7.575  0.0306 -0.3921  0.1943
 4337TIP3    H134570   0.314   0.841   7.546  0.8738 -1.7973  0.9359
 4337TIP3    H234571   0.450   0.842   7.611  1.8602  0.8647 -1.0095
 4338TIP3   OH234572   5.329   5.789   2.462  0.1244  0.3649 -0.5070
 4338TIP3    H134573   5.347   5.853   2.531  0.2875  0.1195 -0.3241
 4338TIP3    H234574   5.405   5.731   2.462  0.6248  0.9818 -1.5970
 4339TIP3   OH234575   6.033   2.803   7.894 -0.0005 -0.3320  0.0733
 4339TIP3    H134576   6.125   2.818   7.874  0.2665 -1.3710  0.4408
 4339TIP3    H234577   6.017   2.850   7.975 -0.0990  0.7803 -0.5758
 4340TIP3   OH234578   6.651   5.394   2.418 -0.0426  0.4576  0.2744
 4340TIP3    H134579   6.743   5.366   2.416 -0.5101 -1.1758  0.4454
 4340TIP3    H234580   6.614   5.348   2.494 -1.2127  0.4075 -0.3165
 4341TIP3   OH234581   3.500   0.650   8.551 -0.0282 -0.0824 -0.5134
 4341TIP3    H134582   3.535   0.614   8.632 -0.4096  0.4624 -0.0974
 4341TIP3    H234583   3.545   0.734   8.540 -0.6431  0.2742 -0.3680
 4342TIP3   OH234584   2.489   0.123   2.936 -0.2716  0.0980  0.1940
 4342TIP3    H134585   2.535   0.106   3.018 -0.6356 -2.0832  0.0090
 4342TIP3    H234586   2.526   0.059   2.875  1.8925  3.2849 -2.1901
 4343TIP3   OH234587   1.134   3.695   1.141 -0.7214 -0.5678 -0.2138
 4343TIP3    H134588   1.215   3.735   1.110 -0.1733  0.0930  1.8463
 4343TIP3    H234589   1.092   3.764   1.193 -0.8955 -1.9083  1.5233
 4344TIP3   OH234590   5.979   0.069   0.653 -0.3296  0.4567  0.0804
 4344TIP3    H134591   6.000   0.129   0.582 -0.8886 -0.1994 -0.6528
 4344TIP3    H234592   5.963   0.127   0.728 -1.6057  1.2989 -0.7860
 4345TIP3   OH234593   3.213   5.967   8.452  0.4867  0.0359 -0.2265
 4345TIP3    H134594   3.220   5.935   8.362  1.4058  1.1059 -0.5468
 4345TIP3    H234595   3.121   5.951   8.475  0.5046 -1.2944 -0.9304
 4346TIP3   OH234596   0.510   4.596   0.767 -0.5701 -0.1623  0.1881
 4346TIP3    H134597   0.509   4.509   0.808  0.8832 -0.7286 -0.8750
 4346TIP3    H234598   0.474   4.654   0.833  1.7250 -0.9967  2.3531
 4347TIP3   OH234599   5.454   4.736   2.696  0.1911 -0.0041 -0.0537
 4347TIP3    H134600   5.451   4.681   2.775 -0.8426  0.1990  0.0728
 4347TIP3    H234601   5.517   4.805   2.716 -0.9271  0.7304  1.0809
 4348TIP3   OH234602   3.748   4.336   0.970  0.2396 -0.1696  0.4965
 4348TIP3    H134603   3.664   4.349   1.014  1.4269  2.0716  2.3135
 4348TIP3    H234604   3.726   4.338   0.877 -1.4506  3.4585  0.8155
 4349TIP3   OH234605   1.409   4.409   1.643 -0.6083 -0.5057 -0.0823
 4349TIP3    H134606   1.430   4.322   1.608  1.1995 -0.3766  0.5632
 4349TIP3    H234607   1.401   4.397   1.737  2.8486  0.4194  0.5044
 4350TIP3   OH234608   3.070   6.829   7.568 -0.5152 -0.3349 -0.2100
 4350TIP3    H134609   2.995   6.818   7.626 -0.9929 -0.5241 -0.8526
 4350TIP3    H234610   3.033   6.858   7.485  0.1608 -0.0504 -0.4225
 4351TIP3   OH234611   4.822   0.522   7.032  0.4250 -0.8136 -0.2338
 4351TIP3    H134612   4.741   0.484   7.065  0.9629 -1.4305  0.4198
 4351TIP3    H234613   4.797   0.567   6.951 -0.8510  0.4011  0.7992
 4352TIP3   OH234614   5.856   6.403   2.679  0.4661 -0.0165  0.3238
 4352TIP3    H134615   5.882   6.460   2.750 -0.1873 -0.6852  1.1216
 4352TIP3    H234616   5.927   6.409   2.615  0.2267  1.9647  0.1937
 4353TIP3   OH234617   0.662   6.104   7.387  0.0048 -0.1952 -0.7938
 4353TIP3    H134618   0.708   6.126   7.306  0.0603 -5.1134 -2.3701
 4353TIP3    H234619   0.569   6.106   7.364 -0.1014  0.2769 -0.3579
 4354TIP3   OH234620   2.950   6.343   8.207  0.1219 -0.5613  0.4653
 4354TIP3    H134621   2.855   6.356   8.204  0.3057  0.9793  0.5942
 4354TIP3    H234622   2.986   6.431   8.215  1.6340 -1.0131 -0.9811
 4355TIP3   OH234623   0.665   6.008   8.671  0.5327 -0.1110 -0.4994
 4355TIP3    H134624   0.577   6.003   8.709 -0.5676 -0.1069 -2.8562
 4355TIP3    H234625   0.706   5.926   8.697  0.3961  0.4490  1.7601
 4356TIP3   OH234626   2.421   0.881   7.291 -0.1192  0.4083  0.3323
 4356TIP3    H134627   2.476   0.816   7.247 -2.0450 -1.7957  0.9375
 4356TIP3    H234628   2.337   0.875   7.246 -0.8687  1.1699  1.5759
 4357TIP3   OH234629   4.255   4.341   0.769 -0.3077 -0.0123  0.3023
 4357TIP3    H134630   4.174   4.381   0.802 -0.3886  0.7848 -0.8054
 4357TIP3    H234631   4.299   4.412   0.721  1.0350 -0.4458  0.8571
 4358TIP3   OH234632   4.639   0.391   0.697 -0.2065 -0.0924  0.0677
 4358TIP3    H134633   4.567   0.369   0.638  0.5382 -2.4014 -0.0989
 4358TIP3    H234634   4.635   0.324   0.765  1.1800  0.3377  0.6049
 4359TIP3   OH234635   1.416   6.507   0.636 -0.1310  0.2306 -0.7642
 4359TIP3    H134636   1.389   6.472   0.552 -1.6279 -0.4112 -0.0470
 4359TIP3    H234637   1.337   6.547   0.672  0.7072  1.3242 -0.0488
 4360TIP3   OH234638   5.137   4.773   0.884 -0.1588  0.1632 -0.1228
 4360TIP3    H134639   5.090   4.771   0.800  0.9513  0.4988 -0.7670
 4360TIP3    H234640   5.224   4.806   0.862  0.6579 -1.2218  0.9189
 4361TIP3   OH234641   0.891   0.981   2.281  0.3215  0.1843  0.1855
 4361TIP3    H134642   0.842   1.046   2.332 -0.1376 -0.1725  0.2120
 4361TIP3    H234643   0.835   0.904   2.282 -0.0515  0.3928 -1.4897
 4362TIP3   OH234644   5.009   2.678   7.220 -0.3924 -0.5344 -0.0871
 4362TIP3    H134645   4.949   2.721   7.159  0.7747 -0.2286 -1.0670
 4362TIP3    H234646   5.041   2.749   7.276  0.3226 -0.3787 -0.6721
 4363TIP3   OH234647   2.730   5.592   0.307 -0.4708  0.6283  0.3560
 4363TIP3    H134648   2.691   5.544   0.380 -2.3085  3.0782  1.1410
 4363TIP3    H234649   2.748   5.525   0.241  0.7073 -1.6061  2.7410
 4364TIP3   OH234650   6.318   1.869   7.920 -0.1480  0.1004 -0.0865
 4364TIP3    H134651   6.256   1.801   7.895  1.0323 -0.1287 -2.6145
 4364TIP3    H234652   6.331   1.856   8.014 -1.5067 -1.8159 -0.1096
 4365TIP3   OH234653   3.137   6.121   1.209  0.1776  0.5386  0.0065
 4365TIP3    H134654   3.092   6.172   1.277 -1.8111 -0.1612 -0.7034
 4365TIP3    H234655   3.153   6.183   1.138 -0.8921  0.5432 -0.2541
 4366TIP3   OH234656   4.184   3.234   7.019 -0.4003 -0.6415  0.3892
 4366TIP3    H134657   4.110   3.262   6.964 -2.7929 -1.2366  3.0823
 4366TIP3    H234658   4.147   3.167   7.076  1.9782 -0.2027  2.5812
 4367TIP3   OH234659   0.456   0.039   7.133  0.4266 -0.3579  0.1095
 4367TIP3    H134660   0.544   0.072   7.110  1.2514 -2.6997 -0.3564
 4367TIP3    H234661   0.436  -0.024   7.064 -1.1153 -0.7723  0.9028
 4368TIP3   OH234662   1.989   5.358   1.368 -0.7678 -0.5034  0.1344
 4368TIP3    H134663   1.912   5.342   1.422  0.1162  1.6055  2.1736
 4368TIP3    H234664   2.040   5.277   1.374 -1.8314 -1.1776  0.4072
 4369TIP3   OH234665   2.773   6.787   1.242 -0.2147  0.6264 -0.3694
 4369TIP3    H134666   2.706   6.740   1.291  0.7152 -1.9389 -1.3633
 4369TIP3    H234667   2.754   6.765   1.150  1.1465  0.9809 -0.7503
 4370TIP3   OH234668   2.209   0.749   7.887  0.3436 -0.2758  0.4328
 4370TIP3    H134669   2.187   0.772   7.797  0.8752 -3.5843 -0.6898
 4370TIP3    H234670   2.125   0.752   7.933 -0.4291 -1.0442 -0.8409
 4371TIP3   OH234671   2.083   1.742   6.863  0.5720  0.1282 -0.1068
 4371TIP3    H134672   2.122   1.655   6.852  0.8626  0.3469 -0.9056
 4371TIP3    H234673   1.989   1.725   6.870  0.3292 -0.1088 -2.8656
 4372TIP3   OH234674   6.335   3.233   7.843  0.2393  0.2431  0.2852
 4372TIP3    H134675   6.269   3.271   7.785 -1.8400 -1.3534  1.4423
 4372TIP3    H234676   6.417   3.241   7.795 -0.6325  2.9351 -0.9445
 4373TIP3   OH234677   0.313   3.624   8.220  0.6041  0.0599  0.3008
 4373TIP3    H134678   0.317   3.705   8.270  0.5118  1.5159 -1.9235
 4373TIP3    H234679   0.225   3.590   8.236  0.9570 -0.1493  1.9827
 4374TIP3   OH234680   0.344   3.861   8.379  0.1448  0.3179 -0.2877
 4374TIP3    H134681   0.440   3.861   8.385  0.2175  1.4961 -1.0349
 4374TIP3    H234682   0.322   3.951   8.355 -1.3067  0.6106  1.8457
 4375TIP3   OH234683   5.000   4.759   8.333 -0.0669  0.4686  0.9157
 4375TIP3    H134684   5.037   4.714   8.409 -1.0664  2.4190  2.6409
 4375TIP3    H234685   4.941   4.824   8.370 -1.0488  1.0963 -1.5810
 4376TIP3   OH234686   3.356   0.920   7.943  0.1619  0.4093 -0.3246
 4376TIP3    H134687   3.264   0.892   7.940  0.1509  0.4012  0.0511
 4376TIP3    H234688   3.361   0.977   8.020  0.7805 -0.7243  0.5081
 4377TIP3   OH234689   0.430   4.843   1.381 -0.1424  0.2387 -0.2916
 4377TIP3    H134690   0.403   4.799   1.462  0.8538  0.4804  0.1950
 4377TIP3    H234691   0.518   4.876   1.401  0.7636 -1.0246 -1.9713
 4378TIP3   OH234692   2.134   2.941   1.937  0.1035 -0.0843 -0.2491
 4378TIP3    H134693   2.057   2.891   1.963  0.4967 -0.9826 -0.7815
 4378TIP3    H234694   2.131   3.020   1.992 -0.4835 -0.7163  0.6548
 4379TIP3   OH234695   1.073   2.869   0.785 -0.4151 -0.6998 -0.3269
 4379TIP3    H134696   1.151   2.814   0.774  1.7611  2.4356 -1.8597
 4379TIP3    H234697   1.040   2.882   0.696 -0.8352  0.5048 -0.0114
 4380TIP3   OH234698   0.356   5.584   8.201  0.2202 -0.2179  0.7100
 4380TIP3    H134699   0.334   5.523   8.130 -1.1528 -0.6290  1.4511
 4380TIP3    H234700   0.400   5.656   8.158  0.1892 -0.8709 -0.4477
 4381TIP3   OH234701   6.499   3.505   7.756  0.4028  0.2443 -0.3169
 4381TIP3    H134702   6.409   3.529   7.730 -0.2077 -1.6496 -0.0621
 4381TIP3    H234703   6.523   3.434   7.697  1.8044  0.7767 -0.4321
 4382TIP3   OH234704   3.850   2.599   0.995  0.0143 -0.0320 -0.5202
 4382TIP3    H134705   3.834   2.691   0.975 -3.7290 -0.3825  0.0771
 4382TIP3    H234706   3.802   2.583   1.076  0.2540 -2.5964 -0.7996
 4383TIP3   OH234707   4.053   6.072   0.489 -0.4167 -0.5110 -0.3239
 4383TIP3    H134708   3.999   6.120   0.552  1.2036  2.0131 -0.7352
 4383TIP3    H234709   4.044   6.120   0.407  1.0906 -1.0277 -0.8345
 4384TIP3   OH234710   2.287   0.726   1.673  0.1031  0.5982 -0.2692
 4384TIP3    H134711   2.316   0.654   1.728  0.1366 -0.7431 -1.9671
 4384TIP3    H234712   2.191   0.722   1.678  0.0404 -0.7641 -1.7584
 4385TIP3   OH234713   3.852   5.109   2.030 -0.0638  0.3654  0.4377
 4385TIP3    H134714   3.824   5.188   1.983  1.1349 -0.2693 -1.4282
 4385TIP3    H234715   3.938   5.131   2.065 -0.5840  0.5359  1.6775
 4386TIP3   OH234716   1.768   5.843   0.649 -0.0917  0.1091  0.4409
 4386TIP3    H134717   1.836   5.907   0.671 -1.4774  1.6059  0.6212
 4386TIP3    H234718   1.761   5.788   0.727  0.7879  0.0296  0.4743
 4387TIP3   OH234719   2.176   2.144   8.669  0.1638  0.2671 -0.1676
 4387TIP3    H134720   2.147   2.165   8.581  1.4804 -0.1031 -0.7169
 4387TIP3    H234721   2.144   2.055   8.685  2.1366 -0.7463 -1.3609
 4388TIP3   OH234722   5.136   0.637   2.270  0.0634 -0.1154 -0.7348
 4388TIP3    H134723   5.152   0.683   2.188 -2.3220  2.0107 -0.1441
 4388TIP3    H234724   5.059   0.681   2.308 -0.7657 -2.9316  1.2103
 4389TIP3   OH234725   0.402   4.345   1.927  0.4597  0.1302 -0.2700
 4389TIP3    H134726   0.377   4.270   1.982  1.5994  1.1077  1.6743
 4389TIP3    H234727   0.390   4.421   1.984  2.4625  1.1203 -1.0912
 4390TIP3   OH234728   5.655   2.931   6.622 -0.7481  0.0347  0.1060
 4390TIP3    H134729   5.698   2.906   6.704  0.0220 -1.2197 -0.6292
 4390TIP3    H234730   5.682   3.021   6.607  0.6687 -0.3305  0.3007
 4391TIP3   OH234731   5.385   1.880   0.598 -0.1855  0.2909  0.1268
 4391TIP3    H134732   5.401   1.855   0.507 -0.9602 -1.4825  0.4354
 4391TIP3    H234733   5.472   1.876   0.639  0.2333  1.4698 -0.5771
 4392TIP3   OH234734   1.748   3.230   0.795 -0.4405  0.5110  0.2193
 4392TIP3    H134735   1.770   3.234   0.888  1.0061 -0.9851 -0.0171
 4392TIP3    H234736   1.803   3.297   0.754  1.0559 -0.7016  0.1294
 4393TIP3   OH234737   3.161   2.062   8.601 -0.0275  0.1506 -0.2433
 4393TIP3    H134738   3.154   1.975   8.563  0.3076 -0.3651  0.8462
 4393TIP3    H234739   3.232   2.104   8.551  1.9157 -1.2786  1.1443
 4394TIP3   OH234740   4.492   4.482   7.152  0.3043 -0.5574  0.3405
 4394TIP3    H134741   4.432   4.499   7.080 -0.3487  2.3395  1.4323
 4394TIP3    H234742   4.443   4.426   7.212  0.7567 -2.7591 -1.2300
 4395TIP3   OH234743   5.675   4.062   7.362 -0.4846  0.1225 -0.1910
 4395TIP3    H134744   5.716   4.141   7.396 -0.8303  1.4754 -2.7009
 4395TIP3    H234745   5.584   4.088   7.344 -1.2141 -1.4810  0.8502
 4396TIP3   OH234746   3.678   1.334   8.235  0.3238  0.2414 -0.0911
 4396TIP3    H134747   3.760   1.297   8.268  0.5351  1.6574  1.0796
 4396TIP3    H234748   3.676   1.308   8.142  0.9240 -1.7645  0.4105
 4397TIP3   OH234749   5.102   3.084   0.882 -0.0065 -0.2582 -0.0395
 4397TIP3    H134750   5.186   3.123   0.859  0.1266  0.3084  1.3216
 4397TIP3    H234751   5.088   3.110   0.973 -2.5165  1.1916 -0.7552
 4398TIP3   OH234752   5.911   2.964   8.667 -0.0596 -0.2706  0.0413
 4398TIP3    H134753   5.846   2.895   8.682 -1.0684  0.3555 -1.2074
 4398TIP3    H234754   5.980   2.946   8.730 -1.3132 -1.1422  1.2329
 4399TIP3   OH234755   3.801   6.855   8.347 -0.4974  0.3772  0.1001
 4399TIP3    H134756   3.841   6.867   8.260 -0.6613 -2.0573 -0.4024
 4399TIP3    H234757   3.746   6.932   8.359 -1.3311  0.2927 -2.4731
 4400TIP3   OH234758   1.527   1.200   1.290 -0.0130  0.5351  0.2720
 4400TIP3    H134759   1.548   1.127   1.348  1.7403 -0.0642 -1.0334
 4400TIP3    H234760   1.480   1.161   1.217  0.6892  0.7225 -0.2975
 4401TIP3   OH234761   6.521   4.700   1.492  0.1659 -0.2331 -0.3037
 4401TIP3    H134762   6.433   4.730   1.468  0.9181  2.6596  0.1599
 4401TIP3    H234763   6.549   4.646   1.418 -1.7948 -0.8381 -0.6616
 4402TIP3   OH234764   6.596   1.631   1.970 -0.0504  0.4577  0.0018
 4402TIP3    H134765   6.539   1.555   1.960 -0.5684  0.5277  2.0173
 4402TIP3    H234766   6.541   1.705   1.945 -1.0336  0.5607  2.2645
 4403TIP3   OH234767   3.259   0.936   6.490 -0.1561  0.0999 -0.4634
 4403TIP3    H134768   3.209   0.906   6.566 -1.0397 -0.0370 -1.0914
 4403TIP3    H234769   3.269   1.030   6.504 -2.5538  0.5730 -1.3892
 4404TIP3   OH234770   2.395   0.403   0.565  0.2536 -0.0175 -0.0576
 4404TIP3    H134771   2.456   0.340   0.602  1.6091  1.3743  0.1889
 4404TIP3    H234772   2.433   0.427   0.480 -2.2744 -2.3887 -2.0501
 4405TIP3   OH234773   1.131   6.854   8.444  0.4222 -0.1283 -0.4519
 4405TIP3    H134774   1.133   6.944   8.474  0.0224 -0.0632 -0.6048
 4405TIP3    H234775   1.038   6.833   8.436  0.3886  0.6131 -3.7959
 4406TIP3   OH234776   1.239   5.552   2.600  0.0726  0.2232 -0.0312
 4406TIP3    H134777   1.239   5.648   2.602  1.9006  0.2567 -0.3284
 4406TIP3    H234778   1.264   5.526   2.688 -2.1930 -0.0722  0.5927
 4407TIP3   OH234779   2.283   1.092   7.656  0.3833 -0.4815 -0.7710
 4407TIP3    H134780   2.219   1.099   7.727  0.0018  1.2413 -1.2200
 4407TIP3    H234781   2.289   1.181   7.621  2.0395 -0.8850 -1.6200
 4408TIP3   OH234782   0.645   2.777   7.151 -0.1882  0.0527  0.1344
 4408TIP3    H134783   0.713   2.709   7.153 -1.5287 -1.3425  1.7548
 4408TIP3    H234784   0.615   2.778   7.060  1.0594 -0.2597 -0.3048
 4409TIP3   OH234785   2.135   3.408   8.297 -0.3070 -0.3095 -0.4043
 4409TIP3    H134786   2.145   3.429   8.204  3.0339  0.3122 -0.0368
 4409TIP3    H234787   2.148   3.313   8.301  0.1840 -0.2526 -0.5319
 4410TIP3   OH234788   2.367   1.843   0.887 -0.3748 -0.2201 -0.4885
 4410TIP3    H134789   2.370   1.939   0.888 -0.5861 -0.1729 -2.1181
 4410TIP3    H234790   2.418   1.818   0.810 -0.8154 -1.4057 -0.4138
 4411TIP3   OH234791   0.721   3.088   7.990 -0.2014 -0.8332 -0.0386
 4411TIP3    H134792   0.795   3.144   8.015 -1.1327  0.5370 -0.2492
 4411TIP3    H234793   0.657   3.148   7.951  0.2179 -2.5079 -3.7093
 4412TIP3   OH234794   0.310   4.393   2.603  0.2929  0.5248 -0.0010
 4412TIP3    H134795   0.313   4.430   2.691  3.1078  0.2375  0.1175
 4412TIP3    H234796   0.399   4.360   2.588 -0.5856 -1.0288 -2.2809
 4413TIP3   OH234797   3.921   4.563   0.944 -0.2784  0.2177  0.4035
 4413TIP3    H134798   3.870   4.486   0.919  0.4225 -0.4123  0.8623
 4413TIP3    H234799   4.007   4.528   0.967 -0.2007  1.0354  1.4336
 4414TIP3   OH234800   3.866   6.196   0.657  0.4539  0.5138  0.2368
 4414TIP3    H134801   3.852   6.290   0.667  0.1061  0.4076  0.7981
 4414TIP3    H234802   3.929   6.173   0.725  1.7018  0.5975 -0.8689
 4415TIP3   OH234803   3.180   6.626   7.964  0.2293 -0.1295  0.1498
 4415TIP3    H134804   3.268   6.609   7.999 -0.1759 -0.8611  0.8620
 4415TIP3    H234805   3.158   6.713   7.998  0.5923 -0.0350  0.1503
 4416TIP3   OH234806   0.729   1.283   7.497  0.3783 -0.0687 -0.2063
 4416TIP3    H134807   0.693   1.196   7.478  1.8919 -0.4708 -1.4004
 4416TIP3    H234808   0.709   1.335   7.420 -0.3397  0.6009  0.4210
 4417TIP3   OH234809   0.895   3.646   7.101 -0.5270 -0.4156 -0.5060
 4417TIP3    H134810   0.954   3.710   7.140  2.5962 -4.8531  3.1610
 4417TIP3    H234811   0.950   3.594   7.042 -1.8571 -2.0831 -0.3792
 4418TIP3   OH234812   2.282   1.007   8.373 -0.5756  0.5029  0.1840
 4418TIP3    H134813   2.225   0.986   8.299 -0.8512  0.7809  0.3104
 4418TIP3    H234814   2.359   0.953   8.361 -1.6096 -1.2491  0.9620
 4419TIP3   OH234815   0.166   3.748   8.571  0.2675 -0.6346 -0.3422
 4419TIP3    H134816   0.203   3.822   8.524  0.4855 -0.2832  0.3671
 4419TIP3    H234817   0.191   3.671   8.519  2.5653 -0.4772  0.4502
 4420TIP3   OH234818   3.801   1.300   2.706 -0.2054 -0.1479 -0.1907
 4420TIP3    H134819   3.716   1.318   2.747 -1.1121 -1.7484 -1.2647
 4420TIP3    H234820   3.818   1.378   2.652 -1.7103 -0.3811 -1.0632
 4421TIP3   OH234821   0.481   2.442   8.324 -0.1469 -0.2634  0.5916
 4421TIP3    H134822   0.514   2.404   8.406 -0.9330 -1.4676  0.3703
 4421TIP3    H234823   0.390   2.412   8.319 -0.5397  0.9786 -0.0237
 4422TIP3   OH234824   1.881   3.170   0.323  0.0253  0.1787 -0.1728
 4422TIP3    H134825   1.927   3.094   0.287  0.5550  0.7923 -0.8177
 4422TIP3    H234826   1.829   3.203   0.251 -0.5040  0.2095  0.2188
 4423TIP3   OH234827   0.648   4.496   0.346  0.2539 -0.0247 -0.4169
 4423TIP3    H134828   0.676   4.439   0.418  1.7472  0.5612 -0.5032
 4423TIP3    H234829   0.637   4.582   0.386  1.0646  0.2982 -0.8755
 4424TIP3   OH234830   5.430   0.780   1.846 -0.3581  0.0302 -0.0501
 4424TIP3    H134831   5.366   0.821   1.787 -0.0631  0.2982 -0.1838
 4424TIP3    H234832   5.514   0.816   1.820 -0.0198 -1.0880 -0.5386
 4425TIP3   OH234833   5.541   5.149   0.901 -0.0077 -0.0408  0.5087
 4425TIP3    H134834   5.508   5.232   0.935  0.4818 -0.3815  1.8822
 4425TIP3    H234835   5.625   5.172   0.860  0.4299  0.0684  1.4367
 4426TIP3   OH234836   0.658   3.573   0.774 -0.0025  0.6308 -0.7831
 4426TIP3    H134837   0.637   3.644   0.713 -0.7788 -1.2179 -2.7758
 4426TIP3    H234838   0.576   3.558   0.822  0.4500  1.6966  0.4045
 4427TIP3   OH234839   1.000   6.563   8.238  0.0692 -0.6363 -0.1220
 4427TIP3    H134840   1.060   6.500   8.199 -0.8638 -0.7658 -1.4354
 4427TIP3    H234841   1.017   6.644   8.189 -0.6084 -0.6038 -0.3106
 4428TIP3   OH234842   4.524   6.588   2.602 -0.4689  0.2901  0.3454
 4428TIP3    H134843   4.569   6.526   2.546 -1.4352 -2.1650  2.1376
 4428TIP3    H234844   4.438   6.550   2.617 -1.2380  2.2315  1.2831
 4429TIP3   OH234845   2.713   6.661   8.004  0.4982 -0.0915 -0.0204
 4429TIP3    H134846   2.638   6.617   7.964  1.8902 -1.7475 -0.9606
 4429TIP3    H234847   2.688   6.753   8.007 -1.2077 -0.4692 -1.1231
 4430TIP3   OH234848   1.669   1.501   2.931  0.3249  0.1957 -0.2832
 4430TIP3    H134849   1.745   1.537   2.885 -1.0076  1.5001 -1.5602
 4430TIP3    H234850   1.655   1.561   3.004 -3.2796  4.0719 -3.6721
 4431TIP3   OH234851   6.101   5.196   1.272  0.2326  0.1542 -0.3515
 4431TIP3    H134852   6.042   5.187   1.347 -0.0742  0.8497 -0.4965
 4431TIP3    H234853   6.176   5.244   1.307 -1.4940  3.8605 -1.2239
 4432TIP3   OH234854   1.592   0.763   2.686  0.2422 -0.3778  0.1069
 4432TIP3    H134855   1.636   0.680   2.707 -0.9724 -0.8248  0.9717
 4432TIP3    H234856   1.632   0.826   2.746  0.5943 -0.5064  0.0131
 4433TIP3   OH234857   0.037   6.077   0.630  0.1790  0.3563  0.3367
 4433TIP3    H134858   0.010   6.136   0.560  0.9894 -0.1582 -0.4374
 4433TIP3    H234859  -0.039   6.022   0.647  0.0044  0.4351 -0.1993
 4434TIP3   OH234860   5.902   3.554   1.356 -0.2208  0.4103 -0.3323
 4434TIP3    H134861   5.990   3.517   1.353  0.5066  2.0292 -0.2430
 4434TIP3    H234862   5.888   3.574   1.449  0.0280  1.6892 -0.5477
 4435TIP3   OH234863   3.809   6.496   1.616  0.5230  0.1841  0.2149
 4435TIP3    H134864   3.878   6.430   1.608 -1.2540 -1.6112 -1.3781
 4435TIP3    H234865   3.758   6.469   1.693 -0.4205 -0.5889 -0.6485
 4436TIP3   OH234866   6.798   3.565   1.259 -0.2572  0.3529 -0.0910
 4436TIP3    H134867   6.749   3.516   1.326  0.8067  0.5896  0.8841
 4436TIP3    H234868   6.740   3.638   1.236 -0.0072  1.1710  1.7459
 4437TIP3   OH234869   3.866   1.763   0.521 -0.4055 -0.0111  0.5603
 4437TIP3    H134870   3.887   1.793   0.609 -1.4189 -0.4049  0.9516
 4437TIP3    H234871   3.945   1.781   0.470 -0.1208  1.0546  1.3333
 4438TIP3   OH234872   4.595   5.024   7.833  0.4560 -0.2145 -0.0910
 4438TIP3    H134873   4.612   4.934   7.807 -0.9191 -0.8146  0.9495
 4438TIP3    H234874   4.672   5.050   7.883  0.0635 -1.4964  1.2408
 4439TIP3   OH234875   4.095   3.130   7.353  0.9440 -0.0185 -0.0721
 4439TIP3    H134876   4.015   3.132   7.406  1.3629 -1.8109  0.7108
 4439TIP3    H234877   4.081   3.056   7.293  1.0356  1.1564 -1.6136
 4440TIP3   OH234878   6.169   4.812   1.547  0.2163  0.0213 -0.0410
 4440TIP3    H134879   6.110   4.738   1.565  1.5182 -1.0751 -0.0467
 4440TIP3    H234880   6.133   4.884   1.598 -1.0982 -0.6092 -0.0242
 4441TIP3   OH234881   1.299   6.150   1.623  0.1592  0.0162 -0.1791
 4441TIP3    H134882   1.246   6.198   1.560  3.3965  1.7981 -1.7918
 4441TIP3    H234883   1.347   6.086   1.570  0.6822 -0.5549  0.9541
 4442TIP3   OH234884   2.052   6.080   0.130 -0.2354  0.2589 -0.1797
 4442TIP3    H134885   2.111   6.076   0.205 -0.2367 -1.0072 -0.2350
 4442TIP3    H234886   2.092   6.146   0.072  0.0452  0.8559  0.6736
 4443TIP3   OH234887   4.170   4.554   8.236 -0.5154 -0.3474 -0.2982
 4443TIP3    H134888   4.250   4.597   8.267 -0.6237 -0.7065  0.5007
 4443TIP3    H234889   4.191   4.527   8.146 -0.0962  0.4592 -0.4546
 4444TIP3   OH234890   1.627   3.274   0.547 -0.1434 -0.2152 -0.1013
 4444TIP3    H134891   1.615   3.368   0.536 -1.4304 -0.2258  0.9062
 4444TIP3    H234892   1.667   3.264   0.633  1.1746 -0.5444 -0.7351
 4445TIP3   OH234893   2.666   5.570   2.036  0.3671  0.5031 -0.2352
 4445TIP3    H134894   2.673   5.659   2.002 -0.4124  0.9024  0.5987
 4445TIP3    H234895   2.736   5.564   2.102  0.6049  0.3954 -0.4949
 4446TIP3   OH234896   0.666   5.470   1.752  0.7198 -0.1772 -0.9660
 4446TIP3    H134897   0.687   5.508   1.838 -1.3692  0.8169 -0.8294
 4446TIP3    H234898   0.663   5.546   1.693 -1.3103 -0.3671 -1.1642
 4447TIP3   OH234899   2.260   0.814   0.897  0.1047 -0.0157  0.0380
 4447TIP3    H134900   2.173   0.790   0.930  0.2223  1.3556  1.4662
 4447TIP3    H234901   2.255   0.908   0.881  0.5170 -0.3521 -2.6141
 4448TIP3   OH234902   1.866   4.008   2.788 -0.4487  0.1120  0.3179
 4448TIP3    H134903   1.932   3.945   2.758 -0.4105 -0.0509  0.7309
 4448TIP3    H234904   1.827   3.966   2.865 -1.9654 -0.4090 -0.6916
 4449TIP3   OH234905   2.974   3.655   2.748  0.2436 -0.7083  0.2765
 4449TIP3    H134906   2.949   3.608   2.669 -1.6567  1.6193 -0.6458
 4449TIP3    H234907   2.894   3.655   2.801  0.2202  1.2611  0.3040
 4450TIP3   OH234908   5.566   2.965   0.580 -0.4079 -0.1205 -0.1406
 4450TIP3    H134909   5.542   2.922   0.662 -3.0798  0.2013 -0.6596
 4450TIP3    H234910   5.507   2.927   0.514  0.2212  1.1205 -1.4846
 4451TIP3   OH234911   4.603   3.647   7.125  0.1296  0.0022 -0.1026
 4451TIP3    H134912   4.546   3.671   7.052 -1.8901 -1.0354  1.0416
 4451TIP3    H234913   4.631   3.730   7.163 -0.0840  0.5327 -1.0947
 4452TIP3   OH234914   0.942   3.503   1.462 -0.4606  0.6263 -0.5430
 4452TIP3    H134915   0.919   3.492   1.370 -0.0032 -1.6250 -0.4370
 4452TIP3    H234916   1.002   3.431   1.481  0.0829  1.4934  1.3284
 4453TIP3   OH234917   4.953   3.007   2.671  0.0729  0.1087 -0.4520
 4453TIP3    H134918   4.962   2.928   2.617 -0.7771  0.1111 -0.6054
 4453TIP3    H234919   5.024   3.000   2.735  0.5588 -0.3305 -1.0253
 4454TIP3   OH234920   0.914   3.799   2.271  0.5412 -0.3836 -0.4396
 4454TIP3    H134921   0.888   3.861   2.339 -0.5377 -0.5936 -0.6455
 4454TIP3    H234922   0.918   3.851   2.191 -0.6166 -0.6078 -0.6608
 4455TIP3   OH234923   4.422   5.694   8.380 -0.2716 -0.0036  0.2148
 4455TIP3    H134924   4.423   5.764   8.445 -1.2221 -1.8717  2.3796
 4455TIP3    H234925   4.330   5.687   8.354 -0.1976 -0.4502  0.0594
 4456TIP3   OH234926   3.056   5.015   0.162  0.0275 -0.1293 -0.2360
 4456TIP3    H134927   3.043   5.050   0.250  0.1892  1.4480 -0.8077
 4456TIP3    H234928   3.133   4.958   0.170  0.5338  0.6267  0.4886
 4457TIP3   OH234929   5.573   0.109   1.130  0.1390  0.6671  0.4539
 4457TIP3    H134930   5.591   0.015   1.125 -0.7413  0.5126 -0.0179
 4457TIP3    H234931   5.638   0.143   1.191 -0.0633 -0.3806  1.2791
 4458TIP3   OH234932   0.542   5.603   7.844 -0.2033 -0.2429  0.1049
 4458TIP3    H134933   0.467   5.593   7.785 -1.0492  0.6873  0.9783
 4458TIP3    H234934   0.562   5.697   7.841 -0.8336 -0.0141  1.9181
 4459TIP3   OH234935   0.553   4.103   0.852 -0.0023  0.1818  0.1918
 4459TIP3    H134936   0.565   4.105   0.757  1.8998  0.3842  0.4095
 4459TIP3    H234937   0.609   4.032   0.883 -0.3046  0.3603  1.2101
 4460TIP3   OH234938   4.698   5.775   0.020 -1.1924 -0.3699  0.0095
 4460TIP3    H134939   4.757   5.715   0.066  0.4720  2.0074  1.1837
 4460TIP3    H234940   4.745   5.801  -0.059 -0.0659  2.2933  1.4287
 4461TIP3   OH234941   0.756   6.171   1.592  0.5670 -0.3500  0.2375
 4461TIP3    H134942   0.801   6.235   1.537  1.9343 -0.5395  1.1083
 4461TIP3    H234943   0.759   6.208   1.680  0.5743 -1.1868  0.6006
 4462TIP3   OH234944   3.528   5.162   1.325  0.1502  0.3884 -0.2523
 4462TIP3    H134945   3.579   5.085   1.349  2.0209  2.0694  1.6341
 4462TIP3    H234946   3.450   5.128   1.282 -0.0051 -2.6368  2.1288
 4463TIP3   OH234947   3.746   1.033   0.819 -0.1718 -0.3360 -0.5000
 4463TIP3    H134948   3.760   1.101   0.753  3.8782  0.4562  0.9157
 4463TIP3    H234949   3.787   0.955   0.781  2.2347  0.1371  0.9319
 4464TIP3   OH234950   4.313   5.357   1.331 -0.0582  0.2229 -0.2884
 4464TIP3    H134951   4.235   5.317   1.367  0.6933 -2.0539 -0.9614
 4464TIP3    H234952   4.290   5.449   1.317 -1.6842  0.2222  1.9883
 4465TIP3   OH234953   1.233   5.821   2.931  0.5740  0.3915 -0.0771
 4465TIP3    H134954   1.310   5.788   2.885 -1.3074 -2.9157 -1.1860
 4465TIP3    H234955   1.189   5.743   2.964 -3.8748  1.6882 -2.1476
 4466TIP3   OH234956   4.603   1.818   6.900  0.5128  0.6214  0.2151
 4466TIP3    H134957   4.610   1.854   6.812  2.1586  1.4943  0.6464
 4466TIP3    H234958   4.545   1.742   6.892  1.1394  0.3066 -1.7367
 4467TIP3   OH234959   5.415   6.243   7.831  0.2232 -0.2517 -0.1524
 4467TIP3    H134960   5.384   6.217   7.744  0.4663 -1.5129  0.1254
 4467TIP3    H234961   5.431   6.337   7.823  2.9495 -0.7649 -2.3687
 4468TIP3   OH234962   3.026   6.131   2.759  0.3543 -0.2289  0.2622
 4468TIP3    H134963   3.089   6.088   2.817  1.4638  1.2375  0.1935
 4468TIP3    H234964   3.068   6.214   2.735 -1.0822  0.2320 -0.7849
 4469TIP3   OH234965   1.402   5.987   1.425 -0.3096 -0.4751  0.4481
 4469TIP3    H134966   1.468   6.052   1.399 -0.1775  0.0536  2.0058
 4469TIP3    H234967   1.452   5.916   1.464 -0.5149 -1.2160 -0.5773
 4470TIP3   OH234968   0.501   4.345   2.301  0.2203 -0.0737  0.0127
 4470TIP3    H134969   0.548   4.396   2.235  0.2337  0.1970  0.2275
 4470TIP3    H234970   0.530   4.382   2.385 -0.7192  0.4131  0.1442
 4471TIP3   OH234971   0.751   6.578   0.748 -0.6523  0.5741  0.0449
 4471TIP3    H134972   0.729   6.486   0.762  0.0079  0.6679  2.1870
 4471TIP3    H234973   0.847   6.580   0.749 -0.5573  1.6028  3.6116
 4472TIP3   OH234974   2.349   3.167   1.238  0.1796 -0.2780  1.0755
 4472TIP3    H134975   2.395   3.249   1.252 -0.4701  0.4904 -0.9185
 4472TIP3    H234976   2.366   3.145   1.146 -1.8661 -0.9239  0.7908
 4473TIP3   OH234977   1.443   3.978   0.210 -0.2743 -0.0688 -0.1222
 4473TIP3    H134978   1.503   4.046   0.181  1.7890 -0.4124  2.9426
 4473TIP3    H234979   1.484   3.895   0.184 -0.8098 -0.2557 -0.4024
 4474TIP3   OH234980   0.074   1.980   1.921  0.6392 -0.3231  0.2359
 4474TIP3    H134981   0.075   1.987   2.017 -4.5312  1.0618  0.4586
 4474TIP3    H234982   0.048   1.889   1.904  1.8058 -0.6443  0.0295
 4475TIP3   OH234983   3.474   2.679   2.102  0.1140 -0.5707  1.4158
 4475TIP3    H134984   3.537   2.729   2.154  1.3043  1.1112 -1.3884
 4475TIP3    H234985   3.518   2.597   2.083  0.8487 -0.0485  0.7929
 4476TIP3   OH234986   0.706   6.010   1.038  0.5763  0.4731 -0.1484
 4476TIP3    H134987   0.694   6.077   1.106  0.0381 -0.7121  0.9562
 4476TIP3    H234988   0.640   5.944   1.057  0.4345  0.0800 -1.8207
 4477TIP3   OH234989   6.252   6.129   1.734  0.2894  0.2476 -0.3107
 4477TIP3    H134990   6.304   6.186   1.790  1.5780 -2.1977  1.1854
 4477TIP3    H234991   6.187   6.089   1.792  0.2319 -0.7147 -0.9994
 4478TIP3   OH234992   3.358   5.343   1.006 -0.2014 -0.0031  0.3215
 4478TIP3    H134993   3.399   5.417   1.051 -0.1307 -0.7848  1.5871
 4478TIP3    H234994   3.298   5.306   1.070  1.9023 -2.8392  0.8327
 4479TIP3   OH234995   3.537   2.990   7.527  0.5696 -0.1764  0.6864
 4479TIP3    H134996   3.554   2.951   7.613  0.6721  1.4278  1.4150
 4479TIP3    H234997   3.504   3.077   7.546  1.1624  0.4280 -0.9249
 4480TIP3   OH234998   5.489   1.760   1.490 -0.8574 -0.5290 -0.3180
 4480TIP3    H134999   5.418   1.737   1.430 -0.7933  0.8077 -0.9267
 4480TIP3    H235000   5.447   1.815   1.557 -1.0149 -2.3125  1.1394
 4481TIP3   OH235001   0.730   2.098   8.360  0.0120 -0.0004  0.3017
 4481TIP3    H135002   0.657   2.135   8.409  1.0151  1.9590  0.4098
 4481TIP3    H235003   0.805   2.107   8.419  0.6861 -0.2533 -0.5070
 4482TIP3   OH235004   3.172   3.456   7.687  0.3479  1.1204  0.1571
 4482TIP3    H135005   3.160   3.365   7.660 -0.5139  1.0710  0.6698
 4482TIP3    H235006   3.167   3.507   7.605  0.0870  0.7757 -0.0408
 4483TIP3   OH235007   3.854   0.141   7.864 -0.1088  0.1404 -0.2771
 4483TIP3    H135008   3.885   0.105   7.947 -0.0077 -1.6421 -1.0315
 4483TIP3    H235009   3.931   0.183   7.825  0.0151  0.3660  0.2093
 4484TIP3   OH235010   4.286   1.029   8.399  0.1595 -0.1784 -0.2686
 4484TIP3    H135011   4.368   1.002   8.356  0.6025 -1.0351  1.0568
 4484TIP3    H235012   4.289   1.125   8.396  2.0963 -0.1167  1.2762
 4485TIP3   OH235013   2.217   0.332   1.305  0.4567  0.0891 -0.3582
 4485TIP3    H135014   2.257   0.418   1.294 -1.6298  1.1690 -0.0722
 4485TIP3    H235015   2.145   0.347   1.366 -1.8287 -1.2016 -2.5474
 4486TIP3   OH235016   4.581   4.846   8.510 -0.2363  0.2730 -0.4035
 4486TIP3    H135017   4.547   4.929   8.545 -0.0598  0.3701 -0.4637
 4486TIP3    H235018   4.655   4.871   8.454  2.1508 -0.1295  2.3310
 4487TIP3   OH235019   2.393   3.942   8.115  0.0976  0.3286 -0.0158
 4487TIP3    H135020   2.473   3.951   8.168 -1.3598  1.9975  2.0825
 4487TIP3    H235021   2.377   4.030   8.081 -1.0591  0.1174 -0.0440
 4488TIP3   OH235022   4.835   5.548   8.653  0.3853  0.4646  0.0906
 4488TIP3    H135023   4.860   5.533   8.562  0.8775 -1.9652  0.5529
 4488TIP3    H235024   4.780   5.473   8.676  1.2801  0.3525  2.1355
 4489TIP3   OH235025   4.718   0.568   6.765 -0.3944 -0.0273  0.2060
 4489TIP3    H135026   4.637   0.613   6.791 -0.5563  0.8281 -1.5760
 4489TIP3    H235027   4.774   0.638   6.731  0.3482 -0.8538 -0.3111
 4490TIP3   OH235028   5.162   2.922   2.157  0.1036  0.6935  0.4333
 4490TIP3    H135029   5.230   2.855   2.154 -0.8172 -0.2637  0.5643
 4490TIP3    H235030   5.083   2.878   2.128 -0.3726  1.9306 -0.2159
 4491TIP3   OH235031   2.075   1.072   8.572 -0.1168  0.4537  0.3334
 4491TIP3    H135032   2.135   1.059   8.499 -2.8246 -1.5829 -1.7561
 4491TIP3    H235033   2.105   1.010   8.639  1.1429  0.7981  0.1121
 4492TIP3   OH235034   3.126   0.006   0.968  0.0255  0.2238  1.1641
 4492TIP3    H135035   3.049   0.054   0.997 -0.1334 -0.3951  1.7921
 4492TIP3    H235036   3.187   0.011   1.042 -0.1052 -0.7651  1.3461
 4493TIP3   OH235037   0.813   4.368   1.159 -0.0079  0.1278  0.2864
 4493TIP3    H135038   0.859   4.382   1.241  0.4652  1.6168 -0.2049
 4493TIP3    H235039   0.871   4.404   1.092 -0.1626 -1.4851 -0.7869
 4494TIP3   OH235040   4.672   4.723   7.425 -0.5756 -0.0649  0.1086
 4494TIP3    H135041   4.654   4.631   7.444 -0.5076 -0.0229  0.3804
 4494TIP3    H235042   4.717   4.755   7.503 -0.4875  0.1669 -0.0364
 4495TIP3   OH235043   0.645   4.963   2.369 -0.1547  0.6663 -0.1523
 4495TIP3    H135044   0.732   5.003   2.366  0.2209  0.1456  2.1158
 4495TIP3    H235045   0.585   5.037   2.376 -0.0431  1.0834 -2.6627
 4496TIP3   OH235046   5.747   5.316   2.108  0.5573  0.3187 -0.0633
 4496TIP3    H135047   5.730   5.297   2.016  1.5854  0.6549 -0.3357
 4496TIP3    H235048   5.663   5.345   2.142  0.4078  1.2340 -1.1643
 4497TIP3   OH235049   0.351   1.485   8.343 -0.3320 -0.8993 -0.1453
 4497TIP3    H135050   0.261   1.451   8.341 -0.6149 -0.2421  0.6341
 4497TIP3    H235051   0.368   1.501   8.436 -0.2791  1.1949 -0.4642
 4498TIP3   OH235052   2.310   4.450   3.270  0.4070 -0.4188  0.0755
 4498TIP3    H135053   2.363   4.523   3.301  0.9633 -0.4260 -0.8290
 4498TIP3    H235054   2.237   4.491   3.225  0.4639 -0.4133 -0.0126
 4499TIP3   OH235055   0.121   2.604   0.798 -0.0846 -0.3010  0.5676
 4499TIP3    H135056   0.080   2.518   0.797  0.0401 -0.3596  0.1141
 4499TIP3    H235057   0.170   2.606   0.880  1.4082 -1.3857 -0.2439
 4500TIP3   OH235058   2.667   1.462   2.481  0.2124 -0.4175 -0.3565
 4500TIP3    H135059   2.617   1.384   2.505 -0.4964  0.4843  1.3316
 4500TIP3    H235060   2.715   1.485   2.561  0.9662  0.4523 -1.0378
 4501TIP3   OH235061   6.402   2.528   1.189  0.2266  0.2625 -0.2229
 4501TIP3    H135062   6.399   2.443   1.232 -1.9820  1.0133  1.2529
 4501TIP3    H235063   6.470   2.576   1.236  0.1974 -0.0720  0.1644
 4502TIP3   OH235064   4.244   1.369   1.970 -0.5762 -0.2911 -0.2507
 4502TIP3    H135065   4.234   1.287   2.019  1.9676 -0.1426  0.6383
 4502TIP3    H235066   4.205   1.350   1.885  0.7535 -2.7935 -0.4001
 4503TIP3   OH235067   2.900   6.190   7.792 -0.1975 -0.4513 -0.0718
 4503TIP3    H135068   2.930   6.267   7.839 -0.4405 -0.6231  0.3682
 4503TIP3    H235069   2.980   6.147   7.762  0.0243 -1.0505  1.3149
 4504TIP3   OH235070   3.379   6.033   1.434  0.1045 -0.2747  0.0995
 4504TIP3    H135071   3.454   6.081   1.398 -0.2897  0.9040  0.8309
 4504TIP3    H235072   3.334   5.998   1.356 -0.6129  2.0429 -0.6105
 4505TIP3   OH235073   1.029   6.210   1.050 -0.2371 -0.4843  0.1367
 4505TIP3    H135074   1.088   6.139   1.076 -1.4634 -2.1476 -1.4180
 4505TIP3    H235075   1.088   6.278   1.016  0.9111 -1.2277  0.5579
 4506TIP3   OH235076   6.757   5.362   2.857  0.0637  0.5663  0.1133
 4506TIP3    H135077   6.765   5.437   2.797 -0.5232 -0.5431 -1.4221
 4506TIP3    H235078   6.836   5.365   2.910  0.1100  2.1995 -0.0016
 4507TIP3   OH235079   5.178   1.659   7.926 -0.3925  0.0912 -0.3714
 4507TIP3    H135080   5.141   1.593   7.985  0.1521  0.9817  1.0143
 4507TIP3    H235081   5.268   1.630   7.912  0.0724  0.8957  0.8304
 4508TIP3   OH235082   1.604   3.920   1.553 -0.5865  0.0019  0.7880
 4508TIP3    H135083   1.652   3.936   1.472 -2.3283  2.9606  0.1799
 4508TIP3    H235084   1.652   3.969   1.620 -0.7894  0.0280  0.9156
 4509TIP3   OH235085   3.506   3.256   7.845  0.2603  0.3088  0.1686
 4509TIP3    H135086   3.443   3.264   7.917 -0.0047 -0.7210  0.0615
 4509TIP3    H235087   3.452   3.246   7.767  0.5575  0.2026 -0.0241
 4510TIP3   OH235088   3.583   6.740   1.830 -0.5328  0.4201  0.1144
 4510TIP3    H135089   3.677   6.759   1.831 -0.8303  2.1359 -0.2459
 4510TIP3    H235090   3.544   6.813   1.879 -1.7118  0.0002 -0.1641
 4511TIP3   OH235091   1.012   3.869   1.327 -0.0294  1.0263  0.4985
 4511TIP3    H135092   0.938   3.831   1.374  2.3064 -0.7902  3.0229
 4511TIP3    H235093   1.049   3.933   1.387  0.2770  2.1682 -0.8546
 4512TIP3   OH235094   0.585   4.716   0.539 -0.1764 -0.0621 -0.0147
 4512TIP3    H135095   0.538   4.798   0.525  0.9980  0.4092 -1.5450
 4512TIP3    H235096   0.557   4.686   0.625 -2.3359  0.7762 -0.3720
 4513TIP3   OH235097   5.488   6.146   0.969 -0.2040  0.2088  0.4255
 4513TIP3    H135098   5.437   6.163   1.048 -0.4179 -0.9004  0.5449
 4513TIP3    H235099   5.463   6.216   0.908 -1.6433 -0.1366  0.5887
 4514TIP3   OH235100   2.176   1.083   7.950 -0.1059 -0.2910 -0.2425
 4514TIP3    H135101   2.230   1.008   7.973 -0.3671 -0.2373  0.5909
 4514TIP3    H235102   2.088   1.060   7.979  0.1168  1.0140  1.7045
 4515TIP3   OH235103   4.662   0.916   2.788 -0.1613  0.6991  0.0436
 4515TIP3    H135104   4.719   0.913   2.711  0.3966 -1.2864  0.4625
 4515TIP3    H235105   4.576   0.891   2.756  0.1035 -0.2807  0.0443
 4516TIP3   OH235106   6.198   2.667   1.282  0.0992  0.5407  0.6933
 4516TIP3    H135107   6.263   2.610   1.241 -0.1162  0.5598  0.3156
 4516TIP3    H235108   6.118   2.615   1.284  0.3487  0.1892  1.9991
 4517TIP3   OH235109   3.935   5.519   2.000 -0.0703 -0.2152  0.4723
 4517TIP3    H135110   3.907   5.475   1.920  3.5129 -1.2691 -0.4066
 4517TIP3    H235111   3.865   5.581   2.020 -1.4134 -0.3549 -3.1186
 4518TIP3   OH235112   5.178   6.521   8.562 -0.2128  0.2099 -0.2631
 4518TIP3    H135113   5.148   6.506   8.651 -0.4092 -0.1515 -0.3877
 4518TIP3    H235114   5.274   6.519   8.568 -0.2012  1.3675  0.1362
 4519TIP3   OH235115   6.782   1.965   3.197  0.9034 -0.0877 -0.3152
 4519TIP3    H135116   6.687   1.972   3.213  0.7945  1.6824 -1.4283
 4519TIP3    H235117   6.798   1.872   3.186 -0.9199 -0.3414 -1.1724
 4520TIP3   OH235118   2.423   5.056   0.173 -0.2070 -0.4411 -0.1317
 4520TIP3    H135119   2.457   5.120   0.111 -0.7482  0.2117  0.2335
 4520TIP3    H235120   2.462   4.973   0.146 -1.4357 -0.4238 -2.1530
 4521TIP3   OH235121   4.834   6.126   8.365 -0.5188 -0.5938 -0.4711
 4521TIP3    H135122   4.863   6.216   8.381  1.4214 -1.2234 -0.1717
 4521TIP3    H235123   4.740   6.127   8.381 -0.3181  1.0979  0.7819
 4522TIP3   OH235124   6.630   6.061   7.747 -0.1309  0.2509  0.2340
 4522TIP3    H135125   6.710   6.084   7.701  0.0438 -0.3432  0.2339
 4522TIP3    H235126   6.638   5.967   7.764 -1.3945 -0.0875 -0.8952
 4523TIP3   OH235127   6.472   1.398   0.419 -0.3440  0.4683 -0.2122
 4523TIP3    H135128   6.453   1.487   0.393 -0.2046  0.8668  0.9849
 4523TIP3    H235129   6.568   1.394   0.421 -0.3443  0.1031 -0.8858
 4524TIP3   OH235130   1.413   1.998   0.989  0.0461 -0.2966  0.2135
 4524TIP3    H135131   1.353   1.934   1.028  1.4145 -1.8317 -0.0890
 4524TIP3    H235132   1.499   1.975   1.024  0.6985  0.8796 -0.5462
 4525TIP3   OH235133   4.474   0.999   0.761  0.3710  0.3073 -0.0766
 4525TIP3    H135134   4.458   1.023   0.669 -2.7637  2.3992  0.8532
 4525TIP3    H235135   4.429   0.916   0.772 -0.5768  0.7907 -0.1371
 4526TIP3   OH235136   2.898   0.935   6.888 -0.1895 -0.3885  0.2485
 4526TIP3    H135137   2.832   0.983   6.938 -0.9950  0.0465 -1.1472
 4526TIP3    H235138   2.866   0.938   6.798  1.2691 -0.9963 -0.3296
 4527TIP3   OH235139   2.177   4.272   2.977 -0.0133  0.3509 -0.3245
 4527TIP3    H135140   2.142   4.303   2.893 -0.7849  0.4981  0.0457
 4527TIP3    H235141   2.217   4.188   2.956  0.0890  0.5302 -0.9001
 4528TIP3   OH235142   5.225   4.642   8.176 -0.4986  0.5222 -0.1555
 4528TIP3    H135143   5.191   4.727   8.204 -0.6762  0.4976 -0.2906
 4528TIP3    H235144   5.232   4.591   8.257 -2.8264 -0.2009 -0.3159
 4529TIP3   OH235145   0.569   6.375   0.173  0.0163 -0.2545 -0.0393
 4529TIP3    H135146   0.565   6.430   0.095  0.1629 -0.2185 -0.0210
 4529TIP3    H235147   0.644   6.408   0.222 -0.8004  0.5328  0.7269
 4530TIP3   OH235148   5.087   4.542   7.168  0.3065 -0.1557 -0.1323
 4530TIP3    H135149   5.071   4.614   7.108 -1.6532 -0.5580 -0.1742
 4530TIP3    H235150   5.153   4.488   7.124 -0.7393 -0.1979 -1.7422
 4531TIP3   OH235151   4.469   4.956   0.284  0.3572 -0.2263  0.3424
 4531TIP3    H135152   4.481   4.886   0.220  1.8901 -0.2547  0.6149
 4531TIP3    H235153   4.501   5.034   0.240 -1.9293  0.4762 -0.1896
 4532TIP3   OH235154   0.308   6.419   8.241  0.2578  0.2996  0.0208
 4532TIP3    H135155   0.298   6.436   8.147  1.2487  2.7389  0.2799
 4532TIP3    H235156   0.403   6.410   8.253  0.1012 -0.5335  0.7374
 4533TIP3   OH235157   1.778   4.678   8.587 -0.2902  1.1363 -0.5856
 4533TIP3    H135158   1.824   4.658   8.505  0.1472 -1.1470  0.1350
 4533TIP3    H235159   1.696   4.630   8.580 -0.1054  0.6439  0.4321
 4534TIP3   OH235160   2.129   5.671   7.335 -0.3046 -0.3817  0.2568
 4534TIP3    H135161   2.145   5.580   7.359  0.9314 -0.2177  0.1199
 4534TIP3    H235162   2.206   5.696   7.284 -0.6618  0.7206  0.2382
 4535TIP3   OH235163   4.001   4.606   1.765 -0.6255 -0.3785  0.0148
 4535TIP3    H135164   4.056   4.596   1.687 -1.2199 -0.7946 -0.3622
 4535TIP3    H235165   4.063   4.606   1.838  0.0434  1.1617 -0.5085
 4536TIP3   OH235166   4.037   0.327   8.183 -0.1630  0.1126  0.3847
 4536TIP3    H135167   3.982   0.389   8.231  0.3285  1.4576 -0.7140
 4536TIP3    H235168   4.123   0.369   8.179  0.2826 -0.8229 -0.0506
 4537TIP3   OH235169   1.639   3.076   7.455 -0.6489 -0.0222  0.4893
 4537TIP3    H135170   1.648   3.013   7.526  1.4229 -1.6868 -1.1183
 4537TIP3    H235171   1.698   3.148   7.478 -0.1545 -0.4499  0.5594
 4538TIP3   OH235172   1.736   2.985   1.074 -0.3852 -0.7300  0.1652
 4538TIP3    H135173   1.739   2.928   1.150  0.4540  0.7744  1.3302
 4538TIP3    H235174   1.652   3.031   1.081 -0.0974 -0.2375  0.4849
 4539TIP3   OH235175   5.723   5.172   1.859 -0.4299  0.5606  0.0209
 4539TIP3    H135176   5.799   5.220   1.827 -0.0772  0.5570  0.8430
 4539TIP3    H235177   5.668   5.161   1.781  0.7458 -0.0983 -0.7523
 4540TIP3   OH235178   4.393   3.818   1.078 -0.3621  0.0883 -0.2526
 4540TIP3    H135179   4.463   3.855   1.131 -1.5813  1.5177  0.4445
 4540TIP3    H235180   4.367   3.889   1.018 -0.8905 -0.5622 -0.8184
 4541TIP3   OH235181   0.795   0.699   7.477  0.2707 -0.0511 -0.2076
 4541TIP3    H135182   0.788   0.756   7.400  0.1332 -0.2228 -0.3218
 4541TIP3    H235183   0.857   0.631   7.450  1.1219  0.5258  0.2265
 4542TIP3   OH235184   1.381   4.112   1.674  0.3727 -0.4404 -0.7250
 4542TIP3    H135185   1.352   4.086   1.587 -0.3535 -0.2881 -0.5337
 4542TIP3    H235186   1.468   4.074   1.683  0.8781  0.3695 -1.9076
 4543TIP3   OH235187   5.557   6.203   1.952 -0.0288  0.2826  0.1970
 4543TIP3    H135188   5.556   6.276   2.013 -1.6615  1.5948 -1.3017
 4543TIP3    H235189   5.618   6.229   1.883  1.1384 -0.8085  0.7745
 4544TIP3   OH235190   4.870   0.861   7.509  0.2727 -0.2815  0.2641
 4544TIP3    H135191   4.934   0.887   7.575  1.6660 -0.1299 -1.0778
 4544TIP3    H235192   4.899   0.904   7.429 -1.4997 -0.2581 -0.4163
 4545TIP3   OH235193   6.723   4.451   1.394  0.3473  0.2714  0.4528
 4545TIP3    H135194   6.748   4.465   1.485 -2.0047 -0.8676  1.3711
 4545TIP3    H235195   6.792   4.396   1.357  0.9616  0.1324  1.7661
 4546TIP3   OH235196   4.570   2.904   0.597 -0.0801  0.2190  0.3091
 4546TIP3    H135197   4.492   2.854   0.621  0.4634 -0.8084  0.0058
 4546TIP3    H235198   4.605   2.935   0.680 -0.5073  0.2300  0.4888
 4547TIP3   OH235199   5.073   5.924   7.370  0.3818 -0.1173  0.5064
 4547TIP3    H135200   5.021   5.853   7.331  0.7904  0.5837 -1.4156
 4547TIP3    H235201   5.143   5.879   7.417 -0.9398 -1.0312  1.7155
 4548TIP3   OH235202   3.985   3.158   1.048  0.2097 -0.0435  0.0711
 4548TIP3    H135203   4.034   3.079   1.072  0.4132  0.1675  0.3453
 4548TIP3    H235204   3.915   3.163   1.114  0.7663  0.5334  0.6253
 4549TIP3   OH235205   2.887   4.980   8.128  0.3211 -0.2554  0.2419
 4549TIP3    H135206   2.902   4.918   8.056 -2.3768 -1.0865  0.2747
 4549TIP3    H235207   2.928   4.939   8.204  0.6465 -0.8278 -0.2381
 4550TIP3   OH235208   6.012   1.138   2.064  0.1260 -0.3900  0.1324
 4550TIP3    H135209   5.971   1.207   2.013  2.1722  1.3423  0.6949
 4550TIP3    H235210   6.035   1.180   2.147  1.6723 -1.6712  0.3943
 4551TIP3   OH235211   0.759   3.450   7.260  0.1545  0.6997 -0.3158
 4551TIP3    H135212   0.715   3.502   7.327  1.5831  1.6214 -0.0569
 4551TIP3    H235213   0.793   3.515   7.198  2.2395  0.1391  0.1786
 4552TIP3   OH235214   6.714   4.619   1.979  0.0854  0.1608  0.2218
 4552TIP3    H135215   6.792   4.574   2.011 -0.2119 -0.7399 -0.2746
 4552TIP3    H235216   6.739   4.653   1.893  0.6023  1.7930  0.9836
 4553TIP3   OH235217   2.577   2.051   1.011  0.1533 -0.3367  0.3503
 4553TIP3    H135218   2.598   1.957   1.013 -2.7734 -1.0602  1.3113
 4553TIP3    H235219   2.608   2.083   1.096  0.4057 -0.6090  0.3661
 4554TIP3   OH235220   4.675   2.073   6.514  0.3086  0.5638 -0.3123
 4554TIP3    H135221   4.707   1.990   6.481  0.4035  0.3473  0.3055
 4554TIP3    H235222   4.714   2.081   6.602 -0.4774  0.7947  0.0251
 4555TIP3   OH235223   3.647   1.826   1.404 -0.2514 -0.7022  0.4009
 4555TIP3    H135224   3.708   1.763   1.366  0.3966 -0.2251  0.6432
 4555TIP3    H235225   3.690   1.857   1.483 -0.9154 -0.5366  0.7062
 4556TIP3   OH235226   5.437   5.862   8.143 -0.1738  0.5502 -0.3808
 4556TIP3    H135227   5.441   5.881   8.236 -0.9613 -1.3633  0.0853
 4556TIP3    H235228   5.401   5.942   8.104  0.7235  1.5920  0.8544
 4557TIP3   OH235229   4.504   3.360   1.942  0.3698  0.4566  0.1863
 4557TIP3    H135230   4.457   3.317   2.014  0.4738 -2.4079 -1.3204
 4557TIP3    H235231   4.596   3.347   1.961  0.4252  0.8252  0.1757
 4558TIP3   OH235232   1.599   1.398   1.048  0.1123 -0.0285  0.0952
 4558TIP3    H135233   1.684   1.380   1.089  0.2353 -1.0410 -0.5839
 4558TIP3    H235234   1.543   1.424   1.121  0.0618 -2.7010  1.1415
 4559TIP3   OH235235   6.495   2.809   0.811 -0.4990 -0.0542 -0.0070
 4559TIP3    H135236   6.474   2.862   0.888  0.5890  0.0153  0.2637
 4559TIP3    H235237   6.570   2.756   0.838 -1.4157 -1.5795 -0.3578
 4560TIP3   OH235238   1.262   3.631   2.135 -0.0285  0.2260 -0.4520
 4560TIP3    H135239   1.198   3.567   2.103 -1.0248  0.3587  1.1508
 4560TIP3    H235240   1.240   3.712   2.088  1.0329 -0.4829 -2.2465
 4561TIP3   OH235241   5.044   6.414   7.295 -0.1223  0.5717 -0.2540
 4561TIP3    H135242   4.994   6.496   7.295  0.0488  0.7283 -2.1100
 4561TIP3    H235243   5.130   6.439   7.259 -0.0175 -0.3871 -0.6900
 4562TIP3   OH235244   5.600   3.171   0.119 -0.4609  0.1658  0.1803
 4562TIP3    H135245   5.540   3.110   0.163  0.9595 -1.1466  0.3848
 4562TIP3    H235246   5.661   3.115   0.073  1.5042  1.3937  1.1574
 4563TIP3   OH235247   6.179   4.000   1.083  0.3618 -0.5209  0.1761
 4563TIP3    H135248   6.157   4.006   0.990  0.8704 -1.9740 -0.0605
 4563TIP3    H235249   6.239   4.073   1.098 -0.4604  0.2986 -0.3992
 4564TIP3   OH235250   4.532   0.130   7.709  0.7357 -0.0652  0.1626
 4564TIP3    H135251   4.558   0.221   7.692  1.7335 -0.5274 -0.9666
 4564TIP3    H235252   4.612   0.079   7.693 -0.1103 -1.2546 -0.4159
 4565TIP3   OH235253   2.296   2.714   1.460  0.3263 -0.0605 -0.0988
 4565TIP3    H135254   2.337   2.633   1.488  0.4593  0.5522  1.6288
 4565TIP3    H235255   2.366   2.765   1.419  0.9094  0.2620  1.2517
 4566TIP3   OH235256   4.422   2.134   1.099 -0.2937 -0.2294 -0.1862
 4566TIP3    H135257   4.455   2.078   1.029  0.9557  0.0200  0.1881
 4566TIP3    H235258   4.431   2.223   1.065  1.4126 -0.0345  0.7174
 4567TIP3   OH235259   5.984   1.897   1.696  0.0220 -0.2602 -0.2292
 4567TIP3    H135260   5.896   1.886   1.660  0.4568 -1.2284 -1.0632
 4567TIP3    H235261   5.982   1.851   1.780 -0.5296  0.5799  0.2358
 4568TIP3   OH235262   0.283   3.010   1.683  0.6803 -0.1951 -0.2353
 4568TIP3    H135263   0.246   2.922   1.685  1.1125 -0.4112 -1.0602
 4568TIP3    H235264   0.248   3.048   1.602 -0.3505  0.7877  0.6320
 4569TIP3   OH235265   1.053   0.860   7.688  0.2057 -0.2133  0.0460
 4569TIP3    H135266   1.066   0.847   7.594  1.7465  0.5628  0.1146
 4569TIP3    H235267   0.960   0.882   7.697 -0.3884 -2.0080 -1.0677
 4570TIP3   OH235268   1.452   3.005   0.678 -0.0952 -0.0826 -0.2847
 4570TIP3    H135269   1.392   2.936   0.649  0.0809  0.4095 -1.8843
 4570TIP3    H235270   1.534   2.959   0.694 -0.4889 -0.5301  0.5258
 4571TIP3   OH235271   2.691   0.291   1.296 -0.2959  0.3453 -1.4473
 4571TIP3    H135272   2.754   0.330   1.236 -0.4906 -0.7704 -2.4173
 4571TIP3    H235273   2.740   0.223   1.342 -0.4015  0.5296 -1.0571
 4572TIP3   OH235274   2.125   0.252   8.343 -0.0375 -0.0047 -0.5226
 4572TIP3    H135275   2.078   0.192   8.401  0.7135  0.3857  0.5198
 4572TIP3    H235276   2.090   0.339   8.365 -0.0901  0.0955 -0.9950
 4573TIP3   OH235277   6.336   2.065   1.355 -0.1608  0.0531  0.1159
 4573TIP3    H135278   6.390   2.007   1.408 -3.3161 -1.6202  1.7647
 4573TIP3    H235279   6.354   2.037   1.265  1.0894 -0.9471  0.6345
 4574TIP3   OH235280   0.065   5.341   0.253  0.8435 -0.0019  0.1378
 4574TIP3    H135281   0.010   5.405   0.299 -0.9692 -0.6684 -1.0241
 4574TIP3    H235282   0.152   5.381   0.252  0.0078  1.9259  0.4564
 4575TIP3   OH235283   6.151   1.955   2.010  0.3660 -0.0891  0.1479
 4575TIP3    H135284   6.175   2.029   2.065  2.3596  0.2892 -1.1046
 4575TIP3    H235285   6.214   1.886   2.034 -0.5770 -0.9063  0.3323
 4576TIP3   OH235286   1.908   2.160   0.488  0.0275  0.5486 -0.7596
 4576TIP3    H135287   1.937   2.075   0.519  3.0730  1.1880 -1.5569
 4576TIP3    H235288   1.913   2.154   0.393 -3.8433  0.3799 -1.1274
 4577TIP3   OH235289   3.289   6.656   2.189  0.4162 -0.6666 -0.1738
 4577TIP3    H135290   3.356   6.631   2.253 -1.2551 -1.5012  1.3628
 4577TIP3    H235291   3.329   6.641   2.104  1.8903 -1.9280  0.7036
 4578TIP3   OH235292   4.211   1.477   8.205 -0.6650  0.1537  0.5346
 4578TIP3    H135293   4.117   1.484   8.223 -0.5915 -1.2131  1.5186
 4578TIP3    H235294   4.215   1.452   8.113 -1.3797 -2.0864  1.0542
 4579TIP3   OH235295   0.705   4.937   2.047 -0.0507 -0.0613 -0.2374
 4579TIP3    H135296   0.623   4.952   2.094  0.2781  0.9111  0.0374
 4579TIP3    H235297   0.683   4.951   1.955 -0.2272  0.0542 -0.1789
 4580TIP3   OH235298   3.177   5.616   0.567  0.2215  0.1912 -0.1532
 4580TIP3    H135299   3.198   5.579   0.653  0.2108 -1.0374 -0.6502
 4580TIP3    H235300   3.257   5.604   0.516 -0.1636 -0.2247 -0.6707
 4581TIP3   OH235301   2.469   6.535   7.889  0.5010  0.3124 -0.0304
 4581TIP3    H135302   2.432   6.451   7.863  0.2637  0.6096 -0.6627
 4581TIP3    H235303   2.463   6.590   7.811  2.4875  0.3045 -0.2515
 4582TIP3   OH235304   1.203   5.240   2.785  0.2443  0.6523 -0.1151
 4582TIP3    H135305   1.287   5.218   2.824  0.6166  1.1429 -0.6414
 4582TIP3    H235306   1.147   5.262   2.860  0.5699  0.3041  0.2338
 4583TIP3   OH235307   5.334   4.187   2.160 -0.1758 -0.1928  0.1791
 4583TIP3    H135308   5.242   4.194   2.185  0.2295  0.1787  1.6590
 4583TIP3    H235309   5.370   4.275   2.175  0.2028 -0.0471 -1.3953
 4584TIP3   OH235310   3.551   0.399   7.883  0.1410 -0.0959  0.1795
 4584TIP3    H135311   3.525   0.315   7.846  0.4487 -0.3008  0.4242
 4584TIP3    H235312   3.591   0.377   7.967 -1.4352  0.4475  1.1160
 4585TIP3   OH235313   1.091   3.431   1.967 -0.0664 -0.9020 -0.1019
 4585TIP3    H135314   1.021   3.461   2.024 -0.6879  1.0293 -1.7608
 4585TIP3    H235315   1.066   3.341   1.946 -0.8982 -0.9634  1.0181
 4586TIP3   OH235316   2.354   3.708   7.312 -0.1307 -0.6047  0.2789
 4586TIP3    H135317   2.336   3.619   7.281 -1.4270  0.5299 -2.5391
 4586TIP3    H235318   2.292   3.763   7.265  0.1023  1.7674  2.5238
 4587TIP3   OH235319   2.528   4.514   6.756 -0.5330 -0.7382 -0.4214
 4587TIP3    H135320   2.609   4.564   6.768 -0.1150 -0.9419 -2.1176
 4587TIP3    H235321   2.460   4.568   6.797 -0.1424  1.4544 -2.4405
 4588TIP3   OH235322   3.010   0.474   1.471 -0.7614  0.6741 -0.2020
 4588TIP3    H135323   3.047   0.411   1.409 -0.7510  0.7673 -0.2917
 4588TIP3    H235324   2.941   0.426   1.516 -1.6363  0.9771 -1.1893
 4589TIP3   OH235325   4.954   2.478   7.716  0.4408  0.0761 -0.4946
 4589TIP3    H135326   4.900   2.553   7.692 -0.2766  0.0431  0.9339
 4589TIP3    H235327   5.043   2.514   7.721  0.1381  0.7906 -0.0519
 4590TIP3   OH235328   5.905   4.952   0.571  0.0362 -0.6368 -0.1998
 4590TIP3    H135329   5.868   4.870   0.538  1.2904 -0.4423 -2.2702
 4590TIP3    H235330   5.834   5.015   0.563 -0.8457 -1.4048  1.1222
 4591TIP3   OH235331   4.765   5.400   2.427 -0.3980 -0.0912  0.0187
 4591TIP3    H135332   4.781   5.339   2.498 -4.5099 -1.6661 -0.1445
 4591TIP3    H235333   4.743   5.345   2.352 -0.9792  1.5565 -1.0958
 4592TIP3   OH235334   3.222   4.060   6.717  0.2416  0.3358 -0.0636
 4592TIP3    H135335   3.253   4.120   6.785 -1.5613 -0.6923  1.7636
 4592TIP3    H235336   3.256   4.098   6.636  3.5809  0.9410  1.4300
 4593TIP3   OH235337   6.804   5.623   1.006 -0.1807  0.1359  0.6141
 4593TIP3    H135338   6.773   5.713   1.021 -0.9341 -0.0995  0.5164
 4593TIP3    H235339   6.840   5.596   1.091 -2.2513 -0.3499  1.4022
 4594TIP3   OH235340   1.378   5.342   2.260  0.1949 -0.4700  0.3291
 4594TIP3    H135341   1.361   5.346   2.166  1.7871  1.3531  0.0513
 4594TIP3    H235342   1.434   5.265   2.271 -0.2435 -0.8635 -0.1477
 4595TIP3   OH235343   2.474   3.167   1.608  0.1121  0.2768  0.2197
 4595TIP3    H135344   2.471   3.223   1.685  0.1380  1.1280 -0.3790
 4595TIP3    H235345   2.401   3.106   1.620 -0.0201  0.5409  0.8105
 4596TIP3   OH235346   3.146   2.132   0.858  0.2090 -0.7505 -0.3498
 4596TIP3    H135347   3.088   2.152   0.932  0.0197 -1.5296 -0.2761
 4596TIP3    H235348   3.194   2.213   0.842  1.2123 -0.9317  1.4694
 4597TIP3   OH235349   6.785   5.781   1.680  0.1301  0.4878 -0.3011
 4597TIP3    H135350   6.724   5.710   1.659 -0.0743  0.0689  1.5365
 4597TIP3    H235351   6.824   5.804   1.596  0.7434 -2.2890 -0.9022
 4598TIP3   OH235352   2.982   1.111   7.670 -0.1437  0.1735  0.2305
 4598TIP3    H135353   2.911   1.052   7.695  0.0765  0.0840  0.6438
 4598TIP3    H235354   3.006   1.156   7.750  0.0346  0.4567  0.0202
 4599TIP3   OH235355   0.698   3.383   0.182  0.5814 -0.5703  0.2427
 4599TIP3    H135356   0.747   3.308   0.215  2.2427  0.2549 -0.2329
 4599TIP3    H235357   0.623   3.390   0.241  1.2755 -1.6038  1.2996
 4600TIP3   OH235358   3.598   3.851   8.048  0.5028 -0.2826 -0.5268
 4600TIP3    H135359   3.624   3.816   8.134 -0.0712  1.2107  0.2849
 4600TIP3    H235360   3.642   3.794   7.985  2.3464 -0.3814  0.7684
 4601TIP3   OH235361   1.477   2.112   2.070  0.1023  0.2102  0.9435
 4601TIP3    H135362   1.402   2.065   2.108  0.0918 -1.0777 -0.5612
 4601TIP3    H235363   1.539   2.043   2.048  0.0095  0.8239 -1.5508
 4602TIP3   OH235364   2.814   2.788   0.347  0.1925 -0.5782 -0.3985
 4602TIP3    H135365   2.728   2.824   0.327  0.4765 -0.1707 -0.9033
 4602TIP3    H235366   2.872   2.825   0.281  1.0814  0.4868  0.9247
 4603TIP3   OH235367   5.567   2.254   8.298 -0.3118  0.3463 -0.3671
 4603TIP3    H135368   5.546   2.319   8.230 -2.8902  1.8271  1.6555
 4603TIP3    H235369   5.553   2.300   8.380  1.3515 -1.7878  1.2111
 4604TIP3   OH235370   6.580   5.272   0.655  0.4051 -0.2493 -0.5662
 4604TIP3    H135371   6.627   5.300   0.576 -0.3585  0.5299 -0.7680
 4604TIP3    H235372   6.640   5.213   0.700  1.2101  0.0194 -1.2714
 4605TIP3   OH235373   0.852   2.618   2.351 -0.1262  0.0512  0.1360
 4605TIP3    H135374   0.896   2.567   2.284  1.0309 -1.7956  2.1695
 4605TIP3    H235375   0.783   2.561   2.385 -1.0142  1.1297  0.2370
 4606TIP3   OH235376   5.290   1.649   1.323  0.0129 -0.5509  0.2882
 4606TIP3    H135377   5.240   1.712   1.272  1.5834  1.1567  0.7428
 4606TIP3    H235378   5.322   1.586   1.258  1.3733  1.1668 -0.7885
 4607TIP3   OH235379   2.975   1.299   1.159  0.1939  0.1666 -0.4164
 4607TIP3    H135380   2.962   1.383   1.201  0.8942 -0.0196  0.1854
 4607TIP3    H235381   3.042   1.315   1.092  0.3736  0.0749 -0.2591
 4608TIP3   OH235382   4.920   5.149   8.663 -0.4127 -0.7574  0.1109
 4608TIP3    H135383   4.997   5.093   8.658 -1.0770 -1.7492  0.8869
 4608TIP3    H235384   4.928   5.195   8.747 -1.3199 -1.8524  0.8190
 4609TIP3   OH235385   3.228   4.722   2.871 -0.2534 -0.3037 -0.9180
 4609TIP3    H135386   3.310   4.772   2.875 -0.0952 -0.6078  0.2077
 4609TIP3    H235387   3.200   4.716   2.962 -1.1184 -0.8828 -1.2138
 4610TIP3   OH235388   0.254   4.511   8.148  0.0389  0.0544 -0.7696
 4610TIP3    H135389   0.205   4.594   8.147  3.3197  2.2474  1.1998
 4610TIP3    H235390   0.297   4.508   8.062 -1.6380 -0.7749 -1.6438
 4611TIP3   OH235391   3.282   6.804   0.173  0.4023 -0.4344 -0.1017
 4611TIP3    H135392   3.229   6.740   0.125  1.6140 -1.5832  0.0360
 4611TIP3    H235393   3.325   6.753   0.241  1.9499  0.3718 -0.4315
 4612TIP3   OH235394   0.193   0.578   8.156 -0.2044  0.1660 -0.0151
 4612TIP3    H135395   0.120   0.543   8.206 -0.7943  0.6614 -0.5223
 4612TIP3    H235396   0.247   0.624   8.221 -0.2581 -0.3244  0.3826
 4613TIP3   OH235397   6.422   0.242   2.231  0.3552 -0.1411  0.1407
 4613TIP3    H135398   6.430   0.337   2.229 -1.0385 -0.0162 -0.8313
 4613TIP3    H235399   6.341   0.226   2.281  0.4219 -0.7988  0.0529
 4614TIP3   OH235400   5.349   5.887   0.562 -0.1215 -0.3511  0.4500
 4614TIP3    H135401   5.277   5.924   0.511  0.5903  0.9593  0.3472
 4614TIP3    H235402   5.397   5.963   0.595  0.4017 -1.1842  1.6986
 4615TIP3   OH235403   5.868   3.299   0.534  0.4732 -0.5176  0.1141
 4615TIP3    H135404   5.958   3.276   0.560  0.3947  1.2925  2.2273
 4615TIP3    H235405   5.843   3.370   0.593 -1.7434  0.2332 -1.5986
 4616TIP3   OH235406   1.451   4.051   8.427 -0.0886 -0.2336  0.0385
 4616TIP3    H135407   1.461   4.122   8.491  0.1364 -0.2235 -0.0070
 4616TIP3    H235408   1.383   4.082   8.367 -0.4061 -0.3036  0.3544
 4617TIP3   OH235409   5.375   0.811   8.198  0.4999 -0.0014 -0.7268
 4617TIP3    H135410   5.310   0.792   8.266 -0.6443  1.2707 -1.4003
 4617TIP3    H235411   5.444   0.858   8.244  0.4896 -0.5249 -0.1628
 4618TIP3   OH235412   5.738   3.245   7.808 -0.0370 -0.1654 -0.5085
 4618TIP3    H135413   5.715   3.187   7.881 -1.0522  0.1703 -0.5463
 4618TIP3    H235414   5.824   3.215   7.780  0.2033 -0.5418  0.5885
 4619TIP3   OH235415   0.363   0.892   1.974 -0.1635  0.2119 -0.2160
 4619TIP3    H135416   0.441   0.887   2.029 -0.6191 -2.5607  0.3488
 4619TIP3    H235417   0.302   0.828   2.012 -0.8562 -1.1809 -3.3094
 4620TIP3   OH235418   0.094   2.237   1.761  0.2107  0.0328  0.1578
 4620TIP3    H135419   0.114   2.205   1.849  1.4794 -0.7137 -0.3724
 4620TIP3    H235420   0.005   2.208   1.744  0.8245 -2.0621  0.2381
 4621TIP3   OH235421   6.424   3.193   8.340  0.2737 -0.5062 -0.0026
 4621TIP3    H135422   6.337   3.234   8.337  0.4908 -0.0552 -0.5200
 4621TIP3    H235423   6.472   3.245   8.404  1.3631  1.8182 -2.4784
 4622TIP3   OH235424   1.912   6.032   3.169 -0.2429  0.1765  0.1029
 4622TIP3    H135425   1.978   6.007   3.103 -0.7693 -0.1780 -0.2981
 4622TIP3    H235426   1.964   6.062   3.244  0.4775 -2.4671  0.7889
 4623TIP3   OH235427   1.220   5.823   2.510  0.8569 -0.2135  0.2888
 4623TIP3    H135428   1.310   5.855   2.511  0.4215  1.0732  0.7280
 4623TIP3    H235429   1.205   5.794   2.420  0.5405  3.1383 -0.8705
 4624TIP3   OH235430   2.857   5.254   2.121  0.3022 -0.0672  0.2611
 4624TIP3    H135431   2.938   5.204   2.107  0.6272  0.5694 -0.1598
 4624TIP3    H235432   2.886   5.343   2.139 -0.2088 -0.2755  2.3682
 4625TIP3   OH235433   1.771   0.435   1.887 -0.3241 -0.3743  0.4961
 4625TIP3    H135434   1.742   0.462   1.974 -0.4971 -0.7687  0.5621
 4625TIP3    H235435   1.721   0.356   1.869  1.1985 -1.4647  0.8940
 4626TIP3   OH235436   2.268   5.014   3.159 -0.0866  0.0555  0.1157
 4626TIP3    H135437   2.193   5.033   3.104  0.7325  0.7547 -0.8011
 4626TIP3    H235438   2.254   4.924   3.189 -0.0707 -0.7360 -2.0797
 4627TIP3   OH235439   4.903   6.544   1.977 -0.0213 -0.8002  0.7595
 4627TIP3    H135440   4.982   6.567   2.025  1.1970  0.3436 -1.6274
 4627TIP3    H235441   4.934   6.506   1.896 -1.8311  0.9157 -0.8551
 4628TIP3   OH235442   6.439   5.058   8.399  0.0873 -0.3099  0.5612
 4628TIP3    H135443   6.437   5.043   8.305 -0.5033  0.3032  0.4776
 4628TIP3    H235444   6.356   5.023   8.431 -0.3281  0.7357  0.6603
 4629TIP3   OH235445   3.980   6.640   7.847  0.9253  0.2277 -0.6981
 4629TIP3    H135446   3.996   6.693   7.926  0.5144 -0.9435  0.1941
 4629TIP3    H235447   4.057   6.656   7.792  0.5761  2.1558 -0.7171
 4630TIP3   OH235448   3.747   2.286   0.434  0.2618 -0.2265 -0.1883
 4630TIP3    H135449   3.767   2.329   0.518  0.3609 -0.2097 -0.2197
 4630TIP3    H235450   3.786   2.199   0.443 -0.9024 -0.7113  0.3044
 4631TIP3   OH235451   4.974   2.731   1.681  0.1496 -0.2126  0.3266
 4631TIP3    H135452   5.048   2.746   1.623  0.5028 -0.3011  0.7498
 4631TIP3    H235453   5.009   2.678   1.753 -0.0561  0.6548  1.0919
 4632TIP3   OH235454   4.556   1.383   8.062 -0.0544 -0.6315  0.0943
 4632TIP3    H135455   4.620   1.396   8.132  1.1122 -3.9256 -0.1816
 4632TIP3    H235456   4.574   1.453   7.999  1.5095  0.0579  1.2415
 4633TIP3   OH235457   3.566   2.869   8.232  0.0225  0.3207  0.2307
 4633TIP3    H135458   3.562   2.964   8.220 -1.3625  0.3031  0.4541
 4633TIP3    H235459   3.475   2.842   8.246  0.6540 -0.6795  2.9429
 4634TIP3   OH235460   2.710   6.021   2.905 -0.0837  0.7298  0.2255
 4634TIP3    H135461   2.654   6.094   2.880  0.0702  0.5452 -0.6730
 4634TIP3    H235462   2.777   6.060   2.961 -0.3663  1.1675  0.2603
 4635TIP3   OH235463   0.702   3.908   0.979  1.1398  0.2213 -0.4274
 4635TIP3    H135464   0.726   3.949   1.062  0.9616 -0.4057 -0.0590
 4635TIP3    H235465   0.746   3.822   0.981 -0.4891 -0.6361 -0.0800
 4636TIP3   OH235466   5.837   2.568   0.744  0.4013 -0.2404 -0.0864
 4636TIP3    H135467   5.917   2.586   0.794  1.0226 -2.6132 -0.1178
 4636TIP3    H235468   5.815   2.652   0.705  0.9007  1.2890  2.6817
 4637TIP3   OH235469   6.785   6.318   7.827 -0.0275 -0.5880  0.0535
 4637TIP3    H135470   6.792   6.232   7.786  0.2469  0.4885 -2.3086
 4637TIP3    H235471   6.700   6.352   7.798  0.5418  0.5505 -0.3350
 4638TIP3   OH235472   4.610   6.795   2.740 -0.0498 -0.1446  0.3435
 4638TIP3    H135473   4.704   6.814   2.745 -0.2551  0.9942  0.2481
 4638TIP3    H235474   4.605   6.708   2.701  0.9744 -0.3296  0.5902
 4639TIP3   OH235475   4.228   0.364   0.921 -0.4368 -0.1388 -1.0206
 4639TIP3    H135476   4.316   0.362   0.959 -1.2754 -1.3151  1.0056
 4639TIP3    H235477   4.193   0.449   0.949 -0.0910  0.1680 -1.5067
 4640TIP3   OH235478   2.468   5.400   3.288  0.1713 -0.0186  0.2137
 4640TIP3    H135479   2.480   5.316   3.243  1.0428 -0.3731  1.0562
 4640TIP3    H235480   2.529   5.459   3.244  1.0452 -0.3729  0.9133
 4641TIP3   OH235481   1.662   4.072   1.774 -0.4443 -0.3381 -0.0952
 4641TIP3    H135482   1.719   4.148   1.758  1.2279 -1.6151 -0.5537
 4641TIP3    H235483   1.714   4.016   1.832 -0.4851 -2.3487 -1.9081
 4642TIP3   OH235484   4.321   3.782   6.994 -0.2906 -0.3953  0.0715
 4642TIP3    H135485   4.348   3.810   7.081 -0.9955  0.3894  0.0507
 4642TIP3    H235486   4.227   3.797   6.992 -0.2772 -0.3741 -0.8361
 4643TIP3   OH235487   0.577   0.358   0.751  0.3099  0.4217  0.0208
 4643TIP3    H135488   0.539   0.282   0.708 -0.5566  1.0329 -0.3216
 4643TIP3    H235489   0.671   0.351   0.733  0.5600 -1.6063  1.6663
 4644TIP3   OH235490   3.353   2.236   2.808  0.1806 -0.2367 -0.1942
 4644TIP3    H135491   3.415   2.235   2.735 -0.9213  1.0210 -1.1836
 4644TIP3    H235492   3.297   2.160   2.792  0.8632 -0.8360  0.1920
 4645TIP3   OH235493   3.185   1.694   0.573 -0.6412  0.9905 -0.3610
 4645TIP3    H135494   3.119   1.627   0.591  0.0692 -0.0487 -1.4755
 4645TIP3    H235495   3.183   1.751   0.650 -2.9600  1.1158 -0.4293
 4646TIP3   OH235496   4.038   5.894   6.833  0.7707  0.5211 -0.0654
 4646TIP3    H135497   4.002   5.849   6.910 -0.0220  1.6706  0.2615
 4646TIP3    H235498   3.979   5.872   6.762  1.6687 -0.7829 -0.4443
 4647TIP3   OH235499   5.412   4.052   8.328  0.7647  0.1618  0.4611
 4647TIP3    H135500   5.391   4.146   8.333  0.4234  0.0934  0.3454
 4647TIP3    H235501   5.379   4.016   8.410  0.5736  0.0843  0.3526
 4648TIP3   OH235502   2.646   5.632   2.377 -0.0671 -0.2840 -0.3822
 4648TIP3    H135503   2.738   5.651   2.399  0.2617 -1.4982 -0.6235
 4648TIP3    H235504   2.640   5.536   2.384 -1.5100 -0.1588  0.3618
 4649TIP3   OH235505   4.713   6.734   3.067  0.2025 -0.3050  0.1121
 4649TIP3    H135506   4.637   6.781   3.102 -0.0220 -0.4409 -0.1932
 4649TIP3    H235507   4.710   6.749   2.973  1.3583  0.8761  0.2226
 4650TIP3   OH235508   1.987   4.954   0.486  0.3906 -0.3130 -0.3136
 4650TIP3    H135509   2.073   4.933   0.521  0.7374  1.7314  0.1470
 4650TIP3    H235510   2.002   5.029   0.428 -0.9278 -0.5584 -1.0179
 4651TIP3   OH235511   3.107   2.998   8.298 -0.5282  0.7299 -0.6709
 4651TIP3    H135512   3.057   3.031   8.373  0.9780 -0.3652  0.8926
 4651TIP3    H235513   3.061   3.032   8.222 -3.1913  0.4116  0.6825
 4652TIP3   OH235514   0.098   6.453   2.404  0.4342 -0.1506 -1.0231
 4652TIP3    H135515   0.050   6.523   2.447  1.0221  0.5651 -1.5141
 4652TIP3    H235516   0.086   6.469   2.310  0.3389 -0.8748 -1.1466
 4653TIP3   OH235517   1.613   1.512   7.536 -0.0843  0.6239 -0.1267
 4653TIP3    H135518   1.628   1.424   7.501 -0.5379  0.3925  0.2470
 4653TIP3    H235519   1.698   1.555   7.528  0.5767 -0.3591  1.1448
 4654TIP3   OH235520   6.603   2.016   8.021  0.1805  0.4924 -0.3367
 4654TIP3    H135521   6.597   1.947   7.956  0.3997  0.4569 -0.3221
 4654TIP3    H235522   6.541   1.992   8.089 -0.6280  0.9418 -0.9071
 4655TIP3   OH235523   0.534   3.470   2.770 -0.1467 -0.0765  0.0362
 4655TIP3    H135524   0.610   3.422   2.736 -1.1158 -0.9718 -0.9168
 4655TIP3    H235525   0.561   3.498   2.857  0.1193 -3.2538  1.1009
 4656TIP3   OH235526   4.431   4.755   7.672 -0.2709 -0.0517 -0.5082
 4656TIP3    H135527   4.337   4.743   7.671 -0.1096 -1.4827 -1.3577
 4656TIP3    H235528   4.462   4.713   7.592  1.1878 -0.5512  0.2798
 4657TIP3   OH235529   1.950   5.829   2.574 -0.0786  0.2362 -0.5847
 4657TIP3    H135530   2.040   5.839   2.606  0.1046  1.3168 -1.3682
 4657TIP3    H235531   1.896   5.873   2.640  0.2258  1.7832 -1.3153
 4658TIP3   OH235532   2.272   1.280   1.705  0.3317 -0.4117 -0.0243
 4658TIP3    H135533   2.283   1.201   1.758  0.9946  0.1864  0.7516
 4658TIP3    H235534   2.267   1.351   1.768 -1.0586  0.1052 -0.6787
 4659TIP3   OH235535   2.585   6.402   0.790  0.1437 -0.1109 -0.0642
 4659TIP3    H135536   2.610   6.422   0.699 -1.9176 -0.9361 -0.8593
 4659TIP3    H235537   2.493   6.428   0.796  0.0273 -0.7910  1.5852
 4660TIP3   OH235538   6.784   1.696   3.126 -0.3675 -1.2026  0.2697
 4660TIP3    H135539   6.859   1.654   3.084  0.1583 -0.2912  0.2515
 4660TIP3    H235540   6.713   1.688   3.063  0.0055 -1.1627 -0.1616
 4661TIP3   OH235541   2.089   0.337   2.487 -0.1275  0.3838 -0.0572
 4661TIP3    H135542   2.027   0.371   2.551 -1.1164  0.5078 -1.0395
 4661TIP3    H235543   2.081   0.242   2.493  1.1695  0.3328  1.2932
 4662TIP3   OH235544   1.131   0.855   8.586  0.3801 -0.6251  0.3493
 4662TIP3    H135545   1.075   0.783   8.615 -0.2662  0.2711  1.3590
 4662TIP3    H235546   1.215   0.837   8.627 -0.0693 -0.2571  1.4539
 4663TIP3   OH235547   0.555   6.404   3.124 -0.1645 -0.2622  0.1477
 4663TIP3    H135548   0.521   6.357   3.200 -0.2425 -0.2374  0.1288
 4663TIP3    H235549   0.477   6.444   3.085 -0.5798 -2.5904 -1.5941
 4664TIP3   OH235550   0.639   0.784   1.876  0.2596 -0.4157  0.3155
 4664TIP3    H135551   0.645   0.853   1.811  1.8594  0.1180  0.9737
 4664TIP3    H235552   0.693   0.815   1.949  1.2599 -2.4534  0.5164
 4665TIP3   OH235553   2.985   4.250   1.890 -0.3257  0.2287 -0.1689
 4665TIP3    H135554   3.041   4.323   1.916 -0.6913  0.6644 -0.5729
 4665TIP3    H235555   2.907   4.260   1.944  0.2038 -0.7019  0.7917
 4666TIP3   OH235556   2.934   4.006   6.876 -0.3255 -0.0682  0.6998
 4666TIP3    H135557   3.009   4.049   6.918  0.1361 -2.3284  2.3810
 4666TIP3    H235558   2.955   4.009   6.782  0.4652  1.7964  0.8892
 4667TIP3   OH235559   4.995   2.936   1.416  0.0655 -0.0548 -0.1628
 4667TIP3    H135560   4.968   2.847   1.438  0.7190 -0.0620  0.6864
 4667TIP3    H235561   5.082   2.925   1.377 -0.1073  0.1595 -0.6042
 4668TIP3   OH235562   1.315   0.940   8.097 -1.0807 -0.1384 -0.3190
 4668TIP3    H135563   1.250   0.911   8.034 -0.7381  0.7582 -1.1077
 4668TIP3    H235564   1.270   0.935   8.182 -2.1644  0.4194 -0.8381
 4669TIP3   OH235565   2.532   5.158   3.184 -0.7512 -0.1203  0.5705
 4669TIP3    H135566   2.444   5.121   3.176 -0.4382 -0.8923  0.5966
 4669TIP3    H235567   2.591   5.083   3.177 -0.1105  0.3021  1.1811
 4670TIP3   OH235568   5.562   3.964   1.051  0.3787  0.0449 -0.0565
 4670TIP3    H135569   5.630   3.915   1.097  0.2732 -0.9010 -0.8734
 4670TIP3    H235570   5.549   4.043   1.104  1.1720 -0.3901  0.8124
 4671TIP3   OH235571   0.471   0.835   7.885 -0.7919 -0.1514 -0.0754
 4671TIP3    H135572   0.504   0.925   7.887  0.6553 -0.6499 -0.0803
 4671TIP3    H235573   0.507   0.799   7.804 -1.2316 -0.7874  0.0107
 4672TIP3   OH235574   1.514   1.358   2.755 -0.8539  0.1345  0.3882
 4672TIP3    H135575   1.545   1.405   2.678 -0.1068 -1.7201 -0.5008
 4672TIP3    H235576   1.558   1.403   2.829  0.0041  0.6858 -0.4271
 4673TIP3   OH235577   0.564   4.977   1.824  0.4654 -0.3557 -0.6527
 4673TIP3    H135578   0.573   5.069   1.848  3.4559  0.1810 -3.2450
 4673TIP3    H235579   0.480   4.971   1.779 -0.3342  0.7829  0.6323
 4674TIP3   OH235580   1.875   4.196   7.441 -0.1150  0.2487  0.1127
 4674TIP3    H135581   1.792   4.181   7.395 -0.2096  0.2724  0.2752
 4674TIP3    H235582   1.905   4.109   7.466 -0.7497  0.3288  1.2079
 4675TIP3   OH235583   5.766   3.489   1.599 -0.1075 -0.1238  0.0091
 4675TIP3    H135584   5.770   3.411   1.543  0.6613  0.0060 -0.1276
 4675TIP3    H235585   5.761   3.454   1.688 -0.0482 -0.3329 -0.0686
 4676TIP3   OH235586   4.584   6.208   8.251  0.2156  0.3100 -0.1019
 4676TIP3    H135587   4.558   6.296   8.226 -0.3195 -0.2107 -1.4927
 4676TIP3    H235588   4.501   6.159   8.255  0.4335 -0.0084  1.2854
 4677TIP3   OH235589   4.976   4.226   7.771 -0.5018  0.3138 -0.2618
 4677TIP3    H135590   4.951   4.314   7.743 -2.2453 -0.6494 -1.8826
 4677TIP3    H235591   4.906   4.169   7.741  0.9479 -1.7761  0.0563
 4678TIP3   OH235592   5.282   0.661   1.558 -0.5795  0.0086  0.0263
 4678TIP3    H135593   5.326   0.681   1.475  0.2697  0.5354  0.5888
 4678TIP3    H235594   5.275   0.745   1.603  0.5743 -0.4996  1.2476
 4679TIP3   OH235595   5.124   3.425   0.519 -0.5657  0.0862  0.3067
 4679TIP3    H135596   5.138   3.509   0.475 -0.4962  0.8720  1.7855
 4679TIP3    H235597   5.132   3.444   0.612 -1.4008 -1.3994  0.7252
 4680TIP3   OH235598   3.288   0.225   8.460  0.3266 -0.0390 -0.3495
 4680TIP3    H135599   3.266   0.262   8.375  0.4618 -1.3496 -0.9944
 4680TIP3    H235600   3.226   0.153   8.472  0.8714 -0.4244  0.2518
 4681TIP3   OH235601   1.327   3.021   8.468  0.6089 -0.3637 -0.1784
 4681TIP3    H135602   1.278   3.103   8.463  0.3244 -0.4209  1.1316
 4681TIP3    H235603   1.308   2.988   8.556  0.6145 -1.9007 -0.7199
 4682TIP3   OH235604   6.350   3.912   7.475 -0.0156 -0.1544 -0.1657
 4682TIP3    H135605   6.351   3.905   7.380 -0.5867  1.8883 -0.3654
 4682TIP3    H235606   6.264   3.948   7.496  1.3838  2.9876  0.7442
 4683TIP3   OH235607   4.242   4.764   1.653  0.4490  0.9651  0.1894
 4683TIP3    H135608   4.310   4.709   1.614  1.4986  2.3847 -0.0848
 4683TIP3    H235609   4.185   4.786   1.579  0.1979  0.4842  0.2404
 4684TIP3   OH235610   0.603   0.799   0.179 -0.1225  0.0481 -0.2081
 4684TIP3    H135611   0.644   0.741   0.242 -1.0982  1.0410  1.4149
 4684TIP3    H235612   0.657   0.878   0.180  1.0107 -0.6270 -2.1605
 4685TIP3   OH235613   5.808   1.556   8.158 -1.0621 -0.4072 -0.7872
 4685TIP3    H135614   5.766   1.560   8.244 -0.7844 -0.6221 -0.6395
 4685TIP3    H235615   5.783   1.637   8.115  0.6915  0.8209  0.3824
 4686TIP3   OH235616   2.337   4.571   0.920  0.2155  0.5284 -0.2972
 4686TIP3    H135617   2.398   4.507   0.883  0.0879  1.7345 -2.7694
 4686TIP3    H235618   2.386   4.613   0.991  0.3948 -2.0307  1.2023
 4687TIP3   OH235619   5.495   2.649   0.256  0.3920 -1.4256  0.1474
 4687TIP3    H135620   5.544   2.585   0.205  1.0729 -0.6736 -0.1591
 4687TIP3    H235621   5.458   2.599   0.329 -1.4122 -2.7292 -1.5578
 4688TIP3   OH235622   6.511   0.278   8.274 -0.3560  0.4115  0.1432
 4688TIP3    H135623   6.465   0.338   8.332 -0.5495 -0.9422  1.4521
 4688TIP3    H235624   6.603   0.293   8.292 -0.3896 -1.8729  2.9665
 4689TIP3   OH235625   6.860   4.439   2.135 -0.1447  0.3337  0.1340
 4689TIP3    H135626   6.900   4.352   2.131  1.4851  1.0887 -0.7211
 4689TIP3    H235627   6.767   4.421   2.147 -0.1219 -1.5974 -1.8457
 4690TIP3   OH235628   6.610   1.709   8.212 -0.6657  0.1227  0.4338
 4690TIP3    H135629   6.571   1.651   8.278  0.6366 -2.0455 -0.5866
 4690TIP3    H235630   6.677   1.757   8.259  0.1185 -1.2620  0.7996
 4691TIP3   OH235631   5.151   0.007   1.227 -0.3565 -0.1201 -0.1919
 4691TIP3    H135632   5.241  -0.020   1.247  0.2517  0.9992 -1.3278
 4691TIP3    H235633   5.156   0.049   1.142 -1.7720  0.9821  0.2244
 4692TIP3   OH235634   2.441   6.271   2.505  0.1012  0.2161  0.2738
 4692TIP3    H135635   2.399   6.270   2.591  0.5674 -0.6617  0.5008
 4692TIP3    H235636   2.502   6.345   2.509  0.2331  0.0827  0.7578
 4693TIP3   OH235637   1.140   4.082   1.110  0.2764 -0.5383 -0.1864
 4693TIP3    H135638   1.145   4.001   1.161 -1.9465  0.9726  2.6818
 4693TIP3    H235639   1.078   4.062   1.041 -0.5338 -1.2012  0.7081
 4694TIP3   OH235640   1.959   1.710   2.456 -0.1676 -0.7620  0.4708
 4694TIP3    H135641   1.863   1.707   2.463 -0.1660  0.2981  1.0960
 4694TIP3    H235642   1.976   1.760   2.376 -0.1154 -1.6923 -0.1270
 4695TIP3   OH235643   0.366   1.423   3.098  0.9263 -0.5916  0.8969
 4695TIP3    H135644   0.459   1.406   3.112  0.7728 -1.2182  1.1849
 4695TIP3    H235645   0.332   1.440   3.186  0.8447  0.0583  0.7458
 4696TIP3   OH235646   0.284   2.142   7.321 -0.3038 -0.9017 -0.5610
 4696TIP3    H135647   0.212   2.150   7.383 -0.4805 -0.7802 -0.7788
 4696TIP3    H235648   0.242   2.127   7.237 -0.0284 -2.5014 -0.4412
 4697TIP3   OH235649   4.572   4.486   7.454  0.4410 -0.1800  0.5095
 4697TIP3    H135650   4.523   4.430   7.394  1.5072 -0.7781  0.1487
 4697TIP3    H235651   4.575   4.437   7.536 -0.5913  0.4139  0.9226
 4698TIP3   OH235652   5.963   3.297   1.738 -0.1999 -0.0154  0.0831
 4698TIP3    H135653   6.037   3.258   1.784 -0.7626 -2.4646 -0.9049
 4698TIP3    H235654   5.972   3.266   1.648 -1.2945  1.3808 -0.5507
 4699TIP3   OH235655   1.176   0.090   2.061 -0.3547  0.4632 -0.2717
 4699TIP3    H135656   1.230   0.092   1.982  0.8270  1.7446  0.5111
 4699TIP3    H235657   1.171  -0.002   2.085 -1.1644 -0.0216 -2.0802
 4700TIP3   OH235658   1.962   0.664   0.699  0.5189  0.0019  0.0125
 4700TIP3    H135659   1.919   0.704   0.624  1.4256  0.5923 -0.1994
 4700TIP3    H235660   2.036   0.616   0.662 -0.3828 -1.6694  0.2888
 4701TIP3   OH235661   0.752   1.184   0.867  0.3758  0.3173 -0.2509
 4701TIP3    H135662   0.702   1.102   0.867  1.6568 -0.5449 -1.8152
 4701TIP3    H235663   0.748   1.214   0.776  0.3909  1.7094  0.1943
 4702TIP3   OH235664   1.420   6.412   1.559 -1.0890  0.2918  0.1187
 4702TIP3    H135665   1.482   6.423   1.632 -0.0314  0.4475 -0.7696
 4702TIP3    H235666   1.335   6.431   1.597 -0.6420 -0.2606  1.4756
 4703TIP3   OH235667   1.689   4.352   7.055  0.0702  0.2276  0.0701
 4703TIP3    H135668   1.729   4.267   7.039 -0.5593  0.0628 -0.6943
 4703TIP3    H235669   1.714   4.405   6.979  0.0856  0.5884  0.3224
 4704TIP3   OH235670   3.290   4.105   1.314 -0.0966  0.3167 -0.2821
 4704TIP3    H135671   3.256   4.018   1.332  1.4592 -0.0617  0.9499
 4704TIP3    H235672   3.373   4.091   1.269  1.0660  1.0851  1.5227
 4705TIP3   OH235673   0.335   4.713   7.333  0.1216  0.9520 -0.2171
 4705TIP3    H135674   0.391   4.714   7.410 -0.5817  2.7635  0.3119
 4705TIP3    H235675   0.366   4.638   7.282  1.0878  0.1749  1.4440
 4706TIP3   OH235676   3.287   3.855   6.922 -0.1074 -0.2963  0.2465
 4706TIP3    H135677   3.273   3.943   6.887 -1.2946 -0.7387 -0.4377
 4706TIP3    H235678   3.382   3.847   6.927  0.0489  0.5793 -0.8482
 4707TIP3   OH235679   1.734   4.569   2.686  0.0108 -0.3700 -0.2189
 4707TIP3    H135680   1.743   4.580   2.592 -2.3074  0.2816 -0.4238
 4707TIP3    H235681   1.681   4.490   2.696 -1.0278  0.3836  0.4441
 4708TIP3   OH235682   2.193   4.484   0.434 -0.3743 -0.1632 -0.1220
 4708TIP3    H135683   2.193   4.489   0.530  2.7269 -1.8887  0.0746
 4708TIP3    H235684   2.154   4.567   0.406  0.3404  1.2172  2.6241
 4709TIP3   OH235685   4.208   3.434   0.522  0.6082  0.7204 -0.4944
 4709TIP3    H135686   4.271   3.379   0.567  0.7824 -1.0610 -2.7346
 4709TIP3    H235687   4.262   3.492   0.467  0.3570  0.6215 -0.8508
 4710TIP3   OH235688   0.986   3.483   0.266  0.2535 -0.2649 -1.1582
 4710TIP3    H135689   0.897   3.491   0.299 -0.1575 -2.5020 -1.5915
 4710TIP3    H235690   1.040   3.473   0.344  0.1411  0.8822 -0.9064
 4711TIP3   OH235691   1.645   4.454   0.851  0.5447 -0.4610  0.3858
 4711TIP3    H135692   1.688   4.383   0.803 -1.8776 -0.6938 -1.7206
 4711TIP3    H235693   1.710   4.524   0.854  1.7101 -1.4196 -0.9318
 4712TIP3   OH235694   5.977   3.498   7.887 -0.2951  0.3069  0.6913
 4712TIP3    H135695   5.980   3.428   7.952 -1.1531  0.4331  0.8879
 4712TIP3    H235696   6.028   3.465   7.813  0.5972  0.1170  1.3735
 4713TIP3   OH235697   6.259   1.099   7.912  0.4130  0.0935 -0.0468
 4713TIP3    H135698   6.267   1.054   7.827  1.3325  0.2012 -0.0333
 4713TIP3    H235699   6.327   1.058   7.966 -0.0926  0.1108  0.6057
 4714TIP3   OH235700   4.823   3.057   7.278  0.0035  0.3577 -0.5749
 4714TIP3    H135701   4.797   3.079   7.367 -0.3364  0.4491 -0.6933
 4714TIP3    H235702   4.919   3.059   7.279  0.0100 -0.0896 -0.1001
 4715TIP3   OH235703   5.271   2.013   2.027  0.4308  0.2219 -0.2246
 4715TIP3    H135704   5.261   2.106   2.049  0.8536  0.7234 -1.9971
 4715TIP3    H235705   5.258   1.967   2.111 -0.5514  1.8071  0.5496
 4716TIP3   OH235706   5.462   6.740   1.845 -0.2975 -0.2382  0.4011
 4716TIP3    H135707   5.425   6.750   1.933 -0.0942  2.0089  0.2860
 4716TIP3    H235708   5.531   6.806   1.841 -0.6668  0.0642 -1.6266
 4717TIP3   OH235709   4.959   2.360   8.658  0.3486 -0.3036  0.4537
 4717TIP3    H135710   4.928   2.441   8.699 -1.0246 -0.4092 -0.3136
 4717TIP3    H235711   4.996   2.309   8.730 -3.1666 -1.0613  1.9120
 4718TIP3   OH235712   3.654   4.915   1.065 -0.0872 -0.2018  0.4253
 4718TIP3    H135713   3.718   4.927   1.135  0.8398 -2.8147  0.1380
 4718TIP3    H235714   3.679   4.980   0.998 -0.1101  1.3405  1.8478
 4719TIP3   OH235715   0.527   6.167   3.285  0.0324  0.3324 -0.0339
 4719TIP3    H135716   0.510   6.073   3.279  0.3360  0.0496  2.3216
 4719TIP3    H235717   0.449   6.202   3.328  0.5939  0.8631  0.5802
 4720TIP3   OH235718   5.842   6.151   1.355 -0.3589 -0.0699 -0.1581
 4720TIP3    H135719   5.804   6.223   1.305  0.3716 -0.8021 -1.8252
 4720TIP3    H235720   5.936   6.160   1.343 -0.1924 -0.5417  0.7211
 4721TIP3   OH235721   2.841   5.304   0.723 -0.1926  0.8448  0.6971
 4721TIP3    H135722   2.890   5.222   0.722 -2.5121 -0.6116 -0.0806
 4721TIP3    H235723   2.825   5.322   0.815  0.8737  0.7974  0.9003
 4722TIP3   OH235724   2.391   5.709   1.003  0.0560  0.0209  0.3840
 4722TIP3    H135725   2.406   5.787   1.055 -0.9403  0.3319  0.2306
 4722TIP3    H235726   2.343   5.650   1.062 -0.2598  0.0124  0.1246
 4723TIP3   OH235727   1.156   0.339   1.956  0.1294 -0.9898  0.3147
 4723TIP3    H135728   1.167   0.250   1.990  2.6904 -0.9807 -0.2717
 4723TIP3    H235729   1.167   0.396   2.032  0.0383 -1.1226  0.4269
 4724TIP3   OH235730   2.422   2.503   1.610  0.2059  0.4206 -0.5833
 4724TIP3    H135731   2.471   2.510   1.692 -0.2579 -2.5615  0.0647
 4724TIP3    H235732   2.488   2.518   1.542  1.2358  0.1415  0.3150
 4725TIP3   OH235733   3.372   3.307   1.207  0.1681 -0.1837 -0.0563
 4725TIP3    H135734   3.280   3.331   1.219  0.2725  0.6093 -0.7765
 4725TIP3    H235735   3.405   3.369   1.143  1.1186 -0.6971 -0.0816
 4726TIP3   OH235736   0.596   0.251   1.361 -0.4977  0.9090 -0.0422
 4726TIP3    H135737   0.568   0.313   1.293 -0.7851 -0.6538 -1.4113
 4726TIP3    H235738   0.553   0.283   1.441 -1.0057  2.1985 -0.7879
 4727TIP3   OH235739   6.801   5.096   2.709  0.2865 -0.4718  0.0467
 4727TIP3    H135740   6.781   5.156   2.637 -1.0218 -0.4129  0.4468
 4727TIP3    H235741   6.754   5.131   2.784  0.0758 -1.6020  0.4609
 4728TIP3   OH235742   3.295   2.367   0.825  0.5165 -0.0150  0.8926
 4728TIP3    H135743   3.246   2.445   0.801 -0.3663 -0.5273  0.9907
 4728TIP3    H235744   3.368   2.400   0.878 -0.2778  0.6845  1.5830
 4729TIP3   OH235745   4.077   1.144   7.028  0.0049  0.2134  0.0267
 4729TIP3    H135746   3.986   1.167   7.012 -0.4708  0.3465  2.4594
 4729TIP3    H235747   4.082   1.050   7.010 -0.1168  0.5470 -1.8935
 4730TIP3   OH235748   0.410   5.593   0.933  0.3912 -0.7297  0.2041
 4730TIP3    H135749   0.343   5.554   0.876  0.2997  0.1870 -0.3465
 4730TIP3    H235750   0.370   5.674   0.964  0.3441 -1.3513  1.8200
 4731TIP3   OH235751   3.449   5.739   2.922  0.0416  0.6045  0.2838
 4731TIP3    H135752   3.471   5.762   2.832 -0.1227 -0.3411 -0.0155
 4731TIP3    H235753   3.513   5.786   2.976 -0.5452  2.0344 -0.2492
 4732TIP3   OH235754   2.809   2.693   8.498 -0.3392 -0.0835 -0.3162
 4732TIP3    H135755   2.847   2.655   8.419  0.8246 -0.4591  0.4075
 4732TIP3    H235756   2.781   2.781   8.472 -0.3192 -0.3459 -1.2379
 4733TIP3   OH235757   1.359   6.668   2.366  0.6108 -0.4578 -0.3290
 4733TIP3    H135758   1.384   6.617   2.443 -4.3251 -0.1570  1.8389
 4733TIP3    H235759   1.395   6.619   2.292  2.3115 -2.9259  1.9628
 4734TIP3   OH235760   2.646   6.834   0.600  0.7087 -0.0699  0.4128
 4734TIP3    H135761   2.680   6.752   0.635  1.0417 -0.4100 -0.6711
 4734TIP3    H235762   2.580   6.807   0.536  3.1121  0.3173 -2.4587
 4735TIP3   OH235763   3.129   1.406   0.964  0.3363  0.3439  0.3455
 4735TIP3    H135764   3.064   1.402   0.893 -0.8350 -0.7676  1.4154
 4735TIP3    H235765   3.175   1.323   0.959  1.8278  1.1942 -0.5020
 4736TIP3   OH235766   1.606   4.106   8.168  0.4102 -0.3083  0.1654
 4736TIP3    H135767   1.646   4.045   8.106  0.7989  0.1414 -0.0358
 4736TIP3    H235768   1.625   4.193   8.131  0.1014 -0.0596  0.5882
 4737TIP3   OH235769   1.831   4.531   0.532 -0.0051 -1.0443  0.1546
 4737TIP3    H135770   1.779   4.451   0.522 -0.3174 -0.8326  0.0755
 4737TIP3    H235771   1.821   4.554   0.625  0.3810 -1.2964  0.2617
 4738TIP3   OH235772   5.467   0.198   8.373  0.9518 -0.2301 -0.2689
 4738TIP3    H135773   5.436   0.288   8.380 -0.3717 -0.5641 -1.4375
 4738TIP3    H235774   5.549   0.204   8.324  0.3527  0.2528 -1.2295
 4739TIP3   OH235775   5.562   2.582   1.722 -0.0966  0.3547 -0.3933
 4739TIP3    H135776   5.487   2.622   1.766 -0.3722 -0.2616 -0.2875
 4739TIP3    H235777   5.613   2.542   1.793  0.1775  0.5226 -0.4949
 4740TIP3   OH235778   3.670   4.729   0.396  0.3124  0.0439 -0.3715
 4740TIP3    H135779   3.706   4.641   0.408  0.9973  0.5556  1.6280
 4740TIP3    H235780   3.593   4.732   0.452 -0.1039  0.5098 -0.9571
 4741TIP3   OH235781   6.168   0.094   0.132  0.1596 -0.2813 -0.1277
 4741TIP3    H135782   6.081   0.122   0.103  0.6974  2.4618  0.6176
 4741TIP3    H235783   6.195   0.030   0.066 -2.2590 -0.9629 -0.5620
 4742TIP3   OH235784   3.636   5.493   2.026 -0.2390 -0.8846  0.6187
 4742TIP3    H135785   3.639   5.398   2.031 -1.7143 -0.9525  0.4102
 4742TIP3    H235786   3.543   5.515   2.027  0.0798  0.6178  1.7536
 4743TIP3   OH235787   5.222   2.302   1.865 -0.7403 -0.4159  0.5708
 4743TIP3    H135788   5.201   2.384   1.819  1.5055 -0.7095 -1.1423
 4743TIP3    H235789   5.294   2.325   1.924 -0.2215 -1.1045  0.2150
 4744TIP3   OH235790   5.536   6.666   2.191 -0.2809 -0.2295 -0.3183
 4744TIP3    H135791   5.481   6.635   2.262 -0.8964 -0.0755 -0.7148
 4744TIP3    H235792   5.549   6.759   2.209  0.9491 -0.5305  0.4727
 4745TIP3   OH235793   1.714   1.313   8.441 -0.3609 -0.2572 -0.1576
 4745TIP3    H135794   1.675   1.226   8.451 -1.8622  0.0580 -2.4568
 4745TIP3    H235795   1.745   1.335   8.529  2.1958 -4.0039  0.1335
 4746TIP3   OH235796   4.093   4.075   1.149 -0.2663  0.0301 -0.5262
 4746TIP3    H135797   4.158   4.145   1.145 -2.2766  2.2158  1.6889
 4746TIP3    H235798   4.095   4.045   1.240  0.1079 -2.4346 -1.2780
 4747TIP3   OH235799   6.072   3.197   8.566 -0.1333  0.2310  0.2342
 4747TIP3    H135800   6.090   3.274   8.620  0.4114  0.4299 -0.2204
 4747TIP3    H235801   5.978   3.181   8.577  0.2127 -0.7052  2.5241
 4748TIP3   OH235802   1.327   0.790   2.492  0.2287  0.6293  0.0777
 4748TIP3    H135803   1.282   0.715   2.453 -0.5874  0.8859  0.4935
 4748TIP3    H235804   1.389   0.752   2.554 -0.7547  0.2879  0.8930
 4749TIP3   OH235805   6.464   3.043   0.981  0.7267 -0.1129 -0.1201
 4749TIP3    H135806   6.471   3.125   1.030 -1.1881  0.2501 -0.3629
 4749TIP3    H235807   6.452   2.976   1.048  0.8411  0.0156  0.0279
 4750TIP3   OH235808   0.095   3.915   2.327 -0.5904  0.5144  0.1626
 4750TIP3    H135809   0.087   3.929   2.421 -1.8502 -2.2074  0.5560
 4750TIP3    H235810   0.164   3.849   2.319  0.4374  1.6771 -0.9740
 4751TIP3   OH235811   2.066   5.162   8.104  0.3773 -0.5190 -0.1351
 4751TIP3    H135812   1.986   5.151   8.052  1.1892 -2.0586 -1.1580
 4751TIP3    H235813   2.049   5.114   8.185 -0.1640  0.1808  0.1696
 4752TIP3   OH235814   0.529   1.084   7.944  0.7261 -0.2379  0.4215
 4752TIP3    H135815   0.468   1.158   7.937  1.9305  0.6546 -1.6685
 4752TIP3    H235816   0.592   1.111   8.010  0.5610  0.1634  0.4230
 4753TIP3   OH235817   5.918   1.279   0.794 -0.2363 -0.8230 -0.1144
 4753TIP3    H135818   5.830   1.315   0.788 -0.7842 -1.7495  1.4769
 4753TIP3    H235819   5.905   1.192   0.832  1.3803 -0.9341  0.2599
 4754TIP3   OH235820   6.601   4.507   7.422  0.6264  0.2920 -0.1107
 4754TIP3    H135821   6.621   4.477   7.333  0.2473 -0.4265  0.0416
 4754TIP3    H235822   6.507   4.525   7.420 -0.3682 -3.7516  1.2213
 4755TIP3   OH235823   2.617   6.597   1.354  0.4874 -0.1180 -0.6367
 4755TIP3    H135824   2.630   6.532   1.423 -1.4352  0.3939  0.2708
 4755TIP3    H235825   2.588   6.546   1.278 -0.4510 -0.4071 -0.1006
 4756TIP3   OH235826   0.762   5.108   7.616 -0.2254  0.2650 -0.4791
 4756TIP3    H135827   0.779   5.095   7.523 -0.2818  0.9882 -0.5984
 4756TIP3    H235828   0.726   5.197   7.622  1.0542  0.7580  0.3853
 4757TIP3   OH235829   5.758   6.780   2.349 -0.5247  0.4204  0.0964
 4757TIP3    H135830   5.704   6.711   2.388 -0.0003  1.2119  2.4194
 4757TIP3    H235831   5.696   6.848   2.325 -0.7332  0.6792  1.3119
 4758TIP3   OH235832   2.029   1.440   1.458  0.4194  0.3688 -0.3462
 4758TIP3    H135833   2.110   1.408   1.418 -0.2403 -1.5692 -0.1925
 4758TIP3    H235834   1.961   1.381   1.426 -0.4851  0.1792  1.7995
 4759TIP3   OH235835   2.170   5.152   1.384  0.5439  0.5734  0.5231
 4759TIP3    H135836   2.162   5.077   1.326  0.5577 -0.5991  1.9954
 4759TIP3    H235837   2.188   5.115   1.471  0.0713  2.2382  1.3896
 4760TIP3   OH235838   4.223   2.410   7.641 -0.0114 -0.5294 -0.0941
 4760TIP3    H135839   4.204   2.336   7.584 -0.6729  0.5249 -1.2978
 4760TIP3    H235840   4.318   2.411   7.648  0.0009 -1.6409  0.1848
 4761TIP3   OH235841   4.293   5.851   6.898  1.0712  0.2692  0.2992
 4761TIP3    H135842   4.237   5.793   6.948  1.0270 -0.9226 -1.0830
 4761TIP3    H235843   4.233   5.897   6.839  1.4802 -0.9669 -1.1416
 4762TIP3   OH235844   2.166   1.622   7.282  0.4893  0.2513 -0.6926
 4762TIP3    H135845   2.084   1.580   7.308 -0.6078  2.6248  0.0386
 4762TIP3    H235846   2.219   1.622   7.362 -0.2640  1.7802 -0.1424
 4763TIP3   OH235847   3.570   2.809   0.052 -0.0965  0.2527  0.1906
 4763TIP3    H135848   3.542   2.745  -0.012  2.3941 -0.2523 -0.5140
 4763TIP3    H235849   3.617   2.875   0.002  2.7062 -0.6109  1.4409
 4764TIP3   OH235850   6.130   1.430   0.862  0.1496  0.1714 -0.8394
 4764TIP3    H135851   6.061   1.365   0.847  0.4650  0.0652 -1.9138
 4764TIP3    H235852   6.084   1.514   0.860 -0.3186 -0.0040  0.9185
 4765TIP3   OH235853   0.163   0.334   8.567  0.1340  0.0344  0.3619
 4765TIP3    H135854   0.150   0.299   8.479  0.1649 -0.5645  0.5953
 4765TIP3    H235855   0.192   0.259   8.619 -1.6770 -0.0473  1.3227
 4766TIP3   OH235856   4.517   2.330   2.456  0.3589  0.1035 -0.2236
 4766TIP3    H135857   4.431   2.308   2.493 -0.2783  0.3630 -1.4849
 4766TIP3    H235858   4.525   2.425   2.469  0.2617  0.1476 -0.4728
 4767TIP3   OH235859   2.239   1.321   1.261 -0.7690 -0.1686 -0.2949
 4767TIP3    H135860   2.258   1.311   1.168  1.0482  0.1768  0.0022
 4767TIP3    H235861   2.286   1.400   1.287 -2.0151  0.2807  0.7406
 4768TIP3   OH235862   4.103   4.244   1.847  0.4709  0.6702 -0.1718
 4768TIP3    H135863   4.167   4.185   1.809  0.3376  0.8768 -0.7327
 4768TIP3    H235864   4.029   4.242   1.786 -0.2767  0.0395  0.7247
 4769TIP3   OH235865   5.199   2.706   1.513  0.2169  0.0086 -0.5659
 4769TIP3    H135866   5.246   2.688   1.432 -0.1250 -1.2588 -0.4995
 4769TIP3    H235867   5.232   2.641   1.575  0.0843  0.6195  0.1705
 4770TIP3   OH235868   6.671   0.190   1.712  0.6361 -0.0251  0.1989
 4770TIP3    H135869   6.608   0.211   1.782 -1.1482  0.0743 -1.3650
 4770TIP3    H235870   6.727   0.123   1.750  0.6519  1.0252  2.2063
 4771TIP3   OH235871   5.261   5.112   1.235 -0.7031  0.0329 -0.1353
 4771TIP3    H135872   5.194   5.059   1.191 -0.1423 -0.5072 -0.3509
 4771TIP3    H235873   5.257   5.197   1.192  0.4201 -0.7353 -1.8577
 4772TIP3   OH235874   6.039   5.302   8.558 -0.1873  0.8580 -0.4004
 4772TIP3    H135875   6.114   5.329   8.611  0.0900 -1.1289  0.2765
 4772TIP3    H235876   6.079   5.262   8.480 -0.5563  0.4661 -0.3862
 4773TIP3   OH235877   4.419   3.540   2.371 -0.0758 -0.0804  0.5130
 4773TIP3    H135878   4.378   3.458   2.397 -1.3593  0.8894  1.7322
 4773TIP3    H235879   4.370   3.568   2.294  0.4422 -0.4938  0.0225
 4774TIP3   OH235880   6.518   3.819   7.739  0.5220  0.4686 -0.2102
 4774TIP3    H135881   6.438   3.774   7.712  0.7188  0.9648 -1.6876
 4774TIP3    H235882   6.554   3.763   7.808 -0.8171 -0.0298  0.1132
 4775TIP3   OH235883   4.957   4.585   2.355 -0.2131  0.4191 -0.5779
 4775TIP3    H135884   5.002   4.596   2.439 -0.9408 -0.1174 -0.0981
 4775TIP3    H235885   5.021   4.544   2.297 -0.4107 -1.4201  0.4280
 4776TIP3   OH235886   5.031   4.892   1.754  0.1907 -0.3445  0.1713
 4776TIP3    H135887   5.060   4.983   1.752 -2.9485  0.8010  1.1557
 4776TIP3    H235888   5.089   4.847   1.692  1.9409  2.2344 -0.2299
 4777TIP3   OH235889   6.702   4.510   3.026  0.0088 -0.4122 -0.1540
 4777TIP3    H135890   6.613   4.540   3.008 -0.0367 -0.9411 -0.8530
 4777TIP3    H235891   6.691   4.418   3.049  0.1043  0.1201  2.3122
 4778TIP3   OH235892   2.293   0.647   8.467 -0.4670  0.0495 -0.2213
 4778TIP3    H135893   2.281   0.648   8.562 -1.7609 -0.8012 -0.3381
 4778TIP3    H235894   2.290   0.554   8.444  0.7502  0.1888 -1.0057
 4779TIP3   OH235895   0.321   2.349   0.166  0.1226 -0.8235  0.0845
 4779TIP3    H135896   0.395   2.289   0.164  1.3591  0.5776  1.1980
 4779TIP3    H235897   0.352   2.424   0.217 -1.5268  0.5276 -0.7710
 4780TIP3   OH235898   1.562   1.443   2.070 -0.0286 -0.4756  0.6591
 4780TIP3    H135899   1.602   1.521   2.108 -0.7502  0.2406 -0.0146
 4780TIP3    H235900   1.505   1.476   2.001  0.0590 -1.6374 -0.0052
 4781TIP3   OH235901   5.971   2.907   7.497 -0.3471 -0.3305  0.3162
 4781TIP3    H135902   5.941   2.816   7.493  0.7895 -0.6894 -0.4451
 4781TIP3    H235903   6.066   2.900   7.507 -0.0896  0.7763 -1.1336
 4782TIP3   OH235904   6.731   2.266   0.048 -0.2691 -0.2386 -0.5915
 4782TIP3    H135905   6.794   2.292   0.116 -0.8419 -0.0304 -0.1276
 4782TIP3    H235906   6.726   2.343  -0.009 -1.3193  0.3810  0.2977
 4783TIP3   OH235907   4.051   4.112   0.344 -0.8052  0.1776  0.0901
 4783TIP3    H135908   3.981   4.133   0.282 -1.0559 -0.6192  0.0816
 4783TIP3    H235909   4.014   4.134   0.430 -1.7462 -1.7868  0.2526
 4784TIP3   OH235910   6.588   5.191   2.990 -0.2292  0.1454  0.1355
 4784TIP3    H135911   6.511   5.242   3.015 -0.2308 -0.1486  0.7484
 4784TIP3    H235912   6.648   5.255   2.951  0.0820  0.7646  1.5813
 4785TIP3   OH235913   4.553   1.883   2.516  0.8451 -0.4828  0.3207
 4785TIP3    H135914   4.561   1.795   2.479 -2.2158 -0.8408  0.2553
 4785TIP3    H235915   4.494   1.872   2.590  0.6158  1.4975  0.4717
 4786TIP3   OH235916   1.078   3.937   8.136  0.0805  0.3958 -0.5329
 4786TIP3    H135917   1.165   3.971   8.156  0.0537  0.8923 -1.2395
 4786TIP3    H235918   1.043   3.996   8.070  0.2253 -1.2393 -2.1790
 4787TIP3   OH235919   5.918   1.796   7.874 -0.0615  0.2658  0.6471
 4787TIP3    H135920   6.008   1.801   7.841  0.1523  0.9995  1.2876
 4787TIP3    H235921   5.877   1.727   7.823  1.2197 -0.9159  1.1664
 4788TIP3   OH235922   1.552   3.537   0.634 -0.2274  0.8966  0.0766
 4788TIP3    H135923   1.617   3.587   0.683 -0.9745  2.3410 -0.3456
 4788TIP3    H235924   1.491   3.603   0.600 -1.8222 -0.3807  0.2994
 4789TIP3   OH235925   0.111   3.245   0.527 -0.3494  0.2668 -0.2336
 4789TIP3    H135926   0.136   3.247   0.619  1.0217 -1.8099 -0.5005
 4789TIP3    H235927   0.016   3.260   0.527 -0.4783 -0.3602  1.5676
 4790TIP3   OH235928   3.601   4.899   1.409 -0.0331  0.3068 -0.6688
 4790TIP3    H135929   3.578   4.812   1.376  0.9727 -0.1336 -0.2528
 4790TIP3    H235930   3.627   4.884   1.500 -0.7673  1.1933 -0.2984
 4791TIP3   OH235931   4.509   5.452   8.502 -0.7507 -0.0434 -0.1785
 4791TIP3    H135932   4.424   5.437   8.461 -0.2657 -0.4987 -1.0591
 4791TIP3    H235933   4.548   5.522   8.451 -0.2168 -0.4812 -0.3789
 4792TIP3   OH235934   3.379   5.712   7.946  0.0952 -0.1171  0.5300
 4792TIP3    H135935   3.438   5.659   7.894 -0.7136  0.1359 -0.6898
 4792TIP3    H235936   3.430   5.789   7.969  0.6945 -0.5748  0.7385
 4793TIP3   OH235937   0.652   3.892   2.799 -0.2100 -0.2640 -0.3072
 4793TIP3    H135938   0.702   3.973   2.793  0.6667 -0.8268 -0.8607
 4793TIP3    H235939   0.717   3.823   2.791 -1.0708 -1.0182 -1.0878
 4794TIP3   OH235940   4.515   5.040   1.445 -0.2026  0.5080  0.1658
 4794TIP3    H135941   4.542   5.002   1.361  0.5575 -0.3042  0.7626
 4794TIP3    H235942   4.549   5.129   1.443  0.0751  0.3965 -0.2632
 4795TIP3   OH235943   6.838   6.486   2.043 -0.2292  0.3244  0.3521
 4795TIP3    H135944   6.872   6.559   2.095 -1.0661  1.4024 -0.5899
 4795TIP3    H235945   6.891   6.411   2.071  0.2728  1.1564  1.7381
 4796TIP3   OH235946   4.559   5.989   0.498  0.4862  0.0074 -0.2701
 4796TIP3    H135947   4.561   5.928   0.424  0.6793 -1.1242  0.6274
 4796TIP3    H235948   4.466   5.997   0.520  0.4308  0.3307 -0.6271
 4797TIP3   OH235949   6.146   0.662   1.171 -0.3188 -0.4523  0.4938
 4797TIP3    H135950   6.190   0.578   1.156  1.0112  0.3544 -0.4016
 4797TIP3    H235951   6.123   0.661   1.264 -0.1011 -1.7056  0.5532
 4798TIP3   OH235952   4.881   5.841   7.755 -0.6707 -0.4117 -0.2286
 4798TIP3    H135953   4.845   5.828   7.667 -0.7405 -0.7461 -0.1538
 4798TIP3    H235954   4.874   5.754   7.796  1.3227 -0.7993 -0.6148
 4799TIP3   OH235955   5.825   1.609   1.112  0.0018  0.0750 -0.4470
 4799TIP3    H135956   5.844   1.532   1.166  1.2105 -0.3097 -1.3807
 4799TIP3    H235957   5.820   1.681   1.175  2.6256 -0.1424  0.1277
 4800TIP3   OH235958   5.899   1.558   2.064  0.3488 -0.1167 -1.1640
 4800TIP3    H135959   5.927   1.511   2.143  1.2563  0.3668 -1.1833
 4800TIP3    H235960   5.859   1.639   2.097  1.3891  0.4279 -1.2089
 4801TIP3   OH235961   2.503   4.859   8.640 -0.1945 -0.1098  0.0366
 4801TIP3    H135962   2.526   4.952   8.633  1.7745 -0.6836 -3.0692
 4801TIP3    H235963   2.438   4.846   8.571  0.2754 -1.2239 -0.2090
 4802TIP3   OH235964   5.178   0.185   8.473 -0.4105  0.2950 -0.0364
 4802TIP3    H135965   5.177   0.097   8.508 -0.1925  0.5957  0.7506
 4802TIP3    H235966   5.163   0.242   8.548 -1.0588  0.9126 -0.6090
 4803TIP3   OH235967   6.455   5.691   7.175 -0.0783 -0.9860 -0.3546
 4803TIP3    H135968   6.449   5.650   7.089 -0.5950 -1.9145  0.1058
 4803TIP3    H235969   6.369   5.729   7.189  0.9548  2.1635 -1.6408
 4804TIP3   OH235970   4.422   3.362   1.671  0.1163  0.3895  0.3491
 4804TIP3    H135971   4.392   3.277   1.702  2.3130 -0.4928  0.2122
 4804TIP3    H235972   4.433   3.414   1.750  1.2703 -0.3393  0.6891
 4805TIP3   OH235973   6.200   0.558   2.390  0.5156  0.2134  0.0757
 4805TIP3    H135974   6.147   0.587   2.316 -1.4387  1.8739  2.0224
 4805TIP3    H235975   6.139   0.515   2.449  1.2898  1.9483  2.2889
 4806TIP3   OH235976   1.295   3.820   0.938  0.1718 -0.6917 -0.5992
 4806TIP3    H135977   1.280   3.730   0.907 -0.2711 -1.7812  2.4013
 4806TIP3    H235978   1.380   3.816   0.982 -0.9842 -0.4016  1.8132
 4807TIP3   OH235979   4.513   2.307   7.963  0.6052 -0.4853  0.0271
 4807TIP3    H135980   4.515   2.400   7.985  0.0679 -0.6084  0.5989
 4807TIP3    H235981   4.575   2.299   7.890  1.9257  0.0340  1.0518
 4808TIP3   OH235982   2.714   2.253   2.283  0.0505 -0.2894 -0.2518
 4808TIP3    H135983   2.693   2.244   2.376  0.8724  1.3612  0.1274
 4808TIP3    H235984   2.666   2.330   2.254 -1.0503 -1.3877 -1.5084
 4809TIP3   OH235985   0.907   2.206   7.453 -0.0262  0.6297  0.2102
 4809TIP3    H135986   0.818   2.223   7.484  0.2626 -0.2923  1.6745
 4809TIP3    H235987   0.960   2.275   7.492  0.1866  0.0212  1.0430
 4810TIP3   OH235988   4.548   1.046   7.125 -0.2563  0.6928  0.1746
 4810TIP3    H135989   4.514   0.985   7.190  2.4511  0.7059  1.7411
 4810TIP3    H235990   4.620   1.092   7.170  1.6506  0.8173 -2.7243
 4811TIP3   OH235991   5.536   1.944   1.293 -0.6360 -0.1587  0.1335
 4811TIP3    H135992   5.546   1.878   1.361  0.4791  0.9598  1.0952
 4811TIP3    H235993   5.620   1.989   1.290 -1.3667  1.2334 -0.4805
 4812TIP3   OH235994   2.813   1.589   2.271  0.1298  0.1160  0.6890
 4812TIP3    H135995   2.777   1.542   2.346 -0.5581  0.0985  0.3497
 4812TIP3    H235996   2.894   1.629   2.304 -1.3267  2.0592  2.0969
 4813TIP3   OH235997   3.728   0.378   0.430 -0.1661 -0.5845  0.1003
 4813TIP3    H135998   3.744   0.354   0.521  1.3823 -0.5294 -0.1322
 4813TIP3    H235999   3.662   0.448   0.434  0.3893 -0.1205  1.2114
 4814TIP3   OH236000   6.500   3.288   7.300  0.1409 -0.3617  0.1069
 4814TIP3    H136001   6.550   3.208   7.286  1.4172  0.4507 -0.1679
 4814TIP3    H236002   6.558   3.358   7.270 -1.6290  0.5601 -1.4317
 4815TIP3   OH236003   4.716   5.150   1.857  0.0468 -0.1877  0.2720
 4815TIP3    H136004   4.642   5.209   1.868 -0.1044 -0.4830  0.8873
 4815TIP3    H236005   4.698   5.105   1.774  0.3196  0.8314 -0.3595
 4816TIP3   OH236006   5.939   2.105   8.208  0.1980 -0.3675  0.4699
 4816TIP3    H136007   5.999   2.177   8.191 -0.2728  0.2173  1.2170
 4816TIP3    H236008   5.899   2.126   8.293 -0.7043 -0.9891  0.2186
 4817TIP3   OH236009   3.907   2.196   8.365 -0.7436 -0.3697  0.3207
 4817TIP3    H136010   3.837   2.179   8.428 -0.1128 -0.5078  0.9896
 4817TIP3    H236011   3.984   2.153   8.401  0.3988  2.0558  1.0136
 4818TIP3   OH236012   2.337   6.540   0.767  0.0912 -0.6698 -0.6327
 4818TIP3    H136013   2.283   6.619   0.772 -1.5808 -1.7948  0.1033
 4818TIP3    H236014   2.292   6.476   0.822  1.5785 -2.0495 -0.9145
 4819TIP3   OH236015   6.055   0.978   1.453  0.2449 -0.0740  0.0266
 4819TIP3    H136016   6.053   0.886   1.428  1.4769  0.0414 -0.5930
 4819TIP3    H236017   6.133   1.013   1.409 -0.9537  1.5917 -0.9341
 4820TIP3   OH236018   5.879   3.767   7.914  0.3816  1.0708 -0.0342
 4820TIP3    H136019   5.912   3.677   7.906 -1.1094  0.6136 -1.4746
 4820TIP3    H236020   5.793   3.757   7.955 -0.4407  1.6673 -1.5346
 4821TIP3   OH236021   3.874   1.485   0.766 -0.1416  0.2931 -0.2602
 4821TIP3    H136022   3.883   1.474   0.861  0.1650  0.0559 -0.3178
 4821TIP3    H236023   3.782   1.464   0.748  0.0308 -0.6063 -0.1469
 4822TIP3   OH236024   0.981   1.125   2.602 -0.5765  0.4299  0.4043
 4822TIP3    H136025   1.060   1.072   2.596 -1.1570 -0.3933 -0.1814
 4822TIP3    H236026   0.909   1.063   2.586 -1.3519  1.1196  1.1128
 4823TIP3   OH236027   2.831   4.752   2.070 -0.1755 -0.0138 -0.6472
 4823TIP3    H136028   2.893   4.825   2.068 -0.9187  0.6275 -0.8498
 4823TIP3    H236029   2.884   4.675   2.052  0.9886  0.1947  1.5343
 4824TIP3   OH236030   1.939   5.277   0.618  0.0030 -0.0826  0.0849
 4824TIP3    H136031   1.943   5.367   0.583 -0.6272 -0.5487 -1.2351
 4824TIP3    H236032   1.862   5.277   0.675  1.1555  0.7410  1.7454
 4825TIP3   OH236033   4.499   3.822   0.272  0.6049 -0.4037  1.0852
 4825TIP3    H136034   4.436   3.894   0.272 -0.2421 -1.1253  0.2289
 4825TIP3    H236035   4.581   3.862   0.242  0.4891  0.4574  1.8525
 4826TIP3   OH236036   6.825   1.029   1.085  0.1557  0.0707  0.1587
 4826TIP3    H136037   6.890   1.071   1.029 -0.5617  0.5416 -0.3416
 4826TIP3    H236038   6.778   0.969   1.026  2.2737 -2.8145  1.1876
 4827TIP3   OH236039   1.832   2.295   8.202  0.2838 -0.4558  0.0605
 4827TIP3    H136040   1.897   2.271   8.137  0.6806  1.3869 -0.2858
 4827TIP3    H236041   1.754   2.318   8.151 -0.1451 -1.1411  0.3858
 4828TIP3   OH236042   1.679   3.129   8.581  0.2700 -0.0633  0.2808
 4828TIP3    H136043   1.629   3.071   8.639 -1.1440 -0.1125 -0.9255
 4828TIP3    H236044   1.720   3.070   8.517  0.2548  0.1325  0.0885
 4829TIP3   OH236045   0.640   6.207   1.252  0.2080 -0.1679 -0.0131
 4829TIP3    H136046   0.728   6.185   1.285  1.0653  2.3799 -0.3177
 4829TIP3    H236047   0.581   6.157   1.308  1.8272 -1.7969  0.3646
 4830TIP3   OH236048   3.656   5.892   8.461  0.7351 -0.6528  0.0092
 4830TIP3    H136049   3.569   5.856   8.478  1.0025 -0.7315  1.3591
 4830TIP3    H236050   3.708   5.816   8.435  1.0815 -1.1745  2.0163
 4831TIP3   OH236051   0.073   0.923   8.509 -0.3161  0.0600  0.5543
 4831TIP3    H136052   0.098   1.015   8.500 -0.1956 -0.0716 -0.5198
 4831TIP3    H236053  -0.007   0.925   8.561 -0.4621  0.7916  0.3145
 4832TIP3   OH236054   6.295   6.396   1.046  0.4044  0.4531 -0.2056
 4832TIP3    H136055   6.366   6.357   0.994 -0.4039 -0.2655 -0.7960
 4832TIP3    H236056   6.277   6.332   1.115  1.2570  1.2634  0.8028
 4833TIP3   OH236057   5.573   2.576   1.124 -0.4512 -0.2389  0.4464
 4833TIP3    H136058   5.612   2.661   1.143  0.4903 -0.2585 -1.1903
 4833TIP3    H236059   5.582   2.566   1.029 -2.8737 -1.0487  0.2201
 4834TIP3   OH236060   1.876   1.240   7.930  0.7268  0.2791 -0.5144
 4834TIP3    H136061   1.841   1.239   8.019  3.7849  0.7857  0.8258
 4834TIP3    H236062   1.884   1.148   7.907  1.6629  0.0693  0.5461
 4835TIP3   OH236063   1.110   4.768   8.390 -0.7005 -0.1054 -0.0936
 4835TIP3    H136064   1.170   4.721   8.332 -2.2089  0.0303 -1.8796
 4835TIP3    H236065   1.031   4.714   8.390 -1.3750  0.8664  0.3117
 4836TIP3   OH236066   2.600   4.656   0.764  0.3724 -0.1185 -0.1716
 4836TIP3    H136067   2.687   4.667   0.727 -0.5843  1.9039 -2.0296
 4836TIP3    H236068   2.595   4.722   0.833 -0.2559  1.0368 -1.2825
 4837TIP3   OH236069   5.731   2.040   2.451  0.1878  0.4088  0.4197
 4837TIP3    H136070   5.721   1.948   2.474 -1.3411  0.3013 -0.5134
 4837TIP3    H236071   5.788   2.076   2.519 -0.5289 -0.8501  1.7434
 4838TIP3   OH236072   1.438   5.202   7.685 -0.1753 -0.2182  0.3129
 4838TIP3    H136073   1.471   5.292   7.691 -0.2587 -0.1499 -0.2178
 4838TIP3    H236074   1.506   5.148   7.725 -1.6982  0.4006  4.1478
 4839TIP3   OH236075   3.605   3.735   8.352  0.3780 -0.2414 -0.0941
 4839TIP3    H136076   3.651   3.659   8.317  1.3131  0.3427 -0.1495
 4839TIP3    H236077   3.673   3.793   8.383 -0.3277  0.5605 -0.0012
 4840TIP3   OH236078   0.155   5.868   7.930  0.0186 -0.3271 -0.0303
 4840TIP3    H136079   0.160   5.821   8.013  1.6357 -0.6396 -0.2754
 4840TIP3    H236080   0.158   5.960   7.954 -2.8463 -0.2573  0.4330
 4841TIP3   OH236081   0.354   3.895   0.655  0.4592  0.4113 -0.2201
 4841TIP3    H136082   0.432   3.857   0.614  0.9048 -0.2688  1.2024
 4841TIP3    H236083   0.323   3.960   0.592  1.1691 -0.5178 -1.5743
 4842TIP3   OH236084   6.053   3.182   1.482 -0.0019 -0.2396  0.1037
 4842TIP3    H136085   5.963   3.185   1.451 -0.1921  0.7173  0.6982
 4842TIP3    H236086   6.081   3.092   1.468 -0.2641 -0.0098 -2.2243
 4843TIP3   OH236087   5.639   6.242   2.686 -0.0539 -0.1208 -0.0965
 4843TIP3    H136088   5.720   6.293   2.683 -0.0901 -0.1015 -0.9769
 4843TIP3    H236089   5.653   6.170   2.625  0.1715 -1.4671  1.4928
 4844TIP3   OH236090   3.101   4.952   2.005 -0.6271  0.0718 -0.1661
 4844TIP3    H136091   3.164   4.960   2.077 -0.8895  0.7808  0.0002
 4844TIP3    H236092   3.130   4.875   1.956 -1.9734 -2.0305  2.1590
 4845TIP3   OH236093   2.444   4.229   2.099 -0.1540  0.0623  0.2966
 4845TIP3    H136094   2.362   4.255   2.140  1.0494  0.5662  2.5608
 4845TIP3    H236095   2.476   4.156   2.153  1.7731  1.1024  0.6626
 4846TIP3   OH236096   3.320   1.560   1.798  0.1836 -0.1785  0.5326
 4846TIP3    H136097   3.389   1.586   1.859  0.5515  1.1384 -0.3793
 4846TIP3    H236098   3.239   1.567   1.849  0.3465  2.1466  0.5901
 4847TIP3   OH236099   1.783   4.263   2.711 -0.0588 -0.0583 -0.1638
 4847TIP3    H136100   1.695   4.289   2.736  0.5562  2.3924 -0.3481
 4847TIP3    H236101   1.793   4.175   2.747 -2.5120 -0.3539 -0.0405
 4848TIP3   OH236102   1.186   2.177   0.190  0.0417 -0.0328  0.0845
 4848TIP3    H136103   1.240   2.105   0.158  0.1733 -0.2527  0.7834
 4848TIP3    H236104   1.174   2.158   0.283 -2.0158 -0.4758 -0.2262
 4849TIP3   OH236105   2.487   4.871   1.275 -0.0071 -0.3486  0.0727
 4849TIP3    H136106   2.477   4.964   1.295 -0.2742  0.0330 -1.6618
 4849TIP3    H236107   2.580   4.860   1.257  0.0544 -0.4629  0.4498
 4850TIP3   OH236108   4.668   1.705   1.743 -0.1030 -0.1995 -0.1941
 4850TIP3    H136109   4.732   1.654   1.693 -1.0743 -1.2763 -0.3809
 4850TIP3    H236110   4.587   1.654   1.738 -0.8673  0.9090  0.4140
 4851TIP3   OH236111   5.290   6.690   2.313 -0.0211  1.1607  0.4056
 4851TIP3    H136112   5.260   6.640   2.389  1.8532  0.0536  0.4794
 4851TIP3    H236113   5.294   6.780   2.344 -3.8543  1.5906  0.1537
 4852TIP3   OH236114   4.879   1.835   1.887 -0.0877 -0.4006 -0.3966
 4852TIP3    H136115   4.845   1.833   1.977  1.0125  1.0181  0.0857
 4852TIP3    H236116   4.802   1.819   1.832 -1.6213  2.6905  0.6385
 4853TIP3   OH236117   2.175   5.310   7.730 -0.1398  0.5148 -0.5457
 4853TIP3    H136118   2.232   5.323   7.806  2.5925 -2.4440 -1.8354
 4853TIP3    H236119   2.206   5.376   7.667 -0.3692  1.0156 -0.1445
 4854TIP3   OH236120   2.040   3.814   2.677  0.5146 -0.5463  0.6998
 4854TIP3    H136121   2.050   3.721   2.695 -0.5365 -0.4961  1.6620
 4854TIP3    H236122   2.129   3.848   2.674  0.9007 -1.5569  0.4516
 4855TIP3   OH236123   4.785   1.913   2.136 -0.5192 -0.3262  0.4884
 4855TIP3    H136124   4.747   1.998   2.115  0.1003 -0.7926 -2.9684
 4855TIP3    H236125   4.709   1.858   2.156 -1.0581  0.5115  0.8268
 4856TIP3   OH236126   5.892   6.829   7.618  0.2715  0.2175  0.1332
 4856TIP3    H136127   5.834   6.904   7.629  1.0059  0.8277 -0.0232
 4856TIP3    H236128   5.875   6.798   7.529  0.5407  0.7187 -0.1008
 4857TIP3   OH236129   4.889   6.564   0.986  0.2091  0.3269  0.1571
 4857TIP3    H136130   4.967   6.533   0.940  0.0206 -0.5866  0.4274
 4857TIP3    H236131   4.920   6.634   1.044  1.1104 -0.9828  1.3220
 4858TIP3   OH236132   6.071   2.451   2.193  0.1205 -0.5040 -0.3340
 4858TIP3    H136133   6.124   2.402   2.256 -0.0126  0.9517  0.9503
 4858TIP3    H236134   6.003   2.493   2.245 -1.0507 -0.6275 -1.6847
 4859TIP3   OH236135   1.990   1.162   0.336 -0.4715  0.3258 -0.4058
 4859TIP3    H136136   2.030   1.108   0.405  1.5630 -1.6163 -2.8544
 4859TIP3    H236137   1.984   1.249   0.374  2.0174 -0.2902  1.7470
 4860TIP3   OH236138   6.167   3.370   0.414  0.6824  0.5263  0.1065
 4860TIP3    H136139   6.118   3.439   0.460  0.1022  1.6191 -2.0172
 4860TIP3    H236140   6.158   3.293   0.470 -3.2911  0.7263  0.0170
 4861TIP3   OH236141   3.328   0.644   1.963 -0.0923 -0.4374 -0.0029
 4861TIP3    H136142   3.396   0.669   2.025 -1.4376 -0.8830  1.7067
 4861TIP3    H236143   3.360   0.676   1.879  2.5992 -1.3364  0.5789
 4862TIP3   OH236144   0.899   3.417   8.238  0.2614 -0.2445 -0.2589
 4862TIP3    H136145   0.993   3.413   8.256  0.2656 -1.4050 -0.4635
 4862TIP3    H236146   0.861   3.349   8.295 -0.7150  1.5041  1.2747
 4863TIP3   OH236147   1.336   6.012   0.805 -0.3083 -0.4366 -0.0108
 4863TIP3    H136148   1.295   5.927   0.814  0.2595 -0.7679 -0.4523
 4863TIP3    H236149   1.409   6.011   0.867 -0.1459 -0.3752 -0.1955
 4864TIP3   OH236150   4.196   6.658   6.663 -0.3166  0.5266  0.5421
 4864TIP3    H136151   4.206   6.748   6.634 -0.1069  0.3952  0.1929
 4864TIP3    H236152   4.101   6.645   6.669 -0.5001 -0.0570 -2.1501
 4865TIP3   OH236153   2.976   0.562   7.323  0.0237 -0.2332  0.4743
 4865TIP3    H136154   2.980   0.648   7.364  1.2268  0.2780 -0.6651
 4865TIP3    H236155   2.915   0.572   7.251  1.4966  0.1966 -0.7664
 4866TIP3   OH236156   5.947   0.839   3.179  0.5990  0.2333  0.3782
 4866TIP3    H136157   5.870   0.815   3.127  1.8164 -1.2936 -0.8423
 4866TIP3    H236158   5.977   0.922   3.141  0.4673  0.0092 -0.2303
 4867TIP3   OH236159   0.404   1.621   0.397 -0.1570  0.1003  0.2673
 4867TIP3    H136160   0.391   1.565   0.320 -2.1948 -0.2967  0.8284
 4867TIP3    H236161   0.318   1.662   0.412  0.9838  2.5599  0.5430
 4868TIP3   OH236162   2.152   5.173   0.771  0.0267  0.1402  0.0522
 4868TIP3    H136163   2.123   5.119   0.844  0.0124 -0.6730 -0.5305
 4868TIP3    H236164   2.071   5.200   0.727  0.0632 -0.6089 -0.5089
 4869TIP3   OH236165   5.115   3.415   8.228 -0.2620  0.2475 -0.1900
 4869TIP3    H136166   5.207   3.419   8.254 -0.6843  0.0927  1.3854
 4869TIP3    H236167   5.111   3.341   8.166  0.5887 -0.0216  0.0701
 4870TIP3   OH236168   4.872   6.415   0.255 -0.0903 -0.4094 -0.1167
 4870TIP3    H136169   4.817   6.337   0.265  1.9117 -2.0229 -0.9076
 4870TIP3    H236170   4.958   6.381   0.231  0.0002  2.1205 -4.7073
 4871TIP3   OH236171   3.471   5.163   6.590  0.0983 -0.5487 -0.1970
 4871TIP3    H136172   3.458   5.201   6.677  0.4423  0.4667 -0.5771
 4871TIP3    H236173   3.432   5.226   6.530  3.1859  0.6919 -1.0653
 4872TIP3   OH236174   2.904   0.110   7.377  0.0091  0.1293 -0.1047
 4872TIP3    H136175   2.932   0.100   7.287 -0.3440 -0.3126 -0.1693
 4872TIP3    H236176   2.834   0.046   7.388  0.5606 -0.3626  0.7009
 4873TIP3   OH236177   2.155   3.743   1.852  0.2157  0.2611 -0.0950
 4873TIP3    H136178   2.070   3.707   1.879  1.3630 -0.4677  3.0210
 4873TIP3    H236179   2.144   3.838   1.858 -0.0729  0.1577  1.6462
 4874TIP3   OH236180   2.342   1.497   2.556 -0.3607 -0.3722 -0.2093
 4874TIP3    H136181   2.316   1.406   2.563 -0.2956 -0.4243 -0.6323
 4874TIP3    H236182   2.296   1.529   2.478 -1.9134  0.4775  0.9880
 4875TIP3   OH236183   4.864   2.603   8.547  0.2578 -0.1784 -0.5418
 4875TIP3    H136184   4.849   2.661   8.472  1.5377  0.9020 -0.0014
 4875TIP3    H236185   4.854   2.659   8.623  0.1531 -0.9971  0.0575
 4876TIP3   OH236186   5.873   3.205   1.173 -0.0082 -0.3061  0.6597
 4876TIP3    H136187   5.840   3.215   1.262  0.7709  0.4906  0.8752
 4876TIP3    H236188   5.916   3.288   1.153  1.2554 -1.0427  0.1578
 4877TIP3   OH236189   4.212   4.477   1.949  0.4158 -0.7962 -0.2684
 4877TIP3    H136190   4.306   4.483   1.965  0.7441 -0.3516 -2.1404
 4877TIP3    H236191   4.198   4.389   1.915  0.2669 -0.6466 -0.6039
 4878TIP3   OH236192   5.475   6.722   1.517 -0.5997 -0.0338  0.0684
 4878TIP3    H136193   5.502   6.752   1.604  0.7952  1.6620 -0.8860
 4878TIP3    H236194   5.506   6.632   1.512 -3.1264 -1.1651  2.2791
 4879TIP3   OH236195   2.124   0.892   0.120 -0.0500 -0.2416  0.3969
 4879TIP3    H136196   2.043   0.842   0.133 -0.1942  0.3220  1.8705
 4879TIP3    H236197   2.190   0.826   0.100 -1.2538 -0.5544 -3.2724
 4880TIP3   OH236198   6.045   4.653   0.384 -0.2814  0.5054  0.5409
 4880TIP3    H136199   5.977   4.711   0.419 -0.6287 -0.5020  1.5865
 4880TIP3    H236200   5.999   4.572   0.364  0.4700  0.0902  0.4693
 4881TIP3   OH236201   1.311   0.251   8.216  0.2853  0.2134  0.0942
 4881TIP3    H136202   1.394   0.237   8.262  0.1065 -0.2989  0.2749
 4881TIP3    H236203   1.273   0.328   8.257  0.7282  0.5219 -0.0680
 4882TIP3   OH236204   4.736   4.077   8.057  1.0618  0.6191 -0.4465
 4882TIP3    H136205   4.775   4.099   8.142  2.8642 -0.3160 -0.9845
 4882TIP3    H236206   4.657   4.026   8.079  0.7727  1.5163  0.6646
 4883TIP3   OH236207   2.484   4.458   0.620  0.0624 -0.0359  0.2756
 4883TIP3    H136208   2.462   4.397   0.690  0.7175 -0.2303  0.3168
 4883TIP3    H236209   2.514   4.537   0.665 -0.7647  0.3178  0.2218
 4884TIP3   OH236210   5.140   0.390   8.013 -0.5019  0.2000  0.2768
 4884TIP3    H136211   5.113   0.343   8.092 -0.2693 -0.2642  0.0889
 4884TIP3    H236212   5.206   0.452   8.043  0.6274 -0.9508  0.2488
 4885TIP3   OH236213   6.438   5.070   0.938  0.0615  0.4645  0.5038
 4885TIP3    H136214   6.452   5.057   1.032 -3.3670 -0.5054  1.0235
 4885TIP3    H236215   6.422   4.982   0.904  0.4045  0.8996 -0.8476
 4886TIP3   OH236216   3.605   1.265   7.567  0.0372 -0.2404  0.2178
 4886TIP3    H136217   3.691   1.304   7.582 -0.4038  2.9133 -3.5876
 4886TIP3    H236218   3.618   1.205   7.494 -0.9833  0.9723 -1.0428
 4887TIP3   OH236219   2.302   2.927   2.623  0.1925  0.0802 -0.5899
 4887TIP3    H136220   2.385   2.905   2.667 -0.6142 -1.8460  0.0517
 4887TIP3    H236221   2.243   2.951   2.695 -1.2575 -3.4699 -0.4305
 4888TIP3   OH236222   4.776   4.664   0.868  0.4896  0.2938 -0.2644
 4888TIP3    H136223   4.857   4.656   0.817 -0.2071  0.3724 -1.4339
 4888TIP3    H236224   4.709   4.630   0.810 -0.5161  1.4851  0.1600
 4889TIP3   OH236225   6.017   5.717   0.070 -0.2563  0.0929  0.2248
 4889TIP3    H136226   5.985   5.628   0.055  0.5007 -0.2394  0.5177
 4889TIP3    H236227   6.014   5.758  -0.016 -0.3631 -0.3038  0.0335
 4890TIP3   OH236228   3.579   1.059   8.559 -0.4731 -0.5289  0.8489
 4890TIP3    H136229   3.501   1.022   8.602 -0.8302 -0.4682  0.2635
 4890TIP3    H236230   3.633   0.983   8.539 -1.2693 -0.7781 -0.4766
 4891TIP3   OH236231   3.704   5.631   1.681  0.2533  0.4398  0.1839
 4891TIP3    H136232   3.704   5.548   1.729 -2.8073  0.3885  0.2944
 4891TIP3    H236233   3.694   5.698   1.748 -1.8103  0.5139 -0.1232
 4892TIP3   OH236234   2.631   3.727   7.196 -0.0763  0.4048 -0.1479
 4892TIP3    H136235   2.663   3.796   7.254  0.4314 -0.3998  0.5314
 4892TIP3    H236236   2.538   3.718   7.218 -0.0937  0.7048 -0.0881
 4893TIP3   OH236237   3.592   1.568   8.534 -0.1183  0.0254 -0.1253
 4893TIP3    H136238   3.566   1.575   8.626 -0.8581  0.2260 -0.3368
 4893TIP3    H236239   3.548   1.489   8.502 -0.1470  0.1443 -0.3887
 4894TIP3   OH236240   0.103   3.989   0.117 -0.0945 -1.0377  0.2989
 4894TIP3    H136241   0.040   4.051   0.152  0.6156 -0.7674  1.1158
 4894TIP3    H236242   0.096   3.999   0.022 -0.0007  0.2768  0.4195
 4895TIP3   OH236243   6.115   4.260   0.251  0.5878 -0.1552 -0.5349
 4895TIP3    H136244   6.077   4.347   0.237  0.5200  0.0750  0.9471
 4895TIP3    H236245   6.039   4.205   0.271  0.6879 -0.4292 -0.9206
 4896TIP3   OH236246   0.656   1.373   1.234  0.0182  0.4833 -0.6345
 4896TIP3    H136247   0.604   1.360   1.154  0.2747  0.9227 -0.8740
 4896TIP3    H236248   0.668   1.285   1.269 -1.3257  0.4059 -0.2987
 4897TIP3   OH236249   6.463   1.126   0.042 -0.3225  0.6754 -0.0840
 4897TIP3    H136250   6.397   1.186   0.074  1.0973  1.3651  1.6773
 4897TIP3    H236251   6.547   1.166   0.065  0.6978 -1.2411 -0.1943
 4898TIP3   OH236252   5.126   1.975   1.271  0.2554 -0.1642  0.5211
 4898TIP3    H136253   5.101   2.008   1.185 -0.3922  1.2131  1.2083
 4898TIP3    H236254   5.184   2.042   1.307  0.8993 -0.9443  0.9820
 4899TIP3   OH236255   4.261   5.129   1.700  0.0156 -0.6165 -0.4450
 4899TIP3    H136256   4.271   5.205   1.758  0.7629  0.0640 -1.4457
 4899TIP3    H236257   4.168   5.127   1.680 -0.2243 -0.7324  0.5934
 4900TIP3   OH236258   4.695   3.039   1.976  0.1490 -1.0683  0.0026
 4900TIP3    H136259   4.729   3.105   1.916 -2.5369  0.8453  0.3997
 4900TIP3    H236260   4.695   2.958   1.925 -0.2599  0.0925 -1.9331
 4901TIP3   OH236261   0.872   3.045   7.293 -0.6620 -0.0880 -0.4659
 4901TIP3    H136262   0.924   3.052   7.212 -1.0945  1.1370 -0.6549
 4901TIP3    H236263   0.866   2.951   7.309  0.6889 -0.2980 -1.0369
 4902TIP3   OH236264   2.176   6.456   1.898  0.2896 -0.2341  0.3160
 4902TIP3    H136265   2.222   6.539   1.914  0.9110 -0.5852  0.3954
 4902TIP3    H236266   2.145   6.429   1.984 -2.2756  1.2351 -0.0515
 4903TIP3   OH236267   1.528   4.268   8.568 -0.6318  0.2109 -0.4908
 4903TIP3    H136268   1.470   4.336   8.602 -0.3945 -1.0086  2.7972
 4903TIP3    H236269   1.573   4.308   8.494 -3.0942  2.3461 -0.9726
 4904TIP3   OH236270   1.427   1.600   0.060  0.2216  0.4772 -0.4974
 4904TIP3    H136271   1.354   1.537   0.065 -1.2718  2.1809  0.3362
 4904TIP3    H236272   1.489   1.569   0.126 -0.1362 -0.5240 -0.5997
 4905TIP3   OH236273   3.399   2.768   2.469  0.3339  0.6074 -0.4020
 4905TIP3    H136274   3.325   2.777   2.529  0.6688 -2.0450  0.5456
 4905TIP3    H236275   3.468   2.820   2.509 -0.1706  0.8102  0.2310
 4906TIP3   OH236276   5.982   0.433   0.547 -0.0899  0.3386  0.2775
 4906TIP3    H136277   5.897   0.477   0.543 -0.1589  0.2212 -4.1343
 4906TIP3    H236278   5.968   0.349   0.504  2.2667  0.4264 -0.8216
 4907TIP3   OH236279   1.721   3.502   7.606  0.0545  0.7453  0.4407
 4907TIP3    H136280   1.686   3.584   7.572 -0.4147  0.9459  1.3574
 4907TIP3    H236281   1.653   3.471   7.666 -0.1572 -0.7519 -0.5184
 4908TIP3   OH236282   3.315   3.537   7.293 -0.6302  0.2522 -0.2676
 4908TIP3    H136283   3.369   3.572   7.223 -3.2659 -0.2375 -2.7522
 4908TIP3    H236284   3.360   3.457   7.320  1.5465  1.5557  0.2020
 4909TIP3   OH236285   6.854   0.240   0.443 -0.4438  1.1295 -0.2555
 4909TIP3    H136286   6.801   0.285   0.508 -1.1641  1.1765 -0.8687
 4909TIP3    H236287   6.939   0.283   0.448  0.4121 -0.5891  2.5322
 4910TIP3   OH236288   1.192   4.315   1.239  0.2621 -0.3612  0.1300
 4910TIP3    H136289   1.263   4.364   1.197  1.6486 -2.3602  0.0641
 4910TIP3    H236290   1.177   4.240   1.181 -0.4944 -1.0815  1.2271
 4911TIP3   OH236291   3.334   2.811   8.392 -0.0375 -0.0733 -0.3494
 4911TIP3    H136292   3.357   2.767   8.310  0.5623  0.0040 -0.2317
 4911TIP3    H236293   3.239   2.821   8.389  0.0355  0.4083 -1.2737
 4912TIP3   OH236294   5.651   6.182   2.943 -0.0970 -0.1206  0.4551
 4912TIP3    H136295   5.653   6.218   2.854 -0.4031 -2.0904 -0.3882
 4912TIP3    H236296   5.576   6.225   2.984 -1.4017 -0.8880 -1.0329
 4913TIP3   OH236297   3.334   2.635   8.606 -0.0525  0.8229  0.0268
 4913TIP3    H136298   3.343   2.694   8.531 -1.1767 -0.2729 -1.0334
 4913TIP3    H236299   3.239   2.633   8.623  0.0423 -0.1056  0.4874
 4914TIP3   OH236300   5.730   2.798   1.685 -0.3356 -0.2826 -0.2205
 4914TIP3    H136301   5.781   2.764   1.758  0.0896  2.0027  0.6530
 4914TIP3    H236302   5.663   2.732   1.669 -0.3656 -0.9341  2.1819
 4915TIP3   OH236303   4.564   0.042   8.603  0.4321 -0.2682 -0.5681
 4915TIP3    H136304   4.512   0.055   8.524 -0.6458  0.2598  0.2092
 4915TIP3    H236305   4.549  -0.050   8.627 -2.5074  0.5523  1.2183
 4916TIP3   OH236306   3.531   0.591   2.174 -0.0729  0.2880  0.1565
 4916TIP3    H136307   3.520   0.662   2.238 -1.6654  2.3391 -2.2130
 4916TIP3    H236308   3.559   0.516   2.227 -0.0827  2.1558  3.0598
 4917TIP3   OH236309   0.614   5.882   7.875 -0.0863  0.0228  0.3123
 4917TIP3    H136310   0.691   5.885   7.932 -0.6781  2.5196  1.1074
 4917TIP3    H236311   0.644   5.921   7.793 -0.6173  1.6973  0.8694
 4918TIP3   OH236312   4.740   6.820   7.767  0.2515 -0.3708  0.0428
 4918TIP3    H136313   4.751   6.758   7.696  0.0637  0.0490 -0.3561
 4918TIP3    H236314   4.815   6.804   7.825 -0.8003 -2.2855  0.9664
 4919TIP3   OH236315   2.354   3.735   1.130  0.2192 -0.2012  0.1388
 4919TIP3    H136316   2.355   3.639   1.133  0.1835 -0.2330 -0.5437
 4919TIP3    H236317   2.329   3.762   1.218  1.4877 -0.7911  0.7179
 4920TIP3   OH236318   5.974   4.433   8.466  0.5285 -0.6715 -0.0368
 4920TIP3    H136319   6.060   4.418   8.505 -0.1011 -2.6068  0.7590
 4920TIP3    H236320   5.986   4.415   8.373  1.2929  0.6107 -0.2125
 4921TIP3   OH236321   5.066   5.500   1.331 -0.1190  0.3304  0.5049
 4921TIP3    H136322   4.981   5.531   1.300  0.0540  0.9438  0.6402
 4921TIP3    H236323   5.095   5.566   1.393  1.0527  0.8029 -0.5047
 4922TIP3   OH236324   5.857   6.005   2.121 -0.5297 -0.3467  0.6523
 4922TIP3    H136325   5.808   6.080   2.155 -1.0751 -1.0182  1.3705
 4922TIP3    H236326   5.912   5.977   2.194 -1.8532 -1.9224  1.1028
 4923TIP3   OH236327   5.053   6.054   2.155  0.2065 -0.2909 -0.5252
 4923TIP3    H136328   5.131   6.027   2.107  0.2695  0.6333 -0.9528
 4923TIP3    H236329   5.052   6.149   2.148 -0.3817 -0.2219  0.3861
 4924TIP3   OH236330   2.964   4.695   1.131  0.2217  0.5576  0.0290
 4924TIP3    H136331   2.904   4.755   1.085 -0.7000 -0.9976 -0.8652
 4924TIP3    H236332   2.966   4.617   1.076  1.2939 -0.2994  1.2523
 4925TIP3   OH236333   1.536   2.525   1.956 -0.1863  0.1304  0.1334
 4925TIP3    H136334   1.486   2.563   2.029 -0.3735 -1.4574  0.8752
 4925TIP3    H236335   1.569   2.601   1.908 -1.1450  1.2233  1.1176
 4926TIP3   OH236336   0.176   6.540   1.861  0.9266  0.4912  0.0656
 4926TIP3    H136337   0.242   6.597   1.901 -0.5993  1.9904  0.5565
 4926TIP3    H236338   0.093   6.573   1.893 -0.0599 -2.2515  0.6148
 4927TIP3   OH236339   2.071   2.758   1.272 -0.0204  0.0455 -0.1860
 4927TIP3    H136340   2.104   2.668   1.260 -0.1038 -0.0903  0.5661
 4927TIP3    H236341   2.079   2.774   1.366 -3.5644 -0.5769  0.3555
 4928TIP3   OH236342   1.622   3.052   0.384  0.4540 -0.8471 -0.3421
 4928TIP3    H136343   1.707   3.085   0.354 -0.3321  1.8482  0.0707
 4928TIP3    H236344   1.600   3.108   0.459 -1.3557 -1.9589  0.0146
 4929TIP3   OH236345   1.777   1.852   1.465 -0.5511  0.2881  0.5681
 4929TIP3    H136346   1.702   1.797   1.490  0.1711 -0.8132  0.4099
 4929TIP3    H236347   1.820   1.803   1.394  0.2951  0.9073  0.6346
 4930TIP3   OH236348   0.303   3.718   1.470  0.8470 -0.1796 -0.0829
 4930TIP3    H136349   0.264   3.762   1.395 -0.1625 -0.6232  0.1668
 4930TIP3    H236350   0.316   3.787   1.534  0.7045  0.0148 -0.2631
 4931TIP3   OH236351   4.164   2.152   1.162  0.3541 -0.4408 -0.0014
 4931TIP3    H136352   4.259   2.150   1.154  0.4599 -0.2221  1.0175
 4931TIP3    H236353   4.133   2.085   1.101  1.3590 -2.7461  1.8391
 4932TIP3   OH236354   2.991   6.450   7.895  0.3711  0.0906 -0.1428
 4932TIP3    H136355   3.063   6.512   7.906 -0.7491  1.8616 -2.0825
 4932TIP3    H236356   2.912   6.502   7.905 -0.6460 -1.3488 -0.3008
 4933TIP3   OH236357   4.701   0.634   1.666 -0.0973  0.0358  0.0911
 4933TIP3    H136358   4.685   0.553   1.716 -0.0492  0.9267  1.6075
 4933TIP3    H236359   4.759   0.685   1.722  2.1986 -0.0174 -2.0617
 4934TIP3   OH236360   2.808   4.882   0.595  0.3251  0.1508 -0.4114
 4934TIP3    H136361   2.804   4.791   0.625 -1.4183 -0.1281 -1.3457
 4934TIP3    H236362   2.796   4.877   0.500  0.9818  1.3096 -0.5736
 4935TIP3   OH236363   0.984   0.840   0.214 -0.1446 -0.1626 -0.1563
 4935TIP3    H136364   1.061   0.811   0.263  1.2463  0.5575 -1.8044
 4935TIP3    H236365   0.974   0.775   0.144 -1.4185 -0.5665  0.3636
 4936TIP3   OH236366   4.884   5.898   0.255 -0.4788 -0.1198 -0.2607
 4936TIP3    H136367   4.899   5.894   0.350 -0.7498 -0.2661 -0.2223
 4936TIP3    H236368   4.912   5.812   0.223  0.8967  0.3944 -0.5093
 4937TIP3   OH236369   6.180   3.624   1.596 -0.0815  0.0475  0.2615
 4937TIP3    H136370   6.206   3.534   1.579  0.7597  0.5432 -1.3488
 4937TIP3    H236371   6.255   3.662   1.642  0.3198  0.3572 -0.6154
 4938TIP3   OH236372   2.637   3.502   8.523  0.2938  0.0781  0.1535
 4938TIP3    H136373   2.621   3.596   8.520 -1.0948 -0.1377  0.3689
 4938TIP3    H236374   2.574   3.465   8.461  0.7303 -0.7323  0.1811
 4939TIP3   OH236375   4.110   5.740   1.649 -0.1954 -0.1502 -0.2448
 4939TIP3    H136376   4.133   5.754   1.558 -1.6958  0.5024 -0.5620
 4939TIP3    H236377   4.072   5.652   1.651 -0.3441 -0.0869 -0.2874
 4940TIP3   OH236378   6.088   5.186   8.289 -0.5944  0.5222 -0.1933
 4940TIP3    H136379   6.005   5.183   8.242 -0.5525  2.8607 -0.5151
 4940TIP3    H236380   6.154   5.204   8.221  0.0272 -0.0304  0.2417
 4941TIP3   OH236381   3.126   5.590   1.678 -0.7089 -0.0452  0.6315
 4941TIP3    H136382   3.214   5.625   1.666 -0.8730  0.3620  0.6038
 4941TIP3    H236383   3.072   5.638   1.615 -0.6669 -1.4079 -0.4836
 4942TIP3   OH236384   3.145   4.688   3.135  0.5618 -0.5452  0.3606
 4942TIP3    H136385   3.105   4.727   3.213  1.3901  0.1357  0.4547
 4942TIP3    H236386   3.074   4.638   3.094 -0.7599  1.6683 -0.1841
 4943TIP3   OH236387   4.948   6.626   2.826  0.5268 -0.1543  0.0731
 4943TIP3    H136388   4.929   6.714   2.857 -0.5840  0.1094 -1.2866
 4943TIP3    H236389   5.040   6.611   2.851 -0.0923  0.2155  2.9434
 4944TIP3   OH236390   1.821   0.756   0.480  0.4888 -0.1298  0.0553
 4944TIP3    H136391   1.731   0.782   0.498  0.5603  2.9920 -3.1165
 4944TIP3    H236392   1.817   0.707   0.399  1.6531  0.1806 -0.2159
 4945TIP3   OH236393   6.264   6.455   8.321 -0.7814  0.8652  0.2230
 4945TIP3    H136394   6.292   6.470   8.411  0.2105  0.0467  0.0667
 4945TIP3    H236395   6.294   6.534   8.274  1.9492 -0.2151 -0.0569
 4946TIP3   OH236396   0.860   4.779   7.565 -0.1449 -0.0861 -0.2960
 4946TIP3    H136397   0.867   4.868   7.532  0.5352 -0.1995 -0.4731
 4946TIP3    H236398   0.858   4.724   7.487  0.8972 -0.3173 -0.1665
 4947TIP3   OH236399   4.057   4.731   1.179  0.0366  0.2449 -0.0864
 4947TIP3    H136400   3.976   4.781   1.184  1.5969  2.9573 -0.3157
 4947TIP3    H236401   4.086   4.740   1.088  0.0050 -1.8075 -0.3653
 4948TIP3   OH236402   3.150   6.786   0.686  0.6220  0.0207  0.2681
 4948TIP3    H136403   3.141   6.786   0.782  0.2772  0.0149  0.2368
 4948TIP3    H236404   3.104   6.864   0.658 -0.8823 -0.9281 -0.0323
 4949TIP3   OH236405   1.321   5.686   3.228 -0.0481  0.0147 -0.1810
 4949TIP3    H136406   1.241   5.640   3.204 -0.4874 -0.6294  2.3260
 4949TIP3    H236407   1.365   5.628   3.290  0.7653  1.7466  0.9441
 4950TIP3   OH236408   1.637   2.570   2.712  0.1746  0.6460 -0.0078
 4950TIP3    H136409   1.730   2.583   2.728  0.2834 -1.6776  1.7515
 4950TIP3    H236410   1.603   2.537   2.795 -1.8046 -0.5630 -1.2275
 4951TIP3   OH236411   5.266   1.265   2.285  0.1434 -0.1504  0.0235
 4951TIP3    H136412   5.339   1.311   2.243  1.6678 -1.7561  0.8027
 4951TIP3    H236413   5.298   1.176   2.298 -1.2975 -0.4433  2.0356
 4952TIP3   OH236414   3.553   6.628   7.873 -0.4773  0.0090  0.1261
 4952TIP3    H136415   3.625   6.595   7.820 -2.1507 -1.0826 -1.6063
 4952TIP3    H236416   3.594   6.657   7.954  1.6349 -2.8413  0.2304
 4953TIP3   OH236417   2.399   1.889   2.146  0.1438  0.2098 -0.1520
 4953TIP3    H136418   2.333   1.939   2.097 -0.2964  0.6769  0.8837
 4953TIP3    H236419   2.482   1.917   2.109 -0.0746  1.8874  0.4998
 4954TIP3   OH236420   2.053   4.859   2.565  0.1578 -0.2032 -0.5940
 4954TIP3    H136421   2.010   4.773   2.564 -0.3264  0.0175  0.1752
 4954TIP3    H236422   1.992   4.917   2.519  0.5093 -0.2756 -1.1611
 4955TIP3   OH236423   6.212   5.845   1.830 -0.4123  0.7191 -0.3402
 4955TIP3    H136424   6.141   5.907   1.847 -1.1595 -0.4685  1.1558
 4955TIP3    H236425   6.218   5.794   1.910 -0.9157 -2.1988 -2.0221
 4956TIP3   OH236426   0.609   4.302   1.386  0.0678 -0.2256  0.4888
 4956TIP3    H136427   0.636   4.326   1.297 -0.8159  0.5560  0.4145
 4956TIP3    H236428   0.618   4.383   1.436  0.4419 -0.6324  1.0983
 4957TIP3   OH236429   6.090   6.258   1.243 -0.0150 -0.0758  0.2054
 4957TIP3    H136430   6.058   6.178   1.200 -0.0547 -1.3138  2.3817
 4957TIP3    H236431   6.145   6.226   1.314  0.6379  1.8888  0.6354
 4958TIP3   OH236432   5.624   2.044   7.797  0.2739  0.4427 -0.1298
 4958TIP3    H136433   5.542   2.092   7.798  0.1829  0.3027 -0.5478
 4958TIP3    H236434   5.662   2.059   7.883  0.7457  2.1200 -0.5980
 4959TIP3   OH236435   5.051   4.648   7.544 -0.0934  0.8860 -0.2415
 4959TIP3    H136436   4.998   4.710   7.493 -1.5863 -0.8595 -0.9218
 4959TIP3    H236437   5.095   4.595   7.478 -0.5059 -0.1442  0.2989
 4960TIP3   OH236438   1.393   2.344   7.815 -0.6865  0.3870  0.2724
 4960TIP3    H136439   1.363   2.262   7.853  0.9698  0.6140  2.2649
 4960TIP3    H236440   1.459   2.317   7.751 -0.2761  0.1429  0.7901
 4961TIP3   OH236441   0.292   1.496   6.806  0.2419 -0.2532  0.0929
 4961TIP3    H136442   0.269   1.556   6.735  2.5624  3.6080  2.2657
 4961TIP3    H236443   0.210   1.479   6.851 -0.7029  0.1060 -1.4090
 4962TIP3   OH236444   5.670   1.698   0.248 -0.6888 -0.4824  0.1611
 4962TIP3    H136445   5.748   1.754   0.254  0.3315 -1.8516  0.3910
 4962TIP3    H236446   5.599   1.752   0.282  0.5400  0.1505  1.9198
 4963TIP3   OH236447   6.779   1.877   8.359 -0.0655  0.1665 -0.1265
 4963TIP3    H136448   6.839   1.867   8.433  3.1075 -0.7948 -2.6177
 4963TIP3    H236449   6.814   1.951   8.310 -1.5746  0.2569 -1.1154
 4964TIP3   OH236450   5.043   0.411   1.136  0.4248  0.0007  0.4196
 4964TIP3    H136451   5.051   0.396   1.230  1.1135 -0.3157  0.3212
 4964TIP3    H236452   5.074   0.329   1.096  1.3839  0.5905 -0.0890
 4965TIP3   OH236453   5.759   3.444   8.178 -0.1356 -0.3346  0.2589
 4965TIP3    H136454   5.810   3.495   8.241  1.3914  0.1287 -1.2688
 4965TIP3    H236455   5.791   3.354   8.188  1.0223 -0.0502 -0.6734
 4966TIP3   OH236456   6.476   4.614   0.240 -0.3458 -0.0605  0.1159
 4966TIP3    H136457   6.505   4.604   0.150 -0.5450  1.1501 -0.1072
 4966TIP3    H236458   6.391   4.658   0.233 -0.1656  0.4393  0.8949
 4967TIP3   OH236459   0.201   4.326   2.899 -0.3418 -0.0992  0.1790
 4967TIP3    H136460   0.187   4.289   2.986  0.6848 -0.9574 -0.0007
 4967TIP3    H236461   0.270   4.391   2.910 -2.9358  2.7786  0.7177
 4968TIP3   OH236462   5.973   3.156   7.411  0.1530 -0.2686 -0.1788
 4968TIP3    H136463   5.992   3.073   7.455  1.0313 -0.6988 -1.3138
 4968TIP3    H236464   5.888   3.182   7.446  0.0769 -1.4004  0.5552
 4969TIP3   OH236465   4.591   2.412   0.372  0.4693 -0.5018  0.0077
 4969TIP3    H136466   4.540   2.396   0.452  0.1608 -0.8416 -0.2504
 4969TIP3    H236467   4.678   2.378   0.392 -0.2626 -3.0412 -0.6584
 4970TIP3   OH236468   5.133   2.877   6.785 -0.1707  0.0395 -0.2095
 4970TIP3    H136469   5.215   2.908   6.748 -0.8665  2.3535  0.0203
 4970TIP3    H236470   5.085   2.956   6.808 -1.5123 -1.2553  1.8331
 4971TIP3   OH236471   3.450   0.844   0.278  0.1398  0.0497 -0.3419
 4971TIP3    H136472   3.490   0.928   0.299  0.0086  0.4756 -1.6901
 4971TIP3    H236473   3.429   0.806   0.363 -2.7198  2.7726  0.3488
 4972TIP3   OH236474   1.262   5.863   7.984  0.0093  0.2731  0.4294
 4972TIP3    H136475   1.214   5.807   8.044 -0.0499 -1.4288 -1.1091
 4972TIP3    H236476   1.201   5.879   7.912  0.5961  0.9778  0.0698
 4973TIP3   OH236477   6.221   6.543   0.550  0.0206  0.1478  0.3790
 4973TIP3    H136478   6.141   6.587   0.579 -0.4744  0.4298 -1.2645
 4973TIP3    H236479   6.203   6.450   0.562 -0.2268  0.2436  0.7833
 4974TIP3   OH236480   4.610   5.816   0.885  0.1232  0.4968 -0.0612
 4974TIP3    H136481   4.526   5.816   0.839 -0.0456 -1.2130  0.1603
 4974TIP3    H236482   4.608   5.894   0.941 -1.4849  0.2755  0.2247
 4975TIP3   OH236483   5.740   1.205   8.021 -0.3026  0.3278 -0.5501
 4975TIP3    H136484   5.699   1.228   8.104 -0.3461 -0.1285 -0.4456
 4975TIP3    H236485   5.711   1.115   8.004  0.5634  0.0419 -0.5347
 4976TIP3   OH236486   3.864   5.055   3.028 -0.0893  0.1724 -0.0775
 4976TIP3    H136487   3.827   5.094   3.107 -0.7234  1.8982 -1.1691
 4976TIP3    H236488   3.792   5.053   2.965  0.2014 -1.8611 -0.4332
 4977TIP3   OH236489   5.113   1.652   1.534 -0.3180 -0.0100 -0.3639
 4977TIP3    H136490   5.180   1.660   1.602  0.7695  1.9859 -1.5685
 4977TIP3    H236491   5.163   1.647   1.452 -1.6107 -1.3945 -1.1113
 4978TIP3   OH236492   2.421   3.328   8.000 -0.0073  0.2374  0.4078
 4978TIP3    H136493   2.407   3.259   7.935  0.6967  1.1816 -0.7731
 4978TIP3    H236494   2.443   3.280   8.081  2.2527 -0.9554 -0.8051
 4979TIP3   OH236495   0.996   3.688   8.547 -0.1110 -0.1213  0.0818
 4979TIP3    H136496   0.954   3.728   8.471  1.2114  0.0031 -0.6147
 4979TIP3    H236497   0.924   3.670   8.608 -0.9387  2.0088 -0.1674
 4980TIP3   OH236498   2.449   4.436   1.572  0.0015 -0.6685  0.2187
 4980TIP3    H136499   2.502   4.379   1.516 -0.6481 -1.0346 -0.0355
 4980TIP3    H236500   2.455   4.397   1.659 -0.8498 -1.4292 -0.0521
 4981TIP3   OH236501   1.588   0.829   0.967 -0.0687 -0.3392 -0.1304
 4981TIP3    H136502   1.633   0.913   0.977  1.1315 -0.9625 -0.1030
 4981TIP3    H236503   1.559   0.827   0.875  0.7238 -0.2829 -0.3869
 4982TIP3   OH236504   2.991   0.346   7.515  0.2582 -0.1615 -0.1032
 4982TIP3    H136505   2.984   0.264   7.466 -0.8879 -0.3880  0.3937
 4982TIP3    H236506   3.002   0.414   7.449 -3.4474 -0.1768 -0.9449
 4983TIP3   OH236507   3.260   4.842   8.612  0.0004  0.2248  0.1565
 4983TIP3    H136508   3.264   4.769   8.674  0.8029 -0.9283 -1.2046
 4983TIP3    H236509   3.212   4.910   8.659 -1.1428 -1.3111  1.3272
 4984TIP3   OH236510   4.983   3.808   0.978  0.0894 -0.0450 -0.2115
 4984TIP3    H136511   5.047   3.824   1.047 -0.3036 -0.9312  0.3747
 4984TIP3    H236512   5.035   3.776   0.904  0.3564 -0.4595  0.1519
 4985TIP3   OH236513   4.219   1.073   7.961  0.1181  0.1322 -0.0348
 4985TIP3    H136514   4.153   1.058   7.894  1.2641  1.1917 -1.4894
 4985TIP3    H236515   4.259   0.988   7.976 -0.3852 -0.1780 -0.4421
 4986TIP3   OH236516   1.040   0.891   7.968 -0.1308  0.9213  1.2076
 4986TIP3    H136517   0.983   0.967   7.981  1.2334  2.4447 -1.1415
 4986TIP3    H236518   1.042   0.878   7.873  1.5888 -0.5432  1.3905
 4987TIP3   OH236519   4.739   0.587   7.983 -0.1646 -0.0542  0.5670
 4987TIP3    H136520   4.655   0.596   7.938  0.1188 -0.4228 -0.0556
 4987TIP3    H236521   4.719   0.599   8.076 -0.7380  0.8825  0.3332
 4988TIP3   OH236522   0.987   2.118   1.298  0.1299 -0.1796 -0.1607
 4988TIP3    H136523   0.956   2.039   1.343 -1.2399  0.1931 -0.4025
 4988TIP3    H236524   1.011   2.178   1.368 -0.3270 -0.2464  0.0608
 4989TIP3   OH236525   6.367   4.322   7.642 -0.2472  0.2788  0.1013
 4989TIP3    H136526   6.347   4.247   7.698  0.1745  1.3670  1.7838
 4989TIP3    H236527   6.351   4.398   7.697 -1.4641  1.5107 -1.8110
 4990TIP3   OH236528   1.512   6.363   0.165  0.8054 -0.4004 -0.6074
 4990TIP3    H136529   1.469   6.302   0.106  0.9036  0.7601 -1.9458
 4990TIP3    H236530   1.595   6.383   0.123  2.0596 -1.4891  1.2237
 4991TIP3   OH236531   0.425   6.659   1.936 -0.4977 -0.7242 -0.5580
 4991TIP3    H136532   0.509   6.681   1.976  0.4105  0.8646 -3.1172
 4991TIP3    H236533   0.443   6.657   1.842 -3.2086 -0.9093 -1.1414
 4992TIP3   OH236534   5.013   0.684   7.163 -0.1031 -0.5238  0.3130
 4992TIP3    H136535   5.084   0.713   7.105 -0.3759  0.7061  0.5764
 4992TIP3    H236536   4.975   0.608   7.118 -2.7077  2.4445 -3.1431
 4993TIP3   OH236537   0.184   6.802   2.212  0.1035  0.3274 -0.8412
 4993TIP3    H136538   0.195   6.866   2.282  0.2144  0.7949 -1.2843
 4993TIP3    H236539   0.092   6.810   2.187 -1.1573 -2.6829  1.9876
 4994TIP3   OH236540   2.170   2.455   8.247 -0.0706 -0.1290  0.2452
 4994TIP3    H136541   2.189   2.448   8.341  0.1744 -1.3050  0.1263
 4994TIP3    H236542   2.159   2.549   8.232 -1.1204  0.0079  1.6427
 4995TIP3   OH236543   6.281   2.609   7.384 -0.2286 -0.7231 -0.1967
 4995TIP3    H136544   6.335   2.687   7.372 -1.6336  0.2474 -0.4992
 4995TIP3    H236545   6.297   2.556   7.306  0.1540 -0.3631 -0.3634
 4996TIP3   OH236546   2.853   3.898   2.145 -0.1929 -0.0143 -0.1820
 4996TIP3    H136547   2.811   3.812   2.139  0.2800 -0.2624  0.0120
 4996TIP3    H236548   2.884   3.916   2.056 -2.4819  1.0958 -0.8213
 4997TIP3   OH236549   5.989   5.894   8.121 -0.6127 -0.3014 -0.3004
 4997TIP3    H136550   6.055   5.911   8.054  1.8978 -2.0699  1.5391
 4997TIP3    H236551   5.966   5.981   8.155  0.0908  0.4108 -1.5780
 4998TIP3   OH236552   4.991   5.193   2.284 -0.3653  0.4648  0.0549
 4998TIP3    H136553   4.910   5.222   2.242 -0.6643 -1.5796 -0.8835
 4998TIP3    H236554   4.967   5.114   2.333  0.7420  0.7531  1.1321
 4999TIP3   OH236555   3.274   1.125   7.211  0.4147  0.0887 -0.0761
 4999TIP3    H136556   3.214   1.070   7.261  1.1780 -2.7485 -2.0707
 4999TIP3    H236557   3.216   1.182   7.160 -0.5223 -0.6946  0.0734
 5000TIP3   OH236558   1.762   3.254   8.117  0.0598 -1.0180  0.3308
 5000TIP3    H136559   1.831   3.244   8.182 -2.1554 -1.6971  2.7158
 5000TIP3    H236560   1.700   3.184   8.136 -2.2096  0.6277 -0.5153
 5001TIP3   OH236561   3.619   0.792   1.817  0.6522 -0.1184  0.2187
 5001TIP3    H136562   3.563   0.866   1.841  1.3236  0.3858  0.2454
 5001TIP3    H236563   3.558   0.725   1.786 -0.2101 -0.5686  2.7096
 5002TIP3   OH236564   2.957   3.145   8.131  0.1055 -0.1252  0.1002
 5002TIP3    H136565   2.973   3.196   8.052 -0.0611  1.5545  1.0943
 5002TIP3    H236566   2.884   3.190   8.174 -0.7629 -1.8375  0.5284
 5003TIP3   OH236567   3.791   2.911   0.711 -0.2141  0.2658  0.1583
 5003TIP3    H136568   3.783   3.005   0.727 -1.0243 -0.1404  2.6735
 5003TIP3    H236569   3.807   2.874   0.798 -1.2275 -2.0509 -0.5724
 5004TIP3   OH236570   2.560   2.909   2.759 -0.6252 -0.6997  0.0746
 5004TIP3    H136571   2.644   2.940   2.725 -1.9331  1.0075 -1.8410
 5004TIP3    H236572   2.577   2.892   2.852  1.3849  1.4690  0.2099
 5005TIP3   OH236573   4.818   3.756   8.018  0.3373 -0.0788  0.6705
 5005TIP3    H136574   4.911   3.762   8.041 -0.2151  0.5299  2.9271
 5005TIP3    H236575   4.793   3.846   7.996  0.2477 -0.2275  0.1467
 5006TIP3   OH236576   3.709   3.162   0.331  0.2575 -0.2877  0.1175
 5006TIP3    H136577   3.773   3.146   0.400  0.4566 -0.6508 -0.1444
 5006TIP3    H236578   3.724   3.091   0.268  0.9557  0.7721 -0.9348
 5007TIP3   OH236579   3.916   1.620   1.980 -0.0959  0.2055  0.0855
 5007TIP3    H136580   3.977   1.621   1.906 -0.5580  0.5890 -0.2975
 5007TIP3    H236581   3.868   1.703   1.972 -1.2248 -0.4487 -0.0993
 5008TIP3   OH236582   2.800   2.568   7.948 -0.2055  0.4863 -0.5874
 5008TIP3    H136583   2.782   2.658   7.923 -0.9746  0.5348  0.1311
 5008TIP3    H236584   2.747   2.515   7.888 -1.3851  0.5818  0.3321
 5009TIP3   OH236585   5.174   5.090   7.903  0.4522  0.0875 -0.0281
 5009TIP3    H136586   5.168   5.017   7.842  0.7306 -1.6443  1.9173
 5009TIP3    H236587   5.251   5.139   7.873  1.5367 -1.6139 -0.1888
 5010TIP3   OH236588   5.518   4.603   8.498 -0.8518  0.3074 -0.2521
 5010TIP3    H136589   5.460   4.629   8.426 -0.0087  2.1178 -0.3445
 5010TIP3    H236590   5.583   4.674   8.504 -0.5829 -0.0309  1.9587
 5011TIP3   OH236591   2.170   2.394   0.291  0.3646 -0.5633 -0.1107
 5011TIP3    H136592   2.259   2.363   0.309 -0.1476 -1.2448  1.4802
 5011TIP3    H236593   2.176   2.437   0.206  2.4974  0.6108  0.5529
 5012TIP3   OH236594   2.888   3.731   1.076  0.3539  0.3579 -0.5522
 5012TIP3    H136595   2.927   3.646   1.058 -0.5967 -0.2714  0.2702
 5012TIP3    H236596   2.917   3.787   1.004  1.2721 -0.5671 -0.9117
 5013TIP3   OH236597   0.479   0.703   1.147  0.1343 -0.0334 -0.3839
 5013TIP3    H136598   0.491   0.793   1.115 -1.3946 -0.4373 -2.2951
 5013TIP3    H236599   0.410   0.709   1.212  0.4809  0.2580 -0.0401
 5014TIP3   OH236600   2.855   1.405   8.607  0.8923  0.1977  0.1758
 5014TIP3    H136601   2.885   1.488   8.645 -0.3719  0.9685 -0.4408
 5014TIP3    H236602   2.760   1.408   8.615  0.7977 -0.9659 -0.3322
 5015TIP3   OH236603   3.554   6.644   7.284 -0.1654 -0.1156  0.2473
 5015TIP3    H136604   3.588   6.729   7.311  0.5272 -0.1756 -0.4115
 5015TIP3    H236605   3.597   6.582   7.343  0.7202 -0.1685 -0.4321
 5016TIP3   OH236606   3.919   5.888   1.984 -0.2577  0.0744  0.2201
 5016TIP3    H136607   3.918   5.892   1.889 -0.1582  0.1027  0.2210
 5016TIP3    H236608   3.894   5.976   2.012  0.5094  0.2949  0.2268
 5017TIP3   OH236609   3.335   5.075   7.167 -0.6111  0.2056 -0.1242
 5017TIP3    H136610   3.248   5.111   7.149 -0.7348  0.5537  1.0855
 5017TIP3    H236611   3.342   5.075   7.262  0.1708 -1.1367 -0.1578
 5018TIP3   OH236612   6.309   0.037   7.696  0.3038  0.3554 -0.1796
 5018TIP3    H136613   6.261   0.119   7.682 -1.3774 -0.7414 -1.1884
 5018TIP3    H236614   6.254  -0.012   7.757  0.9410 -0.2894 -0.1223
 5019TIP3   OH236615   3.636   5.714   7.546 -0.3228 -0.8196 -0.7002
 5019TIP3    H136616   3.565   5.679   7.493  0.0770 -2.3464 -0.2653
 5019TIP3    H236617   3.601   5.717   7.635 -0.2790 -0.3238 -0.6991
 5020TIP3   OH236618   2.818   2.675   6.640  0.4324  0.5327 -0.2676
 5020TIP3    H136619   2.883   2.687   6.571 -0.5373  0.4675 -1.2214
 5020TIP3    H236620   2.820   2.581   6.659  0.9841  0.6124  0.0928
 5021TIP3   OH236621   2.503   3.293   7.483  0.2878 -0.7913  0.4922
 5021TIP3    H136622   2.559   3.353   7.433 -0.2081 -0.3450  0.4621
 5021TIP3    H236623   2.560   3.259   7.552 -0.0486  1.6834  2.1193
 5022TIP3   OH236624   0.618   4.559   8.163 -0.5883 -0.3554  0.0901
 5022TIP3    H136625   0.636   4.513   8.081  2.4309 -0.5672  0.7800
 5022TIP3    H236626   0.534   4.603   8.147 -0.4661 -0.9748 -2.8392
 5023TIP3   OH236627   5.937   4.849   7.833  0.0333 -0.2213  0.5772
 5023TIP3    H136628   5.851   4.840   7.793  0.5740 -0.1834 -0.6478
 5023TIP3    H236629   5.936   4.936   7.873 -1.0562 -0.8641  2.0590
 5024TIP3   OH236630   2.678   6.657   2.353  0.5309 -0.3674 -0.5459
 5024TIP3    H136631   2.707   6.722   2.289  1.0881 -0.5644 -0.4992
 5024TIP3    H236632   2.586   6.640   2.330  0.1401  0.9766 -0.1084
 5025TIP3   OH236633   5.592   3.630   8.579  0.3467  0.2485 -0.1542
 5025TIP3    H136634   5.598   3.600   8.670  2.0524 -0.0856 -0.3565
 5025TIP3    H236635   5.649   3.707   8.575 -0.0769  0.5336 -0.8457
 5026TIP3   OH236636   4.401   3.057   7.337 -0.9744 -0.1337 -0.0483
 5026TIP3    H136637   4.420   2.983   7.395 -0.9918 -0.8037 -0.8652
 5026TIP3    H236638   4.310   3.044   7.311 -1.5756  1.2273  1.2541
 5027TIP3   OH236639   5.163   6.704   8.240  0.2235 -0.3970  0.3427
 5027TIP3    H136640   5.069   6.688   8.226  0.4387 -0.6752 -0.8531
 5027TIP3    H236641   5.166   6.751   8.323 -0.9423 -0.7737  0.6237
 5028TIP3   OH236642   4.054   6.461   7.459  0.3276  0.4313  0.0565
 5028TIP3    H136643   4.119   6.508   7.512  0.8179 -0.0553 -0.1084
 5028TIP3    H236644   4.090   6.463   7.370  0.9283 -1.2359  0.2263
 5029TIP3   OH236645   3.521   6.414   7.092  0.0523  0.6766  0.5806
 5029TIP3    H136646   3.522   6.505   7.122 -0.1501  1.3843 -1.3918
 5029TIP3    H236647   3.593   6.373   7.138  0.2564  1.8879  1.3914
 5030TIP3   OH236648   0.269   6.572   3.095  0.7603 -0.1898  0.1554
 5030TIP3    H136649   0.268   6.653   3.044 -1.0977 -0.4399 -0.2787
 5030TIP3    H236650   0.275   6.502   3.030  0.1806 -0.4618  0.3885
 5031TIP3   OH236651   1.251   1.303   8.274  0.0799  0.2907  0.4062
 5031TIP3    H136652   1.273   1.339   8.360  1.0387  1.2528 -0.2105
 5031TIP3    H236653   1.253   1.208   8.286  1.8543  0.3692  1.0944
 5032TIP3   OH236654   2.833   5.092   1.693 -0.2084 -0.0311  0.3554
 5032TIP3    H136655   2.898   5.135   1.637  0.7668 -0.5667  1.0362
 5032TIP3    H236656   2.785   5.034   1.634 -0.6677  1.0067 -0.3218
 5033TIP3   OH236657   2.038   2.491   1.725  0.1081 -0.4253  0.4447
 5033TIP3    H136658   1.978   2.426   1.762 -1.5267  0.7701  0.0135
 5033TIP3    H236659   2.001   2.575   1.752  1.2416  0.3582 -0.3764
 5034TIP3   OH236660   1.452   5.790   7.720 -0.1274 -0.6238  0.2065
 5034TIP3    H136661   1.377   5.805   7.662 -1.8939 -2.1650  1.9638
 5034TIP3    H236662   1.520   5.756   7.662 -0.7257  0.8432 -1.4459
 5035TIP3   OH236663   6.747   0.953   0.005  0.4881  0.9074 -0.3883
 5035TIP3    H136664   6.716   0.912   0.086  1.6454  1.7743  0.5365
 5035TIP3    H236665   6.740   1.047   0.022  0.3819  1.1022 -1.4504
 5036TIP3   OH236666   0.106   3.870   0.362 -0.3194 -0.3454  0.1919
 5036TIP3    H136667   0.114   3.903   0.272 -0.3613 -4.2207 -1.4326
 5036TIP3    H236668   0.149   3.936   0.415  3.2618  0.3917 -3.1374
 5037TIP3   OH236669   0.994   2.622   8.242 -0.2173 -0.4720  0.0135
 5037TIP3    H136670   0.997   2.695   8.303 -1.0091 -0.9743  0.6677
 5037TIP3    H236671   0.978   2.545   8.297  0.4393 -1.1204 -0.6780
 5038TIP3   OH236672   1.692   4.978   1.704 -0.2054  1.0357 -0.5696
 5038TIP3    H136673   1.627   4.987   1.774  0.7007 -0.8865  0.6082
 5038TIP3    H236674   1.759   4.920   1.741  0.5840  0.4056 -2.8400
 5039TIP3   OH236675   4.857   4.926   0.861 -0.0505  0.2743  0.0728
 5039TIP3    H136676   4.804   4.858   0.902  1.7235 -1.0619  0.3216
 5039TIP3    H236677   4.919   4.878   0.806 -0.6868  1.8929 -2.2160
 5040TIP3   OH236678   1.019   1.655   0.716 -0.2451 -0.2039  0.3031
 5040TIP3    H136679   0.926   1.633   0.713  0.4697 -3.8293 -1.2507
 5040TIP3    H236680   1.037   1.670   0.809 -2.1715 -0.5048  0.7679
 5041TIP3   OH236681   6.419   1.847   1.570 -0.5808 -0.2119  0.1789
 5041TIP3    H136682   6.426   1.819   1.661 -2.0741  0.3367  0.4822
 5041TIP3    H236683   6.327   1.835   1.547 -0.6295  1.4048 -0.6583
 5042TIP3   OH236684   3.254   5.498   8.111 -0.0774  0.2959  0.9095
 5042TIP3    H136685   3.265   5.551   8.032  1.5223  0.0635  0.9330
 5042TIP3    H236686   3.341   5.461   8.126 -1.1006 -2.3003  0.9236
 5043TIP3   OH236687   1.730   2.473   7.592 -0.3331 -0.3427  0.1815
 5043TIP3    H136688   1.795   2.444   7.657  0.8970  1.9700  0.0871
 5043TIP3    H236689   1.657   2.505   7.643  1.5660  3.6966  0.7610
 5044TIP3   OH236690   0.700   6.683   2.042 -0.1278 -0.2725 -0.6510
 5044TIP3    H136691   0.782   6.635   2.049  0.6335  1.0647 -0.0198
 5044TIP3    H236692   0.726   6.772   2.017 -1.0027  1.2236  3.1185
 5045TIP3   OH236693   0.268   2.709   0.389  0.3783  0.0676  0.8149
 5045TIP3    H136694   0.244   2.683   0.300  1.3387  1.5159  0.0934
 5045TIP3    H236695   0.362   2.692   0.394  0.0780 -1.4409  2.1093
 5046TIP3   OH236696   5.355   2.786   2.828  0.2857 -0.0286 -0.0203
 5046TIP3    H136697   5.367   2.755   2.918 -0.2177 -2.0230 -0.6044
 5046TIP3    H236698   5.317   2.712   2.781  2.2529  0.3010 -2.3383
 5047TIP3   OH236699   6.842   5.462   8.234  0.2546  0.2864 -0.4959
 5047TIP3    H136700   6.889   5.423   8.161  0.1080 -1.0008  0.0705
 5047TIP3    H236701   6.863   5.406   8.309  0.1894  1.4169  0.3998
 5048TIP3   OH236702   0.004   1.152   6.861  0.0007  0.8371  0.2317
 5048TIP3    H136703   0.036   1.241   6.876 -1.2249  1.6047 -1.3131
 5048TIP3    H236704  -0.021   1.151   6.768 -0.2833 -1.0396  0.2789
 5049TIP3   OH236705   0.500   3.373   7.534 -0.2491 -0.1659 -0.4048
 5049TIP3    H136706   0.427   3.315   7.558 -1.0983  0.3106 -1.7165
 5049TIP3    H236707   0.511   3.360   7.440  1.6758 -0.5492 -0.1656
 5050TIP3   OH236708   4.634   0.236   0.956  0.7009 -0.2784  0.2072
 5050TIP3    H136709   4.609   0.287   1.033  0.3554  0.1522 -0.1901
 5050TIP3    H236710   4.716   0.276   0.926  1.3452 -1.0374  0.8956
 5051TIP3   OH236711   0.871   3.156   0.653  0.0884 -0.3580 -0.4391
 5051TIP3    H136712   0.896   3.068   0.625  0.8512 -0.6105  0.9459
 5051TIP3    H236713   0.865   3.150   0.749  1.4955  1.4065 -0.1884
 5052TIP3   OH236714   6.232   2.928   7.546  0.4759 -0.0373  0.1817
 5052TIP3    H136715   6.306   2.890   7.500  0.0305  0.3298 -0.8631
 5052TIP3    H236716   6.231   3.020   7.520  0.9349  0.4935  1.8980
 5053TIP3   OH236717   1.975   6.348   1.661  0.3119  0.0364  0.5581
 5053TIP3    H136718   2.014   6.398   1.589 -2.6781  2.0863  0.1801
 5053TIP3    H236719   2.047   6.333   1.721  2.4995  0.0260 -1.8760
 5054TIP3   OH236720   5.829   4.084   2.185  0.5808 -0.7475  0.0487
 5054TIP3    H136721   5.843   4.111   2.276  0.0362 -1.8197  0.4606
 5054TIP3    H236722   5.821   3.989   2.188 -0.6662 -0.7096 -0.9563
 5055TIP3   OH236723   0.566   4.052   2.176  0.5163 -0.6121 -0.0438
 5055TIP3    H136724   0.530   4.020   2.093 -0.1910  0.6636 -0.2455
 5055TIP3    H236725   0.641   4.105   2.151 -1.2302  1.9972 -0.1463
 5056TIP3   OH236726   4.137   0.563   1.903 -0.5577  0.7803 -0.2617
 5056TIP3    H136727   4.220   0.610   1.892 -0.0186 -0.4147 -1.5324
 5056TIP3    H236728   4.120   0.523   1.818 -2.5214  1.0871 -0.0758
 5057TIP3   OH236729   3.776   3.050   7.905 -0.2734 -0.4981 -0.1141
 5057TIP3    H136730   3.852   2.991   7.899 -0.0057 -0.4375  2.0742
 5057TIP3    H236731   3.800   3.114   7.971 -0.9361  1.5842 -1.7794
 5058TIP3   OH236732   1.852   2.899   8.476 -0.2523  0.4450 -0.3101
 5058TIP3    H136733   1.835   2.850   8.556  0.3059 -1.6379 -1.3757
 5058TIP3    H236734   1.942   2.876   8.452 -1.1314 -0.8748 -2.7106
 5059TIP3   OH236735   2.006   4.390   8.271  0.2938  0.0237 -0.2729
 5059TIP3    H136736   1.977   4.400   8.181  0.8552 -1.0532 -0.5844
 5059TIP3    H236737   2.015   4.296   8.284 -0.1858  0.1287  1.0446
 5060TIP3   OH236738   1.173   2.795   7.162 -0.0775 -0.2993  0.2588
 5060TIP3    H136739   1.193   2.789   7.068  0.8528  0.1953  0.4131
 5060TIP3    H236740   1.254   2.766   7.205 -1.0663 -2.2420  0.9251
 5061TIP3   OH236741   5.349   4.313   8.365 -0.0568 -0.2015  0.3104
 5061TIP3    H136742   5.267   4.351   8.396  0.8228 -0.4685  3.1946
 5061TIP3    H236743   5.383   4.378   8.303 -2.8714 -0.5719 -1.8183
 5062TIP3   OH236744   4.133   2.027   8.013  0.4048  0.2842  0.3710
 5062TIP3    H136745   4.150   2.026   7.919  0.7127  0.6902  0.4193
 5062TIP3    H236746   4.041   2.004   8.021  0.5453 -0.4489  0.0096
 5063TIP3   OH236747   5.748   0.275   8.133 -0.1655  0.7345  0.2501
 5063TIP3    H136748   5.827   0.231   8.102 -0.0635  0.9092  0.2668
 5063TIP3    H236749   5.762   0.285   8.227  0.1282  1.4651  0.1311
 5064TIP3   OH236750   1.323   2.170   8.575 -0.5641 -0.2429  0.0029
 5064TIP3    H136751   1.238   2.214   8.581 -0.0174  0.8584 -0.1565
 5064TIP3    H236752   1.382   2.225   8.626 -0.0626 -1.3322  0.6349
 5065TIP3   OH236753   5.613   6.442   3.365 -0.4457  0.1328  0.4893
 5065TIP3    H136754   5.540   6.388   3.394  1.2826 -1.7885  1.5110
 5065TIP3    H236755   5.677   6.380   3.330 -0.2910  1.9319 -2.8700
 5066TIP3   OH236756   4.671   0.681   0.924  0.0725 -0.1229 -0.3808
 5066TIP3    H136757   4.732   0.755   0.922 -1.2458  1.1022  1.2748
 5066TIP3    H236758   4.711   0.619   0.985  0.2471  0.1461 -0.2175
 5067TIP3   OH236759   0.318   1.761   1.283  0.0946 -0.0509  0.0120
 5067TIP3    H136760   0.296   1.670   1.262 -1.3659  0.1160  0.6891
 5067TIP3    H236761   0.413   1.764   1.279  0.1373 -1.4638 -0.6185
 5068TIP3   OH236762   1.124   1.369   2.125 -0.2918  0.2550 -0.2485
 5068TIP3    H136763   1.031   1.351   2.135 -0.1665 -0.7038 -0.6778
 5068TIP3    H236764   1.165   1.282   2.122  0.7992  0.6504  1.5313
 5069TIP3   OH236765   0.509   0.939   2.447 -0.2688 -0.6091 -0.3469
 5069TIP3    H136766   0.456   0.879   2.500  0.0714 -0.8486 -0.2760
 5069TIP3    H236767   0.587   0.955   2.500 -1.2461  1.5167  0.5618
 5070TIP3   OH236768   1.173   4.376   0.886 -0.3243  0.1432 -0.1912
 5070TIP3    H136769   1.222   4.293   0.881 -0.3188  0.1546 -0.3230
 5070TIP3    H236770   1.192   4.420   0.804 -0.4234  0.2234 -0.1711
 5071TIP3   OH236771   3.532   2.460   1.230 -0.6080 -0.1530  0.0251
 5071TIP3    H136772   3.487   2.404   1.293  1.8992 -0.6611  1.4563
 5071TIP3    H236773   3.623   2.461   1.258 -0.1569  3.0523 -1.1218
 5072TIP3   OH236774   4.631   2.227   0.689  0.1991 -0.2704  0.0188
 5072TIP3    H136775   4.559   2.287   0.669  0.6372  0.5771  0.9277
 5072TIP3    H236776   4.600   2.176   0.764 -0.5558 -1.9010 -1.3249
 5073TIP3   OH236777   6.134   2.718   2.092  0.2968  0.3564 -0.5682
 5073TIP3    H136778   6.223   2.745   2.070  0.5090  0.6064  0.5475
 5073TIP3    H236779   6.146   2.638   2.143 -0.2963 -1.8025 -3.5507
 5074TIP3   OH236780   5.300   3.099   1.985  0.1637 -0.4577 -0.2418
 5074TIP3    H136781   5.316   3.069   1.896  2.7752  0.2318 -0.0930
 5074TIP3    H236782   5.255   3.026   2.028 -0.1884 -1.2007 -1.8212
 5075TIP3   OH236783   6.726   4.729   8.311 -0.0603 -0.0386  0.1130
 5075TIP3    H136784   6.796   4.780   8.352 -0.2936  1.1522 -0.8814
 5075TIP3    H236785   6.670   4.795   8.269 -0.9764 -1.0593 -0.3340
 5076TIP3   OH236786   2.228   3.400   2.260 -0.1794 -0.9608 -0.0176
 5076TIP3    H136787   2.197   3.484   2.294  2.7272 -0.0847  0.7773
 5076TIP3    H236788   2.321   3.413   2.244  0.7202 -4.3954  1.4071
 5077TIP3   OH236789   0.216   3.135   0.298 -0.4762 -0.3887 -0.5977
 5077TIP3    H136790   0.144   3.072   0.284 -0.9916  0.1831 -0.5597
 5077TIP3    H236791   0.172   3.215   0.327  0.2431 -0.2838  0.2503
 5078TIP3   OH236792   6.731   4.255   6.961  0.4697 -0.1845 -0.0331
 5078TIP3    H136793   6.680   4.186   7.004  2.0949 -0.6220  1.2779
 5078TIP3    H236794   6.744   4.222   6.871  1.3969 -1.7262  0.6200
 5079TIP3   OH236795   3.026   2.363   0.574 -0.1839 -0.2196 -0.5415
 5079TIP3    H136796   2.992   2.430   0.514 -0.7047 -2.0586 -2.3968
 5079TIP3    H236797   3.113   2.343   0.541  0.0547 -0.3367  0.1308
 5080TIP3   OH236798   4.830   4.984   1.576  0.0861  0.1044  0.0929
 5080TIP3    H136799   4.909   4.967   1.627  1.4355  1.4252 -1.4365
 5080TIP3    H236800   4.846   4.942   1.492 -2.8739 -3.7016  1.1299
 5081TIP3   OH236801   3.186   5.313   1.298  0.4820  0.7654 -0.1709
 5081TIP3    H136802   3.099   5.350   1.283 -0.3003  0.1603  2.4064
 5081TIP3    H236803   3.185   5.228   1.254 -0.3781  0.6092  0.1367
 5082TIP3   OH236804   1.248   2.633   2.927  0.2080 -0.0629 -0.3527
 5082TIP3    H136805   1.294   2.693   2.986  0.4326 -0.0156 -0.5759
 5082TIP3    H236806   1.160   2.670   2.919  1.3963  2.5099 -3.6267
 5083TIP3   OH236807   0.846   0.732   0.833 -0.0221  1.0711  0.2164
 5083TIP3    H136808   0.773   0.718   0.773 -0.9064  2.3693  0.9555
 5083TIP3    H236809   0.924   0.711   0.781 -0.9266 -1.2665 -0.3084
 5084TIP3   OH236810   4.763   3.902   0.591 -0.2164  0.1870 -0.2373
 5084TIP3    H136811   4.676   3.927   0.561  0.0088  1.5566  0.1681
 5084TIP3    H236812   4.769   3.937   0.680 -0.0190 -1.7627  0.5522
 5085TIP3   OH236813   6.431   0.615   7.532  0.3645  0.1436 -0.6647
 5085TIP3    H136814   6.408   0.691   7.479  1.5602  0.5394 -0.6511
 5085TIP3    H236815   6.478   0.652   7.607 -1.1083 -0.4142  0.6012
 5086TIP3   OH236816   6.240   5.376   7.651 -0.3337 -0.2596 -0.4988
 5086TIP3    H136817   6.318   5.346   7.604 -0.3179 -1.6791  0.3739
 5086TIP3    H236818   6.167   5.342   7.600 -0.3280 -1.0166 -0.0212
 5087TIP3   OH236819   4.018   3.660   0.916 -0.1878 -0.1539  0.1247
 5087TIP3    H136820   4.002   3.725   0.984 -3.9094  0.4396 -1.0946
 5087TIP3    H236821   3.974   3.581   0.948  1.7361 -1.2364  0.2474
 5088TIP3   OH236822   2.809   3.373   2.299  0.4826 -0.0704  0.0804
 5088TIP3    H136823   2.755   3.359   2.220 -0.0461  0.1255  0.4042
 5088TIP3    H236824   2.890   3.326   2.280  1.0545  1.4039 -1.2987
 5089TIP3   OH236825   6.503   3.241   2.548 -0.1908 -0.5130 -0.6613
 5089TIP3    H136826   6.419   3.256   2.505 -0.6414  0.3795  0.4512
 5089TIP3    H236827   6.479   3.221   2.639  0.8220  1.0167 -0.0207
 5090TIP3   OH236828   2.284   2.380   8.505  0.4348  0.2661  0.3738
 5090TIP3    H136829   2.276   2.475   8.519  1.2199  0.2672  0.8735
 5090TIP3    H236830   2.377   2.362   8.518  0.3257 -0.5464  0.0651
 5091TIP3   OH236831   5.792   2.392   7.684 -0.4982  0.3074 -0.1013
 5091TIP3    H136832   5.731   2.331   7.642 -0.5625 -0.2637  0.8002
 5091TIP3    H236833   5.763   2.478   7.656  1.2242 -0.0960 -3.6510
 5092TIP3   OH236834   6.194   4.895   1.297 -0.1891  0.4223 -0.4134
 5092TIP3    H136835   6.171   4.988   1.299 -1.5154  0.1474 -1.2131
 5092TIP3    H236836   6.183   4.866   1.387 -1.0330  0.7680 -0.3937
 5093TIP3   OH236837   5.287   1.070   0.851  0.0909  0.0204 -0.4275
 5093TIP3    H136838   5.330   1.005   0.906  0.4135  0.8102  0.2885
 5093TIP3    H236839   5.217   1.022   0.807 -0.4030 -0.5918  0.9477
 5094TIP3   OH236840   0.218   2.686   0.121  0.0871 -0.3859  0.1432
 5094TIP3    H136841   0.162   2.739   0.064  0.6792  0.3621  0.2372
 5094TIP3    H236842   0.287   2.653   0.063 -0.9071 -2.0523 -0.1666
 5095TIP3   OH236843   2.610   3.105   7.695  0.2803  0.1880 -0.0795
 5095TIP3    H136844   2.598   3.101   7.790  0.2829 -0.0747 -0.0907
 5095TIP3    H236845   2.705   3.093   7.683  0.0556 -1.6122 -0.2207
 5096TIP3   OH236846   4.792   3.098   8.304  0.0480 -0.1186  0.6440
 5096TIP3    H136847   4.776   3.010   8.338  0.8967 -0.8626 -0.8093
 5096TIP3    H236848   4.828   3.084   8.217  1.2070  1.6452  0.7923
 5097TIP3   OH236849   4.795   5.486   1.645  0.1633 -0.2275 -0.0410
 5097TIP3    H136850   4.828   5.422   1.582 -1.1526  0.1428 -1.1322
 5097TIP3    H236851   4.701   5.488   1.631 -0.0684  0.4386  1.4221
 5098TIP3   OH236852   4.040   2.564   1.366 -0.1723  0.1205  0.2696
 5098TIP3    H136853   4.018   2.539   1.456 -3.0148  0.0312 -0.3289
 5098TIP3    H236854   4.019   2.658   1.362  0.6063  0.2851 -0.1356
 5099TIP3   OH236855   4.384   5.054   8.528  0.3583  0.4702 -0.4257
 5099TIP3    H136856   4.346   5.116   8.465 -0.2344  3.1462  2.3163
 5099TIP3    H236857   4.312   4.996   8.552 -0.2450  1.3344 -0.0881
 5100TIP3   OH236858   5.543   4.257   8.638 -0.1290 -0.3919 -0.4795
 5100TIP3    H136859   5.629   4.287   8.668  0.0026  0.2696 -1.5016
 5100TIP3    H236860   5.497   4.337   8.613 -1.8820 -0.4604  2.0606
 5101TIP3   OH236861   3.744   1.727   6.615  0.1533  0.3968 -0.8242
 5101TIP3    H136862   3.766   1.770   6.533 -0.6381  1.6711 -0.4150
 5101TIP3    H236863   3.809   1.759   6.678 -0.8232  1.5754 -0.3674
 5102TIP3   OH236864   2.274   3.741   7.602 -0.3683  0.2851 -0.1171
 5102TIP3    H136865   2.343   3.684   7.569 -1.4271 -0.5141 -1.0311
 5102TIP3    H236866   2.194   3.689   7.595 -1.0996  1.2277  0.7953
 5103TIP3   OH236867   0.105   0.037   8.049 -0.4472 -0.7622 -0.3209
 5103TIP3    H136868   0.015   0.047   8.017 -0.4372  0.0853 -0.1193
 5103TIP3    H236869   0.105  -0.046   8.095 -0.8015 -1.3775 -1.3838
 5104TIP3   OH236870   3.376   1.964   2.555  0.1332  0.9851  0.2632
 5104TIP3    H136871   3.441   2.023   2.593  0.4113 -0.1884  1.7188
 5104TIP3    H236872   3.300   1.972   2.612  0.0262  0.2865  0.2317
 5105TIP3   OH236873   4.350   0.940   2.001  0.3576  0.4621 -0.1029
 5105TIP3    H136874   4.382   0.850   2.000 -0.3101  0.2208 -0.7294
 5105TIP3    H236875   4.427   0.994   2.019  0.8388 -0.2003 -0.1705
 5106TIP3   OH236876   1.234   6.124   7.791  0.0003 -0.3029  0.4300
 5106TIP3    H136877   1.161   6.065   7.806  0.4507 -0.7108  1.0933
 5106TIP3    H236878   1.279   6.089   7.714 -0.2719 -0.2736  0.2560
 5107TIP3   OH236879   3.851   5.633   7.375  0.6525  0.2499 -0.2146
 5107TIP3    H136880   3.894   5.617   7.459 -1.1502 -1.5643  0.4599
 5107TIP3    H236881   3.765   5.668   7.399  0.7092  1.2436 -1.3918
 5108TIP3   OH236882   2.824   0.678   1.173 -0.6532 -0.0168 -0.0990
 5108TIP3    H136883   2.883   0.747   1.204  1.2380 -1.1267 -0.9915
 5108TIP3    H236884   2.793   0.708   1.088 -0.4586  0.1031 -0.1287
 5109TIP3   OH236885   5.170   3.312   0.123  0.1182 -0.5845 -0.1412
 5109TIP3    H136886   5.117   3.275   0.194  1.4403 -0.0415  1.1962
 5109TIP3    H236887   5.110   3.368   0.075 -0.9656 -1.4311  0.1680
 5110TIP3   OH236888   6.382   1.951   8.448  0.6151 -0.5682 -0.2901
 5110TIP3    H136889   6.470   1.968   8.480  0.6141 -1.5263  0.2383
 5110TIP3    H236890   6.325   1.965   8.524  0.2672  0.3559 -0.7048
 5111TIP3   OH236891   3.777   4.644   7.560 -0.6443  0.3215  0.2237
 5111TIP3    H136892   3.863   4.648   7.518 -0.2229  2.5265  1.1803
 5111TIP3    H236893   3.750   4.735   7.569 -1.4115 -0.1080  3.3051
 5112TIP3   OH236894   4.019   4.193   0.615  0.0761  0.0532  0.1308
 5112TIP3    H136895   3.933   4.158   0.638  0.0354 -0.0888 -0.2350
 5112TIP3    H236896   4.049   4.236   0.695  0.4236 -1.3967  0.8198
 5113TIP3   OH236897   3.535   5.446   3.144 -0.2096  0.3104  0.3574
 5113TIP3    H136898   3.628   5.456   3.165 -0.2153 -0.0597  0.5722
 5113TIP3    H236899   3.505   5.535   3.126  0.7676  0.1935 -2.2090
 5114TIP3   OH236900   2.771   6.857   2.998  0.4178 -0.4116 -0.2044
 5114TIP3    H136901   2.835   6.872   2.928 -0.7381  1.2584 -0.9916
 5114TIP3    H236902   2.766   6.941   3.043  0.4091 -1.1802  1.2735
 5115TIP3   OH236903   0.571   0.043   1.813 -0.1140 -0.1528  0.8445
 5115TIP3    H136904   0.517   0.071   1.887 -1.6654  2.8331 -1.2305
 5115TIP3    H236905   0.510  -0.001   1.754  0.3098  0.5957 -0.1898
 5116TIP3   OH236906   4.541   2.702   2.774  0.4662 -0.5157  0.4766
 5116TIP3    H136907   4.473   2.635   2.786 -1.2357  0.8541 -0.8849
 5116TIP3    H236908   4.559   2.734   2.862  0.4057 -1.8813  1.0072
 5117TIP3   OH236909   3.535   5.378   2.708  0.7588  0.4579  0.0880
 5117TIP3    H136910   3.622   5.340   2.722  0.1530 -1.0985 -0.1680
 5117TIP3    H236911   3.551   5.453   2.649  1.8706 -0.0739 -0.3178
 5118TIP3   OH236912   0.904   0.459   2.004 -0.4591  0.2132  0.0905
 5118TIP3    H136913   0.947   0.545   1.995  0.1006 -0.0397  0.2707
 5118TIP3    H236914   0.960   0.400   1.953 -0.4278 -0.1821  0.5836
 5119TIP3   OH236915   0.495   0.374   8.645  0.0833  0.2700  0.7558
 5119TIP3    H136916   0.507   0.370   8.550  2.6837  0.4312  1.0017
 5119TIP3    H236917   0.442   0.297   8.666 -3.2408  1.8622 -1.0797
 5120TIP3   OH236918   1.295   5.074   0.343 -0.0095  0.1703 -0.3482
 5120TIP3    H136919   1.295   5.015   0.419  2.4425 -2.7571 -2.3783
 5120TIP3    H236920   1.370   5.131   0.358  0.1818 -0.0813 -0.3410
 5121TIP3   OH236921   1.925   5.305   2.865  0.5230 -0.5771  0.0146
 5121TIP3    H136922   1.840   5.301   2.910  1.4587 -1.6438  1.8028
 5121TIP3    H236923   1.990   5.301   2.935  2.0857 -1.9345 -1.4055
 5122TIP3   OH236924   0.099   3.092   8.631 -0.2025  0.1765 -0.5648
 5122TIP3    H136925   0.176   3.038   8.650 -1.5939 -2.4885 -1.9376
 5122TIP3    H236926   0.036   3.069   8.699 -0.8182  0.0263 -1.1699
 5123TIP3   OH236927   3.076   3.919   1.648 -0.1872  0.0414 -0.3658
 5123TIP3    H136928   3.083   3.866   1.568  0.6708 -0.7877  0.2325
 5123TIP3    H236929   3.166   3.926   1.680 -0.7176 -1.5697  1.7218
 5124TIP3   OH236930   6.635   4.936   2.388 -0.2387 -0.0727  0.3223
 5124TIP3    H136931   6.704   4.896   2.335 -1.5749 -0.0854 -1.4851
 5124TIP3    H236932   6.598   4.862   2.437 -0.5079 -0.4815 -0.4815
 5125TIP3   OH236933   3.725   4.904   7.569  0.2206 -0.0512 -0.3671
 5125TIP3    H136934   3.660   4.973   7.574 -0.4699 -0.6969 -0.1758
 5125TIP3    H236935   3.792   4.928   7.633  0.2722  0.7108 -0.7021
 5126TIP3   OH236936   1.061   4.962   1.871 -0.1510  0.2214 -0.7640
 5126TIP3    H136937   1.007   5.040   1.857 -1.1040 -0.1420  0.7895
 5126TIP3    H236938   1.106   4.979   1.953  2.0068  0.4178 -1.8983
 5127TIP3   OH236939   2.994   0.823   8.563 -0.2517  0.3445  0.1990
 5127TIP3    H136940   2.995   0.872   8.480  0.0160 -2.7730 -1.8197
 5127TIP3    H236941   2.901   0.806   8.580 -0.3423  1.4381  0.8818
 5128TIP3   OH236942   3.128   4.228   8.483  0.3338  0.8090  0.2316
 5128TIP3    H136943   3.067   4.239   8.555  0.7557  1.8191  0.4484
 5128TIP3    H236944   3.078   4.251   8.405 -0.0881 -0.1716  0.1974
 5129TIP3   OH236945   6.304   0.924   2.579 -0.2508 -0.1909  0.0646
 5129TIP3    H136946   6.252   0.882   2.647 -0.9822  1.5571  0.6552
 5129TIP3    H236947   6.245   0.930   2.504 -0.4023  0.4024  0.2246
 5130TIP3   OH236948   0.547   5.145   0.918 -0.6249 -0.0339  0.2132
 5130TIP3    H136949   0.636   5.167   0.890 -0.2923  0.9008  1.8417
 5130TIP3    H236950   0.523   5.216   0.978 -2.7928  0.1670 -0.7827
 5131TIP3   OH236951   4.667   6.363   2.484 -0.5682 -0.1291  0.3831
 5131TIP3    H136952   4.737   6.368   2.418 -0.6307 -2.4059  0.0510
 5131TIP3    H236953   4.624   6.279   2.466 -3.5515  1.2627  0.4427
 5132TIP3   OH236954   2.477   4.678   7.907 -0.3653  0.3882 -0.4959
 5132TIP3    H136955   2.409   4.727   7.953 -2.4628 -0.7300 -2.2376
 5132TIP3    H236956   2.492   4.728   7.826  0.9799  0.6561 -0.1091
 5133TIP3   OH236957   1.928   4.111   1.215 -0.1013  0.1926  0.1898
 5133TIP3    H136958   1.898   4.131   1.126  0.5014  0.2669  0.0018
 5133TIP3    H236959   1.986   4.183   1.238 -0.2570  0.1755  0.6489
 5134TIP3   OH236960   2.650   4.625   2.219 -0.3546  0.4174  0.6916
 5134TIP3    H136961   2.600   4.695   2.261  0.4417  0.0708  2.2766
 5134TIP3    H236962   2.718   4.671   2.169 -1.0668  0.8231  0.0770
 5135TIP3   OH236963   5.711   5.241   1.577 -0.4500 -0.4643 -0.1368
 5135TIP3    H136964   5.649   5.221   1.507 -1.1071  2.2507 -0.4317
 5135TIP3    H236965   5.755   5.321   1.547  0.1488  0.0423  1.9815
 5136TIP3   OH236966   6.398   3.773   2.116 -0.3129 -0.7469  0.1367
 5136TIP3    H136967   6.383   3.697   2.060 -1.0731 -1.0131  0.6745
 5136TIP3    H236968   6.320   3.827   2.105 -0.2409 -0.5536  0.5443
 5137TIP3   OH236969   3.442   0.029   1.967 -0.4433  0.6594 -0.1919
 5137TIP3    H136970   3.418   0.122   1.970 -0.9757  0.5002  0.5079
 5137TIP3    H236971   3.377  -0.015   2.021  0.4332  0.0047  0.3522
 5138TIP3   OH236972   3.117   4.999   3.005 -0.2275  0.4019  0.2518
 5138TIP3    H136973   3.111   4.967   3.095  1.6857 -1.0940 -0.0711
 5138TIP3    H236974   3.047   4.953   2.959 -1.0575  0.9874  0.9088
 5139TIP3   OH236975   3.971   4.348   8.259 -0.4007 -0.2806 -0.1233
 5139TIP3    H136976   4.002   4.438   8.250 -1.1225 -0.0071  0.0534
 5139TIP3    H236977   4.050   4.294   8.250  0.2383  0.4184  1.1021
 5140TIP3   OH236978   6.362   0.407   0.870 -0.0833 -0.2758 -0.5731
 5140TIP3    H136979   6.379   0.499   0.847 -0.4186  0.2700  1.1905
 5140TIP3    H236980   6.279   0.387   0.827 -0.0318  0.2614 -0.9390
 5141TIP3   OH236981   0.088   1.507   1.873 -0.6957  0.1856  0.3260
 5141TIP3    H136982   0.059   1.435   1.817 -1.0088 -0.4512  1.2861
 5141TIP3    H236983   0.099   1.467   1.959  0.4072  1.0058  0.5896
 5142TIP3   OH236984   1.797   4.903   8.254 -0.5054  0.5603  0.2758
 5142TIP3    H136985   1.748   4.984   8.241 -0.7578  0.4752  0.6916
 5142TIP3    H236986   1.874   4.929   8.304  0.2163  0.8033 -0.9079
 5143TIP3   OH236987   1.797   2.907   0.079  0.1550  0.3588  0.0639
 5143TIP3    H136988   1.816   2.887   0.171 -0.9947  1.7446  0.6501
 5143TIP3    H236989   1.701   2.907   0.074  0.0539  3.5353 -0.2956
 5144TIP3   OH236990   2.688   3.583   8.152  0.0169 -0.0171  0.0542
 5144TIP3    H136991   2.770   3.632   8.162  1.1010 -1.9440  1.1045
 5144TIP3    H236992   2.664   3.596   8.060  1.5100  0.5864 -0.2855
 5145TIP3   OH236993   2.145   2.006   7.783  0.0594 -0.0349  0.3955
 5145TIP3    H136994   2.220   1.973   7.832  0.5535  1.4124  0.6406
 5145TIP3    H236995   2.163   2.099   7.770 -1.5414  0.2750  0.1699
 5146TIP3   OH236996   3.618   5.055   0.266  0.3680  0.5964 -0.0592
 5146TIP3    H136997   3.686   5.118   0.242 -1.3775  2.0039 -1.6802
 5146TIP3    H236998   3.536   5.103   0.253 -1.0155 -1.6885 -0.3012
 5147TIP3   OH236999   5.135   4.158   7.974  0.1601 -0.1135 -0.1234
 5147TIP3    H137000   5.071   4.137   7.907  0.1190 -1.1002  0.2130
 5147TIP3    H237001   5.126   4.253   7.987 -0.4468 -0.0649 -0.8661
 5148TIP3   OH237002   0.031   6.026   1.399  0.5879 -0.1121 -0.8366
 5148TIP3    H137003   0.037   6.085   1.474  1.2250 -0.4547 -0.6014
 5148TIP3    H237004   0.035   6.083   1.323 -2.2574  0.4548 -0.6729
 5149TIP3   OH237005   5.518   5.728   0.409  0.2283 -0.1963 -0.2183
 5149TIP3    H137006   5.430   5.758   0.435 -0.4307  0.1731 -2.6138
 5149TIP3    H237007   5.569   5.808   0.399  1.5088 -0.4708  2.9760
 5150TIP3   OH237008   0.921   6.168   8.039 -0.3546 -0.4886 -0.3133
 5150TIP3    H137009   0.903   6.184   7.946  0.5116  1.1976 -0.2123
 5150TIP3    H237010   0.851   6.214   8.085  0.3723  0.3998 -0.0871
 5151TIP3   OH237011   1.975   5.520   7.602  0.0250  0.0782 -0.1965
 5151TIP3    H137012   1.935   5.533   7.687  1.1853 -1.5750  0.6644
 5151TIP3    H237013   1.903   5.499   7.544 -0.5663 -0.9640  0.8832
 5152TIP3   OH237014   2.871   4.553   2.387 -0.2051 -0.4916  0.2245
 5152TIP3    H137015   2.793   4.566   2.333 -0.2481  0.9766  0.6093
 5152TIP3    H237016   2.894   4.641   2.418  2.3404 -0.6716 -0.8883
 5153TIP3   OH237017   2.202   3.535   7.160 -0.4146  0.4747 -0.0900
 5153TIP3    H137018   2.185   3.629   7.150 -0.1555  0.6157  0.6975
 5153TIP3    H237019   2.134   3.493   7.109 -2.6120  1.0308  2.1861
 5154TIP3   OH237020   3.164   6.841   1.363  0.5395  0.6328  0.5341
 5154TIP3    H137021   3.200   6.766   1.409  0.0831  0.6716  0.9634
 5154TIP3    H237022   3.196   6.832   1.273  0.0804 -0.3531  0.4558
 5155TIP3   OH237023   3.974   4.596   7.382 -0.7916 -0.0317 -0.2794
 5155TIP3    H137024   4.052   4.543   7.365 -1.3905 -1.2228  0.4951
 5155TIP3    H237025   3.904   4.549   7.337 -1.5902 -0.7447  1.6021
 5156TIP3   OH237026   4.853   4.266   8.640  0.7800 -0.0427  0.2390
 5156TIP3    H137027   4.910   4.194   8.668  2.4352  0.7763 -0.8871
 5156TIP3    H237028   4.913   4.335   8.613 -0.7724  1.1476 -0.3015
 5157TIP3   OH237029   6.351   4.055   1.995  0.1234  0.1932 -0.3703
 5157TIP3    H137030   6.423   4.073   2.055 -0.0826  1.5481 -0.5120
 5157TIP3    H237031   6.333   4.139   1.952  0.0533 -0.6579 -2.1019
 5158TIP3   OH237032   6.367   0.352   7.556  0.1375 -0.1332  0.0317
 5158TIP3    H137033   6.455   0.316   7.551  0.0926 -0.2000 -0.3176
 5158TIP3    H237034   6.378   0.445   7.536  0.1167 -0.1624 -0.1189
 5159TIP3   OH237035   5.391   3.390   6.495  0.0479 -0.4266  0.8022
 5159TIP3    H137036   5.354   3.434   6.571 -0.4881 -1.4682  1.1622
 5159TIP3    H237037   5.476   3.433   6.481 -0.5159  0.8059  1.0327
 5160TIP3   OH237038   3.329   0.058   1.134  0.5071 -0.8167  0.4587
 5160TIP3    H137039   3.309   0.137   1.185  0.9924  0.2192 -0.8987
 5160TIP3    H237040   3.385   0.006   1.191 -1.2261 -1.0433  2.0664
 5161TIP3   OH237041   0.321   0.889   0.748 -0.7884  0.8296  0.5728
 5161TIP3    H137042   0.265   0.954   0.706  0.9403  1.5925 -0.6563
 5161TIP3    H237043   0.276   0.806   0.733 -1.3699  1.3595 -0.8311
 5162TIP3   OH237044   1.580   5.451   7.759  0.9233  0.3182  0.1474
 5162TIP3    H137045   1.631   5.493   7.690  0.5234 -0.6932 -0.7783
 5162TIP3    H237046   1.496   5.496   7.758  1.4410  1.3763  1.0743
 5163TIP3   OH237047   3.240   5.087   1.122 -0.4076  0.0837 -0.3105
 5163TIP3    H137048   3.203   5.083   1.034 -0.5318  0.3820 -0.2735
 5163TIP3    H237049   3.284   5.003   1.134 -0.8153 -0.1560 -0.4709
 5164TIP3   OH237050   3.271   6.262   7.562  0.3431  0.1445  0.5608
 5164TIP3    H137051   3.314   6.219   7.487 -1.4712 -1.7278  0.4966
 5164TIP3    H237052   3.225   6.336   7.524 -1.4081 -1.3763 -0.4453
 5165TIP3   OH237053   5.935   1.314   0.491  0.1004 -0.0932  0.5702
 5165TIP3    H137054   6.027   1.341   0.497  0.4790 -1.5230  1.8346
 5165TIP3    H237055   5.894   1.352   0.569 -0.8319  1.9462 -0.8167
 5166TIP3   OH237056   5.259   5.881   8.506  0.4809  0.8156  0.5180
 5166TIP3    H137057   5.168   5.887   8.535 -0.1628 -1.1379 -0.8850
 5166TIP3    H237058   5.259   5.921   8.419  1.1617  1.4808  0.8088
 5167TIP3   OH237059   2.670   6.502   8.438  0.1225 -0.1793 -0.5552
 5167TIP3    H137060   2.667   6.413   8.403  0.3802  0.1742 -1.4879
 5167TIP3    H237061   2.680   6.558   8.361  0.0306  0.6536  0.0298
 5168TIP3   OH237062   4.414   0.253   0.039  0.5116  0.1807  0.1955
 5168TIP3    H137063   4.467   0.174   0.041 -0.6891 -0.6439  1.2986
 5168TIP3    H237064   4.405   0.273  -0.054  2.2119  0.0084 -0.0392
 5169TIP3   OH237065   4.871   6.369   2.696 -0.5440  0.2389 -0.1382
 5169TIP3    H137066   4.850   6.431   2.766 -1.6304 -1.3365  1.0157
 5169TIP3    H237067   4.798   6.377   2.634  0.0383  1.0934 -0.7393
 5170TIP3   OH237068   2.487   1.505   7.994 -0.1224 -0.2105 -0.3478
 5170TIP3    H137069   2.515   1.498   8.085 -1.4168 -0.7963  0.0345
 5170TIP3    H237070   2.417   1.440   7.986  0.5464 -0.7867 -2.0020
 5171TIP3   OH237071   1.225   1.023   2.581  0.4935 -0.2266 -0.2481
 5171TIP3    H137072   1.264   0.944   2.542  0.3981 -1.1451  1.3919
 5171TIP3    H237073   1.287   1.047   2.651 -0.4096  0.0244  0.4844
 5172TIP3   OH237074   1.678   5.920   0.303  0.2375  0.3532 -0.5056
 5172TIP3    H137075   1.686   5.982   0.375  2.2006 -0.3141 -0.0829
 5172TIP3    H237076   1.721   5.964   0.229 -4.0023  2.1724 -2.2120
 5173TIP3   OH237077   4.609   3.912   1.236  0.2644 -0.3991  0.1944
 5173TIP3    H137078   4.668   3.985   1.255  0.7079 -0.1186 -1.9364
 5173TIP3    H237079   4.655   3.834   1.266  0.7632  0.0075  0.4954
 5174TIP3   OH237080   3.231   0.510   7.992  0.3854  0.0508  0.4317
 5174TIP3    H137081   3.154   0.478   8.039  0.4467 -0.4164  0.2225
 5174TIP3    H237082   3.205   0.512   7.901  0.5650  0.0536  0.3794
 5175TIP3   OH237083   1.543   5.602   1.580  0.7454  0.1395  0.1917
 5175TIP3    H137084   1.586   5.687   1.588 -0.9220  0.9553  0.7883
 5175TIP3    H237085   1.495   5.607   1.497  1.9765 -0.8976 -0.6443
 5176TIP3   OH237086   4.003   1.364   1.311  0.0491 -0.5570  0.4596
 5176TIP3    H137087   3.933   1.386   1.250 -1.9600 -0.4919  2.6258
 5176TIP3    H237088   4.002   1.268   1.315  0.6434 -0.5897 -0.0982
 5177TIP3   OH237089   3.600   0.794   0.597 -0.4398 -0.0204  0.4228
 5177TIP3    H137090   3.691   0.811   0.623 -0.4324  0.7626 -0.0755
 5177TIP3    H237091   3.572   0.875   0.554 -0.6853 -0.9983 -1.3218
 5178TIP3   OH237092   4.499   6.708   0.070  0.4801  0.2288  0.3646
 5178TIP3    H137093   4.491   6.621   0.109  2.8790  0.1732  0.8870
 5178TIP3    H237094   4.466   6.767   0.137 -1.0044 -0.2355  0.0765
 5179TIP3   OH237095   3.975   1.450   0.276  0.2279  0.0755 -0.5348
 5179TIP3    H137096   3.893   1.452   0.325  1.1385  0.3826  1.0678
 5179TIP3    H237097   3.964   1.380   0.213 -0.6784 -1.0183  0.7838
 5180TIP3   OH237098   2.007   3.710   0.717 -0.2516 -0.5533 -0.2404
 5180TIP3    H137099   2.032   3.702   0.625 -1.3456 -0.7991 -0.5367
 5180TIP3    H237100   2.049   3.791   0.747 -1.1024  0.3476 -1.3925
 5181TIP3   OH237101   1.694   5.988   2.980 -0.6834 -0.2393 -0.5438
 5181TIP3    H137102   1.748   5.993   3.059 -0.1700 -0.0468 -0.9027
 5181TIP3    H237103   1.643   6.069   2.981 -0.3286 -0.0104 -0.6552
 5182TIP3   OH237104   2.491   4.241   7.998  0.2556 -0.3917 -0.0814
 5182TIP3    H137105   2.460   4.281   8.079  0.9190 -0.1512  0.0604
 5182TIP3    H237106   2.579   4.208   8.019 -0.1918 -1.7600 -0.2503
 5183TIP3   OH237107   1.826   1.065   0.770  0.2236  0.2526 -0.0606
 5183TIP3    H137108   1.792   1.043   0.857 -2.0356  1.1790 -0.6618
 5183TIP3    H237109   1.824   0.983   0.722 -0.4845  0.1409  0.1499
 5184TIP3   OH237110   5.645   1.911   0.995  0.2046  0.1192 -0.2727
 5184TIP3    H137111   5.559   1.915   1.037  0.0237  3.6993 -0.7115
 5184TIP3    H237112   5.650   1.822   0.960 -3.3133 -0.2443 -0.2188
 5185TIP3   OH237113   5.581   3.306   7.334  0.7449  0.3568  0.1247
 5185TIP3    H137114   5.600   3.336   7.244 -1.9697  1.1543 -0.2746
 5185TIP3    H237115   5.583   3.386   7.386  2.9550 -0.1844  0.9956
 5186TIP3   OH237116   2.639   3.272   2.021 -0.1239 -0.3681  0.2102
 5186TIP3    H137117   2.708   3.312   1.968  0.3445  3.4594  3.2482
 5186TIP3    H237118   2.563   3.270   1.963  0.2861  3.7736 -0.7870
 5187TIP3   OH237119   3.475   2.075   8.217  0.3146  0.2151  0.4963
 5187TIP3    H137120   3.553   2.049   8.267  0.4454  2.8579  1.8788
 5187TIP3    H237121   3.510   2.118   8.139  0.1458 -1.5496 -0.5832
 5188TIP3   OH237122   3.186   3.270   0.857  0.3194 -0.0855 -0.2671
 5188TIP3    H137123   3.179   3.238   0.947  0.3812  1.0534  0.1551
 5188TIP3    H237124   3.137   3.206   0.805  2.5964 -2.3413  0.1508
 5189TIP3   OH237125   0.062   2.144   7.473 -0.2913  0.4733  0.2468
 5189TIP3    H137126  -0.021   2.173   7.435 -1.0993 -0.1265  1.4827
 5189TIP3    H237127   0.037   2.074   7.533  1.2755 -0.6892 -0.3927
 5190TIP3   OH237128   4.895   1.682   8.169 -0.0564  0.6312 -0.1741
 5190TIP3    H137129   4.937   1.768   8.170  0.1981  0.5085  1.1098
 5190TIP3    H237130   4.862   1.671   8.258 -0.8638 -0.2331 -0.5639
 5191TIP3   OH237131   4.863   0.455   7.747 -0.6758 -0.1421 -0.0588
 5191TIP3    H137132   4.903   0.380   7.791 -2.1236 -1.2656 -0.5694
 5191TIP3    H237133   4.836   0.513   7.818  0.3275 -0.1538  0.3471
 5192TIP3   OH237134   6.167   1.692   7.755  0.3552 -0.3316  0.3602
 5192TIP3    H137135   6.118   1.732   7.683  1.4211 -0.1818 -0.2927
 5192TIP3    H237136   6.256   1.682   7.722  0.1269 -3.4290  0.4025
 5193TIP3   OH237137   5.028   3.381   1.375 -0.2418 -0.3946  0.3837
 5193TIP3    H137138   4.960   3.413   1.315 -0.1768 -2.2820 -0.7663
 5193TIP3    H237139   4.983   3.318   1.431 -0.0867  0.6649  1.7359
 5194TIP3   OH237140   4.504   1.280   1.845  0.1489  0.1604  0.0543
 5194TIP3    H137141   4.451   1.287   1.925  1.6639  0.8587  1.0470
 5194TIP3    H237142   4.493   1.365   1.802  2.5470  1.4410  1.7015
 5195TIP3   OH237143   3.403   0.004   1.586 -0.3187 -0.2036 -0.1896
 5195TIP3    H137144   3.453   0.025   1.664  0.3443 -0.4652 -0.5385
 5195TIP3    H237145   3.363   0.087   1.560 -0.5184 -0.1104  0.4049
 5196TIP3   OH237146   1.745   5.957   1.289 -0.2029 -0.4340  0.4466
 5196TIP3    H137147   1.675   5.932   1.228  2.1248 -0.3925 -2.4669
 5196TIP3    H237148   1.757   6.051   1.274  1.1837 -0.6516  0.0752
 5197TIP3   OH237149   1.507   0.833   0.699  0.0944  0.4213  0.2770
 5197TIP3    H137150   1.492   0.773   0.627  1.7726  0.0273  0.2266
 5197TIP3    H237151   1.421   0.845   0.739 -0.4895 -0.9534 -0.5317
 5198TIP3   OH237152   0.166   1.037   2.478  0.4478  0.2397  0.0434
 5198TIP3    H137153   0.181   1.120   2.522  1.3342 -0.4164  1.0342
 5198TIP3    H237154   0.082   1.048   2.433 -0.9730  0.6877  2.5983
 5199TIP3   OH237155   3.617   5.812   7.870  0.2670  0.6820  0.2099
 5199TIP3    H137156   3.634   5.834   7.961  3.9090  0.6750 -0.3273
 5199TIP3    H237157   3.616   5.896   7.824  1.8259  0.5491 -0.1349
 5200TIP3   OH237158   1.072   4.741   1.726  0.1513  0.5188  0.5119
 5200TIP3    H137159   1.059   4.828   1.764  3.1400  0.2421  2.4401
 5200TIP3    H237160   1.090   4.684   1.801 -0.2641 -1.5029 -0.8323
 5201TIP3   OH237161   1.964   2.394   7.210  0.4290  0.4370  0.2092
 5201TIP3    H137162   1.878   2.415   7.245 -0.3058  0.2765 -1.3991
 5201TIP3    H237163   1.979   2.304   7.237 -0.0685  0.3453  0.1966
 5202TIP3   OH237164   1.994   2.137   7.278  0.1444 -0.1009 -0.1469
 5202TIP3    H137165   1.994   2.133   7.374 -0.7799 -1.2873 -0.1775
 5202TIP3    H237166   2.087   2.129   7.254  0.6678  2.5749  0.6801
 5203TIP3   OH237167   2.615   5.112   8.598  0.1143  0.0696 -0.0128
 5203TIP3    H137168   2.686   5.160   8.640 -1.0542  1.9204 -0.0151
 5203TIP3    H237169   2.639   5.109   8.505  0.7855 -0.4842  0.1685
 5204TIP3   OH237170   4.283   1.251   0.361 -0.5229 -0.1299  0.6303
 5204TIP3    H137171   4.269   1.276   0.270 -0.3073 -0.4266  0.5146
 5204TIP3    H237172   4.378   1.240   0.369 -0.5832 -0.6215  0.7500
 5205TIP3   OH237173   3.284   3.801   1.991  0.0251 -0.6394 -0.1582
 5205TIP3    H137174   3.227   3.826   1.917 -0.9226  0.0471  0.7683
 5205TIP3    H237175   3.372   3.804   1.955 -0.4875 -1.3603 -1.5460
 5206TIP3   OH237176   5.213   2.632   0.148 -0.3314 -0.0259  0.4773
 5206TIP3    H137177   5.272   2.679   0.207  0.0054  0.4695 -0.2387
 5206TIP3    H237178   5.181   2.698   0.087 -1.0207 -0.4441  0.3756
 5207TIP3   OH237179   0.815   1.910   1.894 -0.5893 -0.1402  0.0043
 5207TIP3    H137180   0.788   1.948   1.978  2.7882 -0.1905  1.2762
 5207TIP3    H237181   0.758   1.951   1.830 -2.7873  0.5151  2.2126
 5208TIP3   OH237182   1.263   2.794   1.149  0.0810 -0.1525  0.7229
 5208TIP3    H137183   1.312   2.779   1.068 -0.2946 -1.5818  0.7297
 5208TIP3    H237184   1.179   2.828   1.120  0.0354 -0.4326  0.5211
 5209TIP3   OH237185   4.816   3.693   1.868 -0.0224 -0.3936  0.0881
 5209TIP3    H137186   4.855   3.690   1.780  1.2263  1.6479  0.5093
 5209TIP3    H237187   4.863   3.625   1.916 -1.7160 -2.5488 -1.1199
 5210TIP3   OH237188   2.347   5.092   7.154 -0.1884 -0.0616 -0.5927
 5210TIP3    H137189   2.440   5.114   7.146 -0.0187 -0.2859  0.6193
 5210TIP3    H237190   2.345   5.016   7.212 -1.0565 -0.7623 -1.4921
 5211TIP3   OH237191   6.337   0.138   0.350  0.1020 -0.0389  0.5115
 5211TIP3    H137192   6.423   0.100   0.333 -0.5349 -2.4806  2.1860
 5211TIP3    H237193   6.288   0.124   0.269  1.7337  3.2307 -1.2459
 5212TIP3   OH237194   5.368   0.144   8.089 -0.2833  0.3674  0.3654
 5212TIP3    H137195   5.427   0.129   8.163 -2.3332 -0.6004  1.8985
 5212TIP3    H237196   5.348   0.237   8.092  0.3999  0.5161  0.4162
 5213TIP3   OH237197   5.073   4.724   6.944 -0.1706 -0.2498  0.2318
 5213TIP3    H137198   5.164   4.718   6.915  0.5274  1.4210  1.8697
 5213TIP3    H237199   5.049   4.815   6.927 -1.0950 -0.3398  0.9828
 5214TIP3   OH237200   6.278   5.703   0.146 -0.7953 -0.2274 -0.4113
 5214TIP3    H137201   6.184   5.717   0.129 -0.8723  0.9827  0.7849
 5214TIP3    H237202   6.322   5.758   0.081 -0.9483  0.1928 -0.1614
 5215TIP3   OH237203   3.732   4.609   1.164 -0.1528 -0.2200  0.0748
 5215TIP3    H137204   3.818   4.615   1.122  0.3067 -0.4333  0.9603
 5215TIP3    H237205   3.678   4.562   1.102  0.1277  0.6748 -0.8728
 5216TIP3   OH237206   0.255   3.096   1.423 -1.0383 -0.0826 -0.0657
 5216TIP3    H137207   0.202   3.072   1.347 -0.5677 -0.9877 -0.1180
 5216TIP3    H237208   0.336   3.046   1.412 -0.7387  0.2197  0.7357
 5217TIP3   OH237209   2.659   1.175   1.366 -0.6872 -0.4916 -0.7040
 5217TIP3    H137210   2.583   1.207   1.414 -1.2651 -0.5384 -1.5726
 5217TIP3    H237211   2.733   1.225   1.403 -1.0502 -0.8106  0.4893
 5218TIP3   OH237212   6.535   5.005   8.142 -0.1531  0.0741 -0.3945
 5218TIP3    H137213   6.553   5.092   8.108  1.7939  0.4054  1.2399
 5218TIP3    H237214   6.614   4.955   8.122 -0.0095 -0.4293  1.2749
 5219TIP3   OH237215   0.037   5.943   8.452  0.2763  0.3037  0.0410
 5219TIP3    H137216  -0.011   5.992   8.520  1.4197 -1.4441  2.2517
 5219TIP3    H237217  -0.006   5.858   8.449  1.9056 -0.5796  0.5945
 5220TIP3   OH237218   0.875   3.850   0.547  0.2614 -0.1609  0.1880
 5220TIP3    H137219   0.929   3.898   0.485 -0.5196  2.5041  1.4483
 5220TIP3    H237220   0.933   3.834   0.621  0.9633 -2.6627 -0.7833
 5221TIP3   OH237221   0.119   5.373   8.026  0.4645 -0.3201  0.7457
 5221TIP3    H137222   0.183   5.327   7.972 -0.3694  1.8193 -2.2668
 5221TIP3    H237223   0.082   5.440   7.969 -0.8478  1.8604  3.8763
 5222TIP3   OH237224   2.141   6.767   8.235  0.1542 -0.6468  0.2031
 5222TIP3    H137225   2.117   6.841   8.179 -0.9288 -2.3897 -1.7522
 5222TIP3    H237226   2.089   6.780   8.315  1.1989  1.5064  0.6014
 5223TIP3   OH237227   2.378   5.750   7.279 -0.2166 -0.0156  0.0875
 5223TIP3    H137228   2.415   5.673   7.236  1.6062  1.1937 -0.6012
 5223TIP3    H237229   2.452   5.809   7.291 -1.4874  1.4580  1.0006
 5224TIP3   OH237230   0.555   5.734   1.675 -0.2469  0.5671 -0.4142
 5224TIP3    H137231   0.516   5.745   1.762  1.0735  1.6353  0.0768
 5224TIP3    H237232   0.560   5.823   1.640  1.7816  0.4983 -0.4123
 5225TIP3   OH237233   5.881   4.437   0.310  0.8134  0.1992  0.3935
 5225TIP3    H137234   5.815   4.442   0.379  2.5635 -1.0598  2.2576
 5225TIP3    H237235   5.834   4.401   0.235 -0.9490  0.7636  1.1692
 5226TIP3   OH237236   4.563   1.352   1.516 -0.1606  0.1099  0.2568
 5226TIP3    H137237   4.643   1.333   1.564 -0.1643  0.9251  0.6028
 5226TIP3    H237238   4.593   1.394   1.435 -0.2376  0.4561  0.4065
 5227TIP3   OH237239   3.677   5.794   1.402 -0.1183  0.2929  0.1095
 5227TIP3    H137240   3.675   5.751   1.488  0.4200 -1.7533 -0.8630
 5227TIP3    H237241   3.590   5.779   1.366 -0.7149  2.0706  0.6512
 5228TIP3   OH237242   3.429   0.602   7.753  0.1528 -0.2458 -0.3655
 5228TIP3    H137243   3.456   0.530   7.811 -2.0309  0.8184  2.1578
 5228TIP3    H237244   3.494   0.670   7.767  0.8289 -0.7674 -0.8675
 5229TIP3   OH237245   3.746   2.538   2.350 -0.3790 -0.1397  0.0575
 5229TIP3    H137246   3.803   2.516   2.424 -2.1280  0.7084  1.7585
 5229TIP3    H237247   3.802   2.532   2.273  1.2053 -2.4443  1.2628
 5230TIP3   OH237248   6.617   4.932   2.887  0.0057 -0.4683 -0.0234
 5230TIP3    H137249   6.709   4.913   2.909  0.6382  0.8596 -1.3458
 5230TIP3    H237250   6.603   5.020   2.921 -0.9734 -0.8591  0.6234
 5231TIP3   OH237251   1.156   5.991   1.127 -0.7334  0.1374 -0.0846
 5231TIP3    H137252   1.171   5.911   1.077  0.2694  0.6417 -0.6168
 5231TIP3    H237253   1.161   5.963   1.218 -0.2133 -0.3729 -0.2643
 5232TIP3   OH237254   5.482   2.938   0.196  0.0546  0.1960 -0.6720
 5232TIP3    H137255   5.436   2.965   0.276  1.3425  1.2722 -0.2564
 5232TIP3    H237256   5.506   2.846   0.212  0.1469  0.3499  0.1098
 5233TIP3   OH237257   2.537   2.917   0.324  0.1416 -0.3503  0.1315
 5233TIP3    H137258   2.574   2.962   0.248 -0.8188  0.2284 -0.0188
 5233TIP3    H237259   2.454   2.963   0.340  0.0605 -0.8434  1.1697
 5234TIP3   OH237260   2.361   1.598   8.594 -0.7920  0.1985 -0.2522
 5234TIP3    H137261   2.298   1.637   8.534  0.8611  0.4276 -1.9548
 5234TIP3    H237262   2.335   1.507   8.602 -1.6732  0.4290 -0.4360
 5235TIP3   OH237263   3.645   2.849   2.239 -0.4836  0.0053 -0.1160
 5235TIP3    H137264   3.592   2.823   2.314 -0.7463 -2.0195 -0.9398
 5235TIP3    H237265   3.732   2.867   2.276 -1.3378  2.0634  1.0499
 5236TIP3   OH237266   5.659   3.359   0.317 -0.4073  0.7226  0.3858
 5236TIP3    H137267   5.661   3.298   0.243  0.6529  1.3701 -0.1562
 5236TIP3    H237268   5.710   3.316   0.385 -1.5036  0.0634  0.8090
 5237TIP3   OH237269   6.279   2.021   0.030 -0.6828  0.2660 -0.1054
 5237TIP3    H137270   6.336   2.004   0.105 -3.2368 -0.8295  1.7429
 5237TIP3    H237271   6.251   2.112   0.041 -1.2421  0.0342  0.4438
 5238TIP3   OH237272   6.737   2.964   2.176 -0.2533  0.6251  0.3065
 5238TIP3    H137273   6.799   2.897   2.207  1.0990  0.7403 -1.9589
 5238TIP3    H237274   6.789   3.044   2.170 -0.2307  0.5056 -2.6131
 5239TIP3   OH237275   2.776   2.469   0.341  0.5814  0.0821  0.4766
 5239TIP3    H137276   2.717   2.480   0.416  2.0962  0.5297  1.6433
 5239TIP3    H237277   2.839   2.541   0.349  0.6438  0.2981 -1.3936
 5240TIP3   OH237278   1.574   0.463   0.679 -0.2004 -0.2925 -0.3347
 5240TIP3    H137279   1.570   0.373   0.648 -0.7434 -0.4252  0.1042
 5240TIP3    H237280   1.561   0.516   0.600  0.7593 -0.5748 -0.7012
 5241TIP3   OH237281   0.113   3.040   1.180 -0.0735  0.2347 -0.1776
 5241TIP3    H137282   0.047   3.058   1.113  0.3485  1.1202 -0.3712
 5241TIP3    H237283   0.133   2.947   1.170  0.7080  0.5512 -1.9710
 5242TIP3   OH237284   6.876   1.155   8.035  0.6022  0.0012 -0.0819
 5242TIP3    H137285   6.842   1.110   8.112  0.9298 -2.2954 -1.2013
 5242TIP3    H237286   6.959   1.193   8.064  0.7564 -0.8803  0.6922
 5243TIP3   OH237287   4.481   2.625   0.701 -0.2788 -0.7888 -0.3657
 5243TIP3    H137288   4.504   2.683   0.773 -0.9872 -1.4112  0.3877
 5243TIP3    H237289   4.563   2.582   0.677  0.2482  0.4827 -0.9176
 5244TIP3   OH237290   5.137   5.232   1.446 -0.5929  0.7083 -0.0260
 5244TIP3    H137291   5.186   5.179   1.382 -1.5961  0.5442 -0.6838
 5244TIP3    H237292   5.103   5.305   1.395 -1.0832  0.7853  0.4031
 5245TIP3   OH237293   2.710   0.117   1.969 -0.0159 -0.0737 -0.1667
 5245TIP3    H137294   2.694   0.188   2.032  0.9256 -0.0142  0.0178
 5245TIP3    H237295   2.632   0.117   1.914 -1.1106 -0.4704  1.3118
 5246TIP3   OH237296   6.776   2.454   7.860 -0.6856  0.8455  0.4952
 5246TIP3    H137297   6.732   2.539   7.852  0.3509  1.2788 -1.0021
 5246TIP3    H237298   6.861   2.474   7.899 -0.8067  0.3598  1.0188
 5247TIP3   OH237299   6.854   5.682   8.439 -0.0724  0.4566 -0.0097
 5247TIP3    H137300   6.902   5.616   8.489 -0.8182  0.2183  0.3956
 5247TIP3    H237301   6.836   5.639   8.355  2.4711  1.3607 -1.1136
 5248TIP3   OH237302   0.997   6.716   1.767 -0.5955  0.4951  0.4008
 5248TIP3    H137303   0.974   6.682   1.853 -2.2145  0.0903 -0.1573
 5248TIP3    H237304   0.917   6.706   1.715  0.4542  0.3731 -1.2581
 5249TIP3   OH237305   1.538   3.318   0.164 -0.0081  0.2238 -0.5320
 5249TIP3    H137306   1.517   3.384   0.230  0.1110 -1.3291  1.1281
 5249TIP3    H237307   1.633   3.326   0.152  0.9353 -2.6076  3.2197
 5250TIP3   OH237308   3.799   5.499   3.186  0.1425 -0.3218 -0.6675
 5250TIP3    H137309   3.822   5.503   3.093  0.4409 -0.1300 -0.5875
 5250TIP3    H237310   3.851   5.568   3.226 -0.2021 -0.2131 -0.3996
 5251TIP3   OH237311   5.716   4.465   1.097  0.2899  0.4838 -0.0525
 5251TIP3    H137312   5.771   4.522   1.151 -1.2075  2.0659 -0.0974
 5251TIP3    H237313   5.670   4.526   1.038 -0.8358 -0.8565 -0.6028
 5252TIP3   OH237314   0.054   6.250   1.243 -0.7373 -0.2093 -0.6236
 5252TIP3    H137315  -0.033   6.290   1.242 -0.8769 -0.5071 -0.8202
 5252TIP3    H237316   0.091   6.271   1.157 -0.1344  0.9354 -0.0946
 5253TIP3   OH237317   1.016   5.044   8.594  0.0473 -0.1673  0.2263
 5253TIP3    H137318   0.972   4.962   8.615  0.4252 -0.5008 -0.2677
 5253TIP3    H237319   1.078   5.057   8.666  1.7436 -1.6044 -0.8830
 5254TIP3   OH237320   3.852   2.569   7.292  0.2361 -0.3441  0.4085
 5254TIP3    H137321   3.764   2.571   7.253  0.2068 -1.2737  0.4045
 5254TIP3    H237322   3.878   2.661   7.297 -0.4822 -0.0986 -0.1728
 5255TIP3   OH237323   1.230   3.803   7.941 -0.4213  0.2236  0.0280
 5255TIP3    H137324   1.174   3.837   8.011  0.8672  1.3658  0.5467
 5255TIP3    H237325   1.240   3.875   7.879  0.0878 -0.1076 -0.2877
 5256TIP3   OH237326   3.105   2.608   8.032  0.3215  0.1595 -0.2240
 5256TIP3    H137327   3.019   2.624   7.992 -0.8465 -3.0385  0.7244
 5256TIP3    H237328   3.152   2.555   7.967  0.5782 -0.2930  0.3274
 5257TIP3   OH237329   3.507   3.639   1.314  0.4459  0.3212  0.5308
 5257TIP3    H137330   3.445   3.566   1.309  1.0778 -0.3714  2.1381
 5257TIP3    H237331   3.513   3.672   1.224 -0.5634 -1.0055 -0.0487
 5258TIP3   OH237332   3.043   2.327   7.616 -0.3913  0.6377 -0.5156
 5258TIP3    H137333   3.105   2.399   7.606  0.3582 -0.0176 -0.8021
 5258TIP3    H237334   2.974   2.346   7.553  0.3555  0.5661 -1.3881
 5259TIP3   OH237335   4.107   2.979   6.819 -0.3400 -0.0463 -0.0032
 5259TIP3    H137336   4.161   3.043   6.772 -2.2200  0.8123 -1.1218
 5259TIP3    H237337   4.097   2.907   6.757  0.2114 -0.6145  0.5452
 5260TIP3   OH237338   4.530   5.258   0.381  0.0845  0.1250 -0.0315
 5260TIP3    H137339   4.502   5.175   0.342  3.4847 -0.4368 -1.6758
 5260TIP3    H237340   4.503   5.325   0.318 -0.2012 -0.0424 -0.0867
 5261TIP3   OH237341   5.734   4.088   1.671 -0.6253 -0.4337 -0.7165
 5261TIP3    H137342   5.740   3.995   1.649 -1.3945 -0.5406 -0.5099
 5261TIP3    H237343   5.707   4.089   1.763  0.0159  0.0006 -0.5258
 5262TIP3   OH237344   3.636   0.262   8.104 -0.3284  0.1023  0.1831
 5262TIP3    H137345   3.655   0.169   8.096  1.0146  0.4227 -0.6821
 5262TIP3    H237346   3.697   0.293   8.171  0.1305  0.5829 -0.4432
 5263TIP3   OH237347   2.145   3.424   1.063  0.0036 -0.5716  0.2878
 5263TIP3    H137348   2.062   3.410   1.109 -0.2510 -1.3079 -0.3774
 5263TIP3    H237349   2.119   3.452   0.975  0.4803  1.7920  0.8215
 5264TIP3   OH237350   2.431   0.957   1.615  0.0169 -0.3869  0.2277
 5264TIP3    H137351   2.392   0.979   1.530 -1.3534 -0.1048  0.8907
 5264TIP3    H237352   2.395   0.871   1.637  0.4121 -0.4880  0.4914
 5265TIP3   OH237353   0.151   1.108   0.897 -0.4781  0.1037 -0.5118
 5265TIP3    H137354   0.105   1.115   0.814 -1.2706 -1.4858 -0.2330
 5265TIP3    H237355   0.222   1.047   0.881 -0.0986  0.4640 -0.2374
 5266TIP3   OH237356   0.900   0.727   1.395 -0.0492 -0.0040  0.3978
 5266TIP3    H137357   0.883   0.719   1.301  1.8456  2.4086 -0.2698
 5266TIP3    H237358   0.968   0.663   1.413 -0.2606 -0.3249  0.0685
 5267TIP3   OH237359   1.406   4.007   1.962  0.7887  0.4652 -0.4400
 5267TIP3    H137360   1.316   4.014   1.930  0.1755  0.5210  1.2104
 5267TIP3    H237361   1.433   3.918   1.938 -0.0463  0.1169 -0.1341
 5268TIP3   OH237362   4.219   4.564   1.326 -0.2443 -0.3616 -0.0464
 5268TIP3    H137363   4.159   4.614   1.270  0.4143  0.9276  0.3624
 5268TIP3    H237364   4.296   4.620   1.335  0.1553 -1.0669  1.1742
 5269TIP3   OH237365   6.460   6.550   0.732 -0.5070  0.2929 -0.2163
 5269TIP3    H137366   6.396   6.560   0.662  0.0329  0.7809 -0.6441
 5269TIP3    H237367   6.426   6.603   0.804 -0.7930  0.2089 -0.2879
 5270TIP3   OH237368   0.780   2.321   1.409 -0.6849  0.1572 -0.1216
 5270TIP3    H137369   0.714   2.259   1.378 -0.3348 -0.6816  0.7305
 5270TIP3    H237370   0.788   2.302   1.503  0.5383  0.4499 -0.1506
 5271TIP3   OH237371   5.006   1.443   8.057  0.0227  0.3012  0.1392
 5271TIP3    H137372   4.969   1.357   8.037 -0.8790  0.7709 -0.2621
 5271TIP3    H237373   4.942   1.484   8.116  1.5629 -0.1871  2.2944
 5272TIP3   OH237374   6.801   4.091   7.892 -0.1903  0.3777 -0.4206
 5272TIP3    H137375   6.769   4.163   7.838  0.0359  1.3824  0.7343
 5272TIP3    H237376   6.725   4.063   7.942 -0.5899 -1.0625 -1.7441
 5273TIP3   OH237377   3.144   2.805   0.204 -0.0632 -0.0385  0.0866
 5273TIP3    H137378   3.126   2.730   0.147 -0.6426  1.3583 -1.6711
 5273TIP3    H237379   3.240   2.814   0.201 -0.1729  1.4736 -2.8195
 5274TIP3   OH237380   5.527   4.714   1.399 -0.0609  0.3480 -0.1744
 5274TIP3    H137381   5.466   4.788   1.407 -0.2876  0.1025  0.4355
 5274TIP3    H237382   5.596   4.747   1.341 -0.0550  1.1103  0.2458
 5275TIP3   OH237383   5.406   4.030   1.772  0.1281  0.5710 -0.0626
 5275TIP3    H137384   5.384   4.121   1.790  0.9487  0.4322  1.8575
 5275TIP3    H237385   5.398   3.986   1.856  2.4804 -0.5578 -0.3529
 5276TIP3   OH237386   6.065   5.504   8.021  0.2804  0.3167 -0.1129
 5276TIP3    H137387   6.135   5.440   8.006  0.0743 -0.3172  1.4174
 5276TIP3    H237388   6.039   5.490   8.112  0.5247  2.8730  0.4321
 5277TIP3   OH237389   3.068   6.722   1.899 -0.0902 -0.2414 -0.1193
 5277TIP3    H137390   3.087   6.816   1.906  1.4532 -0.4206 -1.3559
 5277TIP3    H237391   3.017   6.713   1.819 -0.2925 -0.4629  0.0320
 5278TIP3   OH237392   1.797   4.897   1.445 -0.2170  0.0397 -0.0788
 5278TIP3    H137393   1.761   4.905   1.533  0.6553 -0.9216  0.3886
 5278TIP3    H237394   1.794   4.986   1.409  0.7058  0.7149  1.4420
 5279TIP3   OH237395   0.230   6.298   1.002 -0.2584 -0.0242  0.1411
 5279TIP3    H137396   0.317   6.309   1.040 -0.7413  1.3475  0.9128
 5279TIP3    H237397   0.223   6.367   0.936 -0.3517 -0.8493 -0.7363
 5280TIP3   OH237398   5.979   1.865   2.312 -0.0936  0.5955  0.3154
 5280TIP3    H137399   5.917   1.833   2.246 -0.2875 -1.4606  1.4154
 5280TIP3    H237400   5.940   1.947   2.343 -1.3233  0.2705 -0.2996
 5281TIP3   OH237401   0.962   2.290   2.850 -0.4328  0.4124  0.1963
 5281TIP3    H137402   0.920   2.325   2.771 -2.3024 -1.1352  0.4473
 5281TIP3    H237403   0.981   2.368   2.903 -2.5537  1.2242 -0.1629
 5282TIP3   OH237404   6.024   1.951   0.597 -0.0723 -0.1463  0.9848
 5282TIP3    H137405   6.060   1.949   0.508  0.5914  2.7931  1.0572
 5282TIP3    H237406   6.014   1.859   0.621  0.6455 -1.0520 -1.7449
 5283TIP3   OH237407   0.114   6.222   8.338 -0.0589  0.1873 -0.2001
 5283TIP3    H137408   0.118   6.167   8.417  1.2563 -0.7790 -0.8999
 5283TIP3    H237409   0.195   6.273   8.341 -0.8359  1.4578 -0.0370
 5284TIP3   OH237410   3.596   3.207   2.224 -0.5359 -0.0171 -0.3049
 5284TIP3    H137411   3.593   3.166   2.311  1.2501 -3.7743 -1.7691
 5284TIP3    H237412   3.672   3.266   2.229  0.2579 -1.0467  0.4392
 5285TIP3   OH237413   2.581   2.557   1.333  0.1992 -0.1638 -0.1916
 5285TIP3    H137414   2.659   2.506   1.309 -0.9742 -1.0405 -2.5245
 5285TIP3    H237415   2.555   2.599   1.251 -2.7580 -1.2990  0.0576
 5286TIP3   OH237416   4.675   1.773   1.366  0.6941  0.7132  0.2894
 5286TIP3    H137417   4.677   1.679   1.348  1.0550  0.8430 -0.3814
 5286TIP3    H237418   4.762   1.793   1.400  0.0285  0.4797  2.2054
 5287TIP3   OH237419   2.183   6.851   8.545  0.1901  0.5739 -0.0720
 5287TIP3    H137420   2.190   6.823   8.637 -1.6893  2.0453  0.5817
 5287TIP3    H237421   2.089   6.850   8.527  0.5841 -1.7871 -2.7397
 5288TIP3   OH237422   0.074   3.298   1.527  0.2140 -0.3576  0.2337
 5288TIP3    H137423   0.085   3.371   1.466 -1.9045 -0.0623  0.1325
 5288TIP3    H237424   0.154   3.246   1.517  0.2884  0.1182 -2.1861
 5289TIP3   OH237425   4.638   1.040   7.817  0.4624 -0.1077 -0.0156
 5289TIP3    H137426   4.714   1.092   7.846  1.6735 -1.8377  0.0415
 5289TIP3    H237427   4.562   1.089   7.849  1.6281  0.3777  2.2059
 5290TIP3   OH237428   2.647   2.166   2.542  0.5170  0.1754  0.2531
 5290TIP3    H137429   2.620   2.140   2.630 -0.6693 -0.5933 -0.3053
 5290TIP3    H237430   2.601   2.105   2.484 -0.9353  2.3340 -1.0384
 5291TIP3   OH237431   5.563   3.820   0.617  0.2435 -0.3917 -0.0640
 5291TIP3    H137432   5.548   3.893   0.677  1.4126 -1.2473  1.3485
 5291TIP3    H237433   5.557   3.859   0.530  0.4192  1.2993  0.6369
 5292TIP3   OH237434   0.334   3.483   0.569 -0.2934 -0.2736 -0.5095
 5292TIP3    H137435   0.362   3.393   0.590 -0.3569  0.0603  1.1026
 5292TIP3    H237436   0.411   3.522   0.528  0.1872 -0.6679 -0.0050
 5293TIP3   OH237437   5.885   0.260   1.554  0.0855 -0.3042  0.2440
 5293TIP3    H137438   5.947   0.322   1.515 -0.2774 -1.6751 -2.8661
 5293TIP3    H237439   5.932   0.221   1.627  0.6920  2.7726  1.6557
 5294TIP3   OH237440   4.258   2.891   7.778 -0.3777  0.0606 -0.1888
 5294TIP3    H137441   4.248   2.984   7.755  0.7673  0.1018 -0.6281
 5294TIP3    H237442   4.320   2.891   7.850  2.4063 -0.4838 -2.3870
 5295TIP3   OH237443   2.777   5.793   7.096 -0.2894  0.8273 -0.5478
 5295TIP3    H137444   2.856   5.813   7.147 -0.0008  0.9384 -1.0336
 5295TIP3    H237445   2.706   5.833   7.145 -0.0122  0.9418 -0.2372
 5296TIP3   OH237446   4.152   4.726   7.598  0.0190  0.3246 -0.0677
 5296TIP3    H137447   4.127   4.634   7.604 -0.2003  0.4956  2.2326
 5296TIP3    H237448   4.087   4.773   7.650  1.7781  1.4272  1.2465
 5297TIP3   OH237449   4.366   5.823   7.890  0.5486 -0.0525  0.4213
 5297TIP3    H137450   4.289   5.782   7.930 -0.3699 -0.0773 -1.2462
 5297TIP3    H237451   4.331   5.901   7.846  1.4238 -0.1492 -0.4880
 5298TIP3   OH237452   1.082   1.363   1.487 -0.3553  0.4347  0.1003
 5298TIP3    H137453   1.020   1.300   1.449 -0.4991 -0.2486  1.3912
 5298TIP3    H237454   1.168   1.329   1.463 -0.4542  1.1099 -1.2766
 5299TIP3   OH237455   2.556   1.124   8.446  0.1242  0.1631  0.0732
 5299TIP3    H137456   2.537   1.039   8.406 -0.1617 -0.0942  0.7410
 5299TIP3    H237457   2.507   1.123   8.528 -0.5668  1.3029 -0.2905
 5300TIP3   OH237458   3.415   5.838   0.053 -0.0997 -0.3972  0.4146
 5300TIP3    H137459   3.400   5.932   0.047  1.0047 -0.2811 -1.8027
 5300TIP3    H237460   3.456   5.825   0.138 -0.6392  1.0675  0.9217
 5301TIP3   OH237461   6.327   3.560   1.970  0.7226  0.2692 -0.4735
 5301TIP3    H137462   6.407   3.508   1.969 -0.2691 -1.4248  0.9728
 5301TIP3    H237463   6.257   3.497   1.952 -0.6673  0.7520  2.6202
 5302TIP3   OH237464   4.779   3.041   0.839 -0.4935 -0.3620 -0.5119
 5302TIP3    H137465   4.829   3.105   0.889 -0.1948 -0.0982 -1.1319
 5302TIP3    H237466   4.725   2.996   0.904  0.0449 -0.1806  0.0694
 5303TIP3   OH237467   4.368   6.467   0.998  0.3074  0.2917  0.1830
 5303TIP3    H137468   4.309   6.535   0.968 -1.4502 -0.1428  2.3776
 5303TIP3    H237469   4.443   6.514   1.034 -0.1289  1.0062  0.1611
 5304TIP3   OH237470   2.391   0.277   2.550 -0.6952 -0.1148  0.0639
 5304TIP3    H137471   2.347   0.253   2.631 -0.7359 -0.7783 -0.1454
 5304TIP3    H237472   2.321   0.308   2.493 -0.8320 -0.6924 -0.0930
 5305TIP3   OH237473   0.911   3.178   7.538  0.3942 -0.5318  0.3210
 5305TIP3    H137474   0.909   3.152   7.446  2.4703 -0.3884  0.1904
 5305TIP3    H237475   0.948   3.103   7.584 -0.0726 -0.3777  0.9593
 5306TIP3   OH237476   4.021   4.232   7.576 -0.4529  0.0697  0.2537
 5306TIP3    H137477   3.964   4.253   7.650  0.3374  0.4127  0.7815
 5306TIP3    H237478   3.961   4.219   7.502 -1.3000 -0.7751  1.0518
 5307TIP3   OH237479   6.812   3.473   1.006  0.3015 -0.4092 -0.3723
 5307TIP3    H137480   6.782   3.535   0.940  0.1915 -0.8131 -0.7092
 5307TIP3    H237481   6.803   3.520   1.089  0.8362  0.2477 -0.6777
 5308TIP3   OH237482   1.795   1.983   2.396  0.3439 -0.6400 -0.1881
 5308TIP3    H137483   1.764   1.894   2.378 -0.9274  0.2266 -2.6701
 5308TIP3    H237484   1.729   2.020   2.454 -0.5889 -0.4671 -1.3336
 5309TIP3   OH237485   2.063   3.391   2.919  0.4446  0.1557  0.5318
 5309TIP3    H137486   2.146   3.380   2.966  0.5724  1.2050  0.5758
 5309TIP3    H237487   1.996   3.387   2.988  0.2859 -2.3739  0.3172
 5310TIP3   OH237488   3.436   5.352   0.663  1.0152  0.1487 -0.1053
 5310TIP3    H137489   3.524   5.336   0.630  0.4485 -0.1047 -1.5907
 5310TIP3    H237490   3.437   5.443   0.691  1.9774 -0.0976  0.7320
 5311TIP3   OH237491   3.049   4.426   0.055  0.1637  0.1731 -0.6655
 5311TIP3    H137492   3.054   4.421   0.151 -1.9723 -0.6467 -0.5509
 5311TIP3    H237493   3.004   4.509   0.037 -2.1288 -1.0078 -0.7629
 5312TIP3   OH237494   2.541   2.369   8.570  0.0856 -0.4357 -0.3488
 5312TIP3    H137495   2.606   2.415   8.623 -0.4289  0.6228 -0.6233
 5312TIP3    H237496   2.592   2.331   8.499  0.4448  0.1719 -0.4236
 5313TIP3   OH237497   2.581   3.736   3.536  0.1246 -0.2984 -0.0926
 5313TIP3    H137498   2.594   3.797   3.464 -0.0917 -0.6482 -0.4287
 5313TIP3    H237499   2.638   3.770   3.606 -1.1724  1.2007  0.3000
 5314TIP3   OH237500   3.496   3.872   2.880 -0.3241 -0.1721  0.4972
 5314TIP3    H137501   3.406   3.870   2.914 -0.5886  0.6112 -0.1289
 5314TIP3    H237502   3.515   3.780   2.859 -1.1246 -0.3002  0.2740
 5315TIP3   OH237503   0.548   4.479   3.308  0.3190  0.8083 -0.9050
 5315TIP3    H137504   0.599   4.548   3.350 -1.1620  0.5654  1.4556
 5315TIP3    H237505   0.483   4.524   3.255 -0.7733  1.3012  0.7857
 5316TIP3   OH237506   3.900   0.248   1.366  0.2596 -0.0732 -0.0376
 5316TIP3    H137507   3.813   0.208   1.368  0.3281 -0.2415 -0.3425
 5316TIP3    H237508   3.915   0.265   1.273  0.3965  0.2973  0.0516
 5317TIP3   OH237509   1.375   4.308   1.900  0.0606 -0.1013  0.2317
 5317TIP3    H137510   1.360   4.239   1.835 -2.2280 -0.7193  1.3183
 5317TIP3    H237511   1.394   4.261   1.981 -1.3270  0.5111  0.9449
 5318TIP3   OH237512   0.440   1.561   3.356  0.1277  0.0631  0.4435
 5318TIP3    H137513   0.419   1.643   3.312 -0.1566 -0.9317 -1.3399
 5318TIP3    H237514   0.357   1.515   3.363  0.4118 -0.4206  0.6958
 5319TIP3   OH237515   5.540   4.939   1.105  0.1128  0.2061  0.1237
 5319TIP3    H137516   5.541   5.006   1.036 -1.0964  0.6053  0.4715
 5319TIP3    H237517   5.460   4.956   1.154  1.4341  0.5517  2.2764
 5320TIP3   OH237518   2.369   2.728   7.748 -0.0836  0.0536  0.0043
 5320TIP3    H137519   2.413   2.799   7.796  0.3153 -0.1387 -0.0713
 5320TIP3    H237520   2.405   2.648   7.787  2.7746 -0.1862 -2.7696
 5321TIP3   OH237521   5.931   6.160   8.258  0.3647 -0.6045 -0.0777
 5321TIP3    H137522   5.946   6.197   8.344 -0.4621 -0.3730 -0.0211
 5321TIP3    H237523   5.975   6.220   8.198 -2.4752  1.6097 -0.1544
 5322TIP3   OH237524   0.547   0.851   2.187  0.3925 -0.1008 -0.1176
 5322TIP3    H137525   0.642   0.840   2.178  0.2991 -0.5496 -0.6470
 5322TIP3    H237526   0.534   0.872   2.279  1.2024  2.1162 -0.4397
 5323TIP3   OH237527   6.743   1.246   0.304 -0.7513  0.3548  0.1281
 5323TIP3    H137528   6.753   1.268   0.397 -0.5273  1.5509 -0.1540
 5323TIP3    H237529   6.821   1.195   0.284 -1.1541 -0.5314  0.7613
 5324TIP3   OH237530   2.745   1.016   7.146  0.2759  0.0415 -0.3436
 5324TIP3    H137531   2.702   0.931   7.153 -1.0117  0.7631  1.1546
 5324TIP3    H237532   2.685   1.076   7.190  2.1553  1.3617  0.4849
 5325TIP3   OH237533   6.349   0.441   7.885 -0.4561 -0.4882  0.4452
 5325TIP3    H137534   6.294   0.423   7.962 -0.4272  0.3627  0.6766
 5325TIP3    H237535   6.348   0.359   7.835  0.9152 -1.6389  2.1907
 5326TIP3   OH237536   0.054   3.889   7.794  0.0399  0.2580 -0.2797
 5326TIP3    H137537   0.012   3.965   7.834 -1.2589 -0.5737 -0.0158
 5326TIP3    H237538   0.082   3.920   7.708 -1.6700  0.6955 -0.7254
 5327TIP3   OH237539   2.772   4.278   0.070  0.8938  0.4059 -0.5006
 5327TIP3    H137540   2.699   4.275   0.131 -0.3022 -0.8454 -1.9086
 5327TIP3    H237541   2.831   4.345   0.105  0.6831 -0.8154  2.4344
 5328TIP3   OH237542   3.299   5.366   7.141  0.7037  0.2143 -0.0550
 5328TIP3    H137543   3.250   5.432   7.092  1.2186  0.4743 -0.2350
 5328TIP3    H237544   3.283   5.284   7.095 -1.9584 -0.2936  1.5807
 5329TIP3   OH237545   1.638   4.263   1.979 -0.1941  0.3225  0.1688
 5329TIP3    H137546   1.589   4.201   1.927 -1.8142  1.4323  0.3038
 5329TIP3    H237547   1.590   4.269   2.062 -2.0046  3.9746 -0.9219
 5330TIP3   OH237548   4.439   4.220   0.245  0.3301 -0.3405  0.4653
 5330TIP3    H137549   4.482   4.235   0.160 -0.2459 -0.7157  0.0995
 5330TIP3    H237550   4.383   4.144   0.230 -1.5139  0.9380  0.5215
 5331TIP3   OH237551   3.580   1.035   0.440  0.4740  0.2896 -0.8172
 5331TIP3    H137552   3.540   1.121   0.448  0.5429  0.1677  1.2936
 5331TIP3    H237553   3.672   1.054   0.419  0.2826  0.6849 -1.3253
 5332TIP3   OH237554   3.883   2.433   0.171 -0.4267  0.3822  0.1881
 5332TIP3    H137555   3.934   2.514   0.173 -0.6979  0.5796 -0.5782
 5332TIP3    H237556   3.864   2.414   0.263  0.0435  0.9277  0.4016
 5333TIP3   OH237557   5.668   1.853   7.299 -0.2998  0.0481  0.3341
 5333TIP3    H137558   5.712   1.790   7.242 -0.3701  0.4245 -0.1413
 5333TIP3    H237559   5.646   1.927   7.242  0.6724  0.9463  1.0787
 5334TIP3   OH237560   4.789   4.656   6.904 -0.2517 -0.4704  0.2506
 5334TIP3    H137561   4.721   4.710   6.945 -1.5199 -1.6775 -0.1814
 5334TIP3    H237562   4.865   4.714   6.898 -1.6146  1.3564 -0.3962
 5335TIP3   OH237563   0.210   0.589   1.871 -0.0867 -0.1382 -0.3329
 5335TIP3    H137564   0.191   0.679   1.844 -0.0797 -0.4406 -1.4202
 5335TIP3    H237565   0.304   0.589   1.889 -0.2491  0.2770  0.5575
 5336TIP3   OH237566   1.270   5.535   8.490 -0.1938  0.2656  0.6379
 5336TIP3    H137567   1.176   5.525   8.477 -0.1943 -2.2476  1.9330
 5336TIP3    H237568   1.308   5.523   8.403 -1.0197  1.1661  0.1259
 5337TIP3   OH237569   3.704   3.236   0.060  0.4513 -0.2240 -0.3909
 5337TIP3    H137570   3.701   3.250   0.155  0.4937  1.5603 -0.6131
 5337TIP3    H237571   3.615   3.257   0.031  0.7306  0.3098 -0.8669
 5338TIP3   OH237572   6.682   6.629   0.915 -0.6904  0.4595  0.0597
 5338TIP3    H137573   6.765   6.661   0.951 -0.5354 -0.2344  0.3334
 5338TIP3    H237574   6.617   6.649   0.983 -0.8091  1.2726 -0.2799
 5339TIP3   OH237575   6.557   0.449   1.418  0.5597  0.7418  0.4984
 5339TIP3    H137576   6.520   0.537   1.412 -0.3039  0.4919  1.8359
 5339TIP3    H237577   6.651   0.463   1.409  0.2800  1.3122 -3.7709
 5340TIP3   OH237578   2.492   6.723   7.694 -0.1139 -0.4262  0.3891
 5340TIP3    H137579   2.494   6.764   7.780 -0.8595 -0.0925  0.2585
 5340TIP3    H237580   2.421   6.768   7.648  0.0868 -0.7980 -0.2987
 5341TIP3   OH237581   6.608   0.037   3.095  0.0373  0.3627 -0.2794
 5341TIP3    H137582   6.514   0.018   3.096 -0.4919  2.5140  1.8361
 5341TIP3    H237583   6.617   0.111   3.034  0.5888 -0.6197 -1.4196
 5342TIP3   OH237584   5.323   6.464   8.258  0.7840  0.1907  0.3896
 5342TIP3    H137585   5.261   6.536   8.251  0.1534 -0.2881  0.9710
 5342TIP3    H237586   5.279   6.389   8.218  0.8804 -0.2152  1.0270
 5343TIP3   OH237587   3.963   2.008   1.966 -0.0660  0.5708  0.3221
 5343TIP3    H137588   4.030   1.979   2.028  0.2608 -3.0881 -1.4801
 5343TIP3    H237589   4.011   2.045   1.893  0.1182 -1.8683 -0.8804
 5344TIP3   OH237590   5.371   6.285   3.378 -0.0627  0.4150  0.3931
 5344TIP3    H137591   5.297   6.345   3.371  0.5484  1.0364 -1.5130
 5344TIP3    H237592   5.407   6.281   3.289  1.0882 -1.2889  0.8794
 5345TIP3   OH237593   1.677   5.484   8.548  0.1715 -0.0653 -0.0268
 5345TIP3    H137594   1.655   5.540   8.473  0.0437 -0.6581 -0.4413
 5345TIP3    H237595   1.760   5.520   8.580  0.5263 -0.1491 -0.8168
 5346TIP3   OH237596   0.172   3.580   1.200 -0.2376 -0.3448 -0.0626
 5346TIP3    H137597   0.084   3.568   1.234 -0.4979 -0.7242 -0.8472
 5346TIP3    H237598   0.213   3.494   1.209  0.3810  0.0520  1.1700
 5347TIP3   OH237599   0.026   0.902   7.924 -0.2657 -0.0891 -0.0652
 5347TIP3    H137600   0.109   0.895   7.972 -0.6518 -0.3505  0.5879
 5347TIP3    H237601  -0.006   0.990   7.946 -0.5850 -0.3181  0.4061
 5348TIP3   OH237602   5.374   3.049   0.839  0.2537  0.1678  0.1933
 5348TIP3    H137603   5.356   2.959   0.813  1.2499  0.2947 -1.0630
 5348TIP3    H237604   5.453   3.044   0.892  0.9586  0.3741 -0.7899
 5349TIP3   OH237605   6.721   5.504   0.067  0.3373 -0.1198 -0.2443
 5349TIP3    H137606   6.698   5.414   0.091 -2.4261  0.5960  0.2305
 5349TIP3    H237607   6.791   5.527   0.128 -1.2110 -0.9178  1.9995
 5350TIP3   OH237608   0.557   3.064   1.717  0.6398 -0.4304  0.1569
 5350TIP3    H137609   0.468   3.037   1.694 -0.7366  1.2283  2.9603
 5350TIP3    H237610   0.577   3.015   1.797  2.0049 -0.2630 -0.0461
 5351TIP3   OH237611   5.946   1.947   1.006 -0.4046 -0.9433 -0.5433
 5351TIP3    H137612   5.965   1.998   1.085  0.6762  1.2352 -2.1213
 5351TIP3    H237613   5.851   1.955   0.995 -0.7470 -2.2122  1.0829
 5352TIP3   OH237614   2.427   1.364   8.365 -0.5367 -0.3040  0.4255
 5352TIP3    H137615   2.338   1.394   8.387 -0.1010  0.5283  1.1527
 5352TIP3    H237616   2.420   1.269   8.357 -1.4460 -0.2661  0.7090
 5353TIP3   OH237617   0.186   2.939   2.491  0.1284 -0.4084  0.0525
 5353TIP3    H137618   0.180   3.021   2.541 -1.9074  0.7563 -1.9127
 5353TIP3    H237619   0.138   2.876   2.543  0.9917 -0.1642  1.1891
 5354TIP3   OH237620   4.201   0.142   0.762  0.0613  0.4252 -0.8965
 5354TIP3    H137621   4.227   0.222   0.808 -2.9640  0.5232  0.8911
 5354TIP3    H237622   4.181   0.080   0.832  0.0600 -1.1423 -2.2204
 5355TIP3   OH237623   1.321   6.395   7.761  0.4520  0.4660 -0.4510
 5355TIP3    H137624   1.261   6.417   7.690 -0.7012 -1.0699 -0.0226
 5355TIP3    H237625   1.296   6.306   7.787  2.4346  0.0413  0.2599
 5356TIP3   OH237626   0.971   4.610   8.079 -0.2531 -0.0761 -0.1315
 5356TIP3    H137627   0.921   4.648   8.008 -0.0610 -0.7070 -0.6163
 5356TIP3    H237628   0.910   4.606   8.153 -0.6386  0.0077 -0.4475
 5357TIP3   OH237629   3.851   0.659   1.107  0.2702  0.2697  0.3153
 5357TIP3    H137630   3.881   0.600   1.176 -1.0447  0.2799  0.9244
 5357TIP3    H237631   3.788   0.717   1.150  1.0052  1.6726 -0.4325
 5358TIP3   OH237632   4.473   6.458   0.139 -0.0358  0.1716  0.1370
 5358TIP3    H137633   4.390   6.446   0.091  0.8268  1.7358 -1.8836
 5358TIP3    H237634   4.467   6.396   0.211 -3.4698  0.9810  0.7613
 5359TIP3   OH237635   2.607   5.118   0.560 -0.3493 -0.6319  0.1643
 5359TIP3    H137636   2.678   5.068   0.601  0.7533  1.2310  0.6319
 5359TIP3    H237637   2.539   5.122   0.626 -0.8667 -2.2495 -0.2103
 5360TIP3   OH237638   2.418   5.101   0.741 -0.0231 -0.1705 -0.0976
 5360TIP3    H137639   2.398   5.035   0.808  0.1431  1.5956  1.8082
 5360TIP3    H237640   2.339   5.153   0.734 -0.3877 -0.9106 -2.0924
 5361TIP3   OH237641   0.828   2.389   8.329 -0.1628  0.1622 -0.3121
 5361TIP3    H137642   0.837   2.378   8.424 -3.1222  0.2150  0.0577
 5361TIP3    H237643   0.865   2.309   8.292  0.0080 -0.3708  0.9681
 5362TIP3   OH237644   2.893   6.668   1.700  0.2585 -0.2303 -0.7388
 5362TIP3    H137645   2.798   6.672   1.708  0.2954  0.8913 -0.6827
 5362TIP3    H237646   2.913   6.722   1.624  0.9257  0.4845 -0.0764
 5363TIP3   OH237647   3.199   3.590   6.926 -0.6890  0.4130 -0.1986
 5363TIP3    H137648   3.228   3.681   6.918 -0.7083  0.5815  1.3028
 5363TIP3    H237649   3.130   3.581   6.860  0.6425  0.8978 -1.6971
 5364TIP3   OH237650   6.049   5.061   0.783  0.1065  0.0455 -0.2462
 5364TIP3    H137651   6.019   5.015   0.704  0.5175  0.0827 -0.4230
 5364TIP3    H237652   6.092   4.993   0.835 -0.9144 -0.1709  0.3514
 5365TIP3   OH237653   5.236   6.170   6.966 -0.7333  0.5816  0.4982
 5365TIP3    H137654   5.329   6.183   6.986 -0.1198 -1.9512 -0.3564
 5365TIP3    H237655   5.193   6.176   7.051  0.4603  0.0778  1.1654
 5366TIP3   OH237656   4.853   1.626   8.632  0.0722  0.3628  0.1294
 5366TIP3    H137657   4.833   1.638   8.539  1.4876  1.4407 -0.0654
 5366TIP3    H237658   4.835   1.533   8.649 -0.5495  0.2388 -1.1239
 5367TIP3   OH237659   3.875   1.689   1.311  0.0904 -0.3013 -0.4263
 5367TIP3    H137660   3.884   1.637   1.391 -3.3772 -1.1198 -0.4403
 5367TIP3    H237661   3.865   1.625   1.241 -2.0159  0.3032 -0.7458
 5368TIP3   OH237662   2.846   1.365   8.103 -0.2058  0.3736  0.5138
 5368TIP3    H137663   2.771   1.419   8.081  0.3051  0.9645  0.2133
 5368TIP3    H237664   2.823   1.326   8.187 -1.9808 -1.5408 -0.7578
 5369TIP3   OH237665   0.421   2.143   0.780  0.1799 -0.4199 -0.0702
 5369TIP3    H137666   0.326   2.150   0.782  0.2353  0.3132  0.3238
 5369TIP3    H237667   0.452   2.226   0.816  0.9505 -1.2673  1.2956
 5370TIP3   OH237668   1.010   5.454   1.227 -0.4047 -0.3432  0.2576
 5370TIP3    H137669   1.012   5.378   1.169 -1.4672  0.3581 -0.7546
 5370TIP3    H237670   0.951   5.428   1.298 -1.9927  0.0191 -0.8692
 5371TIP3   OH237671   2.608   1.998   6.966  0.9451  0.6848 -0.2881
 5371TIP3    H137672   2.667   1.928   6.993  0.4834  0.3759 -0.0698
 5371TIP3    H237673   2.522   1.972   7.000  1.0692  2.1919  1.2846
 5372TIP3   OH237674   5.335   3.572   0.941 -0.6711 -0.1374 -0.1288
 5372TIP3    H137675   5.394   3.580   0.866  0.0518  2.4795  0.6375
 5372TIP3    H237676   5.365   3.493   0.987  0.2656 -0.5380 -1.3999
 5373TIP3   OH237677   5.341   3.472   2.367 -0.0749  0.2745 -0.1989
 5373TIP3    H137678   5.287   3.453   2.444 -0.7699  0.9026 -0.5279
 5373TIP3    H237679   5.321   3.563   2.345 -1.0821 -0.3402 -2.0649
 5374TIP3   OH237680   3.131   1.442   2.174  0.1085  0.0529  0.2758
 5374TIP3    H137681   3.186   1.396   2.238  3.1457  1.1453 -1.3343
 5374TIP3    H237682   3.088   1.511   2.225  0.1259 -0.8647  1.6082
 5375TIP3   OH237683   3.386   6.826   2.624 -0.0935 -0.7338  0.4027
 5375TIP3    H137684   3.349   6.738   2.633  0.1922 -0.6520  3.2353
 5375TIP3    H237685   3.322   6.883   2.666 -0.1541  0.4307 -1.1741
 5376TIP3   OH237686   3.227   4.338   1.075 -0.2693 -1.1826 -0.1132
 5376TIP3    H137687   3.204   4.259   1.028 -2.5485 -0.3877 -0.4366
 5376TIP3    H237688   3.155   4.398   1.059  1.7039  1.2677 -0.4860
 5377TIP3   OH237689   2.065   5.456   2.432 -0.0426 -0.1363 -0.8220
 5377TIP3    H137690   2.000   5.462   2.501  1.1278 -3.3118  0.7603
 5377TIP3    H237691   2.142   5.500   2.467 -0.7240  2.1633 -2.0247
 5378TIP3   OH237692   6.039   4.980   1.767 -0.2903  0.2789  0.7868
 5378TIP3    H137693   6.030   5.068   1.729  0.3821 -0.1564 -0.4395
 5378TIP3    H237694   5.953   4.940   1.754 -0.0819  0.1444 -0.3099
 5379TIP3   OH237695   0.563   5.604   0.404 -0.1866 -0.1187 -0.2918
 5379TIP3    H137696   0.548   5.630   0.313 -0.0803  1.5874  0.1626
 5379TIP3    H237697   0.503   5.657   0.455  0.2537 -0.5541  0.7128
 5380TIP3   OH237698   2.588   0.628   0.002 -0.5247  0.0330  0.4854
 5380TIP3    H137699   2.679   0.643   0.027 -0.3743  1.3908 -0.7150
 5380TIP3    H237700   2.573   0.535   0.019  1.4488 -0.4998 -0.4447
 5381TIP3   OH237701   0.975   5.967   0.260 -0.3249 -0.1008 -0.4677
 5381TIP3    H137702   0.933   5.887   0.291  0.6045  0.0844  1.4068
 5381TIP3    H237703   1.063   5.940   0.235 -0.0432  0.3093  0.0672
 5382TIP3   OH237704   3.085   1.514   1.919  0.5189  0.2461 -0.1754
 5382TIP3    H137705   2.991   1.502   1.903 -0.0269  2.4325  0.9529
 5382TIP3    H237706   3.102   1.467   2.000  1.5234 -3.9814 -2.5202
 5383TIP3   OH237707   6.341   3.150   0.210  0.4381 -0.2191 -0.3853
 5383TIP3    H137708   6.277   3.217   0.185  0.1372 -0.2854  0.1923
 5383TIP3    H237709   6.330   3.141   0.305  2.1017  0.5940 -0.0845
 5384TIP3   OH237710   6.822   3.227   8.444 -0.2794  0.1343  0.0238
 5384TIP3    H137711   6.888   3.210   8.512 -0.0117 -1.4295 -0.5978
 5384TIP3    H237712   6.863   3.292   8.387 -0.2283  0.9379  0.9482
 5385TIP3   OH237713   2.173   1.982   0.265 -0.3619 -0.4240  0.4989
 5385TIP3    H137714   2.186   1.907   0.207  1.5006  0.2806 -0.0722
 5385TIP3    H237715   2.116   2.041   0.215  2.2456  0.7673 -1.3260
 5386TIP3   OH237716   3.907   1.841   8.432 -0.4365 -0.4309 -0.3058
 5386TIP3    H137717   3.975   1.904   8.456 -0.9472  0.4595 -1.1218
 5386TIP3    H237718   3.955   1.766   8.397  0.2951 -1.4606  2.6311
 5387TIP3   OH237719   2.860   0.735   1.658 -0.2884  0.4954 -0.3032
 5387TIP3    H137720   2.828   0.800   1.596 -0.1232 -0.2368 -1.1649
 5387TIP3    H237721   2.903   0.668   1.605  0.4125  0.1626  0.6404
 5388TIP3   OH237722   3.025   0.297   2.141  0.2359  0.0112  0.4170
 5388TIP3    H137723   3.023   0.387   2.108 -0.9146 -0.9958 -2.5872
 5388TIP3    H237724   2.937   0.283   2.176 -0.4978 -0.7085 -1.5980
 5389TIP3   OH237725   2.190   3.471   8.026  0.2485 -0.5518  0.0417
 5389TIP3    H137726   2.211   3.563   8.004  0.5479 -0.9729 -1.6071
 5389TIP3    H237727   2.273   3.425   8.012 -0.5472 -1.4934 -1.9030
 5390TIP3   OH237728   3.936   3.449   1.677 -0.1344  0.5249  0.2535
 5390TIP3    H137729   3.894   3.457   1.591 -1.0402  0.4906  0.6844
 5390TIP3    H237730   3.955   3.540   1.702 -2.1080  0.7522  1.0877
 5391TIP3   OH237731   5.440   4.554   1.602  0.2037 -0.6390 -0.1848
 5391TIP3    H137732   5.497   4.621   1.565  1.8400 -0.9109  1.7037
 5391TIP3    H237733   5.445   4.567   1.697 -0.1015 -2.8804  0.1952
 5392TIP3   OH237734   6.638   2.904   1.911  0.5219  0.6305  0.1795
 5392TIP3    H137735   6.675   2.936   1.993  0.4830  0.1402  0.3940
 5392TIP3    H237736   6.685   2.822   1.894 -0.1619  0.2164  0.2389
 5393TIP3   OH237737   0.812   3.461   7.630 -0.6642  0.4633  0.0847
 5393TIP3    H137738   0.817   3.367   7.614 -1.1188  0.7536 -2.0481
 5393TIP3    H237739   0.893   3.482   7.676 -1.1077 -1.1295  1.6965
 5394TIP3   OH237740   6.432   0.817   2.249  0.0534 -0.7196 -0.6575
 5394TIP3    H137741   6.355   0.873   2.250  0.7896  0.3385 -1.2056
 5394TIP3    H237742   6.502   0.872   2.213  0.4619 -2.4479 -2.7128
 5395TIP3   OH237743   2.199   2.964   0.133  0.0339  0.0952 -0.0289
 5395TIP3    H137744   2.273   2.928   0.083 -0.2154 -1.3711  0.5792
 5395TIP3    H237745   2.153   2.886   0.165 -1.0718  0.9964  0.6228
 5396TIP3   OH237746   0.304   4.492   0.568  0.1638 -0.5787  0.3713
 5396TIP3    H137747   0.381   4.513   0.621  1.4864  3.4393 -2.6083
 5396TIP3    H237748   0.327   4.412   0.522  2.6283  0.4321 -0.3253
 5397TIP3   OH237749   5.683   6.866   8.605  0.4971 -0.5467 -0.1368
 5397TIP3    H137750   5.605   6.822   8.572 -0.8258  1.7173 -0.2432
 5397TIP3    H237751   5.654   6.956   8.622  3.0465  0.3148  0.0097
 5398TIP3   OH237752   5.864   5.113   0.053 -0.2355 -0.4082 -0.3639
 5398TIP3    H137753   5.910   5.181   0.004  0.3886 -1.1820 -0.8707
 5398TIP3    H237754   5.772   5.123   0.028  0.0299 -0.5607 -1.4167
 5399TIP3   OH237755   2.961   5.521   8.178  0.0171 -0.0015  0.4038
 5399TIP3    H137756   2.964   5.502   8.084 -1.0762 -0.9602  0.5415
 5399TIP3    H237757   3.039   5.477   8.214  1.1648  1.4512 -0.2006
 5400TIP3   OH237758   6.022   2.032   1.243 -0.1048 -0.1117  0.4438
 5400TIP3    H137759   6.112   2.027   1.276 -0.6382  1.0186  2.2188
 5400TIP3    H237760   5.975   1.964   1.292 -0.6541  0.7915  1.2175
 5401TIP3   OH237761   1.456   2.648   0.611  0.2962 -0.8013 -0.2821
 5401TIP3    H137762   1.509   2.674   0.536 -0.4791  1.2695 -0.1834
 5401TIP3    H237763   1.385   2.596   0.573 -0.3100  0.5486 -1.0949
 5402TIP3   OH237764   2.780   0.407   0.541  0.2417  0.3080  0.0088
 5402TIP3    H137765   2.771   0.398   0.446  0.3854 -0.7070  0.0852
 5402TIP3    H237766   2.713   0.348   0.577  1.1808 -0.4423  0.5447
 5403TIP3   OH237767   3.329   3.288   8.048  0.3216  0.4594 -0.3313
 5403TIP3    H137768   3.356   3.203   8.083 -0.1836  1.2922  2.3227
 5403TIP3    H237769   3.245   3.271   8.006  0.0390 -0.3027  0.5088
 5404TIP3   OH237770   2.068   4.260   6.597  0.0580 -0.2020 -0.0347
 5404TIP3    H137771   2.064   4.165   6.597 -1.2893 -0.1821  1.1171
 5404TIP3    H237772   2.149   4.281   6.644  0.5937 -0.7540 -0.6882
 5405TIP3   OH237773   4.425   0.219   0.615 -0.0708  0.0381  0.0320
 5405TIP3    H137774   4.485   0.150   0.590 -0.6450 -0.3902 -0.1819
 5405TIP3    H237775   4.359   0.175   0.670 -0.5327  0.3758 -0.2413
 5406TIP3   OH237776   1.512   4.463   0.200 -0.1280  0.0388 -0.9175
 5406TIP3    H137777   1.508   4.516   0.120 -1.4445 -0.6960 -1.3775
 5406TIP3    H237778   1.450   4.392   0.184 -0.4299 -0.1082  0.7847
 5407TIP3   OH237779   4.566   0.495   0.064 -0.3340  0.0049 -0.0722
 5407TIP3    H137780   4.602   0.419   0.018 -0.3020  0.8381 -1.4990
 5407TIP3    H237781   4.488   0.462   0.108 -0.2865 -0.8726 -0.6091
 5408TIP3   OH237782   2.209   4.548   1.258 -0.1083 -0.4954  0.0579
 5408TIP3    H137783   2.175   4.466   1.223 -0.7046 -0.4482  0.5184
 5408TIP3    H237784   2.144   4.576   1.322 -1.2227  1.6090 -1.8544
 5409TIP3   OH237785   0.717   5.756   2.137  0.6462 -0.6694  0.1019
 5409TIP3    H137786   0.665   5.812   2.078  1.0065  0.4383  0.7924
 5409TIP3    H237787   0.799   5.805   2.150  0.8354 -1.2020  1.0048
 5410TIP3   OH237788   4.334   1.145   7.623  0.0937 -0.2395 -0.0903
 5410TIP3    H137789   4.361   1.187   7.705 -3.0412  0.5507  0.6881
 5410TIP3    H237790   4.388   1.187   7.556  0.7709  1.1781  1.2725
 5411TIP3   OH237791   2.769   5.645   2.688  0.2171 -0.9615  0.3356
 5411TIP3    H137792   2.832   5.683   2.626  1.3617 -0.8224  1.5240
 5411TIP3    H237793   2.824   5.597   2.750 -0.9210 -1.3813  1.0355
 5412TIP3   OH237794   0.661   4.862   1.581 -0.1500  0.4080 -0.0355
 5412TIP3    H137795   0.636   4.897   1.666 -1.7553  0.9429 -0.6896
 5412TIP3    H237796   0.754   4.884   1.572 -0.6547  2.9845  0.3266
 5413TIP3   OH237797   2.938   3.745   6.983  0.2243  0.0452  0.2669
 5413TIP3    H137798   2.913   3.836   6.968  0.8593  0.1465 -0.2430
 5413TIP3    H237799   2.908   3.699   6.905  0.3752 -0.0822  0.2833
 5414TIP3   OH237800   2.621   6.759   7.021 -0.0458 -0.0060  0.6729
 5414TIP3    H137801   2.579   6.674   7.004  3.2957 -2.0132  1.5619
 5414TIP3    H237802   2.646   6.790   6.934  0.4300 -0.9564  0.4520
 5415TIP3   OH237803   4.724   2.743   0.085 -0.6613  0.8025 -0.2185
 5415TIP3    H137804   4.676   2.698   0.155 -2.2186  2.4763 -0.1532
 5415TIP3    H237805   4.786   2.800   0.131 -0.3321  0.4881 -0.2634
 5416TIP3   OH237806   0.606   2.862   7.894  0.3090  0.2488 -0.2364
 5416TIP3    H137807   0.560   2.911   7.826 -0.9310  0.4432  0.7188
 5416TIP3    H237808   0.636   2.929   7.956 -0.9386 -0.1252  0.8057
 5417TIP3   OH237809   2.674   4.253   1.031  0.5721 -0.2413  0.1015
 5417TIP3    H137810   2.659   4.306   1.109 -1.4186 -0.5499 -0.0160
 5417TIP3    H237811   2.759   4.282   0.998  0.2145  1.8293  0.8515
 5418TIP3   OH237812   5.203   1.179   1.348  0.1537  0.9848  0.0957
 5418TIP3    H137813   5.234   1.102   1.302  0.3336 -0.0800  1.8931
 5418TIP3    H237814   5.126   1.208   1.299  0.1738 -0.2577 -0.6904
 5419TIP3   OH237815   1.937   5.837   7.700 -0.2811  0.2106 -0.1660
 5419TIP3    H137816   1.921   5.754   7.743 -1.9808  0.3048 -0.5527
 5419TIP3    H237817   1.864   5.893   7.726  0.2560  1.2372 -0.7666
 5420TIP3   OH237818   6.677   3.026   8.297  0.1064 -0.6332  0.4750
 5420TIP3    H137819   6.593   3.073   8.294 -0.1193 -1.0605 -0.4407
 5420TIP3    H237820   6.729   3.072   8.362 -0.9667 -0.5643  1.3087
 5421TIP3   OH237821   0.926   2.050   2.667  0.0799  0.2777  0.5619
 5421TIP3    H137822   0.938   1.992   2.743 -0.7541 -0.5148  0.1085
 5421TIP3    H237823   0.940   2.138   2.702 -0.6112 -0.0458  1.7205
 5422TIP3   OH237824   4.838   1.444   0.723  0.6491 -0.5099 -0.9840
 5422TIP3    H137825   4.768   1.440   0.788  2.2132 -0.8332  0.7811
 5422TIP3    H237826   4.835   1.359   0.680  1.0538 -1.2346  0.3450
 5423TIP3   OH237827   2.060   0.463   7.702 -0.7561 -0.2961 -0.0379
 5423TIP3    H137828   2.009   0.396   7.657 -1.1021 -0.1952  0.1917
 5423TIP3    H237829   2.126   0.490   7.639  0.0273 -1.5553  0.2227
 5424TIP3   OH237830   2.735   5.084   7.683  0.0337 -0.1268  0.6029
 5424TIP3    H137831   2.719   5.036   7.601  1.5126 -0.3053  0.3861
 5424TIP3    H237832   2.763   5.017   7.745  0.2105  0.1853  0.8662
 5425TIP3   OH237833   3.233   6.186   8.612 -0.0252  0.2957 -0.2592
 5425TIP3    H137834   3.222   6.104   8.564  0.4031 -0.4937  0.9634
 5425TIP3    H237835   3.322   6.182   8.646 -0.7807  0.1244  1.8671
 5426TIP3   OH237836   4.045   6.197   7.539  0.0593  0.7212  0.2224
 5426TIP3    H137837   3.976   6.190   7.605 -1.4618  0.0958 -1.3870
 5426TIP3    H237838   4.046   6.289   7.515  0.5665  0.9386  1.0250
 5427TIP3   OH237839   2.365   0.099   8.385 -0.3858  0.0259 -0.0653
 5427TIP3    H137840   2.318   0.030   8.431 -0.9627 -0.3960 -1.2396
 5427TIP3    H237841   2.297   0.150   8.342  0.0944  0.8068  0.0736
 5428TIP3   OH237842   2.125   2.655   7.741  0.2329  0.2204  0.4442
 5428TIP3    H137843   2.057   2.667   7.808  0.5252 -0.5880  0.8856
 5428TIP3    H237844   2.186   2.727   7.757  0.2782  0.0613  1.0188
 5429TIP3   OH237845   2.039   4.000   1.726 -0.1713  0.6685  0.0399
 5429TIP3    H137846   1.960   4.004   1.673 -2.0329 -0.7351  2.5165
 5429TIP3    H237847   2.089   3.926   1.691 -1.9247 -0.9694  0.8481
 5430TIP3   OH237848   6.860   5.758   1.364 -0.0118  0.7174  0.4008
 5430TIP3    H137849   6.784   5.769   1.307  0.9343 -0.8075 -1.2638
 5430TIP3    H237850   6.895   5.847   1.374 -0.3850  1.0903 -1.2114
 5431TIP3   OH237851   6.267   4.559   1.799 -0.1396  0.0879 -0.6916
 5431TIP3    H137852   6.279   4.652   1.819 -0.7619  0.1620 -0.6214
 5431TIP3    H237853   6.200   4.558   1.730 -2.5237 -0.4135  1.4702
 5432TIP3   OH237854   2.913   4.115   1.517  0.2889  0.0862 -0.1748
 5432TIP3    H137855   2.944   4.042   1.571 -0.1965 -0.5786 -0.7741
 5432TIP3    H237856   2.986   4.176   1.515  0.3872  0.0261  1.0630
 5433TIP3   OH237857   4.350   1.193   1.541 -0.1044 -0.0399  0.3799
 5433TIP3    H137858   4.381   1.127   1.602 -0.7925 -0.2075  0.5596
 5433TIP3    H237859   4.426   1.248   1.523  0.0459  0.1906  1.6215
 5434TIP3   OH237860   1.362   4.803   1.325  0.1508  0.2044  0.3586
 5434TIP3    H137861   1.433   4.818   1.262 -0.0976 -1.0532 -0.2314
 5434TIP3    H237862   1.401   4.748   1.392 -0.6243 -1.7093 -0.7048
 5435TIP3   OH237863   5.737   2.276   0.498 -0.1638 -0.4200 -0.2947
 5435TIP3    H137864   5.720   2.274   0.404  0.9902 -0.7879 -0.5021
 5435TIP3    H237865   5.821   2.321   0.507 -0.9765  0.9763  0.6808
 5436TIP3   OH237866   0.173   5.195   2.905 -0.4279 -0.0645 -0.4094
 5436TIP3    H137867   0.110   5.140   2.954  0.9983 -0.7039  0.7754
 5436TIP3    H237868   0.180   5.275   2.957 -2.0696  1.1048 -1.8423
 5437TIP3   OH237869   0.402   6.111   2.920 -0.3953 -0.2718 -0.2756
 5437TIP3    H137870   0.360   6.087   2.838  2.8652  1.6722 -2.7911
 5437TIP3    H237871   0.447   6.032   2.949 -1.1693 -0.8544 -0.6569
 5438TIP3   OH237872   0.173   4.423   1.168  0.1301  0.6021 -0.0845
 5438TIP3    H137873   0.174   4.380   1.082 -0.6973  1.6058 -0.6146
 5438TIP3    H237874   0.117   4.499   1.156  1.0529  1.4889  1.0042
 5439TIP3   OH237875   1.224   1.225   1.197 -0.1416  0.2825 -0.4846
 5439TIP3    H137876   1.196   1.159   1.261  0.1678  0.2254 -0.4058
 5439TIP3    H237877   1.284   1.179   1.140  0.9083  0.7561  0.2138
 5440TIP3   OH237878   5.226   5.442   7.770 -0.2781  0.3597 -0.1165
 5440TIP3    H137879   5.229   5.531   7.806 -0.3405  0.8157 -1.1964
 5440TIP3    H237880   5.158   5.398   7.820  0.1988  0.7145  0.8671
 5441TIP3   OH237881   5.766   6.113   0.184 -0.0233 -0.5080  0.4472
 5441TIP3    H137882   5.797   6.103   0.094 -1.9095  0.9173 -0.4246
 5441TIP3    H237883   5.769   6.208   0.200 -1.5007 -0.5558  1.1878
 5442TIP3   OH237884   0.076   5.432   1.736  0.5954  0.5288  0.1489
 5442TIP3    H137885  -0.019   5.437   1.736  0.5845  0.3797 -0.2998
 5442TIP3    H237886   0.103   5.499   1.672  0.7198 -0.4822 -0.8984
 5443TIP3   OH237887   4.287   6.478   1.269 -0.5673  0.6836 -0.1554
 5443TIP3    H137888   4.356   6.423   1.305 -1.7681 -1.2942 -0.6964
 5443TIP3    H237889   4.301   6.477   1.174 -0.7856  1.0576 -0.1959
 5444TIP3   OH237890   4.042   0.474   1.276  0.3104  0.1207  0.4163
 5444TIP3    H137891   4.007   0.421   1.347  1.0206 -1.0125 -0.0420
 5444TIP3    H237892   4.096   0.539   1.319  0.9187 -0.6965  0.9282
 5445TIP3   OH237893   4.604   3.401   0.922  0.0127 -0.0678  0.0689
 5445TIP3    H137894   4.690   3.444   0.931  0.5423 -1.1342  0.2035
 5445TIP3    H237895   4.542   3.474   0.914  1.0786  0.7386 -1.5003
 5446TIP3   OH237896   4.240   6.755   7.279 -0.1074 -0.2762 -0.0867
 5446TIP3    H137897   4.151   6.725   7.299  0.3671 -2.7990 -1.3439
 5446TIP3    H237898   4.243   6.759   7.183  0.0743  3.5457 -0.0749
 5447TIP3   OH237899   5.703   1.259   7.718 -0.0405  0.0476  0.3297
 5447TIP3    H137900   5.710   1.325   7.786 -1.5888  0.6344 -0.0402
 5447TIP3    H237901   5.612   1.230   7.721 -0.6036  1.1572 -2.4125
 5448TIP3   OH237902   3.274   1.058   7.696 -0.2262 -0.1995 -0.1623
 5448TIP3    H137903   3.182   1.078   7.684  0.0222  0.7487 -0.6100
 5448TIP3    H237904   3.286   1.054   7.791 -0.7922 -0.6715 -0.1082
 5449TIP3   OH237905   6.173   6.613   7.751  0.5352 -0.3480  0.3221
 5449TIP3    H137906   6.219   6.530   7.738  1.7521  0.3441  0.0448
 5449TIP3    H237907   6.083   6.588   7.769  0.7571 -1.7155 -0.3310
 5450TIP3   OH237908   0.908   5.447   7.821 -0.5200  0.4731 -0.0895
 5450TIP3    H137909   1.001   5.430   7.808 -0.5520  0.9569 -1.0663
 5450TIP3    H237910   0.871   5.449   7.732 -1.0336  2.6125  0.1166
 5451TIP3   OH237911   0.264   4.097   8.230  0.0941 -0.0416  0.2368
 5451TIP3    H137912   0.277   4.044   8.152  1.8729 -1.5544  1.4755
 5451TIP3    H237913   0.323   4.171   8.220  0.7110 -0.5104  0.3698
 5452TIP3   OH237914   0.957   3.971   0.895 -0.2439 -0.3133  0.4875
 5452TIP3    H137915   0.866   3.964   0.923  0.1309 -0.2933  1.7713
 5452TIP3    H237916   0.985   3.880   0.881 -0.0361 -0.4167  1.5362
 5453TIP3   OH237917   1.933   2.635   1.053 -0.2357 -0.7440  0.4664
 5453TIP3    H137918   1.856   2.586   1.081 -0.1474 -1.0990  0.0938
 5453TIP3    H237919   1.989   2.640   1.131 -0.0306 -1.6424  0.3852
 5454TIP3   OH237920   5.789   4.739   0.433  0.2133 -0.2095  0.2006
 5454TIP3    H137921   5.745   4.676   0.490 -1.1630 -0.6392 -1.2488
 5454TIP3    H237922   5.717   4.782   0.386  1.2669  0.5187 -0.7982
 5455TIP3   OH237923   5.145   3.244   1.648 -0.1024  0.1297 -0.0936
 5455TIP3    H137924   5.063   3.241   1.598 -0.1655 -0.1256  0.0222
 5455TIP3    H237925   5.211   3.213   1.586 -0.4317 -1.8259  0.4579
 5456TIP3   OH237926   3.839   3.997   1.563  0.6472 -0.9142  0.6868
 5456TIP3    H137927   3.814   4.009   1.655  0.1233  1.7861  0.2682
 5456TIP3    H237928   3.762   3.956   1.523  0.1278 -0.3477  1.0829
 5457TIP3   OH237929   4.804   0.758   1.902  0.3407 -0.1084 -0.4306
 5457TIP3    H137930   4.899   0.768   1.905  0.3442 -0.4188  1.0817
 5457TIP3    H237931   4.783   0.704   1.978 -1.2644  1.6416  0.4283
 5458TIP3   OH237932   2.378   5.468   7.552 -0.4171  0.7136  0.0153
 5458TIP3    H137933   2.321   5.473   7.475 -0.1038 -0.2151 -0.2854
 5458TIP3    H237934   2.444   5.404   7.529 -0.8792 -0.3212  1.4306
 5459TIP3   OH237935   4.479   0.904   1.091  0.3666  0.5086  0.1281
 5459TIP3    H137936   4.541   0.836   1.065  0.4836  0.6241  0.0995
 5459TIP3    H237937   4.526   0.955   1.157  1.2215  2.0292 -1.5334
 5460TIP3   OH237938   1.195   6.383   0.891  0.2064  0.7996  0.5080
 5460TIP3    H137939   1.270   6.415   0.940  0.7525 -0.1733  0.3242
 5460TIP3    H237940   1.145   6.462   0.870  1.6509  1.5733 -0.1573
 5461TIP3   OH237941   2.666   1.094   6.786 -0.4472 -0.0017  0.5539
 5461TIP3    H137942   2.661   1.170   6.843  0.1612 -0.6185  1.4645
 5461TIP3    H237943   2.582   1.049   6.798 -0.8798  0.6014 -0.1232
 5462TIP3   OH237944   4.247   1.488   1.305 -0.0969  0.4886  0.1676
 5462TIP3    H137945   4.164   1.454   1.273  0.6280  0.6448 -2.0074
 5462TIP3    H237946   4.312   1.424   1.275  0.5408 -0.1972  2.7285
 5463TIP3   OH237947   0.630   2.934   7.364 -0.5523  0.4081  0.1755
 5463TIP3    H137948   0.632   2.882   7.283  2.6102 -0.9783  0.9930
 5463TIP3    H237949   0.697   3.000   7.351 -0.0322  0.1869  1.6162
 5464TIP3   OH237950   1.588   1.810   1.811 -0.2669  0.0978 -0.1835
 5464TIP3    H137951   1.531   1.861   1.753 -0.8094  0.9254  1.0246
 5464TIP3    H237952   1.536   1.733   1.834 -0.3734  0.1742 -0.1664
 5465TIP3   OH237953   0.006   1.570   0.680 -0.6234  0.3119  0.1882
 5465TIP3    H137954  -0.047   1.612   0.612  1.7061  1.0429 -1.3023
 5465TIP3    H237955  -0.020   1.612   0.762 -0.1375  2.9644 -0.9278
 5466TIP3   OH237956   6.001   0.313   1.257 -0.4902  0.6399 -0.7430
 5466TIP3    H137957   6.042   0.359   1.331 -1.7643  0.2706  0.2467
 5466TIP3    H237958   6.070   0.305   1.192  0.8754  0.4388  0.6621
 5467TIP3   OH237959   4.178   3.373   7.356  0.2834 -0.7405 -0.5854
 5467TIP3    H137960   4.170   3.278   7.360  1.0809 -0.7887  1.0584
 5467TIP3    H237961   4.238   3.389   7.283 -0.1144 -1.4746 -1.0813
 5468TIP3   OH237962   4.134   6.714   0.197 -0.0548  0.4742 -0.6451
 5468TIP3    H137963   4.168   6.802   0.181 -0.1876  0.7694  0.6207
 5468TIP3    H237964   4.057   6.727   0.252  0.3770 -0.4692  0.2228
 5469TIP3   OH237965   2.345   2.841   8.327 -0.2217 -0.2151  0.0083
 5469TIP3    H137966   2.369   2.933   8.320  0.2905 -0.3645 -0.2459
 5469TIP3    H237967   2.427   2.793   8.313 -0.0073 -0.6661  2.3607
 5470TIP3   OH237968   1.195   4.835   2.580  0.2588 -0.6900  0.0168
 5470TIP3    H137969   1.104   4.849   2.607  0.3407 -2.2174  1.2708
 5470TIP3    H237970   1.246   4.895   2.635  0.0237  0.1216 -0.6429
 5471TIP3   OH237971   3.377   0.407   0.641  1.0560 -0.7175  0.2554
 5471TIP3    H137972   3.371   0.476   0.707  2.1519  0.0061 -0.3734
 5471TIP3    H237973   3.299   0.354   0.655 -0.1681  1.0302  0.3251
 5472TIP3   OH237974   4.724   1.638   1.040 -0.0208 -0.2160  0.2250
 5472TIP3    H137975   4.721   1.547   1.011  0.3393  0.0305 -0.5872
 5472TIP3    H237976   4.817   1.658   1.050 -0.1082 -0.0382  0.7595
 5473TIP3   OH237977   5.336   4.069   0.245  0.5287  0.1325  0.4455
 5473TIP3    H137978   5.378   4.045   0.162  0.4677  0.4410  0.3253
 5473TIP3    H237979   5.292   3.989   0.274 -0.8398  0.4617 -0.6474
 5474TIP3   OH237980   2.577   1.210   0.474  0.2695 -0.4429  0.0978
 5474TIP3    H137981   2.488   1.191   0.443 -0.5605  1.3751  1.1996
 5474TIP3    H237982   2.632   1.201   0.396 -1.1926  0.3751 -1.0944
 5475TIP3   OH237983   0.223   4.624   0.338 -0.2071 -0.1338 -0.1530
 5475TIP3    H137984   0.132   4.630   0.369 -0.6184 -2.2154 -0.8089
 5475TIP3    H237985   0.274   4.601   0.416 -0.4697 -0.3142 -0.0325
 5476TIP3   OH237986   5.816   5.037   2.073  0.2359 -0.3847  0.0549
 5476TIP3    H137987   5.788   5.075   1.989  0.1775  1.0837  0.7061
 5476TIP3    H237988   5.907   5.063   2.082 -0.7088  2.7706  2.1116
 5477TIP3   OH237989   3.671   5.100   0.875  0.3236 -0.4988 -0.4650
 5477TIP3    H137990   3.660   5.174   0.933  0.3834 -1.2870  0.5829
 5477TIP3    H237991   3.584   5.084   0.838 -0.4093 -1.7597  1.6419
 5478TIP3   OH237992   4.746   6.611   0.377  0.1797  0.3282  0.0127
 5478TIP3    H137993   4.803   6.565   0.316  1.2688 -0.6030  1.6564
 5478TIP3    H237994   4.674   6.550   0.392  0.2818  0.2515  0.1952
 5479TIP3   OH237995   1.973   4.369   1.363  0.4422 -0.4550 -0.0650
 5479TIP3    H137996   1.911   4.441   1.378 -0.3558 -0.8406 -1.3137
 5479TIP3    H237997   2.037   4.377   1.434  0.0140  1.0917  0.1877
 5480TIP3   OH237998   4.787   5.296   7.703 -0.2433 -0.8289 -0.0580
 5480TIP3    H137999   4.796   5.244   7.623  0.6235  0.5532 -0.8914
 5480TIP3    H238000   4.705   5.344   7.691  0.4112  0.1725 -0.6123
 5481TIP3   OH238001   6.490   6.290   0.847  0.2560  0.1954 -0.3567
 5481TIP3    H138002   6.420   6.231   0.817 -1.0458  1.2803  0.4282
 5481TIP3    H238003   6.464   6.376   0.814  1.0500  0.6764  0.2503
 5482TIP3   OH238004   6.179   2.347   2.424  1.1588  0.7075  0.2481
 5482TIP3    H138005   6.089   2.348   2.458  1.1977  1.7609  0.3663
 5482TIP3    H238006   6.206   2.255   2.428  0.4222  0.5207  1.1119
 5483TIP3   OH238007   1.671   4.103   7.235 -0.1059  0.3055  1.1229
 5483TIP3    H138008   1.653   4.030   7.294 -1.3541 -1.1635 -0.9421
 5483TIP3    H238009   1.730   4.066   7.169 -1.8594  0.6719 -0.7536
 5484TIP3   OH238010   5.168   5.376   1.111  0.1491  0.3311  0.5183
 5484TIP3    H138011   5.124   5.418   1.185 -0.8645 -0.9994  0.7239
 5484TIP3    H238012   5.110   5.391   1.036 -0.3766 -0.8894  0.6561
 5485TIP3   OH238013   4.871   1.341   8.662 -0.0846  0.0179  0.7910
 5485TIP3    H138014   4.925   1.297   8.596 -0.5706  0.1031  0.3336
 5485TIP3    H238015   4.802   1.278   8.682 -1.0423  0.7243 -0.1879
 5486TIP3   OH238016   3.288   1.646   2.628 -0.2274 -0.1846  0.6523
 5486TIP3    H138017   3.194   1.652   2.612  0.0180 -1.4945 -1.6311
 5486TIP3    H238018   3.302   1.555   2.653  0.4121  0.0895  1.3204
 5487TIP3   OH238019   6.433   3.505   7.457  0.1086  0.5006  0.2166
 5487TIP3    H138020   6.464   3.431   7.404  1.4984  1.7343 -0.7868
 5487TIP3    H238021   6.363   3.544   7.404  0.9725  1.2700 -0.3957
 5488TIP3   OH238022   2.425   3.362   8.397  0.6630 -0.9475  0.0352
 5488TIP3    H138023   2.394   3.351   8.487  1.8942 -1.4572  0.4287
 5488TIP3    H238024   2.468   3.279   8.376  0.6657 -0.7197 -0.9155
 5489TIP3   OH238025   4.099   2.427   8.235  0.8740 -0.6245 -0.2977
 5489TIP3    H138026   4.159   2.395   8.168 -1.4891 -1.5325 -2.1303
 5489TIP3    H238027   4.094   2.356   8.299  0.7504 -1.1111 -0.8386
 5490TIP3   OH238028   2.584   2.635   0.772  0.7386 -0.4466  0.2479
 5490TIP3    H138029   2.578   2.722   0.811 -0.3414 -0.1230 -0.5532
 5490TIP3    H238030   2.675   2.627   0.744  0.7842  0.5555  0.0646
 5491TIP3   OH238031   5.878   4.846   1.560 -0.1316 -1.3069  0.1412
 5491TIP3    H138032   5.845   4.823   1.646  0.1577 -0.3234  0.5281
 5491TIP3    H238033   5.805   4.831   1.500 -0.9568 -0.1455  0.8351
 5492TIP3   OH238034   4.830   1.892   7.551 -0.2817 -0.1882 -0.5870
 5492TIP3    H138035   4.794   1.902   7.639 -2.4139 -0.1668 -1.3952
 5492TIP3    H238036   4.805   1.804   7.524  1.2987 -0.5999 -0.7952
 5493TIP3   OH238037   4.423   5.786   8.636  0.0629  0.2538 -0.1227
 5493TIP3    H138038   4.509   5.781   8.678 -0.9495  1.5745  2.3474
 5493TIP3    H238039   4.388   5.697   8.644  1.4037 -0.4664 -1.7607
 5494TIP3   OH238040   3.301   0.151   0.777  0.3314 -0.0967  0.4077
 5494TIP3    H138041   3.391   0.130   0.799 -0.0528 -0.4709  1.7326
 5494TIP3    H238042   3.252   0.071   0.797 -0.5274  0.6395  1.3514
 5495TIP3   OH238043   4.730   5.176   0.926  0.2628  0.5391 -0.0604
 5495TIP3    H138044   4.780   5.095   0.921 -0.8933 -0.3841  1.8375
 5495TIP3    H238045   4.795   5.246   0.931  1.2893 -0.3712 -0.6003
 5496TIP3   OH238046   1.408   0.820   8.362 -0.2505 -0.7583 -0.0060
 5496TIP3    H138047   1.421   0.764   8.285  0.4101 -1.5235  0.6538
 5496TIP3    H238048   1.449   0.773   8.434 -1.3273 -0.3042  0.9376
 5497TIP3   OH238049   2.344   0.503   7.806 -0.1186 -0.3618 -0.0035
 5497TIP3    H138050   2.319   0.595   7.816 -1.0771 -0.6720  0.5592
 5497TIP3    H238051   2.263   0.457   7.786  0.5105 -0.9599 -1.3061
 5498TIP3   OH238052   0.056   4.314   7.109 -0.1258 -0.0095 -0.2020
 5498TIP3    H138053   0.123   4.345   7.048 -0.7070  1.1070 -0.3081
 5498TIP3    H238054  -0.020   4.295   7.053 -0.8481  1.5589  0.1841
 5499TIP3   OH238055   0.683   5.514   2.041  0.2071 -0.3681 -0.9377
 5499TIP3    H138056   0.666   5.600   2.080 -0.0671  0.0293 -1.8800
 5499TIP3    H238057   0.672   5.452   2.112 -1.0370  0.2564 -0.5531
 5500TIP3   OH238058   0.567   0.814   7.324 -0.1011 -0.6104  0.0363
 5500TIP3    H138059   0.561   0.730   7.369 -2.6508  0.2809  1.5233
 5500TIP3    H238060   0.481   0.828   7.285  0.4444  1.0635 -0.7108
 5501TIP3   OH238061   0.819   0.083   0.973  0.0278 -0.2342 -0.0410
 5501TIP3    H138062   0.789  -0.006   0.957  1.7256 -0.6309 -1.3023
 5501TIP3    H238063   0.895   0.094   0.916  1.1964  1.2826  1.6629
 5502TIP3   OH238064   6.492   3.143   0.546  0.3261 -0.1734  0.3949
 5502TIP3    H138065   6.461   3.229   0.573  1.8951 -0.1288  2.3260
 5502TIP3    H238066   6.426   3.082   0.578  0.2422  0.1803  0.9091
 5503TIP3   OH238067   3.473   1.684   0.814 -0.5444 -0.1779 -0.2653
 5503TIP3    H138068   3.379   1.690   0.826 -0.1948 -0.6573  4.3846
 5503TIP3    H238069   3.502   1.774   0.799 -1.4741  0.5964  2.1681
 5504TIP3   OH238070   4.800   2.786   1.177 -0.1892 -0.5980  0.0929
 5504TIP3    H138071   4.758   2.723   1.236 -0.8312 -0.8462 -0.6154
 5504TIP3    H238072   4.890   2.755   1.168  0.6990  0.8046  2.8821
 5505TIP3   OH238073   0.326   0.258   1.132 -0.3094 -0.0395 -0.2279
 5505TIP3    H138074   0.413   0.226   1.107 -0.4360  0.3209 -1.2016
 5505TIP3    H238075   0.273   0.179   1.138 -0.6478 -0.0993 -2.7448
 5506TIP3   OH238076   6.830   0.232   2.034 -0.9031 -0.4059  0.2876
 5506TIP3    H138077   6.769   0.192   2.097  0.4432 -2.9415  0.1159
 5506TIP3    H238078   6.868   0.157   1.988  0.2010  1.2585 -1.6278
 5507TIP3   OH238079   0.427   3.081   2.822 -0.4397 -0.1164 -0.0224
 5507TIP3    H138080   0.468   2.999   2.795  0.5052  0.9896 -2.2419
 5507TIP3    H238081   0.365   3.101   2.752 -2.5203 -0.1337  1.7176
 5508TIP3   OH238082   1.412   2.649   8.598 -0.1027  0.6095 -0.0294
 5508TIP3    H138083   1.449   2.569   8.635 -0.2603 -0.0187 -1.1712
 5508TIP3    H238084   1.317   2.635   8.602 -0.1179  0.0065 -1.6987
 5509TIP3   OH238085   6.149   3.179   0.593 -0.0431  0.1001  0.1110
 5509TIP3    H138086   6.208   3.220   0.657 -0.7586 -0.7055  1.3182
 5509TIP3    H238087   6.175   3.087   0.592  1.7807  0.5117 -2.8352
 5510TIP3   OH238088   1.775   5.268   1.606 -0.4183 -0.6528 -0.0664
 5510TIP3    H138089   1.785   5.173   1.601  0.3715 -0.6071  0.4012
 5510TIP3    H238090   1.729   5.283   1.689  0.9657 -0.5577  0.7234
 5511TIP3   OH238091   6.097   3.892   2.482  0.3609  0.1425  0.4978
 5511TIP3    H138092   6.101   3.853   2.569  1.4326 -0.6929  0.0916
 5511TIP3    H238093   6.003   3.900   2.464  0.1213 -0.6927  1.2784
 5512TIP3   OH238094   0.840   3.643   8.141  0.2100 -0.1032  0.5155
 5512TIP3    H138095   0.751   3.639   8.175  0.1829  0.5391  0.5337
 5512TIP3    H238096   0.880   3.561   8.169 -0.6159 -0.7630 -0.1840
 5513TIP3   OH238097   4.835   0.010   8.651 -0.3946 -0.3347 -0.0759
 5513TIP3    H138098   4.757   0.048   8.690 -2.1971 -3.1911 -0.6494
 5513TIP3    H238099   4.837  -0.080   8.683  1.2644 -1.0821 -2.0543
 5514TIP3   OH238100   6.680   4.788   1.082 -0.0078  0.4528 -0.6840
 5514TIP3    H138101   6.640   4.871   1.109  1.0868  0.6649  0.3876
 5514TIP3    H238102   6.608   4.725   1.085 -0.4785  1.0035  0.2887
 5515TIP3   OH238103   2.659   5.187   8.047 -0.6000 -0.5145 -0.2594
 5515TIP3    H138104   2.656   5.270   7.999 -3.8730  1.7573  3.3018
 5515TIP3    H238105   2.743   5.188   8.091 -1.0451  1.6478  0.6834
 5516TIP3   OH238106   3.156   2.393   0.217 -0.2648  0.1833 -0.5695
 5516TIP3    H138107   3.109   2.457   0.271 -2.1526 -0.8637 -0.8881
 5516TIP3    H238108   3.247   2.404   0.242 -0.9261  0.4853  2.0653
 5517TIP3   OH238109   0.395   3.664   7.704 -0.1974 -0.1470  0.5575
 5517TIP3    H138110   0.412   3.749   7.745  3.2242 -0.9084  1.0440
 5517TIP3    H238111   0.352   3.685   7.621 -0.7414  1.9309  1.3023
 5518TIP3   OH238112   5.471   3.828   2.576  0.4431 -0.3785 -0.4687
 5518TIP3    H138113   5.390   3.843   2.625  1.0515  0.8355  0.1978
 5518TIP3    H238114   5.537   3.811   2.643  1.2885  1.2972 -0.8185
 5519TIP3   OH238115   3.897   0.328   1.915  0.0921  0.4761 -0.5357
 5519TIP3    H138116   3.804   0.341   1.933 -0.0477 -1.0842 -0.0342
 5519TIP3    H238117   3.899   0.292   1.826  0.2471  0.7896 -0.6614
 5520TIP3   OH238118   4.923   5.850   1.142 -0.2115  0.0466  0.5733
 5520TIP3    H138119   5.001   5.897   1.173 -0.7226  0.8869  0.6197
 5520TIP3    H238120   4.923   5.768   1.192  1.9360 -1.0940 -1.1103
 5521TIP3   OH238121   4.868   2.332   7.304 -0.3475 -0.0106  0.4809
 5521TIP3    H138122   4.858   2.391   7.229  1.0624  2.3502  2.0489
 5521TIP3    H238123   4.956   2.297   7.296 -0.2655  0.0883  0.9040
 5522TIP3   OH238124   1.577   2.425   8.154 -0.0360  0.1575 -0.7004
 5522TIP3    H138125   1.586   2.476   8.234  1.0661 -0.3545 -0.4719
 5522TIP3    H238126   1.485   2.398   8.152 -0.2774  0.9119 -0.0708
 5523TIP3   OH238127   6.353   1.412   6.719 -0.2425  0.3046  1.2379
 5523TIP3    H138128   6.315   1.454   6.796  1.3859  1.0562  1.6843
 5523TIP3    H238129   6.327   1.468   6.646  0.0753  0.8609  1.5456
 5524TIP3   OH238130   3.455   1.559   0.116  0.2573  0.6993  0.4459
 5524TIP3    H138131   3.485   1.627   0.176 -1.7071  0.7290  1.4749
 5524TIP3    H238132   3.404   1.500   0.171  2.6462 -2.2261 -0.1892
 5525TIP3   OH238133   6.011   2.566   0.958  0.6474 -0.2323 -0.3050
 5525TIP3    H138134   6.031   2.475   0.979 -0.6660 -1.1001 -2.4477
 5525TIP3    H238135   6.094   2.612   0.965  1.2710 -1.5090  1.1284
 5526TIP3   OH238136   4.817   5.159   2.599  0.5098 -0.3888  0.2336
 5526TIP3    H138137   4.869   5.091   2.556  1.9632 -0.0881  1.4233
 5526TIP3    H238138   4.800   5.123   2.686  0.2418  0.2544  0.4482
 5527TIP3   OH238139   3.836   4.881   0.538  0.1219 -0.0189  0.2840
 5527TIP3    H138140   3.823   4.837   0.622  1.9444  1.1119  1.2402
 5527TIP3    H238141   3.779   4.835   0.477  1.0507 -2.9568  1.4488
 5528TIP3   OH238142   5.321   6.055   7.989  0.5249  0.4131  0.0161
 5528TIP3    H138143   5.347   6.137   7.947  0.0060  1.1981  1.1823
 5528TIP3    H238144   5.231   6.041   7.958  0.8424 -0.0860 -0.7097
 5529TIP3   OH238145   6.618   6.863   1.508 -0.1375 -0.1561 -0.3567
 5529TIP3    H138146   6.589   6.936   1.563  0.7235  1.0553 -1.4682
 5529TIP3    H238147   6.609   6.786   1.565 -0.8766  0.8231  0.9123
 5530TIP3   OH238148   2.052   3.562   2.703  0.6010  0.4016  0.2684
 5530TIP3    H138149   2.055   3.496   2.773  0.6864 -1.2925 -1.2779
 5530TIP3    H238150   2.016   3.516   2.628  2.7238  1.4934 -1.5319
 5531TIP3   OH238151   0.626   2.891   0.402  0.1127 -0.2622  0.0645
 5531TIP3    H138152   0.610   2.827   0.332  1.0770 -0.1835 -0.2421
 5531TIP3    H238153   0.601   2.975   0.364  0.2517 -0.2729 -0.0527
 5532TIP3   OH238154   1.378   5.491   2.894  0.6505 -0.2464  0.3818
 5532TIP3    H138155   1.417   5.431   2.830  1.4577  0.7803 -0.1083
 5532TIP3    H238156   1.285   5.468   2.894  1.0073 -1.7960  0.5489
 5533TIP3   OH238157   3.370   5.331   7.732  0.2944  0.0924  0.1648
 5533TIP3    H138158   3.304   5.293   7.675  0.8377 -0.9578  0.2194
 5533TIP3    H238159   3.369   5.277   7.811  0.9751  0.2619  0.3019
 5534TIP3   OH238160   5.004   5.889   2.965 -0.5337  0.1169 -0.5157
 5534TIP3    H138161   4.978   5.966   2.914 -1.6420 -0.8293 -1.4291
 5534TIP3    H238162   4.998   5.816   2.903  0.7552 -0.6907  0.2573
 5535TIP3   OH238163   1.676   4.567   7.642  0.1582  0.0019 -0.7182
 5535TIP3    H138164   1.672   4.662   7.626 -1.2683  0.4085  1.5658
 5535TIP3    H238165   1.689   4.560   7.737  2.0398 -2.1282 -1.0570
 5536TIP3   OH238166   4.430   0.726   0.805 -0.3390 -0.1919 -0.7921
 5536TIP3    H138167   4.430   0.679   0.721 -0.6461 -1.4002 -0.1326
 5536TIP3    H238168   4.514   0.703   0.845 -1.0344 -1.2786  0.1069
 5537TIP3   OH238169   6.595   3.622   2.396 -0.3931  0.1674 -0.8897
 5537TIP3    H138170   6.500   3.607   2.397 -0.3217 -0.2834 -0.6594
 5537TIP3    H238171   6.606   3.701   2.450 -0.4954 -0.7332  0.5138
 5538TIP3   OH238172   6.249   2.417   1.981 -0.0714 -0.2514  0.0365
 5538TIP3    H138173   6.207   2.383   1.902 -1.9622  0.7888  0.5285
 5538TIP3    H238174   6.178   2.422   2.045  0.2893  3.4409  0.3418
 5539TIP3   OH238175   3.949   4.366   8.580  0.0271 -0.3483 -0.0725
 5539TIP3    H138176   3.956   4.448   8.533  2.0964  0.4038  1.4046
 5539TIP3    H238177   4.014   4.372   8.649  0.1962 -3.2074  0.1460
 5540TIP3   OH238178   5.841   6.367   0.242  0.0004 -0.4296 -0.5229
 5540TIP3    H138179   5.881   6.413   0.317 -1.0216 -0.3799  0.0048
 5540TIP3    H238180   5.804   6.437   0.188  1.2155 -0.4246 -1.3847
 5541TIP3   OH238181   5.777   0.987   0.617 -0.5098  0.1831  0.8242
 5541TIP3    H138182   5.696   1.033   0.641 -2.0194 -0.9356 -1.7297
 5541TIP3    H238183   5.798   1.019   0.530 -0.3057 -2.1876 -0.0673
 5542TIP3   OH238184   0.605   1.202   0.335  0.2421 -0.3256 -0.4348
 5542TIP3    H138185   0.637   1.126   0.285 -0.3504  0.1571 -1.5704
 5542TIP3    H238186   0.659   1.275   0.304  0.2936 -0.1298  0.1064
 5543TIP3   OH238187   1.873   4.621   8.337 -0.3577  0.1668 -0.3414
 5543TIP3    H138188   1.820   4.634   8.258 -1.9537  1.3818  0.8860
 5543TIP3    H238189   1.916   4.536   8.322 -0.9141  0.1748 -2.3329
 5544TIP3   OH238190   0.659   5.248   1.570  0.2465 -0.5005  0.2020
 5544TIP3    H138191   0.624   5.313   1.630  0.3851  0.2897 -0.5457
 5544TIP3    H238192   0.583   5.204   1.534  0.1344 -0.5389  0.4905
 5545TIP3   OH238193   3.120   6.646   0.427 -0.8122 -0.0903 -0.3425
 5545TIP3    H138194   3.149   6.570   0.478  0.1221  1.1393  1.0439
 5545TIP3    H238195   3.121   6.718   0.490 -1.4217  1.1374 -1.6939
 5546TIP3   OH238196   3.454   3.033   6.856 -0.1837  0.2126 -0.0275
 5546TIP3    H138197   3.376   3.081   6.828  0.6405  0.9684 -1.0976
 5546TIP3    H238198   3.437   2.942   6.830 -0.4322  0.4895 -0.8770
 5547TIP3   OH238199   4.023   1.950   1.003  0.1772  0.5249 -0.2257
 5547TIP3    H138200   3.944   1.914   1.044  0.6162  1.2587  1.3596
 5547TIP3    H238201   4.008   1.939   0.909 -0.5877 -1.8674  0.0925
 5548TIP3   OH238202   6.005   4.643   2.317  0.1930  0.1201  0.2018
 5548TIP3    H138203   5.914   4.649   2.347  0.0131  0.7897 -0.4642
 5548TIP3    H238204   6.004   4.679   2.228  1.1640  0.3934  0.2926
 5549TIP3   OH238205   4.381   3.184   0.598  0.1395  0.2058  0.0625
 5549TIP3    H138206   4.374   3.229   0.682 -2.1490  2.7727 -1.3231
 5549TIP3    H238207   4.346   3.097   0.615 -0.1695  0.6265  1.8035
 5550TIP3   OH238208   2.979   2.140   1.083 -0.3703  0.5687 -0.0044
 5550TIP3    H138209   3.033   2.129   1.161  0.1094 -0.1857 -0.4312
 5550TIP3    H238210   2.930   2.058   1.076  0.9237 -0.1418 -1.4774
 5551TIP3   OH238211   3.398   6.476   8.112  0.3076 -0.1451  0.4668
 5551TIP3    H138212   3.452   6.431   8.047 -0.5472  0.9868 -1.0703
 5551TIP3    H238213   3.368   6.405   8.170  2.5023 -0.9452  0.7473
 5552TIP3   OH238214   6.634   0.543   2.343 -0.7120 -0.9723 -0.2301
 5552TIP3    H138215   6.542   0.531   2.321 -0.9224  0.9339 -0.5425
 5552TIP3    H238216   6.677   0.556   2.258 -0.4662  0.0088  0.0371
 5553TIP3   OH238217   4.682   3.261   0.684 -0.2872 -0.1064  0.9048
 5553TIP3    H138218   4.644   3.314   0.754 -0.8445 -2.4155  2.4732
 5553TIP3    H238219   4.684   3.172   0.720 -1.4579 -1.5980 -2.3256
 5554TIP3   OH238220   1.159   0.756   1.816 -0.2622  0.1574 -0.0814
 5554TIP3    H138221   1.229   0.821   1.827 -1.5701  1.1772  3.7211
 5554TIP3    H238222   1.091   0.803   1.768 -0.2640  0.8657  0.5855
 5555TIP3   OH238223   5.681   4.205   7.103  0.5575 -0.2781  0.0809
 5555TIP3    H138224   5.596   4.184   7.143 -0.2898  2.5359 -0.0219
 5555TIP3    H238225   5.680   4.158   7.020 -0.0342 -1.8439  0.9314
 5556TIP3   OH238226   6.868   3.586   0.045 -0.5431  0.7126 -0.0267
 5556TIP3    H138227   6.901   3.576   0.134 -0.0766 -3.1467 -0.4573
 5556TIP3    H238228   6.926   3.650   0.005  2.1541 -0.7549  1.2395
 5557TIP3   OH238229   0.059   3.975   1.145 -0.4827 -0.2002  0.0364
 5557TIP3    H138230   0.079   4.000   1.055 -0.6926 -1.3729 -0.3527
 5557TIP3    H238231   0.078   4.053   1.197  1.0102  0.0473 -0.8382
 5558TIP3   OH238232   1.703   6.181   1.982  0.2769  0.7520  0.1145
 5558TIP3    H138233   1.736   6.270   1.969 -0.1811  0.7659 -1.0226
 5558TIP3    H238234   1.608   6.191   1.990  0.2420  0.3874  0.1691
 5559TIP3   OH238235   0.355   6.801   1.414 -0.2844  0.7186  0.4017
 5559TIP3    H138236   0.295   6.873   1.394 -0.0049  1.1038  0.9392
 5559TIP3    H238237   0.313   6.724   1.375 -1.1193  0.9896  0.7412
 5560TIP3   OH238238   6.849   5.183   8.207 -0.5152 -0.1175 -0.2979
 5560TIP3    H138239   6.889   5.202   8.122 -0.7132  1.3834 -0.0957
 5560TIP3    H238240   6.765   5.229   8.205 -1.4817 -1.8223 -0.0705
 5561TIP3   OH238241   6.203   3.708   0.022  0.2715 -0.2820  0.2117
 5561TIP3    H138242   6.146   3.760   0.080 -1.8135  1.5977 -3.2239
 5561TIP3    H238243   6.275   3.767   0.001 -0.3454  0.0739 -1.0355
 5562TIP3   OH238244   1.759   5.409   0.321 -0.5359 -0.3084  0.3489
 5562TIP3    H138245   1.757   5.498   0.287  0.6875 -1.0493 -1.9202
 5562TIP3    H238246   1.791   5.418   0.411 -2.0694  1.6266  0.7673
 5563TIP3   OH238247   5.477   2.607   2.500 -0.0121  0.2431 -0.8664
 5563TIP3    H138248   5.413   2.551   2.544 -0.9820  0.1437 -2.3383
 5563TIP3    H238249   5.560   2.560   2.508 -0.5546 -0.7431 -0.8833
 5564TIP3   OH238250   5.412   2.735   2.201 -0.2068 -0.5430 -0.7134
 5564TIP3    H138251   5.458   2.671   2.256  0.2278 -0.9354 -1.5094
 5564TIP3    H238252   5.460   2.817   2.214 -2.2394  0.3517  2.2681
 5565TIP3   OH238253   2.811   2.064   0.798  0.6156  0.0020  0.2182
 5565TIP3    H138254   2.756   2.121   0.852  1.0683  0.4065  0.2531
 5565TIP3    H238255   2.896   2.109   0.794  1.4391 -1.3533  1.4433
 5566TIP3   OH238256   2.569   2.387   8.234 -0.0582  0.0788  0.1265
 5566TIP3    H138257   2.518   2.374   8.153 -0.4696 -1.4767  0.5888
 5566TIP3    H238258   2.642   2.326   8.225  1.2251  1.5837 -0.0785
 5567TIP3   OH238259   2.096   4.341   1.001 -0.1343 -0.3228  0.2433
 5567TIP3    H138260   2.163   4.338   0.932 -1.4249 -0.4172 -1.0687
 5567TIP3    H238261   2.126   4.278   1.066  1.9223  0.8845  0.5721
 5568TIP3   OH238262   2.088   4.994   8.356  0.2142  0.4732 -0.5849
 5568TIP3    H138263   2.077   5.028   8.445  0.9060 -1.1186  0.1537
 5568TIP3    H238264   2.160   5.045   8.320 -0.5033  1.5836 -0.4799
 5569TIP3   OH238265   2.217   6.437   7.211 -0.1782 -0.4684 -0.1883
 5569TIP3    H138266   2.239   6.426   7.303  0.8568  0.0894 -0.3557
 5569TIP3    H238267   2.174   6.522   7.206 -0.6549 -0.7089 -0.1456
 5570TIP3   OH238268   5.430   1.213   7.761  0.1465 -0.0749 -0.4819
 5570TIP3    H138269   5.447   1.120   7.744  0.4600  0.2163 -1.9371
 5570TIP3    H238270   5.337   1.217   7.783  0.1978 -0.7629 -0.1058
 5571TIP3   OH238271   6.176   2.173   7.397 -0.2470 -0.0284  0.8972
 5571TIP3    H138272   6.175   2.215   7.311 -1.1713 -0.0486  0.8849
 5571TIP3    H238273   6.102   2.112   7.395  1.3006 -1.9887  0.7748
 5572TIP3   OH238274   2.878   1.695   1.568  0.0496  0.0539 -0.7204
 5572TIP3    H138275   2.818   1.703   1.494 -1.7453 -1.0669  0.5297
 5572TIP3    H238276   2.898   1.785   1.592 -2.9392  0.6039  0.1402
 5573TIP3   OH238277   3.106   5.730   2.150  0.0847 -0.6904 -0.1382
 5573TIP3    H138278   3.114   5.818   2.186 -1.5727 -0.4943 -0.1456
 5573TIP3    H238279   3.159   5.675   2.208 -1.0898 -0.0995  1.5686
 5574TIP3   OH238280   4.022   1.025   0.038  0.6923 -0.5784  0.2380
 5574TIP3    H138281   3.967   1.100   0.061 -0.3177 -1.1881 -0.0767
 5574TIP3    H238282   3.975   0.950   0.075  0.7116 -1.2382 -1.0417
 5575TIP3   OH238283   2.573   2.644   7.519 -0.1483 -0.0816  0.2663
 5575TIP3    H138284   2.612   2.730   7.508 -0.9616  0.2988  0.2931
 5575TIP3    H238285   2.589   2.599   7.436  0.9852 -0.1986  0.5427
 5576TIP3   OH238286   5.831   3.546   7.597  0.0694 -0.8652 -0.5156
 5576TIP3    H138287   5.851   3.547   7.690 -1.3110 -2.6511 -0.1415
 5576TIP3    H238288   5.859   3.632   7.565 -0.0428  0.0373  1.6614
 5577TIP3   OH238289   3.818   3.263   8.110  0.2741 -0.0858  0.0252
 5577TIP3    H138290   3.802   3.317   8.032  0.8170 -1.0680 -0.7924
 5577TIP3    H238291   3.894   3.304   8.152  1.0039 -0.4774 -0.8678
 5578TIP3   OH238292   6.440   2.385   7.960 -0.3379  0.7868  0.4731
 5578TIP3    H138293   6.419   2.292   7.950  1.6522  0.0963  1.9404
 5578TIP3    H238294   6.355   2.427   7.974 -1.4214 -0.5719 -1.5277
 5579TIP3   OH238295   4.200   1.600   0.236 -0.0099  0.1743 -0.2530
 5579TIP3    H138296   4.116   1.556   0.241 -0.3588  0.9292  0.8126
 5579TIP3    H238297   4.195   1.655   0.157 -0.8430  0.8603  0.2658
 5580TIP3   OH238298   4.206   6.781   7.018  0.0532  0.6233  0.3795
 5580TIP3    H138299   4.144   6.737   6.961  1.1368  0.8914 -1.0487
 5580TIP3    H238300   4.207   6.872   6.988  2.1563  0.3450 -0.6191
 5581TIP3   OH238301   2.650   6.308   1.818  0.4316 -0.1223 -0.6424
 5581TIP3    H138302   2.665   6.355   1.900 -1.9370 -1.6133  0.7709
 5581TIP3    H238303   2.723   6.246   1.812  1.2668  0.8142 -0.2977
 5582TIP3   OH238304   3.474   3.314   7.302 -0.3214 -0.3772 -0.0227
 5582TIP3    H138305   3.531   3.374   7.255 -3.4746  2.5864 -0.4386
 5582TIP3    H238306   3.444   3.252   7.236  0.3361 -0.3473 -0.3618
 5583TIP3   OH238307   3.684   6.014   2.332  0.4742 -0.4571  0.2026
 5583TIP3    H138308   3.701   5.926   2.367  1.4530  0.6258  2.7493
 5583TIP3    H238309   3.646   6.061   2.406  0.1776  1.3292 -1.0466
 5584TIP3   OH238310   3.093   4.204   8.083 -0.9382 -0.3310  0.4886
 5584TIP3    H138311   3.067   4.274   8.143 -0.1983  1.1574 -0.8565
 5584TIP3    H238312   3.189   4.209   8.081 -0.9417 -0.4619 -0.6668
 5585TIP3   OH238313   0.398   0.770   2.648  0.2822 -0.3340  0.5595
 5585TIP3    H138314   0.312   0.750   2.685 -0.5693  1.7365 -0.1658
 5585TIP3    H238315   0.460   0.744   2.716 -1.0059 -0.4318  1.7316
 5586TIP3   OH238316   0.672   6.816   8.642  0.2155  0.2546  0.3105
 5586TIP3    H138317   0.716   6.747   8.593 -1.1492  0.0854 -0.7494
 5586TIP3    H238318   0.716   6.818   8.727  2.0852 -0.0470 -0.5962
 5587TIP3   OH238319   5.759   0.619   0.859  0.1535  0.1348  0.3598
 5587TIP3    H138320   5.795   0.536   0.893  1.1720 -0.3324 -1.7327
 5587TIP3    H238321   5.834   0.663   0.819 -1.1694  0.0959 -2.3162
 5588TIP3   OH238322   5.578   2.158   0.673  0.2616 -0.0950 -0.3387
 5588TIP3    H138323   5.619   2.197   0.596 -0.1830 -2.5002 -1.8995
 5588TIP3    H238324   5.650   2.144   0.734  1.0473 -0.2805 -1.2840
 5589TIP3   OH238325   2.128   6.380   0.046  0.0293  0.6103  0.4474
 5589TIP3    H138326   2.056   6.425   0.089  0.2684  0.5769  0.8839
 5589TIP3    H238327   2.202   6.440   0.053 -0.3816  1.4305 -1.5681
 5590TIP3   OH238328   0.832   5.719   1.716 -0.7932  0.4573  0.1495
 5590TIP3    H138329   0.737   5.722   1.708 -0.6533  1.6597 -1.4904
 5590TIP3    H238330   0.862   5.804   1.684  0.9396 -0.6623 -1.4147
 5591TIP3   OH238331   3.903   0.701   1.462 -0.4344  0.3848  0.1345
 5591TIP3    H138332   3.950   0.778   1.492 -0.0898  0.7166 -1.1964
 5591TIP3    H238333   3.811   0.719   1.484 -0.0371 -0.2167  2.6400
 5592TIP3   OH238334   4.965   1.368   7.259 -0.8591  0.2309 -0.0166
 5592TIP3    H138335   5.040   1.352   7.202 -1.6173  0.7735 -1.1788
 5592TIP3    H238336   4.977   1.458   7.290 -2.0244  1.0364 -1.7757
 5593TIP3   OH238337   5.813   5.826   0.230 -0.1634  0.3291  0.3129
 5593TIP3    H138338   5.818   5.921   0.239  0.9073  0.3481 -0.4041
 5593TIP3    H238339   5.903   5.797   0.217 -0.5006 -0.7616  0.2584
 5594TIP3   OH238340   2.332   1.881   2.773 -0.5289  0.1373  0.5202
 5594TIP3    H138341   2.272   1.853   2.703  0.8778 -0.1986 -0.5989
 5594TIP3    H238342   2.358   1.800   2.816 -0.4291  0.2270  0.6285
 5595TIP3   OH238343   4.566   4.315   7.738 -0.3705 -0.2768 -0.0124
 5595TIP3    H138344   4.593   4.224   7.736 -0.5945 -0.4747  2.4909
 5595TIP3    H238345   4.648   4.365   7.730 -0.0001 -0.7645  0.5994
 5596TIP3   OH238346   0.582   5.748   7.561 -0.2867  0.0636  0.0267
 5596TIP3    H138347   0.566   5.821   7.501  0.9835 -0.2766 -0.7697
 5596TIP3    H238348   0.508   5.690   7.549 -1.3602  1.2295  0.7231
 5597TIP3   OH238349   4.743   4.297   0.518  0.0718  0.0303 -0.1683
 5597TIP3    H138350   4.700   4.225   0.472  0.5336 -0.7425  0.5817
 5597TIP3    H238351   4.830   4.303   0.477 -0.1691  0.5418 -0.6125
 5598TIP3   OH238352   6.206   6.261   0.587 -0.3448  0.1708  0.0637
 5598TIP3    H138353   6.203   6.258   0.683 -2.7101  0.2777  0.0416
 5598TIP3    H238354   6.187   6.171   0.560 -1.4942  0.5062 -0.2879
 5599TIP3   OH238355   4.120   0.091   1.845 -0.4024  0.4603 -0.2629
 5599TIP3    H138356   4.147   0.164   1.901 -1.2819  1.6433 -1.3263
 5599TIP3    H238357   4.060   0.130   1.781 -1.8475 -1.4048 -0.1441
 5600TIP3   OH238358   0.388   3.484   0.893  0.6698  0.1039 -0.1218
 5600TIP3    H138359   0.325   3.555   0.911  0.3744 -0.5519  1.6655
 5600TIP3    H238360   0.342   3.427   0.831  1.1870  1.7834 -2.1619
 5601TIP3   OH238361   1.821   0.144   7.377  0.5591 -0.4231 -0.4784
 5601TIP3    H138362   1.731   0.166   7.401  1.0343  0.2224  0.7790
 5601TIP3    H238363   1.814   0.058   7.336 -0.4864 -0.9125  0.6598
 5602TIP3   OH238364   4.674   1.150   0.000 -0.5497 -0.4610  0.4406
 5602TIP3    H138365   4.744   1.089  -0.021 -0.2529 -0.1848  0.6189
 5602TIP3    H238366   4.614   1.099   0.055 -0.9514 -0.9594 -0.4406
 5603TIP3   OH238367   1.329   4.933   8.003 -0.2044  0.7963 -0.4057
 5603TIP3    H138368   1.418   4.900   8.014 -0.5213 -0.4845 -1.4815
 5603TIP3    H238369   1.273   4.857   8.021 -0.9820  0.8532 -2.3574
 5604TIP3   OH238370   4.415   4.024   2.835  0.0588 -0.2902 -0.1582
 5604TIP3    H138371   4.326   4.055   2.856 -0.5569 -0.7797 -1.8435
 5604TIP3    H238372   4.463   4.104   2.813  0.0398 -0.0217  0.7521
 5605TIP3   OH238373   0.549   4.952   7.410 -0.2118  0.6030  0.0846
 5605TIP3    H138374   0.641   4.932   7.391 -0.2893  0.0538  0.2862
 5605TIP3    H238375   0.521   4.883   7.470 -1.5126 -0.7269 -1.9652
 5606TIP3   OH238376   1.823   0.440   0.024  0.3936 -0.1163 -0.2296
 5606TIP3    H138377   1.823   0.349   0.052 -0.7357  0.0255  0.2876
 5606TIP3    H238378   1.777   0.439  -0.061  2.0060 -0.2646 -1.1324
 5607TIP3   OH238379   5.255   5.996   1.785 -0.1450  0.2646 -0.0821
 5607TIP3    H138380   5.270   5.978   1.878 -1.9768  0.6232  0.3220
 5607TIP3    H238381   5.244   5.909   1.746  2.6900 -0.0198 -0.4115
 5608TIP3   OH238382   2.777   5.449   8.506  0.4123  0.3395  0.3596
 5608TIP3    H138383   2.739   5.463   8.593  0.8209  1.1466  0.4158
 5608TIP3    H238384   2.857   5.501   8.506 -0.6841  2.1603 -1.2394
 5609TIP3   OH238385   2.861   6.496   7.569 -0.5247 -0.1062 -0.0923
 5609TIP3    H138386   2.770   6.466   7.563 -1.1355  1.6501 -0.1152
 5609TIP3    H238387   2.866   6.540   7.654  0.8315 -1.7123  0.7262
 5610TIP3   OH238388   3.538   2.640   0.515  0.9357  0.1207 -0.2058
 5610TIP3    H138389   3.547   2.706   0.447 -1.0102  1.8308  1.0606
 5610TIP3    H238390   3.487   2.570   0.473  1.5893  0.1626 -1.0940
 5611TIP3   OH238391   1.018   6.150   8.408  0.6089 -0.2240 -0.1320
 5611TIP3    H138392   0.932   6.151   8.367  1.0807  0.5152 -1.1545
 5611TIP3    H238393   1.079   6.129   8.337  1.6397  2.8394 -0.3234
 5612TIP3   OH238394   1.484   5.907   1.909 -0.2760 -0.0316 -0.1629
 5612TIP3    H138395   1.547   5.881   1.976 -0.0375 -0.1758 -0.4448
 5612TIP3    H238396   1.417   5.839   1.911  0.0983 -0.4170 -0.5636
 5613TIP3   OH238397   3.527   4.974   7.007  0.5946  0.2398  0.0646
 5613TIP3    H138398   3.466   5.039   7.041  1.2552  1.1397 -0.4219
 5613TIP3    H238399   3.476   4.924   6.943 -0.6176 -1.3737  2.1534
 5614TIP3   OH238400   4.334   0.914   7.244 -0.0143 -0.0062  0.1789
 5614TIP3    H138401   4.267   0.847   7.230  0.4380 -0.7367  1.3616
 5614TIP3    H238402   4.286   0.997   7.245 -1.2028 -0.6484  2.7299
 5615TIP3   OH238403   3.500   6.883   8.184 -0.6884  0.2121  0.2314
 5615TIP3    H138404   3.441   6.833   8.240 -0.1580  0.3546  0.9353
 5615TIP3    H238405   3.563   6.818   8.153  0.3413  0.5084  1.6016
 5616TIP3   OH238406   0.251   3.326   1.248 -0.0048 -0.0231 -0.0998
 5616TIP3    H138407   0.223   3.235   1.256  1.8652 -0.7594 -1.3045
 5616TIP3    H238408   0.297   3.344   1.330  2.1247 -1.1763 -0.9441
 5617TIP3   OH238409   1.935   5.534   8.623 -0.2130 -0.5733 -0.0073
 5617TIP3    H138410   1.992   5.490   8.687 -0.0873 -0.6801 -0.1918
 5617TIP3    H238411   1.987   5.608   8.592 -0.6057 -0.0113  0.6529
 5618TIP3   OH238412   1.929   4.302   7.848 -0.2092 -0.0894 -0.6257
 5618TIP3    H138413   1.960   4.381   7.803 -0.4101  0.3267 -0.0407
 5618TIP3    H238414   1.961   4.230   7.794  0.6049  0.3704 -0.7739
 5619TIP3   OH238415   1.482   3.403   7.982 -0.2396 -0.7551 -0.5827
 5619TIP3    H138416   1.390   3.378   7.983  0.1954 -2.6723  2.3673
 5619TIP3    H238417   1.488   3.474   8.046  0.3160 -0.5173 -0.8922
 5620TIP3   OH238418   6.410   0.170   7.328  0.6005  0.1414 -0.0647
 5620TIP3    H138419   6.375   0.214   7.406  1.3223  1.8301 -0.6402
 5620TIP3    H238420   6.338   0.175   7.265  0.5254  0.0765  0.0141
 5621TIP3   OH238421   6.763   0.217   2.882 -0.6260 -0.0665  0.6884
 5621TIP3    H138422   6.788   0.239   2.972  0.1149 -3.1720  1.3698
 5621TIP3    H238423   6.786   0.294   2.831  2.1749  0.5533  2.6610
 5622TIP3   OH238424   3.820   4.869   0.202  0.1818  0.2335 -0.1648
 5622TIP3    H138425   3.731   4.905   0.199  0.4626  0.8785 -1.2814
 5622TIP3    H238426   3.869   4.930   0.258  0.3252  0.8344 -0.9365
 5623TIP3   OH238427   6.871   5.058   1.765 -0.1839 -0.4151 -1.0169
 5623TIP3    H138428   6.909   5.145   1.780 -0.9905 -0.0607 -0.9219
 5623TIP3    H238429   6.780   5.067   1.794 -0.5783 -0.9853 -2.0289
 5624TIP3   OH238430   5.816   6.245   7.669 -0.3115 -0.0157  0.5730
 5624TIP3    H138431   5.845   6.166   7.714 -0.2062  0.3734  1.2056
 5624TIP3    H238432   5.742   6.217   7.615  0.1431 -0.6717  0.2874
 5625TIP3   OH238433   4.819   6.406   2.229 -0.5867  0.1378  0.4229
 5625TIP3    H138434   4.792   6.458   2.154  1.4826 -0.6659 -0.9780
 5625TIP3    H238435   4.910   6.431   2.244 -1.4068  1.6203  3.9119
 5626TIP3   OH238436   1.424   6.477   0.993  0.1851 -0.4164 -0.7751
 5626TIP3    H138437   1.495   6.413   1.003 -1.8443 -3.2635 -3.0226
 5626TIP3    H238438   1.460   6.542   0.931  1.8391 -0.0078  0.5341
 5627TIP3   OH238439   6.790   4.576   8.067  0.1877 -0.7823  0.4687
 5627TIP3    H138440   6.819   4.485   8.073 -2.2344 -1.6526  0.0134
 5627TIP3    H238441   6.766   4.599   8.157  1.3222 -0.3793  0.6808
 5628TIP3   OH238442   2.540   4.823   8.329  0.0539 -0.2059 -0.3155
 5628TIP3    H138443   2.568   4.914   8.337  1.3286 -0.2301 -3.2037
 5628TIP3    H238444   2.485   4.822   8.251 -0.7007 -1.7814  0.1968
 5629TIP3   OH238445   0.434   5.143   2.422 -0.3674 -0.1484  0.7786
 5629TIP3    H138446   0.420   5.199   2.499 -2.0324 -1.3533  1.4430
 5629TIP3    H238447   0.347   5.107   2.403  0.3565 -1.3255 -0.5345
 5630TIP3   OH238448   3.616   2.368   7.775  0.5663  0.3027 -0.3424
 5630TIP3    H138449   3.708   2.349   7.757 -0.4840 -2.8979 -3.4535
 5630TIP3    H238450   3.591   2.430   7.707  0.5861  2.1901  1.2687
 5631TIP3   OH238451   3.487   1.863   1.854 -0.6544  0.2886  0.3789
 5631TIP3    H138452   3.397   1.884   1.879 -0.9910  0.5138 -0.9567
 5631TIP3    H238453   3.501   1.911   1.772  0.9087  0.7872  0.8994
 5632TIP3   OH238454   5.342   4.478   0.016 -0.1966 -0.5845 -0.0155
 5632TIP3    H138455   5.385   4.512  -0.063 -1.4226  0.2328 -0.3598
 5632TIP3    H238456   5.259   4.443  -0.016 -0.9717  0.2912  0.9803
 5633TIP3   OH238457   1.310   2.406   2.097  0.4341 -0.0818  0.8944
 5633TIP3    H138458   1.298   2.329   2.152  1.2009 -0.9171 -0.0428
 5633TIP3    H238459   1.365   2.374   2.025 -0.9112  0.8324 -0.5947
 5634TIP3   OH238460   0.013   0.842   0.780  0.2885  0.4142 -0.7436
 5634TIP3    H138461   0.043   0.911   0.721  0.7880 -0.3288 -1.3771
 5634TIP3    H238462  -0.071   0.813   0.744 -0.5030  1.4824  0.1922
 5635TIP3   OH238463   4.978   0.889   0.334 -0.0515 -0.8102  0.4177
 5635TIP3    H138464   5.051   0.950   0.348 -0.2925 -0.1983 -0.8828
 5635TIP3    H238465   4.902   0.945   0.322 -0.6553 -1.4330  1.1913
 5636TIP3   OH238466   0.422   4.313   8.315 -0.0912 -0.3657  0.3891
 5636TIP3    H138467   0.498   4.303   8.257 -0.2284  0.8598 -0.0361
 5636TIP3    H238468   0.452   4.373   8.383 -1.1147  1.4160 -0.6562
 5637TIP3   OH238469   1.241   5.644   2.308 -0.7120  0.2021  0.0475
 5637TIP3    H138470   1.315   5.705   2.311 -0.0387 -0.6185  0.7629
 5637TIP3    H238471   1.224   5.632   2.215  0.4768 -0.0781 -0.1549
 5638TIP3   OH238472   1.924   2.403   7.804  0.2937  0.3318  0.0118
 5638TIP3    H138473   2.018   2.401   7.785  0.4062  2.1376  0.2126
 5638TIP3    H238474   1.909   2.491   7.838 -1.0983 -0.6324  2.0433
 5639TIP3   OH238475   5.421   4.572   1.880  0.2254 -0.9429  0.6637
 5639TIP3    H138476   5.368   4.636   1.928 -1.6076 -3.7327  2.5926
 5639TIP3    H238477   5.507   4.576   1.921  0.6677  1.2436 -0.2760
 5640TIP3   OH238478   3.852   0.992   0.346 -0.0542  0.1253 -0.1111
 5640TIP3    H138479   3.797   0.915   0.336 -1.7562  1.4310 -1.2593
 5640TIP3    H238480   3.942   0.959   0.337 -0.6647 -1.8764  0.6869
 5641TIP3   OH238481   2.399   1.720   0.175  0.3870 -0.0185 -0.5860
 5641TIP3    H138482   2.483   1.763   0.158  0.1054 -0.1311 -2.5406
 5641TIP3    H238483   2.397   1.647   0.113 -0.2980 -1.2657  0.8461
 5642TIP3   OH238484   5.245   2.725   0.632 -0.3137  0.2703 -0.0220
 5642TIP3    H138485   5.168   2.761   0.676 -0.1222  0.7303 -0.0562
 5642TIP3    H238486   5.221   2.635   0.611 -1.7062  1.0438 -2.0941
 5643TIP3   OH238487   1.155   5.147   8.264  0.0871 -0.4620 -0.3263
 5643TIP3    H138488   1.225   5.185   8.210  0.1833 -0.8352 -0.4697
 5643TIP3    H238489   1.077   5.150   8.208 -0.1105  0.3276 -0.0208
 5644TIP3   OH238490   2.536   5.392   0.195 -0.0488 -0.5057  0.4327
 5644TIP3    H138491   2.580   5.437   0.123  1.9056 -4.1015 -0.8628
 5644TIP3    H238492   2.478   5.458   0.233 -1.1194  1.6892 -4.3143
 5645TIP3   OH238493   3.628   0.459   1.920 -0.3368  0.4643  0.4365
 5645TIP3    H138494   3.651   0.537   1.869 -0.4587  1.2556  1.5569
 5645TIP3    H238495   3.566   0.490   1.985 -1.3190 -0.8247  0.1551
 5646TIP3   OH238496   6.639   3.661   1.495 -0.3790 -0.5876 -0.1337
 5646TIP3    H138497   6.711   3.724   1.497 -0.5129 -0.4259 -0.3482
 5646TIP3    H238498   6.643   3.616   1.579 -0.4271 -0.1281  0.1134
 5647TIP3   OH238499   0.875   5.436   7.507  0.6839  0.1769  0.1225
 5647TIP3    H138500   0.940   5.388   7.456 -0.3784 -1.3436  0.1326
 5647TIP3    H238501   0.827   5.487   7.442  0.2025 -0.7178 -0.2347
 5648TIP3   OH238502   5.557   3.421   7.933  0.0545  0.4621  0.2000
 5648TIP3    H138503   5.614   3.391   8.004 -0.7124 -0.3971  0.4602
 5648TIP3    H238504   5.611   3.411   7.854  0.0747 -0.9391  0.3651
 5649TIP3   OH238505   4.744   0.582   8.268 -0.3101  0.0624  0.0562
 5649TIP3    H138506   4.806   0.509   8.269 -0.6558 -0.2706 -1.2220
 5649TIP3    H238507   4.739   0.611   8.359  0.4519 -0.9784  0.4408
 5650TIP3   OH238508   2.481   1.374   0.666  0.0595  0.6003  0.0988
 5650TIP3    H138509   2.526   1.324   0.597  0.1007  0.1707  0.4298
 5650TIP3    H238510   2.388   1.364   0.645  0.0959  1.0170 -0.2650
 5651TIP3   OH238511   5.354   0.619   2.450  0.5711 -0.4313  0.7437
 5651TIP3    H138512   5.388   0.707   2.459  0.7998 -0.4976  0.5226
 5651TIP3    H238513   5.271   0.629   2.403  1.8243 -0.5604 -1.6622
 5652TIP3   OH238514   4.084   4.867   0.413 -0.5105  0.4238 -0.3636
 5652TIP3    H138515   4.130   4.784   0.428  0.9053  1.1488 -0.4868
 5652TIP3    H238516   4.001   4.857   0.459  0.2939 -0.4762  0.9732
 5653TIP3   OH238517   1.961   0.778   2.907 -0.1124  0.3541  0.1151
 5653TIP3    H138518   2.019   0.704   2.887 -0.3825  0.2734 -0.3908
 5653TIP3    H238519   2.020   0.847   2.937  0.2395  0.2495 -0.3222
 5654TIP3   OH238520   2.925   2.955   1.260 -0.0529  0.1534  0.2160
 5654TIP3    H138521   2.877   2.903   1.324  0.7566  0.2927  0.9482
 5654TIP3    H238522   3.017   2.934   1.276  0.1202 -0.8745 -1.8175
 5655TIP3   OH238523   2.696   3.444   0.957  0.0946  0.0118 -0.2735
 5655TIP3    H138524   2.772   3.458   1.014  1.2835  1.9072 -2.1886
 5655TIP3    H238525   2.703   3.353   0.930  1.7684  0.1927 -0.5076
 5656TIP3   OH238526   4.181   0.961   1.455 -0.0501 -0.2048  0.2705
 5656TIP3    H138527   4.225   1.040   1.486  0.4284  0.3074 -1.5909
 5656TIP3    H238528   4.100   0.992   1.415  0.1253 -0.6391 -0.4430
 5657TIP3   OH238529   3.858   6.836   7.082  0.4690 -0.0958 -0.1718
 5657TIP3    H138530   3.777   6.829   7.030  0.0704 -0.4542  0.4861
 5657TIP3    H238531   3.927   6.806   7.023 -0.0676 -1.1358 -0.2977
 5658TIP3   OH238532   2.074   2.835   1.584  0.0404  0.1999 -0.4081
 5658TIP3    H138533   2.154   2.786   1.564 -0.2276 -0.6308  0.4565
 5658TIP3    H238534   2.096   2.926   1.563  1.7913  0.2532  1.3073
 5659TIP3   OH238535   2.880   4.483   1.613 -0.0648  0.0203 -0.3728
 5659TIP3    H138536   2.955   4.542   1.617  0.1891 -0.3651  0.9063
 5659TIP3    H238537   2.900   4.424   1.540  1.6536 -1.0837  0.9211
 5660TIP3   OH238538   2.652   1.494   1.651  0.2473 -0.2954 -0.1364
 5660TIP3    H138539   2.576   1.547   1.626  0.4793 -0.1771 -0.5960
 5660TIP3    H238540   2.725   1.555   1.650  0.5449 -0.6625 -0.8367
 5661TIP3   OH238541   2.512   1.704   2.489 -0.5304 -0.1696  0.1304
 5661TIP3    H138542   2.566   1.625   2.486 -1.4723 -0.8343  0.0855
 5661TIP3    H238543   2.434   1.681   2.439 -0.8307  0.7906  0.1395
 5662TIP3   OH238544   1.651   3.400   8.448 -0.7793  0.2671  0.1376
 5662TIP3    H138545   1.740   3.435   8.447 -0.6981  0.0750  0.4972
 5662TIP3    H238546   1.657   3.322   8.503 -1.4636  1.0398  1.3563
 5663TIP3   OH238547   3.317   5.530   1.415  0.2381 -0.2638 -0.2094
 5663TIP3    H138548   3.289   5.453   1.366  0.0910 -0.3246 -0.0302
 5663TIP3    H238549   3.315   5.502   1.507 -0.4674  0.1578 -0.0924
 5664TIP3   OH238550   2.988   4.607   8.380  0.0983 -0.5764 -0.1917
 5664TIP3    H138551   3.009   4.689   8.335  1.5093 -1.7088 -1.7018
 5664TIP3    H238552   3.064   4.551   8.365 -1.4222 -2.6794 -0.4478
 5665TIP3   OH238553   1.918   5.371   2.172  0.0747  0.4462 -0.2022
 5665TIP3    H138554   1.991   5.379   2.111  0.5206  2.2799  0.5142
 5665TIP3    H238555   1.959   5.365   2.258 -0.5928  2.1201  0.2661
 5666TIP3   OH238556   3.870   4.268   1.680  0.1942  0.2665  0.3819
 5666TIP3    H138557   3.860   4.188   1.628 -0.8954  0.0430  0.9071
 5666TIP3    H238558   3.860   4.339   1.617 -0.5290 -0.0108  0.1715
 5667TIP3   OH238559   0.965   6.624   2.020 -0.3405 -0.1254  0.1471
 5667TIP3    H138560   1.013   6.555   2.066  0.6381 -1.1182 -2.1917
 5667TIP3    H238561   0.964   6.698   2.081  3.5382 -0.3120  0.6430
 5668TIP3   OH238562   4.919   0.177   7.885 -0.0519 -0.0845  0.2930
 5668TIP3    H138563   4.847   0.155   7.944 -0.5786 -3.6158 -1.4491
 5668TIP3    H238564   4.997   0.170   7.940 -0.7546  0.6262  1.4405
 5669TIP3   OH238565   2.282   2.670   1.809 -0.1911 -0.2647  0.3077
 5669TIP3    H138566   2.263   2.584   1.772 -0.5172 -0.3574  0.6788
 5669TIP3    H238567   2.254   2.663   1.901  0.4342  0.0156  0.5230
 5670TIP3   OH238568   6.673   0.716   8.335  0.1813 -0.2305 -0.1168
 5670TIP3    H138569   6.638   0.675   8.414 -0.2260  0.1808 -0.0849
 5670TIP3    H238570   6.616   0.685   8.265  1.4938 -1.8992 -0.5173
 5671TIP3   OH238571   1.952   3.156   1.652  0.0411  0.1885 -0.7010
 5671TIP3    H138572   1.939   3.251   1.650  0.0264  0.1694 -1.8729
 5671TIP3    H238573   1.977   3.133   1.563 -1.5817 -1.1248 -0.8639
 5672TIP3   OH238574   2.075   6.176   1.866 -0.2969 -0.2754 -0.2662
 5672TIP3    H138575   2.151   6.220   1.905 -0.3933 -0.4121  0.0746
 5672TIP3    H238576   2.049   6.110   1.930 -0.8727 -0.0481 -0.2571
 5673TIP3   OH238577   4.437   5.452   0.209  0.1099 -0.1657 -0.0622
 5673TIP3    H138578   4.349   5.489   0.207 -0.0720 -0.4019  1.6568
 5673TIP3    H238579   4.469   5.460   0.119 -0.7167  2.1694 -0.2131
 5674TIP3   OH238580   5.022   1.612   6.516 -0.1118 -0.3845 -0.2462
 5674TIP3    H138581   5.056   1.528   6.485 -0.6799 -1.3811  1.6549
 5674TIP3    H238582   5.100   1.663   6.537  0.2400 -0.4178 -1.3930
 5675TIP3   OH238583   4.570   2.825   0.880  0.5279  0.3635 -0.1657
 5675TIP3    H138584   4.519   2.904   0.897  1.3265  0.7563  0.5054
 5675TIP3    H238585   4.581   2.785   0.966  0.8793 -0.0071 -0.3778
 5676TIP3   OH238586   0.440   2.031   0.013 -0.0779 -0.9043 -0.0996
 5676TIP3    H138587   0.491   2.031   0.094 -0.1080 -1.1972 -0.0800
 5676TIP3    H238588   0.467   1.951  -0.032  0.5014 -0.3626 -0.7350
 5677TIP3   OH238589   6.882   0.123   2.495 -0.5039 -0.6170 -0.1169
 5677TIP3    H138590   6.835   0.074   2.563  0.6642  0.0076  1.1812
 5677TIP3    H238591   6.974   0.112   2.517 -0.1728  1.5852 -0.1632
 5678TIP3   OH238592   5.691   2.097   8.051  0.1366 -0.4155 -0.2782
 5678TIP3    H138593   5.646   2.161   8.105  1.3134 -0.0855  0.3594
 5678TIP3    H238594   5.774   2.082   8.097  0.9001 -0.5933 -1.6622
 5679TIP3   OH238595   6.563   0.228   1.232  0.5898 -0.2920 -0.1613
 5679TIP3    H138596   6.551   0.278   1.312  0.6846 -0.0562 -0.2941
 5679TIP3    H238597   6.483   0.243   1.181 -0.4720 -2.1702  0.8031
 5680TIP3   OH238598   4.793   3.099   0.470 -0.0365 -0.7800  0.6308
 5680TIP3    H138599   4.732   3.171   0.450  0.2910 -0.6180  0.2129
 5680TIP3    H238600   4.855   3.137   0.532  0.5489 -0.4957 -0.1213
 5681TIP3   OH238601   5.618   6.232   8.456  0.1509  0.3431  0.0116
 5681TIP3    H138602   5.599   6.320   8.490  0.0690 -0.3031  1.7738
 5681TIP3    H238603   5.555   6.175   8.502  0.6921 -0.7281 -0.5416
 5682TIP3   OH238604   0.855   0.778   2.027  0.8074  0.5120 -0.0063
 5682TIP3    H138605   0.836   0.756   2.118  1.3361  1.1881  0.2702
 5682TIP3    H238606   0.950   0.785   2.023  0.8123  0.1727 -0.6889
 5683TIP3   OH238607   0.154   0.424   7.740 -0.6637  0.4950  0.7948
 5683TIP3    H138608   0.090   0.355   7.723 -0.3311  0.7712 -2.1176
 5683TIP3    H238609   0.145   0.483   7.666  1.3747  1.7942  1.5057
 5684TIP3   OH238610   5.854   5.873   1.326 -0.4806 -0.1344  0.5805
 5684TIP3    H138611   5.842   5.965   1.305  0.9386 -0.0961 -0.1605
 5684TIP3    H238612   5.771   5.832   1.299 -0.1156  0.4999 -1.7539
 5685TIP3   OH238613   6.735   6.511   0.667  0.2477 -0.2886 -0.2839
 5685TIP3    H138614   6.772   6.581   0.719  1.6682 -0.5753 -0.8763
 5685TIP3    H238615   6.640   6.522   0.676  0.4406  1.4998 -0.1253
 5686TIP3   OH238616   3.689   0.054   2.833  0.3519  0.0955  0.1435
 5686TIP3    H138617   3.602   0.044   2.873  1.2340 -1.4064  1.8397
 5686TIP3    H238618   3.705  -0.030   2.790  1.0233  0.2942  0.0021
 5687TIP3   OH238619   1.268   5.453   1.990 -0.5129 -0.3516  0.6860
 5687TIP3    H138620   1.226   5.410   1.915  1.0065  0.0227 -0.4185
 5687TIP3    H238621   1.302   5.535   1.954  0.6230 -0.3664  1.6871
 5688TIP3   OH238622   0.295   5.921   0.322  0.8201  0.2811  0.4708
 5688TIP3    H138623   0.338   5.953   0.401  1.4465 -1.1221  0.7121
 5688TIP3    H238624   0.202   5.937   0.337  0.9511  0.2254  1.3970
 5689TIP3   OH238625   5.480   4.320   1.098 -0.0109 -0.5246 -0.0572
 5689TIP3    H138626   5.455   4.366   1.178  0.0301  0.0535 -0.3784
 5689TIP3    H238627   5.568   4.353   1.077  0.3689 -1.3488  0.1626
 5690TIP3   OH238628   1.107   3.027   2.206  0.8625 -0.2571 -0.0187
 5690TIP3    H138629   1.168   2.953   2.207 -0.6113 -1.5085  0.4414
 5690TIP3    H238630   1.035   3.000   2.263  0.1789  1.4579 -0.0123
 5691TIP3   OH238631   3.767   3.531   8.268  0.2407  0.5030 -0.4068
 5691TIP3    H138632   3.852   3.528   8.225 -0.1275  0.3642 -1.1422
 5691TIP3    H238633   3.707   3.490   8.206  0.2737 -3.0496  1.6665
 5692TIP3   OH238634   0.053   4.124   8.524 -0.3125  0.5320  0.1848
 5692TIP3    H138635   0.135   4.131   8.475  0.0841 -0.2358  0.7218
 5692TIP3    H238636  -0.000   4.063   8.474 -0.4820  0.8702 -0.0527
 5693TIP3   OH238637   1.394   2.910   7.368 -0.1247  1.0747  0.1309
 5693TIP3    H138638   1.387   2.913   7.463  1.2404 -0.1884  0.3011
 5693TIP3    H238639   1.472   2.859   7.351 -1.2545 -0.1616 -1.6996
 5694TIP3   OH238640   4.995   5.477   8.072  0.1884 -0.0817 -0.7203
 5694TIP3    H138641   5.010   5.559   8.120  1.1554 -0.3714 -0.5215
 5694TIP3    H238642   5.073   5.424   8.088 -0.6842 -1.2931 -0.3559
 5695TIP3   OH238643   5.761   0.204   1.293  0.1176 -0.6862  0.2200
 5695TIP3    H138644   5.731   0.236   1.378 -0.7064  2.2400 -1.0449
 5695TIP3    H238645   5.855   0.220   1.293 -0.0763  0.4938  0.1345
 5696TIP3   OH238646   4.192   2.729   8.229  0.2425 -0.4389  0.0267
 5696TIP3    H138647   4.223   2.736   8.319  0.1253 -0.0227  0.0345
 5696TIP3    H238648   4.181   2.635   8.215  2.7107 -0.7244 -0.3914
 5697TIP3   OH238649   4.918   5.878   1.929  0.1210 -0.4147  0.2386
 5697TIP3    H138650   4.904   5.795   1.883 -0.2138  0.0450 -0.5068
 5697TIP3    H238651   4.968   5.853   2.007  1.8555 -1.0751 -1.0039
 5698TIP3   OH238652   5.318   5.664   0.840 -0.8819 -0.0295  0.5086
 5698TIP3    H138653   5.303   5.754   0.810  2.9464  0.1542 -1.4936
 5698TIP3    H238654   5.334   5.672   0.934  1.2265  1.7922  0.0752
 5699TIP3   OH238655   3.503   0.162   0.194 -0.1078 -0.4081  0.1627
 5699TIP3    H138656   3.439   0.111   0.144  0.8547  0.0651 -1.6311
 5699TIP3    H238657   3.450   0.212   0.256 -1.1732 -2.7327  1.2793
 5700TIP3   OH238658   3.117   1.514   8.091  0.3155  0.1279 -0.0672
 5700TIP3    H138659   3.089   1.601   8.062 -1.1045 -0.6744 -1.2429
 5700TIP3    H238660   3.060   1.453   8.043 -0.2573 -1.3882  2.3956
 5701TIP3   OH238661   0.108   4.976   1.519  0.2347 -0.2702 -0.3598
 5701TIP3    H138662   0.106   4.882   1.499 -1.0840 -0.7258  1.5466
 5701TIP3    H238663   0.048   4.985   1.593  2.0145  1.7488  0.9406
 5702TIP3   OH238664   0.993   1.178   0.102 -0.3233 -0.2204  0.4317
 5702TIP3    H138665   1.045   1.104   0.072  0.7290  0.6109  0.1338
 5702TIP3    H238666   1.010   1.247   0.037 -1.3084  0.2728  0.6770
 5703TIP3   OH238667   2.855   2.420   1.822  0.1127 -0.0045 -0.6164
 5703TIP3    H138668   2.857   2.466   1.906 -0.5938 -2.3156  0.7492
 5703TIP3    H238669   2.934   2.366   1.822 -0.2642 -0.5597 -1.1233
 5704TIP3   OH238670   2.288   4.651   2.585  0.4491  0.0205 -0.1550
 5704TIP3    H138671   2.204   4.694   2.599 -0.1697 -0.7150 -1.4764
 5704TIP3    H238672   2.280   4.609   2.499  1.9184 -0.6484  0.0049
 5705TIP3   OH238673   5.405   0.471   8.392 -0.1790 -0.3654 -0.3773
 5705TIP3    H138674   5.479   0.476   8.452 -0.6801  0.7477  0.1802
 5705TIP3    H238675   5.332   0.510   8.440 -0.9479 -0.7664 -1.1854
 5706TIP3   OH238676   0.833   1.297   2.111 -0.1217 -0.1427  0.9754
 5706TIP3    H138677   0.843   1.290   2.206 -0.9204  0.7568  1.1422
 5706TIP3    H238678   0.741   1.275   2.095  0.3524 -1.6953  0.2388
 5707TIP3   OH238679   6.861   2.835   0.917 -0.8369  0.0688 -0.0359
 5707TIP3    H138680   6.873   2.744   0.892  0.6162  0.6973 -1.8516
 5707TIP3    H238681   6.819   2.876   0.842 -1.3788  0.9223  0.7067
 5708TIP3   OH238682   0.405   2.465   1.302 -0.1776  0.0342 -0.4176
 5708TIP3    H138683   0.481   2.437   1.250 -1.0790  1.2383 -2.5172
 5708TIP3    H238684   0.331   2.416   1.265 -0.6625 -0.1167  0.6960
 5709TIP3   OH238685   3.839   0.337   0.702  0.3396  0.1177 -0.1121
 5709TIP3    H138686   3.859   0.302   0.789  0.8200  0.7548  0.0442
 5709TIP3    H238687   3.777   0.408   0.718  1.2279  0.9323 -0.1663
 5710TIP3   OH238688   2.642   6.364   7.572  0.7082 -0.4180 -0.1792
 5710TIP3    H138689   2.611   6.318   7.650  0.5686 -0.2364 -0.1274
 5710TIP3    H238690   2.691   6.298   7.523  1.7011 -0.2675  0.5760
 5711TIP3   OH238691   3.328   1.904   8.383 -0.1849 -0.4108  0.2383
 5711TIP3    H138692   3.363   1.979   8.335 -0.8747  0.3021  0.8332
 5711TIP3    H238693   3.343   1.829   8.325 -0.1433  0.2924 -0.6740
 5712TIP3   OH238694   2.813   4.818   7.683 -0.6262  0.1740 -0.1565
 5712TIP3    H138695   2.791   4.784   7.770 -0.2641 -0.1239 -0.1777
 5712TIP3    H238696   2.909   4.816   7.680 -0.6515 -1.0739 -1.0328
 5713TIP3   OH238697   1.119   0.626   2.127 -0.0422  0.2355 -0.2493
 5713TIP3    H138698   1.048   0.615   2.190  1.0724  1.2116  1.2471
 5713TIP3    H238699   1.153   0.714   2.145 -0.5282  1.1257 -3.1395
 5714TIP3   OH238700   6.649   1.720   8.611 -0.9225  0.5543 -0.6058
 5714TIP3    H138701   6.629   1.786   8.677  0.9519  1.9578 -1.3590
 5714TIP3    H238702   6.688   1.769   8.538 -1.7521 -1.0885 -2.2559
 5715TIP3   OH238703   6.592   1.361   2.351  0.1648  0.3057 -0.7220
 5715TIP3    H138704   6.608   1.455   2.358  0.5414  0.2429 -0.7544
 5715TIP3    H238705   6.528   1.353   2.280 -1.4969  0.7106  0.6664
 5716TIP3   OH238706   1.314   6.401   0.375 -0.7416 -0.1436 -0.7432
 5716TIP3    H138707   1.249   6.331   0.372  0.1399 -1.1953  2.0136
 5716TIP3    H238708   1.382   6.372   0.315 -1.1171 -0.8808 -0.8311
 5717TIP3   OH238709   1.560   3.607   2.090 -0.4690  0.1356 -0.6894
 5717TIP3    H138710   1.613   3.603   2.170 -0.6358  0.8941 -0.5400
 5717TIP3    H238711   1.470   3.592   2.120 -0.4777 -0.0551 -0.8044
 5718TIP3   OH238712   3.804   5.760   0.955 -0.0426 -0.1319  0.3334
 5718TIP3    H138713   3.870   5.741   0.888  0.7291  0.4478  0.9101
 5718TIP3    H238714   3.848   5.740   1.037 -1.3050 -1.7817  0.6435
 5719TIP3   OH238715   1.656   4.775   0.174  0.3249  0.5584  0.6666
 5719TIP3    H138716   1.561   4.762   0.173  0.5044 -1.4452 -2.1431
 5719TIP3    H238717   1.672   4.843   0.109  0.9204 -1.7270 -1.7874
 5720TIP3   OH238718   3.476   3.617   0.792 -0.2702 -0.8004 -0.4104
 5720TIP3    H138719   3.511   3.671   0.721  0.4257 -0.7919 -0.0649
 5720TIP3    H238720   3.382   3.636   0.793 -0.3176 -0.9247 -1.4378
 5721TIP3   OH238721   5.351   0.731   7.613  0.0840 -0.3621  0.2176
 5721TIP3    H138722   5.386   0.706   7.527  0.1006  0.0367  0.1044
 5721TIP3    H238723   5.321   0.649   7.652  1.2801 -0.7482  0.3764
 5722TIP3   OH238724   1.073   1.510   1.749  0.2654 -0.4278 -0.4110
 5722TIP3    H138725   1.041   1.427   1.714 -1.3882 -0.9242  2.0941
 5722TIP3    H238726   1.027   1.521   1.832  2.2932  1.7968  0.5287
 5723TIP3   OH238727   0.573   6.088   2.424  0.2136 -0.1793 -0.0024
 5723TIP3    H138728   0.531   6.005   2.449  1.0552 -0.5546  0.1886
 5723TIP3    H238729   0.506   6.154   2.441  0.3729 -0.5158  2.2800
 5724TIP3   OH238730   5.146   2.081   1.030  0.7662 -0.1062 -0.5284
 5724TIP3    H138731   5.166   2.174   1.041  0.7707 -0.1086 -0.5158
 5724TIP3    H238732   5.076   2.079   0.964  0.9773 -0.1102 -0.7545
 5725TIP3   OH238733   5.173   1.185   1.810 -0.2803 -0.1199  0.0136
 5725TIP3    H138734   5.250   1.223   1.853 -0.8100  0.0138  0.8629
 5725TIP3    H238735   5.107   1.179   1.879 -1.2575  0.3799 -0.8545
 5726TIP3   OH238736   0.321   2.709   8.219  0.1255  0.0488  0.2337
 5726TIP3    H138737   0.236   2.665   8.210  0.4212 -0.9213  1.7820
 5726TIP3    H238738   0.377   2.664   8.155  0.1696 -1.2457  1.1293
 5727TIP3   OH238739   0.844   5.883   8.024 -0.5013  0.3900  0.1812
 5727TIP3    H138740   0.894   5.965   8.016  1.1855 -0.6320 -0.1640
 5727TIP3    H238741   0.787   5.898   8.100  1.2587  1.1697  1.4352
 5728TIP3   OH238742   0.381   3.545   0.192 -0.1620  0.5650  0.2241
 5728TIP3    H138743   0.285   3.540   0.188 -0.1464  1.0523 -1.7698
 5728TIP3    H238744   0.411   3.479   0.131  0.8287 -0.1075  1.3969
 5729TIP3   OH238745   4.379   3.026   0.887 -0.3821 -0.3914  0.2802
 5729TIP3    H138746   4.364   3.100   0.946 -0.6371 -0.0612 -0.1971
 5729TIP3    H238747   4.304   3.027   0.827 -1.4169 -2.1712  1.4283
 5730TIP3   OH238748   1.407   1.789   8.328  0.3894 -0.1841  0.7681
 5730TIP3    H138749   1.484   1.843   8.313 -0.2719  0.3370 -1.0663
 5730TIP3    H238750   1.411   1.723   8.259 -1.5723  0.8124 -0.4018
 5731TIP3   OH238751   3.254   5.759   8.223  0.4089  0.2365 -0.3527
 5731TIP3    H138752   3.278   5.781   8.133  1.6549 -1.8893 -0.6253
 5731TIP3    H238753   3.255   5.663   8.225 -0.9594  0.2013  1.5992
 5732TIP3   OH238754   6.651   1.161   1.710 -0.0561 -0.1090 -0.1617
 5732TIP3    H138755   6.578   1.106   1.680 -0.8038  0.8396 -0.1433
 5732TIP3    H238756   6.666   1.133   1.800  1.0012 -1.7343 -0.7915
 5733TIP3   OH238757   1.789   3.965   0.656  0.1479  0.0347  0.0214
 5733TIP3    H138758   1.757   3.964   0.565  0.2304  0.1342 -0.0085
 5733TIP3    H238759   1.767   3.878   0.689  1.1435 -0.4260 -0.4555
 5734TIP3   OH238760   2.308   0.270   1.655  0.0456  0.2547 -0.7661
 5734TIP3    H138761   2.248   0.205   1.618  0.8695 -0.5267 -0.7488
 5734TIP3    H238762   2.372   0.285   1.586  0.5708  0.1147 -0.3104
 5735TIP3   OH238763   3.019   5.176   7.374  0.2653  0.4878 -0.4892
 5735TIP3    H138764   2.924   5.191   7.382 -0.0082 -0.9199 -0.7747
 5735TIP3    H238765   3.033   5.165   7.280  0.6117  0.1025 -0.3917
 5736TIP3   OH238766   6.349   4.552   8.409  0.2401  0.3947 -0.3723
 5736TIP3    H138767   6.325   4.615   8.341  0.8031  1.2942  0.2514
 5736TIP3    H238768   6.266   4.508   8.431 -0.1626  0.9347 -0.7855
 5737TIP3   OH238769   5.847   3.657   2.934  0.2059  0.2493 -0.2775
 5737TIP3    H138770   5.815   3.734   2.983  0.0823 -0.4080  0.6927
 5737TIP3    H238771   5.940   3.654   2.952 -0.0265 -0.6421  0.8546
 5738TIP3   OH238772   5.394   3.664   7.504 -0.0899  0.6932  0.3067
 5738TIP3    H138773   5.403   3.706   7.589 -1.4566 -0.1279  0.8796
 5738TIP3    H238774   5.455   3.590   7.506 -1.1798 -0.2128  1.1683
 5739TIP3   OH238775   5.839   4.701   1.157  0.3682  0.1223 -0.1542
 5739TIP3    H138776   5.930   4.679   1.140  0.1755  1.0857 -2.8437
 5739TIP3    H238777   5.833   4.794   1.138 -0.7488  0.6193  2.2252
 5740TIP3   OH238778   4.261   3.598   7.543 -0.0266  0.6001  0.2687
 5740TIP3    H138779   4.208   3.566   7.471  0.2987 -0.8835  0.6498
 5740TIP3    H238780   4.351   3.580   7.516  0.4931  4.2323 -0.9383
 5741TIP3   OH238781   5.726   6.124   8.004 -0.2369  0.0555  0.2294
 5741TIP3    H138782   5.786   6.101   7.933 -1.3935 -1.7608 -0.2285
 5741TIP3    H238783   5.679   6.201   7.971 -0.7768 -0.7750 -1.0236
 5742TIP3   OH238784   0.725   1.618   1.345 -0.0440 -0.4470  0.1153
 5742TIP3    H138785   0.773   1.625   1.427 -0.7865  0.5395  0.4815
 5742TIP3    H238786   0.690   1.529   1.345 -0.5261 -0.2583  1.1353
 5743TIP3   OH238787   2.708   0.533   2.140  0.2067 -0.6514 -0.0534
 5743TIP3    H138788   2.741   0.617   2.170  0.3143 -0.3453 -1.0096
 5743TIP3    H238789   2.722   0.533   2.046  0.4496 -1.8489 -0.0408
 5744TIP3   OH238790   2.361   3.215   0.783  0.3039 -0.1435  0.7254
 5744TIP3    H138791   2.313   3.196   0.702  0.5826 -0.2811  0.5933
 5744TIP3    H238792   2.300   3.193   0.853 -0.5421  1.4733  0.5489
 5745TIP3   OH238793   0.575   2.050   1.839 -0.4242  0.1498  0.3280
 5745TIP3    H138794   0.515   2.125   1.849  0.2396  0.6157  0.9135
 5745TIP3    H238795   0.523   1.974   1.865 -0.7031  0.5764  1.0508
 5746TIP3   OH238796   3.603   5.178   7.607 -0.0451  0.3837  0.1985
 5746TIP3    H138797   3.675   5.240   7.599 -0.1962  0.6342  0.7337
 5746TIP3    H238798   3.528   5.231   7.634 -0.7195  0.3010 -1.4447
 5747TIP3   OH238799   1.429   0.283   1.415  0.2330  0.0458 -0.2005
 5747TIP3    H138800   1.345   0.290   1.370 -0.1391 -2.0588  0.0372
 5747TIP3    H238801   1.439   0.367   1.460 -1.5182  0.5288 -0.6129
 5748TIP3   OH238802   3.493   2.581   7.957 -0.4085 -0.2760 -1.1847
 5748TIP3    H138803   3.513   2.523   7.883  1.5828  1.2926 -1.9693
 5748TIP3    H238804   3.558   2.557   8.024 -0.9052 -0.3144 -0.7044
 5749TIP3   OH238805   1.354   3.406   1.941 -0.1816  0.3985  0.6522
 5749TIP3    H138806   1.266   3.439   1.962 -0.2733 -0.0223  0.9393
 5749TIP3    H238807   1.368   3.334   2.003  0.6273  0.8832  1.0463
 5750TIP3   OH238808   5.638   1.852   0.661 -0.0144 -0.3172 -0.1069
 5750TIP3    H138809   5.673   1.937   0.687  0.0679  0.0059 -1.2533
 5750TIP3    H238810   5.650   1.797   0.739  2.4387 -0.0511 -0.2252
 5751TIP3   OH238811   0.533   4.592   1.296 -0.5065 -0.4844 -0.7151
 5751TIP3    H138812   0.510   4.682   1.319  0.4196 -0.0603 -1.4168
 5751TIP3    H238813   0.557   4.596   1.204  0.6522 -1.2349 -0.4583
 5752TIP3   OH238814   6.811   3.138   7.467 -0.3612  0.6205 -0.0180
 5752TIP3    H138815   6.740   3.090   7.424 -0.3114  0.0316  0.5294
 5752TIP3    H238816   6.835   3.082   7.541  0.0710  1.2453  0.3174
 5753TIP3   OH238817   2.430   3.055   7.153  0.3416  0.1894  0.6764
 5753TIP3    H138818   2.411   3.144   7.181 -0.0139  0.1101  0.7000
 5753TIP3    H238819   2.343   3.015   7.141  0.4894  0.0850 -0.0805
 5754TIP3   OH238820   3.926   2.991   7.140  0.0263  0.1448  0.0002
 5754TIP3    H138821   3.861   3.039   7.192  0.4480  0.4944  0.2136
 5754TIP3    H238822   3.878   2.963   7.062 -0.3146  0.6298  0.0282
 5755TIP3   OH238823   0.796   0.197   1.910  0.4705 -0.0765 -0.7283
 5755TIP3    H138824   0.777   0.231   1.998 -0.1564 -1.7537 -0.1681
 5755TIP3    H238825   0.719   0.143   1.888  1.5277 -1.3809 -1.4050
 5756TIP3   OH238826   2.392   0.277   3.331 -0.1327  0.4863  0.8600
 5756TIP3    H138827   2.380   0.291   3.237 -0.8212 -1.0818  0.6768
 5756TIP3    H238828   2.349   0.351   3.373  1.0006  1.7054 -0.0568
 5757TIP3   OH238829   0.412   4.769   8.108 -0.6834 -0.1942  0.2818
 5757TIP3    H138830   0.319   4.759   8.129 -0.7417  0.0415  0.1407
 5757TIP3    H238831   0.436   4.852   8.148 -0.5268 -0.2669  0.3372
 5758TIP3   OH238832   1.738   5.216   1.895 -0.0224 -0.3402  0.0675
 5758TIP3    H138833   1.677   5.289   1.894  0.3914  0.0107  0.0993
 5758TIP3    H238834   1.688   5.143   1.933 -0.3611 -0.0070  0.2701
 5759TIP3   OH238835   6.809   4.688   7.491  0.4223  0.5464 -0.1749
 5759TIP3    H138836   6.725   4.662   7.454  0.0685  1.8606 -0.3389
 5759TIP3    H238837   6.873   4.635   7.444 -0.2533  0.0396 -0.5410
 5760TIP3   OH238838   1.974   0.307   0.282  0.2581 -0.6103  0.3030
 5760TIP3    H138839   2.055   0.353   0.259 -0.0036  0.1085  0.7662
 5760TIP3    H238840   1.949   0.260   0.202  0.0847  0.7501 -0.4754
 5761TIP3   OH238841   4.166   3.132   7.617  0.0456  0.7227 -0.3787
 5761TIP3    H138842   4.156   3.137   7.521  0.0949  1.7921 -0.3449
 5761TIP3    H238843   4.078   3.152   7.650 -0.1069 -0.2184 -0.2002
 5762TIP3   OH238844   6.419   3.476   1.303 -0.7513  0.2773 -0.0228
 5762TIP3    H138845   6.409   3.571   1.305  0.0736  0.3596  0.3140
 5762TIP3    H238846   6.470   3.455   1.381 -1.3387 -0.4984  0.1683
 5763TIP3   OH238847   6.116   1.102   0.610  0.0211  0.5483  0.1899
 5763TIP3    H138848   6.044   1.154   0.645  0.0403  2.1044 -1.9055
 5763TIP3    H238849   6.076   1.020   0.581 -0.4794  0.4552  1.1289
 5764TIP3   OH238850   3.111   3.705   7.828 -0.3750  0.1569 -0.3298
 5764TIP3    H138851   3.090   3.715   7.921 -0.8854 -0.4053 -0.3764
 5764TIP3    H238852   3.136   3.613   7.819  1.6539  0.6710 -0.3804
 5765TIP3   OH238853   5.528   3.343   0.726 -0.2690  0.0737 -0.2173
 5765TIP3    H138854   5.600   3.289   0.692 -1.2358 -1.6539  0.3585
 5765TIP3    H238855   5.571   3.418   0.767  1.1797 -0.6626 -0.3348
 5766TIP3   OH238856   5.208   4.859   2.663 -0.1399  0.2297  0.5985
 5766TIP3    H138857   5.294   4.835   2.697  1.7844  1.4690 -2.8718
 5766TIP3    H238858   5.191   4.947   2.698 -0.0654 -0.0518  1.3555
 5767TIP3   OH238859   1.518   6.451   8.488 -0.1626 -0.0199 -0.2920
 5767TIP3    H138860   1.437   6.415   8.451 -0.5985 -0.0123  0.6220
 5767TIP3    H238861   1.582   6.381   8.477 -0.1721  0.1148 -1.3794
 5768TIP3   OH238862   6.497   0.392   2.614 -0.0382 -0.6543 -0.5589
 5768TIP3    H138863   6.465   0.450   2.545  0.3577 -0.7923 -0.8612
 5768TIP3    H238864   6.501   0.447   2.693 -1.1974 -0.6833 -0.4683
 5769TIP3   OH238865   1.517   3.482   0.968 -0.4982 -0.1626  0.0141
 5769TIP3    H138866   1.428   3.504   0.939 -0.8705 -0.9671  0.4869
 5769TIP3    H238867   1.567   3.469   0.887  0.0924  3.5082 -0.3518
 5770TIP3   OH238868   4.260   3.430   6.770  0.1526  0.2891  0.4365
 5770TIP3    H138869   4.353   3.434   6.747  0.1215  0.8869  0.4031
 5770TIP3    H238870   4.260   3.421   6.865  0.2438  1.6706  0.5940
 5771TIP3   OH238871   1.597   6.723   8.421 -0.0504 -0.1935  0.2840
 5771TIP3    H138872   1.624   6.639   8.459 -0.2234 -0.0537  0.7204
 5771TIP3    H238873   1.501   6.723   8.429 -0.0200  0.2167  0.6462
 5772TIP3   OH238874   5.961   4.051   0.273  0.3677  0.5350 -0.2237
 5772TIP3    H138875   6.039   4.041   0.328  0.0997  3.1219  0.7915
 5772TIP3    H238876   5.979   3.999   0.195  2.3392 -0.3394  0.7528
 5773TIP3   OH238877   0.108   2.427   7.988 -0.6975 -0.6124 -0.0695
 5773TIP3    H138878   0.125   2.333   7.999  1.0391 -0.3284  0.0455
 5773TIP3    H238879   0.102   2.461   8.078  0.9014 -0.2908 -0.0553
 5774TIP3   OH238880   3.889   3.848   2.022  0.0596 -0.4550  0.0239
 5774TIP3    H138881   3.830   3.790   2.070  0.1143 -2.2114 -1.8938
 5774TIP3    H238882   3.972   3.841   2.069 -0.4940 -0.2214  1.0672
 5775TIP3   OH238883   3.032   3.170   2.592 -0.2862 -0.5889  0.1308
 5775TIP3    H138884   3.102   3.142   2.651 -0.7163 -0.7192  0.5892
 5775TIP3    H238885   3.075   3.223   2.526 -0.1173  1.6300  1.9256
 5776TIP3   OH238886   0.679   2.310   2.195 -0.0965  0.3351  0.2034
 5776TIP3    H138887   0.647   2.376   2.134  0.7878 -0.3703 -1.0600
 5776TIP3    H238888   0.671   2.351   2.281  0.0155  1.9092 -0.5072
 5777TIP3   OH238889   4.219   6.156   8.028  0.1375  0.4131  0.4330
 5777TIP3    H138890   4.170   6.090   7.978  1.3490 -1.2846  1.3890
 5777TIP3    H238891   4.297   6.173   7.975  1.3858 -1.3330  1.5862
 5778TIP3   OH238892   4.591   0.899   0.266 -0.5234 -0.1811 -0.6423
 5778TIP3    H138893   4.647   0.843   0.212 -1.7719  1.2104 -3.6002
 5778TIP3    H238894   4.521   0.840   0.295 -0.4207 -0.7556 -1.5013
 5779TIP3   OH238895   2.242   3.050   1.706  0.3365  0.4828  0.6318
 5779TIP3    H138896   2.181   3.121   1.724  0.7214  1.3068 -1.1262
 5779TIP3    H238897   2.226   2.986   1.776 -2.2117  0.8661  0.4884
 5780TIP3   OH238898   4.239   4.375   0.395 -0.2123 -0.8297  0.0626
 5780TIP3    H138899   4.183   4.305   0.428 -2.0248 -1.6245 -3.9993
 5780TIP3    H238900   4.320   4.332   0.369  0.4626 -0.5387  1.6027
 5781TIP3   OH238901   5.154   6.161   7.216  0.4886  0.2019 -0.6540
 5781TIP3    H138902   5.137   6.230   7.281  0.2156 -0.1031 -0.4004
 5781TIP3    H238903   5.120   6.081   7.256 -3.1488  0.5398 -2.6841
 5782TIP3   OH238904   4.105   0.224   2.418 -0.3535 -0.6821 -0.4342
 5782TIP3    H138905   4.113   0.290   2.487  1.6089 -1.0263 -0.2503
 5782TIP3    H238906   4.018   0.237   2.381  0.6615  3.5479 -1.9210
 5783TIP3   OH238907   3.494   4.111   7.485  0.1530  0.2273  0.0677
 5783TIP3    H138908   3.428   4.049   7.454  0.5772 -0.0381 -0.3174
 5783TIP3    H238909   3.457   4.147   7.566 -1.1679  1.2424 -0.9479
 5784TIP3   OH238910   5.000   0.970   1.281 -0.3490 -0.3378  0.4856
 5784TIP3    H138911   4.924   0.980   1.224 -0.1316 -0.8486  0.1051
 5784TIP3    H238912   5.034   0.883   1.261  1.1562  0.4148 -0.3459
 5785TIP3   OH238913   3.945   5.795   2.248  0.8857 -0.5906  0.3793
 5785TIP3    H138914   4.002   5.855   2.297  0.0050  0.0272  0.6766
 5785TIP3    H238915   3.931   5.840   2.164  0.9798 -0.8253  0.2385
 5786TIP3   OH238916   4.549   4.072   0.504 -0.2152 -0.7216 -0.2597
 5786TIP3    H138917   4.524   4.136   0.438 -1.4088  0.0640  0.9057
 5786TIP3    H238918   4.466   4.046   0.545  0.5418 -0.5321  1.4959
 5787TIP3   OH238919   3.095   3.384   1.281 -0.1585  0.9644  0.0183
 5787TIP3    H138920   3.042   3.422   1.351 -1.1159  0.1529 -0.2210
 5787TIP3    H238921   3.030   3.349   1.220  0.6675  0.9674 -0.8810
 5788TIP3   OH238922   6.466   4.018   0.953  0.0089  0.2153 -0.0453
 5788TIP3    H138923   6.421   3.948   1.000 -1.3901  0.6211 -0.6988
 5788TIP3    H238924   6.432   4.011   0.863  3.0344 -0.9342 -1.2214
 5789TIP3   OH238925   3.208   4.739   1.817 -0.0025 -0.3528 -0.2208
 5789TIP3    H138926   3.176   4.664   1.766  1.4477 -1.4608  0.4397
 5789TIP3    H238927   3.278   4.776   1.763  1.1988 -1.2230  0.7166
 5790TIP3   OH238928   0.970   1.883   7.455 -0.3733  0.0746  0.2147
 5790TIP3    H138929   0.907   1.949   7.484  0.6437  0.5301  1.5130
 5790TIP3    H238930   0.917   1.814   7.416 -1.4726  1.6501 -1.2064
 5791TIP3   OH238931   1.473   3.225   1.719 -0.4158 -0.3714 -0.4931
 5791TIP3    H138932   1.495   3.201   1.809 -0.8251 -1.9183 -0.7726
 5791TIP3    H238933   1.383   3.196   1.707  0.4042 -2.5192 -2.1201
 5792TIP3   OH238934   2.132   6.407   7.559  0.8277  0.3866  0.1730
 5792TIP3    H138935   2.092   6.491   7.580 -1.4042 -0.6595  0.4100
 5792TIP3    H238936   2.212   6.429   7.513  0.1187  2.6284 -0.0911
 5793TIP3   OH238937   3.010   5.433   7.899 -0.3501  0.1167 -0.2854
 5793TIP3    H138938   3.036   5.375   7.971  0.0496 -0.0159 -0.5384
 5793TIP3    H238939   2.938   5.387   7.855  0.3674 -0.4682 -0.8568
 5794TIP3   OH238940   4.399   6.752   0.883 -0.6407  0.3358 -0.2180
 5794TIP3    H138941   4.382   6.804   0.962  0.8499  0.2549  0.1705
 5794TIP3    H238942   4.486   6.715   0.896 -1.0489 -1.0619 -1.1600
 5795TIP3   OH238943   4.327   3.550   2.106  0.1409 -0.2802 -0.1241
 5795TIP3    H138944   4.362   3.484   2.047  1.0618  1.4725 -1.6437
 5795TIP3    H238945   4.257   3.505   2.154  1.9199 -2.8236  0.2812
 5796TIP3   OH238946   0.756   1.927   2.496  0.6569  0.0714 -0.3369
 5796TIP3    H138947   0.818   1.894   2.431  1.4393  1.5156 -0.3511
 5796TIP3    H238948   0.810   1.979   2.556 -0.6159  1.8275 -0.6681
 5797TIP3   OH238949   1.118   4.221   8.384  0.1070  0.1942 -0.0509
 5797TIP3    H138950   1.034   4.258   8.355  0.3911  0.0660 -1.0873
 5797TIP3    H238951   1.174   4.226   8.307  0.8686 -0.2739  0.4613
 5798TIP3   OH238952   5.811   2.038   1.481 -0.9918 -0.1260  1.5633
 5798TIP3    H138953   5.838   2.122   1.445 -0.5550  0.4645  3.1893
 5798TIP3    H238954   5.735   2.058   1.535 -1.1474 -0.8410  1.6152
 5799TIP3   OH238955   4.971   2.332   7.961  0.0341  0.1493 -1.0699
 5799TIP3    H138956   5.018   2.393   8.018 -2.2023  0.6373  0.3874
 5799TIP3    H238957   4.974   2.373   7.875 -1.2133  2.3001 -0.1879
 5800TIP3   OH238958   1.769   1.729   8.650 -0.2602  0.0853  0.3039
 5800TIP3    H138959   1.700   1.663   8.647  0.5625 -0.7833 -0.4781
 5800TIP3    H238960   1.850   1.678   8.657  0.3029  1.0862  1.3678
 5801TIP3   OH238961   3.461   5.877   2.136 -0.3789  0.1505 -0.0848
 5801TIP3    H138962   3.525   5.937   2.097  0.1443  0.0876  0.6485
 5801TIP3    H238963   3.377   5.923   2.128 -0.4553 -0.2622 -2.1120
 5802TIP3   OH238964   6.480   3.427   0.622  0.2138  0.3510 -0.2861
 5802TIP3    H138965   6.409   3.492   0.621  0.5932  0.7731 -0.1391
 5802TIP3    H238966   6.489   3.402   0.714  0.2342  0.2683 -0.3103
 5803TIP3   OH238967   5.977   5.819   8.480 -0.1484 -0.9550  0.0594
 5803TIP3    H138968   6.020   5.901   8.456  1.4025 -1.3645  1.3130
 5803TIP3    H238969   5.890   5.845   8.510 -0.0507  0.1044 -0.5353
 5804TIP3   OH238970   4.587   4.592   1.160  0.1131  0.2381  0.5859
 5804TIP3    H138971   4.572   4.517   1.217  0.7621  1.2983  2.2113
 5804TIP3    H238972   4.637   4.557   1.087 -1.0825 -1.2313  0.4175
 5805TIP3   OH238973   3.054   3.534   8.131 -0.0422  0.1679 -0.2490
 5805TIP3    H138974   2.984   3.597   8.147 -0.4520 -0.4594  0.5095
 5805TIP3    H238975   3.130   3.571   8.177  0.2295  0.9970 -1.3196
 5806TIP3   OH238976   4.835   6.785   0.557 -0.2635  0.1751 -0.4316
 5806TIP3    H138977   4.791   6.783   0.642 -0.3474 -0.6994 -0.4851
 5806TIP3    H238978   4.809   6.703   0.515  3.2407 -1.5851  0.4446
 5807TIP3   OH238979   1.090   4.161   0.691 -0.4529  0.2121  0.2215
 5807TIP3    H138980   1.047   4.089   0.737 -0.1781 -0.1898 -0.1387
 5807TIP3    H238981   1.034   4.236   0.707 -0.0354  0.2345  1.7463
 5808TIP3   OH238982   0.840   2.441   1.782  0.0778 -0.4269 -0.3380
 5808TIP3    H138983   0.915   2.421   1.726 -0.0372 -2.8131  0.2720
 5808TIP3    H238984   0.843   2.375   1.851 -0.8120  1.3558  1.5038
 5809TIP3   OH238985   2.929   0.535   8.311 -0.1435  0.2671 -0.1262
 5809TIP3    H138986   2.929   0.617   8.261  0.1316  0.2137 -0.2159
 5809TIP3    H238987   2.942   0.467   8.245  0.3855  0.2073  0.0325
 5810TIP3   OH238988   5.687   5.395   8.146  0.3702  0.7029  0.2971
 5810TIP3    H138989   5.653   5.484   8.139 -0.0202  0.4507 -1.8930
 5810TIP3    H238990   5.649   5.349   8.071  0.8370 -1.2273  1.1776
 5811TIP3   OH238991   3.228   2.550   7.578  0.2063  0.6745  0.5190
 5811TIP3    H138992   3.201   2.609   7.648 -0.3322  1.0560 -0.0021
 5811TIP3    H238993   3.242   2.607   7.502  1.2745  0.3278  0.4379
 5812TIP3   OH238994   3.273   3.677   0.173 -0.1996  0.4324  0.2861
 5812TIP3    H138995   3.321   3.757   0.197  1.9287  0.0090 -2.1425
 5812TIP3    H238996   3.278   3.622   0.252  1.4374  1.3002  0.8494
 5813TIP3   OH238997   5.906   1.684   0.646 -1.0386  0.8510  1.0474
 5813TIP3    H138998   5.827   1.729   0.677 -2.2431 -1.2323  1.2102
 5813TIP3    H238999   5.954   1.664   0.726  0.3306  3.1301  0.8862
 5814TIP3   OH239000   3.080   6.186   0.196  0.1473  0.1844  0.2995
 5814TIP3    H139001   3.116   6.200   0.108 -0.6480 -2.8035 -0.6375
 5814TIP3    H239002   3.155   6.158   0.249  0.4972  1.2842  0.4056
 5815TIP3   OH239003   2.229   3.882   0.270 -0.3380  0.3288  0.3981
 5815TIP3    H139004   2.303   3.820   0.268 -0.5165  0.1284 -0.9612
 5815TIP3    H239005   2.264   3.959   0.314 -0.0958 -0.6872  2.0979
 5816TIP3   OH239006   0.119   4.538   7.361  0.0908 -0.3922  0.0040
 5816TIP3    H139007   0.134   4.459   7.310  2.4333 -0.3507  0.5113
 5816TIP3    H239008   0.188   4.598   7.333 -2.2719  1.9901 -1.1975
 5817TIP3   OH239009   3.033   5.751   1.481 -0.4067  0.2243  0.1218
 5817TIP3    H139010   3.103   5.807   1.515  0.7584 -0.4113 -1.1381
 5817TIP3    H239011   3.022   5.780   1.391 -0.2932 -1.0720 -0.3230
 5818TIP3   OH239012   1.400   2.576   7.473  0.8094  0.1634 -0.2332
 5818TIP3    H139013   1.439   2.491   7.453  0.3394  0.3936 -2.4926
 5818TIP3    H239014   1.389   2.618   7.387  0.2482  2.1606  0.7395
 5819TIP3   OH239015   1.455   6.158   2.111  0.0800 -0.4979  0.0400
 5819TIP3    H139016   1.369   6.147   2.069 -0.2651 -1.8677  1.0546
 5819TIP3    H239017   1.435   6.180   2.202  0.7614 -2.0589  0.6017
 5820TIP3   OH239018   2.866   1.275   1.503 -1.2247 -0.4006  0.5162
 5820TIP3    H139019   2.937   1.221   1.469 -1.7563  0.3410 -1.9762
 5820TIP3    H239020   2.907   1.359   1.523 -1.5486  0.7798 -2.9448
 5821TIP3   OH239021   3.579   3.620   8.649 -0.4706 -0.0940 -0.2241
 5821TIP3    H139022   3.503   3.564   8.628 -0.5809  0.3413 -1.0216
 5821TIP3    H239023   3.640   3.606   8.576 -0.1961  0.2883 -0.0710
 5822TIP3   OH239024   5.651   3.662   8.040  0.0131  0.6297  0.3533
 5822TIP3    H139025   5.686   3.576   8.061 -0.8644 -0.2976 -1.7115
 5822TIP3    H239026   5.567   3.666   8.086 -0.3096  0.0501 -0.1764
 5823TIP3   OH239027   1.348   1.682   0.954  0.1698  1.1210 -0.3862
 5823TIP3    H139028   1.379   1.595   0.975  0.1143  0.9884 -0.8351
 5823TIP3    H239029   1.256   1.670   0.931 -0.5755  1.6754  2.0792
 5824TIP3   OH239030   1.167   3.390   8.294  0.1508  0.0595 -0.4649
 5824TIP3    H139031   1.256   3.424   8.298 -0.2952  1.1889  0.1392
 5824TIP3    H239032   1.169   3.310   8.346  0.7168  0.2873 -0.1393
 5825TIP3   OH239033   2.998   3.057   1.549  0.5894  0.5133  0.2996
 5825TIP3    H139034   2.922   3.030   1.497  0.3241  0.6647  0.6062
 5825TIP3    H239035   3.036   2.975   1.581 -0.0210  0.4825  0.9565
 5826TIP3   OH239036   6.103   1.743   8.417  0.8961 -0.3359  0.4100
 5826TIP3    H139037   6.079   1.745   8.324 -0.6088 -0.6094  0.7805
 5826TIP3    H239038   6.046   1.807   8.459  1.6581 -0.1133  1.1494
 5827TIP3   OH239039   2.165   2.019   1.570  0.3136 -0.4778 -0.2024
 5827TIP3    H139040   2.125   1.980   1.492 -0.1342 -0.4555  0.0106
 5827TIP3    H239041   2.176   2.111   1.548  0.2181 -0.4785 -0.2524
 5828TIP3   OH239042   5.861   6.686   1.137 -0.2008 -0.4189 -0.6127
 5828TIP3    H139043   5.909   6.768   1.125 -0.1133 -0.4590 -0.5364
 5828TIP3    H239044   5.782   6.711   1.185  0.4281 -0.5627  0.5355
 5829TIP3   OH239045   3.688   5.872   3.060 -0.3451 -0.0330 -0.8049
 5829TIP3    H139046   3.757   5.836   3.116 -0.1467 -1.7339 -2.0693
 5829TIP3    H239047   3.666   5.956   3.101  0.6712 -0.6132  1.0787
 5830TIP3   OH239048   3.751   1.863   1.021  0.1343  0.0487 -0.0711
 5830TIP3    H139049   3.670   1.892   1.064 -0.0039  0.8050 -0.8224
 5830TIP3    H239050   3.754   1.769   1.038 -0.5269  0.1302  0.5780
 5831TIP3   OH239051   4.875   5.256   1.530 -0.4834 -0.0889  0.1908
 5831TIP3    H139052   4.864   5.169   1.569  0.2949  0.0515  0.7538
 5831TIP3    H239053   4.953   5.249   1.476  0.3030  0.5778  1.2131
 5832TIP3   OH239054   1.929   4.766   1.751 -0.1325 -0.1923 -0.3282
 5832TIP3    H139055   1.870   4.690   1.754 -1.2286  0.6724  1.3582
 5832TIP3    H239056   2.005   4.739   1.803 -1.4303  0.5224  2.0791
 5833TIP3   OH239057   6.101   0.914   0.195  0.9850  0.0861  0.3829
 5833TIP3    H139058   6.076   0.989   0.140 -0.2748 -0.8619 -0.4129
 5833TIP3    H239059   6.196   0.908   0.185  0.8265  0.0815 -1.5561
 5834TIP3   OH239060   3.862   5.686   7.851 -0.0420  0.4310  0.3407
 5834TIP3    H139061   3.839   5.615   7.791  1.6286  1.3186 -1.4438
 5834TIP3    H239062   3.783   5.740   7.856 -0.2456  0.2857 -1.0152
 5835TIP3   OH239063   5.492   6.159   7.099 -0.4953 -0.3090 -0.0450
 5835TIP3    H139064   5.573   6.112   7.081 -0.9782 -1.5618  0.9204
 5835TIP3    H239065   5.519   6.251   7.106  0.8418 -0.7059  0.2831
 5836TIP3   OH239066   3.816   3.376   2.187  0.2926  0.3425 -0.5577
 5836TIP3    H139067   3.840   3.348   2.099 -0.2214 -1.2274 -0.2271
 5836TIP3    H239068   3.873   3.325   2.245 -1.2792 -0.7629  0.0928
 5837TIP3   OH239069   3.539   0.494   8.329 -0.1300 -0.4257 -0.3885
 5837TIP3    H139070   3.526   0.547   8.407 -2.3581 -0.3643 -0.7316
 5837TIP3    H239071   3.509   0.550   8.257 -0.2220 -1.2780 -1.0291
 5838TIP3   OH239072   4.497   6.659   1.979  0.0718  0.4959 -0.0494
 5838TIP3    H139073   4.453   6.649   2.064  1.0968  0.4433  0.4886
 5838TIP3    H239074   4.504   6.569   1.946  1.2540  0.3181  0.6407
 5839TIP3   OH239075   1.331   2.405   0.278 -0.6068  0.0334  0.2457
 5839TIP3    H139076   1.402   2.374   0.336  0.0799 -1.1942 -1.1835
 5839TIP3    H239077   1.288   2.325   0.248 -1.5122  0.6928 -0.2612
 5840TIP3   OH239078   1.260   3.780   8.568 -0.1735 -0.5350 -0.0433
 5840TIP3    H139079   1.171   3.745   8.560 -0.5591  0.4702 -0.3187
 5840TIP3    H239080   1.250   3.860   8.619  0.7116 -0.8656  0.6807
 5841TIP3   OH239081   6.796   5.979   6.991  0.1293  0.3031 -0.0192
 5841TIP3    H139082   6.867   6.027   7.034  0.5532 -1.0164  0.8134
 5841TIP3    H239083   6.793   6.015   6.903  2.3977 -0.1425 -0.3470
 5842TIP3   OH239084   1.742   5.163   0.804 -0.3151  0.0884  0.0957
 5842TIP3    H139085   1.657   5.206   0.818  0.3458  1.2592  0.5767
 5842TIP3    H239086   1.729   5.113   0.723 -0.7253  2.3149 -1.3271
 5843TIP3   OH239087   4.150   0.621   8.012 -0.1268  0.5256  0.1157
 5843TIP3    H139088   4.203   0.591   8.086  0.8933 -0.2313 -0.8998
 5843TIP3    H239089   4.065   0.579   8.025 -0.2964  1.2172  1.3966
 5844TIP3   OH239090   1.963   6.615   1.470  0.3326 -0.0788  0.2233
 5844TIP3    H139091   1.919   6.677   1.529 -1.0861 -2.1667  1.4752
 5844TIP3    H239092   2.056   6.621   1.495 -0.1148 -0.2658  2.1130
 5845TIP3   OH239093   3.507   2.706   0.773  0.1452 -0.5760  0.9059
 5845TIP3    H139094   3.517   2.680   0.681  0.8644  5.0877 -1.0409
 5845TIP3    H239095   3.416   2.684   0.794 -0.1672 -1.6835 -1.3107
 5846TIP3   OH239096   4.026   5.071   1.603 -0.0181  0.3017 -0.1585
 5846TIP3    H139097   3.984   5.142   1.556 -1.1240  0.4208  0.9682
 5846TIP3    H239098   4.048   5.007   1.535 -0.1600  1.1392 -1.0142
 5847TIP3   OH239099   1.420   0.516   0.900 -0.0428 -0.3783 -0.3446
 5847TIP3    H139100   1.439   0.436   0.950 -1.4617 -0.5945 -0.1104
 5847TIP3    H239101   1.465   0.503   0.816  0.7503 -0.8767  0.1452
 5848TIP3   OH239102   6.613   2.012   1.082 -0.1597  0.2003  0.1559
 5848TIP3    H139103   6.550   2.081   1.062 -1.5520 -1.0853 -0.1122
 5848TIP3    H239104   6.584   1.937   1.029  1.3390 -0.5706  0.3661
 5849TIP3   OH239105   2.995   1.109   2.148  0.2160 -0.3603 -0.5038
 5849TIP3    H139106   2.937   1.142   2.079  0.9782 -0.5482 -1.2615
 5849TIP3    H239107   3.045   1.040   2.105  0.8308 -0.3571  0.1968
 5850TIP3   OH239108   0.652   5.755   0.112  0.4390  0.3037 -0.0960
 5850TIP3    H139109   0.564   5.727   0.137  0.0890  0.6590 -0.8666
 5850TIP3    H239110   0.689   5.794   0.191  0.2112 -0.5607  0.4546
 5851TIP3   OH239111   3.143   1.277   8.210 -0.5311 -0.1674  0.1657
 5851TIP3    H139112   3.151   1.370   8.191 -0.7683 -0.1948 -0.0640
 5851TIP3    H239113   3.152   1.234   8.125  1.5362 -0.4832  0.4844
 5852TIP3   OH239114   3.424   1.258   0.554 -0.5725 -0.3785 -0.0246
 5852TIP3    H139115   3.413   1.351   0.534  1.0796 -0.4032 -1.2640
 5852TIP3    H239116   3.500   1.255   0.612 -1.6251 -0.8461  1.3871
 5853TIP3   OH239117   1.629   1.147   7.799 -0.1401 -0.3147 -0.0882
 5853TIP3    H139118   1.638   1.085   7.871 -0.5302  0.1348  0.3513
 5853TIP3    H239119   1.624   1.233   7.841  2.1223  0.2151 -0.7422
 5854TIP3   OH239120   1.016   0.746   8.228 -0.1517 -0.0749 -0.3197
 5854TIP3    H139121   1.041   0.780   8.142 -2.1370 -0.5089 -1.1087
 5854TIP3    H239122   1.035   0.819   8.288  1.3322  0.2038 -1.0639
 5855TIP3   OH239123   2.366   5.027   1.015  0.0275 -0.3191 -0.3653
 5855TIP3    H139124   2.327   4.939   1.022  0.2094 -0.3449  0.5020
 5855TIP3    H239125   2.292   5.087   1.030  0.1573 -0.3588  0.5378
 5856TIP3   OH239126   0.100   6.546   1.596  0.0351  0.2386 -0.3076
 5856TIP3    H139127   0.008   6.560   1.618  0.5927  0.2614  2.2982
 5856TIP3    H239128   0.147   6.560   1.678  2.3383 -0.1959 -1.4707
 5857TIP3   OH239129   2.304   3.696   7.909  0.3038  0.2023 -0.2340
 5857TIP3    H139130   2.326   3.777   7.954  0.7906 -0.1219  0.1220
 5857TIP3    H239131   2.285   3.722   7.819 -1.0684  0.9107  0.2402
 5858TIP3   OH239132   6.350   0.056   1.003 -0.2676 -0.1189  0.4529
 5858TIP3    H139133   6.305  -0.016   0.959 -0.7144  0.7573 -0.5485
 5858TIP3    H239134   6.427   0.015   1.043  1.6125 -0.6032 -3.2317
 5859TIP3   OH239135   4.436   4.673   2.226 -0.0981  0.0323 -0.2893
 5859TIP3    H139136   4.409   4.590   2.265 -0.3783 -0.3478 -1.2841
 5859TIP3    H239137   4.428   4.736   2.298 -0.1168 -0.7449  0.4107
 5860TIP3   OH239138   2.680   0.087   7.911  0.1183  0.8061  0.1575
 5860TIP3    H139139   2.700   0.156   7.975 -0.8491  0.5414  0.7664
 5860TIP3    H239140   2.601   0.119   7.865 -1.6220 -0.7740  1.8717
 5861TIP3   OH239141   4.292   4.039   6.840  0.1996  0.2618  0.3979
 5861TIP3    H139142   4.381   4.069   6.825  0.1273 -0.7462 -2.7388
 5861TIP3    H239143   4.300   3.971   6.907  1.6763  0.6171  0.6133
 5862TIP3   OH239144   3.187   5.457   1.895 -0.2835 -0.1949 -0.7825
 5862TIP3    H139145   3.165   5.365   1.911 -0.8735  0.0109 -0.3683
 5862TIP3    H239146   3.164   5.471   1.804  0.6260 -0.6847 -1.0968
 5863TIP3   OH239147   5.932   2.311   7.046 -0.2013  0.0087 -0.0571
 5863TIP3    H139148   5.973   2.395   7.066 -0.8487  0.1721  0.6792
 5863TIP3    H239149   6.003   2.247   7.049  0.1087  0.3762  0.5442
 5864TIP3   OH239150   1.372   0.636   1.959  0.0985 -0.0629  0.1919
 5864TIP3    H139151   1.335   0.627   2.046 -0.7537  0.9027 -0.0431
 5864TIP3    H239152   1.301   0.675   1.907  0.4294 -1.0500 -1.0432
 5865TIP3   OH239153   4.032   4.339   2.909 -0.0300 -0.0269 -0.5881
 5865TIP3    H139154   4.000   4.309   2.994  1.9860  0.3304  0.3504
 5865TIP3    H239155   3.960   4.390   2.873 -0.8983 -0.1220  0.9430
 5866TIP3   OH239156   4.682   6.579   0.709 -0.8285 -0.1213 -0.1547
 5866TIP3    H139157   4.717   6.584   0.798 -0.4358  1.7739 -0.3761
 5866TIP3    H239158   4.592   6.611   0.717 -0.3287  1.4533 -0.6554
 5867TIP3   OH239159   0.768   0.487   0.076 -0.1815 -0.0764  0.7206
 5867TIP3    H139160   0.688   0.444   0.045 -0.6734  1.6292 -0.5200
 5867TIP3    H239161   0.758   0.491   0.171 -1.5802  0.0862  0.5881
 5868TIP3   OH239162   2.181   4.493   0.724 -0.1290 -0.1130 -0.2279
 5868TIP3    H139163   2.090   4.509   0.749 -0.3941 -1.5586 -0.2009
 5868TIP3    H239164   2.232   4.525   0.798 -0.6835 -0.3554  0.2687
 5869TIP3   OH239165   1.187   3.943   0.093 -0.2224  0.0832  0.1362
 5869TIP3    H139166   1.162   3.863   0.140  0.2172  1.1403  2.3418
 5869TIP3    H239167   1.273   3.966   0.130 -0.5393  1.7876 -0.1052
 5870TIP3   OH239168   1.255   4.308   0.246  0.3047  0.1900  0.2030
 5870TIP3    H139169   1.243   4.321   0.340  1.3999 -1.2207  0.5634
 5870TIP3    H239170   1.232   4.216   0.231 -1.9941  0.9066 -1.3197
 5871TIP3   OH239171   4.269   2.242   2.532  0.1235  0.3913 -0.4985
 5871TIP3    H139172   4.182   2.221   2.498 -0.6227  0.0524  1.4914
 5871TIP3    H239173   4.262   2.228   2.627  1.4795  3.2666  0.1450
 5872TIP3   OH239174   2.811   0.936   1.855  0.5133  0.0542  0.1120
 5872TIP3    H139175   2.806   0.992   1.777  1.6817 -0.8862 -0.6766
 5872TIP3    H239176   2.873   0.867   1.831  1.6974  0.3018  2.2304
 5873TIP3   OH239177   2.551   1.437   7.579 -0.1148 -0.1361  0.5863
 5873TIP3    H139178   2.600   1.508   7.538 -0.6313 -0.7767 -1.2899
 5873TIP3    H239179   2.471   1.478   7.611 -0.8335  0.0604 -1.2882
 5874TIP3   OH239180   1.295   3.068   0.916 -0.2183 -0.3321  0.0191
 5874TIP3    H139181   1.380   3.076   0.959  0.6116 -1.0217 -1.4031
 5874TIP3    H239182   1.316   3.036   0.828 -1.8082  1.1966 -0.9738
 5875TIP3   OH239183   2.537   6.801   8.267 -0.5248 -0.2734  0.0295
 5875TIP3    H139184   2.503   6.889   8.283 -0.1790 -0.0945 -0.1925
 5875TIP3    H239185   2.531   6.790   8.172  1.2106  0.2717 -0.1848
 5876TIP3   OH239186   3.734   4.860   6.799  0.4240  0.1433  0.4141
 5876TIP3    H139187   3.745   4.943   6.753 -0.2918  0.8136  1.4070
 5876TIP3    H239188   3.719   4.795   6.730  1.7028  0.7033 -0.4126
 5877TIP3   OH239189   0.276   2.832   8.469  0.0783  0.5687 -0.0212
 5877TIP3    H139190   0.204   2.825   8.531  0.7799 -1.6041  0.6517
 5877TIP3    H239191   0.243   2.791   8.389  0.5925 -0.7178  0.3845
 5878TIP3   OH239192   3.293   1.116   2.252 -0.4154 -0.4941  0.1024
 5878TIP3    H139193   3.269   1.140   2.162  1.4168  0.0901 -0.2592
 5878TIP3    H239194   3.283   1.198   2.301 -0.7505 -0.6482  0.2909
 5879TIP3   OH239195   5.822   0.234   0.794 -0.3394 -0.6255  0.0255
 5879TIP3    H139196   5.770   0.239   0.875  0.4485 -1.2243  0.5870
 5879TIP3    H239197   5.763   0.191   0.731 -0.6649 -0.9386  0.5353
 5880TIP3   OH239198   0.272   5.867   7.042  0.1050 -0.0770  0.1549
 5880TIP3    H139199   0.208   5.935   7.021  0.7062  0.6906  0.7671
 5880TIP3    H239200   0.235   5.787   7.004 -0.9457  0.4536  0.0228
 5881TIP3   OH239201   1.553   1.095   2.517  0.2124 -0.1784 -0.0473
 5881TIP3    H139202   1.535   1.066   2.607 -0.8547  0.7790  0.0708
 5881TIP3    H239203   1.595   1.180   2.527 -3.1374  1.6959 -0.4167
 5882TIP3   OH239204   3.957   2.287   6.896 -0.1844 -0.2586 -0.2438
 5882TIP3    H139205   3.965   2.381   6.909  0.8123 -0.4355  0.5583
 5882TIP3    H239206   4.047   2.254   6.904 -0.5958 -1.3472  0.0805
 5883TIP3   OH239207   1.015   3.803   7.579 -0.2336  0.4166  0.1389
 5883TIP3    H139208   1.005   3.795   7.674 -0.5675 -0.2177  0.0549
 5883TIP3    H239209   1.081   3.737   7.556  0.7454  1.3880  0.0792
 5884TIP3   OH239210   1.900   5.258   7.743  0.4732  0.7708  0.2582
 5884TIP3    H139211   1.988   5.295   7.745 -0.6514  3.7292 -0.0242
 5884TIP3    H239212   1.863   5.287   7.660 -0.3490 -1.6137 -0.2783
 5885TIP3   OH239213   2.442   3.888   0.908 -0.2800  0.7859  0.0579
 5885TIP3    H139214   2.415   3.855   0.994  0.1830  2.7336  1.0128
 5885TIP3    H239215   2.518   3.835   0.885 -0.7455 -0.1359  0.5692
 5886TIP3   OH239216   5.821   2.911   1.451  0.5006  0.3476  0.1463
 5886TIP3    H139217   5.781   2.859   1.382 -0.9230 -0.0850  1.2398
 5886TIP3    H239218   5.799   2.864   1.532  0.6266  1.7510  1.0362
 5887TIP3   OH239219   4.167   1.364   1.687 -0.2983  0.7415 -0.4751
 5887TIP3    H139220   4.141   1.452   1.657  1.3038  1.5264  0.3101
 5887TIP3    H239221   4.240   1.340   1.630 -0.6166 -0.0199 -0.5684
 5888TIP3   OH239222   3.933   3.975   8.075 -0.2398  0.3842 -0.3318
 5888TIP3    H139223   4.014   3.990   8.122 -0.6132 -2.4443  1.4342
 5888TIP3    H239224   3.872   4.040   8.110 -0.0754 -0.6816  2.1029
 5889TIP3   OH239225   2.932   3.637   7.243 -0.5929  0.0035  0.2787
 5889TIP3    H139226   2.871   3.707   7.266 -1.6842 -1.2078  1.1903
 5889TIP3    H239227   2.953   3.653   7.151 -0.9304  1.4252  0.4242
 5890TIP3   OH239228   1.323   1.985   7.651 -0.1669  0.2432  0.0990
 5890TIP3    H139229   1.315   2.021   7.739 -0.4605  0.5672 -0.0594
 5890TIP3    H239230   1.315   2.061   7.593  0.6510  0.1274 -0.1908
 5891TIP3   OH239231   3.331   4.431   7.220 -0.0154 -0.1051 -0.3516
 5891TIP3    H139232   3.377   4.415   7.137  1.7604 -0.8889  0.7358
 5891TIP3    H239233   3.244   4.392   7.207  0.1145  0.0569 -1.9338
 5892TIP3   OH239234   0.250   3.902   8.011  0.3182  0.0677 -0.0537
 5892TIP3    H139235   0.179   3.921   7.950  2.5163 -0.0399 -2.8083
 5892TIP3    H239236   0.255   3.807   8.014  2.0135  0.0162 -2.1086
 5893TIP3   OH239237   3.405   1.046   1.528 -0.3674  0.7907  1.0917
 5893TIP3    H139238   3.393   1.137   1.555  2.1305  1.5306 -0.0263
 5893TIP3    H239239   3.497   1.028   1.546  0.1503 -0.2852 -2.0723
 5894TIP3   OH239240   6.179   4.004   0.420  0.7321  0.8037  0.1643
 5894TIP3    H139241   6.139   4.041   0.499 -0.5256  2.3102 -1.0904
 5894TIP3    H239242   6.273   4.015   0.433  0.4863  2.9463  0.6403
 5895TIP3   OH239243   6.648   5.895   0.971  0.0305 -0.1373 -0.2504
 5895TIP3    H139244   6.575   5.835   0.980 -0.7349  0.7023 -0.7072
 5895TIP3    H239245   6.655   5.937   1.057  0.4125 -0.7006 -0.0045
 5896TIP3   OH239246   2.015   6.022   7.361 -0.1575 -0.1192  0.1722
 5896TIP3    H139247   1.968   6.104   7.346 -0.5195  0.0256  1.9449
 5896TIP3    H239248   2.022   5.983   7.274 -2.8674  0.2177 -0.2896
 5897TIP3   OH239249   0.493   4.743   0.203  0.6610  0.3838 -0.1988
 5897TIP3    H139250   0.464   4.828   0.236 -2.2616 -0.3489 -0.6596
 5897TIP3    H239251   0.413   4.695   0.184  2.2172 -1.9690 -1.3701
 5898TIP3   OH239252   0.190   0.693   7.839  0.2229  0.1336 -0.0556
 5898TIP3    H139253   0.205   0.700   7.745 -3.6558 -1.1137 -0.9644
 5898TIP3    H239254   0.116   0.752   7.856  0.2040 -0.3906  2.0132
 5899TIP3   OH239255   6.234   6.307   7.826  0.3715  0.6675  0.9936
 5899TIP3    H139256   6.289   6.321   7.749 -0.4765  2.0689  0.6027
 5899TIP3    H239257   6.287   6.253   7.884  0.6506 -1.3031 -0.9643
 5900TIP3   OH239258   4.860   0.370   0.493 -0.0091 -0.7209 -0.3836
 5900TIP3    H139259   4.903   0.437   0.441  0.2501  1.9880  2.9616
 5900TIP3    H239260   4.770   0.402   0.504  0.1337 -0.7958  1.3378
 5901TIP3   OH239261   3.258   1.168   1.947  0.1199  0.2261 -0.6259
 5901TIP3    H139262   3.170   1.188   1.916  0.0768 -0.4321 -0.9315
 5901TIP3    H239263   3.309   1.247   1.927 -0.3269  0.4886 -0.7275
 5902TIP3   OH239264   1.477   4.547   7.229  0.1986  0.4313  0.5976
 5902TIP3    H139265   1.392   4.562   7.270 -1.1041 -0.3084 -1.6557
 5902TIP3    H239266   1.492   4.624   7.174 -0.4910 -0.6987 -1.2740
 5903TIP3   OH239267   1.188   6.114   8.150 -0.2063  0.0493 -0.1266
 5903TIP3    H139268   1.234   6.030   8.147 -0.6015 -0.1783 -2.6400
 5903TIP3    H239269   1.120   6.106   8.083 -0.9777  1.9836  0.3569
 5904TIP3   OH239270   5.421   2.990   7.093 -0.4408  0.8295  0.1263
 5904TIP3    H139271   5.432   3.023   7.004 -0.8906 -1.2328 -0.7563
 5904TIP3    H239272   5.346   2.931   7.088 -0.3950  0.5506  1.8521
 5905TIP3   OH239273   0.668   2.411   0.082 -0.5150  0.3274  0.4129
 5905TIP3    H139274   0.624   2.495   0.094 -0.3447  0.4628  0.1078
 5905TIP3    H239275   0.736   2.409   0.148 -2.0276 -0.6155  2.0404
 5906TIP3   OH239276   1.559   5.672   8.351 -0.7424  0.4537 -0.3136
 5906TIP3    H139277   1.491   5.736   8.370 -1.0001  0.8042 -2.1475
 5906TIP3    H239278   1.513   5.600   8.308 -0.7262 -1.8334  3.1134
 5907TIP3   OH239279   5.987   2.911   0.289  0.2000  0.3069 -0.1939
 5907TIP3    H139280   6.062   2.916   0.349  0.3327  0.6511 -0.3872
 5907TIP3    H239281   5.919   2.963   0.332 -1.6368 -3.7077  2.3765
 5908TIP3   OH239282   5.561   2.481   1.481 -0.2543  0.9558  0.2029
 5908TIP3    H139283   5.564   2.526   1.565  3.0235  2.9931 -0.8260
 5908TIP3    H239284   5.631   2.415   1.487 -1.2742 -0.2117 -0.3071
 5909TIP3   OH239285   2.725   2.300   1.177  0.3801 -0.2200 -0.0833
 5909TIP3    H139286   2.729   2.304   1.273 -0.8070  3.2700 -0.0319
 5909TIP3    H239287   2.816   2.307   1.150  0.5598  1.9677  0.8699
 5910TIP3   OH239288   6.234   2.566   7.956  0.2715 -0.1587  0.3761
 5910TIP3    H139289   6.276   2.636   7.907 -0.6551  0.5970  0.6396
 5910TIP3    H239290   6.148   2.556   7.916  0.0389 -0.5012  0.9438
 5911TIP3   OH239291   2.240   1.104   0.877 -0.2222 -0.4996  0.2044
 5911TIP3    H139292   2.281   1.177   0.923 -0.7509 -2.1953  3.7374
 5911TIP3    H239293   2.158   1.139   0.844 -1.1902  0.2515  3.1552
 5912TIP3   OH239294   1.764   3.853   1.942 -0.2499 -0.2476  0.1832
 5912TIP3    H139295   1.819   3.779   1.971 -0.3958  0.2950  1.9720
 5912TIP3    H239296   1.686   3.812   1.904  0.7716 -1.0119 -1.1955
 5913TIP3   OH239297   4.612   6.255   1.199  0.3611 -0.2662  0.3260
 5913TIP3    H139298   4.569   6.294   1.275  0.0354  0.2301 -0.1042
 5913TIP3    H239299   4.662   6.327   1.161  0.1609 -0.3907 -0.1841
 5914TIP3   OH239300   1.145   3.549   7.434  0.4675 -0.6480 -0.6662
 5914TIP3    H139301   1.101   3.523   7.352  0.0096 -1.4585 -0.1841
 5914TIP3    H239302   1.132   3.474   7.492  1.2851 -0.3141 -0.0344
 5915TIP3   OH239303   6.741   5.277   1.518 -0.3350 -0.1141 -0.1202
 5915TIP3    H139304   6.719   5.368   1.497  0.2689  0.0100 -0.2219
 5915TIP3    H239305   6.821   5.283   1.570 -0.3147 -0.5894 -0.0974
 5916TIP3   OH239306   1.899   2.098   2.136  0.6663 -0.7734 -0.1437
 5916TIP3    H139307   1.928   2.081   2.046  0.1735 -0.2946 -0.3990
 5916TIP3    H239308   1.806   2.075   2.136  0.8238 -1.4607  0.4374
 5917TIP3   OH239309   5.465   0.908   7.794  0.0213  0.6394  0.4960
 5917TIP3    H139310   5.500   0.833   7.842  0.9755  1.7662  1.6427
 5917TIP3    H239311   5.400   0.871   7.736  0.5088 -1.0869  0.9879
 5918TIP3   OH239312   4.176   5.928   8.400 -0.1042 -0.1194 -0.1473
 5918TIP3    H139313   4.160   5.843   8.360 -1.3160  0.3819 -0.7709
 5918TIP3    H239314   4.089   5.961   8.422  0.4068  0.5524  0.9648
 5919TIP3   OH239315   0.533   2.253   8.086 -0.0759  0.1367  0.1361
 5919TIP3    H139316   0.625   2.232   8.098  0.2113  0.7348 -0.8903
 5919TIP3    H239317   0.511   2.311   8.159  0.2878 -0.2204  0.5280
 5920TIP3   OH239318   1.672   6.627   0.910  0.3426 -0.0116  0.1788
 5920TIP3    H139319   1.684   6.721   0.927  1.0551  0.0467 -0.5654
 5920TIP3    H239320   1.756   6.599   0.873  0.6937 -1.2910  1.8492
 5921TIP3   OH239321   3.056   0.567   2.060  0.0178 -0.0498 -0.3036
 5921TIP3    H139322   3.029   0.649   2.102 -1.3376 -1.6858  2.2615
 5921TIP3    H239323   3.137   0.590   2.015 -0.8258  2.9155 -0.5474
 5922TIP3   OH239324   5.159   4.458   2.215 -0.8896 -0.4425  0.2175
 5922TIP3    H139325   5.105   4.380   2.225  0.4091 -1.5330 -0.8923
 5922TIP3    H239326   5.238   4.439   2.266  0.5404 -0.9907 -2.0724
 5923TIP3   OH239327   2.109   0.454   0.588  0.4507  0.1724 -0.1978
 5923TIP3    H139328   2.080   0.373   0.630 -2.0384  0.5903 -0.9152
 5923TIP3    H239329   2.203   0.442   0.574  0.3613 -2.1178  0.7122
 5924TIP3   OH239330   0.116   1.351   2.485 -0.1124 -0.3286  0.2666
 5924TIP3    H139331   0.106   1.304   2.403  0.4770 -1.9368  1.0762
 5924TIP3    H239332   0.076   1.437   2.469 -1.2625 -1.1056 -1.2382
 5925TIP3   OH239333   4.940   3.705   1.631 -0.4180 -0.2218  0.8475
 5925TIP3    H139334   5.021   3.756   1.630 -0.4269 -0.1767 -0.8942
 5925TIP3    H239335   4.966   3.619   1.597 -1.4490  0.4899 -2.0675
 5926TIP3   OH239336   3.510   5.329   0.287 -0.0427  0.2887  0.6265
 5926TIP3    H139337   3.434   5.377   0.318  0.7154  3.0962 -1.4444
 5926TIP3    H239338   3.578   5.348   0.351 -0.1669  0.7130  0.6377
 5927TIP3   OH239339   1.915   2.441   2.677  0.7892  0.3944  0.2456
 5927TIP3    H139340   1.877   2.354   2.689  3.3252 -0.8792 -0.2682
 5927TIP3    H239341   1.960   2.459   2.760 -0.1592  1.4814  0.5426
 5928TIP3   OH239342   2.881   2.440   0.801 -0.1110  0.2700 -0.2761
 5928TIP3    H139343   2.899   2.533   0.790 -0.1516  0.1661 -1.3671
 5928TIP3    H239344   2.945   2.397   0.744  0.9674 -0.4692  1.3993
 5929TIP3   OH239345   5.865   5.347   2.385  0.0443 -0.2779  0.3498
 5929TIP3    H139346   5.947   5.382   2.349 -0.7038 -0.1466 -1.3309
 5929TIP3    H239347   5.823   5.304   2.310 -0.4613 -2.2040  1.6815
 5930TIP3   OH239348   2.668   5.696   0.647 -0.1223  0.0163 -0.6931
 5930TIP3    H139349   2.760   5.718   0.666  0.0215  0.1921 -1.5501
 5930TIP3    H239350   2.643   5.757   0.577 -0.6374 -0.5805 -1.0368
 5931TIP3   OH239351   3.462   0.381   0.932 -0.0230  0.0694  0.0270
 5931TIP3    H139352   3.374   0.411   0.952 -0.3899  0.9077 -2.5146
 5931TIP3    H239353   3.457   0.285   0.936 -1.2925  0.0805 -0.9516
 5932TIP3   OH239354   4.907   4.556   1.068 -0.0311  0.2689 -0.4393
 5932TIP3    H139355   4.969   4.604   1.123 -0.5190  0.0978  0.2812
 5932TIP3    H239356   4.861   4.624   1.020  0.0758  0.4560 -0.2814
 5933TIP3   OH239357   3.023   6.630   2.282  0.7022  0.2743 -0.7330
 5933TIP3    H139358   3.111   6.638   2.245 -0.0299 -0.1181 -2.7164
 5933TIP3    H239359   2.980   6.712   2.258 -0.0802 -0.3790 -1.6603
 5934TIP3   OH239360   4.469   2.944   8.646  0.4289  0.6628  0.1249
 5934TIP3    H139361   4.523   2.920   8.721  0.5620  1.4246  0.2799
 5934TIP3    H239362   4.434   3.031   8.668 -0.7175  0.2638 -0.0469
 5935TIP3   OH239363   4.675   5.553   2.009 -0.0775 -0.3632  0.1328
 5935TIP3    H139364   4.610   5.598   1.956  0.0210 -0.7599 -0.3304
 5935TIP3    H239365   4.707   5.620   2.070  1.0782  0.6041 -1.4568
 5936TIP3   OH239366   4.197   2.502   7.026 -0.1680 -0.5472 -0.0348
 5936TIP3    H139367   4.222   2.440   6.957 -3.6269  0.0063 -2.0089
 5936TIP3    H239368   4.214   2.588   6.988  1.4401 -0.1845  1.3855
 5937TIP3   OH239369   4.665   0.531   0.378  0.2461 -0.2440 -0.2514
 5937TIP3    H139370   4.667   0.551   0.284  1.8896 -0.6392 -0.3228
 5937TIP3    H239371   4.600   0.461   0.386 -1.3443  1.0855 -0.7887
 5938TIP3   OH239372   3.423   3.988   1.044 -0.3102  1.4718 -0.3534
 5938TIP3    H139373   3.459   3.979   1.132 -0.1241  2.5938 -0.2994
 5938TIP3    H239374   3.352   4.050   1.053  0.1663  2.1393 -1.1094
 5939TIP3   OH239375   1.396   2.274   8.324  0.6286 -0.1184 -0.4014
 5939TIP3    H139376   1.398   2.240   8.414 -0.7363  0.5747 -0.0789
 5939TIP3    H239377   1.459   2.220   8.277  0.2176 -1.5497  0.6181
 5940TIP3   OH239378   6.842   0.212   7.354  0.1420 -0.8205 -1.3343
 5940TIP3    H139379   6.805   0.281   7.408  2.0408 -1.5936  1.1662
 5940TIP3    H239380   6.880   0.258   7.279  0.4583  0.7726 -0.2553
 5941TIP3   OH239381   0.994   5.724   1.998 -0.0816 -0.6604  0.4910
 5941TIP3    H139382   0.928   5.735   1.929 -0.6271 -0.0871  1.0843
 5941TIP3    H239383   1.001   5.629   2.009 -0.0220 -0.7561 -0.3181
 5942TIP3   OH239384   2.548   2.903   2.355  0.9510  0.7049 -0.1396
 5942TIP3    H139385   2.499   2.986   2.358  1.1315  0.8250 -0.4719
 5942TIP3    H239386   2.488   2.839   2.393 -0.0090  0.5866 -1.7765
 5943TIP3   OH239387   0.558   1.841   1.140 -0.3316  0.5345  0.2735
 5943TIP3    H139388   0.585   1.922   1.098  0.4726  0.3367  0.3947
 5943TIP3    H239389   0.499   1.799   1.077 -2.7012  2.3020  1.1534
 5944TIP3   OH239390   6.146   0.418   1.525  0.9558 -0.1754  0.4362
 5944TIP3    H139391   6.216   0.356   1.548  1.0609  0.1482  1.0250
 5944TIP3    H239392   6.155   0.489   1.589  1.0082  0.5867 -0.3945
 5945TIP3   OH239393   5.649   2.693   8.427 -0.3217  0.1324  0.9846
 5945TIP3    H139394   5.574   2.750   8.443 -1.1269 -0.8477  0.8304
 5945TIP3    H239395   5.722   2.753   8.408 -1.6744  1.1120 -1.5512
 5946TIP3   OH239396   2.684   4.153   8.487  0.2256  0.5949  0.2511
 5946TIP3    H139397   2.619   4.120   8.550  1.7606 -0.6468  1.2659
 5946TIP3    H239398   2.717   4.234   8.527  0.2287  0.5244  0.3940
 5947TIP3   OH239399   0.656   5.446   0.874  0.1321  0.0319 -0.1819
 5947TIP3    H139400   0.716   5.475   0.943  0.4977 -1.2641  0.0657
 5947TIP3    H239401   0.580   5.504   0.884  0.2943  0.0609  1.1345
 5948TIP3   OH239402   4.833   4.353   0.764 -0.0422  0.1775 -0.0441
 5948TIP3    H139403   4.897   4.416   0.732 -1.7099  1.5040 -0.9974
 5948TIP3    H239404   4.784   4.327   0.685 -0.1607 -1.4478  0.5151
 5949TIP3   OH239405   1.935   0.853   6.811 -0.4744  0.1990  0.2207
 5949TIP3    H139406   1.965   0.798   6.883 -0.3829 -0.7048 -0.4882
 5949TIP3    H239407   1.840   0.837   6.807 -0.6899  1.1917  0.9065
 5950TIP3   OH239408   6.114   0.198   0.958 -0.0155 -0.7608  0.2246
 5950TIP3    H139409   6.208   0.179   0.960 -0.0309 -1.0283 -0.8091
 5950TIP3    H239410   6.104   0.254   0.881 -0.7086 -0.7604  0.3162
 5951TIP3   OH239411   4.006   0.659   7.769  0.7010  0.5385  0.5365
 5951TIP3    H139412   4.039   0.746   7.793  0.6819  0.6010  0.3329
 5951TIP3    H239413   3.937   0.641   7.833 -1.6887  2.1251 -1.4574
 5952TIP3   OH239414   0.361   0.448   1.609  0.2013 -0.0783  0.1944
 5952TIP3    H139415   0.377   0.527   1.660  1.8687 -0.5737  0.5055
 5952TIP3    H239416   0.440   0.395   1.621 -0.6541 -1.5716 -0.4157
 5953TIP3   OH239417   0.181   6.311   1.991  0.0384  0.0508  0.4949
 5953TIP3    H139418   0.181   6.388   1.934 -0.3324 -0.6773 -0.5296
 5953TIP3    H239419   0.242   6.332   2.061 -1.4227  2.0020  1.2592
 5954TIP3   OH239420   6.840   1.761   8.028  0.0980  0.1229 -0.3045
 5954TIP3    H139421   6.752   1.773   7.993 -0.5025 -0.5300  0.9242
 5954TIP3    H239422   6.897   1.812   7.969 -1.3317  2.3045  0.0856
 5955TIP3   OH239423   5.631   4.101   1.996  0.2213 -0.2207  0.1470
 5955TIP3    H139424   5.544   4.111   2.032  0.3257  2.3563 -0.1746
 5955TIP3    H239425   5.690   4.138   2.061  0.9017 -0.2441 -0.4328
 5956TIP3   OH239426   5.190   6.508   1.250 -0.2283  0.7277  0.7901
 5956TIP3    H139427   5.118   6.568   1.269 -0.0619  0.8897  0.9120
 5956TIP3    H239428   5.147   6.430   1.215 -0.2684  2.0544 -2.3829
 5957TIP3   OH239429   5.424   4.923   0.518  0.2370  0.2343  0.1873
 5957TIP3    H139430   5.374   5.002   0.497  1.5540  0.9871 -0.2615
 5957TIP3    H239431   5.513   4.944   0.491  0.3681 -1.9261 -1.2574
 5958TIP3   OH239432   1.393   0.269   1.038  0.3209 -0.4230 -0.4978
 5958TIP3    H139433   1.479   0.256   1.077  1.3678  3.6148 -1.1009
 5958TIP3    H239434   1.337   0.295   1.111  1.0915  2.4186 -0.8363
 5959TIP3   OH239435   4.974   4.606   1.499  0.3432  0.2688 -0.4788
 5959TIP3    H139436   5.032   4.537   1.464  1.0069  0.7649 -0.3713
 5959TIP3    H239437   4.898   4.558   1.533  0.6692 -0.3890 -0.6574
 5960TIP3   OH239438   0.418   5.741   0.586 -0.2974  0.1331 -0.2222
 5960TIP3    H139439   0.334   5.781   0.609  0.3503  0.9367  0.8262
 5960TIP3    H239440   0.478   5.769   0.655  0.9945  0.1328 -1.3010
 5961TIP3   OH239441   0.982   4.158   0.231 -0.3901 -0.1290 -0.0939
 5961TIP3    H139442   0.893   4.152   0.198 -0.9559 -0.5110  1.4493
 5961TIP3    H239443   1.000   4.072   0.270  0.1532  0.3604  0.7785
 5962TIP3   OH239444   5.366   0.998   2.298 -0.7416  0.4681 -0.3849
 5962TIP3    H139445   5.432   0.947   2.344  0.9578  2.2639 -0.7016
 5962TIP3    H239446   5.336   0.941   2.227  0.1308 -0.5531  0.0548
 5963TIP3   OH239447   6.251   2.170   7.876  0.5154  0.1615 -0.4149
 5963TIP3    H139448   6.240   2.182   7.781  1.0482  0.3349 -0.4575
 5963TIP3    H239449   6.262   2.076   7.887  0.3504  0.1294 -0.5102
 5964TIP3   OH239450   6.718   1.808   0.217  0.4436 -0.6515  0.2049
 5964TIP3    H139451   6.734   1.713   0.219  0.5957 -0.6844 -1.2615
 5964TIP3    H239452   6.804   1.846   0.201  0.4875 -0.2013  1.4058
 5965TIP3   OH239453   3.952   6.741   7.316  0.2595  0.0428 -0.2085
 5965TIP3    H139454   3.889   6.682   7.357 -1.0406  2.0377  0.8164
 5965TIP3    H239455   3.900   6.788   7.250  1.1152  0.4493 -0.5998
 5966TIP3   OH239456   3.596   0.188   8.437 -0.4144 -0.4575  0.5237
 5966TIP3    H139457   3.663   0.247   8.402 -0.7765 -0.8884 -0.9744
 5966TIP3    H239458   3.519   0.243   8.449  0.4916  0.3209  3.4453
 5967TIP3   OH239459   1.662   0.909   1.743  0.0445  0.6164  0.0945
 5967TIP3    H139460   1.704   0.824   1.756  1.1666  0.8823 -1.5658
 5967TIP3    H239461   1.568   0.889   1.738  0.3955 -0.8093 -2.1249
 5968TIP3   OH239462   1.902   4.029   1.492  0.0666  0.1833  0.0697
 5968TIP3    H139463   1.862   3.999   1.410  1.7088 -2.5658  0.1271
 5968TIP3    H239464   1.988   4.061   1.465  1.2808 -2.2379  0.7487
 5969TIP3   OH239465   1.582   0.882   8.088 -0.0828  0.3107 -0.1301
 5969TIP3    H139466   1.489   0.895   8.074 -0.5232 -0.7140  1.5752
 5969TIP3    H239467   1.604   0.805   8.035 -0.1554  0.6485 -0.6566
 5970TIP3   OH239468   6.316   1.010   0.866 -0.6395 -0.2864 -0.6687
 5970TIP3    H139469   6.277   1.034   0.782 -0.7414  1.5957 -0.1224
 5970TIP3    H239470   6.273   1.067   0.930  1.2645  0.1382  0.2950
 5971TIP3   OH239471   6.825   1.133   7.187  0.1466  0.0571  0.2488
 5971TIP3    H139472   6.810   1.225   7.168 -1.5885  0.1714  1.8779
 5971TIP3    H239473   6.830   1.090   7.101 -0.7130  1.4165 -0.5072
 5972TIP3   OH239474   0.528   1.293   1.015  0.1040 -0.0463 -0.2070
 5972TIP3    H139475   0.603   1.313   0.960  1.9008 -1.2808  1.6587
 5972TIP3    H239476   0.486   1.219   0.973  1.4073 -0.9288  0.0011
 5973TIP3   OH239477   5.070   3.802   8.149  0.2379  0.3353  0.4325
 5973TIP3    H139478   5.121   3.789   8.229 -0.2824  0.0948  0.7326
 5973TIP3    H239479   5.133   3.834   8.085  1.3792 -2.6501 -0.0717
 5974TIP3   OH239480   6.792   3.147   1.045 -0.1896 -0.2730  0.3994
 5974TIP3    H139481   6.783   3.113   0.956 -0.7346 -1.2590  0.8177
 5974TIP3    H239482   6.817   3.239   1.033  0.4168 -0.5740 -0.7561
 5975TIP3   OH239483   0.423   4.753   7.842 -1.0175  0.2828  0.1640
 5975TIP3    H139484   0.494   4.814   7.826 -0.9527  0.0277 -0.5498
 5975TIP3    H239485   0.412   4.753   7.937  0.6856 -0.5206  0.3931
 5976TIP3   OH239486   3.431   6.792   1.340 -0.4281 -0.1444  0.4711
 5976TIP3    H139487   3.469   6.704   1.337  0.9511  0.3813  1.7325
 5976TIP3    H239488   3.408   6.805   1.432 -1.9515  0.2872  0.0519
 5977TIP3   OH239489   1.591   2.638   8.351  0.0136  0.3244  0.0869
 5977TIP3    H139490   1.534   2.693   8.298  0.9292  1.2312  0.0030
 5977TIP3    H239491   1.549   2.636   8.437 -1.3125 -0.8969 -0.5522
 5978TIP3   OH239492   1.374   6.581   8.116  0.0813 -0.6226  0.1249
 5978TIP3    H139493   1.303   6.640   8.142 -0.4904 -0.5583 -1.5145
 5978TIP3    H239494   1.337   6.493   8.124 -1.1365 -0.5485 -3.0774
 5979TIP3   OH239495   5.282   0.930   1.660  0.0225  0.0282 -0.2194
 5979TIP3    H139496   5.348   0.939   1.592  1.5171 -1.3077  0.9687
 5979TIP3    H239497   5.265   1.020   1.689 -1.3154  0.7287 -2.8599
 5980TIP3   OH239498   3.420   4.640   7.584 -0.3368 -0.2829 -0.0241
 5980TIP3    H139499   3.388   4.597   7.505  0.0524 -1.1337  0.2709
 5980TIP3    H239500   3.442   4.568   7.643 -0.3187  0.3386  0.7365
 5981TIP3   OH239501   2.653   1.942   2.052  0.2895 -0.2924 -0.5448
 5981TIP3    H139502   2.719   1.992   2.100 -0.1928 -0.3260  0.1696
 5981TIP3    H239503   2.627   1.998   1.980  1.5824 -0.5440 -1.2417
 5982TIP3   OH239504   1.688   1.751   6.636  0.3524  0.1116 -0.0470
 5982TIP3    H139505   1.635   1.671   6.631  0.4262 -0.1005  1.8498
 5982TIP3    H239506   1.638   1.809   6.693  0.5461  1.2474 -0.9987
 5983TIP3   OH239507   5.388   0.810   0.576  0.1725  0.7730 -0.0103
 5983TIP3    H139508   5.321   0.773   0.633  1.2375 -1.5367 -0.1295
 5983TIP3    H239509   5.441   0.735   0.549  0.2740  1.8645 -3.3589
 5984TIP3   OH239510   3.327   5.842   0.681 -0.5822  0.3314  0.0724
 5984TIP3    H139511   3.366   5.777   0.739 -2.3595  0.3527  1.3905
 5984TIP3    H239512   3.395   5.908   0.668  0.0871 -0.0058  1.6556
 5985TIP3   OH239513   1.911   2.724   1.777 -0.5185  0.1216 -0.0843
 5985TIP3    H139514   1.974   2.775   1.727  1.3737 -1.2819  0.7776
 5985TIP3    H239515   1.826   2.754   1.745  0.4675 -1.2042 -4.7317
 5986TIP3   OH239516   1.715   6.299   8.363 -0.0579 -0.2308 -0.1365
 5986TIP3    H139517   1.695   6.373   8.306  1.2948 -0.7594 -1.3486
 5986TIP3    H239518   1.774   6.244   8.311  0.8070 -0.9993  1.5907
 5987TIP3   OH239519   1.117   6.846   7.150  0.2217  0.1413 -0.0294
 5987TIP3    H139520   1.060   6.796   7.091  0.7374  0.3614 -0.7286
 5987TIP3    H239521   1.068   6.852   7.232 -1.2997  1.3719 -0.9839
 5988TIP3   OH239522   2.683   5.072   8.332 -0.0753  0.3665 -0.3224
 5988TIP3    H139523   2.655   5.106   8.247  0.5318  0.4525 -0.4862
 5988TIP3    H239524   2.772   5.040   8.318 -0.2635 -0.3557  0.0844
 5989TIP3   OH239525   0.850   2.157   0.445 -0.5766 -0.5344 -0.5378
 5989TIP3    H139526   0.782   2.124   0.503 -0.3360 -0.4496 -0.2073
 5989TIP3    H239527   0.888   2.079   0.404 -0.5911 -0.6087 -0.4080
 5990TIP3   OH239528   2.832   1.843   1.357  0.0734  0.1164  0.4075
 5990TIP3    H139529   2.766   1.909   1.338  0.1756  0.3449  0.8325
 5990TIP3    H239530   2.912   1.892   1.374 -0.3582  0.0852  3.0090
 5991TIP3   OH239531   0.507   0.674   2.872 -0.4389 -0.3698 -0.2306
 5991TIP3    H139532   0.583   0.683   2.930  0.4662  1.1202 -1.5690
 5991TIP3    H239533   0.480   0.583   2.882  1.4206 -0.8914  0.4252
 5992TIP3   OH239534   1.328   3.993   1.411  0.0069  0.1152  0.5219
 5992TIP3    H139535   1.334   3.902   1.440 -0.3101  0.2223  0.9233
 5992TIP3    H239536   1.235   4.015   1.416 -0.0822  0.0900 -0.7345
 5993TIP3   OH239537   2.720   4.972   3.111 -0.4339  0.4801  0.1762
 5993TIP3    H139538   2.754   5.054   3.076 -0.8654  0.3958 -0.4717
 5993TIP3    H239539   2.695   4.922   3.033 -0.0192 -0.3335  0.5574
 5994TIP3   OH239540   1.787   2.879   1.335  0.2789  0.2521  0.4392
 5994TIP3    H139541   1.736   2.809   1.377  1.3224 -0.1053  1.1375
 5994TIP3    H239542   1.862   2.891   1.392  0.1530  1.9180  0.2850
 5995TIP3   OH239543   4.095   5.800   0.535 -0.1107 -0.3403  0.6992
 5995TIP3    H139544   4.106   5.895   0.535  1.1140 -0.4404  2.7017
 5995TIP3    H239545   4.176   5.767   0.495 -0.5154 -0.5752  0.0471
 5996TIP3   OH239546   2.129   3.061   2.429  0.2626  0.1076 -0.7231
 5996TIP3    H139547   2.128   3.145   2.474 -0.2340  0.9870 -2.3055
 5996TIP3    H239548   2.062   3.069   2.361 -1.5949 -2.4720  0.6209
 5997TIP3   OH239549   3.650   6.783   2.548 -0.5440  0.5379  0.4775
 5997TIP3    H139550   3.709   6.764   2.621  0.7315  1.8082 -0.1693
 5997TIP3    H239551   3.563   6.786   2.588 -0.0680 -0.3698  1.6392
 5998TIP3   OH239552   6.663   2.769   8.418 -0.7717 -0.5281  0.7714
 5998TIP3    H139553   6.648   2.713   8.342 -0.0317 -0.0690  0.2683
 5998TIP3    H239554   6.661   2.858   8.383 -0.9936 -0.2764  1.3957
 5999TIP3   OH239555   5.276   1.949   8.494 -0.4691  0.8353  0.6399
 5999TIP3    H139556   5.358   1.953   8.445 -1.1439  0.6842 -0.5353
 5999TIP3    H239557   5.283   2.020   8.558  0.5060  0.9163  0.4588
 6000TIP3   OH239558   6.117   0.467   8.442  0.5807  0.8252  0.3931
 6000TIP3    H139559   6.057   0.531   8.403 -1.2854 -0.7992  0.4426
 6000TIP3    H239560   6.146   0.509   8.523 -2.3399  0.8414  1.5770
 6001TIP3   OH239561   5.680   2.232   7.014 -0.4850  0.2062 -0.1848
 6001TIP3    H139562   5.774   2.249   7.011 -0.6890  1.4370 -0.1382
 6001TIP3    H239563   5.671   2.140   6.989  0.6551  0.3069 -1.0136
 6002TIP3   OH239564   1.892   0.115   1.311  1.1545  0.1555 -0.2798
 6002TIP3    H139565   1.798   0.105   1.296  1.3925 -1.5084 -0.8395
 6002TIP3    H239566   1.897   0.155   1.398 -0.0679  1.6821 -0.8533
 6003TIP3   OH239567   2.702   4.356   2.055 -0.6177  0.0043 -0.4361
 6003TIP3    H139568   2.617   4.312   2.049 -0.4720 -0.7100  1.8494
 6003TIP3    H239569   2.712   4.378   2.148  1.8858 -0.3385 -0.5464
 6004TIP3   OH239570   6.316   4.287   1.857 -0.5224 -0.4343 -0.9236
 6004TIP3    H139571   6.314   4.383   1.853 -1.9902 -0.4312 -0.7682
 6004TIP3    H239572   6.367   4.261   1.780 -0.1777  0.4603 -1.0135
 6005TIP3   OH239573   5.893   6.095   8.597 -0.3956 -0.4748  0.2101
 6005TIP3    H139574   5.962   6.066   8.657 -0.7992  1.6681  1.8047
 6005TIP3    H239575   5.929   6.175   8.557 -0.9402 -0.7856 -0.9469
 6006TIP3   OH239576   0.448   5.259   8.268 -0.0007  0.5039 -0.3096
 6006TIP3    H139577   0.445   5.286   8.176  0.9663  1.4597 -0.0843
 6006TIP3    H239578   0.508   5.321   8.309  1.5466 -1.4188  0.4676
 6007TIP3   OH239579   2.893   3.769   8.158  0.0150 -0.4247  0.1968
 6007TIP3    H139580   2.958   3.809   8.216  1.0938 -0.2358 -1.0810
 6007TIP3    H239581   2.831   3.840   8.140  0.4027 -0.1051  0.0933
 6008TIP3   OH239582   1.332   2.883   2.211 -0.4392  0.2008 -0.3012
 6008TIP3    H139583   1.412   2.864   2.260  0.4820 -1.5688 -2.3336
 6008TIP3    H239584   1.277   2.806   2.223 -0.4772  0.0328 -1.4323
 6009TIP3   OH239585   3.550   2.408   2.932 -0.6667 -0.1047  0.0541
 6009TIP3    H139586   3.511   2.495   2.924 -0.4386 -0.1138 -1.7157
 6009TIP3    H239587   3.479   2.348   2.912  0.0967 -0.1219 -3.1752
 6010TIP3   OH239588   1.877   4.134   7.022  0.8649 -0.0767  0.4554
 6010TIP3    H139589   1.914   4.210   6.977  0.7054 -0.0546  0.3603
 6010TIP3    H239590   1.938   4.063   7.002  0.4208 -0.2382 -0.4031
 6011TIP3   OH239591   2.368   4.814   8.114 -0.5015 -0.8456  0.0862
 6011TIP3    H139592   2.358   4.905   8.089 -2.2490 -0.9569  0.2836
 6011TIP3    H239593   2.284   4.789   8.152  0.5003 -2.0269  1.7071
 6012TIP3   OH239594   0.281   0.338   0.533 -0.0397 -0.4415 -0.0345
 6012TIP3    H139595   0.353   0.312   0.591 -0.1815 -0.2349  0.2349
 6012TIP3    H239596   0.314   0.320   0.445  0.9246  0.9871 -0.0150
 6013TIP3   OH239597   4.489   5.158   0.109  0.2273  0.1820 -0.4233
 6013TIP3    H139598   4.532   5.244   0.104 -1.6585  1.1664 -0.7977
 6013TIP3    H239599   4.417   5.164   0.047 -1.6548 -0.6558  1.5599
 6014TIP3   OH239600   3.650   2.466   2.048  0.0645  0.1322 -0.4897
 6014TIP3    H139601   3.642   2.406   2.122 -1.2525 -0.6766 -1.2304
 6014TIP3    H239602   3.742   2.492   2.047  0.3056 -0.5962  0.8372
 6015TIP3   OH239603   4.481   2.352   7.627  0.1932  0.2047  0.5445
 6015TIP3    H139604   4.559   2.389   7.585  0.2530 -1.1257 -0.5727
 6015TIP3    H239605   4.499   2.258   7.633 -1.8336 -0.3673 -0.9953
 6016TIP3   OH239606   1.017   4.298   8.087 -0.0124 -0.3765  0.4481
 6016TIP3    H139607   1.019   4.393   8.077  4.1037 -0.1367  1.6657
 6016TIP3    H239608   0.964   4.283   8.165  1.1072  1.2000  1.5794
 6017TIP3   OH239609   2.628   0.851   0.236  0.1178  0.2312 -0.3210
 6017TIP3    H139610   2.691   0.823   0.170  0.4934  1.5277 -0.5316
 6017TIP3    H239611   2.665   0.821   0.319  0.3262 -0.1959 -0.5642
 6018TIP3   OH239612   1.671   0.514   2.631 -0.2199  0.3743 -0.2718
 6018TIP3    H139613   1.760   0.507   2.665 -0.9369 -0.9515  1.5320
 6018TIP3    H239614   1.650   0.425   2.602 -0.6339  0.8838 -1.5974
 6019TIP3   OH239615   0.920   5.602   2.391  0.3758  0.0598  0.3638
 6019TIP3    H139616   0.982   5.674   2.404  0.5873  0.0605 -0.5990
 6019TIP3    H239617   0.960   5.547   2.324 -1.9786  1.6677 -2.5873
 6020TIP3   OH239618   1.715   1.866   0.760 -0.9863 -0.3333 -0.0161
 6020TIP3    H139619   1.641   1.900   0.709 -1.4259 -0.6847  0.3800
 6020TIP3    H239620   1.678   1.845   0.845 -0.0977  0.9540  0.7110
 6021TIP3   OH239621   6.566   4.026   1.774 -0.0488 -0.5100 -0.2861
 6021TIP3    H139622   6.586   3.937   1.802 -2.2889 -1.7981 -2.3779
 6021TIP3    H239623   6.470   4.032   1.779  0.0840  2.3791  1.2739
 6022TIP3   OH239624   0.822   2.122   1.091  0.3286 -0.2253 -0.7192
 6022TIP3    H139625   0.831   2.033   1.057 -0.1277 -1.2334  1.5902
 6022TIP3    H239626   0.882   2.125   1.165 -1.6230  0.4389  0.9335
 6023TIP3   OH239627   4.228   0.694   1.350 -0.6539  0.1573  0.6791
 6023TIP3    H139628   4.201   0.704   1.259 -0.2187  1.1742  0.6476
 6023TIP3    H239629   4.203   0.776   1.392  0.4334  0.2824  1.1262
 6024TIP3   OH239630   3.490   5.363   8.111 -0.4617  0.1138 -0.7049
 6024TIP3    H139631   3.514   5.412   8.190  1.3528 -1.3535 -0.2481
 6024TIP3    H239632   3.573   5.350   8.065 -1.1074 -1.1692 -1.5833
 6025TIP3   OH239633   5.331   3.379   8.479  0.1436 -0.4172 -0.0903
 6025TIP3    H139634   5.367   3.446   8.421  0.8345 -1.8252 -1.3404
 6025TIP3    H239635   5.384   3.386   8.558  0.9424 -0.2267 -0.6276
 6026TIP3   OH239636   5.961   2.314   0.752 -0.8576 -0.0518  0.3445
 6026TIP3    H139637   5.907   2.392   0.762 -0.3587  0.7185 -2.2646
 6026TIP3    H239638   5.983   2.311   0.659  0.9308 -2.1262  0.7399
 6027TIP3   OH239639   4.078   2.460   2.275 -0.1375  0.7298  0.0044
 6027TIP3    H139640   4.150   2.501   2.324 -0.1911  0.5961  0.2010
 6027TIP3    H239641   4.089   2.366   2.292  1.2024  0.4490 -2.0768
 6028TIP3   OH239642   0.377   4.502   6.897  0.0186 -0.2149  0.2321
 6028TIP3    H139643   0.311   4.440   6.865 -1.2199  0.1187  1.9765
 6028TIP3    H239644   0.441   4.447   6.942 -0.8871 -0.3345  1.4548
 6029TIP3   OH239645   5.654   5.732   1.141  0.2478 -0.1984  0.5285
 6029TIP3    H139646   5.636   5.681   1.062 -0.7027  1.6111 -0.4982
 6029TIP3    H239647   5.583   5.709   1.201 -0.0186 -0.2965  0.1795
 6030TIP3   OH239648   3.571   4.963   8.254 -0.1363 -0.1497 -0.1338
 6030TIP3    H139649   3.579   4.997   8.343  1.2766  2.6636 -1.2244
 6030TIP3    H239650   3.482   4.987   8.227 -0.0203  0.4346 -0.0103
 6031TIP3   OH239651   0.215   4.490   1.768  0.4550 -0.7123  0.1894
 6031TIP3    H139652   0.248   4.405   1.799  1.1268 -0.0071  1.4517
 6031TIP3    H239653   0.232   4.550   1.840 -2.5495 -0.0294  0.4447
 6032TIP3   OH239654   1.566   6.239   8.004  0.7837  0.1800  0.1984
 6032TIP3    H139655   1.580   6.315   8.060 -0.7731  0.4385  0.2892
 6032TIP3    H239656   1.491   6.263   7.950 -0.0776 -1.4846  0.5927
 6033TIP3   OH239657   6.669   1.123   2.420  0.6921  0.2713  0.5506
 6033TIP3    H139658   6.702   1.092   2.336  1.0063  1.2571  0.3053
 6033TIP3    H239659   6.630   1.208   2.401  0.8471  0.5446  1.4232
 6034TIP3   OH239660   1.926   1.504   7.337 -0.4239  0.0480  0.1216
 6034TIP3    H139661   1.857   1.455   7.292 -1.0311  2.0494 -1.2527
 6034TIP3    H239662   1.878   1.569   7.389  0.3937  0.6090  0.1820
 6035TIP3   OH239663   4.655   1.591   0.374  0.1580  0.0546  0.0519
 6035TIP3    H139664   4.577   1.637   0.343 -1.1976 -2.7061 -0.9191
 6035TIP3    H239665   4.650   1.598   0.470 -1.3882 -0.1708  0.0188
 6036TIP3   OH239666   6.276   4.554   3.112  0.8421  0.7848 -0.6924
 6036TIP3    H139667   6.256   4.541   3.019 -1.8557  2.0756 -0.4144
 6036TIP3    H239668   6.309   4.644   3.117  0.6952  0.8231 -0.3728
 6037TIP3   OH239669   6.716   6.408   0.392 -0.0011 -0.3422 -0.3610
 6037TIP3    H139670   6.737   6.463   0.468 -0.3099 -1.3460  0.4825
 6037TIP3    H239671   6.655   6.342   0.427 -1.6778  0.3003 -1.9089
 6038TIP3   OH239672   1.290   2.503   8.187 -0.3044  0.0589 -0.2300
 6038TIP3    H139673   1.233   2.465   8.120  0.0384 -0.6131 -0.1507
 6038TIP3    H239674   1.274   2.451   8.265  0.7082 -0.4029 -0.3164
 6039TIP3   OH239675   3.440   0.097   6.875  0.0525  0.3549 -0.1614
 6039TIP3    H139676   3.450   0.154   6.798  0.7959  2.0217  1.1072
 6039TIP3    H239677   3.348   0.104   6.897  0.4928  2.9914  1.2945
 6040TIP3   OH239678   3.637   4.180   2.128 -0.2585 -0.2507  0.3463
 6040TIP3    H139679   3.730   4.190   2.106 -0.6417  0.8827 -0.8996
 6040TIP3    H239680   3.594   4.169   2.043 -1.2842 -0.5663  0.9002
 6041TIP3   OH239681   6.444   5.826   1.634  0.0392 -0.2313  0.5525
 6041TIP3    H139682   6.499   5.894   1.674 -0.2632  0.0897  0.4270
 6041TIP3    H239683   6.354   5.855   1.651 -0.1400 -1.5557  2.1588
 6042TIP3   OH239684   1.594   5.171   2.345  0.1651 -0.1755 -0.0335
 6042TIP3    H139685   1.608   5.077   2.358 -1.5901 -0.6960 -1.5301
 6042TIP3    H239686   1.681   5.206   2.325  1.0394 -1.2460  1.6010
 6043TIP3   OH239687   6.163   4.146   7.820  0.1130 -0.4785 -0.5464
 6043TIP3    H139688   6.236   4.095   7.787  0.3193 -0.3468 -0.2992
 6043TIP3    H239689   6.140   4.104   7.903 -1.4830 -1.8433 -1.5979
 6044TIP3   OH239690   5.183   1.134   7.813  0.4376  0.1587 -0.1455
 6044TIP3    H139691   5.110   1.194   7.832  0.0917  0.1367 -1.3056
 6044TIP3    H239692   5.144   1.066   7.759  1.0203 -0.6662  0.4632
 6045TIP3   OH239693   5.453   6.242   0.401  1.0480 -0.3077 -0.5890
 6045TIP3    H139694   5.441   6.160   0.354 -2.8398  0.4993 -1.3709
 6045TIP3    H239695   5.420   6.309   0.341  1.1426  1.4448  1.1943
 6046TIP3   OH239696   5.051   0.932   0.784 -0.3846 -0.2378  0.2155
 6046TIP3    H139697   4.993   0.887   0.723 -0.4163  0.6730 -0.4482
 6046TIP3    H239698   5.038   0.888   0.868 -1.4935 -0.5042 -0.0922
 6047TIP3   OH239699   1.849   6.392   2.125 -0.1569 -0.4705 -0.6226
 6047TIP3    H139700   1.942   6.373   2.111  0.9251  2.3896  1.6265
 6047TIP3    H239701   1.818   6.423   2.040  0.3525 -3.0859 -1.8807
 6048TIP3   OH239702   6.412   1.587   0.648  0.1376 -0.3501  0.3191
 6048TIP3    H139703   6.389   1.541   0.728 -0.0629  1.7651  1.5476
 6048TIP3    H239704   6.349   1.658   0.641  1.2684  0.5991 -0.7363
 6049TIP3   OH239705   6.572   1.200   7.435 -0.1022  0.5880 -0.6204
 6049TIP3    H139706   6.504   1.256   7.398  0.4011  0.7290 -1.3509
 6049TIP3    H239707   6.529   1.117   7.452 -0.4782  0.7123 -0.9713
 6050TIP3   OH239708   5.992   6.026   0.862  0.2308  0.3635 -0.1152
 6050TIP3    H139709   5.907   6.054   0.894  0.6724  0.8618  0.6549
 6050TIP3    H239710   5.979   5.936   0.833 -0.5391  0.4172  0.0497
 6051TIP3   OH239711   4.870   3.644   0.591  0.2945 -0.1523  0.3166
 6051TIP3    H139712   4.958   3.674   0.611  0.0816  0.4791  0.3271
 6051TIP3    H239713   4.818   3.724   0.581  0.2100 -0.4096 -1.9505
 6052TIP3   OH239714   3.217   0.118   0.488 -0.2934 -0.1255 -0.4484
 6052TIP3    H139715   3.291   0.148   0.541 -0.1763 -2.4933  0.8679
 6052TIP3    H239716   3.161   0.195   0.479  1.3744  1.2298  0.1518
 6053TIP3   OH239717   5.317   2.686   1.798 -0.3037  0.6086  0.1757
 6053TIP3    H139718   5.259   2.677   1.874 -0.1387  1.9845  0.4939
 6053TIP3    H239719   5.306   2.777   1.771 -0.5135  0.0953 -1.5959
 6054TIP3   OH239720   4.423   4.812   0.522  0.6301  0.0144 -0.2091
 6054TIP3    H139721   4.366   4.748   0.481  0.1131  0.3749 -0.0658
 6054TIP3    H239722   4.440   4.877   0.454 -0.0064  0.4691  0.0564
 6055TIP3   OH239723   0.376   1.010   0.272 -0.5556  0.3589  0.2380
 6055TIP3    H139724   0.439   1.081   0.270  1.3010 -1.2349 -0.4609
 6055TIP3    H239725   0.328   1.023   0.354 -0.8692  2.8479 -0.2659
 6056TIP3   OH239726   4.685   3.441   2.219  0.2165 -0.1748  0.2256
 6056TIP3    H139727   4.679   3.439   2.123 -1.1968 -0.8644  0.3039
 6056TIP3    H239728   4.601   3.476   2.248  0.6677  0.1219  1.2172
 6057TIP3   OH239729   4.683   5.473   8.062 -0.1442 -0.3528 -0.3961
 6057TIP3    H139730   4.630   5.471   8.142  0.3876  0.1363 -0.0252
 6057TIP3    H239731   4.764   5.428   8.086 -0.2668 -0.8508 -0.8801
 6058TIP3   OH239732   4.349   1.671   8.404  0.0964 -0.3860  0.1523
 6058TIP3    H139733   4.352   1.767   8.397  1.3357 -0.4808 -1.1702
 6058TIP3    H239734   4.341   1.641   8.314 -0.3507 -1.5443  0.5629
 6059TIP3   OH239735   0.835   2.654   7.887  0.0724 -0.2043  0.2689
 6059TIP3    H139736   0.820   2.583   7.949  0.3083  0.4297  1.0822
 6059TIP3    H239737   0.921   2.689   7.912  0.4562 -0.3333 -0.8263
 6060TIP3   OH239738   1.613   0.226   1.786 -0.4797  0.0231  0.2199
 6060TIP3    H139739   1.555   0.260   1.855  0.3918  2.6327 -0.2372
 6060TIP3    H239740   1.567   0.246   1.704 -0.2629 -0.6126 -0.0636
 6061TIP3   OH239741   2.079   2.006   1.273  0.0144  0.4135  0.5448
 6061TIP3    H139742   2.114   1.921   1.302 -0.1998  0.4170  0.8181
 6061TIP3    H239743   1.994   1.985   1.234  1.5501 -0.0279 -2.9840
 6062TIP3   OH239744   0.365   2.556   8.609 -0.3898  0.1756 -0.1134
 6062TIP3    H139745   0.395   2.466   8.624  0.7855  0.5596 -0.0624
 6062TIP3    H239746   0.301   2.548   8.538  1.6913 -0.4246 -2.0512
 6063TIP3   OH239747   5.709   4.932   7.721 -0.1117  0.2422  0.4415
 6063TIP3    H139748   5.694   4.954   7.629 -1.8184 -1.3179  0.3074
 6063TIP3    H239749   5.624   4.905   7.754  0.7542 -0.6128  2.1120
 6064TIP3   OH239750   6.402   2.667   1.985  0.6160 -0.0370 -0.0815
 6064TIP3    H139751   6.350   2.588   1.971 -2.4833  1.4264  1.8690
 6064TIP3    H239752   6.455   2.676   1.906 -0.9559 -2.5720 -1.5642
 6065TIP3   OH239753   1.048   5.587   1.609  0.4303 -0.1875 -0.2194
 6065TIP3    H139754   0.987   5.640   1.660  0.9668 -0.5965  0.8771
 6065TIP3    H239755   0.994   5.544   1.543  0.0734  2.2416 -1.6166
 6066TIP3   OH239756   6.680   5.532   2.159 -0.2119  0.0589 -0.6376
 6066TIP3    H139757   6.773   5.513   2.174 -0.3917 -0.3057  0.0473
 6066TIP3    H239758   6.642   5.536   2.246 -1.0611 -0.9386 -0.9334
 6067TIP3   OH239759   0.225   0.981   1.212  0.1583 -0.0724 -0.6742
 6067TIP3    H139760   0.140   1.024   1.221  0.2964 -0.0414  0.6493
 6067TIP3    H239761   0.212   0.916   1.142 -0.7976  0.2891 -0.8438
 6068TIP3   OH239762   3.174   4.505   7.739  0.0410 -0.9265 -0.7278
 6068TIP3    H139763   3.111   4.532   7.672  0.0155 -0.4930 -0.5313
 6068TIP3    H239764   3.223   4.434   7.699  0.4427 -0.2649 -1.4266
 6069TIP3   OH239765   4.275   6.561   7.614 -0.5670  0.0657  0.1457
 6069TIP3    H139766   4.364   6.586   7.589 -0.4222  1.1798  1.6400
 6069TIP3    H239767   4.280   6.547   7.708 -1.3872 -2.5982 -0.1428
 6070TIP3   OH239768   4.920   6.554   8.202 -0.3601 -0.3520 -0.8810
 6070TIP3    H139769   4.911   6.473   8.153  0.4340 -1.5532  0.8735
 6070TIP3    H239770   4.848   6.552   8.265  0.1690 -0.1230 -0.2565
 6071TIP3   OH239771   1.511   6.781   1.162  0.0697  0.2100 -0.1432
 6071TIP3    H139772   1.559   6.735   1.093 -2.3397 -1.2947 -0.9616
 6071TIP3    H239773   1.484   6.712   1.223 -1.5251  0.8519 -0.0540
 6072TIP3   OH239774   0.209   1.219   7.470  0.3160  0.2667 -0.4686
 6072TIP3    H139775   0.274   1.192   7.534 -0.0700  1.8546  0.6659
 6072TIP3    H239776   0.220   1.314   7.463 -0.7540  0.3440 -1.5314
 6073TIP3   OH239777   0.497   3.679   8.023 -0.1147  0.4718  0.1563
 6073TIP3    H139778   0.498   3.605   7.962 -0.8575 -0.5830  1.3669
 6073TIP3    H239779   0.424   3.660   8.083  1.4409  0.7068  2.2490
 6074TIP3   OH239780   0.393   0.013   7.974  0.3082 -0.0562 -0.0107
 6074TIP3    H139781   0.372  -0.016   8.062  3.6255 -0.6134  0.7064
 6074TIP3    H239782   0.474  -0.033   7.951  0.0611  0.7462 -3.0163
 6075TIP3   OH239783   1.495   2.677   1.000  0.4129 -0.1906 -0.6838
 6075TIP3    H139784   1.577   2.643   1.036 -0.2213  1.7319  3.0307
 6075TIP3    H239785   1.437   2.601   0.995  1.4775 -1.0403 -0.5135
 6076TIP3   OH239786   5.167   1.434   8.301 -0.2630  0.2736  0.2054
 6076TIP3    H139787   5.136   1.427   8.211  0.2746  0.6262 -0.0165
 6076TIP3    H239788   5.209   1.520   8.305  3.7620 -1.3825 -0.5680
 6077TIP3   OH239789   4.276   2.404   8.582  0.4640  0.2451 -0.4223
 6077TIP3    H139790   4.348   2.456   8.617  0.1305  1.9868 -2.1691
 6077TIP3    H239791   4.319   2.338   8.527  0.7640  1.2249 -1.3945
 6078TIP3   OH239792   4.767   2.268   8.154  0.1536 -0.5800 -0.0050
 6078TIP3    H139793   4.688   2.279   8.101  0.2771 -0.2388 -0.1192
 6078TIP3    H239794   4.839   2.293   8.096  0.2841 -0.1179  0.3493
 6079TIP3   OH239795   3.276   5.074   2.192 -0.7524 -0.3594 -0.7515
 6079TIP3    H139796   3.293   5.100   2.101  0.8921  1.5658  0.0492
 6079TIP3    H239797   3.349   5.109   2.242 -2.0423 -0.6228  1.4734
 6080TIP3   OH239798   1.396   3.469   8.425 -0.2705 -0.5625  0.7034
 6080TIP3    H139799   1.394   3.557   8.462 -1.3338 -0.0036 -0.5749
 6080TIP3    H239800   1.489   3.447   8.418  0.0309  0.7057  0.5011
 6081TIP3   OH239801   3.012   1.503   7.800  0.0278  0.1390  0.2263
 6081TIP3    H139802   3.029   1.590   7.763  0.7123 -0.0580  0.0594
 6081TIP3    H239803   2.918   1.502   7.816  0.2836  1.7960  2.4168
 6082TIP3   OH239804   6.437   1.318   1.234 -0.3795  0.0617  0.0750
 6082TIP3    H139805   6.502   1.314   1.304 -0.6274 -2.0835  0.2646
 6082TIP3    H239806   6.370   1.378   1.267  1.1207  1.8064  0.1432
 6083TIP3   OH239807   5.697   0.829   1.441 -0.1408 -0.2053  0.4000
 6083TIP3    H139808   5.762   0.832   1.512 -0.1612  0.0207  0.4074
 6083TIP3    H239809   5.744   0.862   1.364 -0.5634  1.0049  0.6440
 6084TIP3   OH239810   1.849   2.674   7.899 -0.3072  0.1294 -0.3918
 6084TIP3    H139811   1.770   2.623   7.915 -0.2669 -0.2590 -1.3516
 6084TIP3    H239812   1.817   2.758   7.865 -0.3612  0.6826  0.9304
 6085TIP3   OH239813   5.320   2.205   2.843 -0.2853 -0.3759 -0.6317
 6085TIP3    H139814   5.329   2.292   2.805 -0.5644  0.5467  1.3115
 6085TIP3    H239815   5.235   2.174   2.813 -0.0655 -0.1093 -1.5506
 6086TIP3   OH239816   5.946   2.559   7.448 -0.3848 -0.5737 -0.7306
 6086TIP3    H139817   5.956   2.509   7.529 -0.7957  1.1501  0.4449
 6086TIP3    H239818   6.035   2.567   7.413  0.0155 -0.1216  0.3426
 6087TIP3   OH239819   4.814   4.694   7.194 -0.4534 -1.0141 -0.1568
 6087TIP3    H139820   4.745   4.696   7.260 -0.4051  0.5879 -0.1118
 6087TIP3    H239821   4.885   4.745   7.232 -0.6156  0.4080 -1.6007
 6088TIP3   OH239822   1.949   1.678   8.076 -0.0022 -0.0203 -0.4268
 6088TIP3    H139823   2.028   1.709   8.032 -0.8432  2.8894 -0.1377
 6088TIP3    H239824   1.890   1.655   8.005  0.7030 -1.1903 -0.6598
 6089TIP3   OH239825   0.833   6.418   1.419 -0.4449 -0.0009 -0.1672
 6089TIP3    H139826   0.759   6.479   1.421 -0.3526  0.1177 -0.2659
 6089TIP3    H239827   0.853   6.409   1.326 -1.3327 -1.2630 -0.2553
 6090TIP3   OH239828   3.207   1.441   0.270  0.1869 -0.2251  0.4827
 6090TIP3    H139829   3.114   1.443   0.293 -0.4914 -2.1338 -1.7010
 6090TIP3    H239830   3.250   1.487   0.342 -2.5896  2.5189  0.6116
 6091TIP3   OH239831   2.600   3.061   0.700 -1.0187 -0.4448 -0.3023
 6091TIP3    H139832   2.611   3.088   0.609 -1.5037  2.3351  0.3835
 6091TIP3    H239833   2.512   3.091   0.724 -0.2285  0.5747  1.5786
 6092TIP3   OH239834   4.213   3.747   0.551  0.2483 -0.8951  0.1480
 6092TIP3    H139835   4.271   3.702   0.490 -2.8534 -2.4673 -1.8932
 6092TIP3    H239836   4.186   3.680   0.613 -1.2611 -0.8895 -0.4549
 6093TIP3   OH239837   6.527   6.762   0.438  0.1868 -0.4570  0.1203
 6093TIP3    H139838   6.590   6.698   0.405  0.6817  0.8295 -1.5544
 6093TIP3    H239839   6.444   6.738   0.398  0.3789 -0.0644 -0.5300
 6094TIP3   OH239840   2.968   5.854   7.909 -0.2515 -0.0029 -0.1043
 6094TIP3    H139841   2.989   5.900   7.827 -0.4640  1.6460  0.7266
 6094TIP3    H239842   3.002   5.911   7.978 -0.6730 -1.0434  0.9946
 6095TIP3   OH239843   3.191   1.805   0.845 -0.4785 -0.0658 -0.2175
 6095TIP3    H139844   3.121   1.785   0.907 -0.1993 -1.1934 -0.2434
 6095TIP3    H239845   3.221   1.892   0.870 -1.1324 -0.0346  0.5072
 6096TIP3   OH239846   6.592   6.173   0.487 -0.4569  0.5265 -0.3251
 6096TIP3    H139847   6.530   6.152   0.557  1.8095 -1.7402  1.1840
 6096TIP3    H239848   6.586   6.101   0.425  1.7998 -0.6971  0.7639
 6097TIP3   OH239849   2.216   5.677   0.657  0.3555  0.0378  0.6299
 6097TIP3    H139850   2.210   5.757   0.605 -0.0869  0.1073  0.7855
 6097TIP3    H239851   2.177   5.699   0.741  1.8918  0.1946  1.3309
 6098TIP3   OH239852   4.008   6.864   2.559 -0.0931 -0.0065 -0.2532
 6098TIP3    H139853   3.956   6.801   2.510  0.5046  0.4156 -1.4681
 6098TIP3    H239854   4.065   6.905   2.494 -0.3906  1.7225  0.5056
 6099TIP3   OH239855   0.848   4.376   8.657  0.2396  0.2086 -0.0388
 6099TIP3    H139856   0.801   4.297   8.681  1.6738  0.2232  3.2885
 6099TIP3    H239857   0.789   4.447   8.681  0.3108  0.1763  0.2362
 6100TIP3   OH239858   1.609   5.496   0.591 -0.3088  0.3366 -0.1907
 6100TIP3    H139859   1.563   5.577   0.573  0.0948  0.9818  1.5139
 6100TIP3    H239860   1.557   5.453   0.659 -0.3507 -0.6993 -0.8492
 6101TIP3   OH239861   6.143   0.420   7.206  0.0331  0.2699  0.6024
 6101TIP3    H139862   6.180   0.335   7.183 -1.5569 -1.6017  4.1218
 6101TIP3    H239863   6.218   0.476   7.223  1.1259 -0.0297 -2.5791
 6102TIP3   OH239864   6.158   4.937   8.439  0.2408  0.1287  0.4424
 6102TIP3    H139865   6.071   4.903   8.458 -0.0863 -0.7192 -2.1660
 6102TIP3    H239866   6.143   5.027   8.408  0.1470 -0.3224 -0.8843
 6103TIP3   OH239867   3.172   5.668   7.177 -0.3825 -0.8427  0.7963
 6103TIP3    H139868   3.121   5.590   7.198  0.0939 -0.7330  2.5391
 6103TIP3    H239869   3.112   5.741   7.190 -1.7151 -0.9040 -3.5752
 6104TIP3   OH239870   2.225   0.826   1.294  0.3286 -0.1594 -0.3019
 6104TIP3    H139871   2.270   0.909   1.312  0.8294 -0.0886 -1.7228
 6104TIP3    H239872   2.188   0.838   1.206 -1.0094 -0.8589  0.1336
 6105TIP3   OH239873   3.901   1.514   1.535  0.1098  0.3850  0.0627
 6105TIP3    H139874   3.857   1.431   1.555  0.0444  0.2954 -0.4407
 6105TIP3    H239875   3.974   1.489   1.478 -0.5438  0.7888 -0.9774
 6106TIP3   OH239876   5.262   5.588   8.399  0.3941  0.0427 -0.6446
 6106TIP3    H139877   5.304   5.524   8.457 -1.3141  0.6371  1.4117
 6106TIP3    H239878   5.276   5.672   8.443 -1.4619  0.4473 -0.7378
 6107TIP3   OH239879   2.943   2.565   2.035  0.1586  0.1713 -0.1113
 6107TIP3    H139880   2.956   2.625   2.109 -0.1659 -0.4772  0.4820
 6107TIP3    H239881   3.024   2.514   2.031 -0.2311 -0.5099  0.4718
 6108TIP3   OH239882   6.292   1.145   1.433  0.2226  0.0953  0.4398
 6108TIP3    H139883   6.381   1.179   1.421  0.5594 -0.4241  1.3930
 6108TIP3    H239884   6.236   1.209   1.389  1.1180  0.0304 -0.8669
 6109TIP3   OH239885   4.646   6.035   7.832  0.1836  0.2199 -0.0375
 6109TIP3    H139886   4.727   5.986   7.816  0.8883  1.7468 -1.6142
 6109TIP3    H239887   4.663   6.120   7.791 -1.9213  0.8736  0.3706
 6110TIP3   OH239888   3.340   3.037   0.157  0.4914 -0.6971 -0.2230
 6110TIP3    H139889   3.255   3.039   0.115 -0.4756 -0.2527  1.6494
 6110TIP3    H239890   3.394   2.982   0.100 -1.0767 -1.1044 -1.3721
 6111TIP3   OH239891   3.981   3.188   2.325 -0.3515 -0.0869 -0.4044
 6111TIP3    H139892   3.909   3.133   2.355 -0.5130  1.1578  1.6458
 6111TIP3    H239893   4.060   3.147   2.360 -0.2240 -0.4056 -1.0497
 6112TIP3   OH239894   6.645   2.009   1.364 -0.0128  0.5920 -0.0826
 6112TIP3    H139895   6.630   1.915   1.353  0.4138  0.6265 -1.0397
 6112TIP3    H239896   6.636   2.045   1.276  1.0827  1.2662  0.0690
 6113TIP3   OH239897   2.422   5.880   0.777 -0.8017  0.4297 -0.1374
 6113TIP3    H139898   2.474   5.849   0.703  0.2538  0.2354  0.6744
 6113TIP3    H239899   2.410   5.804   0.833 -1.3656  0.6369  0.0366
 6114TIP3   OH239900   0.516   3.390   1.116  0.3767 -0.5422 -0.8896
 6114TIP3    H139901   0.480   3.382   1.028  1.4236 -0.5858 -1.3288
 6114TIP3    H239902   0.440   3.387   1.173 -0.4350  0.8159 -1.8575
 6115TIP3   OH239903   4.867   5.129   7.892 -0.3577 -0.0695 -0.3207
 6115TIP3    H139904   4.851   5.201   7.830 -0.1956 -1.1605 -1.6739
 6115TIP3    H239905   4.961   5.130   7.905 -0.0936 -1.2268 -1.8862
 6116TIP3   OH239906   5.704   1.187   1.222 -0.0333 -0.2826  0.5625
 6116TIP3    H139907   5.706   1.094   1.198 -0.3233 -0.4070  1.0043
 6116TIP3    H239908   5.627   1.222   1.177  0.3256 -0.1546  0.0431
 6117TIP3   OH239909   3.126   3.718   6.692 -0.2932  0.6048  0.7320
 6117TIP3    H139910   3.188   3.790   6.704 -0.4764  1.2546 -1.6814
 6117TIP3    H239911   3.040   3.758   6.702 -0.3778  0.5677  0.2098
 6118TIP3   OH239912   6.688   3.029   0.394  0.3049  0.3745 -0.0728
 6118TIP3    H139913   6.642   3.014   0.311  1.2484 -0.7136 -0.4245
 6118TIP3    H239914   6.624   3.075   0.449 -0.5093  0.6563 -1.2166
 6119TIP3   OH239915   2.198   4.744   3.114 -0.1613 -0.2179  0.0221
 6119TIP3    H139916   2.238   4.754   3.028 -0.4703 -0.5288 -0.1591
 6119TIP3    H239917   2.125   4.684   3.100  2.4005 -4.0109  1.2823
 6120TIP3   OH239918   6.051   5.840   7.645 -0.3360 -0.1625 -0.0737
 6120TIP3    H139919   6.007   5.780   7.585 -1.0683  0.0928  0.2050
 6120TIP3    H239920   6.144   5.832   7.622 -0.5169 -0.7166 -0.6506
 6121TIP3   OH239921   0.239   0.817   1.685  0.1274  1.0185  0.3039
 6121TIP3    H139922   0.183   0.836   1.609  2.5171  1.3870 -1.4537
 6121TIP3    H239923   0.319   0.781   1.648  1.1746  0.6691  2.7178
 6122TIP3   OH239924   1.383   5.628   7.937 -0.2310 -0.3072 -0.1818
 6122TIP3    H139925   1.402   5.681   7.859 -1.0698  1.6464  0.8696
 6122TIP3    H239926   1.321   5.681   7.987 -0.7797 -2.1300  1.1627
 6123TIP3   OH239927   4.654   3.964   0.046  0.2457  0.1997  0.2298
 6123TIP3    H139928   4.723   3.898   0.062  0.0070  0.5129  3.0560
 6123TIP3    H239929   4.702   4.044   0.026  0.6378 -0.0419  0.1861
 6124TIP3   OH239930   6.111   5.716   7.200 -0.0769  0.1429 -0.5909
 6124TIP3    H139931   6.037   5.772   7.177 -1.9167 -1.9017  0.0480
 6124TIP3    H239932   6.100   5.697   7.293  1.8925  0.6070 -0.2076
 6125TIP3   OH239933   3.190   2.443   7.237 -0.1341 -0.3051 -0.0132
 6125TIP3    H139934   3.265   2.404   7.192  1.3788 -0.1804  2.2385
 6125TIP3    H239935   3.179   2.529   7.195  1.3096 -0.1203 -0.0538
 6126TIP3   OH239936   5.095   6.058   8.263 -0.1605  0.1859  0.4419
 6126TIP3    H139937   5.006   6.079   8.291 -0.2574 -0.3684  0.5769
 6126TIP3    H239938   5.150   6.128   8.299 -0.5158  0.4177  0.5317
 6127TIP3   OH239939   0.795   5.063   0.468  0.2467  0.3140 -0.2658
 6127TIP3    H139940   0.863   5.126   0.442  0.5919  0.1015  0.1104
 6127TIP3    H239941   0.805   4.991   0.406 -1.8432  1.6933 -2.4128
 6128TIP3   OH239942   2.247   4.225   7.701  0.0645  0.2560  0.7015
 6128TIP3    H139943   2.210   4.250   7.616 -3.0615  3.1297  2.6332
 6128TIP3    H239944   2.328   4.275   7.708 -0.6231  1.4879  0.1289
 6129TIP3   OH239945   4.083   4.926   2.957  0.5925 -0.0130  0.0824
 6129TIP3    H139946   4.013   4.954   3.017  1.1389  1.5093  0.0500
 6129TIP3    H239947   4.152   4.991   2.969  0.9835 -0.0482 -1.7234
 6130TIP3   OH239948   6.409   6.739   2.218  0.5643  0.1352  0.1683
 6130TIP3    H139949   6.463   6.743   2.297  0.1564  2.0360  0.4150
 6130TIP3    H239950   6.319   6.748   2.250  0.0182 -2.8445 -0.2444
 6131TIP3   OH239951   6.100   3.875   2.158 -0.5947  0.1893  0.0751
 6131TIP3    H139952   6.066   3.786   2.171 -1.1358  0.4768  0.6809
 6131TIP3    H239953   6.113   3.909   2.247 -1.7100  1.2005 -0.1229
 6132TIP3   OH239954   1.909   5.618   7.852  0.6784 -0.0728 -0.1062
 6132TIP3    H139955   1.823   5.632   7.891  0.5450  0.9230 -0.7086
 6132TIP3    H239956   1.953   5.557   7.911  0.7235  1.8425  2.0142
 6133TIP3   OH239957   0.246   4.878   8.578 -0.4720 -0.2492 -0.1143
 6133TIP3    H139958   0.246   4.895   8.672 -3.4897 -0.3823  0.0015
 6133TIP3    H239959   0.271   4.961   8.538 -1.2172  0.4139  0.7774
 6134TIP3   OH239960   5.649   0.047   8.017 -0.3012 -0.1702 -0.5805
 6134TIP3    H139961   5.574   0.051   7.958 -0.4959  1.5913 -0.2631
 6134TIP3    H239962   5.674   0.138   8.031  0.3147 -0.5763  1.3363
 6135TIP3   OH239963   1.014   3.481   7.839 -0.5105  0.0708 -0.3217
 6135TIP3    H139964   1.070   3.473   7.916 -0.6925 -0.7244 -0.2624
 6135TIP3    H239965   1.071   3.457   7.766 -0.2005  1.2962 -0.5041
 6136TIP3   OH239966   1.452   0.040   2.470  0.3518  0.1907 -0.0849
 6136TIP3    H139967   1.415  -0.038   2.429  1.6871  0.4839 -1.9764
 6136TIP3    H239968   1.472   0.013   2.560 -1.6891 -0.8004  0.1390
 6137TIP3   OH239969   3.007   2.169   6.870 -0.1290  0.2366 -0.4070
 6137TIP3    H139970   3.082   2.158   6.928  1.0789  0.8874 -1.7644
 6137TIP3    H239971   2.979   2.080   6.850 -0.0439 -0.0010  0.5070
 6138TIP3   OH239972   1.303   4.150   7.566  0.3001  0.4171 -0.2549
 6138TIP3    H139973   1.393   4.181   7.551 -0.5243  2.7633 -0.8550
 6138TIP3    H239974   1.278   4.109   7.484  1.0288 -0.8926  0.1529
 6139TIP3   OH239975   1.442   0.639   2.260 -0.2061  0.0065  0.1367
 6139TIP3    H139976   1.437   0.556   2.307  0.6005  0.0834  0.3795
 6139TIP3    H239977   1.519   0.682   2.297  0.1883  0.2555 -0.9357
 6140TIP3   OH239978   2.564   3.571   7.896 -0.0905 -0.1867  0.3351
 6140TIP3    H139979   2.478   3.612   7.903 -1.6139 -3.2171  1.0287
 6140TIP3    H239980   2.546   3.477   7.901  3.0061 -1.0807 -2.1771
 6141TIP3   OH239981   5.166   2.963   7.864  0.3672  0.5327  0.2335
 6141TIP3    H139982   5.178   2.910   7.786 -0.1660 -0.9454  1.1068
 6141TIP3    H239983   5.235   3.029   7.860  1.0571 -0.2327 -0.8907
 6142TIP3   OH239984   1.568   2.088   8.220 -0.4996  0.1903  0.8181
 6142TIP3    H139985   1.618   2.023   8.270  0.7089  1.3057  1.1166
 6142TIP3    H239986   1.592   2.071   8.129  1.8126  1.7407  1.0515
 6143TIP3   OH239987   1.323   5.668   1.738 -0.5397 -0.1610 -0.0703
 6143TIP3    H139988   1.392   5.657   1.673  0.9337 -0.5200  1.4786
 6143TIP3    H239989   1.254   5.607   1.710 -1.0792  1.4822 -2.6291
 6144TIP3   OH239990   5.407   3.599   0.658 -0.0293 -0.7195  0.4525
 6144TIP3    H139991   5.385   3.553   0.577  1.2328 -0.5030 -0.0314
 6144TIP3    H239992   5.444   3.682   0.630 -1.6446  0.3454  1.3131
 6145TIP3   OH239993   2.339   3.382   3.015  0.2170 -0.0177 -0.2682
 6145TIP3    H139994   2.420   3.428   2.992  0.9708 -1.4324 -0.6233
 6145TIP3    H239995   2.343   3.371   3.110  0.4236 -0.0457 -0.2799
 6146TIP3   OH239996   3.094   5.091   2.396  0.3944  0.6755 -1.0126
 6146TIP3    H139997   3.162   5.110   2.332  1.0513  1.0800 -0.2149
 6146TIP3    H239998   3.020   5.146   2.370  1.0292  1.6377 -0.8136
 6147TIP3   OH239999   6.407   4.835   0.721 -0.2361 -0.7929 -0.0669
 6147TIP3    H140000   6.363   4.761   0.679 -1.3925 -0.2456  0.1345
 6147TIP3    H240001   6.496   4.804   0.737 -0.3437 -1.6970 -1.1096
 6148TIP3   OH240002   4.039   2.801   2.054 -0.6739 -0.4132 -0.4694
 6148TIP3    H140003   4.059   2.875   1.995 -1.1990  0.0741 -0.0471
 6148TIP3    H240004   3.995   2.842   2.129 -0.3331 -1.0718  0.1017
 6149TIP3   OH240005   3.743   1.881   0.043 -0.1866  0.1015 -0.2013
 6149TIP3    H140006   3.765   1.973   0.055  1.6993 -0.1032 -1.6625
 6149TIP3    H240007   3.684   1.880  -0.032 -1.9080  0.2538  1.0874
 6150TIP3   OH240008   0.409   6.666   7.392 -0.6518  0.1309 -0.2335
 6150TIP3    H140009   0.412   6.570   7.389 -1.3012  0.1291 -1.0479
 6150TIP3    H240010   0.435   6.687   7.482  0.5645 -0.7532 -0.3392
 6151TIP3   OH240011   4.037   3.444   2.801  0.0740 -0.5152 -0.4301
 6151TIP3    H140012   4.093   3.428   2.878 -0.8306  0.1409  0.3809
 6151TIP3    H240013   3.960   3.390   2.816  0.2268 -0.9808 -1.2732
 6152TIP3   OH240014   4.788   6.853   1.481 -0.2513  0.4952  0.2511
 6152TIP3    H140015   4.776   6.901   1.563  0.1259 -0.5749  0.9492
 6152TIP3    H240016   4.707   6.804   1.469  0.7760 -1.6784  1.5880
 6153TIP3   OH240017   5.536   3.251   1.503  0.0969 -0.2392 -0.3581
 6153TIP3    H140018   5.534   3.333   1.453 -0.5668 -0.3655 -0.5452
 6153TIP3    H240019   5.534   3.279   1.595  0.1416 -0.0338 -0.4197
 6154TIP3   OH240020   6.189   1.575   8.055 -0.5383  0.6363  0.6191
 6154TIP3    H140021   6.126   1.505   8.038  0.0533  0.3617 -0.5356
 6154TIP3    H240022   6.134   1.652   8.071 -1.1852  0.4213 -0.4618
 6155TIP3   OH240023   4.185   4.856   8.539 -0.6147  0.1423 -0.5142
 6155TIP3    H140024   4.091   4.846   8.525 -0.7049 -0.6806  0.5787
 6155TIP3    H240025   4.204   4.804   8.617  0.7235  0.4281 -0.6188
 6156TIP3   OH240026   5.026   2.087   2.277  0.7816  0.3171  0.0500
 6156TIP3    H140027   5.093   2.023   2.299  0.9831  0.2408 -0.7619
 6156TIP3    H240028   4.943   2.042   2.296  0.8903 -0.5330 -1.3529
 6157TIP3   OH240029   4.707   5.195   6.782 -0.2583 -0.1910 -0.2550
 6157TIP3    H140030   4.728   5.162   6.869  0.1791 -0.6999 -0.5446
 6157TIP3    H240031   4.650   5.128   6.744  1.4056 -1.1541 -1.2074
 6158TIP3   OH240032   3.250   5.138   0.597  0.4795 -0.2884  0.0894
 6158TIP3    H140033   3.305   5.213   0.619 -0.3409  1.0109 -2.0283
 6158TIP3    H240034   3.300   5.090   0.531  0.5484 -1.0550  0.6850
 6159TIP3   OH240035   4.729   2.857   8.492 -0.7810  0.0256  0.1293
 6159TIP3    H140036   4.673   2.831   8.565 -1.9864  0.0231 -0.7601
 6159TIP3    H240037   4.667   2.876   8.421  0.3993 -0.9044 -1.1900
 6160TIP3   OH240038   5.567   4.359   7.649 -0.3556  0.3070  0.3555
 6160TIP3    H140039   5.501   4.429   7.645  0.1640  0.7813 -0.1841
 6160TIP3    H240040   5.576   4.329   7.559  0.6938  0.7581  0.2929
 6161TIP3   OH240041   4.110   5.145   7.603  0.3709 -0.5913 -0.1372
 6161TIP3    H140042   4.191   5.126   7.650  0.7634 -0.9001 -0.9321
 6161TIP3    H240043   4.127   5.228   7.557 -0.6271  0.6831  1.6646
 6162TIP3   OH240044   3.674   1.875   0.733  0.2942  0.1106  0.1780
 6162TIP3    H140045   3.703   1.939   0.668  0.0097  0.2947  0.2336
 6162TIP3    H240046   3.716   1.903   0.814 -2.4997  2.2605  1.0093
 6163TIP3   OH240047   0.056   2.480   2.926  0.5176  0.1980 -0.3976
 6163TIP3    H140048   0.145   2.473   2.958  0.7281 -0.3523 -1.0631
 6163TIP3    H240049   0.053   2.564   2.880  1.0016 -0.2450 -1.2625
 6164TIP3   OH240050   0.967   2.098   2.309 -0.8890  0.1133  0.3099
 6164TIP3    H140051   0.955   2.172   2.369  2.4744  0.5915  0.5724
 6164TIP3    H240052   1.027   2.039   2.355  0.6621 -0.2067 -1.9472
 6165TIP3   OH240053   3.762   4.357   7.657 -0.3648  0.2869  0.3912
 6165TIP3    H140054   3.821   4.397   7.594 -0.6338 -1.3315 -0.9681
 6165TIP3    H240055   3.694   4.317   7.603 -1.0462 -0.4720  1.7667
 6166TIP3   OH240056   1.380   5.495   0.147  0.7058  0.5136 -0.5408
 6166TIP3    H140057   1.297   5.468   0.186  2.0619 -1.8706  0.9188
 6166TIP3    H240058   1.391   5.586   0.173 -0.5089  0.2637  0.9643
 6167TIP3   OH240059   5.501   0.172   1.494 -0.3130 -0.2628  0.3552
 6167TIP3    H140060   5.415   0.129   1.489 -1.2587  1.5413  0.2061
 6167TIP3    H240061   5.481   0.265   1.486  1.5995  0.2585  1.2485
 6168TIP3   OH240062   2.909   4.515   1.923  0.5955  0.0186 -0.2188
 6168TIP3    H140063   2.832   4.482   1.969 -0.5717  1.6545 -0.9062
 6168TIP3    H240064   2.895   4.490   1.832  0.0353  1.7027 -0.6314
 6169TIP3   OH240065   0.388   2.856   2.057  0.1542 -0.0285 -0.1574
 6169TIP3    H140066   0.462   2.797   2.069  1.7263  1.4567 -1.9737
 6169TIP3    H240067   0.366   2.886   2.145  2.5548  0.4751  0.3149
 6170TIP3   OH240068   2.075   2.031   7.505  0.3745 -0.3546 -0.2769
 6170TIP3    H140069   2.137   1.994   7.442  0.8148 -0.1491  0.0253
 6170TIP3    H240070   2.129   2.050   7.582  0.4477  2.1905 -0.8901
 6171TIP3   OH240071   5.835   2.078   0.755  0.2050  0.4219  0.4177
 6171TIP3    H140072   5.884   2.161   0.758 -0.4978  0.9143 -1.0355
 6171TIP3    H240073   5.882   2.025   0.691 -0.7312  0.6430 -0.4832
 6172TIP3   OH240074   4.798   3.969   0.838  0.1345  0.2063  0.2942
 6172TIP3    H140075   4.775   4.028   0.909  0.4080  0.3047  0.2985
 6172TIP3    H240076   4.854   3.903   0.878  0.2611  0.2426  0.1767
 6173TIP3   OH240077   5.417   4.627   0.710 -0.2859  0.4780  0.5408
 6173TIP3    H140078   5.510   4.627   0.689 -0.4192  1.5749 -0.1670
 6173TIP3    H240079   5.410   4.676   0.792 -0.4007  2.3425 -0.5052
 6174TIP3   OH240080   2.407   6.277   7.799  0.5218 -0.1320 -0.6108
 6174TIP3    H140081   2.327   6.247   7.842 -0.0808  1.2224 -0.7547
 6174TIP3    H240082   2.474   6.216   7.831  0.0763  0.6457  2.0874
 6175TIP3   OH240083   3.405   5.598   0.412  0.9090  0.0560  0.2325
 6175TIP3    H140084   3.489   5.630   0.443  0.9436  0.5315 -0.3313
 6175TIP3    H240085   3.400   5.629   0.321 -1.0890  2.4730  1.0530
 6176TIP3   OH240086   1.134   1.340   8.556 -0.3394  0.2145 -0.0030
 6176TIP3    H140087   1.225   1.311   8.566 -0.0424  1.1850  0.1610
 6176TIP3    H240088   1.137   1.434   8.570 -1.3675  0.2654 -0.0667
 6177TIP3   OH240089   2.895   3.277   7.510  0.7454  0.0999 -0.5277
 6177TIP3    H140090   2.964   3.270   7.576  1.1263  2.5498 -0.5853
 6177TIP3    H240091   2.890   3.189   7.472  3.2166 -0.3856  0.0702
 6178TIP3   OH240092   6.708   0.703   2.032 -0.4039  0.6245 -0.3743
 6178TIP3    H140093   6.739   0.742   1.950 -0.1980 -0.4595 -0.8263
 6178TIP3    H240094   6.772   0.634   2.051 -1.2467 -0.0862 -0.0646
 6179TIP3   OH240095   4.959   0.455   1.824  0.2663  0.2868  0.0226
 6179TIP3    H140096   4.968   0.517   1.752 -1.3960  2.6360  1.6876
 6179TIP3    H240097   4.999   0.499   1.899 -1.4280 -0.3630  1.3862
 6180TIP3   OH240098   3.789   6.570   0.423 -0.3228 -0.6627 -0.3019
 6180TIP3    H140099   3.805   6.637   0.356  0.2428  2.9985  3.1200
 6180TIP3    H240100   3.874   6.558   0.466 -1.2373 -0.5766  1.6326
 6181TIP3   OH240101   1.525   4.639   1.530  0.0640  0.0066  0.0624
 6181TIP3    H140102   1.574   4.655   1.611 -0.8414  0.6633  0.4970
 6181TIP3    H240103   1.483   4.554   1.545  0.6977 -0.3551 -0.1409
 6182TIP3   OH240104   2.604   3.969   8.273  0.1042 -0.1130 -0.1339
 6182TIP3    H140105   2.658   3.979   8.194 -0.8551  0.8252 -0.7036
 6182TIP3    H240106   2.634   4.038   8.332 -0.6774  0.6453 -0.5949
 6183TIP3   OH240107   3.719   0.108   0.348  0.0845 -0.0763 -0.1530
 6183TIP3    H140108   3.733   0.198   0.379 -0.0795 -0.1872  0.2447
 6183TIP3    H240109   3.635   0.112   0.302  0.7363  0.2803 -1.3453
 6184TIP3   OH240110   4.620   1.300   0.326  0.0405 -0.3659  0.3171
 6184TIP3    H140111   4.657   1.386   0.348 -0.2100 -0.7118  2.2525
 6184TIP3    H240112   4.537   1.320   0.283 -0.7142  0.3917  2.0320
 6185TIP3   OH240113   4.854   1.911   0.094 -0.5353 -0.4767  0.3900
 6185TIP3    H140114   4.863   1.895   0.188 -2.3056  0.2974  0.7291
 6185TIP3    H240115   4.888   1.831   0.053 -1.9612 -1.8731  1.7747
 6186TIP3   OH240116   1.056   6.543   1.217 -0.9595  0.2011 -0.0452
 6186TIP3    H140117   1.097   6.584   1.293 -0.7322  1.2392 -0.7161
 6186TIP3    H240118   1.109   6.465   1.201  0.0828  0.9184 -0.2062
 6187TIP3   OH240119   1.210   2.764   1.764 -0.6441 -0.2472  0.8198
 6187TIP3    H140120   1.169   2.762   1.850  0.6890  1.1571  1.5483
 6187TIP3    H240121   1.143   2.804   1.707 -1.3951 -0.8327  1.2729
 6188TIP3   OH240122   4.727   6.599   8.382  0.2211 -0.1636  0.2537
 6188TIP3    H140123   4.764   6.681   8.414 -2.8407  0.8985  1.3827
 6188TIP3    H240124   4.706   6.549   8.461 -2.0071 -0.0549 -0.1945
 6189TIP3   OH240125   6.066   3.623   0.486 -0.5921 -0.4890 -0.3749
 6189TIP3    H140126   6.002   3.648   0.552  0.0724  0.8449 -0.1873
 6189TIP3    H240127   6.055   3.687   0.416 -0.1810 -0.8880 -0.8180
 6190TIP3   OH240128   3.255   0.750   7.198  0.2088  0.1172  0.6073
 6190TIP3    H140129   3.233   0.738   7.106 -1.0758  1.7123  0.6737
 6190TIP3    H240130   3.174   0.783   7.238  0.8453 -0.2071  2.2381
 6191TIP3   OH240131   4.505   4.357   6.786  0.4613 -0.4709  0.8673
 6191TIP3    H140132   4.556   4.424   6.740  0.0342  0.7643  2.1196
 6191TIP3    H240133   4.440   4.407   6.836 -1.3705 -1.9560  0.0770
 6192TIP3   OH240134   1.927   3.107   2.252 -0.3224 -0.0919 -0.3065
 6192TIP3    H140135   1.862   3.145   2.193 -0.8589 -0.0852  0.2840
 6192TIP3    H240136   1.884   3.030   2.289 -0.2249  0.2650  0.5652
 6193TIP3   OH240137   6.405   0.336   1.649 -0.1726  0.3697  0.6529
 6193TIP3    H140138   6.474   0.367   1.589  0.1213 -0.6797  0.4307
 6193TIP3    H240139   6.442   0.351   1.736  0.1714  0.1864  0.5416
 6194TIP3   OH240140   6.619   2.700   7.537  0.3051  0.3593  0.7428
 6194TIP3    H140141   6.562   2.753   7.480 -0.5775 -0.4343  0.8634
 6194TIP3    H240142   6.603   2.734   7.625 -0.6987 -0.4465  0.8968
 6195TIP3   OH240143   0.203   3.365   8.429  0.0323 -0.2786 -0.0497
 6195TIP3    H140144   0.164   3.431   8.371 -0.6512 -0.3517  0.3142
 6195TIP3    H240145   0.227   3.293   8.371 -1.2765 -0.6469 -0.1794
 6196TIP3   OH240146   6.397   5.535   8.078 -0.0201  0.0114 -0.2675
 6196TIP3    H140147   6.411   5.528   7.984  0.0858 -2.1956 -0.1454
 6196TIP3    H240148   6.326   5.598   8.087  0.5350  0.8926 -1.7623
 6197TIP3   OH240149   0.258   3.047   2.246  0.4585 -0.0670 -0.9993
 6197TIP3    H140150   0.232   2.989   2.317  1.8716 -0.5194 -0.8144
 6197TIP3    H240151   0.176   3.074   2.205 -0.5641  1.9948  2.1243
 6198TIP3   OH240152   4.816   6.110   0.058  0.2250 -0.2111 -0.0109
 6198TIP3    H140153   4.765   6.034   0.085 -1.0959  0.9184  0.7859
 6198TIP3    H240154   4.770   6.144  -0.019  0.4000  0.2008  0.0613
 6199TIP3   OH240155   3.032   3.972   8.276  0.2575  0.5078  0.6719
 6199TIP3    H140156   3.033   4.065   8.252 -1.0080  0.0743 -1.3300
 6199TIP3    H240157   3.118   3.940   8.250  0.6105  1.0608  1.1352
 6200TIP3   OH240158   5.470   4.498   8.226  0.5947  0.0043  0.1782
 6200TIP3    H140159   5.490   4.436   8.156  1.5088 -0.2251  0.6314
 6200TIP3    H240160   5.497   4.583   8.192  0.7988 -0.0698  0.1568
 6201TIP3   OH240161   0.472   6.491   1.542 -0.3208 -0.2430 -0.3012
 6201TIP3    H140162   0.412   6.563   1.524 -1.7975 -1.0888  0.9717
 6201TIP3    H240163   0.546   6.506   1.484 -1.0303  1.7409 -0.7636
 6202TIP3   OH240164   1.862   0.461   8.190  0.1714  0.2178 -0.0144
 6202TIP3    H140165   1.857   0.367   8.172  1.2085  0.0766  0.3942
 6202TIP3    H240166   1.864   0.502   8.103 -0.1227 -0.1412 -0.1937
 6203TIP3   OH240167   3.918   2.583   8.058  0.6571  0.1609  0.1794
 6203TIP3    H140168   3.972   2.536   8.121  0.6737 -1.3647 -0.9214
 6203TIP3    H240169   3.975   2.651   8.024  0.8611  0.5730  1.2842
 6204TIP3   OH240170   1.092   3.159   8.456 -0.7799  0.7581 -0.0058
 6204TIP3    H140171   1.054   3.140   8.542 -1.0829 -0.3414 -0.3588
 6204TIP3    H240172   1.044   3.102   8.396  1.2380 -0.5273 -0.5141
 6205TIP3   OH240173   5.467   1.281   1.417  0.2029 -0.0622 -0.9246
 6205TIP3    H140174   5.460   1.322   1.503 -2.0680 -3.0147  0.4698
 6205TIP3    H240175   5.377   1.267   1.389  0.8240 -2.3866 -2.0684
 6206TIP3   OH240176   4.124   5.996   2.350 -0.1267 -0.0979 -0.3733
 6206TIP3    H140177   4.102   6.083   2.315 -0.7617 -0.2898 -0.4610
 6206TIP3    H240178   4.195   6.013   2.412  0.5685  0.3364 -1.2529
 6207TIP3   OH240179   5.354   2.450   8.644 -0.5838 -0.1048 -0.2957
 6207TIP3    H140180   5.302   2.446   8.564 -0.6755 -0.8368 -0.2074
 6207TIP3    H240181   5.297   2.493   8.708 -1.9984 -2.8675  0.4519
 6208TIP3   OH240182   0.900   1.270   2.373 -0.3356  0.3642 -0.0787
 6208TIP3    H140183   0.955   1.208   2.422 -1.0733 -0.2463 -0.0038
 6208TIP3    H240184   0.852   1.318   2.441 -0.7267  0.1098 -0.1705
 6209TIP3   OH240185   1.031   3.049   7.064  0.8694 -0.5110  0.4592
 6209TIP3    H140186   1.110   3.038   7.116  0.5726 -1.6199  0.7129
 6209TIP3    H240187   1.062   3.072   6.977  1.3675  1.4252  1.1093
 6210TIP3   OH240188   1.096   1.739   0.102  0.6718  0.7543  0.2152
 6210TIP3    H140189   1.140   1.655   0.085 -0.5665  0.2668 -0.7380
 6210TIP3    H240190   1.159   1.805   0.075  0.6082  0.0642 -1.7875
 6211TIP3   OH240191   0.511   1.041   1.760 -0.4776 -0.5127  0.4330
 6211TIP3    H140192   0.485   1.127   1.794 -2.8567 -0.8656 -0.3064
 6211TIP3    H240193   0.465   0.979   1.815  1.3523 -1.3942  1.0610
 6212TIP3   OH240194   0.718   6.040   2.157  0.1740  0.1066  0.4682
 6212TIP3    H140195   0.665   6.067   2.232 -0.9987  0.0936 -0.3224
 6212TIP3    H240196   0.690   6.097   2.086  2.3959  1.2018  0.3821
 6213TIP3   OH240197   1.941   4.808   7.867 -0.6387 -0.4174  0.5524
 6213TIP3    H140198   1.899   4.823   7.782  1.1017 -1.2287 -0.5071
 6213TIP3    H240199   2.001   4.882   7.877 -0.8479 -0.3183  1.0955
 6214TIP3   OH240200   1.578   3.763   2.642  0.5112 -0.4988 -0.0610
 6214TIP3    H140201   1.571   3.794   2.552 -0.5779  2.5546  0.9456
 6214TIP3    H240202   1.555   3.671   2.638  2.4253 -0.9849 -3.1425
 6215TIP3   OH240203   0.111   5.764   2.188  0.2778  0.1613 -0.7606
 6215TIP3    H140204   0.089   5.768   2.094 -0.8055 -0.0073 -0.5275
 6215TIP3    H240205   0.086   5.850   2.221  1.9700  0.7299 -0.8755
 6216TIP3   OH240206   5.370   0.367   7.437  0.3750  0.3060  0.0396
 6216TIP3    H140207   5.282   0.336   7.459  0.6890 -2.0022 -1.5594
 6216TIP3    H240208   5.357   0.456   7.405 -1.1652  0.5413  1.2034
 6217TIP3   OH240209   0.798   1.772   7.232  0.8675  0.3436 -0.1799
 6217TIP3    H140210   0.783   1.682   7.260  0.4470  0.4925  0.0831
 6217TIP3    H240211   0.868   1.766   7.166  0.7148 -0.1900 -0.2950
 6218TIP3   OH240212   5.903   0.990   7.795  0.6298 -0.0320 -0.2632
 6218TIP3    H140213   5.839   1.020   7.860  0.7889 -0.8405  0.2833
 6218TIP3    H240214   5.854   0.988   7.713 -0.1720 -1.0118  0.2166
 6219TIP3   OH240215   2.395   1.807   7.770 -0.2684  0.8807  0.2880
 6219TIP3    H140216   2.417   1.875   7.707 -0.5201  0.9326  0.2546
 6219TIP3    H240217   2.465   1.811   7.835  0.9097 -0.2721 -0.8375
 6220TIP3   OH240218   3.065   3.527   2.215  0.5515 -0.2869  0.4920
 6220TIP3    H140219   3.056   3.623   2.219  1.4283 -0.2230  1.1926
 6220TIP3    H240220   3.045   3.505   2.124  1.3679  0.6761  0.0675
 6221TIP3   OH240221   1.533   5.248   8.414 -0.4896 -0.0237 -0.2830
 6221TIP3    H140222   1.441   5.225   8.397 -0.7487 -0.0958  1.0505
 6221TIP3    H240223   1.529   5.337   8.450 -0.1040 -0.2228  0.2662
 6222TIP3   OH240224   4.989   1.878   7.900 -0.1733  0.0170 -0.0424
 6222TIP3    H140225   5.037   1.796   7.911  1.1842  0.6836 -0.7618
 6222TIP3    H240226   5.055   1.946   7.910 -0.7005  0.9396 -2.1901
 6223TIP3   OH240227   6.076   5.489   7.009  0.2217 -0.7652 -0.0810
 6223TIP3    H140228   6.122   5.568   7.038  0.2713  0.0529 -2.2364
 6223TIP3    H240229   6.045   5.449   7.090 -0.2363  1.7212  1.0580
 6224TIP3   OH240230   6.271   3.582   8.454 -0.0500  0.4657 -0.5151
 6224TIP3    H140231   6.182   3.573   8.420 -0.1667  0.6538 -0.2585
 6224TIP3    H240232   6.261   3.585   8.549  0.0693  2.1989 -0.5213
 6225TIP3   OH240233   1.588   1.477   0.270  0.4438  0.3559  0.2362
 6225TIP3    H140234   1.643   1.514   0.339 -0.9664  1.7602  0.6719
 6225TIP3    H240235   1.611   1.384   0.268  2.3321  0.7728  0.8306
 6226TIP3   OH240236   4.394   3.875   7.238  0.5027  0.0038  0.6514
 6226TIP3    H140237   4.458   3.946   7.243 -0.9045  1.2887  1.7325
 6226TIP3    H240238   4.344   3.884   7.319 -0.2327 -1.7459  0.4211
 6227TIP3   OH240239   2.097   3.832   8.578  0.2844  0.3945 -0.2941
 6227TIP3    H140240   2.130   3.904   8.524 -0.6420  2.5412  1.8504
 6227TIP3    H240241   2.017   3.803   8.534 -0.0913  1.6445 -0.4685
 6228TIP3   OH240242   2.180   5.922   1.139 -0.1034  0.5256 -0.1641
 6228TIP3    H140243   2.149   5.995   1.192 -0.7541  0.8357 -0.9487
 6228TIP3    H240244   2.265   5.899   1.177 -0.7484  0.4425  1.2720
 6229TIP3   OH240245   2.822   2.377   6.720 -0.0258  0.7489 -0.4243
 6229TIP3    H140246   2.757   2.352   6.654 -0.7737  1.1474  0.1435
 6229TIP3    H240247   2.906   2.354   6.681 -0.4017  1.6004 -1.8053
 6230TIP3   OH240248   5.031   2.065   7.468 -0.1611  0.1399 -0.5629
 6230TIP3    H140249   4.971   2.003   7.509  1.2523 -1.0361 -0.1921
 6230TIP3    H240250   5.027   2.142   7.525 -1.9851  0.4643 -1.0679
 6231TIP3   OH240251   5.500   5.634   7.636  0.2292  0.8949 -0.1105
 6231TIP3    H140252   5.513   5.687   7.715 -0.3299  0.2104  0.4582
 6231TIP3    H240253   5.583   5.641   7.589  2.8925 -3.0936  3.2043
 6232TIP3   OH240254   3.930   0.075   8.118 -0.5205  0.2212 -0.3906
 6232TIP3    H140255   3.956   0.167   8.120 -0.4840  0.2100  1.2114
 6232TIP3    H240256   4.011   0.027   8.100 -0.2925  0.4404  0.0387
 6233TIP3   OH240257   3.201   4.028   0.061  0.0020  0.0920 -0.4152
 6233TIP3    H140258   3.204   3.950   0.005  0.9646  1.1098 -1.8795
 6233TIP3    H240259   3.110   4.058   0.054 -0.8636 -1.8020  1.5709
 6234TIP3   OH240260   6.369   2.923   2.375 -0.1342 -0.0759 -0.0116
 6234TIP3    H140261   6.294   2.934   2.434  0.4100 -0.2534  0.7215
 6234TIP3    H240262   6.355   2.837   2.335 -0.5437  0.0759 -0.2037
 6235TIP3   OH240263   6.637   3.768   1.851  0.1582 -0.4867  0.2634
 6235TIP3    H140264   6.661   3.765   1.944 -0.4718 -2.4107  0.4002
 6235TIP3    H240265   6.687   3.698   1.810  0.8449  0.6801 -0.9937
 6236TIP3   OH240266   3.443   6.160   1.664  0.8375  0.3752 -0.0436
 6236TIP3    H140267   3.421   6.128   1.576  0.0150  0.0650  0.2610
 6236TIP3    H240268   3.488   6.087   1.706  0.3550  0.1636  0.1178
 6237TIP3   OH240269   1.856   3.800   2.461  0.1726  0.7502 -0.1449
 6237TIP3    H140270   1.914   3.824   2.533 -0.6987  1.2016  0.4223
 6237TIP3    H240271   1.788   3.867   2.461 -0.3825  0.2065 -0.7650
 6238TIP3   OH240272   2.919   2.367   7.175  0.1731  0.0642  0.0734
 6238TIP3    H140273   2.872   2.427   7.233  1.1768  0.9386  0.0060
 6238TIP3    H240274   3.006   2.359   7.214 -0.0458 -1.6839  0.3080
 6239TIP3   OH240275   3.437   5.360   6.772 -0.4510  0.2351 -0.5014
 6239TIP3    H140276   3.382   5.400   6.839  0.9334 -0.6333  1.2253
 6239TIP3    H240277   3.514   5.417   6.767  1.0567 -1.5203  1.2208
 6240TIP3   OH240278   0.281   0.476   1.349  0.6667 -0.1292 -0.5472
 6240TIP3    H140279   0.286   0.398   1.294  0.5887 -0.4231 -0.1422
 6240TIP3    H240280   0.305   0.445   1.437 -0.4681  0.0619 -0.1538
 6241TIP3   OH240281   3.351   1.787   1.363  0.7203 -0.3071 -0.4517
 6241TIP3    H140282   3.437   1.793   1.404  0.4657 -1.3893  0.2836
 6241TIP3    H240283   3.361   1.720   1.295  0.4242 -0.5565 -0.2551
 6242TIP3   OH240284   3.395   0.394   7.505  0.3755  0.3334  0.1653
 6242TIP3    H140285   3.333   0.464   7.484  0.2625  0.3499  0.5609
 6242TIP3    H240286   3.476   0.440   7.527  0.5333  0.3120 -0.3478
 6243TIP3   OH240287   1.117   2.502   1.755 -0.4756 -0.8060  0.0696
 6243TIP3    H140288   1.097   2.448   1.831  0.8377 -1.3127  0.0730
 6243TIP3    H240289   1.153   2.583   1.792 -2.9087  0.3642  0.0914
 6244TIP3   OH240290   2.252   3.251   8.615 -0.5521  0.4436  0.3622
 6244TIP3    H140291   2.190   3.324   8.606 -1.0030 -0.0636 -0.8773
 6244TIP3    H240292   2.204   3.184   8.662 -0.8414  0.1802 -0.2994
 6245TIP3   OH240293   4.927   6.612   2.549 -0.2013  0.1722 -0.1566
 6245TIP3    H140294   4.979   6.543   2.507 -0.9558 -0.7420  0.3698
 6245TIP3    H240295   4.956   6.611   2.640 -0.0475  0.7171 -0.1992
 6246TIP3   OH240296   2.802   1.269   8.355  0.0492  0.3547 -0.8861
 6246TIP3    H140297   2.838   1.323   8.425  1.0397 -0.6867 -0.5490
 6246TIP3    H240298   2.718   1.238   8.388  0.1992  0.4267 -0.4320
 6247TIP3   OH240299   3.294   5.707   2.625  0.4094 -0.4086  0.3465
 6247TIP3    H140300   3.293   5.797   2.594 -0.6059 -0.6803 -0.4835
 6247TIP3    H240301   3.384   5.678   2.611  0.8195  0.5669  0.9175
 6248TIP3   OH240302   4.513   5.654   2.350  0.4945 -0.4106 -0.4312
 6248TIP3    H140303   4.483   5.726   2.406 -1.1976 -2.0770  0.9500
 6248TIP3    H240304   4.602   5.637   2.380  0.4732  0.2986  0.0735
 6249TIP3   OH240305   0.819   4.083   1.199  0.6590 -0.2650 -0.2705
 6249TIP3    H140306   0.813   4.171   1.162  1.9675 -0.7162 -1.6594
 6249TIP3    H240307   0.899   4.084   1.250 -1.5014  0.5906  3.4994
 6250TIP3   OH240308   6.574   1.291   1.481  0.3070  0.0150  0.3651
 6250TIP3    H140309   6.617   1.226   1.537  0.6402  0.6150  0.8043
 6250TIP3    H240310   6.582   1.374   1.528 -1.2450  0.1767  0.4192
 6251TIP3   OH240311   5.622   1.532   8.372 -0.2037 -0.1630 -0.1934
 6251TIP3    H140312   5.530   1.550   8.356 -0.5541 -0.8479  0.8829
 6251TIP3    H240313   5.634   1.549   8.466  0.5630 -0.8495 -0.1510
 6252TIP3   OH240314   5.289   2.234   7.072 -0.3459  0.0003  0.0940
 6252TIP3    H140315   5.215   2.282   7.036  0.3543  1.6305  0.7144
 6252TIP3    H240316   5.358   2.300   7.083  0.2480 -0.8613  2.1697
 6253TIP3   OH240317   5.186   1.416   0.641  0.4934  0.1360 -0.6449
 6253TIP3    H140318   5.135   1.348   0.596 -0.2728  1.2654 -1.5107
 6253TIP3    H240319   5.277   1.400   0.615  0.3563 -0.7023 -0.6321
 6254TIP3   OH240320   6.108   4.527   1.576 -0.2103 -0.3044 -0.3392
 6254TIP3    H140321   6.196   4.507   1.544  0.1478 -3.1574  2.0351
 6254TIP3    H240322   6.051   4.468   1.528 -0.7612  0.7979 -1.1004
 6255TIP3   OH240323   0.688   5.491   1.136 -0.0853 -0.1144  0.2172
 6255TIP3    H140324   0.765   5.434   1.141  0.3372  0.4620  0.3533
 6255TIP3    H240325   0.617   5.432   1.109  0.6042 -0.4636 -0.9167
 6256TIP3   OH240326   2.171   5.942   0.557 -1.1520  0.2856 -0.0062
 6256TIP3    H140327   2.246   5.955   0.500 -1.1106 -1.9838 -0.5603
 6256TIP3    H240328   2.162   6.024   0.605  1.7570  0.5762  0.1810
 6257TIP3   OH240329   4.746   5.696   2.485 -0.3238  0.0959 -0.1632
 6257TIP3    H140330   4.734   5.683   2.579 -1.9292 -3.0537 -0.6574
 6257TIP3    H240331   4.808   5.627   2.459  0.8103  1.4765 -1.3456
 6258TIP3   OH240332   6.047   6.882   1.113 -0.6252  0.1008 -0.6506
 6258TIP3    H140333   6.097   6.953   1.074 -0.5480  0.4286  0.0286
 6258TIP3    H240334   6.111   6.813   1.130 -0.2756  0.7552  0.7787
 6259TIP3   OH240335   3.876   2.242   7.811 -0.1140 -0.6821 -0.0701
 6259TIP3    H140336   3.958   2.235   7.858 -0.2642 -0.3771  0.2475
 6259TIP3    H240337   3.893   2.203   7.725  0.1872 -1.1555  0.2040
 6260TIP3   OH240338   1.473   1.082   8.312 -0.2240 -0.3630  0.3822
 6260TIP3    H140339   1.432   1.031   8.382  1.2095  1.3700  2.6124
 6260TIP3    H240340   1.528   1.018   8.265 -0.7267 -1.4496  1.2120
 6261TIP3   OH240341   2.841   3.405   1.786  0.8436  0.4452 -0.1291
 6261TIP3    H140342   2.824   3.494   1.756 -1.1581  0.6908  1.4929
 6261TIP3    H240343   2.832   3.351   1.708 -0.0778  1.4627 -0.7502
 6262TIP3   OH240344   3.302   1.654   8.258 -1.1221  0.6102  0.2551
 6262TIP3    H140345   3.255   1.593   8.200 -1.9440  0.7429  0.7708
 6262TIP3    H240346   3.322   1.602   8.336  0.5391  0.2479 -0.3580
 6263TIP3   OH240347   3.306   3.006   8.082 -0.2370  0.2314  0.3600
 6263TIP3    H140348   3.236   3.014   8.148 -2.5650  0.1246 -1.9423
 6263TIP3    H240349   3.316   2.912   8.069  0.3803  0.2463  0.6872
 6264TIP3   OH240350   1.278   5.059   1.404  0.3351  0.0758 -0.2755
 6264TIP3    H140351   1.283   4.966   1.384  0.3152  0.2577 -1.1808
 6264TIP3    H240352   1.367   5.083   1.430 -0.3015 -0.9042  3.5154
 6265TIP3   OH240353   4.091   0.868   0.584 -0.4896  0.3428  0.1823
 6265TIP3    H140354   4.121   0.902   0.499  1.4285 -0.9295  0.2812
 6265TIP3    H240355   4.130   0.926   0.649 -0.1965  0.0899  0.2377
 6266TIP3   OH240356   5.416   6.855   8.558  0.0814  0.6049 -0.0854
 6266TIP3    H140357   5.389   6.911   8.631 -0.6430 -0.3025  0.3516
 6266TIP3    H240358   5.401   6.909   8.480 -3.9225 -0.0788  0.0205
 6267TIP3   OH240359   3.293   2.779   7.420  0.2752  0.1609  0.1585
 6267TIP3    H140360   3.279   2.831   7.341  0.6541 -0.8692 -0.6096
 6267TIP3    H240361   3.382   2.744   7.411 -0.2773 -1.3494  0.1838
 6268TIP3   OH240362   6.156   2.914   2.543  0.2735  0.3810  0.0425
 6268TIP3    H140363   6.152   2.954   2.630  0.4522  1.3396 -0.3708
 6268TIP3    H240364   6.076   2.862   2.536  0.0262  0.6761  0.6041
 6269TIP3   OH240365   3.179   0.567   2.356 -0.3638  0.0481  0.3028
 6269TIP3    H140366   3.265   0.581   2.317 -0.2689 -0.7235  0.2192
 6269TIP3    H240367   3.124   0.539   2.283 -0.4984 -0.1763  0.4876
 6270TIP3   OH240368   5.247   3.474   7.845  0.0799  0.0230  0.7326
 6270TIP3    H140369   5.164   3.486   7.799  0.3607 -1.1360 -0.1138
 6270TIP3    H240370   5.309   3.530   7.797 -0.3805  1.6899  1.9787
 6271TIP3   OH240371   0.638   2.962   2.216 -0.3551  0.2829  0.3230
 6271TIP3    H140372   0.602   3.050   2.203 -0.8615  0.5901  3.2825
 6271TIP3    H240373   0.583   2.922   2.283  1.6982 -1.1498  1.2661
 6272TIP3   OH240374   0.501   5.387   2.287 -0.2772  0.2669  0.0474
 6272TIP3    H140375   0.423   5.380   2.341  0.2506 -0.5751  0.7161
 6272TIP3    H240376   0.554   5.454   2.330  0.1646 -0.4382  0.6024
 6273TIP3   OH240377   4.831   0.678   8.521 -0.3305 -0.2091  0.4269
 6273TIP3    H140378   4.853   0.594   8.562 -1.7456 -0.3167  1.0374
 6273TIP3    H240379   4.896   0.739   8.554  1.0591 -1.1476 -0.4507
 6274TIP3   OH240380   1.612   1.088   8.667 -0.2408 -0.2510  0.3414
 6274TIP3    H140381   1.631   1.008   8.616 -0.5257  0.0898 -0.3113
 6274TIP3    H240382   1.661   1.076   8.748  1.0016 -0.3856 -0.3905
 6275TIP3   OH240383   5.898   4.891   8.498 -0.1048  0.7857  0.2868
 6275TIP3    H140384   5.817   4.916   8.453  1.2337 -0.0789 -2.9133
 6275TIP3    H240385   5.891   4.795   8.506  0.3290  0.7757  0.5241
 6276TIP3   OH240386   5.070   6.465   7.912 -0.4040  0.3396 -0.1317
 6276TIP3    H140387   5.042   6.415   7.989  0.8999 -1.1645 -0.5678
 6276TIP3    H240388   5.163   6.480   7.927 -0.0039 -0.4710 -1.6368
 6277TIP3   OH240389   6.459   0.924   1.926 -0.2036 -0.5116  0.1251
 6277TIP3    H140390   6.465   0.969   1.841 -0.5666 -0.9436 -0.1329
 6277TIP3    H240391   6.548   0.926   1.961  0.4501 -2.2995 -1.2884
 6278TIP3   OH240392   4.163   6.445   0.318 -0.2690 -0.7802  0.7145
 6278TIP3    H140393   4.107   6.467   0.392 -0.3187 -0.3353  0.5507
 6278TIP3    H240394   4.150   6.517   0.256 -1.4029 -1.8871 -0.3985
 6279TIP3   OH240395   1.203   2.562   7.812  0.2176 -0.6190 -0.0474
 6279TIP3    H140396   1.263   2.491   7.837  0.8594  0.3500  1.2544
 6279TIP3    H240397   1.162   2.589   7.894 -2.1189 -1.3115 -0.9139
 6280TIP3   OH240398   4.326   5.849   0.822  0.5243  0.2537 -0.2313
 6280TIP3    H140399   4.320   5.785   0.893  1.1137 -0.4662 -0.8049
 6280TIP3    H240400   4.310   5.797   0.742  0.0797  1.0038 -0.6404
 6281TIP3   OH240401   2.532   5.441   7.906  0.0788 -0.1644  0.4929
 6281TIP3    H140402   2.448   5.430   7.951  0.0147  0.7783  0.6250
 6281TIP3    H240403   2.564   5.526   7.935 -0.3310  0.8613 -1.7915
 6282TIP3   OH240404   2.387   2.941   7.978  0.3103  0.1016 -0.0660
 6282TIP3    H140405   2.438   3.007   7.931  0.0185 -0.4648 -1.2301
 6282TIP3    H240406   2.426   2.937   8.065  2.0714 -0.1003 -0.8184
 6283TIP3   OH240407   0.195   2.367   8.455 -0.2410  0.1859  0.3347
 6283TIP3    H140408   0.162   2.299   8.514  0.9416 -1.6374 -0.9983
 6283TIP3    H240409   0.121   2.388   8.398 -0.4052 -0.5870  0.2543
 6284TIP3   OH240410   1.909   3.417   8.452 -0.1709  0.4129 -0.5876
 6284TIP3    H140411   1.980   3.409   8.388  1.4431 -3.6171  1.3295
 6284TIP3    H240412   1.942   3.480   8.517  0.9189 -0.0906 -0.6308
 6285TIP3   OH240413   3.747   0.093   2.362  1.2728  0.1382  0.4452
 6285TIP3    H140414   3.686   0.059   2.427 -1.5532  0.7002 -1.6830
 6285TIP3    H240415   3.790   0.015   2.327  0.8720 -0.4203  1.1616
 6286TIP3   OH240416   2.443   6.168   1.072 -0.0977 -0.2956  0.4932
 6286TIP3    H140417   2.425   6.081   1.109 -0.1746  0.0622  1.3060
 6286TIP3    H240418   2.511   6.152   1.006  1.2176 -0.7389  1.8866
 6287TIP3   OH240419   4.582   5.815   1.599 -0.2097  0.4223 -0.6112
 6287TIP3    H140420   4.548   5.868   1.526  0.5427  2.9873  0.8011
 6287TIP3    H240421   4.676   5.831   1.599  0.1229 -1.3204 -0.3757
 6288TIP3   OH240422   5.100   0.867   1.876  0.1667  0.3661 -0.9321
 6288TIP3    H140423   5.110   0.898   1.786 -0.1300  1.3559 -0.6359
 6288TIP3    H240424   5.057   0.939   1.922  3.2999  1.2978  0.8303
 6289TIP3   OH240425   2.154   0.273   0.047  0.2000  0.7110 -0.1010
 6289TIP3    H140426   2.223   0.271  -0.020  1.0169 -1.1493  0.7431
 6289TIP3    H240427   2.074   0.252  -0.000  0.5279  0.8345 -0.7271
 6290TIP3   OH240428   4.200   2.052   1.508 -0.2794  0.2556 -0.0765
 6290TIP3    H140429   4.251   1.972   1.522 -0.7576 -0.0687 -0.1453
 6290TIP3    H240430   4.265   2.119   1.485  0.0310 -0.3689 -1.0999
 6291TIP3   OH240431   3.482   6.466   7.548  0.7703 -0.5914  0.2860
 6291TIP3    H140432   3.570   6.476   7.584  1.1579  0.5126 -0.8695
 6291TIP3    H240433   3.484   6.382   7.502  1.0842 -0.7822  0.6533
 6292TIP3   OH240434   5.273   4.407   7.032 -0.2933  0.4502  0.2084
 6292TIP3    H140435   5.295   4.426   6.941 -1.5621 -0.9204 -0.4304
 6292TIP3    H240436   5.218   4.329   7.027  1.2525 -0.8738  2.3114
 6293TIP3   OH240437   3.260   0.872   2.386 -0.0896  0.2840 -0.0085
 6293TIP3    H140438   3.202   0.803   2.353  1.9710 -1.8717  0.6084
 6293TIP3    H240439   3.242   0.947   2.329 -0.6251 -1.5504 -2.4321
 6294TIP3   OH240440   1.464   3.782   8.350 -0.0018 -0.3182  0.4009
 6294TIP3    H140441   1.498   3.859   8.395  0.1481 -1.2988  2.0448
 6294TIP3    H240442   1.370   3.783   8.368  0.2883 -1.6025  2.2297
 6295TIP3   OH240443   5.447   1.421   1.707  0.0453  0.1939 -0.3981
 6295TIP3    H140444   5.535   1.442   1.676  0.9966 -0.7710  1.4450
 6295TIP3    H240445   5.459   1.344   1.762 -2.3848 -1.6177 -2.1751
 6296TIP3   OH240446   0.947   3.927   1.631 -0.4044 -0.2471  0.1901
 6296TIP3    H140447   1.025   3.878   1.655 -0.2271  0.7470  1.7908
 6296TIP3    H240448   0.890   3.863   1.588  0.4270 -1.4775  0.8754
 6297TIP3   OH240449   1.585   5.940   0.910 -0.1242  0.3617  0.2744
 6297TIP3    H140450   1.605   5.885   0.834  0.1054  0.8077  0.0080
 6297TIP3    H240451   1.636   6.020   0.896 -0.8837  0.8766  0.3660
 6298TIP3   OH240452   5.169   3.641   0.173  0.6236  0.1429  0.3449
 6298TIP3    H140453   5.097   3.590   0.136  0.4327  1.3562 -1.0481
 6298TIP3    H240454   5.201   3.694   0.100  2.1914  0.4680  1.2181
 6299TIP3   OH240455   5.360   4.766   2.114  0.0591 -0.5242  0.4392
 6299TIP3    H140456   5.368   4.698   2.180 -0.6726 -0.5676  0.4968
 6299TIP3    H240457   5.285   4.819   2.143 -0.6303 -0.8769 -0.6350
 6300TIP3   OH240458   6.077   1.156   0.069 -0.2632 -0.0273 -0.3781
 6300TIP3    H140459   6.092   1.226   0.133 -1.3311 -0.7921  0.7477
 6300TIP3    H240460   6.004   1.188   0.016  0.3218  0.4032 -0.9483
 6301TIP3   OH240461   1.189   0.166   7.699 -0.0327 -0.0202  1.2313
 6301TIP3    H140462   1.229   0.156   7.612  1.8676 -0.7660  2.1352
 6301TIP3    H240463   1.101   0.129   7.688 -0.1400  0.6446 -0.5632
 6302TIP3   OH240464   1.416   5.636   1.329 -0.0756 -0.6343  0.3252
 6302TIP3    H140465   1.428   5.726   1.299  0.3796 -0.2109  1.7080
 6302TIP3    H240466   1.338   5.605   1.282  0.6841 -0.0787 -1.3607
 6303TIP3   OH240467   4.540   3.559   0.163 -0.2510 -0.6419 -0.0759
 6303TIP3    H140468   4.550   3.552   0.068 -2.6849 -0.4219 -0.4160
 6303TIP3    H240469   4.517   3.651   0.178 -1.8787 -1.1165  0.4741
 6304TIP3   OH240470   3.989   6.807   6.811 -0.1349  0.1498 -0.1622
 6304TIP3    H140471   4.059   6.865   6.780  0.3256  0.1467  0.8267
 6304TIP3    H240472   3.913   6.831   6.759  0.4985  0.4463 -0.9641
 6305TIP3   OH240473   5.402   6.366   2.370 -0.0546 -0.1414 -0.1503
 6305TIP3    H140474   5.483   6.381   2.420  1.3620 -1.0358 -2.0550
 6305TIP3    H240475   5.341   6.329   2.434  1.7071 -1.3157  0.9356
 6306TIP3   OH240476   5.679   2.180   1.132  0.0369  0.2114 -0.0181
 6306TIP3    H140477   5.705   2.146   1.047 -1.1744  0.3853 -0.4804
 6306TIP3    H240478   5.595   2.138   1.150  1.0605 -1.1966  1.9253
 6307TIP3   OH240479   1.152   0.263   8.520 -0.0807  0.1318 -0.1973
 6307TIP3    H140480   1.187   0.351   8.504  0.0390 -0.1785 -1.7868
 6307TIP3    H240481   1.214   0.224   8.581 -0.2604  1.2262  0.7144
 6308TIP3   OH240482   2.921   6.249   1.388  0.3360  0.2930 -0.1893
 6308TIP3    H140483   2.895   6.236   1.297 -0.2702 -0.5082  0.0907
 6308TIP3    H240484   2.904   6.166   1.430  1.4024  0.3902  0.4838
 6309TIP3   OH240485   1.497   0.405   7.980 -0.1758 -0.5648 -0.7268
 6309TIP3    H140486   1.468   0.321   8.013  1.1922 -0.6749  0.2847
 6309TIP3    H240487   1.525   0.387   7.890  0.2647 -1.2269 -0.4618
 6310TIP3   OH240488   3.515   3.633   7.113 -0.2147 -0.3717 -0.2214
 6310TIP3    H140489   3.534   3.647   7.020 -1.4901  2.4777 -0.1729
 6310TIP3    H240490   3.561   3.703   7.158 -2.3117  0.3766  0.8986
 6311TIP3   OH240491   0.008   4.542   2.840  0.5429  0.2939  0.0265
 6311TIP3    H140492   0.065   4.467   2.855  2.4397  1.9638  1.8171
 6311TIP3    H240493  -0.058   4.536   2.909  0.1439 -0.1973 -0.3930
 6312TIP3   OH240494   0.717   1.248   0.597  0.5170 -0.1287 -0.2437
 6312TIP3    H140495   0.658   1.215   0.530  1.6359 -0.8232 -0.9237
 6312TIP3    H240496   0.800   1.263   0.551  0.6136  1.7497  0.4713
 6313TIP3   OH240497   2.536   1.848   8.056  0.2602 -0.5933  0.3976
 6313TIP3    H140498   2.529   1.759   8.090 -1.1355 -1.0518 -0.9942
 6313TIP3    H240499   2.630   1.862   8.045  0.4187 -2.8869 -1.8197
 6314TIP3   OH240500   4.487   1.976   1.727  0.2962 -0.5449  0.3454
 6314TIP3    H140501   4.455   1.903   1.780 -0.9969 -0.5514 -0.4096
 6314TIP3    H240502   4.438   2.052   1.759  0.2660 -0.3597 -0.1325
 6315TIP3   OH240503   0.691   1.024   7.447 -0.2965  0.6897 -0.2793
 6315TIP3    H140504   0.618   0.965   7.426 -0.6511  1.0141  0.0274
 6315TIP3    H240505   0.762   0.995   7.390 -0.6520  0.3462 -0.5555
 6316TIP3   OH240506   4.774   5.216   0.596 -0.1405  0.3140 -0.2324
 6316TIP3    H140507   4.726   5.298   0.583 -1.3841 -0.3838 -0.1898
 6316TIP3    H240508   4.739   5.180   0.677  0.4061 -0.2560 -0.2442
 6317TIP3   OH240509   5.380   1.238   8.274 -0.0717  0.0271  0.8692
 6317TIP3    H140510   5.349   1.175   8.208 -1.6153  0.1624  1.4111
 6317TIP3    H240511   5.311   1.304   8.277  0.6196  0.7306  1.6814
 6318TIP3   OH240512   0.754   0.370   8.372  0.1526  0.2530 -0.5800
 6318TIP3    H140513   0.733   0.364   8.465 -0.2131  0.4670 -0.6450
 6318TIP3    H240514   0.710   0.294   8.333 -1.5284  1.3334 -0.8896
 6319TIP3   OH240515   0.170   1.896   8.472 -0.1311 -0.7221 -0.2375
 6319TIP3    H140516   0.184   1.862   8.384  0.4974  0.8534 -0.7785
 6319TIP3    H240517   0.254   1.935   8.497 -0.4003 -0.8385  0.9155
 6320TIP3   OH240518   4.823   4.453   7.991 -0.1602  0.0356 -0.2325
 6320TIP3    H140519   4.738   4.430   8.028 -0.0472  1.0543  0.7162
 6320TIP3    H240520   4.887   4.412   8.049  0.0291 -1.4916 -1.4512
 6321TIP3   OH240521   2.765   4.732   0.355  0.0435  0.0805 -0.1736
 6321TIP3    H140522   2.674   4.735   0.326 -0.5209 -0.3549  1.4762
 6321TIP3    H240523   2.809   4.801   0.304 -1.1230  0.0996 -1.1904
 6322TIP3   OH240524   1.385   3.032   7.104  0.5196  0.5721  0.5425
 6322TIP3    H140525   1.339   2.988   7.175 -0.9267  2.0796  0.6156
 6322TIP3    H240526   1.433   3.103   7.147  0.1496  1.1002  0.0960
 6323TIP3   OH240527   5.440   2.739   7.461 -0.5130 -0.1561  0.2501
 6323TIP3    H140528   5.506   2.702   7.520 -1.7021 -0.3446  1.5149
 6323TIP3    H240529   5.396   2.663   7.424 -0.1668 -0.0275 -0.4466
 6324TIP3   OH240530   0.803   0.911   0.514  0.2097  0.1755  0.5870
 6324TIP3    H140531   0.780   0.977   0.447  1.7204 -0.2357 -0.3977
 6324TIP3    H240532   0.726   0.907   0.571 -1.4524  0.0543 -1.5186
 6325TIP3   OH240533   6.562   1.978   2.076 -0.3818  0.3654 -0.0639
 6325TIP3    H140534   6.488   1.924   2.103  0.0870 -0.0958  0.3404
 6325TIP3    H240535   6.545   2.064   2.115 -1.1423  0.5171 -0.7238
 6326TIP3   OH240536   6.674   4.375   0.807  0.3040  0.2916 -0.4608
 6326TIP3    H140537   6.675   4.364   0.712  1.2243 -1.8857 -0.2578
 6326TIP3    H240538   6.691   4.287   0.841 -1.7352  0.6942  1.7738
 6327TIP3   OH240539   3.487   0.296   2.948  0.2617 -0.1210  0.4721
 6327TIP3    H140540   3.532   0.351   2.884  1.5741 -0.8964  0.7045
 6327TIP3    H240541   3.413   0.349   2.977 -0.1721  0.3924 -1.4187
 6328TIP3   OH240542   4.076   1.529   7.200 -0.0779  0.1123  0.1758
 6328TIP3    H140543   4.138   1.510   7.270  0.1424 -0.0659 -0.0636
 6328TIP3    H240544   4.082   1.624   7.187  0.4003  0.0522 -0.0764
 6329TIP3   OH240545   1.997   6.483   8.342 -0.1545 -0.0903 -0.3882
 6329TIP3    H140546   1.960   6.422   8.279 -1.3109  0.3630 -0.1665
 6329TIP3    H240547   2.090   6.459   8.347 -0.9017 -3.2667  1.2849
 6330TIP3   OH240548   0.319   4.279   1.577  0.4613 -0.1789  0.8329
 6330TIP3    H140549   0.396   4.291   1.522  0.5243  1.0030  1.1600
 6330TIP3    H240550   0.287   4.367   1.594 -1.4098 -0.6612  0.1038
 6331TIP3   OH240551   6.649   4.332   8.497  0.0234 -0.3567 -0.1746
 6331TIP3    H140552   6.640   4.426   8.512  1.6905 -0.3335  0.9370
 6331TIP3    H240553   6.713   4.324   8.427 -0.5753 -0.6732 -0.6997
 6332TIP3   OH240554   5.009   5.656   0.182  0.6952 -0.6868 -0.5839
 6332TIP3    H140555   5.021   5.590   0.249  0.5211  0.4350  0.5991
 6332TIP3    H240556   4.986   5.607   0.103  0.6087 -2.0160  0.2406
 6333TIP3   OH240557   2.173   4.399   1.558 -0.1792 -0.1529 -0.1633
 6333TIP3    H140558   2.160   4.440   1.644  1.1556 -0.0891  0.0365
 6333TIP3    H240559   2.260   4.430   1.530 -0.0607 -1.1713 -0.9725
 6334TIP3   OH240560   3.206   4.829   0.288 -0.6034 -0.0060  0.7233
 6334TIP3    H140561   3.186   4.825   0.381  1.3403 -0.1501  1.1814
 6334TIP3    H240562   3.284   4.774   0.278 -0.1945  0.7983 -0.8173
 6335TIP3   OH240563   4.674   6.791   0.899 -0.0671 -0.4048 -0.2942
 6335TIP3    H140564   4.763   6.788   0.862 -0.0961  0.5360 -0.4587
 6335TIP3    H240565   4.670   6.875   0.945  0.0648 -1.6350  2.1408
 6336TIP3   OH240566   1.422   0.444   1.672  0.5692  0.1678  0.5166
 6336TIP3    H140567   1.334   0.462   1.704  0.4508 -0.1484  0.3728
 6336TIP3    H240568   1.479   0.497   1.728  0.3166  0.0990  0.8458
 6337TIP3   OH240569   5.106   5.689   6.541 -0.1974  0.8097  0.4984
 6337TIP3    H140570   5.155   5.702   6.622  0.5704  1.7154 -0.1047
 6337TIP3    H240571   5.107   5.594   6.529 -0.0998  0.6792  1.4059
 6338TIP3   OH240572   5.607   0.814   1.010  0.2652  0.0269 -0.1747
 6338TIP3    H140573   5.643   0.735   0.970  0.6330  0.9663 -1.8255
 6338TIP3    H240574   5.513   0.799   1.014  0.2002 -0.0932 -1.5355
 6339TIP3   OH240575   3.066   5.622   2.800 -0.0934 -0.0096 -0.0352
 6339TIP3    H140576   3.096   5.586   2.883 -0.6555  1.7970  1.0217
 6339TIP3    H240577   3.145   5.630   2.746  0.3649 -0.6833  0.5231
 6340TIP3   OH240578   0.415   4.700   1.663 -0.0305  0.0572 -0.1707
 6340TIP3    H140579   0.340   4.642   1.648  0.6087 -0.8050 -0.1011
 6340TIP3    H240580   0.466   4.657   1.732  1.3162 -0.1681 -1.2518
 6341TIP3   OH240581   3.059   1.270   7.441 -0.2659 -0.1943  0.0124
 6341TIP3    H140582   3.010   1.256   7.522 -1.3172 -0.0186 -0.5614
 6341TIP3    H240583   3.000   1.237   7.372  1.3264 -2.0082 -0.5623
 6342TIP3   OH240584   0.718   4.986   7.988 -0.6488  0.3481  0.4815
 6342TIP3    H140585   0.731   4.894   8.010 -0.2237 -0.0918 -1.4329
 6342TIP3    H240586   0.806   5.019   7.970 -0.7884  1.1816  1.2224
 6343TIP3   OH240587   3.666   3.000   8.574  0.1241 -0.5550 -0.0525
 6343TIP3    H140588   3.578   3.019   8.541  1.6969  0.9831 -4.0907
 6343TIP3    H240589   3.701   3.086   8.597  1.5645 -0.6621 -1.6520
 6344TIP3   OH240590   6.346   0.796   1.070  0.3687  0.2860 -0.5341
 6344TIP3    H140591   6.316   0.845   0.993  0.9021 -0.3315 -1.1388
 6344TIP3    H240592   6.267   0.756   1.105  0.2173  0.0681 -1.1194
 6345TIP3   OH240593   6.133   1.432   0.201 -0.1029 -0.1523  0.0588
 6345TIP3    H140594   6.075   1.476   0.139 -2.1418 -0.2936  1.7666
 6345TIP3    H240595   6.110   1.469   0.286  0.1343 -2.4066  1.1804
 6346TIP3   OH240596   0.327   6.842   8.233 -0.2060  0.5002 -0.0933
 6346TIP3    H140597   0.255   6.782   8.212 -1.6460  2.5658 -1.4634
 6346TIP3    H240598   0.363   6.809   8.315 -1.8469 -1.3994 -0.0690
 6347TIP3   OH240599   3.255   3.486   0.366 -0.6580 -0.1295 -0.0413
 6347TIP3    H140600   3.339   3.441   0.367  0.1110  1.1300 -1.8146
 6347TIP3    H240601   3.190   3.416   0.379  0.4666 -1.8171 -2.6186
 6348TIP3   OH240602   3.447   3.160   1.941  0.4374 -0.1105  0.1517
 6348TIP3    H140603   3.384   3.129   2.005  0.8018  0.9584  1.0575
 6348TIP3    H240604   3.456   3.254   1.959  0.5039  0.2319 -1.5071
 6349TIP3   OH240605   6.170   1.726   7.425  0.2454  0.2820  0.9823
 6349TIP3    H140606   6.226   1.795   7.389  0.4490  0.3208  1.3747
 6349TIP3    H240607   6.089   1.733   7.374  0.5417  0.3177  0.5084
 6350TIP3   OH240608   5.094   6.361   0.943 -0.1616  0.1536 -0.3692
 6350TIP3    H140609   5.156   6.410   0.890  0.1937 -0.2826 -0.3618
 6350TIP3    H240610   5.120   6.270   0.932  1.1590  0.1681  2.1115
 6351TIP3   OH240611   6.422   1.843   1.847  0.1421 -0.4376  0.2428
 6351TIP3    H140612   6.375   1.920   1.815 -0.0852 -1.4639 -2.1063
 6351TIP3    H240613   6.379   1.822   1.930 -1.4926  0.4924 -0.3127
 6352TIP3   OH240614   4.218   5.396   8.457  0.7646 -0.1985  0.9667
 6352TIP3    H140615   4.191   5.475   8.409 -0.1963 -0.9894  0.1429
 6352TIP3    H240616   4.144   5.336   8.447  0.9926 -0.7851  2.5755
 6353TIP3   OH240617   2.134   4.155   0.129 -0.2560  0.8417  0.0413
 6353TIP3    H140618   2.083   4.137   0.049  0.6251 -1.2028 -0.1128
 6353TIP3    H240619   2.072   4.198   0.188 -2.3577 -1.9134  0.0148
 6354TIP3   OH240620   4.643   2.172   8.399 -0.3191  0.8328 -0.4350
 6354TIP3    H140621   4.685   2.207   8.321 -0.8216  2.8797  0.1524
 6354TIP3    H240622   4.715   2.144   8.455  0.0819  0.4306 -1.1471
 6355TIP3   OH240623   5.763   6.350   1.131  0.0102 -0.1436  0.1994
 6355TIP3    H140624   5.810   6.414   1.185  0.4878 -0.6857  0.4343
 6355TIP3    H240625   5.673   6.382   1.129 -0.0444 -0.1790  1.4223
 6356TIP3   OH240626   6.041   0.767   8.438  0.7249  0.2012 -0.4858
 6356TIP3    H140627   6.062   0.740   8.528  0.6103  0.9529 -0.2231
 6356TIP3    H240628   6.098   0.841   8.422  0.3446  0.4212 -0.8328
 6357TIP3   OH240629   2.197   1.423   7.696  0.0771 -0.4595 -0.0777
 6357TIP3    H140630   2.143   1.379   7.630  0.4624  2.0837 -2.2575
 6357TIP3    H240631   2.233   1.499   7.651  0.7766  1.1890  2.9802
 6358TIP3   OH240632   4.132   3.837   2.184  0.1135 -0.1909 -0.2407
 6358TIP3    H140633   4.097   3.786   2.257 -1.4679  0.0758 -0.7787
 6358TIP3    H240634   4.193   3.898   2.226  0.3924 -1.0621  0.6687
 6359TIP3   OH240635   5.323   2.504   6.905  0.0531  0.5648 -0.2885
 6359TIP3    H140636   5.230   2.499   6.883 -0.1483  0.2816  0.5849
 6359TIP3    H240637   5.364   2.541   6.826 -1.1642  3.2909  0.2171
 6360TIP3   OH240638   5.065   3.728   2.141 -0.1059 -0.1914 -0.5517
 6360TIP3    H140639   5.093   3.657   2.084 -0.3542 -0.6827 -0.0675
 6360TIP3    H240640   5.028   3.684   2.218 -0.1943  0.4587 -0.2174
 6361TIP3   OH240641   2.688   5.964   8.322  0.1005 -0.0261  0.1748
 6361TIP3    H140642   2.597   5.943   8.303 -0.4856  2.8630 -0.8016
 6361TIP3    H240643   2.738   5.920   8.254 -0.7523 -0.2809 -0.3033
 6362TIP3   OH240644   0.194   1.874   0.954  0.1046  0.5187  0.0313
 6362TIP3    H140645   0.266   1.813   0.970 -0.3654  0.2697  1.3164
 6362TIP3    H240646   0.190   1.929   1.032 -2.7353 -1.2040  1.2787
 6363TIP3   OH240647   0.945   2.594   2.790  0.3440  0.3296  0.0622
 6363TIP3    H140648   0.986   2.604   2.704 -0.5932 -0.7293 -0.5287
 6363TIP3    H240649   0.878   2.662   2.793  1.2553  1.2495  0.5326
 6364TIP3   OH240650   5.855   5.736   1.941  0.7958  0.2538  0.2278
 6364TIP3    H140651   5.813   5.817   1.970 -0.5818 -0.9308  1.7960
 6364TIP3    H240652   5.876   5.690   2.022  1.8605 -0.8068 -0.6246
 6365TIP3   OH240653   0.939   5.690   0.246  0.0256  0.0635 -0.6743
 6365TIP3    H140654   0.856   5.677   0.293  0.0930 -1.9734 -1.0212
 6365TIP3    H240655   1.006   5.685   0.314 -0.1381  3.3987 -0.1310
 6366TIP3   OH240656   0.997   0.464   8.215 -0.2941  0.5010 -0.2255
 6366TIP3    H140657   0.991   0.433   8.305  0.0464  0.9197 -0.0539
 6366TIP3    H240658   0.963   0.554   8.218 -2.0331 -0.0910 -0.8616
 6367TIP3   OH240659   1.316   1.515   0.433 -0.0862  0.7935  0.5810
 6367TIP3    H140660   1.333   1.610   0.435 -0.7940  0.9150  0.9258
 6367TIP3    H240661   1.402   1.476   0.448 -0.0830  1.4103  2.4188
 6368TIP3   OH240662   5.406   4.658   0.406 -0.0264  0.7485  0.2505
 6368TIP3    H140663   5.472   4.725   0.387  0.0713  0.2616 -1.2082
 6368TIP3    H240664   5.385   4.672   0.499  1.4797  1.4707  0.5217
 6369TIP3   OH240665   3.161   1.770   1.579 -0.1927  0.1951  0.4840
 6369TIP3    H140666   3.094   1.705   1.557 -0.0266 -0.0615  0.7320
 6369TIP3    H240667   3.226   1.761   1.508  1.6470 -2.4286  2.2989
 6370TIP3   OH240668   1.325   6.278   2.358 -0.1747 -0.0591  0.7227
 6370TIP3    H140669   1.235   6.254   2.383 -0.8783  0.8947 -0.7533
 6370TIP3    H240670   1.363   6.315   2.438 -1.4167  0.3942  1.1263
 6371TIP3   OH240671   4.758   1.837   7.140 -0.0755 -0.0477  0.3278
 6371TIP3    H140672   4.725   1.915   7.184 -1.0326 -0.5999  0.6193
 6371TIP3    H240673   4.706   1.831   7.060 -0.5228 -0.7756  0.6610
 6372TIP3   OH240674   2.316   6.708   1.882  0.1278  0.7133 -0.3341
 6372TIP3    H140675   2.244   6.770   1.896  0.0857  0.3441  1.2863
 6372TIP3    H240676   2.363   6.707   1.965  0.5681 -0.8740 -0.5694
 6373TIP3   OH240677   2.827   6.667   8.255 -0.4263 -0.3428  0.2879
 6373TIP3    H140678   2.773   6.743   8.276 -0.6774 -0.8401  1.5121
 6373TIP3    H240679   2.795   6.638   8.170 -0.2536  0.9751 -0.2534
 6374TIP3   OH240680   3.031   2.262   8.350 -0.0112 -0.2859  0.5533
 6374TIP3    H140681   3.122   2.271   8.377  0.5137  0.6770 -1.3700
 6374TIP3    H240682   2.981   2.309   8.417  1.0846  0.6659  0.7248
 6375TIP3   OH240683   5.244   6.814   7.974 -0.2510  0.3527  0.1225
 6375TIP3    H140684   5.299   6.878   8.018  0.3539 -0.7260  0.9749
 6375TIP3    H240685   5.221   6.751   8.041 -1.3385 -0.0197 -0.5630
 6376TIP3   OH240686   3.341   5.910   1.875 -0.5695 -0.3182 -0.1569
 6376TIP3    H140687   3.275   5.957   1.926 -0.0727  0.5985 -0.3472
 6376TIP3    H240688   3.425   5.945   1.905  0.0503 -3.1287  1.8400
 6377TIP3   OH240689   2.173   0.456   1.012  0.2966  0.2052  0.4009
 6377TIP3    H140690   2.258   0.415   0.996  0.1003 -0.6218  1.3774
 6377TIP3    H240691   2.128   0.395   1.071 -0.5205  1.1930  0.8234
 6378TIP3   OH240692   1.407   4.481   6.910 -0.1340 -0.1591  0.0428
 6378TIP3    H140693   1.494   4.520   6.899 -0.6505  0.6521 -1.4485
 6378TIP3    H240694   1.425   4.389   6.929  1.0970 -0.7965 -3.4390
 6379TIP3   OH240695   6.556   1.329   2.711 -0.2401 -0.1489  0.8622
 6379TIP3    H140696   6.534   1.236   2.721 -1.1989 -0.1211 -0.6563
 6379TIP3    H240697   6.645   1.336   2.744 -0.0488 -1.6757  0.7534
 6380TIP3   OH240698   2.108   5.017   1.623  0.3479  0.7495 -0.3321
 6380TIP3    H140699   2.069   5.084   1.679  0.6020 -0.2379  1.0698
 6380TIP3    H240700   2.055   4.939   1.639 -0.8496  0.9061 -3.0105
 6381TIP3   OH240701   3.212   1.334   7.792 -0.2817 -0.0348 -0.1590
 6381TIP3    H140702   3.177   1.264   7.846 -0.5059  0.1600 -0.0493
 6381TIP3    H240703   3.143   1.401   7.791  1.5287  2.1505  3.3411
 6382TIP3   OH240704   0.468   5.648   2.690 -0.4687 -0.0833  0.6950
 6382TIP3    H140705   0.450   5.581   2.755 -1.2965  0.9169  1.5351
 6382TIP3    H240706   0.534   5.704   2.731 -1.4716  0.9297  0.9793
 6383TIP3   OH240707   2.001   4.874   0.767  0.4761  0.2102  0.2137
 6383TIP3    H140708   1.945   4.922   0.707 -1.1431 -2.2569 -0.3939
 6383TIP3    H240709   1.988   4.916   0.852 -0.7845  0.8807 -0.2935
 6384TIP3   OH240710   4.567   4.100   6.793 -0.7034 -0.2744 -0.0505
 6384TIP3    H140711   4.565   4.195   6.782  2.4732 -0.2759 -1.7442
 6384TIP3    H240712   4.640   4.085   6.854 -1.2520 -1.6347  0.3049
 6385TIP3   OH240713   3.182   2.623   0.742  0.3024  0.3847  0.0174
 6385TIP3    H140714   3.140   2.645   0.659  0.1081 -0.6726 -0.1772
 6385TIP3    H240715   3.137   2.678   0.807  0.3057  1.0531 -0.5330
 6386TIP3   OH240716   6.197   0.449   2.001 -0.1192  0.3807  0.5260
 6386TIP3    H140717   6.226   0.494   1.921 -0.8547 -0.2428 -0.0957
 6386TIP3    H240718   6.104   0.468   2.007 -0.1899 -0.0746  0.9037
 6387TIP3   OH240719   0.558   3.712   1.356  0.0943  0.3309 -0.0266
 6387TIP3    H140720   0.538   3.715   1.262  1.9440  0.6805 -0.4449
 6387TIP3    H240721   0.473   3.723   1.399 -0.6489  1.2420 -1.6537
 6388TIP3   OH240722   6.878   6.369   2.821 -0.1294  0.5041 -0.0425
 6388TIP3    H140723   6.824   6.324   2.886 -0.4640 -0.4280 -0.9353
 6388TIP3    H240724   6.968   6.343   2.843 -0.2112  0.4603  0.2523
 6389TIP3   OH240725   0.907   4.498   0.269 -0.0761 -0.0121  0.1597
 6389TIP3    H140726   0.935   4.474   0.357 -1.3092 -2.5566 -0.0630
 6389TIP3    H240727   0.812   4.486   0.270 -0.3679  1.8120 -1.0087
 6390TIP3   OH240728   0.819   1.746   7.762 -0.2765  0.5609 -0.3457
 6390TIP3    H140729   0.744   1.735   7.820  0.3185 -1.2154  0.1569
 6390TIP3    H240730   0.781   1.768   7.677 -1.3748 -0.3632 -0.1133
 6391TIP3   OH240731   1.539   6.359   7.589  0.0612 -0.3468  0.1415
 6391TIP3    H140732   1.497   6.395   7.667 -1.9210 -2.4626  0.1635
 6391TIP3    H240733   1.485   6.284   7.564  0.2675  0.5283 -3.6355
 6392TIP3   OH240734   4.570   1.779   6.621  0.1782 -0.3290 -0.0969
 6392TIP3    H140735   4.502   1.725   6.580 -1.1656  1.4994 -0.3887
 6392TIP3    H240736   4.651   1.753   6.578 -0.1879 -2.9128  0.5936
 6393TIP3   OH240737   1.212   6.649   1.428 -0.2441 -0.6756 -0.6049
 6393TIP3    H140738   1.214   6.734   1.472  0.0422 -0.8382 -0.3039
 6393TIP3    H240739   1.295   6.643   1.381 -0.6202 -0.4249 -1.3335
 6394TIP3   OH240740   4.392   3.595   0.404  0.0905 -0.4977 -0.2393
 6394TIP3    H140741   4.435   3.666   0.355  0.7254 -0.8859 -0.2604
 6394TIP3    H240742   4.385   3.524   0.340  0.9891 -1.0337  0.2347
 6395TIP3   OH240743   3.353   2.548   1.812 -0.6291 -0.2141 -0.3985
 6395TIP3    H140744   3.318   2.553   1.901 -1.4718  0.3514 -0.7376
 6395TIP3    H240745   3.414   2.475   1.814 -0.2317  0.1195  0.7748
 6396TIP3   OH240746   4.826   2.312   0.361  0.5696  0.5374 -0.1011
 6396TIP3    H140747   4.896   2.248   0.370 -0.7012 -0.9682 -0.5448
 6396TIP3    H240748   4.869   2.388   0.320  2.5619  0.8697  2.3553
 6397TIP3   OH240749   0.845   0.200   1.235  0.1577 -0.3108 -0.2578
 6397TIP3    H140750   0.850   0.179   1.142 -0.3280 -0.3500 -0.2773
 6397TIP3    H240751   0.752   0.217   1.251  0.3654  0.6761  0.0030
 6398TIP3   OH240752   4.939   2.845   0.678  0.5315 -0.6898 -0.4471
 6398TIP3    H140753   4.877   2.901   0.725 -0.6102 -1.6885 -0.7423
 6398TIP3    H240754   4.965   2.779   0.742  1.4856 -0.1710 -0.2617
 6399TIP3   OH240755   0.417   6.562   0.494 -0.0594 -0.3587 -0.0154
 6399TIP3    H140756   0.499   6.513   0.499  0.2826  0.1201 -0.6734
 6399TIP3    H240757   0.348   6.496   0.499  0.3562 -0.7257  0.9717
 6400TIP3   OH240758   2.753   4.371   0.566  0.3322  0.0074  0.0449
 6400TIP3    H140759   2.668   4.401   0.597 -0.2626 -2.0055  0.4924
 6400TIP3    H240760   2.742   4.362   0.471  0.2310  0.2756  0.0297
 6401TIP3   OH240761   3.762   0.626   7.402 -0.0620  0.5640  0.1944
 6401TIP3    H140762   3.794   0.570   7.332 -0.1455  0.3720  0.3090
 6401TIP3    H240763   3.693   0.679   7.362  1.5951  2.2866 -0.5468
 6402TIP3   OH240764   2.433   3.736   1.418  0.3565  0.4303  0.2751
 6402TIP3    H140765   2.515   3.778   1.394  0.3765 -0.5686 -1.5600
 6402TIP3    H240766   2.429   3.658   1.363 -2.6860  1.4024 -1.1002
 6403TIP3   OH240767   0.498   3.105   0.263 -0.3109  0.0089 -0.0846
 6403TIP3    H140768   0.405   3.124   0.279 -0.4982 -0.8497 -0.0950
 6403TIP3    H240769   0.496   3.045   0.187  0.2156 -0.4254  0.2423
 6404TIP3   OH240770   3.211   2.127   7.060  0.0625 -0.0632 -0.5137
 6404TIP3    H140771   3.264   2.205   7.079 -0.3011  0.2978 -0.9362
 6404TIP3    H240772   3.273   2.063   7.028  0.5096 -0.2828  0.7421
 6405TIP3   OH240773   3.601   2.443   0.131 -0.2236  0.1359  0.0197
 6405TIP3    H140774   3.693   2.457   0.151 -0.3809 -0.5663  1.3574
 6405TIP3    H240775   3.595   2.454   0.036  1.3432 -0.4018 -0.1688
 6406TIP3   OH240776   5.909   6.718   3.106  0.6148  0.6151  0.1557
 6406TIP3    H140777   5.935   6.676   3.188  0.2458  0.9820  0.4688
 6406TIP3    H240778   5.987   6.714   3.051 -0.3536 -3.9719 -1.3760
 6407TIP3   OH240779   0.105   2.287   2.719 -0.1713  0.2594 -0.3728
 6407TIP3    H140780   0.141   2.211   2.764  1.1492  0.3768 -1.1577
 6407TIP3    H240781   0.096   2.354   2.787  0.6978  0.0728 -0.0612
 6408TIP3   OH240782   1.445   5.823   2.753  0.2490 -0.0165 -0.2001
 6408TIP3    H140783   1.424   5.902   2.703 -1.9866  0.3106  1.1050
 6408TIP3    H240784   1.461   5.756   2.686  1.6293  1.3627 -1.3299
 6409TIP3   OH240785   5.607   2.173   1.616 -0.4519 -0.2782 -0.2796
 6409TIP3    H140786   5.630   2.204   1.703 -0.4018 -1.5618  0.1751
 6409TIP3    H240787   5.512   2.187   1.610 -0.1556  1.9519 -0.9267
 6410TIP3   OH240788   0.634   4.162   8.502 -0.0052 -0.6973 -1.0169
 6410TIP3    H140789   0.596   4.096   8.444 -1.0678 -0.0263 -1.0944
 6410TIP3    H240790   0.562   4.221   8.523  0.5347 -0.4824  0.3729
 6411TIP3   OH240791   6.746   3.942   8.391  0.7002 -0.4242 -0.6249
 6411TIP3    H140792   6.791   3.859   8.374 -1.6186 -2.1187  0.9014
 6411TIP3    H240793   6.713   3.968   8.305 -1.7234 -3.1715 -0.6933
 6412TIP3   OH240794   5.731   6.051   6.968  0.1118  0.2889  0.2643
 6412TIP3    H140795   5.800   6.099   7.014  2.2467 -0.0696 -2.3655
 6412TIP3    H240796   5.753   5.959   6.980 -0.0571  0.1624 -0.3644
 6413TIP3   OH240797   2.978   0.067   7.924  0.8838  0.2478 -0.4556
 6413TIP3    H140798   2.885   0.087   7.915  0.7933  0.4475  0.6811
 6413TIP3    H240799   2.980  -0.011   7.981  1.3947 -0.0879 -0.9197
 6414TIP3   OH240800   5.378   2.598   1.325  0.1439 -0.5156  0.1775
 6414TIP3    H140801   5.426   2.578   1.406 -0.4536  0.7482  0.8706
 6414TIP3    H240802   5.430   2.556   1.256  0.3937 -2.0782  1.2401
 6415TIP3   OH240803   6.475   2.304   1.868 -0.1412  0.0980 -0.2736
 6415TIP3    H140804   6.392   2.334   1.904  0.1198  0.8888 -0.3196
 6415TIP3    H240805   6.539   2.368   1.899  0.1703  0.5226 -1.7395
 6416TIP3   OH240806   0.407   0.091   2.071 -0.5866 -0.3464  0.4325
 6416TIP3    H140807   0.348   0.124   2.004  1.6329  1.4554 -0.7564
 6416TIP3    H240808   0.361   0.016   2.109 -2.3835 -0.7677 -2.3440
 6417TIP3   OH240809   3.429   3.907   2.308 -0.1769  0.5576 -0.1756
 6417TIP3    H140810   3.485   3.882   2.382 -0.7565  1.0931  0.4653
 6417TIP3    H240811   3.486   3.962   2.253  0.2645  0.1443 -0.1425
 6418TIP3   OH240812   6.729   5.519   0.382 -0.0606 -0.1172  0.8453
 6418TIP3    H140813   6.640   5.513   0.348  0.6611 -1.8971 -0.9359
 6418TIP3    H240814   6.731   5.601   0.431 -2.5180  0.2070  0.5090
 6419TIP3   OH240815   5.889   1.385   1.273 -0.0031  0.2353 -0.0635
 6419TIP3    H140816   5.842   1.423   1.348 -0.3234 -0.3574  0.0382
 6419TIP3    H240817   5.826   1.325   1.233  0.5138 -0.2267 -0.1932
 6420TIP3   OH240818   6.807   4.602   0.058 -0.5419  0.1112 -0.3193
 6420TIP3    H140819   6.893   4.604   0.016 -0.6035  0.9779 -0.4153
 6420TIP3    H240820   6.745   4.622  -0.012 -0.8936 -1.1642 -0.3960
 6421TIP3   OH240821   0.948   1.305   0.434  0.4300  0.0642 -0.7869
 6421TIP3    H140822   0.981   1.272   0.350 -0.6633  0.5171 -1.4136
 6421TIP3    H240823   1.007   1.268   0.499  1.4810 -0.0550 -1.7793
 6422TIP3   OH240824   0.569   4.526   2.115  0.0655 -0.3219 -0.2449
 6422TIP3    H140825   0.529   4.604   2.153  0.6429  0.8686 -1.9553
 6422TIP3    H240826   0.660   4.552   2.096  0.1149 -1.2163 -1.3531
 6423TIP3   OH240827   1.234   4.684   8.000 -0.1145 -0.1808  0.0733
 6423TIP3    H140828   1.305   4.620   8.006  0.3534 -0.0132 -2.5527
 6423TIP3    H240829   1.154   4.632   8.007  0.1780 -0.3963  2.8263
 6424TIP3   OH240830   5.608   3.839   0.155 -0.2760  0.7920 -0.2715
 6424TIP3    H140831   5.521   3.818   0.189 -0.8926 -1.2636 -2.7908
 6424TIP3    H240832   5.662   3.765   0.180  0.5833  1.6852  0.5866
 6425TIP3   OH240833   0.482   4.430   8.563 -0.0409 -0.7024  0.3766
 6425TIP3    H140834   0.448   4.432   8.653 -1.7845  1.4040 -0.2458
 6425TIP3    H240835   0.469   4.519   8.531  3.4554 -0.5276 -0.9775
 6426TIP3   OH240836   3.864   6.829   7.629 -0.2458 -0.4528 -0.6475
 6426TIP3    H140837   3.939   6.770   7.639 -0.9117 -1.1507  0.4623
 6426TIP3    H240838   3.867   6.884   7.707 -1.9274 -1.7313  0.3778
 6427TIP3   OH240839   5.770   0.739   3.007  0.1377  1.0118 -0.0693
 6427TIP3    H140840   5.735   0.650   3.010  1.6991  0.3908  1.0427
 6427TIP3    H240841   5.790   0.753   2.915  0.8468 -0.1935 -0.1220
 6428TIP3   OH240842   0.680   4.540   1.538 -1.0808  0.4056 -0.3342
 6428TIP3    H140843   0.631   4.575   1.463 -0.1467  0.8408 -0.7653
 6428TIP3    H240844   0.671   4.607   1.606 -1.8652  0.0461 -0.0802
 6429TIP3   OH240845   4.034   3.349   7.863  0.2931 -0.3014  0.7743
 6429TIP3    H140846   4.052   3.294   7.938 -1.6936  0.2573  1.7361
 6429TIP3    H240847   3.942   3.332   7.842  0.1396  1.2943 -0.0223
 6430TIP3   OH240848   3.200   2.017   1.720 -0.7171 -0.2664 -0.4205
 6430TIP3    H140849   3.174   1.925   1.708 -0.2010 -0.4587 -0.0999
 6430TIP3    H240850   3.294   2.016   1.706 -0.5789  0.0645  0.4404
 6431TIP3   OH240851   1.975   3.180   0.580  0.0274  0.0840  0.1947
 6431TIP3    H140852   1.943   3.186   0.490 -0.4943  0.0109  0.3715
 6431TIP3    H240853   1.980   3.271   0.609 -0.1552  0.0863  0.2159
 6432TIP3   OH240854   2.838   3.510   2.536  0.2490  0.4725 -0.4382
 6432TIP3    H140855   2.793   3.582   2.492 -1.1078 -0.3531 -0.4385
 6432TIP3    H240856   2.845   3.442   2.469  1.8590  0.7081 -0.5479
 6433TIP3   OH240857   6.502   3.902   7.252  0.0030 -0.0947  0.6059
 6433TIP3    H140858   6.496   3.822   7.201  1.4455 -0.1657  0.5026
 6433TIP3    H240859   6.512   3.972   7.187  0.6031 -0.0502  0.7373
 6434TIP3   OH240860   3.568   4.667   6.994 -0.1560  0.6927  0.4881
 6434TIP3    H140861   3.546   4.574   7.002  0.8232  0.0595 -2.5265
 6434TIP3    H240862   3.513   4.698   6.922  2.3395  1.2986 -1.3041
 6435TIP3   OH240863   2.022   0.678   0.983  0.4363  0.0659 -0.1448
 6435TIP3    H140864   2.003   0.677   0.889  1.7041  1.3142 -0.4472
 6435TIP3    H240865   2.084   0.606   0.995  1.5078  0.8901 -0.5802
 6436TIP3   OH240866   5.104   5.519   6.941  0.2453  0.4975  0.3273
 6436TIP3    H140867   5.172   5.573   6.901  0.5168 -0.6618 -0.8802
 6436TIP3    H240868   5.060   5.478   6.866 -0.5886 -0.1601  1.1616
 6437TIP3   OH240869   1.971   3.848   0.158  0.1487 -0.0199 -0.6972
 6437TIP3    H140870   1.994   3.777   0.098  0.9028 -1.3357  1.0598
 6437TIP3    H240871   2.053   3.872   0.200 -0.4577  0.4316  0.2734
 6438TIP3   OH240872   6.669   4.912   8.608  0.3825 -0.0243  0.0727
 6438TIP3    H140873   6.740   4.938   8.549  0.2639  0.3511  0.0928
 6438TIP3    H240874   6.615   4.853   8.555 -0.9931  2.0631 -0.9915
 6439TIP3   OH240875   6.483   2.283   8.433  0.0249 -0.8901  0.1247
 6439TIP3    H140876   6.389   2.281   8.419 -0.3562  2.2577  1.3411
 6439TIP3    H240877   6.501   2.210   8.492 -1.8075 -0.9777  0.6226
 6440TIP3   OH240878   0.686   4.585   0.052  0.4468  0.3221 -0.6409
 6440TIP3    H140879   0.621   4.630  -0.001  0.9623  0.8844 -0.8101
 6440TIP3    H240880   0.648   4.582   0.140 -0.2172 -0.2191 -0.9481
 6441TIP3   OH240881   3.508   4.750   1.777 -0.1294 -0.2618 -0.1983
 6441TIP3    H140882   3.484   4.836   1.811  0.8322 -0.2242  0.4286
 6441TIP3    H240883   3.603   4.747   1.786  0.2354 -0.1861 -3.0386
 6442TIP3   OH240884   4.754   3.973   6.951  0.4948 -0.2329 -0.0170
 6442TIP3    H140885   4.845   3.967   6.980  0.4395 -1.5509 -0.0574
 6442TIP3    H240886   4.703   3.965   7.031  0.4096  1.3569  0.1092
 6443TIP3   OH240887   6.267   6.803   1.422  0.4225 -0.2331  0.4953
 6443TIP3    H140888   6.315   6.764   1.495 -0.9737 -2.0526  0.5077
 6443TIP3    H240889   6.175   6.802   1.450  0.0487  0.6255 -0.6037
 6444TIP3   OH240890   5.104   1.255   8.486  0.1548 -0.2297 -0.1102
 6444TIP3    H140891   5.126   1.319   8.417 -1.1425 -0.1624 -0.4866
 6444TIP3    H240892   5.189   1.228   8.521  0.7927  0.6274 -0.9272
 6445TIP3   OH240893   5.640   6.132   7.481  0.3048 -0.0849  0.1819
 6445TIP3    H140894   5.613   6.046   7.449  1.0838 -0.1088 -0.4564
 6445TIP3    H240895   5.716   6.155   7.427  1.5260 -0.0126  1.8301
 6446TIP3   OH240896   5.594   4.642   7.801 -0.2133  0.1195  0.1993
 6446TIP3    H140897   5.520   4.610   7.748 -0.4109 -0.2027  0.6641
 6446TIP3    H240898   5.554   4.684   7.877  0.0709  0.5932  0.0922
 6447TIP3   OH240899   2.462   6.467   2.037  0.3097 -0.3631  0.3072
 6447TIP3    H140900   2.469   6.458   2.132  0.1726 -0.3243  0.3202
 6447TIP3    H240901   2.426   6.384   2.007  1.9807 -1.0543  0.1115
 6448TIP3   OH240902   2.639   6.147   7.762 -0.2829  0.0436 -0.2766
 6448TIP3    H140903   2.735   6.143   7.755 -0.2937  1.3853 -2.1475
 6448TIP3    H240904   2.608   6.100   7.685 -1.1808 -0.9014  0.6306
 6449TIP3   OH240905   1.543   6.254   1.381  0.3270  0.3552 -0.1721
 6449TIP3    H140906   1.635   6.278   1.384  0.2889  0.4187  0.6110
 6449TIP3    H240907   1.501   6.308   1.448 -0.4598  1.0625 -1.1961
 6450TIP3   OH240908   0.335   3.361   8.044  0.3306  0.2639 -0.3048
 6450TIP3    H140909   0.324   3.307   8.122 -0.1632 -0.5012 -0.8834
 6450TIP3    H240910   0.289   3.442   8.065  0.9023  0.3879  0.5007
 6451TIP3   OH240911   5.814   0.647   0.490  0.0541  0.2588 -0.1340
 6451TIP3    H140912   5.883   0.713   0.498  0.8577 -0.2884 -1.8972
 6451TIP3    H240913   5.779   0.659   0.402 -0.2857 -1.1724 -0.2219
 6452TIP3   OH240914   6.431   6.017   0.667  0.4133  1.1714  0.3343
 6452TIP3    H140915   6.426   5.955   0.595 -0.5002  1.4908  0.1199
 6452TIP3    H240916   6.389   5.972   0.741  2.0296  0.5341  0.9131
 6453TIP3   OH240917   3.336   2.569   6.642  0.3251 -0.1849 -0.2334
 6453TIP3    H140918   3.384   2.506   6.694 -0.2065 -1.2744 -1.0265
 6453TIP3    H240919   3.304   2.633   6.705 -0.8082 -1.7821  0.8780
 6454TIP3   OH240920   5.830   6.427   2.274  0.4872  0.4226  0.6676
 6454TIP3    H140921   5.797   6.338   2.270  1.7518 -0.0622  0.6607
 6454TIP3    H240922   5.775   6.470   2.340 -0.8896 -0.0040 -0.1492
 6455TIP3   OH240923   2.002   2.933   1.040  0.1466  0.1767 -0.0764
 6455TIP3    H140924   2.013   2.882   1.120  0.0598 -2.6869 -1.7389
 6455TIP3    H240925   1.907   2.944   1.032  0.1155 -0.0450 -0.0449
 6456TIP3   OH240926   6.473   0.717   0.787  0.0181  0.3223 -0.5943
 6456TIP3    H140927   6.494   0.806   0.816  0.1466  0.7096 -1.8355
 6456TIP3    H240928   6.535   0.699   0.717 -0.1435 -0.6842 -0.5006
 6457TIP3   OH240929   0.580   4.985   7.764  0.0989 -0.0750 -0.7779
 6457TIP3    H140930   0.625   4.996   7.848 -0.9923  0.6473 -0.2695
 6457TIP3    H240931   0.631   5.038   7.703 -1.1261  2.4283  0.2103
 6458TIP3   OH240932   0.430   3.239   0.655  0.3933  0.2423 -0.1052
 6458TIP3    H140933   0.459   3.257   0.744 -0.1526 -0.7076  0.2814
 6458TIP3    H240934   0.340   3.208   0.665  0.6768 -0.9028 -0.8722
 6459TIP3   OH240935   0.227   4.823   0.690 -0.3546  0.1024  0.3499
 6459TIP3    H140936   0.159   4.885   0.666 -0.5858  0.0531  0.8696
 6459TIP3    H240937   0.298   4.839   0.628 -0.8491  0.1314 -0.2103
 6460TIP3   OH240938   4.841   3.050   8.026 -0.7725  0.0387  0.2541
 6460TIP3    H140939   4.889   3.096   7.957 -3.4184  0.6780 -1.2758
 6460TIP3    H240940   4.836   2.959   7.996 -1.2678  0.1622 -0.0544
 6461TIP3   OH240941   1.065   0.493   0.769  0.0243  0.4700  0.0852
 6461TIP3    H140942   1.152   0.462   0.792 -0.1284  0.1441  0.2412
 6461TIP3    H240943   1.068   0.508   0.675 -0.2482 -1.2317 -0.2311
 6462TIP3   OH240944   0.033   0.606   8.374 -0.1406 -0.2548 -0.4650
 6462TIP3    H140945  -0.042   0.651   8.335 -0.5561 -1.1563 -0.7216
 6462TIP3    H240946   0.074   0.673   8.430 -1.7830 -0.0688  0.5749
 6463TIP3   OH240947   0.092   5.533   1.465  0.0379  0.0222 -0.0847
 6463TIP3    H140948   0.037   5.605   1.434  0.4658  0.0858 -0.7071
 6463TIP3    H240949   0.093   5.470   1.393  2.6183  1.0428 -1.0736
 6464TIP3   OH240950   6.483   2.837   1.148  0.4238 -0.1673 -0.3867
 6464TIP3    H140951   6.575   2.824   1.172  0.1678 -1.7500 -0.1202
 6464TIP3    H240952   6.451   2.749   1.127 -0.9292  0.4086 -0.8719
 6465TIP3   OH240953   2.003   0.548   2.012 -0.3519 -0.2009  0.2265
 6465TIP3    H140954   1.951   0.530   1.934 -0.5562 -0.9612  0.5358
 6465TIP3    H240955   1.957   0.620   2.055 -1.4283 -1.1627  0.7370
 6466TIP3   OH240956   0.420   4.294   7.737 -0.2828  0.4946  0.3856
 6466TIP3    H140957   0.370   4.222   7.699  2.3104 -0.0976 -2.1898
 6466TIP3    H240958   0.416   4.363   7.672  1.1312  0.9063  0.6980
 6467TIP3   OH240959   4.156   1.558   8.540  0.5600 -0.6244  0.1575
 6467TIP3    H140960   4.213   1.623   8.500  0.6394 -0.8267 -0.0590
 6467TIP3    H240961   4.079   1.555   8.483  0.1443 -0.0491  0.6777
 6468TIP3   OH240962   1.190   5.124   7.844 -0.1876 -0.1687 -0.0786
 6468TIP3    H140963   1.269   5.152   7.797  0.1526  0.5811  0.9023
 6468TIP3    H240964   1.224   5.075   7.919 -0.6632  0.0953  0.3070
 6469TIP3   OH240965   2.911   1.796   8.003  0.4982  0.6905 -0.0187
 6469TIP3    H140966   2.839   1.807   7.940 -0.2427  0.9814  0.8665
 6469TIP3    H240967   2.978   1.857   7.973  0.7933 -0.2813 -1.4270
 6470TIP3   OH240968   3.712   0.734   0.186 -0.4566 -0.1966 -1.0860
 6470TIP3    H140969   3.724   0.640   0.171  0.0475 -0.3327  0.0959
 6470TIP3    H240970   3.618   0.748   0.171 -0.7280 -1.0796 -0.3331
 6471TIP3   OH240971   3.969   5.500   2.269 -0.2993  0.0906 -0.0622
 6471TIP3    H140972   3.969   5.596   2.272 -0.4217  0.1365 -1.1353
 6471TIP3    H240973   3.943   5.479   2.179 -1.4713 -0.9721  0.5109
 6472TIP3   OH240974   3.579   4.055   1.258 -0.3061  0.0716 -0.1495
 6472TIP3    H140975   3.592   4.142   1.296 -0.5782 -0.4576  1.1827
 6472TIP3    H240976   3.644   4.050   1.187  1.5238  0.3912  1.4105
 6473TIP3   OH240977   5.865   0.797   1.643  0.1749  0.3250  0.3117
 6473TIP3    H140978   5.778   0.799   1.685  0.5449 -0.6869  1.1744
 6473TIP3    H240979   5.926   0.804   1.716  0.8589  3.1281 -0.4354
 6474TIP3   OH240980   0.097   4.326   7.735  0.0014 -0.1497  0.2492
 6474TIP3    H140981   0.047   4.346   7.656 -0.0997  2.5248  0.8981
 6474TIP3    H240982   0.149   4.249   7.712 -0.2017  0.4088 -2.3545
 6475TIP3   OH240983   2.013   4.394   2.768 -0.4244  0.3792  0.1421
 6475TIP3    H140984   1.926   4.357   2.756 -0.7495  1.2026 -0.1331
 6475TIP3    H240985   2.013   4.474   2.715  0.6104  0.2193 -0.1366
 6476TIP3   OH240986   2.383   0.145   1.227 -0.4596 -0.0294 -0.3772
 6476TIP3    H140987   2.465   0.174   1.268 -0.3090  0.0769 -0.7537
 6476TIP3    H240988   2.320   0.214   1.248 -0.4433 -0.0887 -0.1269
 6477TIP3   OH240989   4.280   6.065   0.630 -0.8049  0.2084  0.2734
 6477TIP3    H140990   4.200   6.044   0.583  0.4666 -0.0685 -1.8726
 6477TIP3    H240991   4.291   5.993   0.692 -1.1074 -0.8381 -0.8726
 6478TIP3   OH240992   4.178   4.819   0.143 -0.3332  0.8411 -0.0415
 6478TIP3    H140993   4.136   4.739   0.175 -1.9468  1.4828 -0.4771
 6478TIP3    H240994   4.181   4.878   0.218  2.2368 -0.0817  0.7054
 6479TIP3   OH240995   3.167   3.868   1.391 -0.1759  0.7685 -0.0144
 6479TIP3    H140996   3.076   3.848   1.369 -0.5198  1.4368  0.7442
 6479TIP3    H240997   3.218   3.804   1.341 -1.1525 -1.1335  1.2904
 6480TIP3   OH240998   1.242   4.542   1.925  0.0872 -0.0217 -0.0661
 6480TIP3    H140999   1.275   4.573   2.009  0.5873 -1.5161  0.3100
 6480TIP3    H241000   1.286   4.458   1.911 -2.6114 -1.5035 -0.1708
 6481TIP3   OH241001   1.723   5.027   0.570 -0.1387 -0.2311  0.7914
 6481TIP3    H141002   1.668   4.957   0.535 -0.5120  0.9877 -1.1879
 6481TIP3    H241003   1.807   5.015   0.526  0.0348  0.0901  1.0384
 6482TIP3   OH241004   0.888   0.350   0.942 -0.3901 -0.0473  0.2820
 6482TIP3    H141005   0.926   0.351   0.854  0.4902  0.6148  0.6583
 6482TIP3    H241006   0.848   0.263   0.949 -2.2011  0.5545 -1.4851
 6483TIP3   OH241007   6.322   6.596   8.566 -0.4028 -0.1275  0.1514
 6483TIP3    H141008   6.281   6.682   8.562  2.4013  1.2712 -2.3427
 6483TIP3    H241009   6.414   6.613   8.586 -0.1379 -2.7619  1.6443
 6484TIP3   OH241010   3.980   4.659   2.414 -0.6985  0.0620  0.2948
 6484TIP3    H141011   3.898   4.687   2.453 -0.0443  0.3541  1.5098
 6484TIP3    H241012   3.971   4.680   2.321 -1.9960  0.0487  0.3980
 6485TIP3   OH241013   2.619   2.923   0.057 -0.1406 -0.0498 -0.0997
 6485TIP3    H141014   2.600   3.008   0.018 -0.0922 -0.2563 -0.5763
 6485TIP3    H241015   2.711   2.927   0.082  0.1366 -0.3245 -1.0569
 6486TIP3   OH241016   3.233   1.203   6.559 -0.1204  0.2563 -0.1111
 6486TIP3    H141017   3.163   1.254   6.518 -1.1520 -0.9782  0.0421
 6486TIP3    H241018   3.231   1.229   6.651  0.6015  1.2687 -0.3619
 6487TIP3   OH241019   3.212   0.570   0.369  0.1333 -0.1169  0.0002
 6487TIP3    H141020   3.250   0.650   0.406 -1.4412  0.1569  1.1158
 6487TIP3    H241021   3.162   0.532   0.441 -0.7382 -1.0740 -1.0838
 6488TIP3   OH241022   1.077   1.565   0.980 -0.2562  0.1137  0.1862
 6488TIP3    H141023   1.103   1.550   1.070 -0.7940 -0.5324  0.2397
 6488TIP3    H241024   1.038   1.483   0.952 -2.4365  1.0727  0.1993
 6489TIP3   OH241025   3.270   0.707   0.141 -0.0796  0.1206  0.1207
 6489TIP3    H141026   3.305   0.780   0.192 -2.2082  0.6449  0.8983
 6489TIP3    H241027   3.235   0.647   0.206 -2.1586  0.4369 -0.6503
 6490TIP3   OH241028   5.113   4.192   2.813 -0.1241  0.0889 -0.3322
 6490TIP3    H141029   5.079   4.103   2.825  0.1056  0.0406 -0.0226
 6490TIP3    H241030   5.169   4.185   2.735 -0.5722  0.0989 -0.6587
 6491TIP3   OH241031   3.524   5.023   3.141 -0.3940  0.0363  0.1149
 6491TIP3    H141032   3.585   5.053   3.074  2.3637 -1.7165  1.6358
 6491TIP3    H241033   3.500   4.935   3.114 -1.9969  0.5384 -0.2230
 6492TIP3   OH241034   3.215   2.688   1.405 -0.2217  0.2800 -0.3770
 6492TIP3    H141035   3.131   2.645   1.386  0.1053 -0.1440 -0.9023
 6492TIP3    H241036   3.221   2.757   1.339 -0.6683  1.0388  0.3620
 6493TIP3   OH241037   5.263   5.438   8.166 -0.4386  0.0426 -0.4605
 6493TIP3    H141038   5.321   5.478   8.102 -1.3782  0.1807 -1.2528
 6493TIP3    H241039   5.258   5.503   8.237 -0.8038  0.7029 -1.0732
 6494TIP3   OH241040   0.045   4.227   1.309 -0.8705 -0.2391  0.0750
 6494TIP3    H141041   0.118   4.175   1.343 -1.9749 -2.1498 -0.2759
 6494TIP3    H241042   0.086   4.290   1.250  0.5570 -0.8274  0.3952
 6495TIP3   OH241043   0.863   3.766   7.373  0.2287  0.4185  0.2942
 6495TIP3    H141044   0.921   3.774   7.450  0.5181  0.4766  0.0720
 6495TIP3    H241045   0.907   3.817   7.305  0.7172 -0.8279 -0.3426
 6496TIP3   OH241046   1.040   1.241   0.746 -0.0534 -0.1070 -0.0138
 6496TIP3    H141047   1.049   1.158   0.700 -0.1306  0.1544 -0.5062
 6496TIP3    H241048   0.980   1.222   0.818 -1.0271 -0.1960 -0.8245
 6497TIP3   OH241049   5.283   3.431   2.628  0.1938 -0.2859  0.3316
 6497TIP3    H141050   5.290   3.341   2.658 -0.4704 -0.4908 -0.1221
 6497TIP3    H241051   5.275   3.483   2.709 -0.3965 -0.7207  0.5538
 6498TIP3   OH241052   6.604   4.720   0.446  0.4849 -0.1627  0.1289
 6498TIP3    H141053   6.555   4.801   0.435 -0.4523 -0.6620  0.5156
 6498TIP3    H241054   6.572   4.663   0.376  3.5550  0.8694 -2.3471
 6499TIP3   OH241055   1.096   2.060   0.781  0.1302 -0.0237 -0.3049
 6499TIP3    H141056   1.088   2.038   0.689  1.8820 -0.2353 -0.4349
 6499TIP3    H241057   1.020   2.019   0.822  0.6466 -2.0675 -1.2921
 6500TIP3   OH241058   6.742   3.360   0.634 -0.0764 -0.5731 -0.0295
 6500TIP3    H141059   6.760   3.428   0.698  0.4600 -1.6083  0.9527
 6500TIP3    H241060   6.647   3.365   0.620 -0.0806  0.1921  0.2338
 6501TIP3   OH241061   4.928   4.835   2.174 -0.0857  0.7590 -0.5791
 6501TIP3    H141062   4.907   4.749   2.213 -0.9117  1.1070 -0.2254
 6501TIP3    H241063   4.862   4.847   2.106  1.4586  0.0738 -2.2842
 6502TIP3   OH241064   6.588   5.313   8.373  0.0399 -0.2080 -0.3365
 6502TIP3    H141065   6.589   5.380   8.441  0.7718  0.2196 -0.7588
 6502TIP3    H241066   6.531   5.244   8.408  0.1642  0.1393  0.5700
 6503TIP3   OH241067   2.053   1.359   1.901 -0.3861 -0.0813  0.3431
 6503TIP3    H141068   2.108   1.433   1.877 -1.3362  0.5640  0.0819
 6503TIP3    H241069   2.114   1.293   1.935  0.4128  1.0256  1.1132
 6504TIP3   OH241070   4.836   0.994   8.489 -0.2967 -0.2883  0.1865
 6504TIP3    H141071   4.857   0.999   8.395 -2.6252 -0.3597 -0.4136
 6504TIP3    H241072   4.911   0.950   8.528  0.5091 -0.7593 -1.7328
 6505TIP3   OH241073   6.373   5.382   1.250  0.6078 -0.0607 -0.1853
 6505TIP3    H141074   6.392   5.410   1.340  1.5279  2.1435 -1.0019
 6505TIP3    H241075   6.460   5.367   1.212  0.2109 -1.3506 -0.6367
 6506TIP3   OH241076   6.075   5.031   2.151 -0.3061  0.1747 -0.3056
 6506TIP3    H141077   6.150   5.066   2.103 -1.0979  2.5037  0.0538
 6506TIP3    H241078   6.098   5.042   2.243 -0.1651 -1.2545 -0.1421
 6507TIP3   OH241079   5.574   3.038   2.693  0.2778  0.1729  0.1074
 6507TIP3    H141080   5.599   2.972   2.758 -3.3483 -0.2052  1.3690
 6507TIP3    H241081   5.494   3.077   2.729 -1.0032  1.1051 -3.3817
 6508TIP3   OH241082   0.123   2.477   1.613 -0.0346 -0.2091  0.1998
 6508TIP3    H141083   0.106   2.388   1.645 -1.0983 -0.7093 -1.6394
 6508TIP3    H241084   0.040   2.505   1.575 -0.3846  2.4884  2.6668
 6509TIP3   OH241085   0.451   3.128   0.899  0.8311 -0.2030 -0.2468
 6509TIP3    H141086   0.360   3.109   0.925  0.5998  0.9088 -0.1738
 6509TIP3    H241087   0.496   3.145   0.982  0.8706  0.1900 -0.3478
 6510TIP3   OH241088   4.147   3.543   8.451 -0.3264  0.1715 -0.6309
 6510TIP3    H141089   4.108   3.627   8.473 -0.7456  0.3072 -1.8407
 6510TIP3    H241090   4.115   3.483   8.519  0.2366  1.0350  0.4234
 6511TIP3   OH241091   6.395   4.489   7.893 -0.1919  0.2631 -0.0564
 6511TIP3    H141092   6.326   4.556   7.890 -0.6333 -0.2016 -1.9477
 6511TIP3    H241093   6.461   4.519   7.831  2.5344  1.8126  3.2440
 6512TIP3   OH241094   4.533   3.610   1.296 -0.1073  0.4709  0.2276
 6512TIP3    H141095   4.565   3.544   1.358 -0.6985  1.0545  1.1703
 6512TIP3    H241096   4.596   3.607   1.224 -0.4468 -1.5390 -0.0501
 6513TIP3   OH241097   1.568   5.748   2.126  0.4541  0.1317  0.2841
 6513TIP3    H141098   1.642   5.763   2.184  1.2138  1.7026 -1.0153
 6513TIP3    H241099   1.579   5.658   2.096  1.9813  0.4099 -0.0591
 6514TIP3   OH241100   3.812   5.885   0.027  0.2734 -0.2296  0.0256
 6514TIP3    H141101   3.742   5.859  -0.032  0.6582  0.2515 -0.6520
 6514TIP3    H241102   3.780   5.861   0.114 -0.8206  0.1740 -0.2531
 6515TIP3   OH241103   2.489   3.134   8.567 -0.6250  0.0960  0.4219
 6515TIP3    H141104   2.403   3.177   8.569  0.4732  2.3908  1.0886
 6515TIP3    H241105   2.488   3.085   8.485 -2.3381  0.5583  0.1112
 6516TIP3   OH241106   0.295   5.784   7.285  0.1045 -0.1111 -0.4751
 6516TIP3    H141107   0.304   5.821   7.197 -0.8770  0.6799 -0.2647
 6516TIP3    H241108   0.334   5.697   7.279  2.1286  0.7759 -1.1056
 6517TIP3   OH241109   3.855   2.858   8.230  0.5293  0.6463  0.1689
 6517TIP3    H141110   3.765   2.844   8.200  0.4353  2.9920 -0.8385
 6517TIP3    H241111   3.908   2.853   8.151  0.8866  2.1851  0.2841
 6518TIP3   OH241112   4.858   5.853   8.455 -0.9745  0.5928  0.3879
 6518TIP3    H141113   4.926   5.837   8.520  0.4569  1.9288 -0.6908
 6518TIP3    H241114   4.870   5.945   8.431 -2.2381  0.4615 -0.8755
 6519TIP3   OH241115   3.081   4.631   2.228  0.0568 -0.2741 -0.6349
 6519TIP3    H141116   3.038   4.562   2.277  1.0143 -0.2772  0.2243
 6519TIP3    H241117   3.042   4.712   2.261  0.6890 -0.2763  0.1458
 6520TIP3   OH241118   2.311   1.857   7.371  0.5089 -0.4413  0.1035
 6520TIP3    H141119   2.245   1.874   7.304  1.4236  0.1056 -0.7060
 6520TIP3    H241120   2.370   1.793   7.330  1.6279  0.6256 -0.0318
 6521TIP3   OH241121   3.768   2.378   1.535  0.0217  0.4137  0.1877
 6521TIP3    H141122   3.839   2.421   1.583  0.1186  1.7103 -1.0539
 6521TIP3    H241123   3.778   2.408   1.445 -2.9299  1.8860  0.2130
 6522TIP3   OH241124   5.712   1.455   7.900 -0.1326 -0.2991 -0.3562
 6522TIP3    H141125   5.721   1.376   7.954 -0.3955 -0.8804 -1.1335
 6522TIP3    H241126   5.689   1.524   7.962  0.8036 -0.6694  0.4430
 6523TIP3   OH241127   4.810   6.407   2.988  0.3252 -0.0946  0.1245
 6523TIP3    H141128   4.878   6.349   3.023  0.3940  0.3925  0.8194
 6523TIP3    H241129   4.858   6.483   2.955  0.0524  0.9308  1.9556
 6524TIP3   OH241130   2.058   2.577   6.989  0.0972  0.4595 -0.0057
 6524TIP3    H141131   2.035   2.538   7.073  1.6583  2.1857  1.2934
 6524TIP3    H241132   1.977   2.572   6.938 -0.9321 -0.4905  1.6276
 6525TIP3   OH241133   2.977   5.000   1.296 -0.6116 -0.1708  0.3325
 6525TIP3    H141134   3.033   5.016   1.221  0.4677 -1.9183  0.7155
 6525TIP3    H241135   3.035   5.006   1.372 -1.0232 -1.4878  0.7811
 6526TIP3   OH241136   4.310   5.323   7.432  0.1075 -0.2056  0.0430
 6526TIP3    H141137   4.330   5.416   7.438 -1.0314  0.0333  0.3767
 6526TIP3    H241138   4.395   5.280   7.439  0.9637  0.8545 -2.4006
 6527TIP3   OH241139   1.647   1.061   0.538 -0.5909 -0.4504  0.0084
 6527TIP3    H141140   1.678   1.101   0.620 -0.7001 -0.2745 -0.0351
 6527TIP3    H241141   1.580   0.999   0.566 -1.6054  0.5820 -0.0382
 6528TIP3   OH241142   1.743   2.936   1.671 -0.0758 -0.0953  0.8471
 6528TIP3    H141143   1.741   2.958   1.578 -1.1027 -0.1402  0.8469
 6528TIP3    H241144   1.797   3.005   1.710 -1.6925  1.3924  0.5691
 6529TIP3   OH241145   5.022   4.741   0.151  0.0885  0.1460  0.3631
 6529TIP3    H141146   5.050   4.676   0.215  1.0307 -0.3242 -0.4974
 6529TIP3    H241147   5.014   4.822   0.202 -2.3290 -0.8180  1.7133
 6530TIP3   OH241148   6.344   6.046   1.060 -0.2785 -0.1262 -0.4904
 6530TIP3    H141149   6.260   6.015   1.094  0.0914 -0.9036 -0.2709
 6530TIP3    H241150   6.368   5.982   0.994 -0.3153  0.6253 -1.2536
 6531TIP3   OH241151   2.424   5.350   8.526 -0.2163  0.2507 -0.3910
 6531TIP3    H141152   2.389   5.270   8.566  0.1807 -0.1616 -0.8369
 6531TIP3    H241153   2.518   5.347   8.546 -0.2141  0.6435 -0.3465
 6532TIP3   OH241154   0.782   1.448   0.977 -0.2479 -0.8259 -0.3524
 6532TIP3    H141155   0.852   1.383   0.983 -0.6376 -1.2566 -0.4188
 6532TIP3    H241156   0.782   1.491   1.062  2.6312  1.8452 -1.4884
 6533TIP3   OH241157   5.621   2.952   0.948  0.4710  0.1868 -0.1123
 6533TIP3    H141158   5.588   2.883   0.891 -0.8035 -0.7965  1.7244
 6533TIP3    H241159   5.696   2.989   0.901  0.5559 -1.7548 -1.5927
 6534TIP3   OH241160   2.901   0.089   1.389 -0.5505  0.5538  0.2699
 6534TIP3    H141161   2.862   0.032   1.322 -0.7434 -1.2340  1.8015
 6534TIP3    H241162   2.993   0.062   1.392  0.1316  2.5145 -1.0861
 6535TIP3   OH241163   6.006   4.223   7.614  0.0428  0.2841 -0.1968
 6535TIP3    H141164   6.053   4.198   7.693  0.0198  1.7612  0.3123
 6535TIP3    H241165   6.043   4.308   7.590  0.0998 -0.1521 -1.8291
 6536TIP3   OH241166   6.369   0.727   7.888 -0.2001  0.1085  0.0051
 6536TIP3    H141167   6.408   0.788   7.826 -1.1783  1.0328  0.2798
 6536TIP3    H241168   6.366   0.644   7.841 -3.1741  1.2938 -2.2056
 6537TIP3   OH241169   0.731   6.738   1.655  0.2922  0.0970 -0.5908
 6537TIP3    H141170   0.729   6.755   1.561 -0.1986  1.5492 -0.3456
 6537TIP3    H241171   0.672   6.803   1.693  0.1323 -0.7535  0.6901
 6538TIP3   OH241172   2.680   0.851   2.654  0.8545  0.0078  0.8831
 6538TIP3    H141173   2.607   0.909   2.631  1.6391  0.5798 -0.2580
 6538TIP3    H241174   2.666   0.831   2.747 -0.5865  0.3296  0.7653
 6539TIP3   OH241175   6.282   4.006   0.733  0.0459 -0.1424  0.3093
 6539TIP3    H141176   6.200   4.044   0.702 -0.2557 -0.2440  0.9669
 6539TIP3    H241177   6.337   4.000   0.655 -0.5928 -0.1289 -0.1460
 6540TIP3   OH241178   1.700   0.879   2.914 -1.0342 -0.0345  0.2730
 6540TIP3    H141179   1.722   0.969   2.934 -1.8004  0.2876 -0.2493
 6540TIP3    H241180   1.784   0.835   2.901 -0.6704  1.0762 -1.4375
 6541TIP3   OH241181   6.404   5.070   0.533 -0.3079  0.1459  0.4269
 6541TIP3    H141182   6.394   5.000   0.598  0.4615 -0.7220 -0.3734
 6541TIP3    H241183   6.456   5.137   0.579 -1.5377  0.4782  1.3871
 6542TIP3   OH241184   2.258   2.599   0.710  1.0855 -0.6254 -0.2291
 6542TIP3    H141185   2.241   2.666   0.776 -0.8177 -1.5486  0.2672
 6542TIP3    H241186   2.349   2.614   0.685  1.0509  1.4365  0.6535
 6543TIP3   OH241187   5.758   4.092   0.078 -0.0480 -0.8040 -0.2034
 6543TIP3    H141188   5.684   4.031   0.080 -0.7802  0.0631  0.0468
 6543TIP3    H241189   5.814   4.064   0.150 -0.4572 -1.0896  0.0108
 6544TIP3   OH241190   1.517   0.388   2.000  0.2035  0.3657 -0.1130
 6544TIP3    H141191   1.520   0.385   2.096 -3.1120 -0.0113  0.0733
 6544TIP3    H241192   1.471   0.469   1.980  0.6246  0.3010 -1.3897
 6545TIP3   OH241193   4.796   0.665   1.390  0.3467 -0.2449  0.3221
 6545TIP3    H141194   4.735   0.662   1.464 -0.9960 -0.2026 -0.7455
 6545TIP3    H241195   4.819   0.573   1.375  0.0206 -0.3263  0.3131
 6546TIP3   OH241196   5.211   0.369   0.695  0.2751  0.1120 -0.1696
 6546TIP3    H141197   5.262   0.309   0.640  1.3168  1.2309 -0.4710
 6546TIP3    H241198   5.186   0.316   0.771 -0.0161 -1.0812 -1.0619
 6547TIP3   OH241199   5.844   2.292   2.069 -1.0500 -0.3816  0.4659
 6547TIP3    H141200   5.939   2.302   2.078 -0.6733 -1.9891 -1.1363
 6547TIP3    H241201   5.810   2.312   2.156  0.8382 -0.5298  1.3004
 6548TIP3   OH241202   4.746   3.622   7.644  0.3435  0.1415 -0.2012
 6548TIP3    H141203   4.662   3.577   7.658 -0.5073  2.0294  1.2062
 6548TIP3    H241204   4.749   3.637   7.550 -0.3369 -0.9569 -0.4245
 6549TIP3   OH241205   1.637   0.664   7.949 -0.4570 -0.2930 -0.3926
 6549TIP3    H141206   1.583   0.592   7.980  0.5971  0.1771  2.9472
 6549TIP3    H241207   1.727   0.632   7.955 -0.0114  1.0286  0.5328
 6550TIP3   OH241208   2.903   4.104   0.923  0.3020 -0.3812  0.2892
 6550TIP3    H141209   2.906   4.098   1.018  1.1347 -0.5574  0.2554
 6550TIP3    H241210   2.946   4.187   0.902 -1.1792  0.3817  0.1306
 6551TIP3   OH241211   6.838   0.539   8.653  0.3769 -0.6816 -0.0111
 6551TIP3    H141212   6.850   0.524   8.747 -0.4944 -1.9560 -0.0751
 6551TIP3    H241213   6.914   0.496   8.613  1.9504  1.7602  0.1786
 6552TIP3   OH241214   6.130   0.733   8.178 -0.0445 -0.7115 -0.1532
 6552TIP3    H141215   6.095   0.723   8.266  1.5379 -1.2682  0.4557
 6552TIP3    H241216   6.125   0.827   8.161 -2.3417 -0.8290 -0.3644
 6553TIP3   OH241217   2.980   5.356   2.422 -0.0432  0.0473  0.0278
 6553TIP3    H141218   3.070   5.377   2.448  0.0791 -0.6133  0.1747
 6553TIP3    H241219   2.927   5.378   2.498 -0.0586  0.7794 -0.1869
 6554TIP3   OH241220   2.822   0.692   2.492  0.0007  0.4058  0.5833
 6554TIP3    H141221   2.790   0.744   2.566  0.8040  3.0575 -0.8011
 6554TIP3    H241222   2.910   0.665   2.518  0.2109  1.1769  0.6979
 6555TIP3   OH241223   6.678   1.505   7.837  0.9246 -0.1800 -0.4907
 6555TIP3    H141224   6.707   1.417   7.859  0.8861 -0.0564  0.0752
 6555TIP3    H241225   6.586   1.508   7.865  0.5127 -0.3970 -1.7780
 6556TIP3   OH241226   2.760   3.644   2.136 -0.6052  0.2497 -0.0394
 6556TIP3    H141227   2.807   3.574   2.182  0.3137  1.2092  0.5451
 6556TIP3    H241228   2.711   3.600   2.068 -0.5152 -1.0283  0.6984
 6557TIP3   OH241229   4.063   2.984   0.389 -0.0641  0.5137 -0.0834
 6557TIP3    H141230   4.017   3.068   0.396 -0.1204  0.4910 -0.1777
 6557TIP3    H241231   3.994   2.920   0.374 -0.0355  0.4286  0.1436
 6558TIP3   OH241232   0.384   1.087   2.258  0.2709  0.0595 -1.1904
 6558TIP3    H141233   0.419   1.064   2.344  0.4048  0.4213 -1.1476
 6558TIP3    H241234   0.391   1.006   2.207  0.8440  0.0272 -1.0735
 6559TIP3   OH241235   3.408   1.883   7.675  0.8459 -0.1673  0.3809
 6559TIP3    H141236   3.392   1.963   7.624 -0.1973 -0.8276 -0.3551
 6559TIP3    H241237   3.489   1.902   7.724  1.4131  0.8075 -0.8695
 6560TIP3   OH241238   2.035   5.501   1.110 -0.3870  0.5387 -0.3605
 6560TIP3    H141239   2.049   5.448   1.188  2.2021  2.0307  0.3244
 6560TIP3    H241240   2.097   5.467   1.045  1.0439  2.3453 -0.0333
 6561TIP3   OH241241   5.637   2.420   7.932 -0.4295  0.3236 -0.0861
 6561TIP3    H141242   5.650   2.405   7.838 -1.4708  1.8509 -0.5101
 6561TIP3    H241243   5.720   2.456   7.962  1.2869 -3.4989  0.4676
 6562TIP3   OH241244   5.834   1.975   0.309 -0.3759  0.0383 -0.0079
 6562TIP3    H141245   5.850   2.029   0.386 -0.1053 -1.2883  0.8942
 6562TIP3    H241246   5.885   2.017   0.240  0.2410  0.6417  0.7865
 6563TIP3   OH241247   3.356   5.193   8.306 -0.1172 -0.2416 -0.3553
 6563TIP3    H141248   3.427   5.201   8.370  0.6093  1.0478 -1.2807
 6563TIP3    H241249   3.392   5.229   8.225 -1.2700 -1.1490 -1.3134
 6564TIP3   OH241250   3.497   6.650   8.657 -0.2930 -0.5055 -0.0522
 6564TIP3    H141251   3.435   6.669   8.727 -1.7124 -1.3104 -1.0303
 6564TIP3    H241252   3.495   6.727   8.601  1.9402  0.7614  1.4857
 6565TIP3   OH241253   3.016   2.526   6.465  0.1266 -0.1096 -0.1581
 6565TIP3    H141254   3.067   2.469   6.523  0.6402  0.8641  0.3678
 6565TIP3    H241255   3.063   2.609   6.466 -0.2450  0.1385 -1.4352
 6566TIP3   OH241256   1.473   0.184   0.617 -0.0308  0.1262  0.8440
 6566TIP3    H141257   1.482   0.164   0.524  3.8811  1.8507  0.6683
 6566TIP3    H241258   1.481   0.099   0.661  0.0831 -0.4830 -0.3236
 6567TIP3   OH241259   6.358   0.226   0.610 -0.3815 -0.3690  0.4037
 6567TIP3    H141260   6.351   0.211   0.515 -0.8346  2.0127 -0.0151
 6567TIP3    H241261   6.363   0.138   0.648 -0.1841 -1.3965 -1.8177
 6568TIP3   OH241262   0.573   5.691   8.433  0.1698  0.5966  0.1126
 6568TIP3    H141263   0.624   5.627   8.383 -0.2848  0.6627 -0.4489
 6568TIP3    H241264   0.602   5.679   8.523 -0.2961 -0.7988  0.1110
 6569TIP3   OH241265   4.054   0.805   7.253 -0.2537  0.4075 -0.2542
 6569TIP3    H141266   4.038   0.766   7.339 -0.3132  0.3983 -0.2691
 6569TIP3    H241267   4.087   0.733   7.199 -0.1076  0.4396 -0.2077
 6570TIP3   OH241268   5.360   3.933   7.669  0.0701 -0.0191  0.1391
 6570TIP3    H141269   5.309   4.014   7.670  0.7362  0.4284 -0.5240
 6570TIP3    H241270   5.379   3.918   7.576 -0.0063 -0.9133  0.2646
 6571TIP3   OH241271   4.864   3.356   8.377 -0.1008 -0.2897  0.2011
 6571TIP3    H141272   4.943   3.366   8.325 -0.3531 -1.0583 -0.3482
 6571TIP3    H241273   4.830   3.270   8.352 -2.0249  0.7161 -0.8592
 6572TIP3   OH241274   6.800   0.592   0.601  0.0965  0.1003 -0.2467
 6572TIP3    H141275   6.844   0.540   0.669 -0.4531  2.4983  2.0908
 6572TIP3    H241276   6.715   0.549   0.590 -0.1846  0.2120  1.3140
 6573TIP3   OH241277   0.870   5.416   1.465  0.2126 -0.1308 -0.9037
 6573TIP3    H141278   0.810   5.490   1.474  0.2637  0.0897 -2.1167
 6573TIP3    H241279   0.828   5.345   1.512 -0.3683  0.3815 -0.6303
 6574TIP3   OH241280   5.056   0.684   7.854  0.0775  0.3581  0.1198
 6574TIP3    H141281   4.992   0.756   7.857 -2.1077 -1.2821 -2.5036
 6574TIP3    H241282   5.037   0.632   7.931 -2.0917 -0.2642 -0.7646
 6575TIP3   OH241283   5.173   2.589   2.750 -0.1727  0.4143  0.2118
 6575TIP3    H141284   5.092   2.587   2.699  1.1744  1.2724 -2.1517
 6575TIP3    H241285   5.235   2.537   2.697  1.5154  1.9709  0.5662
 6576TIP3   OH241286   3.674   6.283   8.646  0.0051  0.0314 -0.4185
 6576TIP3    H141287   3.729   6.350   8.686  0.5769  0.1997 -1.4457
 6576TIP3    H241288   3.633   6.326   8.571 -1.3156 -0.1790  0.1543
 6577TIP3   OH241289   1.370   2.818   7.915  0.4184 -0.2634 -0.0137
 6577TIP3    H141290   1.365   2.822   8.011  0.7417 -0.9894  0.0378
 6577TIP3    H241291   1.285   2.850   7.886  0.1521 -0.4518  0.5373
 6578TIP3   OH241292   6.638   1.667   0.525  0.4845  0.0300 -0.1605
 6578TIP3    H141293   6.608   1.636   0.440  0.5728 -1.0105  0.1707
 6578TIP3    H241294   6.563   1.654   0.583  0.3870  0.8334 -0.0872
 6579TIP3   OH241295   4.075   3.383   1.224 -0.2240 -0.1638  0.1917
 6579TIP3    H141296   4.128   3.323   1.277  0.0598 -1.7765 -1.8095
 6579TIP3    H241297   4.123   3.466   1.228  0.6697 -0.6914  1.0772
 6580TIP3   OH241298   1.223   4.988   1.087 -0.2234 -0.7274 -0.2084
 6580TIP3    H141299   1.284   5.040   1.139 -0.2918 -1.7222  0.9171
 6580TIP3    H241300   1.249   4.897   1.103 -0.3951 -1.0753 -1.7488
 6581TIP3   OH241301   6.716   6.845   7.952  0.1216  0.1401  0.4847
 6581TIP3    H141302   6.675   6.760   7.935 -1.3241  0.8138  0.4583
 6581TIP3    H241303   6.664   6.907   7.902  0.5282  1.1673  1.2978
 6582TIP3   OH241304   0.968   2.112   8.505 -0.5022  0.3996  0.1545
 6582TIP3    H141305   1.021   2.190   8.521  1.3156 -1.0807  1.7810
 6582TIP3    H241306   0.967   2.066   8.589 -2.8770 -0.5641 -0.3274
 6583TIP3   OH241307   4.194   2.648   1.723 -0.0893  0.0524 -0.0872
 6583TIP3    H141308   4.233   2.723   1.768 -0.9161  0.0478  0.6604
 6583TIP3    H241309   4.270   2.599   1.690  0.4700  1.1001 -0.4355
 6584TIP3   OH241310   6.753   1.718   1.192 -0.6243 -0.2204  0.2475
 6584TIP3    H141311   6.792   1.637   1.223 -0.1489  0.2640  0.9459
 6584TIP3    H241312   6.681   1.735   1.253 -1.0980 -0.4132 -0.2439
 6585TIP3   OH241313   1.354   5.511   8.221 -0.4175 -0.1889 -0.0158
 6585TIP3    H141314   1.386   5.443   8.162  0.0371 -1.1099  1.2336
 6585TIP3    H241315   1.285   5.556   8.172  1.5346  0.6851 -2.1400
 6586TIP3   OH241316   6.812   2.194   7.947 -0.4951  0.5212 -0.0118
 6586TIP3    H141317   6.820   2.285   7.917 -0.1913 -0.0410 -1.7471
 6586TIP3    H241318   6.722   2.170   7.926  0.3851 -0.6712 -3.0946
 6587TIP3   OH241319   1.471   4.069   1.154  0.0089  0.4522  0.5455
 6587TIP3    H141320   1.406   4.074   1.224 -0.1759 -2.1511  0.6721
 6587TIP3    H241321   1.478   4.158   1.121 -2.0769  1.1982  1.9209
 6588TIP3   OH241322   4.006   0.937   7.847 -0.3689 -0.3980 -0.4626
 6588TIP3    H141323   3.921   0.956   7.809 -1.0088 -2.0844  0.0084
 6588TIP3    H241324   3.994   0.947   7.941  0.3532  0.7027 -0.4667
 6589TIP3   OH241325   3.309   4.732   2.074 -0.4112  0.3157  0.0670
 6589TIP3    H141326   3.253   4.674   2.127 -1.3059 -0.1666 -1.3608
 6589TIP3    H241327   3.285   4.713   1.984  2.5749 -0.3884 -0.6777
 6590TIP3   OH241328   3.923   5.304   0.773 -0.6188  0.3146  0.2303
 6590TIP3    H141329   4.008   5.319   0.730  0.4170 -1.8049  1.3587
 6590TIP3    H241330   3.916   5.374   0.837  0.8987 -0.1184  0.9314
 6591TIP3   OH241331   0.836   1.377   7.753  0.4054 -0.1894  0.5742
 6591TIP3    H141332   0.784   1.338   7.683  1.0991 -0.4439  0.1851
 6591TIP3    H241333   0.772   1.414   7.813 -0.2185 -0.4706  0.0951
 6592TIP3   OH241334   4.038   5.466   1.625 -0.3411  0.2594  0.0447
 6592TIP3    H141335   4.034   5.415   1.544 -0.9001  2.2708 -1.2740
 6592TIP3    H241336   3.954   5.448   1.668 -0.3170 -0.3093 -0.1342
 6593TIP3   OH241337   2.111   3.215   2.093 -0.4725  0.1835 -0.1247
 6593TIP3    H141338   2.046   3.164   2.142 -0.0831 -0.7770 -0.5771
 6593TIP3    H241339   2.134   3.287   2.151 -1.0619 -0.1334  0.5209
 6594TIP3   OH241340   4.948   1.844   1.447  0.0877 -0.4148 -0.3203
 6594TIP3    H141341   5.004   1.901   1.395 -0.2645  0.5893  0.3733
 6594TIP3    H241342   5.005   1.773   1.474  1.3804  1.1611  1.3245
 6595TIP3   OH241343   6.638   2.494   8.563  0.0257 -0.2455 -0.1389
 6595TIP3    H141344   6.563   2.448   8.525  0.6308 -1.8649  0.5486
 6595TIP3    H241345   6.644   2.575   8.513 -2.2999  0.0425 -0.0879
 6596TIP3   OH241346   6.475   6.081   0.222 -0.0624  0.3140  0.3690
 6596TIP3    H141347   6.476   6.097   0.128 -0.7029 -0.4991  0.2115
 6596TIP3    H241348   6.427   6.157   0.258 -1.0725 -0.0711 -0.1192
 6597TIP3   OH241349   6.642   4.422   0.500 -0.2835 -0.3678  0.2745
 6597TIP3    H141350   6.694   4.485   0.450  0.9061  1.2282  3.2763
 6597TIP3    H241351   6.551   4.448   0.483 -0.0128 -0.6278 -1.8670
 6598TIP3   OH241352   4.629   2.349   1.571 -0.1697 -0.1773 -0.3266
 6598TIP3    H141353   4.692   2.319   1.637 -1.1129 -0.7143  0.3389
 6598TIP3    H241354   4.614   2.272   1.516 -0.7904 -0.2644 -0.0434
 6599TIP3   OH241355   2.265   4.004   2.421 -0.5847 -0.3664  0.3457
 6599TIP3    H141356   2.194   4.068   2.419 -0.7239 -0.5139  0.5978
 6599TIP3    H241357   2.261   3.966   2.509 -1.5262 -1.8917 -0.3253
 6600TIP3   OH241358   4.825   2.517   2.102 -0.1680 -0.0177  0.3197
 6600TIP3    H141359   4.736   2.551   2.098  0.3480  1.4168  0.6879
 6600TIP3    H241360   4.827   2.464   2.182 -0.9461 -0.8769 -0.2075
 6601TIP3   OH241361   4.499   6.629   6.998 -0.2827 -0.2920  0.4140
 6601TIP3    H141362   4.438   6.681   7.051 -0.5182 -2.1597  2.0870
 6601TIP3    H241363   4.573   6.612   7.057  0.2983 -0.9091 -0.4831
 6602TIP3   OH241364   1.757   1.051   0.263  0.2193 -0.0847  0.3363
 6602TIP3    H141365   1.727   1.052   0.354 -0.5664  2.2265  0.1285
 6602TIP3    H241366   1.850   1.074   0.268 -0.2621  2.0594  0.5184
 6603TIP3   OH241367   0.410   3.075   7.921  0.0095 -0.0414 -0.8373
 6603TIP3    H141368   0.390   3.167   7.942  1.7633  0.1516  0.1969
 6603TIP3    H241369   0.347   3.052   7.853 -0.6765  1.8303 -0.9034
 6604TIP3   OH241370   1.043   2.683   0.381  0.3127 -0.1762 -0.0954
 6604TIP3    H141371   1.135   2.661   0.370  0.1566 -0.7694 -0.3024
 6604TIP3    H241372   1.030   2.761   0.327  0.7963  0.1968  0.3203
 6605TIP3   OH241373   5.990   3.095   7.821  0.2985 -0.0161 -0.1364
 6605TIP3    H141374   6.030   3.182   7.820  0.8512 -0.2424 -2.1506
 6605TIP3    H241375   6.064   3.035   7.824 -0.0195 -0.4207 -0.2899
 6606TIP3   OH241376   6.731   3.479   2.712 -0.2766  0.1415  0.3333
 6606TIP3    H141377   6.637   3.496   2.719 -0.6956 -0.6406 -2.1254
 6606TIP3    H241378   6.771   3.566   2.708 -1.2065  0.5498 -1.1401
 6607TIP3   OH241379   6.870   1.194   8.472  0.3770  0.0840 -0.1824
 6607TIP3    H141380   6.844   1.225   8.559  0.5112 -0.5082  0.0747
 6607TIP3    H241381   6.798   1.219   8.414 -1.1306 -2.1124  0.6199
 6608TIP3   OH241382   2.396   4.540   2.119 -0.2591  0.3264 -0.8718
 6608TIP3    H141383   2.490   4.551   2.105  0.1412 -2.0370 -0.4518
 6608TIP3    H241384   2.365   4.499   2.038 -0.0243 -2.9860  0.5637
 6609TIP3   OH241385   6.547   4.711   2.629 -0.1596 -0.3191  0.7720
 6609TIP3    H141386   6.542   4.680   2.720 -1.0687 -0.0642  0.8222
 6609TIP3    H241387   6.531   4.805   2.634 -1.8089 -0.5340  0.2239
 6610TIP3   OH241388   1.150   1.978   7.280 -0.0771  0.4306 -0.0274
 6610TIP3    H141389   1.086   1.954   7.347 -0.2819  0.4476 -0.2162
 6610TIP3    H241390   1.225   2.010   7.330 -0.6243  1.4451  0.1908
 6611TIP3   OH241391   4.897   0.373   8.290 -0.0266  0.0505 -0.2671
 6611TIP3    H141392   4.922   0.428   8.364  0.2159  3.5479 -2.6660
 6611TIP3    H241393   4.977   0.328   8.264  0.1218 -0.3939  0.9427
 6612TIP3   OH241394   2.834   0.638   0.156  0.0941 -0.2049  0.1627
 6612TIP3    H141395   2.881   0.689   0.222 -1.5358  0.6327  0.7350
 6612TIP3    H241396   2.897   0.627   0.085  1.1930  0.7511  0.9479
 6613TIP3   OH241397   0.588   1.851   0.463  0.9953  0.0522  0.3785
 6613TIP3    H141398   0.533   1.805   0.400  0.1148 -0.5080  1.4963
 6613TIP3    H241399   0.671   1.804   0.462  1.0293  0.1211 -0.4278
 6614TIP3   OH241400   4.250   6.427   8.079 -0.1695 -0.1854  0.0807
 6614TIP3    H141401   4.221   6.342   8.046 -0.4606 -0.7903  1.7875
 6614TIP3    H241402   4.331   6.408   8.128  0.9588  0.8702 -1.2910
 6615TIP3   OH241403   6.347   4.864   7.770  0.1135 -0.0307 -0.2085
 6615TIP3    H141404   6.296   4.938   7.737 -0.9782 -1.5522 -2.1709
 6615TIP3    H241405   6.436   4.879   7.737 -0.3838 -0.1803 -1.6881
 6616TIP3   OH241406   1.988   1.882   8.300 -0.4422 -0.3291  0.1045
 6616TIP3    H141407   2.007   1.793   8.270 -0.1355 -0.6935  1.2963
 6616TIP3    H241408   1.935   1.920   8.231 -0.8141 -1.5379 -0.3019
 6617TIP3   OH241409   2.582   2.095   0.538 -0.4019  0.1101  0.7922
 6617TIP3    H141410   2.543   2.066   0.455  0.5359  1.6099 -0.2059
 6617TIP3    H241411   2.648   2.029   0.558  1.4202  1.2276 -1.2280
 6618TIP3   OH241412   6.611   0.082   7.717 -0.0237  1.2540  0.3466
 6618TIP3    H141413   6.523   0.078   7.756  0.4015 -0.3347  1.2574
 6618TIP3    H241414   6.597   0.060   7.625 -0.5125  0.0514  0.6806
 6619TIP3   OH241415   3.046   1.264   7.095  0.1792 -0.6826  0.3309
 6619TIP3    H141416   2.974   1.316   7.132  0.9306 -0.6240  1.8130
 6619TIP3    H241417   3.034   1.269   7.001  0.0984  2.0659  0.3982
 6620TIP3   OH241418   4.930   4.415   7.366  0.1548 -0.2060  0.5409
 6620TIP3    H141419   5.011   4.448   7.327  0.3380  0.3370  1.3472
 6620TIP3    H241420   4.955   4.334   7.409  0.1057 -0.4268  0.1582
 6621TIP3   OH241421   6.128   4.757   7.010  0.0809  0.3249 -0.0673
 6621TIP3    H141422   6.146   4.698   6.936 -0.0024 -0.0296  0.1933
 6621TIP3    H241423   6.087   4.834   6.970  1.2328  0.7104 -0.5506
 6622TIP3   OH241424   3.962   4.603   8.439 -0.2369 -0.0640  0.0216
 6622TIP3    H141425   4.035   4.638   8.387 -1.6305  1.1526 -1.2227
 6622TIP3    H241426   3.946   4.670   8.505  0.6990 -1.0175  1.2516
 6623TIP3   OH241427   5.016   2.553   1.888  0.1634 -0.2720  0.2179
 6623TIP3    H141428   5.085   2.534   1.952 -0.7418 -0.7464  1.0885
 6623TIP3    H241429   4.944   2.495   1.913 -1.5408  2.0344  0.9905
 6624TIP3   OH241430   0.323   0.021   7.356 -0.2724 -0.6508 -0.6797
 6624TIP3    H141431   0.377   0.038   7.280  1.2907 -0.7621  0.3547
 6624TIP3    H241432   0.339  -0.071   7.378  2.2805  0.2643  1.9192
 6625TIP3   OH241433   0.704   3.749   7.707 -0.7850 -0.7910 -0.1983
 6625TIP3    H141434   0.796   3.761   7.730 -0.3312 -0.6944 -1.9477
 6625TIP3    H241435   0.687   3.813   7.638 -2.3633 -0.3667  0.5173
 6626TIP3   OH241436   2.481   4.449   8.513 -0.0669  0.1269 -0.4499
 6626TIP3    H141437   2.531   4.521   8.548 -0.6669  0.6780 -0.6985
 6626TIP3    H241438   2.432   4.414   8.588 -1.3774  1.3266 -0.7097
 6627TIP3   OH241439   2.328   4.253   8.262  0.2432 -0.6366 -0.6744
 6627TIP3    H141440   2.390   4.322   8.284  1.8142 -1.9698 -0.7927
 6627TIP3    H241441   2.255   4.299   8.220 -0.3000  1.3394  2.1444
 6628TIP3   OH241442   2.434   1.068   0.008 -0.6254  0.0999 -0.7439
 6628TIP3    H141443   2.353   1.116   0.024  0.0914  1.1892 -0.2423
 6628TIP3    H241444   2.415   0.978   0.037 -1.0717  0.7777  1.2337
 6629TIP3   OH241445   5.605   0.955   8.249 -0.2852  0.3238 -0.3916
 6629TIP3    H141446   5.633   1.034   8.296 -1.1714  0.4354 -0.0350
 6629TIP3    H241447   5.619   0.976   8.157 -0.0780  0.7257 -0.2720
 6630TIP3   OH241448   2.275   5.300   7.978 -0.7612 -0.5455  0.0299
 6630TIP3    H141449   2.331   5.224   7.995 -1.4573 -1.2000 -0.5061
 6630TIP3    H241450   2.192   5.279   8.021 -1.1637 -0.3768 -0.6473
 6631TIP3   OH241451   2.902   3.836   1.330 -0.3722 -0.1686  0.8688
 6631TIP3    H141452   2.899   3.813   1.237  1.3892 -2.4086  1.2549
 6631TIP3    H241453   2.827   3.893   1.344 -1.2165 -0.5223 -1.7252
 6632TIP3   OH241454   4.698   2.640   7.399 -0.1226 -0.9501  0.1566
 6632TIP3    H141455   4.631   2.706   7.417  1.4061  0.3993  1.1791
 6632TIP3    H241456   4.684   2.616   7.307 -0.0744  1.6427 -0.6161
 6633TIP3   OH241457   2.370   5.304   0.421  0.2679  0.5275  0.0412
 6633TIP3    H141458   2.374   5.381   0.478  0.5240  0.8610 -0.4301
 6633TIP3    H241459   2.277   5.285   0.413  0.2505 -0.7335  2.1925
 6634TIP3   OH241460   3.810   0.286   1.035  0.0293  0.0625 -0.4996
 6634TIP3    H141461   3.735   0.315   1.087 -1.6229  0.4640 -2.9266
 6634TIP3    H241462   3.874   0.356   1.044  0.0931 -0.2137  1.5063
 6635TIP3   OH241463   1.774   3.645   0.117 -0.4964 -0.3391 -0.4658
 6635TIP3    H141464   1.806   3.715   0.174 -0.6159 -1.4411  1.0057
 6635TIP3    H241465   1.683   3.670   0.098 -1.4050 -1.3132  2.1853
 6636TIP3   OH241466   2.710   5.887   8.072 -0.1117 -0.1594 -0.0968
 6636TIP3    H141467   2.634   5.867   8.018 -0.7317 -0.4786  0.8630
 6636TIP3    H241468   2.784   5.882   8.012 -0.9478  1.4750 -1.3610
 6637TIP3   OH241469   2.458   5.496   0.647 -0.3728 -0.4390 -0.0987
 6637TIP3    H141470   2.517   5.553   0.696 -0.0635  0.4144 -1.4142
 6637TIP3    H241471   2.386   5.553   0.620  0.7373 -0.2232 -2.8185
 6638TIP3   OH241472   2.026   2.648   8.103 -0.2072 -0.1622  0.0326
 6638TIP3    H141473   1.945   2.669   8.055 -0.5760 -0.7219  0.3948
 6638TIP3    H241474   2.043   2.556   8.082 -0.3061 -0.3782  0.8768
 6639TIP3   OH241475   2.325   6.574   8.150  0.3058  0.4357  0.0707
 6639TIP3    H141476   2.371   6.559   8.067 -0.2359 -2.2238  0.1522
 6639TIP3    H241477   2.268   6.648   8.132 -0.0241 -0.2418 -2.0613
 6640TIP3   OH241478   5.830   2.819   0.676 -0.2672 -0.3179 -0.6087
 6640TIP3    H141479   5.858   2.891   0.733  2.5408 -0.5349 -1.5505
 6640TIP3    H241480   5.814   2.861   0.591  0.3314 -0.6358 -0.8836
 6641TIP3   OH241481   5.506   6.141   1.446 -0.1693  0.2088  0.2185
 6641TIP3    H141482   5.580   6.200   1.434  0.0938 -0.3956 -1.4092
 6641TIP3    H241483   5.545   6.059   1.474 -0.0021 -0.5274 -1.9460
 6642TIP3   OH241484   1.777   5.169   8.353 -0.5662 -0.1182 -0.3326
 6642TIP3    H141485   1.690   5.190   8.386 -0.2317  3.1394 -1.1440
 6642TIP3    H241486   1.835   5.233   8.395  1.0855 -0.8333 -1.4125
 6643TIP3   OH241487   4.275   1.901   8.236 -0.1195 -0.3616  0.1779
 6643TIP3    H141488   4.226   1.969   8.190 -1.2952 -0.3151  1.4496
 6643TIP3    H241489   4.312   1.847   8.166 -0.4223  0.6979 -0.8296
 6644TIP3   OH241490   4.917   4.324   1.188  0.2501  0.5753  0.4453
 6644TIP3    H141491   4.896   4.407   1.143 -0.3678 -0.5730 -1.4936
 6644TIP3    H241492   4.999   4.295   1.149 -0.2386 -0.3921  0.1058
 6645TIP3   OH241493   0.279   2.321   2.072 -0.3950  0.2196 -0.3098
 6645TIP3    H141494   0.354   2.378   2.090 -0.2453  0.0301 -0.3207
 6645TIP3    H241495   0.214   2.345   2.138 -0.1330  0.0446  0.0134
 6646TIP3   OH241496   1.158   3.068   3.039  0.1273 -0.1400 -1.0226
 6646TIP3    H141497   1.118   3.148   3.005 -1.7463 -0.7556 -0.3703
 6646TIP3    H241498   1.118   2.997   2.989 -1.3159 -0.9197  1.0924
 6647TIP3   OH241499   1.818   0.180   0.071  0.2945  0.0415 -0.0794
 6647TIP3    H141500   1.753   0.163   0.139 -1.2892  2.0599 -0.9735
 6647TIP3    H241501   1.803   0.112   0.005 -0.5594  0.1750 -0.0286
 6648TIP3   OH241502   0.983   3.677   0.813  0.0343 -0.4234 -0.2777
 6648TIP3    H141503   0.922   3.663   0.886 -3.0482  2.1108 -2.1033
 6648TIP3    H241504   0.983   3.594   0.766 -1.1465 -0.8439  0.4089
 6649TIP3   OH241505   2.522   3.804   7.734 -0.0389 -0.3334  0.0714
 6649TIP3    H141506   2.456   3.787   7.668 -0.0609  0.1210 -0.0286
 6649TIP3    H241507   2.557   3.718   7.757 -0.5984 -0.5634  0.0589
 6650TIP3   OH241508   0.660   5.590   1.404 -0.0831  0.1243  0.2030
 6650TIP3    H141509   0.659   5.538   1.324  0.2334  0.0142  0.2684
 6650TIP3    H241510   0.567   5.607   1.423 -0.1922 -0.4510  0.2007
 6651TIP3   OH241511   1.927   4.167   0.470 -0.7749  0.3296  0.4406
 6651TIP3    H141512   1.998   4.168   0.535 -0.5038 -0.9395  0.2050
 6651TIP3    H241513   1.970   4.187   0.387 -0.4401 -1.4651  0.1235
 6652TIP3   OH241514   0.834   4.846   0.026 -0.0407 -0.1728 -0.3198
 6652TIP3    H141515   0.819   4.766   0.076  0.0217 -0.0720 -0.1412
 6652TIP3    H241516   0.791   4.915   0.077  0.7260  0.0629  0.0200
 6653TIP3   OH241517   4.508   4.393   2.242 -0.0332 -0.3329 -0.4246
 6653TIP3    H141518   4.603   4.392   2.243  0.3178 -6.5396  0.8200
 6653TIP3    H241519   4.485   4.370   2.152 -0.4713  1.5081 -0.8156
 6654TIP3   OH241520   4.542   1.930   0.544  0.0979 -0.4236  0.1564
 6654TIP3    H141521   4.467   1.886   0.505 -0.8795  0.9792  0.3923
 6654TIP3    H241522   4.508   1.968   0.625  1.1585 -0.0593  0.4466
 6655TIP3   OH241523   1.882   0.848   2.321  0.1421 -0.2301 -0.6279
 6655TIP3    H141524   1.838   0.927   2.291  0.9702  0.3763 -0.2791
 6655TIP3    H241525   1.811   0.786   2.339 -0.7002  1.1899  1.3114
 6656TIP3   OH241526   3.356   2.987   2.144  0.1957  0.0077  0.0374
 6656TIP3    H141527   3.285   2.933   2.109  0.1548  0.0488  0.0567
 6656TIP3    H241528   3.341   2.987   2.239 -0.7067  1.3110 -0.0808
 6657TIP3   OH241529   5.893   6.098   3.040 -0.4521  0.2304  0.1058
 6657TIP3    H141530   5.963   6.050   2.995  1.4740  2.5155  0.5005
 6657TIP3    H241531   5.815   6.082   2.987  0.8211 -0.6387 -1.6020
 6658TIP3   OH241532   3.119   3.244   1.693  0.0622 -0.2777 -0.1532
 6658TIP3    H141533   3.094   3.178   1.628  1.8858 -1.6069  0.4311
 6658TIP3    H241534   3.208   3.268   1.670 -0.5090  1.9065 -0.2460
 6659TIP3   OH241535   5.061   0.642   0.953 -0.0681  0.2321  0.0284
 6659TIP3    H141536   5.066   0.579   1.025  0.5856 -0.5798 -0.7051
 6659TIP3    H241537   5.005   0.599   0.888 -1.4837  1.3859  0.4476
 6660TIP3   OH241538   6.812   0.682   1.225  0.0152 -0.1006 -0.5768
 6660TIP3    H141539   6.871   0.623   1.177  1.0767 -0.5607  1.2201
 6660TIP3    H241540   6.729   0.675   1.179  0.6211 -1.5698 -1.5127
 6661TIP3   OH241541   1.641   0.271   2.539 -0.1679 -0.2826 -0.2055
 6661TIP3    H141542   1.561   0.218   2.544 -0.5462 -0.0494 -2.6512
 6661TIP3    H241543   1.711   0.207   2.528 -0.2501 -0.4142  0.0392
 6662TIP3   OH241544   0.763   5.725   0.571 -0.2500  0.4147  0.5415
 6662TIP3    H141545   0.704   5.655   0.544  0.4356 -0.8747  2.2298
 6662TIP3    H241546   0.738   5.745   0.661  0.4085  1.4496  0.5173
 6663TIP3   OH241547   3.951   0.586   2.177 -0.3869  0.4789 -0.1768
 6663TIP3    H141548   3.902   0.650   2.124 -1.4340  0.5870  0.8655
 6663TIP3    H241549   3.900   0.579   2.258  0.9618  0.0220  0.6526
 6664TIP3   OH241550   5.881   2.170   1.745  0.0747 -0.2111  0.5171
 6664TIP3    H141551   5.905   2.116   1.670 -2.1673 -0.0636 -0.3992
 6664TIP3    H241552   5.934   2.136   1.817  1.2504 -1.3056 -0.7902
 6665TIP3   OH241553   2.984   0.407   2.531  0.2399  0.0698 -0.0219
 6665TIP3    H141554   2.991   0.474   2.463  1.5491  0.7909  0.7826
 6665TIP3    H241555   2.890   0.388   2.536 -0.1767  1.8913 -0.2389
 6666TIP3   OH241556   4.813   5.715   8.015 -0.1037 -0.0314  0.2345
 6666TIP3    H141557   4.790   5.647   8.078  0.0888  0.7957  1.2304
 6666TIP3    H241558   4.778   5.796   8.053  1.6472  0.7772  0.2412
 6667TIP3   OH241559   1.382   6.591   0.073  0.1265 -0.2292  0.0819
 6667TIP3    H141560   1.412   6.576  -0.017  1.9596 -0.9779  0.7662
 6667TIP3    H241561   1.408   6.512   0.120 -2.4530 -0.6495  0.9279
 6668TIP3   OH241562   5.641   3.040   1.826  0.2225 -0.6887  0.6650
 6668TIP3    H141563   5.662   3.013   1.915  2.2345 -2.3394 -0.2295
 6668TIP3    H241564   5.720   3.021   1.776 -1.2702 -0.9639 -1.7299
 6669TIP3   OH241565   3.773   4.467   0.384 -0.1320  0.6340  0.1623
 6669TIP3    H141566   3.775   4.375   0.357  3.2474  0.0272  1.9228
 6669TIP3    H241567   3.807   4.515   0.309  2.4503 -0.2169  0.6583
 6670TIP3   OH241568   2.700   1.141   0.237 -0.3290 -0.5654 -0.0279
 6670TIP3    H141569   2.787   1.142   0.195 -1.3331  1.4151 -2.3256
 6670TIP3    H241570   2.672   1.050   0.231  0.2509 -0.6596 -2.4162
 6671TIP3   OH241571   3.523   1.966   1.173 -0.2730 -0.4000 -0.3768
 6671TIP3    H141572   3.435   1.968   1.210  0.2533  2.6544  0.9817
 6671TIP3    H241573   3.577   2.014   1.235  2.0795 -0.8996 -1.8950
 6672TIP3   OH241574   2.864   4.438   0.270  0.2165 -0.1906 -0.2042
 6672TIP3    H141575   2.851   4.532   0.283 -1.1392 -0.6408  2.3223
 6672TIP3    H241576   2.929   4.414   0.337 -1.9549 -1.5515  1.5524
 6673TIP3   OH241577   0.605   4.049   0.599 -0.6340  0.1260 -0.1305
 6673TIP3    H141578   0.661   3.972   0.611 -1.0768 -0.2544 -0.4567
 6673TIP3    H241579   0.569   4.039   0.511 -0.7790  0.6526 -0.1332
 6674TIP3   OH241580   5.725   3.284   2.026  0.1084 -0.2445  0.7403
 6674TIP3    H141581   5.730   3.191   2.049  2.9985 -0.3338  0.1430
 6674TIP3    H241582   5.706   3.285   1.932  0.5003 -0.2690  0.6576
 6675TIP3   OH241583   5.285   3.339   1.857  0.3852 -0.0850 -0.3582
 6675TIP3    H141584   5.290   3.256   1.904 -0.4387  0.9335  1.7016
 6675TIP3    H241585   5.231   3.320   1.781  0.1703 -1.4333  0.0952
 6676TIP3   OH241586   1.449   0.589   7.733  0.6938 -0.5933  0.0220
 6676TIP3    H141587   1.525   0.604   7.789 -0.5218 -0.3801  1.6891
 6676TIP3    H241588   1.424   0.676   7.702 -0.3973 -0.3131  1.5989
 6677TIP3   OH241589   4.905   0.453   6.582  0.2180 -0.4049  0.6473
 6677TIP3    H141590   4.828   0.473   6.635  1.1974 -0.8017  2.2707
 6677TIP3    H241591   4.944   0.539   6.564 -0.8529 -0.1447 -0.6726
 6678TIP3   OH241592   5.467   3.938   2.827  0.2818 -0.4557  0.6980
 6678TIP3    H141593   5.377   3.905   2.836 -0.3453  1.4861  2.5122
 6678TIP3    H241594   5.457   4.018   2.775  1.1491 -0.8404 -0.0755
 6679TIP3   OH241595   2.618   6.081   0.884 -0.3881 -0.2619 -0.2883
 6679TIP3    H141596   2.554   6.037   0.829  0.5462 -1.3833 -0.5179
 6679TIP3    H241597   2.664   6.140   0.824 -0.2590 -0.5098 -0.4367
 6680TIP3   OH241598   6.681   4.153   1.398  0.3527  0.4336  0.7035
 6680TIP3    H141599   6.767   4.170   1.359 -0.6950  1.3977 -1.3627
 6680TIP3    H241600   6.625   4.223   1.363 -1.7411 -1.3492  0.3013
 6681TIP3   OH241601   4.973   2.740   2.098  0.4625 -0.0446  0.0116
 6681TIP3    H141602   4.964   2.686   2.177  1.4876 -0.3712 -0.0801
 6681TIP3    H241603   4.942   2.684   2.027 -0.4135  0.2317  0.1602
 6682TIP3   OH241604   5.981   6.566   1.602 -0.7375  0.0421 -0.3885
 6682TIP3    H141605   6.007   6.578   1.510  0.2092  0.4367 -0.0808
 6682TIP3    H241606   6.040   6.624   1.651 -2.4001  1.2004  0.3225
 6683TIP3   OH241607   4.347   3.446   7.141  0.0548  0.3195 -0.5817
 6683TIP3    H141608   4.282   3.516   7.133  1.1835  1.5530  0.6199
 6683TIP3    H241609   4.317   3.379   7.080 -1.6456  1.3880 -0.9894
 6684TIP3   OH241610   0.728   5.870   0.350  0.1962  0.3804 -0.4926
 6684TIP3    H141611   0.719   5.820   0.431 -0.7332 -0.9262 -1.3603
 6684TIP3    H241612   0.723   5.962   0.377 -2.1710 -0.0389  0.7425
 6685TIP3   OH241613   0.681   4.379   7.964 -0.1223  0.0450 -0.2812
 6685TIP3    H141614   0.754   4.408   7.909  0.6032 -2.5676 -0.8463
 6685TIP3    H241615   0.610   4.359   7.903 -0.7318  0.9247  0.1203
 6686TIP3   OH241616   3.473   5.616   0.767 -0.1168  0.7812  0.6598
 6686TIP3    H141617   3.564   5.616   0.737 -0.1490  0.2504  0.5388
 6686TIP3    H241618   3.478   5.628   0.862  0.1507 -0.4093  0.8117
 6687TIP3   OH241619   6.031   0.967   1.107  0.2559 -0.4292  0.4030
 6687TIP3    H141620   6.077   0.883   1.109 -0.2377 -0.7039  0.4176
 6687TIP3    H241621   5.999   0.973   1.017  1.2929  0.3012  0.0634
 6688TIP3   OH241622   0.060   2.564   0.475 -0.1491  0.2534 -0.3922
 6688TIP3    H141623   0.030   2.603   0.557 -0.0317 -1.0329  0.3047
 6688TIP3    H241624   0.144   2.607   0.457  0.7632 -0.7255  1.2123
 6689TIP3   OH241625   2.442   2.334   1.128 -0.7133 -0.4052  0.1071
 6689TIP3    H141626   2.533   2.342   1.157 -0.4894 -1.4654 -0.2771
 6689TIP3    H241627   2.395   2.301   1.204 -0.2428 -2.5608 -0.4786
 6690TIP3   OH241628   2.027   0.948   0.531 -0.2572 -0.0690 -0.8795
 6690TIP3    H141629   1.956   0.886   0.513 -0.2599 -1.0114  1.8358
 6690TIP3    H241630   2.106   0.893   0.535 -0.0988  0.2146  0.5138
 6691TIP3   OH241631   0.380   3.459   1.451  0.0321  0.5414  0.3495
 6691TIP3    H141632   0.353   3.415   1.532 -1.5473  1.2175  0.2248
 6691TIP3    H241633   0.342   3.547   1.458 -1.2317  0.2101 -1.6951
 6692TIP3   OH241634   5.643   3.748   6.966 -0.0165 -0.0475 -0.2665
 6692TIP3    H141635   5.563   3.705   6.997  0.6639 -0.0791  1.5593
 6692TIP3    H241636   5.663   3.704   6.883  0.2052 -2.7610  1.1086
 6693TIP3   OH241637   2.282   4.928   0.516  0.7460  0.3335  0.5401
 6693TIP3    H141638   2.347   4.999   0.519 -0.3826  1.4369 -0.1329
 6693TIP3    H241639   2.274   4.900   0.607  3.7843 -1.4161  0.4055
 6694TIP3   OH241640   3.337   4.884   7.692  0.2607 -0.0463 -0.4911
 6694TIP3    H141641   3.371   4.800   7.662  1.7997 -0.0292  1.0354
 6694TIP3    H241642   3.248   4.888   7.657  0.8208 -1.4102 -2.2282
 6695TIP3   OH241643   6.346   0.172   8.019  0.3865 -0.6780  0.1717
 6695TIP3    H141644   6.269   0.195   8.071  1.0215 -0.9595  1.2849
 6695TIP3    H241645   6.315   0.104   7.959 -0.3944 -0.2781  0.1099
 6696TIP3   OH241646   1.510   5.295   0.419  0.0224 -0.2672 -0.1286
 6696TIP3    H141647   1.582   5.291   0.355  1.9031 -1.5084  1.9221
 6696TIP3    H241648   1.538   5.363   0.481 -2.1102  1.4375 -0.9306
 6697TIP3   OH241649   1.502   6.772   1.927  0.2743 -0.3933 -0.4047
 6697TIP3    H141650   1.539   6.837   1.986  0.6769 -0.2245 -0.8406
 6697TIP3    H241651   1.414   6.805   1.907  0.9162  0.6811 -1.6121
 6698TIP3   OH241652   4.020   5.783   7.221  0.3623 -0.3995 -0.4726
 6698TIP3    H141653   3.949   5.734   7.263  0.3741 -1.8881 -2.0729
 6698TIP3    H241654   4.030   5.741   7.136  0.6096  2.2238 -1.8314
 6699TIP3   OH241655   6.225   3.063   8.032  0.0867  0.3202  0.0573
 6699TIP3    H141656   6.289   3.108   7.977 -0.8679 -0.2534 -1.6131
 6699TIP3    H241657   6.277   3.001   8.083  1.2325  2.1887  1.2733
 6700TIP3   OH241658   5.729   6.047   2.505 -0.3410 -0.2533  0.3105
 6700TIP3    H141659   5.822   6.047   2.529 -0.5760 -0.8274  1.2641
 6700TIP3    H241660   5.706   5.954   2.499 -1.3422 -0.1659  2.0952
 6701TIP3   OH241661   3.621   0.845   7.836  0.7091 -0.4482  0.7217
 6701TIP3    H141662   3.663   0.914   7.784 -1.2838  0.6417  0.4769
 6701TIP3    H241663   3.530   0.873   7.845 -0.3323 -3.3096  0.1738
 6702TIP3   OH241664   2.026   5.849   0.359 -0.7027 -0.2216  0.4909
 6702TIP3    H141665   2.048   5.902   0.436  1.3005  0.8220 -0.7150
 6702TIP3    H241666   1.970   5.907   0.307  0.8643  0.5099 -0.4646
 6703TIP3   OH241667   0.495   1.305   1.913  0.5667  0.0202  0.5766
 6703TIP3    H141668   0.523   1.315   2.004 -0.3616  0.7388  0.8041
 6703TIP3    H241669   0.503   1.394   1.876  1.2218 -0.3234 -0.1322
 6704TIP3   OH241670   6.515   4.556   1.201  0.2350 -0.3879  0.1237
 6704TIP3    H141671   6.582   4.512   1.254  1.8416  1.6272 -0.1045
 6704TIP3    H241672   6.479   4.487   1.146  1.9607 -1.5997  0.4227
 6705TIP3   OH241673   5.282   3.879   7.359  0.2745  0.1776 -0.3821
 6705TIP3    H141674   5.264   3.972   7.345  1.1194  0.1864 -1.5454
 6705TIP3    H241675   5.352   3.858   7.298  1.2025 -0.8635  0.9608
 6706TIP3   OH241676   3.633   6.311   0.335  0.0349 -0.3958 -0.2995
 6706TIP3    H141677   3.666   6.364   0.262 -1.6064  1.3551  0.1467
 6706TIP3    H241678   3.713   6.281   0.379  1.0491 -0.7856 -2.2786
 6707TIP3   OH241679   0.657   2.966   0.796 -0.0601 -0.2227 -0.8400
 6707TIP3    H141680   0.667   3.005   0.709 -0.5751 -0.5667 -1.0562
 6707TIP3    H241681   0.587   3.017   0.837  0.9321  0.6613 -0.2040
 6708TIP3   OH241682   1.413   6.042   2.553  0.5872  0.3855 -0.2308
 6708TIP3    H141683   1.396   6.135   2.571  0.6790  0.2685  0.5153
 6708TIP3    H241684   1.386   6.030   2.462 -1.3448  0.6957  0.2530
 6709TIP3   OH241685   6.337   3.654   0.598  0.4635  0.3764 -0.2517
 6709TIP3    H141686   6.249   3.633   0.566  0.4237 -0.8633  0.6130
 6709TIP3    H241687   6.325   3.671   0.691  0.9747  1.3993 -0.3569
 6710TIP3   OH241688   1.693   5.662   7.636  0.2988 -0.0473  0.3410
 6710TIP3    H141689   1.768   5.686   7.691  0.6206 -1.0624  0.3708
 6710TIP3    H241690   1.706   5.712   7.556  0.9265 -0.0785  0.4127
 6711TIP3   OH241691   4.487   3.239   1.290  0.0279  0.5014 -0.2764
 6711TIP3    H141692   4.536   3.157   1.280  0.7302  0.6343  1.6998
 6711TIP3    H241693   4.409   3.226   1.236  0.7265 -0.9736 -1.0024
 6712TIP3   OH241694   3.627   0.521   0.765  0.1006  0.0800  0.3520
 6712TIP3    H141695   3.604   0.612   0.782  0.2523 -0.0305  1.1911
 6712TIP3    H241696   3.565   0.470   0.816  1.3210 -0.2390  1.5981
 6713TIP3   OH241697   5.833   3.978   0.573  0.1012 -0.7042  0.7749
 6713TIP3    H141698   5.884   3.919   0.517  0.8106 -0.7790  1.4904
 6713TIP3    H241699   5.749   3.987   0.527  0.8201 -0.3961 -0.5458
 6714TIP3   OH241700   1.666   2.290   2.046 -0.7785 -0.0357 -0.0384
 6714TIP3    H141701   1.606   2.363   2.056 -1.8104 -0.8797  0.0795
 6714TIP3    H241702   1.611   2.212   2.052  0.6133 -0.9493  2.7955
 6715TIP3   OH241703   5.987   1.365   8.110  0.0062 -0.3239  0.2297
 6715TIP3    H141704   5.915   1.422   8.135 -0.6207 -1.2623  0.6125
 6715TIP3    H241705   5.948   1.278   8.102  0.9671 -0.7383 -0.1959
 6716TIP3   OH241706   4.185   6.256   8.441 -0.2197  0.1744  0.4230
 6716TIP3    H141707   4.218   6.232   8.354  1.2885  1.0346  0.7162
 6716TIP3    H241708   4.095   6.284   8.426 -0.4347 -1.0216 -0.6383
 6717TIP3   OH241709   0.715   3.269   2.141 -0.0699  0.2568  0.1761
 6717TIP3    H141710   0.706   3.315   2.057  0.6717  0.6380  0.3040
 6717TIP3    H241711   0.625   3.264   2.174 -0.6750 -1.6013 -1.5241
 6718TIP3   OH241712   1.071   2.729   1.966 -0.2661 -0.2262  0.4193
 6718TIP3    H141713   1.095   2.746   2.057  1.0221 -1.8774  0.4219
 6718TIP3    H241714   0.975   2.729   1.966 -0.2818  0.8507  1.5483
 6719TIP3   OH241715   2.307   4.344   6.757  0.1924 -0.4870  0.2807
 6719TIP3    H141716   2.371   4.412   6.736 -2.5195  1.6784 -1.7575
 6719TIP3    H241717   2.284   4.360   6.849 -0.6181  1.6664 -0.2436
 6720TIP3   OH241718   5.070   6.448   2.384 -0.2023 -0.8309  0.2332
 6720TIP3    H141719   5.124   6.408   2.315  0.3330  0.2579  0.0033
 6720TIP3    H241720   5.127   6.452   2.460 -0.0909 -0.0777  0.1155
 6721TIP3   OH241721   5.597   2.654   7.671  0.2570 -0.2955 -0.3356
 6721TIP3    H141722   5.677   2.701   7.693  0.3017  0.0382 -1.1790
 6721TIP3    H241723   5.551   2.645   7.754  1.2757 -0.7022  0.1915
 6722TIP3   OH241724   3.435   6.265   2.344 -0.3449  0.4076  0.0874
 6722TIP3    H141725   3.491   6.276   2.267  0.2693  0.8342  0.5902
 6722TIP3    H241726   3.357   6.316   2.324 -0.0788  0.7314 -0.1491
 6723TIP3   OH241727   2.177   3.148   0.975 -0.3569  0.0999  0.1742
 6723TIP3    H141728   2.165   3.219   1.038  1.5767 -1.6073  2.7177
 6723TIP3    H241729   2.106   3.087   0.994 -0.4736  0.1410 -0.1370
 6724TIP3   OH241730   6.656   3.278   0.112 -0.3100  0.5110  0.4062
 6724TIP3    H141731   6.714   3.335   0.162  1.9101 -0.1921 -1.2201
 6724TIP3    H241732   6.618   3.220   0.178  3.3539 -1.1423  1.3619
 6725TIP3   OH241733   5.729   3.966   7.808  0.7331  0.8715  0.0539
 6725TIP3    H141734   5.808   3.922   7.839 -0.6034 -2.3149 -0.7219
 6725TIP3    H241735   5.720   3.939   7.717 -1.6181  0.5071  0.3276
 6726TIP3   OH241736   4.097   2.815   6.586 -0.6299 -0.1485  0.1665
 6726TIP3    H141737   4.044   2.815   6.507 -1.0158 -1.2087  0.4056
 6726TIP3    H241738   4.096   2.724   6.616  2.3596 -0.5060 -0.4960
 6727TIP3   OH241739   3.812   3.735   0.620  0.5555 -0.2568  0.5177
 6727TIP3    H141740   3.825   3.775   0.706 -0.7041 -1.2704  1.2233
 6727TIP3    H241741   3.813   3.808   0.559 -1.6343  0.9177  1.7607
 6728TIP3   OH241742   1.406   3.047   1.947 -0.1479  0.2566  0.1090
 6728TIP3    H141743   1.332   2.995   1.980 -2.0393  1.5682 -1.8127
 6728TIP3    H241744   1.446   2.993   1.880 -1.4291  0.7777 -1.1142
 6729TIP3   OH241745   0.726   4.200   1.967  0.7217 -0.2444 -0.1167
 6729TIP3    H141746   0.674   4.278   1.950 -0.2060 -0.6781  0.5809
 6729TIP3    H241747   0.686   4.132   1.912  0.4444 -0.6114  0.5166
 6730TIP3   OH241748   2.328   5.944   8.493  1.0616 -0.0314  0.2940
 6730TIP3    H141749   2.316   6.038   8.508 -0.9591 -0.2347  0.1536
 6730TIP3    H241750   2.359   5.938   8.403 -0.2211  0.4411 -0.1988
 6731TIP3   OH241751   2.146   6.080   2.354 -0.3591  0.2096 -0.2026
 6731TIP3    H141752   2.227   6.124   2.326 -1.2192  0.9683 -1.6353
 6731TIP3    H241753   2.099   6.063   2.272 -0.0929 -3.4695  0.2829
 6732TIP3   OH241754   6.665   5.527   1.481 -0.2154  0.3380 -0.0889
 6732TIP3    H141755   6.606   5.588   1.437 -0.3449 -0.2050 -0.6853
 6732TIP3    H241756   6.652   5.543   1.574 -1.1236  0.3887 -0.2241
 6733TIP3   OH241757   4.071   6.332   2.548 -0.0483 -0.3555 -0.5465
 6733TIP3    H141758   4.020   6.312   2.469 -2.2283 -0.4686  0.7964
 6733TIP3    H241759   4.011   6.385   2.601  0.4930 -2.1034  1.9698
 6734TIP3   OH241760   1.413   1.844   2.327 -0.7178  0.4006 -0.2978
 6734TIP3    H141761   1.391   1.907   2.396  1.1393  1.2355 -0.4050
 6734TIP3    H241762   1.449   1.769   2.374 -1.3528  0.1085 -0.2662
 6735TIP3   OH241763   6.647   3.276   2.866 -0.1645 -0.4893  0.2395
 6735TIP3    H141764   6.649   3.363   2.827 -0.1731 -0.4243  0.3831
 6735TIP3    H241765   6.701   3.222   2.809  0.2222 -0.2821  0.4098
 6736TIP3   OH241766   5.729   3.212   7.542 -0.0027  0.2382 -0.8512
 6736TIP3    H141767   5.666   3.255   7.485 -1.8456 -3.4525 -1.9650
 6736TIP3    H241768   5.700   3.234   7.631 -1.0672  0.9697 -1.3608
 6737TIP3   OH241769   3.727   5.464   8.420 -0.8426  0.4610 -0.7407
 6737TIP3    H141770   3.777   5.546   8.419  0.0719  0.0002  1.4195
 6737TIP3    H241771   3.793   5.396   8.431 -1.7847 -0.3543 -0.0120
 6738TIP3   OH241772   6.579   5.307   8.103  0.2076 -0.5787  0.3652
 6738TIP3    H141773   6.580   5.323   8.197 -0.9365 -1.0697  0.4774
 6738TIP3    H241774   6.567   5.394   8.064  2.5108 -0.1032  0.5486
 6739TIP3   OH241775   0.628   4.752   2.568 -0.0918 -0.3376  0.0341
 6739TIP3    H141776   0.665   4.765   2.655  1.6637 -0.7552 -0.6146
 6739TIP3    H241777   0.649   4.832   2.520  0.9869 -1.0256 -0.6739
 6740TIP3   OH241778   1.159   0.194   2.432 -0.2426  0.1314  0.4901
 6740TIP3    H141779   1.202   0.109   2.419 -3.5711 -1.5149 -1.0035
 6740TIP3    H241780   1.148   0.200   2.527  0.9962 -0.5422  0.7095
 6741TIP3   OH241781   5.187   3.215   1.137  0.4090 -0.4212 -0.2170
 6741TIP3    H141782   5.250   3.281   1.108 -1.9408  1.1445 -2.2642
 6741TIP3    H241783   5.130   3.263   1.197 -1.2190 -0.5245 -1.5930
 6742TIP3   OH241784   3.171   4.726   0.816 -0.0564 -0.0601  0.2975
 6742TIP3    H141785   3.105   4.687   0.872  0.5769 -1.6484 -0.0179
 6742TIP3    H241786   3.254   4.691   0.847  0.8461  2.8637  1.4944
 6743TIP3   OH241787   5.184   0.651   0.715 -0.1541  0.0045  0.2832
 6743TIP3    H141788   5.196   0.556   0.714 -0.5891 -0.0516 -0.0791
 6743TIP3    H241789   5.119   0.667   0.783  0.3187  0.0994  0.7206
 6744TIP3   OH241790   2.778   2.118   7.972  0.2772 -0.0617  0.0225
 6744TIP3    H141791   2.779   2.213   7.975 -0.2132  0.0002 -1.2454
 6744TIP3    H241792   2.844   2.095   7.907  2.2350 -0.7376  2.1093
 6745TIP3   OH241793   6.875   0.254   0.956 -0.0212 -0.2722 -0.3964
 6745TIP3    H141794   6.913   0.188   1.015 -1.0527  0.4479  1.1559
 6745TIP3    H241795   6.790   0.218   0.931  1.4632 -1.7893 -3.6978
 6746TIP3   OH241796   0.349   3.360   8.666  0.0121  1.0265 -0.0534
 6746TIP3    H141797   0.290   3.364   8.591  0.7450  0.4975 -0.6739
 6746TIP3    H241798   0.321   3.283   8.715  1.1013 -0.1226 -1.1623
 6747TIP3   OH241799   3.858   0.802   0.703 -0.1885 -0.0533 -0.0064
 6747TIP3    H141800   3.942   0.830   0.667 -0.2607  0.2480  0.0533
 6747TIP3    H241801   3.871   0.710   0.725  0.5292  0.3209  1.2005
 6748TIP3   OH241802   1.465   5.587   0.872  0.6291  0.0377  0.2689
 6748TIP3    H141803   1.410   5.626   0.803  0.4830  0.2318  0.4941
 6748TIP3    H241804   1.419   5.507   0.897 -0.4936  1.0698  1.6846
 6749TIP3   OH241805   2.430   2.177   0.069 -0.6436  0.1988  0.2798
 6749TIP3    H141806   2.471   2.240   0.010  0.7763 -0.2760  0.7301
 6749TIP3    H241807   2.344   2.161   0.031  0.4781 -0.6351 -2.0702
 6750TIP3   OH241808   5.016   4.091   0.718 -0.2824  0.1987  0.0716
 6750TIP3    H141809   4.995   4.184   0.718 -0.9456  0.0496 -0.3689
 6750TIP3    H241810   4.935   4.047   0.743  0.2233 -0.2288  1.0458
 6751TIP3   OH241811   6.365   0.870   0.139 -0.0357  0.2814  0.1974
 6751TIP3    H141812   6.428   0.836   0.203 -0.0624  1.2682  0.7658
 6751TIP3    H241813   6.396   0.958   0.119 -0.3306  0.1768 -0.7686
 6752TIP3   OH241814   2.191   2.808   6.904 -0.1985  0.1040  0.7096
 6752TIP3    H141815   2.225   2.777   6.820 -0.7376  1.7531 -0.1577
 6752TIP3    H241816   2.142   2.733   6.939 -0.7732 -0.3234 -0.9130
 6753TIP3   OH241817   3.681   5.023   1.699 -0.0155  0.2588 -0.7368
 6753TIP3    H141818   3.703   5.115   1.712 -0.1295  0.3121 -0.9261
 6753TIP3    H241819   3.624   5.001   1.773 -0.5421  0.5221 -1.0622
 6754TIP3   OH241820   5.256   0.288   7.787  0.4096 -0.2316  0.1369
 6754TIP3    H141821   5.211   0.297   7.871  1.0237 -0.4569  0.4910
 6754TIP3    H241822   5.209   0.347   7.729 -0.7596 -0.9289  0.3376
 6755TIP3   OH241823   2.729   3.272   8.230 -0.1534  0.4678 -0.2149
 6755TIP3    H141824   2.653   3.214   8.222  0.9709 -0.8660 -1.7298
 6755TIP3    H241825   2.692   3.360   8.225 -1.7444 -0.0954  0.7193
 6756TIP3   OH241826   2.434   6.877   2.280 -0.5354  0.2805  0.0497
 6756TIP3    H141827   2.456   6.836   2.196 -0.5893  0.0632  0.1432
 6756TIP3    H241828   2.371   6.946   2.257  1.0891  1.6922 -0.3861
 6757TIP3   OH241829   3.008   4.529   7.528 -0.3536  0.1019  0.3596
 6757TIP3    H141830   3.029   4.438   7.509  1.9720  0.6320  0.1030
 6757TIP3    H241831   3.063   4.580   7.469  0.7343  1.7030  2.6007
 6758TIP3   OH241832   3.604   4.319   1.377  0.1325 -0.0927  0.0961
 6758TIP3    H141833   3.695   4.341   1.396  0.1508  1.0440 -1.2435
 6758TIP3    H241834   3.560   4.327   1.462  0.8940  1.3234  0.3902
 6759TIP3   OH241835   4.823   2.126   8.598  0.0791 -0.1515 -0.1838
 6759TIP3    H141836   4.875   2.191   8.646 -2.2697  1.0577  0.8820
 6759TIP3    H241837   4.825   2.048   8.654  0.4111  0.0025  0.0250
 6760TIP3   OH241838   5.068   2.369   6.972 -0.0502 -0.7538 -0.3465
 6760TIP3    H141839   5.039   2.451   6.931  0.7985 -0.2183  0.1057
 6760TIP3    H241840   5.001   2.351   7.039 -1.6855 -1.8558 -2.1430
 6761TIP3   OH241841   5.302   2.536   7.327  0.2847 -0.0679 -0.3565
 6761TIP3    H141842   5.260   2.470   7.382 -1.6728  0.5332 -1.0404
 6761TIP3    H241843   5.350   2.485   7.261  1.3609 -0.7792  0.9197
 6762TIP3   OH241844   3.354   5.091   0.850 -0.2361  0.0095  0.5017
 6762TIP3    H141845   3.342   5.181   0.881  0.6332  0.2207  0.2569
 6762TIP3    H241846   3.308   5.088   0.766 -2.4756 -0.5227  1.6486
 6763TIP3   OH241847   4.295   1.350   8.625 -0.7678 -0.2148 -0.3484
 6763TIP3    H141848   4.309   1.310   8.539  2.0116 -0.9977  0.3383
 6763TIP3    H241849   4.246   1.430   8.607  2.3798  1.3293 -3.1707
 6764TIP3   OH241850   0.055   4.592   0.679  0.2946 -0.3151 -0.2530
 6764TIP3    H141851   0.128   4.654   0.684  0.2430 -0.1546 -1.1719
 6764TIP3    H241852   0.079   4.533   0.607 -1.0220  0.4958 -1.4160
 6765TIP3   OH241853   6.347   5.487   7.325 -0.4562  0.7425 -0.1619
 6765TIP3    H141854   6.362   5.562   7.268 -0.7346 -0.0949 -1.3683
 6765TIP3    H241855   6.304   5.422   7.269 -1.0184  0.0064  1.0810
 6766TIP3   OH241856   3.703   2.764   0.335  0.8104  0.5246  0.0498
 6766TIP3    H141857   3.793   2.737   0.347  0.7309  0.9544  1.9334
 6766TIP3    H241858   3.707   2.835   0.270  1.5805 -0.5565 -1.1308
 6767TIP3   OH241859   5.379   4.574   7.643  0.6159  0.2320  0.0246
 6767TIP3    H141860   5.304   4.552   7.699  0.7711 -0.5256 -0.0541
 6767TIP3    H241861   5.341   4.582   7.555  0.7472 -0.9823 -0.1563
 6768TIP3   OH241862   6.536   6.414   1.499  0.2427 -0.2540  0.0079
 6768TIP3    H141863   6.519   6.384   1.589  1.3479  2.1768  1.1167
 6768TIP3    H241864   6.623   6.380   1.479 -0.1679 -1.1427 -0.3536
 6769TIP3   OH241865   3.835   4.580   0.158  0.0222  0.2115 -0.1802
 6769TIP3    H141866   3.830   4.673   0.179  1.6537  0.1736  0.4496
 6769TIP3    H241867   3.927   4.556   0.169 -0.1214 -1.2072 -1.5291
 6770TIP3   OH241868   5.345   5.020   0.255 -0.1900 -0.2632  0.3888
 6770TIP3    H141869   5.257   5.019   0.292  0.4994  0.6179  2.1315
 6770TIP3    H241870   5.339   4.963   0.178 -2.2385 -0.3074  0.5304
 6771TIP3   OH241871   0.158   1.915   1.440 -0.1431 -1.0626  0.1416
 6771TIP3    H141872   0.219   1.871   1.382 -0.6818 -1.0844 -0.4189
 6771TIP3    H241873   0.102   1.966   1.382  0.2460  0.0971  0.7476
 6772TIP3   OH241874   6.491   3.540   2.784 -0.2729 -0.2193 -0.1079
 6772TIP3    H141875   6.459   3.620   2.825 -2.7700 -0.8972 -0.5727
 6772TIP3    H241876   6.415   3.506   2.735  1.4018 -1.5906 -1.9135
 6773TIP3   OH241877   3.156   3.311   7.059  0.3032  0.1733  0.0987
 6773TIP3    H141878   3.229   3.270   7.105 -0.1922  1.7241  2.4644
 6773TIP3    H241879   3.192   3.394   7.026  0.3568 -0.4264 -1.4528
 6774TIP3   OH241880   2.682   3.154   1.424  0.1678  0.8038 -0.3846
 6774TIP3    H141881   2.635   3.090   1.369  2.6314 -1.8918  0.3982
 6774TIP3    H241882   2.617   3.183   1.487 -0.5842 -2.9992  0.8552
 6775TIP3   OH241883   4.733   0.002   8.390  0.5003 -0.2775  0.0952
 6775TIP3    H141884   4.768   0.002   8.479  1.4550 -1.2683 -0.2637
 6775TIP3    H241885   4.679   0.081   8.386  0.8931  0.0825  1.3745
 6776TIP3   OH241886   3.916   4.559   0.596 -0.6765  0.4376  0.4655
 6776TIP3    H141887   3.868   4.604   0.665 -0.8252  1.1625 -0.0991
 6776TIP3    H241888   3.849   4.513   0.545 -0.4237 -1.3731  1.6935
 6777TIP3   OH241889   5.863   1.266   8.520  0.7942  0.2533  0.7503
 6777TIP3    H141890   5.876   1.225   8.435  2.1421  0.4777  0.8352
 6777TIP3    H241891   5.915   1.346   8.517  1.2782  0.0105  1.9478
 6778TIP3   OH241892   5.073   5.619   1.970 -0.1166 -0.1906  0.1316
 6778TIP3    H141893   5.053   5.537   2.015 -0.0620 -0.9165 -1.1069
 6778TIP3    H241894   5.096   5.592   1.881  2.1175  0.9765  0.2762
 6779TIP3   OH241895   3.708   2.111   2.003  0.6149  0.7722  0.2109
 6779TIP3    H141896   3.801   2.112   1.982  0.8283 -0.1829  1.0082
 6779TIP3    H241897   3.705   2.085   2.095 -0.4277  1.1708  0.3006
 6780TIP3   OH241898   3.844   6.170   7.725  0.5186 -0.4864  0.4474
 6780TIP3    H141899   3.884   6.139   7.807 -0.3878  0.7091  1.3866
 6780TIP3    H241900   3.750   6.158   7.739  0.4042 -1.3702 -0.9138
 6781TIP3   OH241901   6.100   4.097   6.755 -0.0073  0.7195 -0.1960
 6781TIP3    H141902   6.111   4.027   6.691  0.1061  0.5401  0.0149
 6781TIP3    H241903   6.189   4.113   6.788 -0.1608  0.2709  0.4725
 6782TIP3   OH241904   2.867   3.028   2.397 -0.5151 -0.1661 -0.4948
 6782TIP3    H141905   2.949   3.063   2.364  0.2470  0.8271  2.2005
 6782TIP3    H241906   2.892   2.957   2.456 -1.5859 -0.0111  0.1874
 6783TIP3   OH241907   5.957   1.992   7.407  0.0499 -0.1346  0.1112
 6783TIP3    H141908   5.914   1.975   7.491 -1.1872  2.1256 -0.0057
 6783TIP3    H241909   5.940   1.913   7.356 -1.9580 -0.2760  0.9011
 6784TIP3   OH241910   0.454   3.221   2.331  0.0054  0.1704  0.3076
 6784TIP3    H141911   0.409   3.273   2.398 -0.6525 -0.2297  0.1851
 6784TIP3    H241912   0.385   3.167   2.292  0.3287  0.5721 -0.8670
 6785TIP3   OH241913   2.500   1.012   0.702  0.0895  0.1832  0.3452
 6785TIP3    H141914   2.524   1.058   0.622 -0.0584  1.4900  1.0371
 6785TIP3    H241915   2.405   1.003   0.696  0.0987  0.1170  0.2935
 6786TIP3   OH241916   5.885   1.931   1.967 -0.6363 -0.0710  0.8734
 6786TIP3    H141917   5.865   1.890   2.052  1.6267 -0.5170  1.2762
 6786TIP3    H241918   5.980   1.945   1.970 -0.5623  0.2553 -1.4485
 6787TIP3   OH241919   4.008   0.236   1.652 -0.1675 -0.2254 -0.8276
 6787TIP3    H141920   3.956   0.236   1.571 -0.0706 -2.7876 -0.9748
 6787TIP3    H241921   4.094   0.204   1.625  0.4031  0.5530  0.0258
 6788TIP3   OH241922   0.476   0.701   1.575  0.6422 -0.2421  0.6660
 6788TIP3    H141923   0.532   0.778   1.583 -1.9928  2.0910 -1.3328
 6788TIP3    H241924   0.532   0.635   1.533  2.1980  1.5791 -0.2712
 6789TIP3   OH241925   4.209   3.559   7.834  0.4154  0.1874 -0.5223
 6789TIP3    H141926   4.154   3.491   7.873  0.1972  0.1826 -0.8409
 6789TIP3    H241927   4.176   3.569   7.745  1.0172  0.0898 -0.7604
 6790TIP3   OH241928   1.796   2.573   6.913  0.4923  0.1117 -0.3714
 6790TIP3    H141929   1.723   2.593   6.972  0.6422 -1.4738  0.3781
 6790TIP3    H241930   1.757   2.518   6.845  1.1293 -1.5051  0.5242
 6791TIP3   OH241931   4.308   3.938   7.803  0.0781  0.3597  0.0230
 6791TIP3    H141932   4.314   3.976   7.715 -2.5999  0.0837 -0.3800
 6791TIP3    H241933   4.228   3.885   7.800 -0.5699  1.0082  2.8571
 6792TIP3   OH241934   2.891   5.125   8.663  0.4714  0.0217 -0.1728
 6792TIP3    H141935   2.948   5.087   8.730 -1.2059 -1.0031  0.7433
 6792TIP3    H241936   2.923   5.214   8.651 -0.7287  1.1977  3.9655
 6793TIP3   OH241937   2.649   4.167   1.539  0.1271 -0.1105 -0.6407
 6793TIP3    H141938   2.744   4.159   1.533  0.0943 -1.5552  0.3543
 6793TIP3    H241939   2.634   4.211   1.622 -0.0973 -0.7764 -0.3237
 6794TIP3   OH241940   2.722   1.547   0.411  0.1640  0.0531 -0.1771
 6794TIP3    H141941   2.681   1.505   0.335  1.4203 -1.3041 -0.1652
 6794TIP3    H241942   2.666   1.621   0.432 -1.1867 -0.6112 -1.3238
 6795TIP3   OH241943   0.254   2.593   1.044 -0.1227 -0.1046 -0.3261
 6795TIP3    H141944   0.234   2.659   1.111 -1.6863 -1.2105  0.3489
 6795TIP3    H241945   0.348   2.603   1.029  0.4345 -0.1919  2.4850
 6796TIP3   OH241946   0.809   4.221   2.396 -0.2366 -0.3485 -0.3690
 6796TIP3    H141947   0.800   4.287   2.327  0.6047  1.0818  0.8391
 6796TIP3    H241948   0.878   4.163   2.364  0.4274  0.5316 -0.5764
 6797TIP3   OH241949   1.743   5.346   2.525 -0.5630  0.0357 -0.4648
 6797TIP3    H141950   1.737   5.414   2.459 -0.8785  0.1640 -0.3101
 6797TIP3    H241951   1.792   5.386   2.597 -0.5040  0.0056 -0.4882
 6798TIP3   OH241952   3.580   4.212   1.832 -0.0929  0.3291 -0.2332
 6798TIP3    H141953   3.597   4.249   1.745 -2.1942 -0.2225 -0.9235
 6798TIP3    H241954   3.530   4.279   1.878 -0.7854 -0.2089 -0.1975
 6799TIP3   OH241955   1.682   5.561   2.371  0.2584 -0.1454 -0.4188
 6799TIP3    H141956   1.676   5.512   2.289  2.2133 -2.0481  0.4751
 6799TIP3    H241957   1.737   5.636   2.351 -0.2231  0.0328 -1.1024
 6800TIP3   OH241958   3.517   6.160   8.449  0.1076 -0.1217 -0.5534
 6800TIP3    H141959   3.585   6.157   8.517 -1.1497  1.5502  0.8499
 6800TIP3    H241960   3.538   6.085   8.392  1.3740 -1.4507  1.5058
 6801TIP3   OH241961   6.365   5.670   8.413  0.0331  0.2538  0.1206
 6801TIP3    H141962   6.339   5.605   8.348 -1.1206 -2.4498  2.9878
 6801TIP3    H241963   6.325   5.752   8.383  1.9731 -0.0742 -3.9382
 6802TIP3   OH241964   6.609   6.869   0.786 -0.6191 -0.3944 -0.0759
 6802TIP3    H141965   6.631   6.778   0.807  0.3925 -0.3056 -0.6476
 6802TIP3    H241966   6.578   6.865   0.695  3.4903  0.2809 -1.7564
 6803TIP3   OH241967   4.461   0.737   8.274 -0.3557 -0.0680  0.3879
 6803TIP3    H141968   4.480   0.779   8.190 -0.9342 -0.2975  0.1360
 6803TIP3    H241969   4.500   0.795   8.339  0.4736 -0.1034 -0.0540
 6804TIP3   OH241970   6.295   2.303   0.625  0.2537  0.0531  0.0534
 6804TIP3    H141971   6.241   2.234   0.587  0.4069 -0.3113  0.4789
 6804TIP3    H241972   6.269   2.382   0.579  0.4287 -0.3707 -0.7972
 6805TIP3   OH241973   2.790   1.930   7.494  0.3607  0.1568  0.1550
 6805TIP3    H141974   2.866   1.983   7.517  0.1758  0.4997 -0.0200
 6805TIP3    H241975   2.764   1.960   7.407 -0.0019  0.0792  0.2318
 6806TIP3   OH241976   4.859   1.565   1.624  0.0514  0.2908 -0.3668
 6806TIP3    H141977   4.883   1.493   1.683 -1.4565 -1.7666 -2.1124
 6806TIP3    H241978   4.942   1.607   1.602  0.7491  0.5972  2.4586
 6807TIP3   OH241979   6.654   2.077   1.824 -0.2440 -0.0625 -0.3501
 6807TIP3    H141980   6.638   2.024   1.902 -0.6130  0.2324 -0.2218
 6807TIP3    H241981   6.620   2.164   1.846  1.5720  0.6207 -0.0677
 6808TIP3   OH241982   3.635   6.035   1.894 -0.2573 -0.2403 -0.3699
 6808TIP3    H141983   3.684   6.064   1.972 -1.3046  0.5936 -0.0044
 6808TIP3    H241984   3.697   5.979   1.847  0.3970 -0.7773  1.0728
 6809TIP3   OH241985   6.856   4.130   2.175  0.4636 -0.0127  0.7914
 6809TIP3    H141986   6.765   4.101   2.168  0.1211  1.2819 -1.0343
 6809TIP3    H241987   6.906   4.050   2.187 -0.7966 -0.9157  0.2447
 6810TIP3   OH241988   6.367   2.669   2.272  0.0465  0.3138 -0.3138
 6810TIP3    H141989   6.398   2.604   2.209 -0.2113  0.6024 -0.7452
 6810TIP3    H241990   6.364   2.622   2.356  0.1727 -0.1341 -0.5560
 6811TIP3   OH241991   1.323   2.751   0.807  0.4228 -0.0410 -0.4675
 6811TIP3    H141992   1.364   2.707   0.733 -0.6287  0.0328 -1.1159
 6811TIP3    H241993   1.385   2.741   0.879  0.7336 -1.5280 -0.9194
 6812TIP3   OH241994   4.047   3.833   0.349  0.0876 -0.2481 -0.2526
 6812TIP3    H141995   4.035   3.928   0.351  0.8468 -0.0992 -1.5250
 6812TIP3    H241996   4.092   3.812   0.431 -1.6904  0.2105  0.8993
 6813TIP3   OH241997   1.564   2.316   1.563 -0.3669  0.2016 -0.0401
 6813TIP3    H141998   1.546   2.323   1.470 -1.3759  0.1459  0.1320
 6813TIP3    H241999   1.625   2.243   1.571  0.8211  1.0923 -0.7670
 6814TIP3   OH242000   3.399   3.474   8.452 -0.4657 -0.1856 -1.1833
 6814TIP3    H142001   3.338   3.437   8.516 -0.5853  2.5175  0.4514
 6814TIP3    H242002   3.483   3.432   8.471 -0.6644  0.0383  0.3363
 6815TIP3   OH242003   2.752   4.033   8.055 -0.3160  0.8397  0.5737
 6815TIP3    H142004   2.772   4.127   8.057  0.7488  0.7076 -1.4841
 6815TIP3    H242005   2.740   4.013   7.962  0.9014 -1.3397  0.8117
 6816TIP3   OH242006   4.051   6.117   0.855 -0.0925  0.0553  0.0469
 6816TIP3    H142007   4.143   6.125   0.878  0.0666 -0.4807 -0.3694
 6816TIP3    H242008   4.006   6.179   0.911  0.6076  0.8536 -0.2613
 6817TIP3   OH242009   3.982   1.312   0.026  0.6321 -0.5249  0.0859
 6817TIP3    H142010   3.949   1.402   0.034 -0.7706 -1.1089  1.6329
 6817TIP3    H242011   4.076   1.322   0.012  0.3685  1.1887 -0.7165
 6818TIP3   OH242012   1.612   3.953   0.451 -0.2869  0.4014 -0.4422
 6818TIP3    H142013   1.527   3.936   0.493  0.0183  0.9263  0.4048
 6818TIP3    H242014   1.590   4.011   0.378 -0.7421  0.0091 -0.6240
 6819TIP3   OH242015   2.756   0.311   1.707 -0.0269 -0.5400  0.5919
 6819TIP3    H142016   2.708   0.293   1.788 -0.0968 -2.1502  0.2323
 6819TIP3    H242017   2.848   0.311   1.732 -0.0997  0.1188  0.8640
 6820TIP3   OH242018   1.814   1.324   2.709 -0.3750  0.0657  0.7147
 6820TIP3    H142019   1.743   1.380   2.678  0.0061  1.3669  2.0906
 6820TIP3    H242020   1.892   1.380   2.704 -0.1791  0.1143  3.2500
 6821TIP3   OH242021   0.130   1.569   8.600  0.0028  0.3303  0.0583
 6821TIP3    H142022   0.102   1.536   8.685 -0.7369  1.2116  0.1669
 6821TIP3    H242023   0.188   1.643   8.620 -1.6819  1.7845 -0.1672
 6822TIP3   OH242024   1.060   3.131   1.948 -0.3788 -0.0973 -0.2223
 6822TIP3    H142025   1.047   3.093   2.035 -0.9890 -0.1855 -0.3492
 6822TIP3    H242026   1.016   3.070   1.888  2.4279 -1.6038 -0.9452
 6823TIP3   OH242027   3.490   3.801   0.595 -0.1207  0.1362 -0.4070
 6823TIP3    H142028   3.564   3.832   0.544 -0.0635  0.5918 -0.0572
 6823TIP3    H242029   3.483   3.863   0.668 -0.2596 -0.4405  0.0842
 6824TIP3   OH242030   2.011   0.668   1.446  0.3475 -0.0539 -0.3312
 6824TIP3    H142031   1.998   0.685   1.539  0.8074  1.5424 -0.5337
 6824TIP3    H242032   2.069   0.738   1.416  2.9971 -2.3610 -1.1138
 6825TIP3   OH242033   3.188   5.454   2.545 -0.1766 -0.4265  0.5508
 6825TIP3    H142034   3.170   5.494   2.630  1.4357  2.4089 -0.2990
 6825TIP3    H242035   3.254   5.387   2.563 -1.0006 -0.9408  1.7116
 6826TIP3   OH242036   0.370   1.557   1.818  0.0404 -0.0033 -0.3308
 6826TIP3    H142037   0.290   1.534   1.866  0.1806 -0.1007 -0.1440
 6826TIP3    H242038   0.338   1.591   1.734 -0.1702 -1.2038 -0.7616
 6827TIP3   OH242039   0.841   6.861   8.105 -0.4847  0.3198 -0.3348
 6827TIP3    H142040   0.855   6.955   8.109  2.0632 -0.0215  0.3631
 6827TIP3    H242041   0.835   6.833   8.196  3.1116 -0.6525 -0.2649
 6828TIP3   OH242042   1.003   1.307   1.064  0.3265 -0.4572 -0.4985
 6828TIP3    H142043   0.960   1.230   1.102  2.3712 -1.0855  0.7123
 6828TIP3    H242044   1.092   1.304   1.098  1.4686  0.6025 -3.0829
 6829TIP3   OH242045   2.041   0.874   7.685  0.1939  0.2203 -0.1584
 6829TIP3    H142046   1.980   0.925   7.632 -2.5673 -3.0702 -0.5451
 6829TIP3    H242047   2.120   0.869   7.631 -0.9974  0.5266 -2.0395
 6830TIP3   OH242048   1.520   5.040   1.941 -0.0358  0.0466 -0.0036
 6830TIP3    H142049   1.531   4.968   2.002  1.0354  1.0442  1.0247
 6830TIP3    H242050   1.426   5.038   1.919 -0.6091  0.0746  2.2054
 6831TIP3   OH242051   3.214   4.686   7.977  0.0166  0.3403  0.4417
 6831TIP3    H142052   3.310   4.682   7.981 -0.0115  0.4058  1.2278
 6831TIP3    H242053   3.190   4.616   7.916  0.5176 -0.2341  0.8919
 6832TIP3   OH242054   6.500   0.340   0.130  0.0030  0.5896  0.8677
 6832TIP3    H142055   6.562   0.328   0.058 -1.7310  1.3544 -0.8380
 6832TIP3    H242056   6.456   0.255   0.138 -0.6329  0.8432  0.1801
 6833TIP3   OH242057   0.933   1.354   8.073  0.1085 -0.2123  0.0731
 6833TIP3    H142058   0.878   1.416   8.024 -0.1945  0.6292  1.4404
 6833TIP3    H242059   0.987   1.408   8.129  0.4269 -1.1516  0.7031
 6834TIP3   OH242060   1.882   2.842   0.347 -0.7384 -0.8023  0.3833
 6834TIP3    H142061   1.919   2.865   0.432 -0.3687  1.1976 -0.2459
 6834TIP3    H242062   1.945   2.780   0.310 -0.0958 -0.5286  0.9709
 6835TIP3   OH242063   2.693   0.569   1.807 -0.1933  0.5996  0.0204
 6835TIP3    H142064   2.745   0.645   1.779  0.4299 -0.0144 -0.5253
 6835TIP3    H242065   2.707   0.504   1.738  1.4169 -0.9984  1.7673
 6836TIP3   OH242066   3.692   3.016   6.959 -0.1256  0.0388  0.5135
 6836TIP3    H142067   3.610   3.046   6.920 -0.7686  0.4061  2.0685
 6836TIP3    H242068   3.677   2.923   6.977 -0.3652  0.1938  1.1515
 6837TIP3   OH242069   1.852   4.635   0.793  0.2565 -0.3170  0.4325
 6837TIP3    H142070   1.883   4.712   0.745  0.8171 -0.1098  1.1102
 6837TIP3    H242071   1.915   4.624   0.865  0.5778 -1.8058 -0.0284
 6838TIP3   OH242072   1.114   1.941   2.506  0.0977  0.0783  0.3727
 6838TIP3    H142073   1.069   2.005   2.561 -1.1517  0.6553 -1.2452
 6838TIP3    H242074   1.204   1.973   2.500 -0.3455  1.3017  0.1504
 6839TIP3   OH242075   4.104   5.913   1.061  0.1340  0.4792 -0.5884
 6839TIP3    H142076   4.135   5.986   1.114 -1.0361  0.0604  0.7246
 6839TIP3    H242077   4.097   5.948   0.973  0.2899  1.7402 -0.1164
 6840TIP3   OH242078   4.100   3.072   1.477 -0.2704  0.6193 -0.0636
 6840TIP3    H142079   4.136   3.158   1.455  0.1056  0.1902 -1.2328
 6840TIP3    H242080   4.175   3.013   1.472 -0.8335 -0.0481 -1.0499
 6841TIP3   OH242081   3.564   0.077   0.830  0.0846 -0.3640  0.6826
 6841TIP3    H142082   3.589   0.006   0.890  1.5244  0.4544  1.0876
 6841TIP3    H242083   3.620   0.064   0.753 -1.3233 -1.0440 -0.2710
 6842TIP3   OH242084   4.132   4.051   6.624 -0.3010 -0.3407 -0.4465
 6842TIP3    H142085   4.216   4.050   6.671 -1.0356 -1.8471  0.9136
 6842TIP3    H242086   4.142   3.986   6.555 -0.5330 -0.9046  0.0516
 6843TIP3   OH242087   4.294   2.912   0.583 -0.2632  0.2186 -0.2059
 6843TIP3    H142088   4.248   2.935   0.502 -0.7562  1.6255  0.4352
 6843TIP3    H242089   4.225   2.897   0.647  0.1295 -0.3993  0.0738
 6844TIP3   OH242090   5.768   3.824   8.454 -0.3600  0.1296 -0.1751
 6844TIP3    H142091   5.808   3.755   8.400 -2.5038 -0.2771 -1.3416
 6844TIP3    H242092   5.750   3.895   8.393 -1.1559  0.4020  0.3678
 6845TIP3   OH242093   2.120   2.883   8.030 -0.2394  0.2913 -0.3329
 6845TIP3    H142094   2.105   2.794   8.063 -0.7035  0.4606 -0.0723
 6845TIP3    H242095   2.214   2.887   8.014  0.3677  0.7704  2.7073
 6846TIP3   OH242096   6.761   3.130   0.756  0.2157  0.6104 -0.2207
 6846TIP3    H142097   6.755   3.206   0.699  0.3219  0.2232 -0.7584
 6846TIP3    H242098   6.739   3.056   0.699  1.8844  0.0385 -0.1815
 6847TIP3   OH242099   5.991   5.542   1.265 -0.1887  0.3641 -0.0670
 6847TIP3    H142100   6.066   5.593   1.296  0.8834 -1.6359  0.7709
 6847TIP3    H242101   6.021   5.503   1.183 -0.8979  0.8030 -0.5492
 6848TIP3   OH242102   3.359   3.375   2.102 -0.2340  0.4251 -0.3947
 6848TIP3    H142103   3.369   3.463   2.138 -1.8759 -0.2857  1.9964
 6848TIP3    H242104   3.421   3.321   2.152  0.8897  0.1805 -1.9573
 6849TIP3   OH242105   1.239   1.649   8.517 -0.2709 -0.4064 -0.5992
 6849TIP3    H142106   1.242   1.697   8.434  1.2436 -1.0710 -0.9708
 6849TIP3    H242107   1.317   1.679   8.564 -1.5159  0.5457  0.9575
 6850TIP3   OH242108   4.078   5.798   8.021 -0.5033  0.2696  0.7301
 6850TIP3    H142109   4.016   5.762   7.958  1.2491 -1.3989 -0.1740
 6850TIP3    H242110   4.110   5.721   8.069  1.8818  0.8091  0.1529
 6851TIP3   OH242111   3.227   0.465   8.609  0.4090 -0.5358  0.2283
 6851TIP3    H142112   3.257   0.437   8.695 -2.1879 -3.7729  0.3305
 6851TIP3    H242113   3.267   0.403   8.548 -0.1705 -0.2165 -0.4978
 6852TIP3   OH242114   1.740   4.567   2.414 -0.0990  0.3522  0.0127
 6852TIP3    H142115   1.777   4.615   2.340  1.0157  0.6295  0.7115
 6852TIP3    H242116   1.661   4.615   2.437  1.6941  2.8584  1.5935
 6853TIP3   OH242117   0.802   2.811   2.890 -0.0443  0.4050  0.3659
 6853TIP3    H142118   0.754   2.760   2.955 -0.0525 -1.0227 -0.7208
 6853TIP3    H242119   0.733   2.856   2.840 -0.1219  0.1986  0.2871
 6854TIP3   OH242120   6.695   3.017   8.603  0.1897  0.0454  0.3281
 6854TIP3    H142121   6.602   2.994   8.595  0.1949  0.1494 -0.0689
 6854TIP3    H242122   6.698   3.109   8.577  0.2300  0.3911  1.4853
 6855TIP3   OH242123   0.766   2.995   8.650 -0.3782 -0.1705 -0.5538
 6855TIP3    H142124   0.704   3.050   8.601  1.1316 -0.2963 -2.7346
 6855TIP3    H242125   0.832   3.057   8.682 -0.6257 -0.2701  0.1587
 6856TIP3   OH242126   1.210   6.693   0.830  0.0977  0.6435  0.0982
 6856TIP3    H142127   1.129   6.664   0.873 -0.3269  0.7949 -0.5848
 6856TIP3    H242128   1.212   6.788   0.845  0.1535  0.6364  0.1309
 6857TIP3   OH242129   0.952   1.680   8.512  0.2388 -0.3014 -0.5972
 6857TIP3    H142130   1.041   1.668   8.547  0.2293  2.0394  0.4090
 6857TIP3    H242131   0.945   1.614   8.443  2.9533 -0.2721 -1.0466
 6858TIP3   OH242132   1.513   2.298   0.432 -0.2444  0.5252 -0.2446
 6858TIP3    H142133   1.583   2.306   0.367 -0.6610  2.1510 -0.5333
 6858TIP3    H242134   1.545   2.347   0.508 -0.0304 -0.8306  0.5740
 6859TIP3   OH242135   5.938   3.881   1.198  0.0937  0.4875 -0.2595
 6859TIP3    H142136   6.006   3.848   1.256 -0.7928 -1.2861 -0.1646
 6859TIP3    H242137   5.982   3.946   1.143  1.5389  0.3059  0.6435
 6860TIP3   OH242138   1.459   1.966   1.596  0.5161 -0.8365  0.4642
 6860TIP3    H142139   1.382   2.001   1.552 -0.4611 -2.2547  0.9795
 6860TIP3    H242140   1.527   2.032   1.582 -1.2114  1.2684  1.4303
 6861TIP3   OH242141   1.756   6.045   8.228 -0.2303  0.5515  0.0777
 6861TIP3    H142142   1.661   6.037   8.219 -0.2184 -0.4319  0.6488
 6861TIP3    H242143   1.792   5.999   8.153 -0.1857  2.6645 -1.2701
 6862TIP3   OH242144   5.186   4.865   7.709 -0.1620 -0.4519  0.2159
 6862TIP3    H142145   5.186   4.903   7.621  1.6859 -1.0258 -0.0824
 6862TIP3    H242146   5.145   4.779   7.697  0.3494 -0.6494 -0.1545
 6863TIP3   OH242147   5.795   3.921   1.449  0.0241 -0.2123 -0.4153
 6863TIP3    H142148   5.843   3.923   1.366  0.0019  0.7290 -0.4168
 6863TIP3    H242149   5.863   3.914   1.516  0.3786  2.8099 -0.3091
 6864TIP3   OH242150   0.636   3.779   0.581  0.1079  0.2017  0.0049
 6864TIP3    H142151   0.601   3.732   0.506  0.3569  0.5684 -0.3459
 6864TIP3    H242152   0.728   3.793   0.560 -0.1613  1.6491 -0.3212
 6865TIP3   OH242153   3.376   5.261   3.059 -0.2388 -0.4553 -0.4208
 6865TIP3    H142154   3.431   5.337   3.079  0.0958 -0.5336 -1.0167
 6865TIP3    H242155   3.419   5.188   3.103 -0.8353 -0.2260  0.5716
 6866TIP3   OH242156   6.674   2.078   6.790 -0.0802  0.3766 -0.6468
 6866TIP3    H142157   6.604   2.013   6.802  0.7665 -0.5191 -0.4299
 6866TIP3    H242158   6.697   2.105   6.879  1.5136 -1.1785 -0.5318
 6867TIP3   OH242159   3.234   5.889   1.221 -0.0013 -0.0942  0.2124
 6867TIP3    H142160   3.201   5.979   1.217  1.0621  0.2602 -1.4120
 6867TIP3    H242161   3.170   5.837   1.173 -0.3377 -0.1158  0.6829
 6868TIP3   OH242162   3.676   5.898   2.758 -0.2689 -0.5133 -0.4730
 6868TIP3    H142163   3.721   5.814   2.749  1.3571  0.3352 -0.6510
 6868TIP3    H242164   3.695   5.925   2.848  1.1022  0.6676 -1.0886
 6869TIP3   OH242165   1.197   3.256   2.524  0.2637  0.4321  0.3211
 6869TIP3    H142166   1.122   3.279   2.579 -0.4459  2.1258 -1.2325
 6869TIP3    H242167   1.161   3.249   2.436  1.4895 -1.4778 -0.0831
 6870TIP3   OH242168   0.418   5.093   7.192  0.5180  0.3075 -0.5493
 6870TIP3    H142169   0.469   5.052   7.262  2.2394  0.7523 -1.4715
 6870TIP3    H242170   0.434   5.038   7.115 -0.7089  0.2627 -0.7861
 6871TIP3   OH242171   6.841   5.133   1.299  0.1811 -0.1114  0.4901
 6871TIP3    H142172   6.792   5.173   1.371 -2.1659 -0.8395 -0.5957
 6871TIP3    H242173   6.926   5.112   1.336  0.1245  2.2501  2.1906
 6872TIP3   OH242174   1.158   4.184   8.667  0.1864  0.2733  0.0924
 6872TIP3    H142175   1.167   4.090   8.683  0.7620  0.5614  1.6792
 6872TIP3    H242176   1.166   4.193   8.572  5.5246 -0.8005  0.0860
 6873TIP3   OH242177   2.140   1.457   6.757  0.3398 -0.6258 -0.4956
 6873TIP3    H142178   2.089   1.378   6.775  1.6909 -1.4678 -0.2852
 6873TIP3    H242179   2.096   1.497   6.682  1.3182 -3.1345 -2.5083
 6874TIP3   OH242180   4.098   3.625   6.656  0.1141  0.3775 -0.0924
 6874TIP3    H142181   4.005   3.634   6.681 -0.0421  0.2348 -0.6176
 6874TIP3    H242182   4.130   3.554   6.711 -0.8175 -1.5094 -1.8503
 6875TIP3   OH242183   4.476   0.328   0.353 -0.8530  0.6665  0.2151
 6875TIP3    H142184   4.409   0.378   0.306 -1.2832  0.6894  0.8416
 6875TIP3    H242185   4.428   0.285   0.424 -0.7370 -1.6220 -1.0028
 6876TIP3   OH242186   4.056   2.581   8.608 -0.0476 -0.5918 -0.0058
 6876TIP3    H142187   4.110   2.626   8.543 -0.1545 -0.0382  0.2862
 6876TIP3    H242188   4.113   2.513   8.644  0.8872  0.7865  1.2004
 6877TIP3   OH242189   4.517   3.664   6.833 -0.2495 -0.2304 -0.5373
 6877TIP3    H142190   4.562   3.726   6.775  1.2856  0.5513  1.3483
 6877TIP3    H242191   4.443   3.714   6.867 -0.7310 -0.4474 -1.2499
 6878TIP3   OH242192   6.546   6.452   2.508  0.4193 -0.7029  0.2693
 6878TIP3    H142193   6.569   6.544   2.523  2.0520 -1.2006  1.0409
 6878TIP3    H242194   6.589   6.430   2.425  0.1466 -0.8028  0.1554
 6879TIP3   OH242195   4.814   2.673   1.439 -0.0277 -0.1370 -1.0842
 6879TIP3    H142196   4.819   2.577   1.432  2.2101 -0.1598 -0.1459
 6879TIP3    H242197   4.845   2.692   1.527 -3.3695  1.3636 -0.0848
 6880TIP3   OH242198   3.757   0.057   1.615  1.1127  0.0827  0.0297
 6880TIP3    H142199   3.797   0.001   1.682  2.2850  0.5071 -0.3009
 6880TIP3    H242200   3.690   0.106   1.662  0.2388 -1.3687  0.3902
 6881TIP3   OH242201   3.570   6.101   1.219 -0.6944  0.4039  0.1479
 6881TIP3    H142202   3.643   6.119   1.161 -1.4995  1.4536 -0.5886
 6881TIP3    H242203   3.521   6.031   1.176  1.5373 -2.6715  2.2054
 6882TIP3   OH242204   6.520   3.221   7.608 -0.0128 -0.6468 -0.2665
 6882TIP3    H142205   6.582   3.212   7.536 -0.6475 -1.4010 -0.7394
 6882TIP3    H242206   6.437   3.245   7.566 -0.5233 -1.6317  0.1412
 6883TIP3   OH242207   4.876   0.309   0.890 -0.1154  0.1560 -0.3135
 6883TIP3    H142208   4.909   0.345   0.808 -0.8838 -0.2085 -0.7860
 6883TIP3    H242209   4.955   0.274   0.933  0.5370  1.7331 -0.1547
 6884TIP3   OH242210   2.176   5.169   8.585  0.0960 -0.2826  0.1125
 6884TIP3    H142211   2.162   5.263   8.587 -2.2184 -0.5550 -0.5219
 6884TIP3    H242212   2.143   5.137   8.669 -1.4046 -0.7447 -0.6167
 6885TIP3   OH242213   1.311   5.165   8.564  0.3661 -0.2996 -0.4625
 6885TIP3    H142214   1.253   5.190   8.636  1.8431 -1.0419  1.0604
 6885TIP3    H242215   1.399   5.182   8.597  1.1118 -1.0443 -1.9558
 6886TIP3   OH242216   4.187   1.836   0.034  0.5970 -0.4715  0.9851
 6886TIP3    H142217   4.255   1.896   0.003  0.4506 -1.0535 -0.5444
 6886TIP3    H242218   4.107   1.888   0.034  0.6831 -0.3359  0.8139
 6887TIP3   OH242219   5.806   0.542   7.699  0.2303  0.2433 -0.4651
 6887TIP3    H142220   5.787   0.463   7.749  4.1034  0.7454  2.2679
 6887TIP3    H242221   5.735   0.602   7.720 -0.3224 -0.9543  1.2978
 6888TIP3   OH242222   0.231   2.539   2.340  0.2329 -0.2955  0.2613
 6888TIP3    H142223   0.324   2.534   2.319  0.3913 -1.5129  1.1358
 6888TIP3    H242224   0.229   2.555   2.435 -0.4638  2.0853 -0.0813
 6889TIP3   OH242225   3.007   2.106   0.482 -0.2634  0.4070 -0.6119
 6889TIP3    H142226   2.997   2.197   0.511 -0.0994  0.6042 -1.1742
 6889TIP3    H242227   3.017   2.111   0.387  0.3415 -0.1561 -0.5888
 6890TIP3   OH242228   2.776   2.135   7.278 -0.2779 -0.1236 -0.1392
 6890TIP3    H142229   2.812   2.208   7.228  0.7116 -0.6198 -0.1654
 6890TIP3    H242230   2.827   2.059   7.251  1.7183 -0.0962  3.0655
 6891TIP3   OH242231   3.049   5.086   7.103 -0.5291  0.3954  0.4277
 6891TIP3    H142232   2.963   5.109   7.068 -1.8013 -1.4000  2.1216
 6891TIP3    H242233   3.066   4.998   7.070  0.2810  0.3962  0.8101
 6892TIP3   OH242234   0.234   3.238   7.564 -0.1329 -0.0025  0.3137
 6892TIP3    H142235   0.155   3.252   7.617  0.5617 -0.6418  1.5440
 6892TIP3    H242236   0.259   3.147   7.581  0.8662  0.1864 -0.0697
 6893TIP3   OH242237   4.800   2.710   0.479 -0.3277 -0.0243  0.2966
 6893TIP3    H142238   4.828   2.766   0.552  0.4869  0.1148 -0.1050
 6893TIP3    H242239   4.790   2.623   0.518  0.4788 -0.0328  0.5055
 6894TIP3   OH242240   2.531   4.468   8.242 -0.8621  1.0001  0.4322
 6894TIP3    H142241   2.525   4.460   8.337  1.2768  1.4294  0.6472
 6894TIP3    H242242   2.570   4.554   8.227  0.4391  0.2490 -0.7277
 6895TIP3   OH242243   6.070   3.139   0.880 -0.0566 -0.2778 -0.1314
 6895TIP3    H142244   6.064   3.215   0.938 -0.2629 -0.0747 -0.4195
 6895TIP3    H242245   6.094   3.175   0.795 -1.1139 -0.4250 -0.5095
 6896TIP3   OH242246   3.429   0.613   1.715 -0.3111  0.1483 -0.2610
 6896TIP3    H142247   3.392   0.527   1.694  0.9398  0.2400 -3.3244
 6896TIP3    H242248   3.364   0.675   1.683 -1.1529  0.4411  1.8368
 6897TIP3   OH242249   6.149   1.793   1.493 -0.1417 -0.3317  0.3936
 6897TIP3    H142250   6.097   1.828   1.565 -1.5551 -0.5988 -0.4620
 6897TIP3    H242251   6.156   1.699   1.512 -1.3869 -0.5878 -0.3024
 6898TIP3   OH242252   5.091   1.979   1.772 -0.1345 -0.1275  0.4484
 6898TIP3    H142253   5.024   1.920   1.804  0.8126 -1.4219  0.1340
 6898TIP3    H242254   5.126   2.021   1.851  1.1148 -2.1265  1.0160
 6899TIP3   OH242255   3.122   4.900   7.503  0.1637 -0.3007  0.2084
 6899TIP3    H142256   3.131   4.815   7.462  1.9955 -0.2803  0.4830
 6899TIP3    H242257   3.081   4.955   7.437 -2.3258 -1.6803  0.4965
 6900TIP3   OH242258   3.965   1.103   1.835 -0.2793  0.1240  0.0957
 6900TIP3    H142259   3.992   1.013   1.816  0.8615  0.2738  0.8824
 6900TIP3    H242260   4.037   1.157   1.801  0.3349  0.5549  1.9478
 6901TIP3   OH242261   4.276   5.817   2.144 -0.4788  0.4341 -0.9141
 6901TIP3    H142262   4.250   5.875   2.216  1.5305  2.4881 -1.7373
 6901TIP3    H242263   4.301   5.735   2.187 -0.4385  1.2186  0.6132
 6902TIP3   OH242264   4.907   3.498   7.892 -0.9944  0.1803 -0.3411
 6902TIP3    H142265   4.907   3.594   7.893 -1.9792  0.1919 -0.6055
 6902TIP3    H242266   4.901   3.473   7.984 -3.7191  0.4247 -0.3817
 6903TIP3   OH242267   4.020   6.560   6.916  0.6492  0.1862 -0.4574
 6903TIP3    H142268   3.998   6.485   6.860 -2.1284 -1.3121  2.3145
 6903TIP3    H242269   3.985   6.636   6.868 -0.0371 -0.7933 -1.5750
 6904TIP3   OH242270   0.171   1.576   7.678 -0.0838 -0.2335  0.1478
 6904TIP3    H142271   0.174   1.639   7.750  0.2915  0.1076 -0.1615
 6904TIP3    H242272   0.218   1.619   7.607  0.0138 -0.7878 -0.1264
 6905TIP3   OH242273   3.193   0.035   2.188 -0.3144  0.0646 -0.5270
 6905TIP3    H142274   3.236  -0.033   2.240  0.9145  0.3606 -1.1234
 6905TIP3    H242275   3.157   0.095   2.254 -0.0623 -0.3357 -0.0124
 6906TIP3   OH242276   6.559   1.599   2.616 -0.3812  0.1488  0.5172
 6906TIP3    H142277   6.596   1.628   2.700 -0.7758 -0.5361  0.9365
 6906TIP3    H242278   6.541   1.506   2.628  0.7559 -0.2705 -0.7677
 6907TIP3   OH242279   3.136   4.905   2.707 -0.4417 -0.4546 -0.1043
 6907TIP3    H142280   3.041   4.895   2.697 -0.4366 -0.7669  0.1658
 6907TIP3    H242281   3.159   4.848   2.779  0.2118 -1.6840 -1.2507
 6908TIP3   OH242282   5.647   2.739   8.096  0.2114 -0.1573 -0.1569
 6908TIP3    H142283   5.719   2.697   8.049  1.5124 -0.0443  1.6629
 6908TIP3    H242284   5.681   2.825   8.121 -0.5135 -0.1255  0.7832
 6909TIP3   OH242285   6.555   5.176   2.273  0.5886 -0.4222  0.3156
 6909TIP3    H142286   6.580   5.260   2.311 -0.2945  0.7864 -1.5748
 6909TIP3    H242287   6.594   5.110   2.330  0.3515  1.2380  2.5233
 6910TIP3   OH242288   0.825   3.150   0.337 -0.1664 -0.3564 -0.1804
 6910TIP3    H142289   0.773   3.185   0.410 -0.3925  0.3273 -0.6506
 6910TIP3    H242290   0.916   3.166   0.363 -0.2559  0.2511 -0.2157
 6911TIP3   OH242291   2.882   2.621   7.338 -0.2221  0.5781  0.0639
 6911TIP3    H142292   2.955   2.644   7.280  0.3736 -1.2397  0.0527
 6911TIP3    H242293   2.840   2.705   7.357  1.4385  1.5827 -0.4937
 6912TIP3   OH242294   2.887   6.516   7.019  0.2756  0.3879 -0.1447
 6912TIP3    H142295   2.940   6.532   6.941  2.2624 -0.5580  0.9361
 6912TIP3    H242296   2.925   6.572   7.086  0.4601 -0.8936  0.8695
 6913TIP3   OH242297   6.883   5.390   0.571 -0.7068  0.3869 -0.6118
 6913TIP3    H142298   6.863   5.469   0.521  0.1512 -0.0730 -1.7293
 6913TIP3    H242299   6.905   5.422   0.659 -2.7838  1.1690 -0.3087
 6914TIP3   OH242300   1.591   3.025   8.146 -0.4322 -0.0599  0.4148
 6914TIP3    H142301   1.664   2.967   8.171  0.7351  1.7127  1.3389
 6914TIP3    H242302   1.522   3.005   8.209  0.0960 -0.1802  0.9617
 6915TIP3   OH242303   2.759   0.154   7.044  0.4356 -0.3326  0.3534
 6915TIP3    H142304   2.713   0.072   7.023  0.5590  0.1783 -2.2557
 6915TIP3    H242305   2.840   0.125   7.087 -1.0402 -1.3482  2.6474
 6916TIP3   OH242306   0.642   6.787   7.905 -0.2346 -0.1921  0.5845
 6916TIP3    H142307   0.669   6.741   7.826 -1.8545 -0.1642 -0.0355
 6916TIP3    H242308   0.715   6.777   7.966  0.6365 -1.0592 -0.5677
 6917TIP3   OH242309   0.488   1.069   1.479 -0.3132 -0.1640  0.3377
 6917TIP3    H142310   0.503   1.050   1.571 -0.8935  1.1207  0.7297
 6917TIP3    H242311   0.396   1.098   1.475 -0.1476  0.2828 -0.5466
 6918TIP3   OH242312   4.103   4.851   1.433 -0.1767 -0.7626  0.3029
 6918TIP3    H142313   4.067   4.780   1.379  2.3530 -1.1955 -0.9536
 6918TIP3    H242314   4.168   4.893   1.377  0.7037  0.4930  2.1634
 6919TIP3   OH242315   0.270   4.167   2.164  0.1303 -0.8256  0.4537
 6919TIP3    H142316   0.205   4.156   2.233 -0.6282 -1.3385 -0.3215
 6919TIP3    H242317   0.221   4.152   2.083  0.9440  0.0075 -0.2128
 6920TIP3   OH242318   1.569   4.755   7.066 -0.4482  0.1088 -0.4050
 6920TIP3    H142319   1.620   4.831   7.094 -1.9937  1.3851 -0.8876
 6920TIP3    H242320   1.599   4.738   6.976 -0.2102  0.2374 -0.3523
 6921TIP3   OH242321   1.751   6.860   0.579  0.5051 -0.4795  0.2022
 6921TIP3    H142322   1.803   6.788   0.615  0.6327  1.0065  3.4218
 6921TIP3    H242323   1.663   6.846   0.614  0.2832  0.3307 -0.0034
 6922TIP3   OH242324   5.008   1.353   7.756  0.3062 -0.1502 -0.4232
 6922TIP3    H142325   4.949   1.386   7.823  0.2338 -1.2718  0.0910
 6922TIP3    H242326   5.083   1.412   7.758 -1.1139  1.8223 -1.6839
 6923TIP3   OH242327   4.179   1.089   0.710 -0.5321 -0.2088 -0.0397
 6923TIP3    H142328   4.237   1.150   0.755 -0.2052 -0.7717  0.3025
 6923TIP3    H242329   4.135   1.143   0.644  0.8020  0.1193 -0.7043
 6924TIP3   OH242330   2.645   3.807   6.875  0.6393  0.2982  0.2643
 6924TIP3    H142331   2.655   3.748   6.950 -0.2107  2.9932  2.6902
 6924TIP3    H242332   2.570   3.772   6.827 -0.4156 -0.1417  2.1326
 6925TIP3   OH242333   4.692   2.555   8.284 -0.2836 -0.0004  0.1775
 6925TIP3    H142334   4.620   2.508   8.327  0.5743 -0.5385  1.0658
 6925TIP3    H242335   4.769   2.500   8.299  0.1318 -0.0531 -1.7941
 6926TIP3   OH242336   4.268   0.472   0.246 -0.7134 -0.4163  0.3332
 6926TIP3    H142337   4.243   0.484   0.154  0.7049  0.0551 -0.0228
 6926TIP3    H242338   4.186   0.451   0.291 -1.5314 -0.0504 -0.9341
 6927TIP3   OH242339   3.145   6.550   0.051  0.3027 -0.2124 -0.4495
 6927TIP3    H142340   3.092   6.596  -0.014  0.3079  1.6417  0.7680
 6927TIP3    H242341   3.208   6.499  -0.000 -0.0669  0.7369 -1.8972
 6928TIP3   OH242342   0.038   6.112   1.768 -0.5936 -0.0920  0.1112
 6928TIP3    H142343   0.115   6.155   1.729 -0.6739  1.4742  1.5519
 6928TIP3    H242344  -0.031   6.178   1.764 -0.9823 -0.3669  1.6068
 6929TIP3   OH242345   5.003   0.952   7.260 -0.2427  0.0965 -0.6207
 6929TIP3    H142346   5.005   1.008   7.182  1.0149  1.5119  0.3565
 6929TIP3    H242347   5.014   0.863   7.227 -0.1873  0.6280 -2.0801
 6930TIP3   OH242348   4.992   3.451   1.915 -0.0320  0.7371  0.1249
 6930TIP3    H142349   5.068   3.506   1.895  1.4036 -1.2414 -0.3231
 6930TIP3    H242350   5.027   3.382   1.971 -0.9628 -1.4071 -1.7466
 6931TIP3   OH242351   1.762   6.742   1.840 -0.1798 -0.3818  0.3725
 6931TIP3    H142352   1.801   6.770   1.923 -0.2876  0.4778  0.1488
 6931TIP3    H242353   1.668   6.753   1.853 -0.1206  2.1904 -0.6393
 6932TIP3   OH242354   6.182   2.824   0.967  0.0840 -0.1460  0.6224
 6932TIP3    H142355   6.241   2.897   0.952 -2.2346  1.5575 -1.0302
 6932TIP3    H242356   6.130   2.850   1.043 -0.3881 -0.3326  0.3666
 6933TIP3   OH242357   2.688   5.474   8.262  0.0035  0.1456 -0.3979
 6933TIP3    H142358   2.690   5.465   8.357 -1.8505 -0.9035 -0.4037
 6933TIP3    H242359   2.778   5.495   8.238  1.1174 -2.0585  1.3678
 6934TIP3   OH242360   6.176   4.809   2.434 -0.6068 -0.4621  0.5511
 6934TIP3    H142361   6.119   4.736   2.410 -1.5144  0.3396  0.1443
 6934TIP3    H242362   6.192   4.798   2.527  0.8404 -2.2130  0.1491
 6935TIP3   OH242363   1.868   6.468   0.119 -0.2408  0.4207  0.1177
 6935TIP3    H142364   1.854   6.507   0.033  0.1778 -1.7485 -0.9864
 6935TIP3    H242365   1.817   6.523   0.179 -2.5032  0.5945 -1.8481
 6936TIP3   OH242366   2.615   3.929   1.392  0.3979  0.3250 -0.2407
 6936TIP3    H142367   2.593   3.951   1.302  0.7728  1.0550 -0.1563
 6936TIP3    H242368   2.631   4.013   1.435 -0.8371  0.0817  0.7888
 6937TIP3   OH242369   1.696   4.015   1.314 -0.2547  0.0980 -0.2780
 6937TIP3    H142370   1.752   4.056   1.248  0.4993 -1.3852 -0.6010
 6937TIP3    H242371   1.607   4.034   1.284  0.0710 -0.5301 -1.7459
 6938TIP3   OH242372   5.487   0.455   2.307  0.1939  0.0219  0.1744
 6938TIP3    H142373   5.442   0.510   2.372 -2.1845 -0.4126 -0.9994
 6938TIP3    H242374   5.518   0.518   2.241 -1.8463  0.1558 -0.7683
 6939TIP3   OH242375   0.911   4.755   7.828 -1.1418  0.0172  0.0564
 6939TIP3    H142376   0.881   4.730   7.741  0.5624  0.2297 -0.6238
 6939TIP3    H242377   0.933   4.847   7.821  2.2110 -0.6864 -0.3127
 6940TIP3   OH242378   0.774   3.611   0.020 -0.3554  0.0355 -0.0167
 6940TIP3    H142379   0.767   3.541   0.085  1.0528 -1.3024 -1.2126
 6940TIP3    H242380   0.727   3.578  -0.056  0.0424  0.5276 -0.4873
 6941TIP3   OH242381   3.958   6.631   8.163 -0.0009  0.0056 -0.3064
 6941TIP3    H142382   4.038   6.673   8.194  0.6555 -0.7561 -0.9332
 6941TIP3    H242383   3.986   6.542   8.138 -1.5016 -1.1880  1.9052
 6942TIP3   OH242384   1.793   6.604   1.267 -0.1246 -0.6341 -0.2163
 6942TIP3    H142385   1.832   6.682   1.227  1.0401  0.1360  2.1986
 6942TIP3    H242386   1.842   6.593   1.349 -3.3122 -1.1787  1.7544
 6943TIP3   OH242387   5.975   0.701   1.390  0.7604  0.1745 -0.3656
 6943TIP3    H142388   5.930   0.728   1.470  1.7461  1.3964 -0.1955
 6943TIP3    H242389   5.926   0.624   1.360  0.1524 -0.1061  1.2159
 6944TIP3   OH242390   6.694   3.832   1.149 -0.4479 -0.5964  0.0798
 6944TIP3    H142391   6.781   3.866   1.171 -0.4438 -0.8582  0.4811
 6944TIP3    H242392   6.661   3.892   1.082  1.0451 -1.8742 -1.9342
 6945TIP3   OH242393   2.987   6.613   1.136  0.4448  0.0411  0.5984
 6945TIP3    H142394   2.996   6.567   1.220  0.2473 -1.7383 -0.3128
 6945TIP3    H242395   2.919   6.679   1.153  0.8529  0.1493  1.9936
 6946TIP3   OH242396   2.070   3.456   0.282 -0.5094  0.2458 -0.4684
 6946TIP3    H142397   2.003   3.389   0.268 -3.6482  2.8424  0.6030
 6946TIP3    H242398   2.099   3.443   0.372 -1.0584  0.2505 -0.2857
 6947TIP3   OH242399   4.609   6.236   7.607 -0.5862 -0.7410  0.1660
 6947TIP3    H142400   4.643   6.187   7.532 -1.8576 -0.5824 -0.5548
 6947TIP3    H242401   4.614   6.328   7.579  0.3088 -0.5531  0.8829
 6948TIP3   OH242402   6.694   3.659   7.892 -0.0567 -0.2171 -0.0627
 6948TIP3    H142403   6.779   3.670   7.849 -0.1785 -0.3728 -0.3451
 6948TIP3    H242404   6.655   3.583   7.848 -0.4041 -0.0539 -0.0337
 6949TIP3   OH242405   1.846   0.833   1.982 -0.5192  0.0269 -0.4071
 6949TIP3    H142406   1.751   0.835   1.993 -0.4683  0.5156 -0.0562
 6949TIP3    H242407   1.878   0.908   2.032  0.0014  0.2147 -1.0031
 6950TIP3   OH242408   5.111   6.575   0.176  0.2012  0.1988 -0.2519
 6950TIP3    H142409   5.182   6.639   0.176  1.1713 -0.8318  0.2396
 6950TIP3    H242410   5.082   6.570   0.267  1.4453 -1.4146  0.0954
 6951TIP3   OH242411   1.051   4.845   1.424 -0.1807  0.4880 -0.3533
 6951TIP3    H142412   1.013   4.774   1.373 -2.1771  2.2398 -1.4480
 6951TIP3    H242413   1.078   4.804   1.507 -1.8966 -1.3930 -0.6599
 6952TIP3   OH242414   3.801   4.481   1.892 -0.1506 -0.1459  0.5837
 6952TIP3    H142415   3.869   4.508   1.831 -0.4377  1.1896  0.8200
 6952TIP3    H242416   3.751   4.415   1.845  0.6437 -0.3471  0.0086
 6953TIP3   OH242417   0.363   6.017   2.200  0.3798 -0.0967 -0.3210
 6953TIP3    H142418   0.277   6.044   2.166  1.0797  1.3092 -1.0819
 6953TIP3    H242419   0.426   6.067   2.148  1.7015 -1.4667 -0.1111
 6954TIP3   OH242420   1.370   6.531   2.124 -0.5970  0.1598 -0.4220
 6954TIP3    H142421   1.316   6.467   2.078  0.3975  0.4353 -2.0499
 6954TIP3    H242422   1.442   6.550   2.063  0.2066  1.3354  0.8394
 6955TIP3   OH242423   0.242   5.130   8.441 -0.6016 -0.1915  0.9563
 6955TIP3    H142424   0.299   5.175   8.378  0.0233 -1.1940  0.7868
 6955TIP3    H242425   0.227   5.195   8.509 -1.5090  1.0160 -0.3315
 6956TIP3   OH242426   5.805   5.671   2.363  0.2784  0.3706 -0.1568
 6956TIP3    H142427   5.714   5.643   2.355  0.4557  0.2123 -2.2491
 6956TIP3    H242428   5.847   5.638   2.283  1.6786  2.2201 -0.2550
 6957TIP3   OH242429   3.353   5.487   2.101  0.2760 -0.3529 -0.1085
 6957TIP3    H142430   3.266   5.477   2.063 -0.3807  0.5079  1.1037
 6957TIP3    H242431   3.338   5.527   2.187  1.7080 -1.8474  0.9192
 6958TIP3   OH242432   3.704   3.182   0.706  0.1319  0.2365 -0.7824
 6958TIP3    H142433   3.627   3.209   0.757 -0.4134  2.3530 -2.5829
 6958TIP3    H242434   3.735   3.262   0.665  0.4721 -1.3061 -3.8220
 6959TIP3   OH242435   1.222   2.482   2.685 -0.0983  0.4148 -0.4354
 6959TIP3    H142436   1.268   2.403   2.714  1.3527  1.2430 -0.3465
 6959TIP3    H242437   1.223   2.540   2.761  0.7723  1.3203 -1.1049
 6960TIP3   OH242438   5.968   6.549   2.865 -0.4553 -0.7028 -0.3663
 6960TIP3    H142439   5.971   6.465   2.911  0.5141 -0.9923 -0.9303
 6960TIP3    H242440   6.029   6.605   2.914  0.4273 -0.9508 -1.1393
 6961TIP3   OH242441   6.507   6.385   1.778 -0.5393 -0.0618  0.1501
 6961TIP3    H142442   6.454   6.340   1.844 -0.6741  2.5035  1.9205
 6961TIP3    H242443   6.478   6.477   1.782  1.5622  0.7499 -1.3782
 6962TIP3   OH242444   5.009   3.575   7.633  0.5664 -0.1060  0.7736
 6962TIP3    H142445   5.049   3.630   7.700  0.6018  0.2607  0.4585
 6962TIP3    H242446   4.935   3.533   7.677  1.3438 -0.8620  1.3856
 6963TIP3   OH242447   6.314   0.109   8.396  0.3961 -0.1678 -0.8136
 6963TIP3    H142448   6.404   0.135   8.375  0.2887 -0.4729 -1.6772
 6963TIP3    H242449   6.260   0.181   8.363  0.2982 -0.1378 -0.5886
 6964TIP3   OH242450   0.402   6.015   1.358 -0.3588  0.2204 -0.1770
 6964TIP3    H142451   0.359   5.939   1.320  1.0105 -1.6224  1.7014
 6964TIP3    H242452   0.335   6.084   1.358 -1.6681 -0.9841 -1.8516
 6965TIP3   OH242453   2.112   6.227   7.791 -0.3619  0.0792  0.2321
 6965TIP3    H142454   2.028   6.269   7.810 -0.3871 -0.4179  1.3366
 6965TIP3    H242455   2.138   6.262   7.706 -1.8693 -0.0468 -0.3253
 6966TIP3   OH242456   5.747   3.819   2.716 -0.1037 -0.2026  0.5020
 6966TIP3    H142457   5.753   3.867   2.633  0.7759 -0.6640  0.2871
 6966TIP3    H242458   5.835   3.827   2.754 -1.0889  2.0881  2.5903
 6967TIP3   OH242459   3.491   5.604   1.046 -0.4020 -0.2684  0.0565
 6967TIP3    H142460   3.563   5.544   1.066 -0.9008 -0.4636  1.3780
 6967TIP3    H242461   3.479   5.654   1.127  0.2935  1.9647 -1.1428
 6968TIP3   OH242462   0.572   6.756   0.637  0.2022 -0.3853 -1.0683
 6968TIP3    H142463   0.641   6.697   0.667 -1.8544 -1.7970  1.2676
 6968TIP3    H242464   0.502   6.698   0.607 -0.8084  0.9336 -1.3404
 6969TIP3   OH242465   4.202   5.370   2.365 -0.2185  0.2214 -0.2816
 6969TIP3    H142466   4.119   5.389   2.321 -0.0678 -0.7348 -1.0061
 6969TIP3    H242467   4.265   5.357   2.295  0.2227 -0.4643  0.2225
 6970TIP3   OH242468   1.921   1.064   7.423  0.7226  1.2839 -0.0103
 6970TIP3    H142469   1.882   1.022   7.347  0.8497 -1.6381  1.3850
 6970TIP3    H242470   1.848   1.080   7.483  0.9814  0.6634  0.4867
 6971TIP3   OH242471   6.027   6.323   8.456  0.4974 -0.0216  0.4263
 6971TIP3    H142472   6.069   6.341   8.540  0.1879 -0.4421  0.6750
 6971TIP3    H242473   6.065   6.387   8.396  1.9996 -0.8214  0.4791
 6972TIP3   OH242474   1.101   0.196   0.431 -0.4127 -0.2210  0.0233
 6972TIP3    H142475   1.031   0.168   0.372 -1.0764  0.5238  0.4447
 6972TIP3    H242476   1.093   0.291   0.435 -1.0326 -0.3148  2.0861
 6973TIP3   OH242477   4.323   6.857   7.810  0.4649 -0.3508  1.1896
 6973TIP3    H142478   4.351   6.766   7.812  0.6006 -0.3096  1.1278
 6973TIP3    H242479   4.400   6.906   7.781  0.6191 -0.1288  1.9502
 6974TIP3   OH242480   6.073   4.015   7.436 -0.0589 -0.9079 -0.6034
 6974TIP3    H142481   6.017   4.015   7.359 -1.4172 -1.2070  0.3585
 6974TIP3    H242482   6.032   4.078   7.496  0.9090 -0.7625 -0.0651
 6975TIP3   OH242483   5.160   6.288   8.132 -0.1761 -0.1069  0.0028
 6975TIP3    H142484   5.172   6.213   8.074  0.4288  1.2418 -1.7165
 6975TIP3    H242485   5.065   6.293   8.146 -0.1979 -1.3676  0.4523
 6976TIP3   OH242486   4.842   1.902   1.123  0.0720 -0.2798 -0.1214
 6976TIP3    H142487   4.754   1.875   1.149  0.2786  1.1784  2.4150
 6976TIP3    H242488   4.899   1.833   1.156 -0.0158 -0.8496 -1.1087
 6977TIP3   OH242489   5.037   2.451   0.259 -0.7796 -0.4324  0.6955
 6977TIP3    H142490   5.085   2.528   0.228 -1.8885  0.5358  1.3145
 6977TIP3    H242491   5.087   2.377   0.226  0.1471  0.5522 -0.1800
 6978TIP3   OH242492   5.835   4.646   8.324  0.0207  0.0436 -0.5439
 6978TIP3    H142493   5.905   4.586   8.349  0.1721  0.2936 -0.3699
 6978TIP3    H242494   5.879   4.718   8.279  0.3623  1.9705  2.5226
 6979TIP3   OH242495   1.356   4.111   0.887 -0.3521  0.0572  0.6159
 6979TIP3    H142496   1.401   4.149   0.962 -0.1087  0.6533  0.1782
 6979TIP3    H242497   1.309   4.036   0.923  0.4847 -0.2063  1.1927
 6980TIP3   OH242498   5.997   5.183   6.950  0.4564 -0.2271  0.0258
 6980TIP3    H142499   6.012   5.136   7.032  0.2400 -1.4546 -0.6184
 6980TIP3    H242500   6.039   5.268   6.963 -0.2733 -0.0965  1.7006
 6981TIP3   OH242501   4.688   5.478   0.538 -0.8043 -0.2343 -0.6408
 6981TIP3    H142502   4.597   5.488   0.567 -0.2076 -2.4404  2.4980
 6981TIP3    H242503   4.724   5.567   0.544 -2.2524  0.3603 -0.0859
 6982TIP3   OH242504   4.352   4.702   8.402 -0.4264 -0.0225 -0.1930
 6982TIP3    H142505   4.283   4.761   8.432 -0.8216  0.3335 -1.6935
 6982TIP3    H242506   4.433   4.749   8.419 -0.6850  0.5311 -0.4736
 6983TIP3   OH242507   3.657   1.635   8.022  0.2866  0.2304  0.3702
 6983TIP3    H142508   3.658   1.542   7.998  1.1155  0.1900  0.5142
 6983TIP3    H242509   3.670   1.635   8.117  1.7193  0.5198  0.1979
 6984TIP3   OH242510   6.062   0.876   1.808  0.1123 -0.0576 -0.4662
 6984TIP3    H142511   6.100   0.847   1.891  1.1235 -2.8207 -1.7689
 6984TIP3    H242512   6.119   0.948   1.779  0.9368 -0.3945  0.2873
 6985TIP3   OH242513   1.505   6.211   1.101  0.1249 -0.2122  0.0753
 6985TIP3    H142514   1.526   6.224   1.193 -0.4918  0.1434  0.1672
 6985TIP3    H242515   1.509   6.116   1.089 -0.8893 -0.3524  0.7412
 6986TIP3   OH242516   0.715   1.496   7.961  0.2189 -0.6309  0.0647
 6986TIP3    H142517   0.640   1.469   8.014  0.2479  0.5201  0.7220
 6986TIP3    H242518   0.718   1.591   7.969  0.4532 -0.4463 -1.7223
 6987TIP3   OH242519   0.378   4.005   2.939 -0.3165 -0.0743 -0.2800
 6987TIP3    H142520   0.327   4.011   2.858 -1.7547 -1.3513  0.4892
 6987TIP3    H242521   0.346   4.077   2.992  0.2936  0.4771 -0.6440
 6988TIP3   OH242522   6.549   5.200   2.581 -0.6035 -0.4148 -0.2015
 6988TIP3    H142523   6.568   5.108   2.599 -1.1708 -0.2602  1.3443
 6988TIP3    H242524   6.455   5.207   2.594 -0.5204  0.4414 -0.0331
 6989TIP3   OH242525   6.819   0.241   7.805  0.0297  0.4828 -0.0214
 6989TIP3    H142526   6.754   0.179   7.772  0.0695  0.7211 -0.5570
 6989TIP3    H242527   6.767   0.306   7.853 -0.0466  0.2324  0.2376
 6990TIP3   OH242528   4.403   5.063   8.054  0.2989  0.2486  0.3841
 6990TIP3    H142529   4.416   5.142   8.002 -1.5042  0.7660  0.6571
 6990TIP3    H242530   4.492   5.038   8.082  1.1118  0.9767 -1.3978
 6991TIP3   OH242531   2.437   0.391   0.893  0.2657 -0.2974  0.0744
 6991TIP3    H142532   2.529   0.389   0.918  0.3959 -0.1222 -0.3981
 6991TIP3    H242533   2.415   0.484   0.890  0.5610 -0.2560 -1.5977
 6992TIP3   OH242534   0.535   3.255   7.031  0.1310  0.4732 -0.1188
 6992TIP3    H142535   0.533   3.319   6.960 -0.2447  0.3818 -0.1903
 6992TIP3    H242536   0.607   3.196   7.008 -0.3702  0.0914 -0.7357
 6993TIP3   OH242537   1.915   3.531   8.002  0.3784  0.0621 -0.0049
 6993TIP3    H142538   1.909   3.572   8.088 -0.2987 -1.8098  0.9036
 6993TIP3    H242539   2.007   3.508   7.993  0.4283  0.1296  0.3037
 6994TIP3   OH242540   3.019   5.210   0.423  0.0429  0.1436  0.1269
 6994TIP3    H142541   3.035   5.296   0.385  1.2030 -0.6770 -1.3538
 6994TIP3    H242542   3.076   5.206   0.500 -0.0628  0.7097  0.2349
 6995TIP3   OH242543   5.253   5.709   7.894  0.0162  0.0758 -0.0894
 6995TIP3    H142544   5.341   5.698   7.932 -0.1783 -3.0851 -0.2489
 6995TIP3    H242545   5.204   5.757   7.961  2.0030  2.6761 -0.3441
 6996TIP3   OH242546   4.209   1.431   7.918 -0.0302  0.4001  0.0638
 6996TIP3    H142547   4.275   1.373   7.880  0.7774  0.8518  0.7540
 6996TIP3    H242548   4.223   1.515   7.875 -1.5051  0.0062 -1.2811
 6997TIP3   OH242549   5.831   5.180   8.224 -0.1022 -0.3865  0.3060
 6997TIP3    H142550   5.803   5.102   8.175 -1.5865 -0.9396  1.8997
 6997TIP3    H242551   5.782   5.252   8.184  0.4961 -0.4231 -0.5176
 6998TIP3   OH242552   3.001   2.265   1.590  0.5425  0.0707 -0.0441
 6998TIP3    H142553   3.085   2.280   1.548  0.6249  0.5251  0.2643
 6998TIP3    H242554   3.019   2.278   1.684 -0.3400  2.5868 -0.1410
 6999TIP3   OH242555   3.436   2.701   0.259  0.4913  0.6455  0.3195
 6999TIP3    H142556   3.418   2.614   0.225  0.3360  0.7637  0.0947
 6999TIP3    H242557   3.501   2.737   0.198  1.5406  0.2014  1.1509
 7000TIP3   OH242558   4.540   5.199   7.150 -0.8666  0.2733 -0.0856
 7000TIP3    H142559   4.625   5.180   7.110 -0.4160  0.4037  0.7984
 7000TIP3    H242560   4.554   5.185   7.243 -1.0754  2.8354  0.4074
 7001TIP3   OH242561   3.411   3.415   2.886 -0.2875  0.3814 -0.3869
 7001TIP3    H142562   3.491   3.466   2.896  0.3062 -0.6835  0.6023
 7001TIP3    H242563   3.340   3.480   2.890  0.5031  1.3058 -1.0064
 7002TIP3   OH242564   4.574   5.827   0.271  0.7856 -0.5640  0.3335
 7002TIP3    H142565   4.479   5.834   0.259  1.0189  1.2900 -0.7608
 7002TIP3    H242566   4.607   5.800   0.186  1.4945  2.0884 -0.3197
 7003TIP3   OH242567   6.465   4.315   1.070 -0.2497  0.1541  0.6607
 7003TIP3    H142568   6.490   4.240   1.015 -1.5587 -0.4113  0.8098
 7003TIP3    H242569   6.432   4.275   1.150 -0.8034  0.9014  0.8064
 7004TIP3   OH242570   2.904   1.374   0.245  0.0568 -0.3250 -0.7594
 7004TIP3    H142571   2.872   1.446   0.299 -1.4927 -2.5504  1.4845
 7004TIP3    H242572   2.862   1.388   0.160 -1.4409  0.5939  0.0862
 7005TIP3   OH242573   3.888   3.136   7.568  0.5478 -0.9405 -0.3850
 7005TIP3    H142574   3.848   3.222   7.552 -1.0550 -1.9129 -1.8312
 7005TIP3    H242575   3.842   3.103   7.645  0.1364 -1.1084 -0.6999
 7006TIP3   OH242576   1.236   5.116   0.844  0.0829  0.8131  0.1397
 7006TIP3    H142577   1.218   5.067   0.924  1.3268  0.3301  0.1391
 7006TIP3    H242578   1.211   5.057   0.773  1.5169  0.1685  0.1397
 7007TIP3   OH242579   0.904   4.440   1.413  0.7250  0.2255 -0.2898
 7007TIP3    H142580   0.988   4.479   1.438  0.5126  0.8507 -0.5392
 7007TIP3    H242581   0.840   4.483   1.469  0.4771  0.2681 -0.6031
 7008TIP3   OH242582   2.294   3.890   1.614 -0.2035 -0.0990  0.0366
 7008TIP3    H142583   2.377   3.855   1.582 -0.9956 -1.5074 -0.5439
 7008TIP3    H242584   2.319   3.948   1.687  1.2318 -0.9886  0.2827
 7009TIP3   OH242585   5.363   1.686   0.349  0.2238  0.2008 -0.5848
 7009TIP3    H142586   5.365   1.628   0.425  0.7059  3.0521  1.8069
 7009TIP3    H242587   5.313   1.638   0.283  0.1268 -2.6150  1.3563
 7010TIP3   OH242588   4.998   3.770   8.459  0.3723 -0.0018  0.0234
 7010TIP3    H142589   4.913   3.757   8.417  0.0357  0.3160  0.5930
 7010TIP3    H242590   5.059   3.721   8.405  0.0189  0.7388 -1.0962
 7011TIP3   OH242591   5.391   1.471   7.867  0.0491 -0.5777  0.0930
 7011TIP3    H142592   5.429   1.489   7.781  1.1164 -0.6023  0.5541
 7011TIP3    H242593   5.440   1.396   7.900  0.9833  0.6366  1.5520
 7012TIP3   OH242594   6.409   1.241   2.154 -0.0314  0.1868 -0.0231
 7012TIP3    H142595   6.383   1.154   2.184  1.1151 -0.0229  0.4497
 7012TIP3    H242596   6.359   1.255   2.074 -1.2229 -0.3469  0.5975
 7013TIP3   OH242597   5.705   3.340   2.811 -0.1877  0.1610 -0.1132
 7013TIP3    H142598   5.707   3.274   2.741  1.1262  1.6653 -1.5950
 7013TIP3    H242599   5.710   3.290   2.892  2.3798 -1.5433 -1.1986
 7014TIP3   OH242600   4.576   1.072   1.285  0.0590  0.6154  0.1140
 7014TIP3    H142601   4.598   1.016   1.359 -0.3392 -1.4212 -1.2434
 7014TIP3    H242602   4.660   1.100   1.249  0.2591  1.8109  1.4050
 7015TIP3   OH242603   4.394   1.188   2.831 -0.1446 -0.0953 -0.0283
 7015TIP3    H142604   4.377   1.138   2.911  1.4437  0.1047  0.4538
 7015TIP3    H242605   4.313   1.237   2.817 -0.6509 -0.5482  1.1401
 7016TIP3   OH242606   5.809   6.752   1.818 -0.8469  0.2888  0.2451
 7016TIP3    H142607   5.807   6.783   1.727  1.2990  0.2570  0.1366
 7016TIP3    H242608   5.769   6.665   1.814  0.4730 -0.3120 -0.9630
 7017TIP3   OH242609   2.003   4.569   2.548 -0.4584 -0.2610 -0.7615
 7017TIP3    H142610   1.917   4.566   2.505 -0.6906 -0.8437 -0.2711
 7017TIP3    H242611   2.061   4.521   2.488 -0.7098 -0.7886 -0.5847
 7018TIP3   OH242612   2.878   1.975   1.639 -0.5902  0.1468 -0.4502
 7018TIP3    H142613   2.911   2.029   1.711 -1.4171 -0.0567  0.0992
 7018TIP3    H242614   2.891   2.029   1.561  0.8885  0.1244 -0.2447
 7019TIP3   OH242615   0.392   3.928   7.736 -0.0898  0.3303 -0.5739
 7019TIP3    H142616   0.389   3.924   7.832 -1.0893 -0.1512 -0.6212
 7019TIP3    H242617   0.326   3.993   7.713  2.0280  2.5456 -0.8353
 7020TIP3   OH242618   1.003   2.446   7.599  0.0313  0.0265  0.6739
 7020TIP3    H142619   0.955   2.528   7.586 -0.8223 -0.1377  2.5011
 7020TIP3    H242620   1.077   2.470   7.654  1.3538  0.0174 -1.0046
 7021TIP3   OH242621   3.345   2.206   8.413 -0.5214 -0.2464  0.0783
 7021TIP3    H142622   3.376   2.296   8.400  0.5031 -0.7097 -0.8571
 7021TIP3    H242623   3.380   2.158   8.338 -1.9797 -1.2065 -0.0338
 7022TIP3   OH242624   1.170   6.511   1.697  0.6076 -0.3353 -0.1746
 7022TIP3    H142625   1.109   6.570   1.742  1.2638 -0.0288  0.3291
 7022TIP3    H242626   1.205   6.563   1.625  0.7331 -0.3014 -0.0908
 7023TIP3   OH242627   6.227   5.859   2.130  0.0576  0.7061  0.7863
 7023TIP3    H142628   6.149   5.867   2.184 -0.7133 -1.0488 -0.0119
 7023TIP3    H242629   6.280   5.936   2.154 -1.1615  1.0804  2.4981
 7024TIP3   OH242630   1.573   2.250   7.626  0.3003  0.2254  0.5199
 7024TIP3    H142631   1.519   2.280   7.553  0.4280  1.7238  1.0024
 7024TIP3    H242632   1.663   2.261   7.595  0.4450 -2.7647 -0.4844
 7025TIP3   OH242633   1.114   2.313   8.648  0.2317  0.0586  0.2745
 7025TIP3    H142634   1.113   2.273   8.735 -0.5215  0.7038  0.5693
 7025TIP3    H242635   1.071   2.398   8.660 -2.0682 -0.8088 -1.1802
 7026TIP3   OH242636   1.086   6.114   0.768  0.3547 -0.2125  0.1682
 7026TIP3    H142637   1.106   6.197   0.810  0.3677 -0.8570  1.4827
 7026TIP3    H242638   1.168   6.065   0.770  0.7004  0.1736 -1.7534
 7027TIP3   OH242639   6.371   6.655   8.169  0.3520  0.0010 -0.3053
 7027TIP3    H142640   6.411   6.741   8.184 -1.3988  1.0561 -1.3438
 7027TIP3    H242641   6.367   6.647   8.073 -0.9484 -0.5034 -0.2259
 7028TIP3   OH242642   1.642   6.352   0.608  0.1328 -0.2075  0.1587
 7028TIP3    H142643   1.701   6.423   0.584 -0.4403 -0.2786 -1.5538
 7028TIP3    H242644   1.558   6.395   0.627  0.1790 -0.3015  0.6005
 7029TIP3   OH242645   0.571   5.853   0.780  0.1928  0.1693 -0.4046
 7029TIP3    H142646   0.580   5.850   0.875  0.6331  1.3552 -0.3889
 7029TIP3    H242647   0.636   5.917   0.752 -0.2319  0.1584 -1.4671
 7030TIP3   OH242648   3.264   0.414   8.254 -0.0960 -0.1009  1.0017
 7030TIP3    H142649   3.358   0.404   8.273 -0.1218 -1.5989  0.4581
 7030TIP3    H242650   3.258   0.415   8.159 -0.5110  1.7114  1.0018
 7031TIP3   OH242651   1.708   2.511   1.131  0.1890 -0.0198 -0.3812
 7031TIP3    H142652   1.731   2.516   1.224 -0.8547 -0.4064 -0.0901
 7031TIP3    H242653   1.688   2.418   1.116  0.3836  0.0350 -0.9989
 7032TIP3   OH242654   5.887   3.790   0.781 -0.4039  0.3781  0.0240
 7032TIP3    H142655   5.844   3.705   0.770  0.1041  0.3022 -1.7121
 7032TIP3    H242656   5.849   3.845   0.712 -1.4884  1.9239  1.7426
 7033TIP3   OH242657   5.711   3.187   6.631  0.2331  0.0597  0.2549
 7033TIP3    H142658   5.694   3.273   6.592 -0.4237  0.3876  1.2316
 7033TIP3    H242659   5.729   3.206   6.723  1.0758 -0.7648  0.2742
 7034TIP3   OH242660   6.640   4.326   7.754  0.0651  0.0663  0.7836
 7034TIP3    H142661   6.683   4.412   7.748 -0.1870  0.0851 -2.0401
 7034TIP3    H242662   6.549   4.343   7.732  0.2686 -1.0598 -1.1201
 7035TIP3   OH242663   1.169   3.281   2.230 -0.1957 -0.2933  0.0280
 7035TIP3    H142664   1.150   3.188   2.215  0.4254 -0.3731 -0.3021
 7035TIP3    H242665   1.258   3.292   2.196 -0.8413  0.7819 -1.4161
 7036TIP3   OH242666   5.220   6.270   0.048 -0.1931  0.6286 -0.0064
 7036TIP3    H142667   5.285   6.322   0.096  0.7098 -0.3144 -0.1602
 7036TIP3    H242668   5.173   6.222   0.116  0.8688 -0.4611 -0.0082
 7037TIP3   OH242669   4.503   6.489   8.240  0.3986  0.6453  0.6963
 7037TIP3    H142670   4.575   6.511   8.299 -0.3169  2.2426  1.0206
 7037TIP3    H242671   4.458   6.572   8.224 -0.7682 -0.1362 -0.3140
 7038TIP3   OH242672   2.562   6.174   0.036 -0.2307 -0.5023  0.1875
 7038TIP3    H142673   2.613   6.253   0.053  0.6142 -0.4342 -2.2395
 7038TIP3    H242674   2.514   6.194  -0.045 -1.1202 -1.9825  0.3144
 7039TIP3   OH242675   5.707   2.196   8.611 -0.4267  0.0901 -0.7705
 7039TIP3    H142676   5.675   2.263   8.551  0.6663  0.4605 -0.9664
 7039TIP3    H242677   5.744   2.245   8.684  0.8905 -0.2495 -1.1740
 7040TIP3   OH242678   5.725   0.307   8.417  0.5606 -0.2789  0.8587
 7040TIP3    H142679   5.668   0.278   8.488 -1.6353  1.6582  0.0257
 7040TIP3    H242680   5.756   0.393   8.445 -1.0428  0.9123 -0.8020
 7041TIP3   OH242681   6.802   1.864   1.591 -0.0978  0.3105  0.1899
 7041TIP3    H142682   6.813   1.821   1.676 -0.5477 -0.0258  0.0787
 7041TIP3    H242683   6.891   1.870   1.556 -0.1377 -1.9753 -0.4990
 7042TIP3   OH242684   4.480   1.507   7.814  0.1842  0.0812  0.2021
 7042TIP3    H142685   4.568   1.473   7.798 -0.3560 -0.3360 -2.1273
 7042TIP3    H242686   4.467   1.574   7.747 -1.6405 -0.5602 -0.1408
 7043TIP3   OH242687   3.062   5.510   0.317  0.9366 -0.5333  0.0280
 7043TIP3    H142688   3.085   5.563   0.393 -2.8004  0.4057  0.7030
 7043TIP3    H242689   3.028   5.573   0.254  0.7971 -1.6864 -1.0715
 7044TIP3   OH242690   3.693   4.379   0.712 -0.0798  0.0142 -0.4236
 7044TIP3    H142691   3.717   4.300   0.663 -0.3450 -0.0067 -0.5237
 7044TIP3    H242692   3.601   4.393   0.690 -0.1444  0.1200 -0.0861
 7045TIP3   OH242693   2.425   4.493   7.405  0.2579  0.2326  0.1378
 7045TIP3    H142694   2.390   4.514   7.319 -2.7872  0.5036  1.3188
 7045TIP3    H242695   2.456   4.403   7.398  0.2568  0.3316 -1.2731
 7046TIP3   OH242696   5.530   6.524   7.713  0.3957  0.3900 -0.0367
 7046TIP3    H142697   5.533   6.510   7.618 -0.7197 -0.8791  0.0911
 7046TIP3    H242698   5.586   6.601   7.727 -1.1334  1.9799 -1.9669
 7047TIP3   OH242699   0.793   5.127   0.790  0.2301  0.6754  0.1719
 7047TIP3    H142700   0.789   5.032   0.801  2.0796  0.3497 -1.3993
 7047TIP3    H242701   0.813   5.140   0.697  1.7592  2.5072  0.6780
 7048TIP3   OH242702   5.994   3.571   1.837  0.2311 -0.0732  0.1740
 7048TIP3    H142703   5.937   3.552   1.912 -0.5513  1.5005  0.0236
 7048TIP3    H242704   6.005   3.487   1.793  1.6211 -1.3009  2.6256
 7049TIP3   OH242705   4.502   3.226   0.368  0.1940  0.8081  0.4974
 7049TIP3    H142706   4.556   3.299   0.397 -0.0803  0.6237  1.5227
 7049TIP3    H242707   4.448   3.204   0.445 -0.7364  0.4565 -0.2385
 7050TIP3   OH242708   3.059   4.275   7.436 -0.4732  0.0162 -0.4013
 7050TIP3    H142709   3.067   4.275   7.341  1.9182 -0.5051 -0.2619
 7050TIP3    H242710   3.012   4.194   7.456  0.8507 -0.9536 -1.0669
 7051TIP3   OH242711   0.457   6.555   1.092  0.1137  0.1915  0.2830
 7051TIP3    H142712   0.382   6.571   1.150  1.4472  0.4055  2.0101
 7051TIP3    H242713   0.417   6.531   1.008 -1.8858  1.0810  0.9166
 7052TIP3   OH242714   2.905   3.522   1.420  0.3712  0.2941  0.5786
 7052TIP3    H142715   2.962   3.541   1.494 -0.8960 -1.3344  2.0536
 7052TIP3    H242716   2.901   3.604   1.371  1.4953  1.3280  2.1357
 7053TIP3   OH242717   0.243   5.236   3.347  0.1230  0.3606  0.0185
 7053TIP3    H142718   0.322   5.204   3.305 -1.0099 -0.4267 -1.6173
 7053TIP3    H242719   0.249   5.331   3.341  1.0935  0.3297  0.2699
 7054TIP3   OH242720   1.277   3.169   7.704 -0.4622 -0.2027 -0.4921
 7054TIP3    H142721   1.324   3.128   7.776 -1.1047 -1.2427 -0.6517
 7054TIP3    H242722   1.243   3.096   7.652 -1.8656  0.5221 -0.6331
 7055TIP3   OH242723   6.003   5.685   2.538  0.6541  0.5495  0.4471
 7055TIP3    H142724   6.040   5.597   2.544  1.8995  1.0450  0.4865
 7055TIP3    H242725   5.932   5.678   2.475  1.9451 -0.1218 -0.9941
 7056TIP3   OH242726   1.611   4.381   7.463  0.8578 -0.1302  0.3749
 7056TIP3    H142727   1.605   4.298   7.510 -0.6875 -0.2205  0.0913
 7056TIP3    H242728   1.634   4.446   7.529  2.3702 -0.8102  0.5463
 7057TIP3   OH242729   6.147   4.672   7.793  0.2825 -0.1939 -0.4397
 7057TIP3    H142730   6.211   4.743   7.791 -0.0319  0.1018 -0.0107
 7057TIP3    H242731   6.067   4.712   7.827  0.4497 -1.0148  0.9758
 7058TIP3   OH242732   1.035   1.581   7.066 -0.6958  0.2906 -0.3229
 7058TIP3    H142733   1.012   1.672   7.048  1.3766  0.6992 -1.0918
 7058TIP3    H242734   1.086   1.553   6.990 -1.1028 -1.4689 -0.0026
 7059TIP3   OH242735   3.797   4.086   0.751  0.6294  0.0910  0.0364
 7059TIP3    H142736   3.710   4.059   0.779  1.3973  0.4339  3.0550
 7059TIP3    H242737   3.857   4.039   0.808  2.3573  1.2891 -0.6844
 7060TIP3   OH242738   3.008   0.218   0.326 -0.7773 -0.5139 -0.1678
 7060TIP3    H142739   2.961   0.136   0.312  1.7496 -2.5373  2.0733
 7060TIP3    H242740   3.023   0.253   0.238 -2.6057 -2.0115 -1.1248
 7061TIP3   OH242741   6.432   4.080   7.745 -0.7375 -0.4221 -0.4933
 7061TIP3    H142742   6.502   4.082   7.809 -1.0398  2.5622 -0.1450
 7061TIP3    H242743   6.427   3.988   7.718  2.3556 -0.9640  0.4390
 7062TIP3   OH242744   6.036   4.467   8.154  0.1037  0.1713 -0.0025
 7062TIP3    H142745   6.048   4.552   8.197 -0.1349 -0.4426  1.3226
 7062TIP3    H242746   6.032   4.488   8.061 -0.9529  1.7279  0.3491
 7063TIP3   OH242747   4.065   3.958   1.405  0.2040  0.6685  0.0244
 7063TIP3    H142748   4.127   3.941   1.476  0.4494  0.8255 -0.1548
 7063TIP3    H242749   3.980   3.968   1.450 -0.1771 -2.0860  0.0855
 7064TIP3   OH242750   5.192   5.523   2.236  0.1523  0.3437  0.0566
 7064TIP3    H142751   5.264   5.552   2.180  0.2573  1.0131  0.5382
 7064TIP3    H242752   5.232   5.458   2.294 -0.1513 -1.0729 -1.2332
 7065TIP3   OH242753   2.309   5.586   2.205 -0.3909  0.2859  0.5092
 7065TIP3    H142754   2.331   5.679   2.212 -0.9984  0.4578  0.2239
 7065TIP3    H242755   2.335   5.561   2.116 -2.3033  0.7772 -0.2456
 7066TIP3   OH242756   6.841   1.532   8.178 -0.2348  0.3755  0.3640
 7066TIP3    H142757   6.807   1.619   8.156  0.2769 -0.0359 -2.4258
 7066TIP3    H242758   6.767   1.487   8.219 -0.8649  1.7159  0.7414
 7067LIG     C142759   4.063   5.439   4.469 -0.3297 -0.2344 -0.4302
 7067LIG     N142760   4.068   5.446   4.325 -0.0104 -0.4532  0.1694
 7067LIG     C242761   4.184   5.460   4.249 -0.9094 -0.2994 -0.6081
 7067LIG     N242762   4.169   5.454   4.117 -0.2974 -0.2367 -0.0249
 7067LIG     C342763   4.037   5.445   4.100  0.1972  0.2701 -0.2374
 7067LIG     C442764   3.974   5.435   4.224  0.0154  0.5541 -0.1604
 7067LIG     C542765   3.832   5.402   4.229  1.2291 -0.0453  0.8673
 7067LIG     O142766   3.761   5.392   4.330  0.2063  0.0283  0.3776
 7067LIG     N342767   3.774   5.393   4.097  0.6023  0.3728  0.0336
 7067LIG     C642768   3.839   5.414   3.974 -0.1233  0.4245 -0.3079
 7067LIG     O242769   3.774   5.408   3.875 -0.8914 -0.2210 -0.1792
 7067LIG     N442770   3.973   5.451   3.975 -0.0057 -0.0599  0.4897
 7067LIG     C742771   4.042   5.467   3.848 -0.3588 -0.0361 -0.9331
 7067LIG     C842772   3.626   5.361   4.092  0.3587 -0.2207  0.0954
 7067LIG     H142773   3.989   5.514   4.504  0.1769 -1.0791  2.6995
 7067LIG     H242774   4.160   5.462   4.517 -1.3261  0.3317  1.4039
 7067LIG     H342775   4.020   5.341   4.501 -1.3756 -0.0996 -1.3390
 7067LIG     H442776   4.280   5.489   4.291 -1.9298  0.5696  1.2365
 7067LIG     H542777   4.133   5.529   3.866 -2.0513  2.0588  1.2925
 7067LIG     H642778   3.993   5.521   3.764  1.5625  2.0392 -0.8327
 7067LIG     H742779   4.062   5.367   3.806 -2.5372 -0.5778 -0.8191
 7067LIG     H842780   3.609   5.257   4.058 -1.0679  0.3101 -0.8930
 7067LIG     H942781   3.584   5.434   4.020  2.3967  0.5716 -0.3473
 7067LIG    H1042782   3.585   5.377   4.194 -0.5132 -0.3341 -0.2276
   6.88322   6.88322   8.67488
