Title
42782
    1SAPS     N    1   1.274   5.453   6.953 -0.5574 -0.6105  0.1749
    1SAPS   HN1    2   1.272   5.545   6.904 -0.0200 -1.2090 -0.9945
    1SAPS   HN2    3   1.346   5.398   6.903 -0.1435  1.2275 -1.3798
    1SAPS   HN3    4   1.182   5.411   6.926  0.8250 -3.8648  0.1833
    1SAPS   C12    5   1.309   5.468   7.101 -0.1196  0.1190  0.1197
    1SAPS  H12A    6   1.380   5.549   7.108  0.1333 -0.1139  0.2672
    1SAPS   C13    7   1.195   5.508   7.187  0.0785  0.0437 -0.1728
    1SAPS  O13A    8   1.087   5.540   7.142  0.2536 -0.5129 -0.3092
    1SAPS  O13B    9   1.221   5.538   7.306 -0.3806  0.4818  0.4134
    1SAPS   C11   10   1.372   5.340   7.147  0.1189  0.4210 -0.4490
    1SAPS  H11A   11   1.290   5.266   7.134 -0.2188  0.6722  0.1606
    1SAPS  H11B   12   1.395   5.350   7.255 -0.9876 -0.1193 -0.1450
    1SAPS     P   13   1.621   5.270   7.123 -0.6278 -0.5607 -0.2226
    1SAPS   O13   14   1.700   5.399   7.134 -0.2282  0.2437 -1.2488
    1SAPS   O14   15   1.605   5.188   7.246 -0.4823 -0.3772 -0.2682
    1SAPS   O12   16   1.479   5.301   7.063  0.0922 -0.0292 -0.6362
    1SAPS   O11   17   1.680   5.176   7.015 -0.1079 -0.0307 -0.6173
    1SAPS    C1   18   1.622   5.157   6.879  0.1910 -0.2512 -0.1979
    1SAPS    HA   19   1.658   5.056   6.849  1.6405 -0.0853  0.9239
    1SAPS    HB   20   1.512   5.142   6.892  0.0815  1.5633  1.4794
    1SAPS    C2   21   1.660   5.268   6.784 -0.0589  0.6012  0.2632
    1SAPS    HS   22   1.620   5.361   6.830 -1.3226  0.2738 -0.1321
    1SAPS   O21   23   1.598   5.239   6.664  0.1283 -0.3900  0.5949
    1SAPS   C21   24   1.473   5.272   6.653 -0.2516 -0.4744 -0.0408
    1SAPS   O22   25   1.404   5.327   6.737  0.4490 -0.1707  0.2346
    1SAPS   C22   26   1.418   5.235   6.511  0.6712  0.0006 -0.0867
    1SAPS   H2R   27   1.497   5.183   6.452  0.0288 -2.1645  0.8790
    1SAPS   H2S   28   1.330   5.167   6.515  0.5207  0.2109  0.1756
    1SAPS    C3   29   1.807   5.271   6.765  0.0569  0.0949  0.2996
    1SAPS    HX   30   1.839   5.167   6.744 -1.5844 -0.0265 -1.8512
    1SAPS    HY   31   1.858   5.292   6.862  1.4385  1.5705 -0.7066
    1SAPS   O31   32   1.853   5.369   6.664 -0.0143 -0.7197  0.0816
    1SAPS   C31   33   1.880   5.491   6.706  0.2227  0.2396 -0.2226
    1SAPS   O32   34   1.880   5.523   6.823  0.8374  0.6634 -0.6984
    1SAPS   C32   35   1.888   5.582   6.582  0.3402  0.2348  0.3469
    1SAPS   H2X   36   1.782   5.615   6.570 -0.2339 -2.0733 -1.9680
    1SAPS   H2Y   37   1.921   5.522   6.494  3.9749  0.0471  1.6772
    1SAPS   C23   38   1.384   5.358   6.428  0.1617  0.0697 -0.0164
    1SAPS   H3R   39   1.302   5.416   6.476  1.8414  1.1917  1.6564
    1SAPS   H3S   40   1.346   5.316   6.332  1.8045  0.6621 -0.9666
    1SAPS   C24   41   1.506   5.455   6.399 -0.0569 -0.2778  0.4373
    1SAPS   H4R   42   1.540   5.488   6.499 -2.3368  1.2910  0.7906
    1SAPS   H4S   43   1.468   5.548   6.350  0.0626 -0.7687 -0.6265
    1SAPS   C25   44   1.628   5.395   6.335 -0.6964  0.0901 -0.6079
    1SAPS   H5R   45   1.695   5.359   6.416  0.4622  1.7255 -0.7932
    1SAPS   C26   46   1.663   5.379   6.206  0.5593 -0.5917 -0.4405
    1SAPS   H6R   47   1.765   5.344   6.182  0.7844 -0.2505 -0.0110
    1SAPS   C27   48   1.591   5.421   6.079  0.1271 -0.4535  0.8412
    1SAPS   H7R   49   1.668   5.476   6.021 -2.8520  3.4610  0.2321
    1SAPS   H7S   50   1.511   5.495   6.097 -1.7511 -2.5242  1.4897
    1SAPS   C28   51   1.531   5.301   6.001  0.8866  0.2997 -0.2372
    1SAPS   H8R   52   1.444   5.257   6.050  2.8068 -0.9248  2.2491
    1SAPS   C29   53   1.572   5.239   5.891  0.2105 -0.0084 -0.7809
    1SAPS   H9R   54   1.502   5.162   5.854 -0.9289  1.0171 -0.8234
    1SAPS  C210   55   1.683   5.279   5.798 -0.1464 -0.2057  0.2096
    1SAPS  H10R   56   1.777   5.245   5.847 -0.0011 -3.0362 -1.7602
    1SAPS  H10S   57   1.691   5.390   5.789 -0.0399 -0.2571 -0.3484
    1SAPS  C211   58   1.674   5.210   5.666 -0.1635 -0.0609 -0.0347
    1SAPS  H11R   59   1.759   5.144   5.644 -0.6829 -0.5151 -0.7285
    1SAPS  C212   60   1.586   5.232   5.564  0.1977 -0.2193  0.2649
    1SAPS  H12R   61   1.600   5.172   5.473  0.3562  1.1054 -0.6145
    1SAPS  C213   62   1.472   5.333   5.563  0.6421 -0.2745 -0.1530
    1SAPS  H13R   63   1.519   5.426   5.525 -1.5560  0.8658 -0.1935
    1SAPS  H13S   64   1.447   5.362   5.667  0.2467  1.8216 -0.8050
    1SAPS  C214   65   1.348   5.289   5.486  0.5286  0.3652 -0.4722
    1SAPS  H14R   66   1.288   5.227   5.554  3.2702 -0.4632  1.3863
    1SAPS  C215   67   1.314   5.309   5.361  0.3279  0.5865 -0.2953
    1SAPS  H15R   68   1.223   5.254   5.331 -1.0203  3.2225 -1.3429
    1SAPS  C216   69   1.389   5.380   5.250  0.2481  0.1621 -0.0197
    1SAPS  H16R   70   1.461   5.312   5.199  0.2455  0.2700 -0.1658
    1SAPS  H16S   71   1.439   5.469   5.294  1.8342 -0.1575 -1.0841
    1SAPS  C217   72   1.302   5.435   5.133  0.3500 -0.0191 -0.6671
    1SAPS  H17R   73   1.226   5.499   5.183  0.9340  0.2744 -0.1392
    1SAPS  H17S   74   1.249   5.360   5.071 -0.6632  0.5028 -0.4611
    1SAPS  C218   75   1.378   5.534   5.040 -0.0824  0.2303 -0.3368
    1SAPS  H18R   76   1.426   5.465   4.968  2.6419 -2.3677  3.5498
    1SAPS  H18S   77   1.458   5.594   5.088 -0.9403 -0.0246  1.4936
    1SAPS  C219   78   1.287   5.636   4.970  0.8694 -0.7631  0.1921
    1SAPS  H19R   79   1.236   5.705   5.040 -0.0656 -2.5481  1.3479
    1SAPS  H19S   80   1.201   5.583   4.922  0.3407 -1.3211  1.7044
    1SAPS  C220   81   1.362   5.720   4.868  0.4075  0.7262 -0.5977
    1SAPS  H20R   82   1.410   5.793   4.938 -0.6295  0.2774  0.6220
    1SAPS  H20S   83   1.303   5.773   4.790 -0.6929  0.2018 -0.1358
    1SAPS  H20T   84   1.444   5.665   4.818 -0.6202  0.3632 -1.9417
    1SAPS   C33   85   1.992   5.694   6.584 -0.1642 -0.1933 -0.0168
    1SAPS   H3X   86   2.094   5.650   6.582 -0.9424 -2.1294  0.0180
    1SAPS   H3Y   87   1.991   5.734   6.688  1.1609  0.5265 -0.2587
    1SAPS   C34   88   1.963   5.798   6.478  1.0824  0.1720  0.4496
    1SAPS   H4X   89   2.014   5.892   6.509 -0.2665  0.7132  1.1104
    1SAPS   H4Y   90   1.854   5.821   6.475  0.4446 -2.6112 -0.5986
    1SAPS   C35   91   2.010   5.752   6.339  1.3266  0.8322 -0.6210
    1SAPS   H5X   92   1.954   5.657   6.323  0.7372  0.8949  0.9118
    1SAPS   H5Y   93   2.115   5.717   6.345  0.8880 -1.0159 -2.3797
    1SAPS   C36   94   1.977   5.836   6.216  0.3253  0.6560  0.6461
    1SAPS   H6X   95   2.015   5.941   6.220  2.3061  0.3452 -3.8271
    1SAPS   H6Y   96   1.868   5.840   6.195  0.6400 -1.0135 -1.5939
    1SAPS   C37   97   2.036   5.769   6.088 -0.1672  0.3011 -0.8886
    1SAPS   H7X   98   1.990   5.670   6.066 -1.4669  1.1465 -2.1239
    1SAPS   H7Y   99   2.143   5.759   6.118 -0.4959  2.1057  1.0434
    1SAPS   C38  100   2.030   5.860   5.962 -0.3762  0.4529  0.0678
    1SAPS   H8X  101   2.097   5.940   6.000 -0.9874  0.3925  1.3188
    1SAPS   H8Y  102   1.929   5.887   5.923 -0.6693 -0.6345  0.0509
    1SAPS   C39  103   2.100   5.794   5.842 -0.2713  0.3706 -0.1562
    1SAPS   H9X  104   2.065   5.690   5.825  1.9620 -0.0971 -2.5593
    1SAPS   H9Y  105   2.207   5.791   5.870 -0.3406 -4.0064  0.4425
    1SAPS  C310  106   2.092   5.866   5.710 -0.4044  0.2228 -0.5673
    1SAPS  H10X  107   2.126   5.968   5.739 -0.0737 -0.6777  2.5827
    1SAPS  H10Y  108   1.985   5.882   5.682 -0.3227 -0.1623 -1.1174
    1SAPS  C311  109   2.177   5.809   5.605  0.7936 -0.0927  0.5234
    1SAPS  H11X  110   2.205   5.702   5.613 -0.6493 -0.4854  0.5100
    1SAPS  H11Y  111   2.269   5.870   5.585 -0.6547  1.2867 -2.6021
    1SAPS  C312  112   2.111   5.799   5.468  0.3121 -0.3850  0.2553
    1SAPS  H12X  113   2.188   5.786   5.390  0.5616  3.6613 -0.3682
    1SAPS  H12Y  114   2.056   5.891   5.439  1.2842  0.5825  1.4094
    1SAPS  C313  115   1.993   5.687   5.457  0.1074 -0.2756 -0.4701
    1SAPS  H13X  116   1.940   5.696   5.360  1.6002 -2.7087 -1.6130
    1SAPS  H13Y  117   1.919   5.699   5.540  0.5175  0.7281 -0.2400
    1SAPS  C314  118   2.053   5.541   5.457  0.2951  0.0396 -0.5013
    1SAPS  H14X  119   2.122   5.518   5.541  0.1779  1.4853  0.0339
    1SAPS  H14Y  120   2.118   5.523   5.369 -2.3496 -3.0925 -2.0194
    1SAPS  C315  121   1.940   5.434   5.461 -0.1036 -0.4588 -0.8187
    1SAPS  H15X  122   1.861   5.460   5.535  1.0598  0.1986  0.2393
    1SAPS  H15Y  123   1.989   5.348   5.512  0.2732  0.9813  1.3949
    1SAPS  C316  124   1.880   5.382   5.332 -0.2594 -0.5325 -0.6282
    1SAPS  H16X  125   1.812   5.299   5.362 -0.1813 -0.7519 -1.0421
    1SAPS  H16Y  126   1.958   5.338   5.266 -0.0918 -0.1185 -0.7091
    1SAPS  C317  127   1.798   5.481   5.246 -0.0011  0.5528  0.2415
    1SAPS  H17X  128   1.862   5.564   5.210  2.0467 -0.9026  0.3289
    1SAPS  H17Y  129   1.711   5.520   5.303 -1.3289 -0.4884 -0.9705
    1SAPS  C318  130   1.730   5.415   5.127 -0.0166  0.4836  0.2336
    1SAPS  H18X  131   1.660   5.339   5.166  2.3661 -2.4476 -0.8631
    1SAPS  H18Y  132   1.803   5.356   5.069 -1.0947 -2.2331  1.4404
    1SAPS  H18Z  133   1.692   5.496   5.061 -1.6939  0.5998  1.2824
    2SAPS     N  134   4.710   1.102   7.283 -0.2279  0.2782 -0.3047
    2SAPS   HN1  135   4.739   1.080   7.381 -0.0027  1.8668  0.0158
    2SAPS   HN2  136   4.627   1.043   7.263  0.7339 -1.9235  1.6608
    2SAPS   HN3  137   4.775   1.069   7.209  2.4149 -0.0769  1.9848
    2SAPS   C12  138   4.685   1.248   7.263  1.2512  0.2746  0.5225
    2SAPS  H12A  139   4.603   1.279   7.326 -0.1340  0.4973 -1.2943
    2SAPS   C13  140   4.796   1.342   7.311 -0.1967  0.1135 -0.2787
    2SAPS  O13A  141   4.886   1.283   7.378  0.1548  0.1434 -0.0791
    2SAPS  O13B  142   4.803   1.463   7.291  0.5133  0.1101  0.1539
    2SAPS   C11  143   4.659   1.267   7.105 -0.7453 -0.0950 -0.6790
    2SAPS  H11A  144   4.628   1.371   7.081 -0.7268  0.3679  1.1808
    2SAPS  H11B  145   4.574   1.200   7.078 -1.1971  0.1027  0.2316
    2SAPS     P  146   4.822   1.125   6.958  0.2085  0.0552 -0.2529
    2SAPS   O13  147   4.872   1.030   7.055 -0.1883  0.0784 -0.1884
    2SAPS   O14  148   4.699   1.082   6.882 -0.2198  0.4802 -0.2636
    2SAPS   O12  149   4.784   1.262   7.033  0.0130 -0.2655  0.3196
    2SAPS   O11  150   4.930   1.181   6.865 -0.0770  0.0370  0.3060
    2SAPS    C1  151   4.952   1.316   6.816  0.1707  0.5510 -0.4389
    2SAPS    HA  152   4.873   1.380   6.861  0.5004  0.2813  0.5617
    2SAPS    HB  153   5.045   1.362   6.856  0.8216 -1.6012  0.7003
    2SAPS    C2  154   4.953   1.318   6.660 -0.8149 -0.3661 -0.1447
    2SAPS    HS  155   5.037   1.251   6.632 -0.6726  0.1508 -0.9987
    2SAPS   O21  156   4.979   1.453   6.616 -0.3421 -0.0212 -0.1126
    2SAPS   C21  157   5.101   1.497   6.626 -0.2655  0.2194  0.0500
    2SAPS   O22  158   5.197   1.431   6.675  0.2931 -0.2639  0.0906
    2SAPS   C22  159   5.105   1.642   6.570 -0.3009 -0.1848  0.5474
    2SAPS   H2R  160   5.002   1.678   6.553 -0.0915  0.7217  1.1384
    2SAPS   H2S  161   5.147   1.713   6.644 -1.3655  2.7832 -1.5096
    2SAPS    C3  162   4.817   1.258   6.606  0.2986 -0.0895  0.2073
    2SAPS    HX  163   4.732   1.304   6.661  0.1968  1.1711 -0.9527
    2SAPS    HY  164   4.815   1.149   6.626  0.7293 -0.6986 -2.5438
    2SAPS   O31  165   4.794   1.296   6.464 -0.3812  0.7301  0.1830
    2SAPS   C31  166   4.879   1.237   6.383  0.0949 -0.1937 -0.3008
    2SAPS   O32  167   4.942   1.135   6.404  0.4445  0.0492 -0.2049
    2SAPS   C32  168   4.878   1.310   6.248 -0.4263  0.3203  0.9584
    2SAPS   H2X  169   4.969   1.374   6.247  1.2481 -1.8997  1.8810
    2SAPS   H2Y  170   4.785   1.370   6.248 -0.4812  0.2512  1.7450
    2SAPS   C23  171   5.173   1.665   6.439 -0.3311 -0.1610 -0.5925
    2SAPS   H3R  172   5.278   1.629   6.445 -1.2600 -2.7928  2.1686
    2SAPS   H3S  173   5.188   1.775   6.436 -1.0593  0.0354  1.5873
    2SAPS   C24  174   5.101   1.613   6.318 -0.4268 -0.2559 -0.5183
    2SAPS   H4R  175   4.994   1.641   6.332 -0.0481  0.4599  1.2139
    2SAPS   H4S  176   5.101   1.506   6.347 -0.8734  0.3031  1.7794
    2SAPS   C25  177   5.161   1.646   6.182 -0.4369 -0.3041  0.0475
    2SAPS   H5R  178   5.138   1.748   6.147 -0.0990  0.2314  1.3077
    2SAPS   C26  179   5.252   1.572   6.110 -0.4616  0.0246 -0.2182
    2SAPS   H6R  180   5.278   1.611   6.010  1.1346  1.4510  0.6924
    2SAPS   C27  181   5.310   1.435   6.151 -0.4532 -1.2208 -0.4565
    2SAPS   H7R  182   5.269   1.400   6.248  0.3987  1.8406  1.1435
    2SAPS   H7S  183   5.416   1.467   6.162 -1.0179  1.5069 -1.8400
    2SAPS   C28  184   5.298   1.337   6.039 -0.1824 -0.6275 -0.1945
    2SAPS   H8R  185   5.201   1.290   6.017 -0.0280 -1.3202  0.5587
    2SAPS   C29  186   5.399   1.300   5.952 -0.1817 -0.2737  1.0108
    2SAPS   H9R  187   5.371   1.224   5.877  0.1281 -0.0835  0.6977
    2SAPS  C210  188   5.546   1.341   5.953 -0.0883  0.7075  0.3622
    2SAPS  H10R  189   5.552   1.447   5.986  0.3335  0.8941 -0.2845
    2SAPS  H10S  190   5.589   1.336   5.850  1.0305  1.8090  0.7573
    2SAPS  C211  191   5.610   1.257   6.062  0.0564 -0.2730  0.2222
    2SAPS  H11R  192   5.551   1.223   6.148 -0.5451  0.6931  0.2058
    2SAPS  C212  193   5.742   1.237   6.062  0.5711 -0.7360  0.4272
    2SAPS  H12R  194   5.781   1.187   6.152 -0.6742  0.7571  1.8555
    2SAPS  C213  195   5.846   1.311   5.970  0.1911  0.3520 -0.3197
    2SAPS  H13R  196   5.935   1.326   6.035 -1.9137 -0.4750  3.0107
    2SAPS  H13S  197   5.803   1.409   5.940 -0.5039  0.5257  1.1719
    2SAPS  C214  198   5.847   1.222   5.849  0.1207 -0.2982 -0.1009
    2SAPS  H14R  199   5.805   1.123   5.867 -1.8051  0.8726  2.5355
    2SAPS  C215  200   5.907   1.249   5.735  0.4429  0.2287 -0.2801
    2SAPS  H15R  201   5.907   1.166   5.662  0.1318 -0.1294  0.1219
    2SAPS  C216  202   5.981   1.373   5.692  0.2965  0.7476  0.2482
    2SAPS  H16R  203   6.090   1.354   5.703  0.1851  0.7721  1.6261
    2SAPS  H16S  204   5.950   1.467   5.743 -4.3632  0.0590 -0.8630
    2SAPS  C217  205   5.943   1.392   5.546  0.7233  0.1910 -0.0914
    2SAPS  H17R  206   5.837   1.415   5.525  0.0439  0.1338  2.8897
    2SAPS  H17S  207   5.970   1.301   5.488  1.9619  0.5128 -0.0638
    2SAPS  C218  208   6.032   1.504   5.487  0.9269  0.0828 -0.1790
    2SAPS  H18R  209   6.138   1.470   5.488  0.2780 -2.1515 -1.1355
    2SAPS  H18S  210   6.033   1.598   5.546  3.4189 -0.3094  0.5056
    2SAPS  C219  211   5.996   1.540   5.341  0.0852 -0.4834 -0.1768
    2SAPS  H19R  212   6.055   1.628   5.305  0.1108 -0.6884 -0.6275
    2SAPS  H19S  213   5.892   1.577   5.332 -0.0396 -1.2755 -2.4664
    2SAPS  C220  214   6.012   1.430   5.236 -0.2240 -0.1388 -0.5628
    2SAPS  H20R  215   5.953   1.341   5.267  0.4843 -0.2668  0.4653
    2SAPS  H20S  216   6.118   1.399   5.231  0.8651  2.9583  1.1674
    2SAPS  H20T  217   5.987   1.452   5.130  1.6998 -0.9136 -1.2222
    2SAPS   C33  218   4.917   1.211   6.124 -0.0968  0.0566 -0.8641
    2SAPS   H3X  219   4.845   1.126   6.120  0.0713 -0.1065 -0.4534
    2SAPS   H3Y  220   5.017   1.169   6.148 -0.1530  0.8387  0.8002
    2SAPS   C34  221   4.911   1.278   5.985 -0.1233  0.0091 -0.2033
    2SAPS   H4X  222   4.967   1.374   5.981 -1.2940  0.6814 -1.2385
    2SAPS   H4Y  223   4.806   1.310   5.974  0.1639  0.3048 -2.7094
    2SAPS   C35  224   4.956   1.195   5.864 -0.4958 -0.1775 -0.0170
    2SAPS   H5X  225   4.882   1.119   5.833 -0.9426 -1.2928  3.3664
    2SAPS   H5Y  226   5.054   1.151   5.890 -1.2673 -1.6715  0.4579
    2SAPS   C36  227   4.978   1.284   5.740 -0.0073  0.1801 -0.3649
    2SAPS   H6X  228   5.023   1.382   5.768 -1.1035  0.4801  0.4279
    2SAPS   H6Y  229   4.872   1.305   5.715 -0.0355  0.3238 -0.1289
    2SAPS   C37  230   5.062   1.227   5.627  0.0764  0.0212 -0.0256
    2SAPS   H7X  231   5.028   1.125   5.596  0.2120 -0.4224  1.2319
    2SAPS   H7Y  232   5.164   1.210   5.668 -0.7019  0.8921  2.4452
    2SAPS   C38  233   5.077   1.321   5.508 -0.3992 -0.7161 -0.0299
    2SAPS   H8X  234   5.159   1.394   5.523 -1.4335  0.7254 -1.0166
    2SAPS   H8Y  235   4.983   1.379   5.494  0.1782 -0.0791 -1.5252
    2SAPS   C39  236   5.106   1.250   5.376 -0.1465 -0.2042 -0.0501
    2SAPS   H9X  237   5.026   1.181   5.341 -0.8765  1.5298 -2.0116
    2SAPS   H9Y  238   5.201   1.193   5.389  0.4648  0.5678 -0.9738
    2SAPS  C310  239   5.129   1.347   5.261  0.9456 -0.1039 -0.2454
    2SAPS  H10X  240   5.231   1.388   5.281  1.5210 -2.3415  1.8844
    2SAPS  H10Y  241   5.044   1.419   5.262  1.0338  0.0241 -1.3554
    2SAPS  C311  242   5.127   1.282   5.118  0.2131  0.4793 -0.6726
    2SAPS  H11X  243   5.140   1.361   5.041  0.5571  0.6450 -0.4535
    2SAPS  H11Y  244   5.029   1.235   5.095  1.0774 -2.0163  0.4076
    2SAPS  C312  245   5.247   1.175   5.094  0.6675 -0.8711 -0.9317
    2SAPS  H12X  246   5.210   1.085   5.148 -2.4093  0.9230  0.2339
    2SAPS  H12Y  247   5.343   1.216   5.130  0.3958 -0.9337 -0.1095
    2SAPS  C313  248   5.262   1.149   4.940  0.0355 -0.1025  0.2795
    2SAPS  H13X  249   5.347   1.078   4.938  0.3260  0.1775  1.5177
    2SAPS  H13Y  250   5.292   1.245   4.892 -0.4517  0.2355  0.6284
    2SAPS  C314  251   5.135   1.098   4.866  0.6099  0.4933 -0.6021
    2SAPS  H14X  252   5.056   1.175   4.881 -1.2563 -1.4755  0.2107
    2SAPS  H14Y  253   5.096   1.005   4.913  1.0333 -0.3751 -1.9428
    2SAPS  C315  254   5.161   1.062   4.719  0.2767  0.3036 -0.3881
    2SAPS  H15X  255   5.232   0.977   4.725  0.6772  0.6970  0.5271
    2SAPS  H15Y  256   5.207   1.149   4.667  1.2675 -0.5014 -0.9014
    2SAPS  C316  257   5.035   1.021   4.642  0.2202  0.3451  0.0260
    2SAPS  H16X  258   5.072   1.011   4.538 -1.9425 -0.7931 -0.7206
    2SAPS  H16Y  259   4.966   1.108   4.641 -0.3343 -0.0836  0.2150
    2SAPS  C317  260   4.956   0.897   4.685  0.0178 -0.2491 -0.2601
    2SAPS  H17X  261   4.915   0.918   4.786 -4.9673 -1.6779 -1.6939
    2SAPS  H17Y  262   5.021   0.807   4.684 -0.0819 -0.3599  1.0101
    2SAPS  C318  263   4.844   0.854   4.587 -0.8875  0.0170  0.2278
    2SAPS  H18X  264   4.766   0.931   4.571 -0.5769  0.0793 -1.1295
    2SAPS  H18Y  265   4.795   0.758   4.612 -1.2799  0.5355  1.4803
    2SAPS  H18Z  266   4.898   0.844   4.490 -0.7963  0.9832  0.1701
    3SAPS     N  267   3.084   6.461   7.162 -0.3453 -0.1276  0.1533
    3SAPS   HN1  268   3.113   6.559   7.144  2.9556 -1.1616 -0.9515
    3SAPS   HN2  269   3.168   6.399   7.161 -0.3754 -0.2479  2.2538
    3SAPS   HN3  270   3.018   6.442   7.083  0.3043  1.2710 -0.7664
    3SAPS   C12  271   3.023   6.460   7.297 -0.3896  0.4207 -0.3996
    3SAPS  H12A  272   3.001   6.361   7.333  2.6578 -1.1550 -2.5148
    3SAPS   C13  273   3.103   6.524   7.414 -0.2572  0.0226 -0.4946
    3SAPS  O13A  274   3.202   6.595   7.383  0.0033  0.1665 -0.0027
    3SAPS  O13B  275   3.049   6.525   7.531  0.0695  0.0825 -0.3924
    3SAPS   C11  276   2.892   6.527   7.291 -0.3415  0.0581 -0.1420
    3SAPS  H11A  277   2.903   6.638   7.292 -0.8995  0.1241  1.2638
    3SAPS  H11B  278   2.844   6.512   7.391  0.7230 -1.4524  0.1724
    3SAPS     P  279   2.653   6.443   7.200 -0.0168 -0.0528 -0.2744
    3SAPS   O13  280   2.622   6.380   7.334  0.0235  0.0195  0.5709
    3SAPS   O14  281   2.570   6.562   7.171  0.4580 -0.2205  0.0236
    3SAPS   O12  282   2.807   6.475   7.188  0.0833  0.3595  0.5245
    3SAPS   O11  283   2.636   6.331   7.093 -0.1446 -0.4754  0.3020
    3SAPS    C1  284   2.562   6.366   6.972 -1.4277 -0.1786 -0.5318
    3SAPS    HA  285   2.536   6.269   6.925  0.7799  0.4537 -3.2989
    3SAPS    HB  286   2.468   6.423   6.986 -1.0481  0.4020 -0.3294
    3SAPS    C2  287   2.658   6.436   6.872 -0.0872  0.1807 -0.1021
    3SAPS    HS  288   2.711   6.518   6.926 -0.4001  1.4243 -1.6174
    3SAPS   O21  289   2.564   6.476   6.767  0.3595  0.4912 -0.0324
    3SAPS   C21  290   2.595   6.581   6.698 -0.7391 -0.7532  0.5304
    3SAPS   O22  291   2.694   6.647   6.714 -0.0453  0.0090  0.1955
    3SAPS   C22  292   2.484   6.621   6.593  0.2798  0.5171 -0.3462
    3SAPS   H2R  293   2.388   6.596   6.644  1.1746 -0.1202  1.0825
    3SAPS   H2S  294   2.486   6.731   6.578 -0.7309  0.9619  2.1998
    3SAPS    C3  295   2.756   6.331   6.812 -0.1789 -0.5869 -0.0968
    3SAPS    HX  296   2.715   6.252   6.746  1.8556 -1.4169 -0.4410
    3SAPS    HY  297   2.807   6.269   6.889  1.1225 -3.3456 -2.9802
    3SAPS   O31  298   2.848   6.408   6.730  0.3418  0.4690  0.8287
    3SAPS   C31  299   2.961   6.443   6.794 -0.4114 -0.4921 -0.2121
    3SAPS   O32  300   2.988   6.415   6.908  0.2224 -0.1670  0.1634
    3SAPS   C32  301   3.064   6.517   6.700 -0.7151 -0.2989  0.5174
    3SAPS   H2X  302   3.078   6.458   6.607  0.2112 -1.1725  1.1961
    3SAPS   H2Y  303   3.157   6.526   6.759 -1.0656 -0.2068  1.0642
    3SAPS   C23  304   2.503   6.541   6.462 -0.3955 -0.4410  0.1240
    3SAPS   H3R  305   2.513   6.433   6.487  0.1953 -0.4198 -0.0218
    3SAPS   H3S  306   2.595   6.576   6.410 -1.8189  0.5250 -1.8892
    3SAPS   C24  307   2.381   6.562   6.374 -0.2161 -0.0439 -0.7398
    3SAPS   H4R  308   2.291   6.528   6.429 -0.5383 -1.2591 -1.9625
    3SAPS   H4S  309   2.391   6.487   6.293  0.6031 -0.7964  0.0343
    3SAPS   C25  310   2.365   6.700   6.310 -0.3424 -0.0731 -0.1531
    3SAPS   H5R  311   2.329   6.782   6.373 -1.4973 -0.3265 -0.4599
    3SAPS   C26  312   2.393   6.729   6.179 -0.4954 -0.3780  0.1350
    3SAPS   H6R  313   2.381   6.833   6.145  1.4723  0.2130  1.0654
    3SAPS   C27  314   2.456   6.638   6.075 -0.2384  0.0858  0.5318
    3SAPS   H7R  315   2.391   6.568   6.019  1.1959 -0.6845 -0.2267
    3SAPS   H7S  316   2.531   6.573   6.124 -0.2408 -1.0743 -0.9504
    3SAPS   C28  317   2.543   6.724   5.983  0.9900  0.6668  0.6703
    3SAPS   H8R  318   2.641   6.755   6.022  1.1299  1.0095  0.0599
    3SAPS   C29  319   2.515   6.763   5.856 -0.3158 -0.5269  0.7350
    3SAPS   H9R  320   2.580   6.833   5.803 -1.7671  0.6540  0.4751
    3SAPS  C210  321   2.386   6.724   5.783 -0.1343  0.9222 -0.0190
    3SAPS  H10R  322   2.325   6.815   5.762 -0.3869 -0.1281 -5.3364
    3SAPS  H10S  323   2.337   6.648   5.848  1.8976  1.1775  1.9227
    3SAPS  C211  324   2.415   6.660   5.645 -0.7200 -0.0836 -0.1754
    3SAPS  H11R  325   2.455   6.557   5.643  0.4104  0.3608 -1.0093
    3SAPS  C212  326   2.407   6.719   5.525 -0.4790  0.6432  0.3961
    3SAPS  H12R  327   2.449   6.664   5.439  2.2630  0.1219  1.9524
    3SAPS  C213  328   2.376   6.865   5.490  0.2990 -0.5909  0.1067
    3SAPS  H13R  329   2.467   6.906   5.440  0.4676 -0.5585  0.4365
    3SAPS  H13S  330   2.356   6.925   5.581 -0.2061  1.4996 -1.3204
    3SAPS  C214  331   2.270   6.875   5.382  0.4343  0.1132 -0.7581
    3SAPS  H14R  332   2.319   6.881   5.283 -0.3773  0.5680 -1.1361
    3SAPS  C215  333   2.139   6.901   5.395 -0.3416 -0.2261  0.6877
    3SAPS  H15R  334   2.090   6.924   5.299  0.5104  0.4759  0.4050
    3SAPS  C216  335   2.061   6.895   5.518  0.4249  0.1391 -0.8441
    3SAPS  H16R  336   2.019   6.996   5.537  0.1623  0.1103 -1.2702
    3SAPS  H16S  337   2.124   6.865   5.605 -1.3704  0.8816  0.8075
    3SAPS  C217  338   1.939   6.794   5.505  0.8264 -0.1163  0.3377
    3SAPS  H17R  339   1.870   6.811   5.591  0.8039  1.7755 -0.0013
    3SAPS  H17S  340   1.982   6.692   5.507 -0.8268 -1.0122 -2.8268
    3SAPS  C218  341   1.848   6.820   5.384 -0.6177 -0.1582 -0.4934
    3SAPS  H18R  342   1.894   6.802   5.285 -0.9135  1.0391 -0.8559
    3SAPS  H18S  343   1.824   6.928   5.388 -2.5750 -0.5613 -0.1521
    3SAPS  C219  344   1.720   6.748   5.374 -0.1827  0.3868 -0.0188
    3SAPS  H19R  345   1.747   6.641   5.375 -0.3249  0.3519  0.1594
    3SAPS  H19S  346   1.665   6.754   5.470 -2.9436  1.5757 -1.5545
    3SAPS  C220  347   1.633   6.763   5.257  0.4662  0.1721  0.4081
    3SAPS  H20R  348   1.688   6.790   5.164  0.7551 -0.1143  0.4959
    3SAPS  H20S  349   1.564   6.848   5.277  0.0680  0.1898 -0.9497
    3SAPS  H20T  350   1.563   6.677   5.255 -0.9017  1.2330  1.4346
    3SAPS   C33  351   3.020   6.655   6.648 -0.3956 -0.3124 -0.0975
    3SAPS   H3X  352   2.994   6.708   6.742  0.1984  0.0063 -0.1117
    3SAPS   H3Y  353   2.935   6.656   6.576  0.9323  2.4656 -1.8307
    3SAPS   C34  354   3.135   6.735   6.582  0.0205  0.8318 -0.4952
    3SAPS   H4X  355   3.203   6.755   6.668 -1.1296 -0.4144  0.7519
    3SAPS   H4Y  356   3.100   6.836   6.552 -0.6482 -0.1099 -3.1708
    3SAPS   C35  357   3.199   6.677   6.455 -0.1222  0.1967 -0.6610
    3SAPS   H5X  358   3.286   6.741   6.427  0.6236 -0.7710 -0.6231
    3SAPS   H5Y  359   3.234   6.574   6.481  0.1011  0.8747  1.9976
    3SAPS   C36  360   3.102   6.669   6.337  0.0849  0.2308 -0.4528
    3SAPS   H6X  361   3.053   6.769   6.325 -0.5967 -0.1091 -0.5525
    3SAPS   H6Y  362   3.020   6.600   6.368  0.0110  0.4347 -0.1852
    3SAPS   C37  363   3.173   6.629   6.204  0.3526 -0.1860 -0.8215
    3SAPS   H7X  364   3.213   6.531   6.239 -2.6222 -0.4193  2.4551
    3SAPS   H7Y  365   3.256   6.700   6.183  0.3648  0.2546  0.5874
    3SAPS   C38  366   3.071   6.619   6.083 -0.2156 -0.0321  0.3973
    3SAPS   H8X  367   3.137   6.598   5.995 -0.0295 -0.4379  0.6282
    3SAPS   H8Y  368   3.035   6.722   6.062 -0.7514  0.0896  1.8363
    3SAPS   C39  369   2.955   6.525   6.102  0.5992 -0.0486 -0.0530
    3SAPS   H9X  370   2.882   6.591   6.153  0.4201 -1.2643  1.3465
    3SAPS   H9Y  371   2.968   6.437   6.169 -1.6306 -0.5343 -0.1568
    3SAPS  C310  372   2.888   6.487   5.973 -1.1268 -0.2967  0.6994
    3SAPS  H10X  373   2.859   6.576   5.913 -2.7932 -1.3669 -0.1944
    3SAPS  H10Y  374   2.802   6.423   6.002  0.2827 -3.9155 -2.2885
    3SAPS  C311  375   2.963   6.396   5.875  0.1380 -0.3977 -0.1893
    3SAPS  H11X  376   2.991   6.301   5.927  1.0240  0.5701  1.1586
    3SAPS  H11Y  377   3.058   6.439   5.837 -0.2103  0.9128  0.3740
    3SAPS  C312  378   2.865   6.358   5.760 -1.0064  0.8465  0.1314
    3SAPS  H12X  379   2.820   6.444   5.705 -0.5307  0.9479 -0.1028
    3SAPS  H12Y  380   2.787   6.292   5.804 -1.3773  1.5546  0.5593
    3SAPS  C313  381   2.929   6.281   5.648  0.3602 -0.1868  0.5894
    3SAPS  H13X  382   2.966   6.182   5.684  0.5904 -0.1891  0.3506
    3SAPS  H13Y  383   3.024   6.322   5.606  0.4991 -1.2298 -0.1691
    3SAPS  C314  384   2.835   6.253   5.536 -0.1498 -0.1642  0.0681
    3SAPS  H14X  385   2.777   6.342   5.505 -1.3842 -0.7912  0.4589
    3SAPS  H14Y  386   2.746   6.191   5.561 -0.7693 -0.6063 -2.9202
    3SAPS  C315  387   2.918   6.218   5.414  0.2217  0.1139 -0.0978
    3SAPS  H15X  388   2.995   6.144   5.445 -0.4135 -0.3295  0.4721
    3SAPS  H15Y  389   2.978   6.301   5.372  0.2229  0.1506 -0.0237
    3SAPS  C316  390   2.828   6.150   5.309  0.4939  0.5151 -0.1878
    3SAPS  H16X  391   2.741   6.215   5.291  0.2756  0.3696  0.3157
    3SAPS  H16Y  392   2.800   6.051   5.353 -2.5956  0.7924 -1.2949
    3SAPS  C317  393   2.911   6.118   5.181  0.0029  0.4473  0.2361
    3SAPS  H17X  394   3.009   6.069   5.199 -0.5968 -0.1139  2.2917
    3SAPS  H17Y  395   2.917   6.224   5.149 -0.4846  0.5855  0.5864
    3SAPS  C318  396   2.827   6.054   5.060  0.2222 -1.1234 -0.2309
    3SAPS  H18X  397   2.880   6.062   4.962 -0.6241 -0.6331 -0.6551
    3SAPS  H18Y  398   2.733   6.111   5.045 -0.5974 -1.9753  1.4927
    3SAPS  H18Z  399   2.811   5.947   5.085  2.8515 -1.3331  0.9880
    4SAPS     N  400   0.637   5.363   7.031 -0.2028  0.0881 -0.5726
    4SAPS   HN1  401   0.684   5.270   7.025 -2.6144 -1.2343 -0.1014
    4SAPS   HN2  402   0.602   5.383   6.936 -0.6843  0.4647 -0.3186
    4SAPS   HN3  403   0.705   5.438   7.057 -1.3188  1.1572 -0.6795
    4SAPS   C12  404   0.523   5.359   7.119  0.3647  0.8385 -0.0883
    4SAPS  H12A  405   0.551   5.339   7.221  1.8212  0.5264 -0.5198
    4SAPS   C13  406   0.445   5.488   7.139 -0.1789 -0.3838 -0.8261
    4SAPS  O13A  407   0.480   5.598   7.086  0.1565 -0.4814  0.4008
    4SAPS  O13B  408   0.339   5.484   7.203  0.1339 -0.0386  0.4284
    4SAPS   C11  409   0.425   5.247   7.084  0.2374 -0.1988 -0.6816
    4SAPS  H11A  410   0.382   5.278   6.986  0.2937  0.8141 -0.3970
    4SAPS  H11B  411   0.343   5.251   7.159  0.4220  0.2097 -0.4980
    4SAPS     P  412   0.530   5.044   7.224 -0.3329  0.1938 -0.3606
    4SAPS   O13  413   0.641   5.109   7.297  0.4279  0.4014  0.2157
    4SAPS   O14  414   0.401   5.028   7.295  0.3181  0.3030 -0.0837
    4SAPS   O12  415   0.499   5.127   7.082  0.4217 -0.3606 -0.0645
    4SAPS   O11  416   0.583   4.907   7.151  0.3225 -0.1362  0.1035
    4SAPS    C1  417   0.484   4.809   7.113 -0.5143  0.1398 -0.0333
    4SAPS    HA  418   0.507   4.712   7.163 -2.0987 -0.8476 -1.1398
    4SAPS    HB  419   0.379   4.840   7.133  0.5153  2.0537  3.1246
    4SAPS    C2  420   0.494   4.777   6.958  0.2938  0.4957 -0.2120
    4SAPS    HS  421   0.593   4.731   6.938  0.1599 -0.8880  1.9076
    4SAPS   O21  422   0.465   4.895   6.880 -0.1765  0.4725  0.1927
    4SAPS   C21  423   0.573   4.951   6.832 -0.3185 -0.0414  0.3924
    4SAPS   O22  424   0.693   4.922   6.842 -0.0619 -0.5533 -0.3677
    4SAPS   C22  425   0.524   5.068   6.740 -0.0411  0.2686 -0.2469
    4SAPS   H2R  426   0.483   5.146   6.809  0.6531  0.3450  0.0868
    4SAPS   H2S  427   0.609   5.114   6.686 -1.9265  1.7004 -2.1775
    4SAPS    C3  428   0.387   4.671   6.921  0.4629  0.7217  0.0963
    4SAPS    HX  429   0.291   4.705   6.967  0.0283  2.1689 -1.7527
    4SAPS    HY  430   0.426   4.576   6.962 -2.6763 -1.5941 -1.8349
    4SAPS   O31  431   0.375   4.669   6.779  0.6518 -0.3943 -0.0072
    4SAPS   C31  432   0.280   4.593   6.739 -0.2622 -0.6368 -0.4766
    4SAPS   O32  433   0.206   4.529   6.813 -0.3581 -0.4174 -0.0368
    4SAPS   C32  434   0.280   4.588   6.587  0.1341 -0.0767 -0.3460
    4SAPS   H2X  435   0.383   4.606   6.549 -0.7791  0.4575 -2.7197
    4SAPS   H2Y  436   0.216   4.670   6.549 -0.6753 -0.6791 -0.3084
    4SAPS   C23  437   0.417   5.019   6.638 -0.0070  0.0040 -0.1163
    4SAPS   H3R  438   0.358   5.111   6.621  0.0141  0.2617  1.1209
    4SAPS   H3S  439   0.348   4.947   6.686  1.7942 -1.9618 -0.3315
    4SAPS   C24  440   0.482   4.966   6.510  0.8619 -0.4693 -0.3414
    4SAPS   H4R  441   0.543   4.880   6.545 -2.2565 -2.5934  0.3512
    4SAPS   H4S  442   0.530   5.056   6.467 -1.5948  0.9399 -0.3065
    4SAPS   C25  443   0.385   4.926   6.409 -0.0537  0.0406  0.6226
    4SAPS   H5R  444   0.289   4.979   6.415  0.1557  0.8527 -2.0723
    4SAPS   C26  445   0.411   4.842   6.308 -0.6558  0.5082  0.1851
    4SAPS   H6R  446   0.328   4.824   6.237 -1.6582 -2.6278  1.9600
    4SAPS   C27  447   0.537   4.769   6.277 -0.5190  0.6594  0.7976
    4SAPS   H7R  448   0.505   4.678   6.220  1.4511 -0.3567  1.2337
    4SAPS   H7S  449   0.596   4.737   6.365  0.7778 -1.9831 -0.9042
    4SAPS   C28  450   0.619   4.854   6.188  0.4560  0.4453  0.1510
    4SAPS   H8R  451   0.629   4.961   6.214  1.4320  0.2599  0.6139
    4SAPS   C29  452   0.689   4.810   6.085 -0.8881 -0.1676  0.1061
    4SAPS   H9R  453   0.752   4.885   6.034 -2.2325 -1.1708 -3.2728
    4SAPS  C210  454   0.695   4.666   6.041  0.6449  0.4964 -0.3729
    4SAPS  H10R  455   0.711   4.598   6.127 -0.6671 -1.3215 -1.5106
    4SAPS  H10S  456   0.783   4.655   5.975  1.6068  0.0938  0.9360
    4SAPS  C211  457   0.568   4.628   5.963  0.0502 -0.5692 -0.0930
    4SAPS  H11R  458   0.480   4.677   6.006  0.5721 -0.5171  0.9613
    4SAPS  C212  459   0.563   4.549   5.855 -0.1700 -0.1413  0.1581
    4SAPS  H12R  460   0.463   4.535   5.811 -0.9747  1.7808  1.2613
    4SAPS  C213  461   0.678   4.479   5.784  0.0412 -0.3251  0.1483
    4SAPS  H13R  462   0.775   4.475   5.839 -0.4120  0.3353  1.0198
    4SAPS  H13S  463   0.683   4.516   5.679  1.7845 -1.4138 -0.2056
    4SAPS  C214  464   0.635   4.332   5.773  0.8178 -0.1171 -0.1676
    4SAPS  H14R  465   0.628   4.271   5.864 -0.6545 -0.3501 -0.4213
    4SAPS  C215  466   0.599   4.265   5.661  0.7243  0.2500 -0.3352
    4SAPS  H15R  467   0.568   4.160   5.669 -2.6892  1.2055  0.9022
    4SAPS  C216  468   0.611   4.310   5.517 -0.1714  0.4270 -0.3697
    4SAPS  H16R  469   0.597   4.420   5.519  0.4146  0.5566 -1.9585
    4SAPS  H16S  470   0.536   4.252   5.459 -1.2358 -0.4537  1.7564
    4SAPS  C217  471   0.751   4.286   5.451 -0.1712  0.1819 -0.4418
    4SAPS  H17R  472   0.783   4.179   5.449 -1.6232 -0.2972  0.5574
    4SAPS  H17S  473   0.834   4.341   5.500  0.4106 -1.0552  0.0123
    4SAPS  C218  474   0.759   4.325   5.306 -0.0152  0.3064 -0.2188
    4SAPS  H18R  475   0.710   4.246   5.244  0.2986  0.7579 -1.0563
    4SAPS  H18S  476   0.865   4.330   5.273 -0.2725  0.3699 -1.0565
    4SAPS  C219  477   0.693   4.451   5.255  0.2340  1.0157 -0.2823
    4SAPS  H19R  478   0.754   4.537   5.290  0.9348  0.6472 -0.5687
    4SAPS  H19S  479   0.591   4.455   5.298 -0.6391  1.0275 -2.2337
    4SAPS  C220  480   0.703   4.453   5.099  0.0445  0.1933 -0.7720
    4SAPS  H20R  481   0.807   4.437   5.062  0.4443  1.7028 -0.3694
    4SAPS  H20S  482   0.659   4.541   5.048 -2.1583 -0.8878 -0.8507
    4SAPS  H20T  483   0.643   4.369   5.058 -0.4554  1.0299 -1.7865
    4SAPS   C33  484   0.198   4.467   6.536 -0.2623  0.3299 -0.4199
    4SAPS   H3X  485   0.097   4.473   6.583 -0.4519 -2.9882 -0.1200
    4SAPS   H3Y  486   0.250   4.386   6.591 -0.2617  0.4596 -0.2312
    4SAPS   C34  487   0.189   4.447   6.383 -0.0810  0.0168  0.2478
    4SAPS   H4X  488   0.151   4.343   6.370 -1.0690  0.6741 -3.0421
    4SAPS   H4Y  489   0.294   4.436   6.348  0.3611 -0.2114  1.5900
    4SAPS   C35  490   0.104   4.549   6.312  0.2417 -0.2269  0.0544
    4SAPS   H5X  491   0.140   4.654   6.322  1.2793 -0.4583 -0.9838
    4SAPS   H5Y  492  -0.001   4.548   6.350 -0.0145  0.1094 -0.6168
    4SAPS   C36  493   0.105   4.532   6.161  0.2907 -0.9370  0.4617
    4SAPS   H6X  494   0.064   4.433   6.131 -0.2220 -0.7444  0.5122
    4SAPS   H6Y  495   0.209   4.549   6.126  0.0008 -0.9324 -0.4176
    4SAPS   C37  496   0.021   4.651   6.109 -0.3243  0.1390  0.2203
    4SAPS   H7X  497   0.093   4.735   6.101  0.8206 -0.5575  2.2859
    4SAPS   H7Y  498  -0.066   4.674   6.175  1.3200  0.4904  2.3957
    4SAPS   C38  499  -0.029   4.622   5.967  0.5093  0.3540 -0.3902
    4SAPS   H8X  500  -0.093   4.704   5.929  0.3683  1.2997  1.8021
    4SAPS   H8Y  501  -0.094   4.532   5.975 -1.6270  1.8164 -0.6330
    4SAPS   C39  502   0.075   4.596   5.854 -0.3814 -0.2392 -0.0941
    4SAPS   H9X  503   0.137   4.506   5.875 -0.9827 -0.9205 -1.1587
    4SAPS   H9Y  504   0.143   4.684   5.850  1.6874 -1.7484  0.1478
    4SAPS  C310  505   0.015   4.576   5.709  0.1101  0.2570 -1.5330
    4SAPS  H10X  506  -0.051   4.663   5.688 -0.6280  0.1630  0.2238
    4SAPS  H10Y  507  -0.055   4.490   5.710 -1.6166  1.4975  2.3278
    4SAPS  C311  508   0.120   4.559   5.601 -0.7303 -0.1226  0.0542
    4SAPS  H11X  509   0.187   4.476   5.632 -0.3771  1.0507  2.7042
    4SAPS  H11Y  510   0.190   4.644   5.596 -0.0310 -0.7336 -0.7626
    4SAPS  C312  511   0.057   4.546   5.467  0.2182 -0.2860 -0.5319
    4SAPS  H12X  512  -0.021   4.624   5.455  0.6147  0.1757 -0.1120
    4SAPS  H12Y  513   0.004   4.449   5.451 -0.4273  0.0279 -0.3240
    4SAPS  C313  514   0.150   4.556   5.346 -0.0002 -0.3393 -0.9329
    4SAPS  H13X  515   0.220   4.642   5.341 -1.6628  1.0114 -3.6684
    4SAPS  H13Y  516   0.082   4.562   5.258 -1.1155 -1.8081 -0.2118
    4SAPS  C314  517   0.244   4.428   5.324  0.3898 -1.2374 -1.0402
    4SAPS  H14X  518   0.167   4.352   5.302 -0.2771 -0.7556 -0.4252
    4SAPS  H14Y  519   0.302   4.403   5.415 -0.8525 -0.2602  0.0573
    4SAPS  C315  520   0.343   4.444   5.205  0.6113  0.4949 -0.0290
    4SAPS  H15X  521   0.383   4.343   5.184 -0.9139  0.1004 -1.2559
    4SAPS  H15Y  522   0.425   4.512   5.239  1.0412  0.1537 -0.3891
    4SAPS  C316  523   0.283   4.504   5.076  0.4141 -0.7063  0.1230
    4SAPS  H16X  524   0.371   4.499   5.009 -0.2634 -0.5052 -0.7925
    4SAPS  H16Y  525   0.249   4.609   5.085 -0.8203 -1.1032  0.3044
    4SAPS  C317  526   0.152   4.440   5.007 -0.4318  0.1932 -0.0059
    4SAPS  H17X  527   0.076   4.436   5.087 -1.5621 -1.2899 -1.0968
    4SAPS  H17Y  528   0.189   4.344   4.966  0.3271  0.2810  0.4628
    4SAPS  C318  529   0.106   4.524   4.886 -0.2598 -0.0829  0.3951
    4SAPS  H18X  530   0.191   4.540   4.816 -0.0971  1.3527  0.8892
    4SAPS  H18Y  531   0.050   4.616   4.916  0.1339 -0.0843  1.1666
    4SAPS  H18Z  532   0.035   4.466   4.823  0.2358  1.6031 -1.8494
    5SAPS     N  533   3.055   0.328   7.226 -0.1519 -0.1268 -0.3700
    5SAPS   HN1  534   3.121   0.404   7.252 -0.2987  0.6740 -2.1693
    5SAPS   HN2  535   3.103   0.247   7.182 -0.8981 -0.8966  0.2080
    5SAPS   HN3  536   2.987   0.378   7.165  0.4994  2.4214  0.8436
    5SAPS   C12  537   2.985   0.283   7.352 -0.4676 -0.3882 -0.5487
    5SAPS  H12A  538   2.937   0.186   7.347 -4.6095  1.2844  1.7773
    5SAPS   C13  539   3.060   0.293   7.488 -0.4496  0.3587 -0.4736
    5SAPS  O13A  540   3.165   0.361   7.487 -0.2223 -0.2482  1.0784
    5SAPS  O13B  541   3.001   0.262   7.595  0.2354  0.5833  0.3068
    5SAPS   C11  542   2.869   0.384   7.370 -0.1028  0.5339 -0.2195
    5SAPS  H11A  543   2.902   0.490   7.366 -0.6098  0.7980  1.5365
    5SAPS  H11B  544   2.814   0.368   7.465  1.5512  0.1324  0.7088
    5SAPS     P  545   2.658   0.267   7.260  0.2895 -0.4040 -0.4911
    5SAPS   O13  546   2.704   0.137   7.310  0.9828  0.7559 -0.5085
    5SAPS   O14  547   2.549   0.332   7.334 -0.1954 -0.0334 -0.0052
    5SAPS   O12  548   2.781   0.368   7.256 -0.1176 -0.1181 -0.2733
    5SAPS   O11  549   2.618   0.247   7.111  0.2874 -0.5762  0.0924
    5SAPS    C1  550   2.554   0.350   7.032 -0.1657 -0.5148  0.5625
    5SAPS    HA  551   2.459   0.383   7.080 -0.8190 -0.4135 -0.7336
    5SAPS    HB  552   2.633   0.425   7.009 -1.9863  0.7127 -2.3494
    5SAPS    C2  553   2.495   0.294   6.898 -0.2401  0.3664 -0.6671
    5SAPS    HS  554   2.456   0.192   6.916  1.1339  0.1864  1.7215
    5SAPS   O21  555   2.606   0.270   6.807  0.4522 -0.4776 -0.2014
    5SAPS   C21  556   2.589   0.220   6.692  0.6699  0.6817  0.3881
    5SAPS   O22  557   2.481   0.194   6.642 -0.2139  0.1362  0.2423
    5SAPS   C22  558   2.732   0.205   6.634  0.0167  0.4926  0.2300
    5SAPS   H2R  559   2.779   0.305   6.644  3.3089 -1.1085  2.3537
    5SAPS   H2S  560   2.782   0.136   6.706 -0.6540  0.4923  0.7106
    5SAPS    C3  561   2.382   0.383   6.836 -0.2444  0.0649 -0.0371
    5SAPS    HX  562   2.308   0.412   6.913 -2.0957 -0.0952 -1.6770
    5SAPS    HY  563   2.334   0.310   6.768 -0.4710 -1.1064  1.3348
    5SAPS   O31  564   2.436   0.506   6.768 -0.0709  0.4545 -0.8666
    5SAPS   C31  565   2.435   0.615   6.849 -0.2412  0.5839  0.3143
    5SAPS   O32  566   2.374   0.630   6.955 -0.0260 -0.0534 -0.4672
    5SAPS   C32  567   2.513   0.732   6.788  0.3524  0.6914 -0.6399
    5SAPS   H2X  568   2.621   0.709   6.773  0.4281 -0.2129  1.1227
    5SAPS   H2Y  569   2.522   0.807   6.869  0.7395  1.0640 -1.0187
    5SAPS   C23  570   2.746   0.134   6.496  0.4354  0.1189  1.1735
    5SAPS   H3R  571   2.669   0.191   6.438 -1.5032 -2.4401  1.0626
    5SAPS   H3S  572   2.720   0.027   6.504 -0.9271  0.1225 -1.8668
    5SAPS   C24  573   2.885   0.142   6.424  0.4592 -0.4367  0.2453
    5SAPS   H4R  574   2.895   0.074   6.336 -0.7860  1.5462 -1.5159
    5SAPS   H4S  575   2.954   0.112   6.506  1.0507  2.7254  1.0112
    5SAPS   C25  576   2.919   0.282   6.386  0.2903  0.6226  0.2486
    5SAPS   H5R  577   2.914   0.357   6.466 -1.3871  1.5207 -0.6367
    5SAPS   C26  578   2.946   0.325   6.258  0.1760 -0.6320  0.1919
    5SAPS   H6R  579   2.979   0.428   6.240  1.4830 -1.2409 -1.1442
    5SAPS   C27  580   2.946   0.245   6.131  0.6163  0.6838 -0.0578
    5SAPS   H7R  581   2.997   0.151   6.160  1.8997  1.7305  1.2558
    5SAPS   H7S  582   3.023   0.295   6.067 -0.5317  0.9057 -1.3154
    5SAPS   C28  583   2.814   0.222   6.059  0.0593  0.9157 -0.5999
    5SAPS   H8R  584   2.728   0.231   6.127  1.0806  0.3822  0.8070
    5SAPS   C29  585   2.801   0.179   5.932 -0.0130 -0.0416 -0.0347
    5SAPS   H9R  586   2.701   0.159   5.891  1.3290 -2.1981 -2.6486
    5SAPS  C210  587   2.910   0.156   5.829  0.2424 -0.3490  0.6825
    5SAPS  H10R  588   2.902   0.052   5.792 -1.7306  1.2841 -4.3015
    5SAPS  H10S  589   3.014   0.171   5.865  0.7031 -0.0880 -0.6783
    5SAPS  C211  590   2.927   0.267   5.714 -0.6014  0.7339 -0.3182
    5SAPS  H11R  591   3.021   0.323   5.726  0.8489 -1.8626  1.4400
    5SAPS  C212  592   2.849   0.305   5.611  0.8940  0.1292 -0.4409
    5SAPS  H12R  593   2.885   0.386   5.546  1.2975 -3.2747 -4.9786
    5SAPS  C213  594   2.718   0.242   5.566 -0.2908  0.2127  1.3683
    5SAPS  H13R  595   2.637   0.296   5.620 -0.2408  1.0831  0.6023
    5SAPS  H13S  596   2.701   0.135   5.592  0.4478 -0.8772 -2.0038
    5SAPS  C214  597   2.706   0.261   5.414 -0.5395 -0.0157  0.6241
    5SAPS  H14R  598   2.694   0.363   5.375  2.3103 -0.0943 -0.7135
    5SAPS  C215  599   2.714   0.170   5.316 -0.0361 -0.3730  0.1675
    5SAPS  H15R  600   2.697   0.203   5.212 -4.0716 -1.4613  0.2943
    5SAPS  C216  601   2.733   0.025   5.328  0.1686 -0.3353  0.1646
    5SAPS  H16R  602   2.642  -0.026   5.290  0.0927 -0.4444  0.4852
    5SAPS  H16S  603   2.747  -0.007   5.434  0.2627 -2.9800 -0.5659
    5SAPS  C217  604   2.856  -0.021   5.251 -0.0813 -0.0628  0.2272
    5SAPS  H17R  605   2.858   0.002   5.142 -2.7490 -0.3602  0.0502
    5SAPS  H17S  606   2.847  -0.131   5.265 -2.2056  0.1829  1.0202
    5SAPS  C218  607   2.991   0.017   5.322  0.3603 -0.2285 -0.3948
    5SAPS  H18R  608   2.986   0.128   5.320 -2.2731 -0.2787 -2.5205
    5SAPS  H18S  609   3.076  -0.028   5.267  0.5586 -0.1808 -0.1302
    5SAPS  C219  610   3.008  -0.034   5.472 -0.0156 -0.0345  0.8519
    5SAPS  H19R  611   2.923   0.002   5.534 -0.6775 -0.4974  0.2312
    5SAPS  H19S  612   3.094   0.022   5.514  0.3872  0.1365 -0.1645
    5SAPS  C220  613   3.040  -0.184   5.490  0.4713  0.5762 -0.2009
    5SAPS  H20R  614   3.070  -0.198   5.596 -1.9746 -0.2285  0.4524
    5SAPS  H20S  615   3.119  -0.216   5.418  1.5813  2.0690  0.3007
    5SAPS  H20T  616   2.946  -0.240   5.474  0.5163  0.1831  0.8552
    5SAPS   C33  617   2.444   0.785   6.661  0.5029 -0.1343  0.2623
    5SAPS   H3X  618   2.361   0.850   6.697  0.0920  0.6272 -1.9076
    5SAPS   H3Y  619   2.395   0.714   6.591 -2.5409  2.2862 -0.2898
    5SAPS   C34  620   2.542   0.868   6.578  0.1672 -0.8282  0.0705
    5SAPS   H4X  621   2.592   0.946   6.640  0.5579 -1.4037  0.4885
    5SAPS   H4Y  622   2.485   0.921   6.499  1.7691 -0.0402 -0.6098
    5SAPS   C35  623   2.655   0.779   6.507 -0.2093  0.4364 -0.0303
    5SAPS   H5X  624   2.731   0.744   6.579  0.7202  1.5156 -0.4511
    5SAPS   H5Y  625   2.705   0.850   6.437  0.6669  0.0223  0.1682
    5SAPS   C36  626   2.604   0.656   6.424 -0.2554  0.8855  0.4203
    5SAPS   H6X  627   2.551   0.589   6.495  1.7585  1.2270  2.3540
    5SAPS   H6Y  628   2.684   0.596   6.377 -0.3664 -1.0278  2.5268
    5SAPS   C37  629   2.520   0.701   6.306 -0.0201  0.2301  0.0756
    5SAPS   H7X  630   2.568   0.766   6.230  1.3224  1.5963  1.9973
    5SAPS   H7Y  631   2.429   0.750   6.347 -0.8790 -0.5232 -0.8735
    5SAPS   C38  632   2.466   0.577   6.236 -0.2861  0.6400 -0.5813
    5SAPS   H8X  633   2.396   0.604   6.154 -0.9158 -1.2344 -0.7099
    5SAPS   H8Y  634   2.407   0.522   6.312  0.6268  0.0787 -0.2671
    5SAPS   C39  635   2.572   0.487   6.171  0.1711 -0.4477  0.3684
    5SAPS   H9X  636   2.524   0.401   6.121  0.3780 -0.1594 -0.3413
    5SAPS   H9Y  637   2.642   0.447   6.247 -1.8231 -2.4284  1.2666
    5SAPS  C310  638   2.661   0.557   6.066 -0.0071 -0.2339  0.1636
    5SAPS  H10X  639   2.731   0.480   6.027 -1.4867 -1.8149  0.4902
    5SAPS  H10Y  640   2.717   0.638   6.116 -0.1735  1.2686 -1.9676
    5SAPS  C311  641   2.577   0.604   5.948  0.4587 -0.2138 -0.0401
    5SAPS  H11X  642   2.649   0.646   5.875  1.8346 -4.2115 -1.2780
    5SAPS  H11Y  643   2.508   0.685   5.982 -0.4059 -0.9085 -0.0877
    5SAPS  C312  644   2.485   0.500   5.877  0.3452  0.4695  0.4477
    5SAPS  H12X  645   2.417   0.476   5.962  1.7235  0.1569  1.4938
    5SAPS  H12Y  646   2.540   0.405   5.859 -1.6283 -0.3637 -1.8675
    5SAPS  C313  647   2.410   0.549   5.755 -0.4187 -0.7684 -0.1643
    5SAPS  H13X  648   2.488   0.583   5.683  0.0837  0.6674  1.0021
    5SAPS  H13Y  649   2.334   0.625   5.785 -0.7107 -0.6915 -1.0615
    5SAPS  C314  650   2.330   0.437   5.692  0.4806  0.2324  0.1532
    5SAPS  H14X  651   2.254   0.422   5.771 -0.4509  2.2202 -0.2990
    5SAPS  H14Y  652   2.394   0.347   5.684 -0.3543 -0.5709  2.0579
    5SAPS  C315  653   2.262   0.476   5.561 -0.0676 -0.0545 -0.4615
    5SAPS  H15X  654   2.235   0.583   5.570 -0.3505 -0.3055  3.3788
    5SAPS  H15Y  655   2.169   0.417   5.544 -0.4250  0.4019 -0.1167
    5SAPS  C316  656   2.359   0.448   5.442  0.3966 -0.3638  0.2361
    5SAPS  H16X  657   2.371   0.338   5.431  0.3309 -0.3615  0.1432
    5SAPS  H16Y  658   2.456   0.495   5.468  1.6532 -1.0764 -2.8232
    5SAPS  C317  659   2.306   0.499   5.307  0.0576 -0.2936  0.7280
    5SAPS  H17X  660   2.197   0.475   5.309 -0.0887  0.3684  0.9892
    5SAPS  H17Y  661   2.358   0.435   5.233  2.6802  2.1807  0.2638
    5SAPS  C318  662   2.341   0.642   5.287 -0.7952  0.6840  0.6992
    5SAPS  H18X  663   2.292   0.696   5.203  1.1172  2.0194  0.3877
    5SAPS  H18Y  664   2.452   0.640   5.282 -0.7889  0.2921  0.9139
    5SAPS  H18Z  665   2.317   0.703   5.377 -0.1700  0.7138  0.8456
    6SAPS     N  666   0.605   5.811   7.011  0.0132 -0.0721  0.0619
    6SAPS   HN1  667   0.537   5.738   7.041 -2.9269  2.2475 -0.5072
    6SAPS   HN2  668   0.701   5.775   6.995  0.3047  0.3478  0.8156
    6SAPS   HN3  669   0.624   5.896   7.067  1.4902 -0.1396 -0.2980
    6SAPS   C12  670   0.557   5.837   6.872  0.1615 -0.2131  0.8453
    6SAPS  H12A  671   0.460   5.792   6.857  0.9232 -1.2733 -1.3489
    6SAPS   C13  672   0.542   5.983   6.820 -0.3294 -0.2282  0.6954
    6SAPS  O13A  673   0.591   6.080   6.884  0.1138 -0.5254  0.4449
    6SAPS  O13B  674   0.486   6.006   6.701 -0.9475  0.1172 -0.0421
    6SAPS   C11  675   0.654   5.774   6.771 -0.3769 -0.1208 -0.2903
    6SAPS  H11A  676   0.618   5.792   6.667  0.5866 -1.1766 -0.8326
    6SAPS  H11B  677   0.657   5.664   6.789  0.3076 -0.1313 -0.4588
    6SAPS     P  678   0.904   5.751   6.713 -0.0620  0.3838 -0.1624
    6SAPS   O13  679   1.024   5.817   6.753 -0.2046 -0.7351 -0.3914
    6SAPS   O14  680   0.894   5.608   6.748 -0.2983 -0.3858  0.3278
    6SAPS   O12  681   0.785   5.822   6.793 -0.6479  0.1839  0.6825
    6SAPS   O11  682   0.867   5.758   6.555 -0.3222 -0.2973  0.0414
    6SAPS    C1  683   0.935   5.878   6.495  0.3998  0.4817  0.4832
    6SAPS    HA  684   0.915   5.972   6.551 -0.5305  1.4269 -1.3397
    6SAPS    HB  685   1.044   5.854   6.497  0.6216  1.4300  0.3319
    6SAPS    C2  686   0.893   5.902   6.345 -0.5970 -0.0343  0.9213
    6SAPS    HS  687   0.985   5.945   6.301 -0.3601 -0.0040  1.4432
    6SAPS   O21  688   0.769   5.984   6.331  0.3059  0.6690 -0.1599
    6SAPS   C21  689   0.773   6.081   6.242  0.3028 -0.0840  0.0549
    6SAPS   O22  690   0.873   6.114   6.182  0.1067 -0.2480  0.1933
    6SAPS   C22  691   0.632   6.141   6.222  0.4684  0.5142  0.2220
    6SAPS   H2R  692   0.548   6.089   6.274 -0.3434  0.8471 -0.7306
    6SAPS   H2S  693   0.625   6.244   6.263 -3.1568  0.5650 -0.1965
    6SAPS    C3  694   0.886   5.770   6.264 -0.2742 -0.5515 -0.8077
    6SAPS    HX  695   0.814   5.704   6.316 -0.3526 -1.6122 -2.1918
    6SAPS    HY  696   0.983   5.722   6.285 -0.9270 -2.1592 -1.3369
    6SAPS   O31  697   0.856   5.779   6.119  0.2858 -0.6601 -0.0531
    6SAPS   C31  698   0.952   5.817   6.044  0.3617 -0.2263  0.7925
    6SAPS   O32  699   1.070   5.823   6.075  0.3969  0.6404  0.0307
    6SAPS   C32  700   0.903   5.859   5.901 -0.4275 -0.6600  0.3304
    6SAPS   H2X  701   0.795   5.884   5.905 -0.2492  0.1032  0.3973
    6SAPS   H2Y  702   0.930   5.773   5.835  1.8989  0.5160 -0.3698
    6SAPS   C23  703   0.583   6.140   6.072  1.1157 -0.5274  0.0740
    6SAPS   H3R  704   0.475   6.118   6.075  1.1201 -0.9196 -1.7000
    6SAPS   H3S  705   0.615   6.055   6.008  0.4884 -0.1960 -0.6949
    6SAPS   C24  706   0.606   6.268   5.993  0.3554 -0.0835 -0.0268
    6SAPS   H4R  707   0.583   6.357   6.055  0.6062  0.8153 -1.1870
    6SAPS   H4S  708   0.540   6.249   5.906  0.3557 -2.2132  0.3698
    6SAPS   C25  709   0.745   6.286   5.940  0.0331 -0.5875 -0.0038
    6SAPS   H5R  710   0.812   6.287   6.027 -1.7735  1.4662  1.4764
    6SAPS   C26  711   0.789   6.324   5.820 -0.3829 -0.1547 -0.1804
    6SAPS   H6R  712   0.895   6.345   5.797 -0.0135 -0.8062  0.8487
    6SAPS   C27  713   0.702   6.338   5.696  0.3496  0.2888 -0.3131
    6SAPS   H7R  714   0.602   6.293   5.715  0.5410 -0.7644 -1.6206
    6SAPS   H7S  715   0.750   6.286   5.610 -0.8382  2.0512 -2.1355
    6SAPS   C28  716   0.685   6.488   5.681  0.4055 -0.2291  0.8833
    6SAPS   H8R  717   0.597   6.519   5.740  1.0522 -0.1136  1.8114
    6SAPS   C29  718   0.752   6.576   5.605 -0.5919 -0.3409 -0.4257
    6SAPS   H9R  719   0.730   6.684   5.605  0.9884  0.0464 -2.8947
    6SAPS  C210  720   0.880   6.550   5.522 -0.4645  0.4110 -0.4292
    6SAPS  H10R  721   0.923   6.455   5.559 -3.7903 -0.6314  1.1625
    6SAPS  H10S  722   0.938   6.642   5.546 -0.7085  0.5054 -0.1957
    6SAPS  C211  723   0.857   6.534   5.370  0.2482 -0.1702 -0.3325
    6SAPS  H11R  724   0.751   6.535   5.339 -0.0041 -1.8315  0.3668
    6SAPS  C212  725   0.946   6.549   5.278 -0.9836 -0.2646  0.1912
    6SAPS  H12R  726   0.926   6.528   5.172  0.6594  0.7974 -0.3646
    6SAPS  C213  727   1.093   6.566   5.304 -0.9623 -0.1449  0.4129
    6SAPS  H13R  728   1.156   6.485   5.261 -0.5836 -0.6106  1.7772
    6SAPS  H13S  729   1.113   6.558   5.413  0.2423 -1.6760  0.1036
    6SAPS  C214  730   1.149   6.697   5.242  0.1594  0.5820 -0.5142
    6SAPS  H14R  731   1.128   6.782   5.308 -0.1843 -0.5041  0.8162
    6SAPS  C215  732   1.207   6.728   5.126 -0.5450  0.1663 -0.8759
    6SAPS  H15R  733   1.232   6.834   5.110 -1.0050  0.9039  2.4673
    6SAPS  C216  734   1.232   6.624   5.017  0.1972  0.3897  0.0844
    6SAPS  H16R  735   1.142   6.613   4.953 -0.2371  0.4270  0.6835
    6SAPS  H16S  736   1.256   6.524   5.060 -1.0225 -0.1360 -0.3983
    6SAPS  C217  737   1.348   6.674   4.927 -0.1638 -0.9144 -0.3288
    6SAPS  H17R  738   1.439   6.660   4.989 -0.7725 -1.3575  0.4887
    6SAPS  H17S  739   1.326   6.782   4.911  2.8695 -0.4213 -1.9181
    6SAPS  C218  740   1.349   6.607   4.794  0.0092 -0.3998  0.3957
    6SAPS  H18R  741   1.251   6.627   4.747  0.3024 -2.9266 -1.4951
    6SAPS  H18S  742   1.360   6.498   4.809  0.2461 -0.7851 -2.1695
    6SAPS  C219  743   1.447   6.655   4.689 -0.1459  0.2386  0.0875
    6SAPS  H19R  744   1.527   6.584   4.659 -1.5136 -0.8564 -1.1255
    6SAPS  H19S  745   1.491   6.747   4.731 -0.1586 -0.4709  1.7692
    6SAPS  C220  746   1.382   6.697   4.551  0.2942  0.3345  0.2619
    6SAPS  H20R  747   1.453   6.729   4.471 -1.8607  1.2959 -1.3756
    6SAPS  H20S  748   1.300   6.771   4.557  0.4305  0.5947 -0.7998
    6SAPS  H20T  749   1.332   6.603   4.521 -0.4047  0.6420  0.4522
    6SAPS   C33  750   0.982   5.977   5.840  0.0885  0.1928  0.1692
    6SAPS   H3X  751   1.086   5.960   5.874  0.1767 -1.4528 -0.8340
    6SAPS   H3Y  752   0.944   6.078   5.866  2.4682  0.9400  0.9954
    6SAPS   C34  753   0.996   5.977   5.682 -0.4627 -0.2206 -0.8826
    6SAPS   H4X  754   1.015   5.874   5.645 -1.2850 -0.7871  0.2321
    6SAPS   H4Y  755   1.081   6.045   5.659 -0.9930  0.3844 -1.1128
    6SAPS   C35  756   0.875   6.025   5.612 -0.1172 -0.3434  0.5109
    6SAPS   H5X  757   0.911   6.113   5.554  0.2903 -0.3213  0.7899
    6SAPS   H5Y  758   0.811   6.065   5.693  0.8380 -0.9178  1.5871
    6SAPS   C36  759   0.795   5.918   5.545  0.0108 -0.0685 -0.1846
    6SAPS   H6X  760   0.764   5.840   5.618  0.4089 -0.0618 -0.0068
    6SAPS   H6Y  761   0.855   5.868   5.466 -0.4150 -0.6505 -0.1460
    6SAPS   C37  762   0.669   5.976   5.475 -0.4008  0.0954 -0.5343
    6SAPS   H7X  763   0.641   5.887   5.414  3.1951 -2.0762  0.7303
    6SAPS   H7Y  764   0.689   6.060   5.405  2.4514  0.4802  0.6418
    6SAPS   C38  765   0.554   5.999   5.572 -0.0558 -0.3468 -0.9294
    6SAPS   H8X  766   0.571   6.090   5.633 -0.7103  0.5392 -2.0524
    6SAPS   H8Y  767   0.552   5.910   5.640  4.5804 -1.2749 -1.7013
    6SAPS   C39  768   0.416   6.035   5.506 -0.1971  0.2059  0.0971
    6SAPS   H9X  769   0.346   6.031   5.592  1.3608 -2.7955  1.3713
    6SAPS   H9Y  770   0.380   5.946   5.451  1.0586 -1.3106  1.6273
    6SAPS  C310  771   0.424   6.161   5.427 -0.2776 -0.6713  0.4934
    6SAPS  H10X  772   0.476   6.144   5.330  0.7373  1.3872  0.6167
    6SAPS  H10Y  773   0.472   6.245   5.481  0.1175 -0.6993  0.1921
    6SAPS  C311  774   0.287   6.212   5.372 -0.4148  0.4717  0.6989
    6SAPS  H11X  775   0.301   6.302   5.308 -1.1121  0.2688  0.2418
    6SAPS  H11Y  776   0.212   6.241   5.449 -1.7320  0.0712 -0.3908
    6SAPS  C312  777   0.234   6.097   5.286  0.6894 -0.1734 -0.5892
    6SAPS  H12X  778   0.185   6.023   5.353 -0.7140  1.2970  0.0795
    6SAPS  H12Y  779   0.306   6.043   5.222  0.3024 -2.3642  0.7065
    6SAPS  C313  780   0.124   6.164   5.196 -0.1316  0.2661  0.2922
    6SAPS  H13X  781   0.069   6.233   5.264 -0.1776 -1.0390  1.6155
    6SAPS  H13Y  782   0.047   6.091   5.164 -2.8330  2.3941  1.4530
    6SAPS  C314  783   0.181   6.241   5.071  0.4220  0.2271  0.7783
    6SAPS  H14X  784   0.222   6.170   4.996 -1.2708  2.0219 -2.0280
    6SAPS  H14Y  785   0.262   6.311   5.099  1.1021  0.6895 -2.0410
    6SAPS  C315  786   0.074   6.317   4.995 -0.0658 -0.5533  0.4560
    6SAPS  H15X  787   0.022   6.373   5.076 -0.4916 -0.4344  0.1115
    6SAPS  H15Y  788   0.006   6.243   4.947 -1.0514 -1.8705  3.6572
    6SAPS  C316  789   0.131   6.418   4.896  0.2307 -0.3214  0.4343
    6SAPS  H16X  790   0.197   6.364   4.825  1.7726  1.7986  0.1265
    6SAPS  H16Y  791   0.196   6.487   4.955 -0.3601 -0.8465  1.7502
    6SAPS  C317  792   0.027   6.502   4.821 -0.0806 -0.2779 -0.1187
    6SAPS  H17X  793  -0.015   6.571   4.898 -1.0144 -2.6087  1.5705
    6SAPS  H17Y  794  -0.050   6.436   4.777 -1.5585 -0.2047  2.1991
    6SAPS  C318  795   0.078   6.601   4.713  0.3634 -0.3470  0.0902
    6SAPS  H18X  796  -0.007   6.666   4.685  0.0509 -0.0773  1.5875
    6SAPS  H18Y  797   0.128   6.548   4.629  0.6138  0.6971 -0.4369
    6SAPS  H18Z  798   0.162   6.662   4.755  0.1596  0.8652 -1.1935
    7SAPS     N  799   3.224   0.579   7.652  0.5770  0.2704 -0.2682
    7SAPS   HN1  800   3.221   0.500   7.584 -1.7196  0.6532 -0.6905
    7SAPS   HN2  801   3.214   0.551   7.752 -0.7546  0.9041 -0.1911
    7SAPS   HN3  802   3.138   0.630   7.622  1.1122  2.9693  2.3339
    7SAPS   C12  803   3.345   0.666   7.621  0.5982  0.1973  0.7418
    7SAPS  H12A  804   3.338   0.751   7.687  0.3908  1.1082 -0.4220
    7SAPS   C13  805   3.480   0.592   7.645 -0.1071  0.0486 -0.0710
    7SAPS  O13A  806   3.476   0.476   7.684  0.5083 -0.0211 -0.0109
    7SAPS  O13B  807   3.588   0.637   7.600 -0.1589  0.1620  0.0762
    7SAPS   C11  808   3.344   0.694   7.465 -0.3570 -0.2120 -0.8158
    7SAPS  H11A  809   3.378   0.605   7.407 -0.5831 -0.1421 -1.0618
    7SAPS  H11B  810   3.411   0.780   7.444  0.8567 -0.7996  0.4950
    7SAPS     P  811   3.174   0.712   7.272 -0.1687  0.0844  0.5786
    7SAPS   O13  812   3.175   0.571   7.230 -0.3537 -0.2791  0.7019
    7SAPS   O14  813   3.050   0.784   7.244  0.0715 -0.1228  0.2606
    7SAPS   O12  814   3.210   0.735   7.428 -0.4580  0.5670  0.0038
    7SAPS   O11  815   3.303   0.776   7.198 -0.4934  0.5472 -0.1564
    7SAPS    C1  816   3.302   0.919   7.177  0.3203 -0.0413  0.5697
    7SAPS    HA  817   3.231   0.978   7.240  1.5668  0.0921  1.9112
    7SAPS    HB  818   3.403   0.946   7.214  0.8005 -0.9422 -0.0661
    7SAPS    C2  819   3.292   0.959   7.025 -0.4869 -0.8046 -0.1930
    7SAPS    HS  820   3.345   1.056   7.015 -0.0400 -1.1623 -1.4441
    7SAPS   O21  821   3.154   0.970   6.986 -0.0456 -0.7619  0.4740
    7SAPS   C21  822   3.090   1.085   7.026  0.3283 -0.1880 -0.1845
    7SAPS   O22  823   3.141   1.178   7.084 -0.1228  0.0231 -0.1966
    7SAPS   C22  824   2.954   1.077   6.955  0.2805  0.2873 -0.5812
    7SAPS   H2R  825   2.925   0.972   6.933  1.3523  0.0216 -0.8041
    7SAPS   H2S  826   2.884   1.110   7.035 -1.3258 -2.2731 -0.8042
    7SAPS    C3  827   3.368   0.858   6.925  0.3106  0.3502 -0.5216
    7SAPS    HX  828   3.323   0.760   6.951  0.5673 -0.1422 -1.8504
    7SAPS    HY  829   3.477   0.865   6.947  0.2880  0.0478 -0.3156
    7SAPS   O31  830   3.339   0.889   6.796 -0.1937  0.3898 -0.2437
    7SAPS   C31  831   3.405   0.991   6.742  0.3750 -0.6079  0.3272
    7SAPS   O32  832   3.479   1.068   6.802 -0.0523 -0.5737  0.4373
    7SAPS   C32  833   3.368   0.982   6.595  0.0759 -0.9520  0.6171
    7SAPS   H2X  834   3.258   0.969   6.591 -0.3060  1.5450  1.1811
    7SAPS   H2Y  835   3.431   0.901   6.552  2.6527  2.1860 -2.1066
    7SAPS   C23  836   2.949   1.163   6.828  0.6547 -0.1922  0.0003
    7SAPS   H3R  837   3.032   1.144   6.756  1.4123 -1.8422  1.2298
    7SAPS   H3S  838   2.951   1.272   6.851 -0.6794  0.1275 -1.2666
    7SAPS   C24  839   2.817   1.139   6.747 -0.1125  0.0389 -0.6381
    7SAPS   H4R  840   2.726   1.135   6.811 -1.9196  0.2453 -3.0639
    7SAPS   H4S  841   2.831   1.045   6.691  0.9787  0.5425 -1.2407
    7SAPS   C25  842   2.801   1.253   6.648  0.2355 -0.3673  0.2115
    7SAPS   H5R  843   2.762   1.349   6.684  2.1848  0.0760  1.2554
    7SAPS   C26  844   2.836   1.236   6.515  0.7059 -1.0468 -0.3920
    7SAPS   H6R  845   2.817   1.317   6.443 -0.1502 -1.7821 -1.0135
    7SAPS   C27  846   2.900   1.114   6.462  0.2615 -0.1941 -0.3984
    7SAPS   H7R  847   2.832   1.026   6.461 -1.0832  0.8090  0.3532
    7SAPS   H7S  848   2.965   1.072   6.542 -0.6248 -0.3268  0.2632
    7SAPS   C28  849   2.981   1.132   6.335 -0.0745  0.4340  0.1228
    7SAPS   H8R  850   3.025   1.232   6.325 -1.7195  1.2854  0.9362
    7SAPS   C29  851   2.982   1.057   6.227  0.0957 -0.0545 -0.0753
    7SAPS   H9R  852   3.046   1.095   6.146 -0.4845  1.9614  0.3679
    7SAPS  C210  853   2.935   0.914   6.214  0.3625  0.4288  0.8228
    7SAPS  H10R  854   2.867   0.874   6.292 -1.3930 -1.1865 -1.3989
    7SAPS  H10S  855   3.031   0.859   6.223  1.2431  1.9858  1.4705
    7SAPS  C211  856   2.853   0.891   6.090 -0.5993 -1.2110  0.4861
    7SAPS  H11R  857   2.774   0.967   6.080 -0.8730 -1.1098  2.7595
    7SAPS  C212  858   2.887   0.808   5.988  0.5519  0.1624 -0.1644
    7SAPS  H12R  859   2.820   0.803   5.901 -0.8621  2.2373  0.7278
    7SAPS  C213  860   3.015   0.724   5.987 -0.2564 -0.3965  0.1957
    7SAPS  H13R  861   3.031   0.677   6.087 -0.6116  1.0002  0.9364
    7SAPS  H13S  862   3.102   0.793   5.991  0.4202 -1.2122 -0.1872
    7SAPS  C214  863   3.029   0.633   5.869 -0.2895  0.3436  0.5078
    7SAPS  H14R  864   2.979   0.536   5.880 -0.4078  0.1809 -1.2038
    7SAPS  C215  865   3.105   0.646   5.760 -0.2099  0.0644  0.0433
    7SAPS  H15R  866   3.101   0.567   5.684  1.5892  1.8196 -2.0271
    7SAPS  C216  867   3.199   0.761   5.726 -0.5080 -0.4659  0.0194
    7SAPS  H16R  868   3.299   0.721   5.699  1.5718  3.9111  0.4494
    7SAPS  H16S  869   3.226   0.823   5.814 -0.6658 -1.3148  0.6807
    7SAPS  C217  870   3.146   0.860   5.617  0.4977 -0.0605  0.5615
    7SAPS  H17R  871   3.219   0.944   5.624 -0.6416  1.2043 -1.7861
    7SAPS  H17S  872   3.051   0.909   5.647  1.3126  1.1696  1.1846
    7SAPS  C218  873   3.137   0.813   5.473  0.1363 -0.2750  0.0337
    7SAPS  H18R  874   3.053   0.743   5.457  0.7774 -0.5789 -2.5358
    7SAPS  H18S  875   3.233   0.758   5.456  2.4150  3.6212 -0.8849
    7SAPS  C219  876   3.140   0.930   5.365 -0.0458  0.1438 -0.5879
    7SAPS  H19R  877   3.074   1.010   5.405  1.4553  0.0938  2.2437
    7SAPS  H19S  878   3.102   0.887   5.270 -1.1121 -1.3630  0.4561
    7SAPS  C220  879   3.280   0.991   5.352  0.3639 -0.0391 -1.2366
    7SAPS  H20R  880   3.273   1.085   5.292  1.3552  0.5849 -0.4240
    7SAPS  H20S  881   3.355   0.929   5.299  1.5612 -2.3850  2.8009
    7SAPS  H20T  882   3.320   1.031   5.448  0.8278  1.5823 -2.0548
    7SAPS   C33  883   3.396   1.120   6.526 -0.0157 -0.2811  0.3874
    7SAPS   H3X  884   3.405   1.120   6.415  2.4289 -0.0897  0.5440
    7SAPS   H3Y  885   3.496   1.159   6.555  0.0224 -0.6619  0.7837
    7SAPS   C34  886   3.288   1.233   6.547  0.0534 -0.8030 -0.2206
    7SAPS   H4X  887   3.281   1.273   6.650  1.9667  0.9164 -0.6837
    7SAPS   H4Y  888   3.189   1.197   6.513 -0.2619  0.8591 -1.1500
    7SAPS   C35  889   3.316   1.354   6.458  0.0687 -0.0027 -0.0516
    7SAPS   H5X  890   3.344   1.326   6.354  1.2757  0.5281  0.1122
    7SAPS   H5Y  891   3.407   1.403   6.499 -0.5013  2.0530 -1.1010
    7SAPS   C36  892   3.217   1.466   6.463  0.2716  0.2268  0.3210
    7SAPS   H6X  893   3.207   1.500   6.568 -1.8138  1.4295 -0.2018
    7SAPS   H6Y  894   3.120   1.416   6.443 -0.5584  1.3814  1.3024
    7SAPS   C37  895   3.246   1.590   6.379 -0.2207  0.1558 -0.2062
    7SAPS   H7X  896   3.349   1.633   6.380 -0.3693  0.6477 -2.0651
    7SAPS   H7Y  897   3.181   1.673   6.415  1.4134  0.8454  1.3293
    7SAPS   C38  898   3.212   1.564   6.234 -0.8643  0.6347  0.1647
    7SAPS   H8X  899   3.161   1.468   6.213  0.6489  0.3807 -2.7533
    7SAPS   H8Y  900   3.306   1.555   6.176 -0.7056 -0.6156  0.5791
    7SAPS   C39  901   3.128   1.671   6.154 -0.4891  0.2638 -0.7636
    7SAPS   H9X  902   3.184   1.767   6.162 -1.7114  0.8480  1.8729
    7SAPS   H9Y  903   3.031   1.682   6.207  0.5520 -0.0630  1.2981
    7SAPS  C310  904   3.096   1.637   6.004  0.1768  0.0737 -1.3251
    7SAPS  H10X  905   3.046   1.538   6.006  0.4660 -0.0669 -0.2038
    7SAPS  H10Y  906   3.200   1.621   5.968 -0.3714 -2.6914 -1.9219
    7SAPS  C311  907   3.016   1.741   5.924 -0.6897 -0.1440 -0.2572
    7SAPS  H11X  908   3.072   1.837   5.933 -2.1461  0.5740  2.4680
    7SAPS  H11Y  909   2.917   1.757   5.974 -0.4487 -0.6517  0.3891
    7SAPS  C312  910   2.991   1.694   5.779  0.2068 -0.2719  0.6989
    7SAPS  H12X  911   2.918   1.611   5.784 -0.9215  0.4933 -1.7193
    7SAPS  H12Y  912   3.092   1.658   5.746  0.1183 -0.9015  1.0855
    7SAPS  C313  913   2.926   1.805   5.690 -0.6393  0.7707 -0.5234
    7SAPS  H13X  914   2.997   1.889   5.700  0.9325 -0.2489 -2.2581
    7SAPS  H13Y  915   2.829   1.840   5.731 -1.4768  0.2439 -1.9732
    7SAPS  C314  916   2.891   1.772   5.542 -0.3559  0.5236  0.2937
    7SAPS  H14X  917   2.832   1.856   5.500 -1.7177 -0.6164 -0.1557
    7SAPS  H14Y  918   2.828   1.681   5.535  0.9291 -0.4376  0.8035
    7SAPS  C315  919   3.021   1.752   5.456 -0.0261 -0.6038 -0.3086
    7SAPS  H15X  920   2.999   1.697   5.362 -2.3563 -0.9160  0.3479
    7SAPS  H15Y  921   3.096   1.694   5.514  0.6246 -0.5318 -1.0681
    7SAPS  C316  922   3.093   1.888   5.427 -0.3014  0.2460 -0.0002
    7SAPS  H16X  923   3.103   1.952   5.518 -2.0233 -0.7010  0.9285
    7SAPS  H16Y  924   3.017   1.941   5.365  0.7577 -0.6920 -2.1884
    7SAPS  C317  925   3.222   1.874   5.342 -0.2652 -0.5703  0.4452
    7SAPS  H17X  926   3.306   1.832   5.402 -0.1065 -1.5336 -0.4147
    7SAPS  H17Y  927   3.237   1.982   5.320 -0.4585 -0.5422  0.4558
    7SAPS  C318  928   3.222   1.771   5.223 -0.0941 -0.1373 -0.2655
    7SAPS  H18X  929   3.305   1.781   5.149 -1.2580  0.3406 -1.5503
    7SAPS  H18Y  930   3.129   1.771   5.162 -0.3729  0.9023  0.1450
    7SAPS  H18Z  931   3.228   1.668   5.264 -1.9960  0.4602  1.6564
    8SAPS     N  932   0.382   0.348   7.078  0.6649 -0.3138  0.3740
    8SAPS   HN1  933   0.473   0.302   7.101  0.4078 -0.5506  0.9652
    8SAPS   HN2  934   0.295   0.297   7.103  0.6798 -0.3539  0.3444
    8SAPS   HN3  935   0.378   0.337   6.975 -0.4203 -1.0767  0.4838
    8SAPS   C12  936   0.367   0.484   7.134 -0.0065  0.4706 -0.6776
    8SAPS  H12A  937   0.266   0.514   7.106 -1.0222 -1.4791  0.6979
    8SAPS   C13  938   0.361   0.489   7.291  0.0863  0.2347 -0.4454
    8SAPS  O13A  939   0.389   0.383   7.355  0.0076 -0.5056 -0.4740
    8SAPS  O13B  940   0.341   0.601   7.350  0.4217 -0.3416 -0.0513
    8SAPS   C11  941   0.472   0.585   7.070 -0.6996  0.2089  0.2219
    8SAPS  H11A  942   0.462   0.691   7.100  1.5064  1.0638 -1.7814
    8SAPS  H11B  943   0.451   0.578   6.961  0.1225  0.5084  0.0378
    8SAPS     P  944   0.725   0.630   7.141 -0.3774 -0.0752  0.0805
    8SAPS   O13  945   0.722   0.638   7.287  0.2796 -0.0852  0.2160
    8SAPS   O14  946   0.843   0.560   7.085  0.0722 -0.0752  0.6966
    8SAPS   O12  947   0.607   0.542   7.097  0.3413  0.3813  0.3930
    8SAPS   O11  948   0.699   0.773   7.079  0.1239  0.1200  0.7035
    8SAPS    C1  949   0.700   0.785   6.936 -0.1148 -0.1643 -0.5899
    8SAPS    HA  950   0.802   0.814   6.904 -0.2380 -0.6699 -1.4645
    8SAPS    HB  951   0.672   0.690   6.886 -0.3868  0.0755 -0.9034
    8SAPS    C2  952   0.598   0.888   6.889 -0.3718 -0.0109  0.5256
    8SAPS    HS  953   0.500   0.836   6.904  0.1209 -1.1587 -0.1337
    8SAPS   O21  954   0.628   0.905   6.743  0.0603 -0.4741  0.0671
    8SAPS   C21  955   0.518   0.906   6.675  0.8261  0.7683  1.0366
    8SAPS   O22  956   0.402   0.890   6.713 -0.5396 -0.3552 -0.0529
    8SAPS   C22  957   0.544   0.935   6.526 -0.3126 -0.2525 -0.0239
    8SAPS   H2R  958   0.575   1.040   6.510 -0.6799 -0.1599 -0.1365
    8SAPS   H2S  959   0.625   0.866   6.494 -0.2037  0.2408 -0.8503
    8SAPS    C3  960   0.626   1.017   6.968  0.3312  0.1839 -0.2466
    8SAPS    HX  961   0.736   1.027   6.973  0.5841 -0.4507 -2.9308
    8SAPS    HY  962   0.590   1.006   7.073 -0.0422 -0.6108 -0.4489
    8SAPS   O31  963   0.568   1.139   6.909  0.4791 -0.1904 -0.3864
    8SAPS   C31  964   0.458   1.193   6.967  0.0420  0.1911  0.2445
    8SAPS   O32  965   0.401   1.143   7.062  0.4014  0.3794  0.4520
    8SAPS   C32  966   0.413   1.311   6.880 -0.1782  1.4357 -0.2625
    8SAPS   H2X  967   0.494   1.351   6.814 -1.2943  0.6489 -2.1788
    8SAPS   H2Y  968   0.401   1.398   6.948  0.1375  1.7474 -0.5956
    8SAPS   C23  969   0.415   0.896   6.446 -0.4771  0.7054 -0.7899
    8SAPS   H3R  970   0.325   0.958   6.462 -1.8613 -1.3017 -0.4589
    8SAPS   H3S  971   0.376   0.796   6.476  0.4586  1.2603  2.8666
    8SAPS   C24  972   0.436   0.893   6.294 -0.6423 -0.3239  0.3989
    8SAPS   H4R  973   0.476   0.991   6.260  0.3725 -0.6885  0.5278
    8SAPS   H4S  974   0.337   0.873   6.247 -1.0065 -0.5251  1.2336
    8SAPS   C25  975   0.528   0.773   6.257  0.1571  0.8602 -0.0084
    8SAPS   H5R  976   0.620   0.782   6.317 -0.9532  2.7144  1.5370
    8SAPS   C26  977   0.502   0.667   6.178 -0.7397  0.5234  0.2816
    8SAPS   H6R  978   0.564   0.577   6.191 -0.9511  0.5969  1.9625
    8SAPS   C27  979   0.369   0.629   6.105 -0.0237  0.2226 -0.6421
    8SAPS   H7R  980   0.374   0.660   5.998  1.5491  0.1963 -0.6070
    8SAPS   H7S  981   0.286   0.692   6.142 -1.9666 -2.5179 -0.0487
    8SAPS   C28  982   0.331   0.479   6.114  0.9400  0.5219 -0.2544
    8SAPS   H8R  983   0.409   0.402   6.101 -1.2502 -1.9029  0.0345
    8SAPS   C29  984   0.198   0.445   6.104  0.2334  0.0385  0.3171
    8SAPS   H9R  985   0.163   0.341   6.098 -0.9112  0.3839  0.7828
    8SAPS  C210  986   0.084   0.541   6.115  0.1383  0.0175  0.5458
    8SAPS  H10R  987   0.093   0.626   6.044 -1.6375 -0.0482  0.2035
    8SAPS  H10S  988   0.086   0.593   6.214  0.3895  1.1391 -0.0313
    8SAPS  C211  989  -0.056   0.488   6.100  0.3151  0.2084  0.0961
    8SAPS  H11R  990  -0.108   0.495   6.197  1.5810  1.0309  0.7468
    8SAPS  C212  991  -0.109   0.435   5.993 -0.0343  0.1503  1.2300
    8SAPS  H12R  992  -0.213   0.402   6.006 -0.2014  0.1622  0.0009
    8SAPS  C213  993  -0.037   0.418   5.860  0.0200 -0.4077 -0.0042
    8SAPS  H13R  994   0.066   0.461   5.861  0.6373 -1.8200  0.3745
    8SAPS  H13S  995  -0.076   0.469   5.770  0.0171  0.0186  0.2359
    8SAPS  C214  996  -0.014   0.273   5.829  0.6194  0.8217 -0.0024
    8SAPS  H14R  997   0.050   0.232   5.909 -0.6253 -0.7267  0.2472
    8SAPS  C215  998  -0.072   0.185   5.742  0.2390 -0.1294  0.4539
    8SAPS  H15R  999  -0.043   0.079   5.738 -0.9574 -0.4449 -0.8038
    8SAPS  C216 1000  -0.157   0.224   5.627 -0.1333 -0.4933 -0.1446
    8SAPS  H16R 1001  -0.159   0.333   5.605 -2.1406  0.0724  2.3135
    8SAPS  H16S 1002  -0.265   0.201   5.639 -0.3851 -0.1196 -1.5092
    8SAPS  C217 1003  -0.099   0.153   5.501 -0.1577  0.2715  0.3676
    8SAPS  H17R 1004  -0.088   0.043   5.515  1.2770  0.4356  0.6265
    8SAPS  H17S 1005   0.001   0.188   5.469  0.1090 -1.2377 -0.5857
    8SAPS  C218 1006  -0.194   0.179   5.366 -0.3804  0.0497  0.3526
    8SAPS  H18R 1007  -0.205   0.284   5.333  0.3970 -0.0723 -0.3082
    8SAPS  H18S 1008  -0.291   0.144   5.409  1.4080 -1.4660  3.5697
    8SAPS  C219 1009  -0.169   0.069   5.256 -0.7178  0.0022  0.0469
    8SAPS  H19R 1010  -0.250   0.087   5.182  0.9113 -1.2545 -2.1854
    8SAPS  H19S 1011  -0.168  -0.027   5.311 -0.4246  0.7550  1.4024
    8SAPS  C220 1012  -0.032   0.082   5.183  0.5683  0.0582 -0.4417
    8SAPS  H20R 1013   0.043   0.038   5.252 -0.0806 -0.1155  0.1721
    8SAPS  H20S 1014  -0.016   0.184   5.143 -0.3935 -0.2390 -1.6245
    8SAPS  H20T 1015  -0.034   0.008   5.101 -0.5117  0.0003 -0.3750
    8SAPS   C33 1016   0.293   1.273   6.786 -0.4825 -1.1535 -0.0600
    8SAPS   H3X 1017   0.218   1.354   6.781 -0.9931 -1.6813 -2.5674
    8SAPS   H3Y 1018   0.233   1.194   6.835  1.0016 -2.5762 -0.4377
    8SAPS   C34 1019   0.328   1.225   6.647 -0.0355 -0.9070  0.3055
    8SAPS   H4X 1020   0.237   1.170   6.613 -1.2522  0.6564  0.8808
    8SAPS   H4Y 1021   0.410   1.152   6.660 -0.6943 -1.8085 -0.4683
    8SAPS   C35 1022   0.349   1.346   6.545  0.4612 -0.2157  0.0818
    8SAPS   H5X 1023   0.450   1.392   6.553  0.9010 -1.1329 -0.0292
    8SAPS   H5Y 1024   0.266   1.420   6.550  0.9414  0.5531 -2.1997
    8SAPS   C36 1025   0.342   1.294   6.399 -0.4012  0.8185  0.2688
    8SAPS   H6X 1026   0.245   1.240   6.391  0.0645  0.0928 -0.6961
    8SAPS   H6Y 1027   0.424   1.220   6.390 -0.6486  0.6675 -1.0604
    8SAPS   C37 1028   0.366   1.391   6.287  0.4777  0.2569  0.2229
    8SAPS   H7X 1029   0.459   1.446   6.311 -0.0508  0.6735  1.3914
    8SAPS   H7Y 1030   0.288   1.469   6.295  0.4346  0.0400  2.4511
    8SAPS   C38 1031   0.373   1.315   6.153 -0.8040  0.2120 -0.2821
    8SAPS   H8X 1032   0.277   1.266   6.129 -0.4698 -0.0009 -1.2338
    8SAPS   H8Y 1033   0.464   1.253   6.170  0.9218  2.0276 -2.3492
    8SAPS   C39 1034   0.396   1.415   6.035 -0.1177 -0.3522 -0.2575
    8SAPS   H9X 1035   0.481   1.480   6.065 -0.4952 -0.4818  1.1607
    8SAPS   H9Y 1036   0.306   1.479   6.029 -1.2804 -1.8982  0.0118
    8SAPS  C310 1037   0.437   1.341   5.916  0.2251 -0.3645 -0.7292
    8SAPS  H10X 1038   0.353   1.275   5.884  0.9562 -2.0644  0.6653
    8SAPS  H10Y 1039   0.513   1.261   5.930 -2.4810 -3.3101 -1.5140
    8SAPS  C311 1040   0.467   1.427   5.800 -0.1452 -1.0900  0.4158
    8SAPS  H11X 1041   0.549   1.497   5.826  0.8290 -1.4075 -1.6115
    8SAPS  H11Y 1042   0.380   1.494   5.782  0.6695  0.0144  0.5453
    8SAPS  C312 1043   0.506   1.352   5.670 -0.1847 -0.7954 -0.0545
    8SAPS  H12X 1044   0.418   1.286   5.651  0.4041 -1.5110 -0.3503
    8SAPS  H12Y 1045   0.592   1.282   5.680 -0.7637 -1.6909 -1.1371
    8SAPS  C313 1046   0.523   1.455   5.556  1.0205  0.4421  0.1070
    8SAPS  H13X 1047   0.593   1.531   5.595  0.3577  0.3281  1.5804
    8SAPS  H13Y 1048   0.424   1.504   5.540 -0.6935 -2.5944  0.7267
    8SAPS  C314 1049   0.573   1.387   5.429 -0.3672 -0.7786  0.2843
    8SAPS  H14X 1050   0.492   1.314   5.407 -1.9808  1.1039 -0.2938
    8SAPS  H14Y 1051   0.673   1.339   5.438 -0.9393 -1.7927  1.5344
    8SAPS  C315 1052   0.569   1.477   5.302  0.6104  0.2145 -0.0865
    8SAPS  H15X 1053   0.638   1.564   5.303  0.7331  0.1203 -0.2061
    8SAPS  H15Y 1054   0.464   1.513   5.295  0.3336 -0.7602 -1.5873
    8SAPS  C316 1055   0.570   1.402   5.170 -0.8533  0.7635 -0.1995
    8SAPS  H16X 1056   0.516   1.305   5.168 -0.5760  0.6234 -0.9456
    8SAPS  H16Y 1057   0.676   1.379   5.148 -1.1934 -0.8840 -0.1888
    8SAPS  C317 1058   0.511   1.479   5.050  0.0810 -0.4066 -0.0115
    8SAPS  H17X 1059   0.415   1.519   5.090  1.2061 -0.6484  3.1852
    8SAPS  H17Y 1060   0.494   1.413   4.962 -0.2622  0.5519 -0.6803
    8SAPS  C318 1061   0.601   1.599   5.020 -0.1637 -0.5814 -0.6875
    8SAPS  H18X 1062   0.708   1.569   5.008 -0.3304 -1.2328 -0.5498
    8SAPS  H18Y 1063   0.584   1.679   5.096 -0.4006 -3.7938  2.9430
    8SAPS  H18Z 1064   0.565   1.643   4.925 -0.0442  0.4532 -0.2646
    9SAPS     N 1065   5.275   5.992   7.463 -0.3811  0.2888  0.4809
    9SAPS   HN1 1066   5.209   6.025   7.389  0.1521 -2.3809 -1.3536
    9SAPS   HN2 1067   5.231   5.995   7.557 -1.2635 -1.6487  0.1891
    9SAPS   HN3 1068   5.361   6.050   7.461 -0.2758  0.2078  1.7767
    9SAPS   C12 1069   5.289   5.853   7.422 -0.0446  0.1344  0.0151
    9SAPS  H12A 1070   5.373   5.815   7.478 -0.2470  0.9672  0.9093
    9SAPS   C13 1071   5.177   5.754   7.473 -0.9360 -0.2358  0.0070
    9SAPS  O13A 1072   5.074   5.800   7.529 -0.2230  0.3501  0.1759
    9SAPS  O13B 1073   5.207   5.632   7.468 -0.2372  0.5266 -0.1095
    9SAPS   C11 1074   5.308   5.843   7.265 -0.4108  0.0581  0.1794
    9SAPS  H11A 1075   5.217   5.889   7.220 -1.4238 -1.6067  0.4300
    9SAPS  H11B 1076   5.320   5.738   7.230 -2.5178 -0.2158  0.1584
    9SAPS     P 1077   5.532   5.867   7.124  0.0718 -0.1843  0.2939
    9SAPS   O13 1078   5.660   5.928   7.153 -0.4058 -0.3722  0.2322
    9SAPS   O14 1079   5.530   5.719   7.122  0.0931 -0.2168 -0.2540
    9SAPS   O12 1080   5.421   5.919   7.230  0.0839 -0.2774 -0.0061
    9SAPS   O11 1081   5.482   5.919   6.985 -0.5055 -0.3229  0.4529
    9SAPS    C1 1082   5.413   6.047   6.971  0.3209 -0.2659 -0.4590
    9SAPS    HA 1083   5.419   6.108   7.063 -0.0509  0.0534 -0.6429
    9SAPS    HB 1084   5.453   6.118   6.895 -2.3414  1.9760  0.0718
    9SAPS    C2 1085   5.263   6.035   6.937 -0.6472  0.5832 -0.5077
    9SAPS    HS 1086   5.211   5.972   7.012  3.6300 -1.3421  1.2249
    9SAPS   O21 1087   5.238   5.986   6.803  0.3534 -0.0343 -0.3944
    9SAPS   C21 1088   5.233   5.858   6.787  0.3116  0.0483  0.4516
    9SAPS   O22 1089   5.231   5.774   6.876  0.0753  0.1433  0.3101
    9SAPS   C22 1090   5.217   5.824   6.636  0.3860 -0.1423 -1.0466
    9SAPS   H2R 1091   5.242   5.905   6.565 -1.1803  0.2767 -1.1629
    9SAPS   H2S 1092   5.284   5.736   6.626 -0.1339 -0.7083  0.1741
    9SAPS    C3 1093   5.194   6.172   6.955  0.2653  0.1341 -0.3250
    9SAPS    HX 1094   5.186   6.198   7.063  0.0422  2.6924 -0.8911
    9SAPS    HY 1095   5.087   6.158   6.928  0.0787 -2.7569  1.4412
    9SAPS   O31 1096   5.245   6.283   6.883 -0.6075 -0.0259  0.1568
    9SAPS   C31 1097   5.209   6.295   6.757 -0.3408 -0.6568  0.1610
    9SAPS   O32 1098   5.114   6.245   6.708  0.0735  0.4013 -0.2714
    9SAPS   C32 1099   5.314   6.386   6.687 -0.2806  0.1722  0.1409
    9SAPS   H2X 1100   5.412   6.334   6.699 -0.0966  0.2276 -1.0008
    9SAPS   H2Y 1101   5.315   6.485   6.736 -0.6414  1.3820 -2.1579
    9SAPS   C23 1102   5.068   5.789   6.601  0.1336 -0.2016  0.4006
    9SAPS   H3R 1103   5.022   5.703   6.654 -0.8109 -0.1379 -0.2947
    9SAPS   H3S 1104   5.065   5.756   6.495 -2.5209 -0.7940  0.5784
    9SAPS   C24 1105   4.973   5.911   6.628  0.4417 -0.5553 -0.2015
    9SAPS   H4R 1106   4.995   5.940   6.733  0.4893  1.5298 -0.7515
    9SAPS   H4S 1107   4.874   5.860   6.620  0.3498 -0.1365 -2.4379
    9SAPS   C25 1108   4.980   6.022   6.532 -0.0826 -0.5447 -0.3064
    9SAPS   H5R 1109   5.069   6.085   6.546 -0.1404  0.2972 -3.1309
    9SAPS   C26 1110   4.891   6.042   6.432 -0.0689  0.3588  0.3437
    9SAPS   H6R 1111   4.897   6.138   6.378 -0.0008 -0.2867 -0.8353
    9SAPS   C27 1112   4.765   5.964   6.400  0.0422 -0.2750 -0.4257
    9SAPS   H7R 1113   4.693   5.980   6.483  0.8655  0.2174  0.2200
    9SAPS   H7S 1114   4.801   5.859   6.409 -1.1261 -0.5650  1.2888
    9SAPS   C28 1115   4.719   5.986   6.257 -0.2760 -0.4594 -0.2854
    9SAPS   H8R 1116   4.635   6.057   6.250  0.2424  0.0478 -1.7327
    9SAPS   C29 1117   4.784   5.937   6.145  1.0175 -0.5205  0.3590
    9SAPS   H9R 1118   4.743   5.974   6.050  2.1319 -2.1284 -0.7937
    9SAPS  C210 1119   4.894   5.838   6.139  0.0758 -0.2307  0.0271
    9SAPS  H10R 1120   4.873   5.742   6.190 -2.9618 -0.2417 -1.0004
    9SAPS  H10S 1121   4.980   5.883   6.192 -0.3501  1.1232 -0.3902
    9SAPS  C211 1122   4.940   5.794   6.002 -0.7500 -0.4952  0.2971
    9SAPS  H11R 1123   4.853   5.779   5.937 -0.1473 -1.0918 -0.3970
    9SAPS  C212 1124   5.065   5.766   5.964 -0.3415  0.1937 -0.5381
    9SAPS  H12R 1125   5.081   5.744   5.857  0.0221 -0.8462 -0.2770
    9SAPS  C213 1126   5.188   5.801   6.044 -0.3500  0.5204 -0.4488
    9SAPS  H13R 1127   5.167   5.897   6.097 -0.7012  0.8224 -1.1327
    9SAPS  H13S 1128   5.267   5.810   5.966  0.1065 -1.4255 -0.2420
    9SAPS  C214 1129   5.249   5.703   6.145  0.4122 -0.0708  0.0649
    9SAPS  H14R 1130   5.180   5.626   6.183 -1.4394  0.8237 -1.2861
    9SAPS  C215 1131   5.381   5.693   6.180  0.1429  0.5672 -0.4349
    9SAPS  H15R 1132   5.403   5.619   6.259  0.0537  0.4329 -0.5364
    9SAPS  C216 1133   5.500   5.781   6.142  0.2822  0.1381  0.2612
    9SAPS  H16R 1134   5.470   5.887   6.158 -0.5678 -0.4987  3.7149
    9SAPS  H16S 1135   5.510   5.764   6.033 -1.7541  3.5729 -0.6190
    9SAPS  C217 1136   5.637   5.759   6.216 -0.5691 -0.1835  0.1035
    9SAPS  H17R 1137   5.626   5.761   6.326 -1.2465 -1.2798  0.0674
    9SAPS  H17S 1138   5.701   5.846   6.190  0.4327 -1.0157 -0.3158
    9SAPS  C218 1139   5.705   5.629   6.167  1.0446 -0.3342  0.0943
    9SAPS  H18R 1140   5.695   5.619   6.057 -2.7652 -0.1859  0.2942
    9SAPS  H18S 1141   5.639   5.548   6.202 -1.6996  1.0845 -1.4942
    9SAPS  C219 1142   5.857   5.611   6.212  0.8999 -0.2089  0.2840
    9SAPS  H19R 1143   5.896   5.514   6.176  0.1086 -0.0778 -0.9802
    9SAPS  H19S 1144   5.863   5.601   6.323 -1.2490 -2.5482  0.2785
    9SAPS  C220 1145   5.949   5.724   6.167  0.3837 -0.4021  0.2236
    9SAPS  H20R 1146   6.058   5.708   6.173  0.9130  2.6859  0.0478
    9SAPS  H20S 1147   5.925   5.808   6.236  0.3772  0.2124 -0.5169
    9SAPS  H20T 1148   5.928   5.747   6.061 -1.6722  1.2345  0.9092
    9SAPS   C33 1149   5.288   6.407   6.534 -0.1620 -0.5198  0.3997
    9SAPS   H3X 1150   5.266   6.307   6.492  1.4227 -1.4546  1.6691
    9SAPS   H3Y 1151   5.385   6.421   6.482  1.3421 -1.5360  2.7339
    9SAPS   C34 1152   5.186   6.498   6.480 -0.3825 -0.7348 -0.1567
    9SAPS   H4X 1153   5.212   6.606   6.484  0.2583 -0.6661 -3.3875
    9SAPS   H4Y 1154   5.096   6.480   6.543 -0.5636  0.6187  0.0120
    9SAPS   C35 1155   5.136   6.478   6.343  0.0371  0.4417 -0.2619
    9SAPS   H5X 1156   5.044   6.540   6.335 -0.6017 -0.1051  2.0126
    9SAPS   H5Y 1157   5.121   6.368   6.338 -1.1275  0.5642  0.0534
    9SAPS   C36 1158   5.224   6.517   6.220  0.2019  0.2436 -0.1764
    9SAPS   H6X 1159   5.317   6.456   6.229  0.3255  0.4096 -0.3064
    9SAPS   H6Y 1160   5.242   6.623   6.252 -1.7937  0.4623  0.3172
    9SAPS   C37 1161   5.160   6.504   6.084  0.2089  0.5269  0.1397
    9SAPS   H7X 1162   5.233   6.540   6.008  3.7185 -0.5309  2.7373
    9SAPS   H7Y 1163   5.068   6.566   6.089 -2.0131 -2.6416  3.0578
    9SAPS   C38 1164   5.119   6.355   6.056 -0.1616  0.5737  0.3539
    9SAPS   H8X 1165   5.036   6.327   6.124 -2.3397 -1.1486 -2.7479
    9SAPS   H8Y 1166   5.200   6.282   6.076  1.1328  1.5128 -1.1620
    9SAPS   C39 1167   5.076   6.332   5.906  0.5428  0.2284 -0.1415
    9SAPS   H9X 1168   5.159   6.356   5.835 -0.7297  1.8881 -1.1601
    9SAPS   H9Y 1169   4.993   6.401   5.878  0.6678  0.0988 -0.8509
    9SAPS  C310 1170   5.043   6.182   5.877  0.4905 -1.1892  0.0871
    9SAPS  H10X 1171   4.974   6.147   5.957  1.0456 -0.9175  0.6909
    9SAPS  H10Y 1172   5.134   6.120   5.892  0.6593 -0.6748  1.2857
    9SAPS  C311 1173   4.987   6.161   5.740 -0.1159  0.2360 -0.2757
    9SAPS  H11X 1174   5.067   6.195   5.671  1.1665  1.0125  1.5181
    9SAPS  H11Y 1175   4.901   6.230   5.723 -0.3200  0.0648  0.0494
    9SAPS  C312 1176   4.956   6.017   5.704  0.4796 -0.1354  0.4138
    9SAPS  H12X 1177   4.885   5.974   5.778  1.2541  0.6172  1.6334
    9SAPS  H12Y 1178   5.045   5.951   5.715  2.1574  1.4386 -2.3888
    9SAPS  C313 1179   4.901   5.985   5.564  0.0716 -1.1175  0.9684
    9SAPS  H13X 1180   4.983   6.013   5.496  1.8583 -0.3607  3.2906
    9SAPS  H13Y 1181   4.815   6.054   5.553  1.3782  0.5305  0.7305
    9SAPS  C314 1182   4.863   5.836   5.554 -0.3479 -0.0453 -0.7593
    9SAPS  H14X 1183   4.780   5.810   5.623 -0.4847  2.0543 -0.0603
    9SAPS  H14Y 1184   4.945   5.765   5.578 -0.0230  0.7491  0.5703
    9SAPS  C315 1185   4.839   5.788   5.413  0.2526  0.2647  0.0316
    9SAPS  H15X 1186   4.801   5.684   5.409  0.2815  0.2891 -1.1748
    9SAPS  H15Y 1187   4.926   5.798   5.344  0.5817 -0.4280  0.3368
    9SAPS  C316 1188   4.731   5.864   5.343  0.5657  0.1743 -0.7078
    9SAPS  H16X 1189   4.769   5.964   5.313  1.2284 -0.5699 -2.4588
    9SAPS  H16Y 1190   4.641   5.879   5.407  0.4564 -1.2579 -0.4887
    9SAPS  C317 1191   4.681   5.799   5.215 -0.4876 -0.6105 -0.2904
    9SAPS  H17X 1192   4.612   5.861   5.155  2.5536  0.5176 -2.8826
    9SAPS  H17Y 1193   4.623   5.708   5.240  0.8766 -1.0892  1.4110
    9SAPS  C318 1194   4.790   5.754   5.118 -0.2595  0.3958  0.1231
    9SAPS  H18X 1195   4.834   5.844   5.069 -2.4984  0.7544 -1.3407
    9SAPS  H18Y 1196   4.738   5.697   5.038  1.6628 -0.1016 -0.8435
    9SAPS  H18Z 1197   4.868   5.692   5.167  0.6001  1.4084  0.0851
   10SAPS     N 1198   6.492   5.143   6.782  0.4091  0.0096  0.5454
   10SAPS   HN1 1199   6.533   5.069   6.842  0.1996 -3.2186 -2.9560
   10SAPS   HN2 1200   6.390   5.125   6.773  0.6817 -2.4943  1.6588
   10SAPS   HN3 1201   6.532   5.143   6.686 -1.3358  2.1984 -0.2711
   10SAPS   C12 1202   6.516   5.282   6.834 -0.1538 -0.2745 -0.3983
   10SAPS  H12A 1203   6.506   5.291   6.942 -1.5540  2.4597 -0.6583
   10SAPS   C13 1204   6.658   5.328   6.803  0.0151 -0.4632 -0.1391
   10SAPS  O13A 1205   6.728   5.252   6.726  0.4736  0.3591 -0.1647
   10SAPS  O13B 1206   6.712   5.427   6.861 -0.2003 -0.7972 -0.1384
   10SAPS   C11 1207   6.416   5.370   6.756 -0.1844  0.1842 -0.5748
   10SAPS  H11A 1208   6.445   5.369   6.649 -0.0468  3.0923 -0.6630
   10SAPS  H11B 1209   6.430   5.477   6.784 -2.7675  0.2920  0.6080
   10SAPS     P 1210   6.206   5.385   6.919 -0.0323 -0.4653  0.0537
   10SAPS   O13 1211   6.126   5.272   6.959  0.1830  0.3883 -0.4786
   10SAPS   O14 1212   6.288   5.451   7.018 -0.0534  0.3655 -0.5378
   10SAPS   O12 1213   6.277   5.338   6.788 -0.0634 -0.1805  0.7692
   10SAPS   O11 1214   6.106   5.501   6.864  0.0081 -0.4035 -0.2602
   10SAPS    C1 1215   6.135   5.588   6.763  1.0093 -0.6959  0.3438
   10SAPS    HA 1216   6.172   5.686   6.800 -0.8389  0.0390  0.3729
   10SAPS    HB 1217   6.193   5.550   6.676 -1.5716 -2.0338 -0.9093
   10SAPS    C2 1218   5.993   5.631   6.703  0.1467  0.1461 -0.0907
   10SAPS    HS 1219   5.938   5.686   6.783 -1.7779  0.3274 -1.4686
   10SAPS   O21 1220   5.919   5.516   6.654 -0.3754 -0.1154 -0.6737
   10SAPS   C21 1221   5.823   5.475   6.741 -0.3296 -0.2805  0.1450
   10SAPS   O22 1222   5.789   5.528   6.843  0.1245  1.1044 -0.5820
   10SAPS   C22 1223   5.745   5.356   6.675  0.0490  0.0831 -0.2163
   10SAPS   H2R 1224   5.783   5.340   6.572 -1.4375  0.9368 -0.9395
   10SAPS   H2S 1225   5.779   5.265   6.730  0.2046  0.1559 -0.1933
   10SAPS    C3 1226   5.995   5.730   6.586  0.6775  0.0111  0.5296
   10SAPS    HX 1227   6.056   5.686   6.504  2.8288  1.4173  1.3165
   10SAPS    HY 1228   6.062   5.815   6.610  0.1808  0.5722 -0.0376
   10SAPS   O31 1229   5.867   5.784   6.545  0.4362 -0.5243 -0.1999
   10SAPS   C31 1230   5.815   5.883   6.623  0.1155  0.0967  0.1709
   10SAPS   O32 1231   5.872   5.935   6.717  0.0455  0.2691 -0.1137
   10SAPS   C32 1232   5.686   5.922   6.551 -0.5765 -0.6492  0.1361
   10SAPS   H2X 1233   5.610   5.841   6.558 -2.1277  0.6262 -1.3833
   10SAPS   H2Y 1234   5.713   5.930   6.444  1.2498  1.4949  0.6894
   10SAPS   C23 1235   5.595   5.363   6.680  0.4091  0.1783 -0.2650
   10SAPS   H3R 1236   5.563   5.398   6.781  1.8702  0.3770  0.1562
   10SAPS   H3S 1237   5.552   5.262   6.661 -0.1908  0.5471 -0.9107
   10SAPS   C24 1238   5.547   5.461   6.575 -0.2500 -0.6194  0.6719
   10SAPS   H4R 1239   5.576   5.422   6.476  1.9491  3.2809 -0.4049
   10SAPS   H4S 1240   5.598   5.559   6.586  2.1094 -1.8020  0.9722
   10SAPS   C25 1241   5.401   5.481   6.581  0.3053  0.1567 -0.4410
   10SAPS   H5R 1242   5.369   5.547   6.663  0.9771 -1.4843  1.2335
   10SAPS   C26 1243   5.301   5.423   6.509  0.1612  0.2448 -0.1856
   10SAPS   H6R 1244   5.194   5.440   6.527 -0.1451  0.2674 -1.8129
   10SAPS   C27 1245   5.318   5.321   6.399 -0.0736 -0.1561  0.5417
   10SAPS   H7R 1246   5.366   5.232   6.444  1.0682  0.8063  1.2675
   10SAPS   H7S 1247   5.382   5.351   6.313  2.7077 -2.0735  1.8103
   10SAPS   C28 1248   5.183   5.285   6.330 -0.1481  0.1213 -0.5233
   10SAPS   H8R 1249   5.093   5.337   6.364  1.1610  1.7224  0.6434
   10SAPS   C29 1250   5.161   5.200   6.227  0.1032 -0.1862 -0.5278
   10SAPS   H9R 1251   5.063   5.167   6.188  0.8077  0.2919 -2.8426
   10SAPS  C210 1252   5.271   5.127   6.160  0.3671 -0.4084 -0.7147
   10SAPS  H10R 1253   5.293   5.026   6.200  2.1039 -0.7395 -2.3818
   10SAPS  H10S 1254   5.367   5.183   6.158  0.0076  0.2651 -3.5123
   10SAPS  C211 1255   5.229   5.116   6.014 -0.7684 -0.5890  0.4445
   10SAPS  H11R 1256   5.164   5.030   5.992 -0.4031 -0.8179  0.2423
   10SAPS  C212 1257   5.304   5.172   5.917  0.4404 -0.2887  0.3258
   10SAPS  H12R 1258   5.272   5.151   5.814  2.7436  0.7705 -0.6683
   10SAPS  C213 1259   5.412   5.271   5.926  0.1280  0.0831  0.1056
   10SAPS  H13R 1260   5.471   5.261   5.832 -1.5000  4.0278 -1.5418
   10SAPS  H13S 1261   5.479   5.239   6.009  1.1600  0.5601 -0.5220
   10SAPS  C214 1262   5.378   5.417   5.944 -0.4067  0.0456 -0.5643
   10SAPS  H14R 1263   5.331   5.434   6.042 -1.4248 -1.2637 -0.7995
   10SAPS  C215 1264   5.375   5.509   5.840  0.1656  0.8081  0.0870
   10SAPS  H15R 1265   5.368   5.614   5.870  0.6351  0.7178  0.5259
   10SAPS  C216 1266   5.418   5.491   5.697  0.5322  0.7091  0.6073
   10SAPS  H16R 1267   5.357   5.561   5.636  2.6813 -0.1101 -2.7436
   10SAPS  H16S 1268   5.400   5.386   5.664  0.5029  0.4794  1.3507
   10SAPS  C217 1269   5.568   5.516   5.654  0.2064 -0.3074  0.0338
   10SAPS  H17R 1270   5.626   5.431   5.697 -0.0346  0.3884  1.7913
   10SAPS  H17S 1271   5.606   5.606   5.706  1.7858 -1.5752  1.2020
   10SAPS  C218 1272   5.594   5.529   5.502  0.2142  0.1465  0.0906
   10SAPS  H18R 1273   5.702   5.551   5.485  0.2463  2.5706  2.7544
   10SAPS  H18S 1274   5.542   5.621   5.468  1.4768  0.7087 -0.4216
   10SAPS  C219 1275   5.550   5.411   5.409  0.5728  0.0645  0.3589
   10SAPS  H19R 1276   5.550   5.436   5.301  1.1182  0.2932  0.4115
   10SAPS  H19S 1277   5.443   5.392   5.435  0.8871  0.6629  2.2121
   10SAPS  C220 1278   5.630   5.277   5.416  1.0872  0.3479 -0.2999
   10SAPS  H20R 1279   5.616   5.224   5.512  1.3536  2.3479  0.9022
   10SAPS  H20S 1280   5.736   5.311   5.410  1.0331  0.5800  0.0221
   10SAPS  H20T 1281   5.594   5.204   5.341 -1.1110 -1.3231  2.2070
   10SAPS   C33 1282   5.639   6.057   6.620 -0.4430  0.5632 -0.1750
   10SAPS   H3X 1283   5.662   6.062   6.728 -3.0685 -0.6142  0.5027
   10SAPS   H3Y 1284   5.530   6.071   6.605 -0.3077  1.8379 -0.0795
   10SAPS   C34 1285   5.705   6.175   6.551 -0.5433  1.1576 -0.1627
   10SAPS   H4X 1286   5.814   6.174   6.570 -0.9399  1.9582  2.6148
   10SAPS   H4Y 1287   5.668   6.258   6.614 -2.1303 -0.4704  1.1785
   10SAPS   C35 1288   5.661   6.181   6.404 -0.1393 -0.4630 -0.5826
   10SAPS   H5X 1289   5.554   6.212   6.404 -0.4040 -1.3552 -0.2620
   10SAPS   H5Y 1290   5.678   6.088   6.346 -2.3229 -1.2263 -0.0848
   10SAPS   C36 1291   5.727   6.301   6.327 -0.1366 -0.3029 -0.0617
   10SAPS   H6X 1292   5.830   6.270   6.299  0.8475 -0.5367  3.3921
   10SAPS   H6Y 1293   5.736   6.385   6.399 -1.3842  0.7517 -1.0950
   10SAPS   C37 1294   5.647   6.337   6.202  0.5258 -0.3715 -0.9622
   10SAPS   H7X 1295   5.688   6.425   6.146 -1.2138 -0.0645 -1.8194
   10SAPS   H7Y 1296   5.547   6.377   6.228 -1.1417 -2.0304 -4.2986
   10SAPS   C38 1297   5.628   6.222   6.098 -0.2000  0.4426 -0.4137
   10SAPS   H8X 1298   5.569   6.143   6.150  1.2573  0.8080  1.9347
   10SAPS   H8Y 1299   5.724   6.185   6.056 -0.3716  0.4738 -0.8382
   10SAPS   C39 1300   5.542   6.257   5.978  0.8959  0.1740 -0.3698
   10SAPS   H9X 1301   5.592   6.314   5.897  0.9112  1.8276  0.7572
   10SAPS   H9Y 1302   5.441   6.290   6.010 -0.2009 -0.4596 -2.9061
   10SAPS  C310 1303   5.515   6.125   5.893  0.0098 -0.6650 -0.0130
   10SAPS  H10X 1304   5.462   6.055   5.961 -0.3631 -0.6145 -0.2482
   10SAPS  H10Y 1305   5.609   6.070   5.874  0.9480  0.5811  0.7718
   10SAPS  C311 1306   5.438   6.130   5.764 -0.6470 -0.7419 -0.4478
   10SAPS  H11X 1307   5.481   6.197   5.686 -1.4216  2.7956  1.9359
   10SAPS  H11Y 1308   5.339   6.178   5.781  0.7225  2.1867 -0.1266
   10SAPS  C312 1309   5.421   5.993   5.698 -0.2728 -0.0208  0.8223
   10SAPS  H12X 1310   5.360   5.932   5.769 -0.0719 -0.9630  0.1965
   10SAPS  H12Y 1311   5.522   5.948   5.688 -0.2036  0.1059  0.9513
   10SAPS  C313 1312   5.364   5.993   5.553  0.1232 -0.1118 -0.7555
   10SAPS  H13X 1313   5.432   6.046   5.483  2.3662 -0.9829  0.6476
   10SAPS  H13Y 1314   5.269   6.050   5.545  1.6475  2.3460 -2.7890
   10SAPS  C314 1315   5.339   5.845   5.513  0.2128  0.6276 -0.3317
   10SAPS  H14X 1316   5.247   5.814   5.567  1.6461 -0.8504  1.3274
   10SAPS  H14Y 1317   5.418   5.775   5.545  1.4205  2.0753 -0.0560
   10SAPS  C315 1318   5.312   5.818   5.370  0.0083 -0.4879 -0.3597
   10SAPS  H15X 1319   5.407   5.816   5.313  1.3294  2.8591  1.4495
   10SAPS  H15Y 1320   5.256   5.897   5.315  1.2399  0.4280 -0.3394
   10SAPS  C316 1321   5.237   5.681   5.351  0.2215 -0.4281  0.5295
   10SAPS  H16X 1322   5.132   5.689   5.386 -0.2475 -0.9100 -0.7319
   10SAPS  H16Y 1323   5.279   5.613   5.428 -2.3956 -3.2523 -0.3533
   10SAPS  C317 1324   5.246   5.633   5.204  0.8696 -0.6167  0.0474
   10SAPS  H17X 1325   5.350   5.626   5.168  0.7488  0.6526 -0.6214
   10SAPS  H17Y 1326   5.200   5.711   5.139  0.9918  0.9644  1.7758
   10SAPS  C318 1327   5.179   5.499   5.172  0.1626  0.2316 -0.1049
   10SAPS  H18X 1328   5.174   5.482   5.062 -0.1362  0.2681 -0.0975
   10SAPS  H18Y 1329   5.075   5.494   5.210  0.2501 -0.7573  0.0329
   10SAPS  H18Z 1330   5.241   5.420   5.219 -0.6893 -0.6546 -0.4431
   11SAPS     N 1331   1.042   4.500   2.427 -0.0189  0.5390  0.0489
   11SAPS   HN1 1332   1.115   4.428   2.444 -2.2229 -1.3221  2.3031
   11SAPS   HN2 1333   0.949   4.453   2.417  0.0351  0.4928 -0.2463
   11SAPS   HN3 1334   1.071   4.551   2.340  0.3256 -0.5441 -0.4860
   11SAPS   C12 1335   1.049   4.587   2.538  0.1650  0.9628 -0.4179
   11SAPS  H12A 1336   1.013   4.526   2.619 -3.8556  1.9764 -1.2541
   11SAPS   C13 1337   1.191   4.641   2.571 -0.6727 -0.2624  0.1110
   11SAPS  O13A 1338   1.281   4.630   2.483 -0.2639  0.1620 -0.5962
   11SAPS  O13B 1339   1.208   4.703   2.680  0.6175  0.3160  0.4493
   11SAPS   C11 1340   0.960   4.704   2.515 -0.3692 -0.1662 -0.7806
   11SAPS  H11A 1341   0.985   4.770   2.429 -3.3790 -0.4553 -1.9904
   11SAPS  H11B 1342   0.961   4.773   2.602 -3.3195 -0.9255 -0.0247
   11SAPS     P 1343   0.697   4.706   2.569 -0.1192  0.1966  0.0049
   11SAPS   O13 1344   0.672   4.845   2.519  0.0793  0.1920  0.6774
   11SAPS   O14 1345   0.593   4.597   2.560 -0.2285 -0.3602 -0.3210
   11SAPS   O12 1346   0.825   4.661   2.490  0.2700  0.6471  0.8358
   11SAPS   O11 1347   0.748   4.711   2.712 -0.0375  0.0018 -0.4014
   11SAPS    C1 1348   0.759   4.594   2.794 -0.9746 -0.2955  0.3332
   11SAPS    HA 1349   0.707   4.511   2.742 -0.7029  0.7926 -1.8007
   11SAPS    HB 1350   0.868   4.577   2.809 -0.5602  1.2229 -0.6459
   11SAPS    C2 1351   0.688   4.613   2.933 -0.6086 -0.1636 -0.1038
   11SAPS    HS 1352   0.589   4.639   2.891  0.8871  2.0533 -2.5851
   11SAPS   O21 1353   0.749   4.727   3.000  0.1622 -0.1255 -0.1362
   11SAPS   C21 1354   0.675   4.790   3.084  0.8090  0.9158  0.1672
   11SAPS   O22 1355   0.555   4.770   3.109  0.0551 -0.3787  0.2169
   11SAPS   C22 1356   0.751   4.886   3.173 -0.3544  0.2404  0.5912
   11SAPS   H2R 1357   0.804   4.817   3.243  1.1503  1.4786  0.7202
   11SAPS   H2S 1358   0.827   4.953   3.127 -1.6614  1.4632  0.1681
   11SAPS    C3 1359   0.714   4.487   3.007 -0.4821  0.1764 -0.0507
   11SAPS    HX 1360   0.818   4.453   2.986 -1.0071 -0.6703 -1.4073
   11SAPS    HY 1361   0.658   4.405   2.958  2.1645 -1.6198 -0.3091
   11SAPS   O31 1362   0.698   4.493   3.155  0.8285 -0.2093 -0.0911
   11SAPS   C31 1363   0.586   4.446   3.208  0.0016 -0.0692  0.1895
   11SAPS   O32 1364   0.502   4.376   3.148  0.2987  0.2494  0.2447
   11SAPS   C32 1365   0.579   4.481   3.354 -0.0170  0.5242 -0.0117
   11SAPS   H2X 1366   0.616   4.584   3.374 -0.6247  0.4181  1.8371
   11SAPS   H2Y 1367   0.654   4.411   3.397 -0.8433 -2.0229 -2.4161
   11SAPS   C23 1368   0.667   4.993   3.251  0.3717 -0.0592 -0.3176
   11SAPS   H3R 1369   0.737   5.051   3.316 -1.0524  2.9681 -1.3249
   11SAPS   H3S 1370   0.582   4.946   3.304  0.4135  0.2664  0.0389
   11SAPS   C24 1371   0.605   5.100   3.155 -0.1824 -0.2417 -0.3448
   11SAPS   H4R 1372   0.509   5.127   3.203  0.1559  2.5622 -1.0475
   11SAPS   H4S 1373   0.568   5.050   3.063  0.0962  1.5619 -1.5008
   11SAPS   C25 1374   0.685   5.221   3.120 -0.4898 -0.1969  0.2741
   11SAPS   H5R 1375   0.736   5.218   3.022 -0.1122  1.1884  0.4101
   11SAPS   C26 1376   0.707   5.335   3.199  0.0319  0.3004  0.2906
   11SAPS   H6R 1377   0.761   5.416   3.148 -1.0712  1.3376  0.7175
   11SAPS   C27 1378   0.661   5.354   3.336  0.3480 -0.5470 -0.0037
   11SAPS   H7R 1379   0.699   5.260   3.382 -0.6783 -1.5054 -1.0335
   11SAPS   H7S 1380   0.550   5.349   3.338  0.2696  0.1940 -1.1445
   11SAPS   C28 1381   0.703   5.465   3.423  0.1579  0.1452 -0.0093
   11SAPS   H8R 1382   0.746   5.545   3.361 -1.8722  0.3109 -1.2736
   11SAPS   C29 1383   0.701   5.475   3.560 -0.6881  0.7634 -0.0107
   11SAPS   H9R 1384   0.735   5.574   3.594 -2.9466  1.4857  0.3067
   11SAPS  C210 1385   0.659   5.370   3.658  0.2558 -0.0646 -0.2603
   11SAPS  H10R 1386   0.739   5.294   3.675 -0.1603 -0.2440  1.0201
   11SAPS  H10S 1387   0.566   5.320   3.622  0.1887 -0.3974  0.3494
   11SAPS  C211 1388   0.644   5.432   3.799 -0.1308 -0.0139  0.2029
   11SAPS  H11R 1389   0.713   5.511   3.831 -0.6060  0.6802 -0.4661
   11SAPS  C212 1390   0.543   5.405   3.882  0.4779  0.2267 -0.8849
   11SAPS  H12R 1391   0.532   5.455   3.980 -1.2107 -2.0651  0.1720
   11SAPS  C213 1392   0.437   5.298   3.851 -0.1921 -0.2965 -0.1202
   11SAPS  H13R 1393   0.482   5.197   3.840 -0.0685 -0.3668  0.9323
   11SAPS  H13S 1394   0.391   5.302   3.750  1.2214 -1.7861 -0.8747
   11SAPS  C214 1395   0.314   5.300   3.934  0.0046 -0.5548  0.4490
   11SAPS  H14R 1396   0.262   5.395   3.952 -1.8410 -1.4663  0.1117
   11SAPS  C215 1397   0.266   5.206   4.007  0.1367 -0.2876  0.1026
   11SAPS  H15R 1398   0.162   5.213   4.042 -0.1489  1.0051 -0.9290
   11SAPS  C216 1399   0.331   5.066   4.016 -0.1569 -0.8846  0.5409
   11SAPS  H16R 1400   0.375   5.064   4.118  1.0903 -1.1221  0.0214
   11SAPS  H16S 1401   0.415   5.048   3.946  0.1391  0.2068  0.6002
   11SAPS  C217 1402   0.213   4.965   4.021  0.1698 -0.0811  0.3385
   11SAPS  H17R 1403   0.120   5.000   4.072 -0.6338  1.5021 -2.0292
   11SAPS  H17S 1404   0.253   4.882   4.082 -0.4339  1.2006  2.5842
   11SAPS  C218 1405   0.177   4.921   3.878  0.1755  0.3539 -0.7333
   11SAPS  H18R 1406   0.252   4.853   3.834 -0.9096 -1.0374 -0.4802
   11SAPS  H18S 1407   0.177   5.010   3.811 -0.0726  0.0486 -1.1431
   11SAPS  C219 1408   0.048   4.846   3.861 -0.0683 -0.4278 -0.5157
   11SAPS  H19R 1409   0.021   4.830   3.755  0.7173  2.0088 -1.1619
   11SAPS  H19S 1410  -0.031   4.907   3.909 -0.9708 -3.0193  1.5278
   11SAPS  C220 1411   0.041   4.722   3.946 -0.3896 -0.6396  0.1974
   11SAPS  H20R 1412  -0.059   4.676   3.928 -0.0526 -2.4371  2.3619
   11SAPS  H20S 1413   0.043   4.745   4.055  0.1753 -2.0619  0.5047
   11SAPS  H20T 1414   0.124   4.657   3.913 -1.3387 -1.0950 -1.3718
   11SAPS   C33 1415   0.432   4.484   3.405 -0.2113  0.1538 -0.4824
   11SAPS   H3X 1416   0.370   4.403   3.361 -1.2548 -0.8783  2.6113
   11SAPS   H3Y 1417   0.373   4.578   3.409 -0.8420 -0.2222 -0.8134
   11SAPS   C34 1418   0.426   4.453   3.558 -0.0219 -0.2644  0.9901
   11SAPS   H4X 1419   0.509   4.382   3.582  0.9120 -0.2544 -1.9210
   11SAPS   H4Y 1420   0.320   4.424   3.575 -0.5886  2.4019  2.6008
   11SAPS   C35 1421   0.438   4.579   3.652  1.0137  0.5509 -0.0031
   11SAPS   H5X 1422   0.347   4.638   3.628  0.7018 -0.0918 -0.4276
   11SAPS   H5Y 1423   0.537   4.625   3.631  1.1998 -0.1958 -0.7814
   11SAPS   C36 1424   0.443   4.533   3.797  0.1835 -0.1681 -0.3384
   11SAPS   H6X 1425   0.519   4.453   3.810 -0.8977 -0.9472  1.7738
   11SAPS   H6Y 1426   0.347   4.486   3.825  0.2008  0.8687  1.6215
   11SAPS   C37 1427   0.465   4.638   3.902 -0.2618  0.1326 -0.5304
   11SAPS   H7X 1428   0.381   4.710   3.887 -0.8229 -0.5526 -0.7179
   11SAPS   H7Y 1429   0.564   4.684   3.881  0.5524 -1.4857 -0.4098
   11SAPS   C38 1430   0.464   4.590   4.052  0.3652  0.4882 -0.1996
   11SAPS   H8X 1431   0.525   4.498   4.044  0.4873  0.6474 -1.2312
   11SAPS   H8Y 1432   0.364   4.544   4.073  0.3434 -0.5360 -2.2984
   11SAPS   C39 1433   0.497   4.700   4.155  0.0454  0.0910  0.4540
   11SAPS   H9X 1434   0.430   4.785   4.130  2.5786  1.7755 -1.0891
   11SAPS   H9Y 1435   0.599   4.740   4.138 -0.6860  1.5777 -0.7299
   11SAPS  C310 1436   0.474   4.655   4.304 -0.1491 -0.3436  0.2060
   11SAPS  H10X 1437   0.504   4.548   4.303  0.2571 -0.2359  0.7823
   11SAPS  H10Y 1438   0.366   4.672   4.322 -0.6003 -1.4888 -1.2071
   11SAPS  C311 1439   0.568   4.726   4.403  0.4846  0.0812  0.9098
   11SAPS  H11X 1440   0.541   4.679   4.500 -1.1659 -2.0576 -0.4631
   11SAPS  H11Y 1441   0.556   4.836   4.399  0.4635  0.0592  0.2333
   11SAPS  C312 1442   0.726   4.704   4.377  0.5952  0.7244  0.3274
   11SAPS  H12X 1443   0.782   4.730   4.470 -0.8080  0.9717  1.1418
   11SAPS  H12Y 1444   0.758   4.776   4.299  2.7771  0.3734  0.8370
   11SAPS  C313 1445   0.765   4.563   4.332 -0.4146  0.3075  0.0634
   11SAPS  H13X 1446   0.871   4.545   4.306 -0.9241 -3.5626  0.0323
   11SAPS  H13Y 1447   0.702   4.535   4.244  2.3061  1.4147 -2.4145
   11SAPS  C314 1448   0.750   4.462   4.453 -0.6381 -0.6312 -0.5658
   11SAPS  H14X 1449   0.736   4.359   4.413 -0.2049 -0.7832 -0.3349
   11SAPS  H14Y 1450   0.659   4.488   4.511  0.2469  0.9605  0.1595
   11SAPS  C315 1451   0.855   4.474   4.564 -0.5984 -0.4055  0.2089
   11SAPS  H15X 1452   0.860   4.577   4.606 -0.4260 -0.3344  0.0160
   11SAPS  H15Y 1453   0.952   4.460   4.511  0.1234  3.5086  0.1961
   11SAPS  C316 1454   0.837   4.374   4.679 -0.3607  0.0399  0.4235
   11SAPS  H16X 1455   0.806   4.279   4.630  0.1346 -0.8989  1.8748
   11SAPS  H16Y 1456   0.758   4.410   4.749  0.6115  0.4324  1.3312
   11SAPS  C317 1457   0.961   4.359   4.766  0.2567  0.6672  0.3836
   11SAPS  H17X 1458   0.971   4.452   4.825 -1.4678  1.4635 -0.5107
   11SAPS  H17Y 1459   1.047   4.335   4.700 -0.9413  2.2410 -1.8869
   11SAPS  C318 1460   0.952   4.246   4.866  0.4450  0.5080  0.0152
   11SAPS  H18X 1461   0.854   4.252   4.918  0.4490 -0.2607  0.1188
   11SAPS  H18Y 1462   1.026   4.252   4.949 -0.5202 -1.3830  1.0939
   11SAPS  H18Z 1463   0.963   4.154   4.805  1.2329 -0.0120  0.9041
   12SAPS     N 1464   1.949   4.881   2.471 -0.7421 -0.0716  0.0904
   12SAPS   HN1 1465   1.944   4.826   2.382  1.2983 -0.3506  0.1023
   12SAPS   HN2 1466   1.997   4.972   2.458 -0.5502 -0.3491 -1.3751
   12SAPS   HN3 1467   2.019   4.837   2.533 -1.1801  0.3984  0.9255
   12SAPS   C12 1468   1.823   4.915   2.544 -0.2986  0.0539 -0.0083
   12SAPS  H12A 1469   1.746   4.944   2.475 -1.7815  2.4807  2.4552
   12SAPS   C13 1470   1.761   4.802   2.632  1.0875  0.3617 -0.7136
   12SAPS  O13A 1471   1.796   4.682   2.632  0.0107  0.2326 -0.2167
   12SAPS  O13B 1472   1.647   4.821   2.690  0.2023 -0.6156  0.1201
   12SAPS   C11 1473   1.856   5.041   2.632  0.6488  0.1355 -0.9398
   12SAPS  H11A 1474   1.952   5.021   2.685 -0.6305 -0.8951  1.1374
   12SAPS  H11B 1475   1.777   5.068   2.706  0.0783  0.3160 -1.6086
   12SAPS     P 1476   1.774   5.262   2.501 -0.1215 -0.1555  0.2882
   12SAPS   O13 1477   1.847   5.354   2.411 -0.8067 -0.7317 -0.2687
   12SAPS   O14 1478   1.663   5.187   2.441  0.3932  0.2377  0.0202
   12SAPS   O12 1479   1.877   5.149   2.544 -0.3564  0.4212 -0.0936
   12SAPS   O11 1480   1.737   5.328   2.637 -0.1346  0.3435  0.6808
   12SAPS    C1 1481   1.835   5.390   2.731  0.2125  0.2663 -0.1796
   12SAPS    HA 1482   1.925   5.327   2.744 -0.1263 -0.0427  0.7328
   12SAPS    HB 1483   1.874   5.487   2.692 -0.0391  0.2046 -0.5924
   12SAPS    C2 1484   1.771   5.422   2.865 -0.2418 -0.5843 -0.3154
   12SAPS    HS 1485   1.846   5.412   2.946 -1.4286 -2.6693  0.6183
   12SAPS   O21 1486   1.667   5.332   2.901  0.1601 -0.0277 -0.3632
   12SAPS   C21 1487   1.703   5.213   2.944 -0.3288 -0.4277 -0.2569
   12SAPS   O22 1488   1.815   5.168   2.939 -0.2056  0.4930  0.1900
   12SAPS   C22 1489   1.580   5.137   2.994 -0.0971 -0.5440 -0.2405
   12SAPS   H2R 1490   1.515   5.204   3.055  0.3437  0.3363 -0.7053
   12SAPS   H2S 1491   1.529   5.115   2.897 -1.1436  4.1076 -1.0157
   12SAPS    C3 1492   1.729   5.572   2.885  0.2471 -0.6959 -0.7743
   12SAPS    HX 1493   1.632   5.592   2.835  1.7887  3.8968 -2.4079
   12SAPS    HY 1494   1.806   5.633   2.834  0.3890  0.8175  1.1256
   12SAPS   O31 1495   1.715   5.613   3.029 -0.0751 -0.5116 -0.0387
   12SAPS   C31 1496   1.827   5.626   3.096 -0.0351 -0.4132 -0.3390
   12SAPS   O32 1497   1.940   5.618   3.050 -0.2785  0.1553 -0.6934
   12SAPS   C32 1498   1.783   5.672   3.236 -0.1804 -0.0231  0.4185
   12SAPS   H2X 1499   1.673   5.659   3.235 -0.2607  0.2908 -2.0091
   12SAPS   H2Y 1500   1.810   5.779   3.252  1.0104 -0.4570  1.4096
   12SAPS   C23 1501   1.602   5.007   3.079 -0.1001  0.6029 -0.2800
   12SAPS   H3R 1502   1.662   4.927   3.032  0.1241  0.0785  0.8668
   12SAPS   H3S 1503   1.499   4.967   3.096 -0.8110  1.8908 -1.3543
   12SAPS   C24 1504   1.667   5.025   3.214  0.2911 -0.9947 -0.3866
   12SAPS   H4R 1505   1.773   5.055   3.199 -0.1179  0.2022 -0.9310
   12SAPS   H4S 1506   1.660   4.925   3.262 -0.4782 -1.8154 -2.1116
   12SAPS   C25 1507   1.598   5.128   3.306  0.1964 -0.7576  0.3951
   12SAPS   H5R 1508   1.551   5.215   3.258  1.3249  0.9860  2.2737
   12SAPS   C26 1509   1.570   5.104   3.436  0.2672 -0.4160 -0.7157
   12SAPS   H6R 1510   1.530   5.180   3.505  3.5674  0.0661  0.9228
   12SAPS   C27 1511   1.619   4.974   3.500 -0.5393  0.1153  0.6584
   12SAPS   H7R 1512   1.725   4.960   3.468 -0.7859 -1.4001  0.4260
   12SAPS   H7S 1513   1.565   4.887   3.456  1.1552 -0.4097 -0.4825
   12SAPS   C28 1514   1.629   4.985   3.652  0.2503  0.1616  0.2628
   12SAPS   H8R 1515   1.560   4.920   3.707  1.9888 -0.5566  1.7051
   12SAPS   C29 1516   1.704   5.064   3.729 -0.1281 -0.8012 -0.4883
   12SAPS   H9R 1517   1.662   5.062   3.831 -1.2099  0.3653 -0.8940
   12SAPS  C210 1518   1.813   5.159   3.689  0.1395 -0.1583 -0.3709
   12SAPS  H10R 1519   1.776   5.262   3.709  2.4191  0.7422 -0.4642
   12SAPS  H10S 1520   1.822   5.148   3.578  0.5346 -0.8510 -0.2771
   12SAPS  C211 1521   1.939   5.122   3.755  0.2083 -0.0387 -0.1644
   12SAPS  H11R 1522   2.018   5.075   3.694  0.6310 -1.7257  1.5744
   12SAPS  C212 1523   1.977   5.164   3.879 -0.7245  0.2959 -0.4711
   12SAPS  H12R 1524   2.082   5.145   3.908 -0.8030  1.5728  0.7222
   12SAPS  C213 1525   1.907   5.255   3.976  0.2410  0.5362  0.4143
   12SAPS  H13R 1526   1.832   5.318   3.924  0.2018 -0.0978 -0.3094
   12SAPS  H13S 1527   1.975   5.325   4.029  0.9858  1.4157 -1.6091
   12SAPS  C214 1528   1.829   5.169   4.071  0.1303  0.3481 -0.7391
   12SAPS  H14R 1529   1.771   5.089   4.023 -0.4670  0.0941  0.3690
   12SAPS  C215 1530   1.844   5.168   4.203  1.1450 -0.0831 -0.7113
   12SAPS  H15R 1531   1.771   5.107   4.259  0.3131  2.2248  0.8511
   12SAPS  C216 1532   1.948   5.246   4.286  0.6665  0.6007  0.7285
   12SAPS  H16R 1533   1.979   5.338   4.232 -0.9188 -0.0290 -1.3644
   12SAPS  H16S 1534   2.033   5.174   4.291 -1.6805 -2.3185  1.3357
   12SAPS  C217 1535   1.915   5.266   4.428  0.2770  0.7509  0.1363
   12SAPS  H17R 1536   1.886   5.171   4.478 -0.0467 -0.1923 -1.7696
   12SAPS  H17S 1537   1.833   5.337   4.450 -1.6030 -1.7452  1.8061
   12SAPS  C218 1538   2.034   5.331   4.489  0.5308 -0.8066  0.8486
   12SAPS  H18R 1539   2.055   5.426   4.435  1.1375 -0.9931  0.7494
   12SAPS  H18S 1540   2.125   5.270   4.471  1.6550  0.9466  0.3583
   12SAPS  C219 1541   2.019   5.372   4.636 -0.3697 -0.0590 -0.2653
   12SAPS  H19R 1542   1.975   5.286   4.692  0.5439 -0.4923 -0.1793
   12SAPS  H19S 1543   1.940   5.449   4.630  0.9163  1.3157 -0.2424
   12SAPS  C220 1544   2.135   5.424   4.712 -0.0887 -0.1841  0.1401
   12SAPS  H20R 1545   2.100   5.467   4.808 -0.0379  0.8967 -0.3178
   12SAPS  H20S 1546   2.190   5.504   4.659 -0.5027  0.8383  1.2051
   12SAPS  H20T 1547   2.202   5.338   4.735 -1.5864 -1.2265  0.8047
   12SAPS   C33 1548   1.832   5.596   3.360  0.1269  0.1797  0.4617
   12SAPS   H3X 1549   1.927   5.642   3.395  0.4225 -1.7545  2.3787
   12SAPS   H3Y 1550   1.851   5.488   3.342  4.7669  0.7839  0.5591
   12SAPS   C34 1551   1.728   5.600   3.472 -0.1648 -0.3238 -0.0457
   12SAPS   H4X 1552   1.641   5.535   3.447 -0.0904 -1.1061  1.5607
   12SAPS   H4Y 1553   1.684   5.700   3.492 -1.4897 -0.7395 -0.8066
   12SAPS   C35 1554   1.793   5.538   3.597 -0.5413 -0.2035  0.5868
   12SAPS   H5X 1555   1.891   5.588   3.613 -0.6570  0.6934 -1.2675
   12SAPS   H5Y 1556   1.814   5.430   3.579  0.8780  0.3227 -1.2389
   12SAPS   C36 1557   1.696   5.564   3.716 -0.0633 -0.3322 -0.0935
   12SAPS   H6X 1558   1.681   5.674   3.718  5.1123  0.5879 -0.0784
   12SAPS   H6Y 1559   1.752   5.545   3.810 -1.4791  1.4751  1.2078
   12SAPS   C37 1560   1.563   5.486   3.713 -0.3727 -0.2174 -0.2689
   12SAPS   H7X 1561   1.591   5.379   3.698  2.0330  0.6324 -2.8611
   12SAPS   H7Y 1562   1.514   5.516   3.618 -0.1742  0.8427 -0.0424
   12SAPS   C38 1563   1.468   5.509   3.827  0.2413 -0.4342  0.1850
   12SAPS   H8X 1564   1.376   5.449   3.807 -0.7943  1.2984 -0.4679
   12SAPS   H8Y 1565   1.435   5.614   3.815 -0.3662 -0.3525  2.0981
   12SAPS   C39 1566   1.517   5.482   3.970 -0.6391  0.5501 -1.0260
   12SAPS   H9X 1567   1.579   5.391   3.984 -1.8016  0.1716  2.8423
   12SAPS   H9Y 1568   1.424   5.474   4.030  0.6512 -0.9092  0.8835
   12SAPS  C310 1569   1.611   5.591   4.034  0.6360  0.3145 -0.0994
   12SAPS  H10X 1570   1.534   5.666   4.062  0.3483  1.2381 -3.0372
   12SAPS  H10Y 1571   1.676   5.652   3.968  0.7608  0.3456  0.0523
   12SAPS  C311 1572   1.681   5.540   4.156 -0.6240 -0.5658  0.1763
   12SAPS  H11X 1573   1.783   5.499   4.141  0.4674  1.6331  1.0053
   12SAPS  H11Y 1574   1.613   5.475   4.215  0.3995 -0.9199  1.0183
   12SAPS  C312 1575   1.720   5.659   4.246 -0.3443  0.0879 -0.4929
   12SAPS  H12X 1576   1.630   5.720   4.272  1.4113  1.3944  3.2333
   12SAPS  H12Y 1577   1.792   5.722   4.189  0.6178  0.0988  0.7027
   12SAPS  C313 1578   1.780   5.610   4.377 -0.8673  0.3555  0.1491
   12SAPS  H13X 1579   1.878   5.560   4.360 -0.3261  0.2204  3.1553
   12SAPS  H13Y 1580   1.727   5.525   4.425  1.1415 -0.8687  0.3475
   12SAPS  C314 1581   1.804   5.732   4.471 -0.1792  0.2582  0.8210
   12SAPS  H14X 1582   1.837   5.821   4.413  0.4602 -1.1565 -1.0801
   12SAPS  H14Y 1583   1.893   5.718   4.537  1.1904  2.0442 -0.5342
   12SAPS  C315 1584   1.674   5.779   4.542 -0.1456  0.4705  0.0533
   12SAPS  H15X 1585   1.653   5.721   4.634 -0.7902 -0.2010 -0.5052
   12SAPS  H15Y 1586   1.591   5.782   4.468 -2.1159  0.7639  2.2008
   12SAPS  C316 1587   1.697   5.916   4.597  0.6390  0.4905  0.2039
   12SAPS  H16X 1588   1.710   5.993   4.518  0.5183 -0.4787 -0.7901
   12SAPS  H16Y 1589   1.789   5.911   4.660  0.9043  1.7799 -0.0487
   12SAPS  C317 1590   1.588   5.962   4.692 -0.2831  0.1265 -0.4273
   12SAPS  H17X 1591   1.619   6.060   4.735  0.9841  1.0973 -3.3098
   12SAPS  H17Y 1592   1.575   5.892   4.777 -0.0928  0.6603  0.0471
   12SAPS  C318 1593   1.446   5.974   4.633 -0.6248 -0.2127  0.6590
   12SAPS  H18X 1594   1.435   6.021   4.533 -0.7015  0.9466  1.1903
   12SAPS  H18Y 1595   1.383   6.038   4.699  0.0801  3.2604 -1.7828
   12SAPS  H18Z 1596   1.408   5.870   4.637 -0.8792 -0.1183  0.7138
   13SAPS     N 1597   6.614   2.624   2.371  0.3879 -0.0076  0.1630
   13SAPS   HN1 1598   6.551   2.573   2.435  0.7224 -2.8319 -1.5918
   13SAPS   HN2 1599   6.694   2.562   2.346 -0.6105 -0.6887 -1.4686
   13SAPS   HN3 1600   6.658   2.697   2.432  1.3166 -1.0599  0.7938
   13SAPS   C12 1601   6.540   2.673   2.253 -0.2868  0.0300 -0.0414
   13SAPS  H12A 1602   6.602   2.735   2.189 -0.5840  2.6481  2.0399
   13SAPS   C13 1603   6.482   2.563   2.163 -0.5450 -0.2241  0.4749
   13SAPS  O13A 1604   6.522   2.445   2.179 -0.0689  0.1320  0.0304
   13SAPS  O13B 1605   6.445   2.599   2.051 -0.5296  0.1586  0.6094
   13SAPS   C11 1606   6.416   2.760   2.288 -0.7715 -0.5882 -0.2863
   13SAPS  H11A 1607   6.349   2.700   2.355 -1.0210  1.0078  0.9484
   13SAPS  H11B 1608   6.370   2.780   2.190  1.0284 -0.2259 -1.0947
   13SAPS     P 1609   6.342   2.982   2.408 -0.4116 -0.7296 -0.2643
   13SAPS   O13 1610   6.403   3.113   2.440 -0.1422  0.4444  0.0485
   13SAPS   O14 1611   6.225   2.985   2.317  0.3037 -0.4742 -0.0315
   13SAPS   O12 1612   6.462   2.883   2.348  0.3838 -0.5168 -0.1207
   13SAPS   O11 1613   6.315   2.915   2.544  0.7631  0.1899  0.6578
   13SAPS    C1 1614   6.416   2.883   2.628  0.0455 -0.0166 -0.1683
   13SAPS    HA 1615   6.467   2.791   2.592 -3.5119 -2.8183  1.3458
   13SAPS    HB 1616   6.495   2.960   2.640 -1.0675  1.1711 -0.2323
   13SAPS    C2 1617   6.350   2.837   2.758  0.2173  0.4226  0.2295
   13SAPS    HS 1618   6.252   2.789   2.737 -0.6976  1.4672  1.9081
   13SAPS   O21 1619   6.320   2.954   2.827 -0.4955  0.1587  0.0397
   13SAPS   C21 1620   6.250   2.940   2.937  0.2244  0.5748  0.1716
   13SAPS   O22 1621   6.197   2.837   2.977  0.0041 -0.1275 -0.3628
   13SAPS   C22 1622   6.236   3.076   3.002  0.3997 -0.0947  0.1366
   13SAPS   H2R 1623   6.330   3.127   2.973  1.6640 -1.5964  1.3482
   13SAPS   H2S 1624   6.146   3.122   2.957  0.5287 -0.2461 -0.2782
   13SAPS    C3 1625   6.436   2.723   2.836 -0.1037 -0.0686 -0.4015
   13SAPS    HX 1626   6.478   2.650   2.764  1.4539 -1.1383  1.5322
   13SAPS    HY 1627   6.366   2.657   2.892 -0.4226  1.2986  0.8904
   13SAPS   O31 1628   6.536   2.793   2.925 -0.3017  1.0622  0.1407
   13SAPS   C31 1629   6.633   2.705   2.973 -0.6541 -0.6179 -0.1921
   13SAPS   O32 1630   6.637   2.588   2.942 -0.4756 -0.0928  0.2674
   13SAPS   C32 1631   6.734   2.766   3.063  0.6797  0.6766  0.6974
   13SAPS   H2X 1632   6.833   2.747   3.016 -0.5218  0.8570 -2.0848
   13SAPS   H2Y 1633   6.736   2.707   3.158 -0.3669  1.9557  1.5321
   13SAPS   C23 1634   6.202   3.063   3.152  0.0986 -0.4998 -0.8430
   13SAPS   H3R 1635   6.287   3.012   3.202  0.2619  1.9554  1.6227
   13SAPS   H3S 1636   6.109   3.002   3.152 -1.8787  2.3357 -1.5760
   13SAPS   C24 1637   6.172   3.205   3.206  0.1074  0.2485 -0.2419
   13SAPS   H4R 1638   6.077   3.237   3.157 -1.5412 -0.3798  2.3724
   13SAPS   H4S 1639   6.252   3.276   3.176 -0.8939  0.4171 -2.7553
   13SAPS   C25 1640   6.140   3.209   3.353  0.0510 -0.2779  0.5148
   13SAPS   H5R 1641   6.034   3.198   3.381 -0.2463  0.2597 -0.3503
   13SAPS   C26 1642   6.216   3.265   3.447 -0.4841  0.0934 -0.2184
   13SAPS   H6R 1643   6.185   3.262   3.553 -0.2346  1.5267 -0.0915
   13SAPS   C27 1644   6.350   3.326   3.417 -0.2146 -0.4691 -0.1442
   13SAPS   H7R 1645   6.391   3.286   3.322 -1.0793 -0.0050 -0.7288
   13SAPS   H7S 1646   6.415   3.301   3.503 -1.6663 -0.1865  1.0853
   13SAPS   C28 1647   6.345   3.475   3.396  0.2213  0.4907  0.3592
   13SAPS   H8R 1648   6.341   3.503   3.290 -0.8655 -0.6284  0.0846
   13SAPS   C29 1649   6.360   3.576   3.481 -0.5222 -0.3165  0.3583
   13SAPS   H9R 1650   6.329   3.675   3.445 -1.8058 -0.7077  0.3425
   13SAPS  C210 1651   6.367   3.570   3.637 -0.0567 -0.4761  0.1554
   13SAPS  H10R 1652   6.405   3.667   3.675 -0.2236 -0.2936 -0.1382
   13SAPS  H10S 1653   6.445   3.498   3.669  0.1995 -1.5476 -2.5855
   13SAPS  C211 1654   6.230   3.537   3.694 -0.2128  0.8319  0.0672
   13SAPS  H11R 1655   6.147   3.541   3.623 -1.1481  0.1572  1.0844
   13SAPS  C212 1656   6.199   3.529   3.820 -0.3894  0.0967  0.3206
   13SAPS  H12R 1657   6.094   3.511   3.848 -0.0043 -0.2216  1.6099
   13SAPS  C213 1658   6.294   3.540   3.934 -0.6756  0.3520 -1.3040
   13SAPS  H13R 1659   6.328   3.645   3.952 -1.2655 -0.1510  4.3339
   13SAPS  H13S 1660   6.383   3.480   3.907 -0.5447  1.1873 -2.9071
   13SAPS  C214 1661   6.232   3.497   4.073 -0.5322 -0.0291  0.4690
   13SAPS  H14R 1662   6.123   3.504   4.082 -0.5839  1.4862 -0.8940
   13SAPS  C215 1663   6.297   3.467   4.184  0.2264 -0.0043  0.4786
   13SAPS  H15R 1664   6.237   3.448   4.274  0.9576 -2.5286  0.5095
   13SAPS  C216 1665   6.446   3.448   4.208  0.7463  0.1803  0.1708
   13SAPS  H16R 1666   6.470   3.496   4.305 -0.0847  0.0554  0.4427
   13SAPS  H16S 1667   6.508   3.492   4.127  0.4019  2.2364  0.9688
   13SAPS  C217 1668   6.478   3.303   4.218 -0.1538 -0.2663  0.2874
   13SAPS  H17R 1669   6.588   3.300   4.234 -0.3538 -1.5299  1.7598
   13SAPS  H17S 1670   6.444   3.237   4.136 -1.3005  0.5633  0.0720
   13SAPS  C218 1671   6.424   3.242   4.345  0.0615  0.4420 -0.5263
   13SAPS  H18R 1672   6.327   3.192   4.326  0.8963 -2.1183  1.3529
   13SAPS  H18S 1673   6.423   3.315   4.428  0.2242 -1.0013  0.8107
   13SAPS  C219 1674   6.515   3.121   4.392 -0.0411  0.1415 -0.7114
   13SAPS  H19R 1675   6.610   3.163   4.431 -1.9808  3.0107  1.4050
   13SAPS  H19S 1676   6.538   3.058   4.303  1.2125  0.2259 -0.4598
   13SAPS  C220 1677   6.446   3.038   4.503 -0.7835  0.2597  0.4644
   13SAPS  H20R 1678   6.507   2.958   4.550  0.7450  1.7658  1.1799
   13SAPS  H20S 1679   6.358   2.994   4.453 -0.6475 -0.2444  0.6653
   13SAPS  H20T 1680   6.409   3.103   4.585 -0.4150  0.0370  0.8132
   13SAPS   C33 1681   6.717   2.912   3.090  0.1657  0.6795  0.1144
   13SAPS   H3X 1682   6.690   2.965   2.996 -1.4437  0.2840  0.3198
   13SAPS   H3Y 1683   6.818   2.939   3.128  0.7196  0.7301 -1.3497
   13SAPS   C34 1684   6.602   2.944   3.197 -0.1645  0.6009  0.3889
   13SAPS   H4X 1685   6.500   2.911   3.169  0.6474 -0.0979 -1.9547
   13SAPS   H4Y 1686   6.589   3.055   3.197  0.0736  0.6289  0.5035
   13SAPS   C35 1687   6.628   2.888   3.344  0.0807  0.0453 -0.2479
   13SAPS   H5X 1688   6.738   2.893   3.357  0.3716 -2.3574 -1.3455
   13SAPS   H5Y 1689   6.600   2.781   3.351  1.4596 -0.2583  1.3552
   13SAPS   C36 1690   6.550   2.958   3.449 -0.4282 -0.0668  0.0971
   13SAPS   H6X 1691   6.442   2.936   3.435 -0.5372  0.6326 -0.2233
   13SAPS   H6Y 1692   6.555   3.068   3.434 -0.7005 -0.3630 -2.6083
   13SAPS   C37 1693   6.594   2.926   3.591  0.4385  0.1535  0.5200
   13SAPS   H7X 1694   6.700   2.952   3.608  0.7349 -0.6050 -0.1359
   13SAPS   H7Y 1695   6.592   2.818   3.618 -0.1763  0.0861  0.2251
   13SAPS   C38 1696   6.509   2.996   3.694 -0.6879 -0.5797 -1.1842
   13SAPS   H8X 1697   6.400   2.975   3.697 -0.7080 -0.4053 -0.4973
   13SAPS   H8Y 1698   6.506   3.103   3.664 -1.5266 -0.8489 -2.1233
   13SAPS   C39 1699   6.564   2.993   3.833 -0.2246 -0.3308  0.9953
   13SAPS   H9X 1700   6.521   3.077   3.892  1.6269  1.5247 -0.1385
   13SAPS   H9Y 1701   6.676   2.995   3.834 -0.1985  0.1729 -0.2957
   13SAPS  C310 1702   6.514   2.857   3.894  0.0320 -0.0931  0.3377
   13SAPS  H10X 1703   6.603   2.791   3.899 -0.2065 -0.3477  2.1691
   13SAPS  H10Y 1704   6.434   2.800   3.843 -0.6435 -0.6708  1.9519
   13SAPS  C311 1705   6.462   2.876   4.037 -0.2940  0.1886 -0.0947
   13SAPS  H11X 1706   6.368   2.936   4.034  0.3849  1.4320  1.7773
   13SAPS  H11Y 1707   6.528   2.938   4.102  1.6788 -1.9010  0.0211
   13SAPS  C312 1708   6.433   2.744   4.111  0.0191 -0.6053 -0.0411
   13SAPS  H12X 1709   6.534   2.704   4.133  1.4062 -0.1047 -4.5387
   13SAPS  H12Y 1710   6.385   2.670   4.044 -1.7348 -0.6314  1.1812
   13SAPS  C313 1711   6.351   2.753   4.236 -0.7523  0.2776  0.5336
   13SAPS  H13X 1712   6.262   2.819   4.227  0.0239  1.5363  1.7208
   13SAPS  H13Y 1713   6.419   2.798   4.311  0.0062  1.7357 -0.9765
   13SAPS  C314 1714   6.314   2.617   4.289  0.1634  0.2095 -0.2761
   13SAPS  H14X 1715   6.401   2.548   4.291  0.0787  0.1058 -0.1217
   13SAPS  H14Y 1716   6.239   2.566   4.224  0.6894 -3.8917  2.0288
   13SAPS  C315 1717   6.241   2.618   4.421  0.0955  0.3759  0.4458
   13SAPS  H15X 1718   6.167   2.701   4.418  1.1439  1.3317  0.6522
   13SAPS  H15Y 1719   6.320   2.646   4.493  0.5523 -2.8720  1.3763
   13SAPS  C316 1720   6.174   2.479   4.456 -0.3984 -1.0130  0.3950
   13SAPS  H16X 1721   6.251   2.400   4.466  2.1465  1.2832  0.2323
   13SAPS  H16Y 1722   6.100   2.451   4.378 -0.9023 -0.4291  0.6510
   13SAPS  C317 1723   6.106   2.496   4.595  0.5728 -0.1770 -0.2292
   13SAPS  H17X 1724   6.038   2.584   4.586  0.0371 -0.5923 -0.2611
   13SAPS  H17Y 1725   6.177   2.522   4.676 -0.3951 -0.1838  0.6346
   13SAPS  C318 1726   6.019   2.375   4.631  0.9584  0.9414  0.1592
   13SAPS  H18X 1727   5.945   2.344   4.554 -0.3677  1.7188  1.0947
   13SAPS  H18Y 1728   5.955   2.389   4.720  0.7797  0.2256  0.1498
   13SAPS  H18Z 1729   6.084   2.285   4.633 -0.2781 -0.0463 -1.3418
   14SAPS     N 1730   0.979   3.799   2.090 -0.5146  0.0159  0.0787
   14SAPS   HN1 1731   1.071   3.800   2.042 -0.6690  1.9413 -0.2650
   14SAPS   HN2 1732   1.017   3.817   2.185 -1.6044  1.9530  0.2026
   14SAPS   HN3 1733   0.934   3.706   2.084  2.3162 -1.4124 -1.0661
   14SAPS   C12 1734   0.902   3.929   2.063  0.4669 -0.0250 -0.9479
   14SAPS  H12A 1735   0.985   3.995   2.041 -0.4303  2.0805  1.5185
   14SAPS   C13 1736   0.802   3.933   1.941 -0.6351  0.7260  0.2330
   14SAPS  O13A 1737   0.797   3.830   1.872  0.3379  0.0918 -0.5311
   14SAPS  O13B 1738   0.765   4.046   1.903 -0.5533  0.0345  0.2808
   14SAPS   C11 1739   0.828   3.976   2.192 -0.2870  0.1469 -0.4113
   14SAPS  H11A 1740   0.776   3.888   2.238  2.3079 -0.2774  2.0623
   14SAPS  H11B 1741   0.746   4.045   2.165  0.7011  1.0849 -1.0554
   14SAPS     P 1742   0.980   3.957   2.401  0.1709  0.0510  0.0573
   14SAPS   O13 1743   1.042   3.827   2.347 -0.1052 -0.7085  0.1745
   14SAPS   O14 1744   1.068   4.048   2.480 -0.9428 -0.0924 -0.2316
   14SAPS   O12 1745   0.923   4.044   2.285  0.6895 -0.3075 -0.2014
   14SAPS   O11 1746   0.857   3.919   2.474 -0.3125  0.7329 -0.3781
   14SAPS    C1 1747   0.745   4.005   2.500  0.4322  0.5548  0.2962
   14SAPS    HA 1748   0.724   4.063   2.408  1.1315 -0.2498 -0.3729
   14SAPS    HB 1749   0.663   3.939   2.536  0.2353  1.2253  1.1274
   14SAPS    C2 1750   0.769   4.107   2.614  0.2391 -0.3724  0.3821
   14SAPS    HS 1751   0.869   4.152   2.596 -1.0732  1.3888 -3.8283
   14SAPS   O21 1752   0.754   4.049   2.753  0.3706 -0.0336  0.0852
   14SAPS   C21 1753   0.796   4.132   2.845  0.2442  0.2860 -0.1778
   14SAPS   O22 1754   0.857   4.239   2.826 -0.3231  0.2225  0.1070
   14SAPS   C22 1755   0.764   4.061   2.976 -0.6148 -0.7021 -0.4862
   14SAPS   H2R 1756   0.656   4.078   2.992 -0.0900  2.5686  0.3253
   14SAPS   H2S 1757   0.800   3.956   2.967  1.6310 -0.1662  1.2171
   14SAPS    C3 1758   0.673   4.232   2.596 -0.3415 -0.5027  0.5124
   14SAPS    HX 1759   0.651   4.243   2.488  4.1304 -0.7104 -0.6061
   14SAPS    HY 1760   0.724   4.328   2.620  0.0176 -0.4185 -0.5649
   14SAPS   O31 1761   0.556   4.245   2.675  0.3226 -0.0720 -0.3032
   14SAPS   C31 1762   0.460   4.147   2.656  0.3139 -0.0002 -0.1969
   14SAPS   O32 1763   0.467   4.053   2.582  0.9539  0.1103 -0.1497
   14SAPS   C32 1764   0.362   4.169   2.776  0.0406  0.0653  0.5052
   14SAPS   H2X 1765   0.264   4.191   2.728  1.5832  2.1151 -1.9877
   14SAPS   H2Y 1766   0.396   4.252   2.842 -1.1568  0.7910  0.2491
   14SAPS   C23 1767   0.842   4.119   3.100  0.1578  0.0503  0.5578
   14SAPS   H3R 1768   0.814   4.225   3.119  0.7230  0.3327 -0.1279
   14SAPS   H3S 1769   0.948   4.113   3.068 -0.5196  0.3028 -1.9471
   14SAPS   C24 1770   0.808   4.049   3.227  0.7040  0.8509  0.4223
   14SAPS   H4R 1771   0.878   4.084   3.305 -0.0818 -0.4424  1.7608
   14SAPS   H4S 1772   0.839   3.944   3.213 -1.1976  0.6240 -3.5042
   14SAPS   C25 1773   0.666   4.066   3.281 -0.7751 -0.7489  0.3185
   14SAPS   H5R 1774   0.585   4.044   3.210  0.8921  0.2619 -2.0094
   14SAPS   C26 1775   0.634   4.067   3.413 -0.3718 -0.0425 -0.2744
   14SAPS   H6R 1776   0.530   4.080   3.446 -0.3030  0.2696 -0.1766
   14SAPS   C27 1777   0.716   4.075   3.536  0.2097  0.0391  0.2337
   14SAPS   H7R 1778   0.812   4.019   3.527 -2.3059 -4.4149 -1.9478
   14SAPS   H7S 1779   0.673   4.021   3.622  1.2399  0.5336  1.0865
   14SAPS   C28 1780   0.749   4.214   3.586  0.5515 -0.1553  0.3460
   14SAPS   H8R 1781   0.790   4.277   3.506  0.3536 -0.6918 -0.1908
   14SAPS   C29 1782   0.725   4.257   3.711  0.1653 -0.6401 -0.3888
   14SAPS   H9R 1783   0.760   4.359   3.734 -1.1103 -0.7458  2.3462
   14SAPS  C210 1784   0.681   4.182   3.832 -0.4474 -0.6797 -0.5135
   14SAPS  H10R 1785   0.578   4.145   3.810 -0.9987 -1.8060  3.2108
   14SAPS  H10S 1786   0.665   4.244   3.922  0.8552  0.7380 -1.2058
   14SAPS  C211 1787   0.766   4.071   3.871 -0.0522  0.3392 -0.2223
   14SAPS  H11R 1788   0.819   4.017   3.792 -0.3696 -1.4974  0.7621
   14SAPS  C212 1789   0.784   4.021   3.995 -0.6900  0.3387  0.5486
   14SAPS  H12R 1790   0.871   3.954   4.005  0.0615  1.0888 -0.8175
   14SAPS  C213 1791   0.718   4.074   4.114  0.3319 -0.5962 -0.1285
   14SAPS  H13R 1792   0.688   3.991   4.182  1.7857 -0.6341  0.5067
   14SAPS  H13S 1793   0.625   4.133   4.101  1.2543  0.9810  0.0976
   14SAPS  C214 1794   0.811   4.179   4.189  0.1633 -0.5481 -0.6548
   14SAPS  H14R 1795   0.799   4.285   4.165  0.5530 -0.8821 -2.4687
   14SAPS  C215 1796   0.899   4.139   4.286  0.1717  0.3068  0.5233
   14SAPS  H15R 1797   0.966   4.219   4.320  0.0338 -0.2078  2.0554
   14SAPS  C216 1798   0.952   4.006   4.324  0.1919  0.1661 -0.0560
   14SAPS  H16R 1799   1.053   3.983   4.284  1.0252 -0.7424  2.3536
   14SAPS  H16S 1800   0.885   3.933   4.276  0.8165 -0.9022  0.6524
   14SAPS  C217 1801   0.960   3.977   4.472 -0.7427 -0.5320  0.3142
   14SAPS  H17R 1802   0.860   3.976   4.519 -1.1208 -0.8108 -0.4921
   14SAPS  H17S 1803   1.005   4.065   4.523 -1.3648 -0.5984  0.9888
   14SAPS  C218 1804   1.034   3.842   4.501 -0.4249  0.6166 -0.0224
   14SAPS  H18R 1805   1.117   3.836   4.428 -0.7866  0.0295 -0.3934
   14SAPS  H18S 1806   0.961   3.760   4.486 -1.0242  1.1330  0.0365
   14SAPS  C219 1807   1.119   3.833   4.627  0.2815  0.4022 -0.1175
   14SAPS  H19R 1808   1.200   3.757   4.619 -0.3558 -0.4272  0.9641
   14SAPS  H19S 1809   1.059   3.804   4.716  2.4381 -0.5191  1.1061
   14SAPS  C220 1810   1.200   3.961   4.657 -0.5356 -0.3166  0.4273
   14SAPS  H20R 1811   1.271   3.951   4.742 -0.7477 -0.2541  0.6104
   14SAPS  H20S 1812   1.136   4.045   4.690 -0.9328  0.1763 -1.4586
   14SAPS  H20T 1813   1.265   3.994   4.573 -1.1379  1.1539  0.5096
   14SAPS   C33 1814   0.341   4.039   2.863  0.0031  0.4178  0.1609
   14SAPS   H3X 1815   0.439   4.024   2.914  0.4823  0.0903 -0.8259
   14SAPS   H3Y 1816   0.332   3.951   2.795  0.5950 -0.4083  1.1117
   14SAPS   C34 1817   0.219   4.045   2.950 -0.1577 -0.4098  0.3560
   14SAPS   H4X 1818   0.180   3.942   2.964  1.8266 -0.9832  2.1187
   14SAPS   H4Y 1819   0.141   4.089   2.885  1.0351  1.6027  0.1886
   14SAPS   C35 1820   0.232   4.119   3.087  0.1469  0.3955 -0.0369
   14SAPS   H5X 1821   0.207   4.223   3.058 -1.1022  0.0815 -0.1504
   14SAPS   H5Y 1822   0.338   4.114   3.118 -0.8091  0.2552  3.7895
   14SAPS   C36 1823   0.135   4.066   3.196 -0.5362  0.1895  0.8579
   14SAPS   H6X 1824   0.174   3.965   3.221  0.0642 -0.1545 -1.2704
   14SAPS   H6Y 1825   0.028   4.055   3.168 -0.1141 -3.1789  0.1021
   14SAPS   C37 1826   0.172   4.153   3.313 -0.7186 -0.3494 -0.7499
   14SAPS   H7X 1827   0.189   4.260   3.287 -1.0744  0.1021  0.7647
   14SAPS   H7Y 1828   0.270   4.115   3.351  1.1050  1.8510 -2.8825
   14SAPS   C38 1829   0.068   4.136   3.421  0.3104  0.2019 -0.3607
   14SAPS   H8X 1830   0.040   4.030   3.439  0.0943 -0.2327 -2.8452
   14SAPS   H8Y 1831  -0.030   4.173   3.382 -0.2999 -2.2243 -1.3027
   14SAPS   C39 1832   0.100   4.209   3.556 -0.1901  0.5175  0.1682
   14SAPS   H9X 1833   0.003   4.216   3.610  0.3058  0.3271  1.1087
   14SAPS   H9Y 1834   0.145   4.309   3.544 -0.4919  0.6717  0.3001
   14SAPS  C310 1835   0.198   4.140   3.648  0.2470 -0.1596 -0.3169
   14SAPS  H10X 1836   0.303   4.121   3.617 -0.8025 -2.6352 -2.7709
   14SAPS  H10Y 1837   0.145   4.044   3.667 -2.6718  1.0431 -1.6958
   14SAPS  C311 1838   0.201   4.211   3.781 -0.0732 -0.2261 -0.1167
   14SAPS  H11X 1839   0.097   4.237   3.811  0.3889  1.3602  0.1957
   14SAPS  H11Y 1840   0.273   4.292   3.758  1.0159 -1.6620 -2.1209
   14SAPS  C312 1841   0.268   4.136   3.897  0.6681  0.3861  0.4892
   14SAPS  H12X 1842   0.360   4.086   3.860  2.2770  3.0568  0.5714
   14SAPS  H12Y 1843   0.201   4.052   3.925 -1.0173 -0.2009 -4.3250
   14SAPS  C313 1844   0.327   4.221   4.013  0.6222 -0.0098  0.0255
   14SAPS  H13X 1845   0.247   4.295   4.037  0.1792 -0.1987 -0.8167
   14SAPS  H13Y 1846   0.424   4.269   3.987  2.4405 -2.7094  1.3913
   14SAPS  C314 1847   0.350   4.151   4.150  0.0420  0.5347 -0.6119
   14SAPS  H14X 1848   0.432   4.076   4.142 -1.0415 -0.4856 -3.1763
   14SAPS  H14Y 1849   0.262   4.094   4.186  0.1855  1.2952  1.0689
   14SAPS  C315 1850   0.387   4.243   4.269  0.5840 -0.2866  0.1584
   14SAPS  H15X 1851   0.318   4.330   4.275  2.6362  1.4472 -0.1557
   14SAPS  H15Y 1852   0.481   4.293   4.238 -0.0516  0.9513  0.1582
   14SAPS  C316 1853   0.402   4.164   4.401 -1.1232  0.5021  0.3553
   14SAPS  H16X 1854   0.474   4.083   4.375  0.3541  1.4883  1.1787
   14SAPS  H16Y 1855   0.303   4.117   4.416 -2.4788  1.4531 -4.0015
   14SAPS  C317 1856   0.445   4.246   4.515  0.4104  0.2007 -0.1735
   14SAPS  H17X 1857   0.547   4.283   4.492  0.1179  0.6936 -0.7207
   14SAPS  H17Y 1858   0.455   4.173   4.598  0.2635  0.5504  0.1552
   14SAPS  C318 1859   0.368   4.376   4.548 -0.3856  0.7539 -0.5232
   14SAPS  H18X 1860   0.404   4.425   4.642  0.5669  0.3804 -0.6855
   14SAPS  H18Y 1861   0.259   4.356   4.550 -0.0686 -1.1752  0.6257
   14SAPS  H18Z 1862   0.382   4.446   4.463 -0.2623  0.4689 -0.7379
   15SAPS     N 1863   6.049   4.768   2.420 -0.1460 -0.2545 -0.4478
   15SAPS   HN1 1864   5.964   4.708   2.419 -0.1366 -0.2989  0.4820
   15SAPS   HN2 1865   6.083   4.750   2.516 -1.3373  2.7707  0.6598
   15SAPS   HN3 1866   6.026   4.869   2.413  1.1511  0.1231  0.4562
   15SAPS   C12 1867   6.128   4.727   2.294  0.3340 -0.5926 -0.8614
   15SAPS  H12A 1868   6.096   4.627   2.269 -0.1240 -1.1029  1.5243
   15SAPS   C13 1869   6.104   4.821   2.172 -0.2684  0.4458 -0.6652
   15SAPS  O13A 1870   6.013   4.907   2.177 -0.4043  0.0343  0.3738
   15SAPS  O13B 1871   6.163   4.794   2.065 -0.1341  0.0122 -0.6966
   15SAPS   C11 1872   6.282   4.719   2.327  0.6423 -0.6718 -0.0254
   15SAPS  H11A 1873   6.314   4.820   2.359 -0.5946  0.0881 -1.0927
   15SAPS  H11B 1874   6.340   4.702   2.234  0.6164 -0.7198 -0.0328
   15SAPS     P 1875   6.336   4.468   2.398  0.0741 -0.2742 -0.1296
   15SAPS   O13 1876   6.267   4.444   2.270 -0.0555 -0.5373 -0.0272
   15SAPS   O14 1877   6.483   4.455   2.415  0.1006  0.0097  0.0355
   15SAPS   O12 1878   6.310   4.622   2.429 -0.8682 -0.2305 -0.1697
   15SAPS   O11 1879   6.258   4.393   2.514 -0.0524 -0.0858  0.4868
   15SAPS    C1 1880   6.117   4.384   2.539 -0.4373 -0.7445  0.9800
   15SAPS    HA 1881   6.084   4.485   2.572  0.9110 -0.4280  1.4126
   15SAPS    HB 1882   6.057   4.353   2.451 -0.8387  3.0665 -0.2596
   15SAPS    C2 1883   6.100   4.280   2.652  0.1338  0.0119 -0.3103
   15SAPS    HS 1884   5.992   4.258   2.664  0.4395 -2.1023 -1.1310
   15SAPS   O21 1885   6.168   4.312   2.778 -0.4080 -0.2513  0.3527
   15SAPS   C21 1886   6.119   4.418   2.841 -0.4990  0.9561  0.5766
   15SAPS   O22 1887   6.023   4.482   2.795 -0.2747  0.4075  0.3637
   15SAPS   C22 1888   6.198   4.450   2.962 -0.1201 -0.2927 -0.6350
   15SAPS   H2R 1889   6.250   4.362   3.006 -0.3988  0.0769  0.4923
   15SAPS   H2S 1890   6.276   4.523   2.931 -1.5540  2.7648  2.2500
   15SAPS    C3 1891   6.155   4.141   2.608 -0.1625  0.5056 -0.2451
   15SAPS    HX 1892   6.263   4.163   2.611 -0.2518  1.2007 -1.4734
   15SAPS    HY 1893   6.119   4.122   2.505  0.7145 -3.2392 -0.0073
   15SAPS   O31 1894   6.110   4.044   2.713 -0.1445  0.4760 -0.3312
   15SAPS   C31 1895   6.151   3.925   2.683 -0.3027  0.3332  0.1651
   15SAPS   O32 1896   6.210   3.892   2.577 -0.1504 -0.0122 -0.2589
   15SAPS   C32 1897   6.116   3.828   2.792 -0.4109 -0.1660 -0.1365
   15SAPS   H2X 1898   6.109   3.725   2.750  3.6650 -2.9531  4.8535
   15SAPS   H2Y 1899   6.019   3.853   2.839  0.1764  1.2998  0.3510
   15SAPS   C23 1900   6.115   4.506   3.080  0.4286  0.1205  0.0141
   15SAPS   H3R 1901   6.032   4.438   3.108  0.2468 -0.2655 -1.3595
   15SAPS   H3S 1902   6.061   4.595   3.042  0.7175 -0.0479 -0.8246
   15SAPS   C24 1903   6.186   4.522   3.216  0.0897  0.3173  0.0524
   15SAPS   H4R 1904   6.234   4.424   3.239  4.4723  2.0647 -0.7339
   15SAPS   H4S 1905   6.114   4.543   3.298 -0.8324 -1.4527 -0.2465
   15SAPS   C25 1906   6.310   4.620   3.208  0.9434 -0.1175 -0.0423
   15SAPS   H5R 1907   6.377   4.611   3.121 -1.4833 -0.0679 -2.0212
   15SAPS   C26 1908   6.344   4.709   3.301  0.0598 -0.1212 -0.4588
   15SAPS   H6R 1909   6.431   4.774   3.283  0.1459 -0.0387  0.2345
   15SAPS   C27 1910   6.258   4.744   3.419 -0.6734 -0.2641 -1.2426
   15SAPS   H7R 1911   6.265   4.667   3.499 -2.5719  0.9007  0.1381
   15SAPS   H7S 1912   6.151   4.735   3.391 -0.2313 -0.7463 -2.8805
   15SAPS   C28 1913   6.297   4.885   3.469 -0.3782  0.1877 -0.2970
   15SAPS   H8R 1914   6.281   4.961   3.392 -0.5326 -0.3914 -0.8501
   15SAPS   C29 1915   6.365   4.915   3.577  0.3331  0.8554  0.4138
   15SAPS   H9R 1916   6.401   5.016   3.598 -0.7522  1.6272 -1.2006
   15SAPS  C210 1917   6.402   4.820   3.686  0.0186  0.0908  0.2691
   15SAPS  H10R 1918   6.348   4.724   3.676  0.0424  0.1784 -0.8856
   15SAPS  H10S 1919   6.380   4.866   3.785  0.5781 -1.3998  1.1226
   15SAPS  C211 1920   6.552   4.799   3.695 -0.8331 -0.2270 -0.0193
   15SAPS  H11R 1921   6.613   4.890   3.701 -1.2018 -0.0740  3.0164
   15SAPS  C212 1922   6.607   4.675   3.686 -0.7333  0.0857  0.4587
   15SAPS  H12R 1923   6.712   4.669   3.718 -0.1699  0.2313 -1.2428
   15SAPS  C213 1924   6.535   4.540   3.678 -0.8095 -1.0558 -0.5667
   15SAPS  H13R 1925   6.490   4.529   3.577 -2.5295  1.3774 -0.1597
   15SAPS  H13S 1926   6.459   4.517   3.756  0.6100 -1.3793  0.7838
   15SAPS  C214 1927   6.643   4.440   3.714 -0.1172 -0.9496  0.7166
   15SAPS  H14R 1928   6.694   4.408   3.622 -0.4530  3.8211 -1.4421
   15SAPS  C215 1929   6.671   4.388   3.835  0.7598  0.7432  0.1214
   15SAPS  H15R 1930   6.743   4.305   3.846  0.8843  0.6540 -1.1436
   15SAPS  C216 1931   6.599   4.434   3.960 -0.3333  0.0094  0.5960
   15SAPS  H16R 1932   6.511   4.366   3.968 -0.6839  0.1565 -1.5550
   15SAPS  H16S 1933   6.555   4.533   3.935  0.2504 -0.6461 -3.7094
   15SAPS  C217 1934   6.679   4.427   4.091 -0.0192 -0.1763 -1.0165
   15SAPS  H17R 1935   6.633   4.494   4.166  1.0920  0.4932 -0.9076
   15SAPS  H17S 1936   6.780   4.471   4.078 -0.0111 -0.1510 -0.8707
   15SAPS  C218 1937   6.695   4.285   4.157 -0.3435 -0.4133 -0.3554
   15SAPS  H18R 1938   6.748   4.213   4.091 -0.4668  0.7102 -1.7293
   15SAPS  H18S 1939   6.595   4.244   4.183 -0.9128  1.2945  0.3613
   15SAPS  C219 1940   6.756   4.295   4.295  0.3503 -0.3096 -0.1880
   15SAPS  H19R 1941   6.757   4.193   4.340 -1.8846  0.2309  1.2236
   15SAPS  H19S 1942   6.696   4.350   4.370  0.8584  1.4178 -1.0010
   15SAPS  C220 1943   6.898   4.359   4.301  0.0622  0.5978 -0.3403
   15SAPS  H20R 1944   6.901   4.451   4.240  1.6713  0.6555 -0.2123
   15SAPS  H20S 1945   6.971   4.286   4.259  0.0225  0.4638 -0.1777
   15SAPS  H20T 1946   6.933   4.384   4.403  0.7908 -2.2242  0.1842
   15SAPS   C33 1947   6.221   3.815   2.902  0.3597  0.3189 -0.9311
   15SAPS   H3X 1948   6.223   3.915   2.949 -2.0985  0.4657 -1.0064
   15SAPS   H3Y 1949   6.329   3.803   2.879  1.0160  1.1794  1.4330
   15SAPS   C34 1950   6.195   3.716   3.015 -0.5257  0.2129 -0.0755
   15SAPS   H4X 1951   6.276   3.730   3.090 -0.5878 -0.6247  0.1599
   15SAPS   H4Y 1952   6.208   3.612   2.978  1.1734  0.0802  0.8004
   15SAPS   C35 1953   6.053   3.721   3.075  0.9021 -0.2290 -0.1171
   15SAPS   H5X 1954   5.971   3.701   3.003  0.6380 -0.8504  0.3477
   15SAPS   H5Y 1955   6.032   3.828   3.100  1.9584 -0.1934  0.6915
   15SAPS   C36 1956   6.052   3.644   3.212  0.4614 -1.0813 -0.8286
   15SAPS   H6X 1957   6.112   3.706   3.283  0.0574 -1.3331 -0.2619
   15SAPS   H6Y 1958   6.097   3.543   3.202  0.2353 -1.9631  4.3438
   15SAPS   C37 1959   5.908   3.632   3.253 -0.1242 -0.5408  0.0559
   15SAPS   H7X 1960   5.849   3.568   3.184  1.0034  0.0512 -1.5154
   15SAPS   H7Y 1961   5.849   3.725   3.269  0.7231  0.1058 -0.4988
   15SAPS   C38 1962   5.912   3.550   3.387 -0.4386 -1.0186 -0.0457
   15SAPS   H8X 1963   5.952   3.619   3.464  0.3538 -0.6841 -0.7350
   15SAPS   H8Y 1964   5.986   3.466   3.383  1.7186  0.6661  1.8946
   15SAPS   C39 1965   5.783   3.495   3.434  0.4367 -0.0076 -0.0015
   15SAPS   H9X 1966   5.736   3.426   3.360 -0.7707  2.1161 -1.3020
   15SAPS   H9Y 1967   5.713   3.581   3.443 -0.4092 -0.6816 -0.0464
   15SAPS  C310 1968   5.781   3.439   3.577 -0.1914  0.3710  0.2725
   15SAPS  H10X 1969   5.881   3.396   3.593  0.3067  1.6753  0.8123
   15SAPS  H10Y 1970   5.703   3.362   3.594  0.7085 -0.7582 -0.5691
   15SAPS  C311 1971   5.780   3.545   3.689 -0.4424 -0.5910 -0.1675
   15SAPS  H11X 1972   5.679   3.592   3.692 -1.5347 -2.7563 -0.9997
   15SAPS  H11Y 1973   5.868   3.612   3.696  0.9674 -2.4542  0.6745
   15SAPS  C312 1974   5.785   3.475   3.826 -0.0293  0.1564  0.2417
   15SAPS  H12X 1975   5.879   3.417   3.829  0.3376  0.5040 -2.5972
   15SAPS  H12Y 1976   5.701   3.406   3.848  0.3281 -0.7800 -1.2572
   15SAPS  C313 1977   5.809   3.576   3.937  0.8863  0.4379 -0.2999
   15SAPS  H13X 1978   5.724   3.648   3.937  0.7374  0.2645 -0.4157
   15SAPS  H13Y 1979   5.894   3.644   3.916 -0.1900  1.9205 -0.0377
   15SAPS  C314 1980   5.819   3.516   4.081  0.4484  0.3841  0.8720
   15SAPS  H14X 1981   5.897   3.436   4.085 -0.1873 -0.2448  0.8229
   15SAPS  H14Y 1982   5.720   3.471   4.105  0.7885  0.0789  1.7469
   15SAPS  C315 1983   5.839   3.625   4.184  0.1413 -0.6618 -0.6603
   15SAPS  H15X 1984   5.755   3.697   4.174  1.2717  0.9979  1.2292
   15SAPS  H15Y 1985   5.942   3.659   4.160  0.1463 -0.1799  0.0176
   15SAPS  C316 1986   5.832   3.570   4.327 -0.1955 -0.1406 -0.1163
   15SAPS  H16X 1987   5.909   3.489   4.331 -1.0520 -1.0866 -1.6654
   15SAPS  H16Y 1988   5.733   3.526   4.352 -0.4188 -0.1408 -0.9935
   15SAPS  C317 1989   5.866   3.684   4.426 -0.4939 -0.3676 -0.3393
   15SAPS  H17X 1990   5.815   3.776   4.390  0.3871  1.8263  3.4290
   15SAPS  H17Y 1991   5.972   3.712   4.406 -0.4681  0.5841  1.0006
   15SAPS  C318 1992   5.847   3.677   4.577 -0.3625  0.1201  0.4089
   15SAPS  H18X 1993   5.913   3.750   4.629  0.0946 -0.8661  1.2620
   15SAPS  H18Y 1994   5.886   3.575   4.597 -0.4584  0.0302  0.1290
   15SAPS  H18Z 1995   5.741   3.680   4.610 -0.0261 -0.6054  1.6461
   16SAPS     N 1996   0.084   6.690   2.650 -0.2815  0.3146 -0.0903
   16SAPS   HN1 1997   0.132   6.714   2.561  1.1445  1.2154  0.8739
   16SAPS   HN2 1998   0.088   6.586   2.653  1.3014  0.3647  0.7495
   16SAPS   HN3 1999  -0.018   6.709   2.648 -0.0018  1.9538 -0.7652
   16SAPS   C12 2000   0.145   6.773   2.764 -0.1452 -0.0178 -0.0549
   16SAPS  H12A 2001   0.253   6.779   2.765 -0.0930 -0.7595 -0.1002
   16SAPS   C13 2002   0.098   6.924   2.752  0.1838  0.4470 -0.6904
   16SAPS  O13A 2003   0.015   6.954   2.663  0.0451  0.1070 -0.3131
   16SAPS  O13B 2004   0.151   7.005   2.827 -0.6935 -0.0711  0.3209
   16SAPS   C11 2005   0.114   6.709   2.900  0.2150  0.8811  0.5515
   16SAPS  H11A 2006   0.008   6.680   2.918  0.9424 -1.1127  2.0365
   16SAPS  H11B 2007   0.148   6.770   2.986  3.0871 -0.8192  0.7388
   16SAPS     P 2008   0.144   6.458   2.995  0.2071 -0.6128 -0.2932
   16SAPS   O13 2009   0.000   6.450   3.014  0.2498  0.2112 -0.4526
   16SAPS   O14 2010   0.216   6.339   2.949 -0.1835  0.9936 -0.1008
   16SAPS   O12 2011   0.187   6.586   2.908 -0.1119 -0.7066 -0.0790
   16SAPS   O11 2012   0.217   6.497   3.133  0.4138  0.4731 -0.1645
   16SAPS    C1 2013   0.349   6.544   3.127  0.0205 -0.4567  0.0276
   16SAPS    HA 2014   0.391   6.562   3.026 -1.2802  0.3241 -0.4057
   16SAPS    HB 2015   0.334   6.645   3.172 -2.2460  0.1764 -1.8976
   16SAPS    C2 2016   0.448   6.457   3.210 -0.4338 -0.1289  0.0103
   16SAPS    HS 2017   0.440   6.355   3.167  1.7664 -0.7441  0.9213
   16SAPS   O21 2018   0.409   6.465   3.346 -0.0032  0.7296 -0.2109
   16SAPS   C21 2019   0.447   6.357   3.418 -0.5066 -0.4542 -0.3157
   16SAPS   O22 2020   0.491   6.253   3.376 -0.1332 -0.1104 -0.1008
   16SAPS   C22 2021   0.422   6.393   3.562  0.6062  0.1684 -0.0138
   16SAPS   H2R 2022   0.509   6.364   3.624  0.4651  1.6546  0.9153
   16SAPS   H2S 2023   0.401   6.501   3.574  1.0604  0.8906 -4.2449
   16SAPS    C3 2024   0.591   6.505   3.180  0.2939  0.6029 -0.1217
   16SAPS    HX 2025   0.607   6.503   3.070  1.7407 -1.7048  0.0722
   16SAPS    HY 2026   0.659   6.434   3.231  1.6918  2.1312  0.2383
   16SAPS   O31 2027   0.620   6.637   3.222  0.1258  0.0609 -0.0593
   16SAPS   C31 2028   0.654   6.654   3.349 -0.6236 -0.1639 -0.0476
   16SAPS   O32 2029   0.685   6.568   3.428  0.4498 -0.3280  0.2010
   16SAPS   C32 2030   0.632   6.804   3.375 -0.2111  0.5867 -0.7389
   16SAPS   H2X 2031   0.530   6.808   3.417  0.5142 -2.1217  1.5794
   16SAPS   H2Y 2032   0.641   6.856   3.277  2.4971  0.3916 -0.6782
   16SAPS   C23 2033   0.302   6.309   3.619 -0.2751  0.3733  0.0485
   16SAPS   H3R 2034   0.216   6.314   3.549  0.8907 -0.0751 -1.4762
   16SAPS   H3S 2035   0.263   6.363   3.708 -1.8262  0.1118 -0.4447
   16SAPS   C24 2036   0.342   6.163   3.654  0.0318  0.1108 -0.1693
   16SAPS   H4R 2037   0.442   6.155   3.702  0.8881 -0.2285 -1.9202
   16SAPS   H4S 2038   0.359   6.117   3.554  1.2917 -0.1698  0.1589
   16SAPS   C25 2039   0.246   6.095   3.749 -0.2415 -0.1928 -0.7826
   16SAPS   H5R 2040   0.256   6.144   3.847 -0.1502  1.1684 -1.4439
   16SAPS   C26 2041   0.167   5.992   3.727 -0.1629  0.3111 -0.7975
   16SAPS   H6R 2042   0.108   5.948   3.809 -0.9492 -2.4888 -2.7402
   16SAPS   C27 2043   0.136   5.937   3.584  0.4130  0.3106  0.3651
   16SAPS   H7R 2044   0.095   5.836   3.607 -0.6278  0.6467  0.0041
   16SAPS   H7S 2045   0.226   5.916   3.522  0.5218 -1.9480  1.1880
   16SAPS   C28 2046   0.037   6.030   3.507 -0.1988 -0.3293 -0.7610
   16SAPS   H8R 2047   0.036   6.140   3.520  0.3735  0.0515 -3.4326
   16SAPS   C29 2048  -0.065   5.978   3.433  0.4496  0.3885  0.3852
   16SAPS   H9R 2049  -0.130   6.045   3.375  0.7282 -1.6924 -2.5609
   16SAPS  C210 2050  -0.089   5.831   3.406  0.1802  0.4458 -0.4320
   16SAPS  H10R 2051  -0.195   5.812   3.433  0.9473  0.2315  2.8470
   16SAPS  H10S 2052  -0.036   5.761   3.474 -0.4786 -1.3550 -1.6752
   16SAPS  C211 2053  -0.068   5.782   3.263 -0.5151 -0.9479 -0.5876
   16SAPS  H11R 2054  -0.149   5.802   3.191  0.4497 -0.8893 -1.6918
   16SAPS  C212 2055   0.042   5.721   3.219 -0.2337  0.3359  0.3955
   16SAPS  H12R 2056   0.058   5.697   3.112  1.0235 -0.2366  0.6860
   16SAPS  C213 2057   0.165   5.699   3.294  0.4645  0.9062 -0.5132
   16SAPS  H13R 2058   0.149   5.744   3.395  0.0546 -1.9553  0.7912
   16SAPS  H13S 2059   0.244   5.757   3.242 -0.5282  0.5566 -2.5259
   16SAPS  C214 2060   0.211   5.557   3.306 -0.1851 -0.3677 -0.7970
   16SAPS  H14R 2061   0.217   5.503   3.210  1.4036 -0.7755 -0.4977
   16SAPS  C215 2062   0.255   5.503   3.419 -0.4246  0.3767 -0.5650
   16SAPS  H15R 2063   0.281   5.396   3.416 -0.0530  0.4653 -0.5865
   16SAPS  C216 2064   0.272   5.568   3.552  0.1781 -0.5338 -0.5844
   16SAPS  H16R 2065   0.281   5.679   3.552 -1.5235 -0.3598  0.6112
   16SAPS  H16S 2066   0.359   5.526   3.608  1.1009  0.8367 -0.9319
   16SAPS  C217 2067   0.149   5.533   3.636  0.6742  0.3022 -0.2392
   16SAPS  H17R 2068   0.137   5.430   3.674  0.0917 -0.1420 -1.5780
   16SAPS  H17S 2069   0.058   5.572   3.585 -0.1952  0.2175  1.2077
   16SAPS  C218 2070   0.177   5.600   3.768 -0.4820 -0.0224 -0.6614
   16SAPS  H18R 2071   0.185   5.710   3.757 -1.0569 -0.0756 -1.7123
   16SAPS  H18S 2072   0.275   5.567   3.808 -0.0685  0.7270 -1.0270
   16SAPS  C219 2073   0.068   5.565   3.874  0.2385  0.4431 -0.2015
   16SAPS  H19R 2074   0.062   5.454   3.884 -0.0838  0.3637 -1.1762
   16SAPS  H19S 2075  -0.023   5.600   3.823  0.8332  0.9379 -0.9411
   16SAPS  C220 2076   0.076   5.624   4.010 -0.1165  0.7284  0.4679
   16SAPS  H20R 2077   0.107   5.731   4.009  0.5715  0.6293  3.2620
   16SAPS  H20S 2078   0.147   5.570   4.077 -1.3026 -0.9590  0.4050
   16SAPS  H20T 2079  -0.019   5.602   4.062 -0.9759  1.3539 -0.7816
   16SAPS   C33 2080   0.738   6.875   3.473  0.2442  0.9391 -0.1078
   16SAPS   H3X 2081   0.721   6.984   3.489 -1.4431  0.6613  0.2322
   16SAPS   H3Y 2082   0.840   6.856   3.434  0.3377 -1.7840  1.2299
   16SAPS   C34 2083   0.745   6.818   3.616  0.4789  0.6742  0.2981
   16SAPS   H4X 2084   0.777   6.712   3.609 -0.3433  0.5322 -2.8175
   16SAPS   H4Y 2085   0.640   6.816   3.651  0.0825  0.8966 -0.8260
   16SAPS   C35 2086   0.837   6.889   3.717 -0.3845 -0.3860  0.0418
   16SAPS   H5X 2087   0.807   6.996   3.718  2.0652  0.4307  3.0759
   16SAPS   H5Y 2088   0.944   6.876   3.689 -1.1151 -3.4222 -1.8101
   16SAPS   C36 2089   0.808   6.822   3.850 -0.3946  0.1477 -0.1640
   16SAPS   H6X 2090   0.810   6.712   3.831 -0.4122  0.1270 -0.0510
   16SAPS   H6Y 2091   0.707   6.853   3.886  1.1018  1.9428  2.7839
   16SAPS   C37 2092   0.901   6.866   3.957 -0.4268  0.6251 -0.1340
   16SAPS   H7X 2093   0.897   6.976   3.967 -1.5525  1.0754 -4.0273
   16SAPS   H7Y 2094   1.007   6.847   3.929 -0.9683 -2.2042 -0.5672
   16SAPS   C38 2095   0.890   6.804   4.096 -0.1868  0.7567  0.0119
   16SAPS   H8X 2096   0.948   6.857   4.176  0.0095  1.0412 -0.3180
   16SAPS   H8Y 2097   0.930   6.701   4.090 -0.7355  0.5996 -1.1506
   16SAPS   C39 2098   0.743   6.789   4.136 -0.1145  0.5711  0.3110
   16SAPS   H9X 2099   0.681   6.750   4.053 -0.6263  5.2962 -1.8083
   16SAPS   H9Y 2100   0.696   6.890   4.139  1.6596  1.5222 -1.4294
   16SAPS  C310 2101   0.714   6.714   4.270 -0.5536  0.4045 -0.1304
   16SAPS  H10X 2102   0.608   6.734   4.297 -0.0097 -0.0473  2.5344
   16SAPS  H10Y 2103   0.776   6.743   4.357 -0.4065 -1.3519  0.3813
   16SAPS  C311 2104   0.735   6.565   4.234 -0.0415  0.0238 -1.3109
   16SAPS  H11X 2105   0.843   6.548   4.210  0.0156 -1.2772 -0.2452
   16SAPS  H11Y 2106   0.668   6.537   4.151 -0.9584  0.8106 -0.8549
   16SAPS  C312 2107   0.693   6.479   4.347  0.2527 -0.0186 -0.1757
   16SAPS  H12X 2108   0.698   6.374   4.313 -0.9922 -0.1418 -0.0265
   16SAPS  H12Y 2109   0.583   6.487   4.350 -0.1802 -3.4023 -2.3751
   16SAPS  C313 2110   0.765   6.508   4.478  0.4785 -0.2437  0.5617
   16SAPS  H13X 2111   0.730   6.604   4.523  3.4436 -0.1377  2.9471
   16SAPS  H13Y 2112   0.873   6.512   4.455  0.7415 -0.1825  1.7586
   16SAPS  C314 2113   0.754   6.393   4.573  0.5387  0.1851 -0.2576
   16SAPS  H14X 2114   0.826   6.317   4.535  0.8047  0.3541 -0.0967
   16SAPS  H14Y 2115   0.650   6.356   4.557  0.2871  1.0387 -0.5974
   16SAPS  C315 2116   0.761   6.428   4.722 -0.1252 -0.0355  0.0328
   16SAPS  H15X 2117   0.693   6.512   4.746 -0.3168 -0.2305  0.1785
   16SAPS  H15Y 2118   0.864   6.463   4.744 -0.3895  0.1760  0.9752
   16SAPS  C316 2119   0.713   6.321   4.813  0.1095  0.1155 -0.0269
   16SAPS  H16X 2120   0.790   6.242   4.826  1.2713  1.4136  1.4863
   16SAPS  H16Y 2121   0.615   6.278   4.785  1.9238 -2.4370 -3.1352
   16SAPS  C317 2122   0.717   6.371   4.962  0.2437  0.1111  0.6670
   16SAPS  H17X 2123   0.657   6.464   4.979 -0.5664 -0.5353  1.4646
   16SAPS  H17Y 2124   0.818   6.404   4.993  1.1709 -0.5977 -1.4445
   16SAPS  C318 2125   0.673   6.260   5.060 -0.4154 -0.3004  0.6282
   16SAPS  H18X 2126   0.688   6.295   5.164 -0.3477  1.1322  0.1616
   16SAPS  H18Y 2127   0.723   6.163   5.039 -0.7612  0.0414 -2.2564
   16SAPS  H18Z 2128   0.563   6.242   5.062 -0.6944  0.8312 -1.4922
   17SAPS     N 2129   3.708   6.149   2.308 -0.0642 -0.7806 -0.0559
   17SAPS   HN1 2130   3.740   6.067   2.254  1.1831  0.9313 -2.0741
   17SAPS   HN2 2131   3.791   6.180   2.363 -0.4604 -1.7470  1.1385
   17SAPS   HN3 2132   3.632   6.128   2.377 -0.4504  0.8242  0.0659
   17SAPS   C12 2133   3.669   6.256   2.226  0.0529 -0.2232  0.0863
   17SAPS  H12A 2134   3.760   6.313   2.217 -1.6734  2.3431 -2.7772
   17SAPS   C13 2135   3.613   6.222   2.083  0.0288 -0.0927 -0.3655
   17SAPS  O13A 2136   3.588   6.106   2.054  0.7519 -0.4814 -0.3672
   17SAPS  O13B 2137   3.592   6.320   2.004  0.0445 -0.0884  0.1094
   17SAPS   C11 2138   3.562   6.348   2.297  0.2650 -0.3086  0.0236
   17SAPS  H11A 2139   3.468   6.291   2.306 -1.8793  2.8023 -0.9566
   17SAPS  H11B 2140   3.548   6.439   2.235  2.6957 -0.0564 -0.2679
   17SAPS     P 2141   3.556   6.506   2.507 -0.1068  0.2086  0.2555
   17SAPS   O13 2142   3.646   6.625   2.502  0.1817  0.1334 -0.1104
   17SAPS   O14 2143   3.415   6.529   2.466 -0.6064 -0.2003  0.6711
   17SAPS   O12 2144   3.615   6.382   2.430 -0.1299 -0.3349  0.0244
   17SAPS   O11 2145   3.564   6.448   2.654  0.0076  0.2395  0.2274
   17SAPS    C1 2146   3.503   6.326   2.690  0.2354  0.3223  0.4668
   17SAPS    HA 2147   3.419   6.300   2.622 -0.4636 -0.2635  1.5333
   17SAPS    HB 2148   3.575   6.242   2.690 -1.4159 -1.1362  0.0727
   17SAPS    C2 2149   3.443   6.331   2.832 -0.8160 -0.4005  0.3625
   17SAPS    HS 2150   3.451   6.228   2.875  0.0108  0.2580  1.8712
   17SAPS   O21 2151   3.311   6.391   2.823 -0.0335  0.3771  0.4391
   17SAPS   C21 2152   3.221   6.299   2.780  0.2582 -0.8539 -0.1656
   17SAPS   O22 2153   3.241   6.187   2.741 -1.2199 -0.2265  0.1075
   17SAPS   C22 2154   3.077   6.358   2.811 -0.2479 -0.2418 -0.0506
   17SAPS   H2R 2155   3.064   6.459   2.768  1.3755 -0.2515 -0.6032
   17SAPS   H2S 2156   2.998   6.300   2.758 -1.4565 -0.1015  1.5050
   17SAPS    C3 2157   3.536   6.422   2.919 -0.1369 -0.1288  0.1790
   17SAPS    HX 2158   3.536   6.525   2.877 -0.0515 -0.3702 -0.4263
   17SAPS    HY 2159   3.641   6.387   2.905  0.3525  0.6637  1.6762
   17SAPS   O31 2160   3.497   6.405   3.059 -0.4309  0.2677 -0.0240
   17SAPS   C31 2161   3.446   6.514   3.123 -0.7823 -0.1385  0.7702
   17SAPS   O32 2162   3.410   6.617   3.068 -0.1977  0.1756 -0.1386
   17SAPS   C32 2163   3.456   6.497   3.276 -0.6568  0.0614  0.4680
   17SAPS   H2X 2164   3.564   6.499   3.299 -0.7946  2.5496  1.1722
   17SAPS   H2Y 2165   3.416   6.396   3.301 -4.6586  1.3374 -0.0282
   17SAPS   C23 2166   3.039   6.342   2.960 -0.2469  0.0969 -0.6147
   17SAPS   H3R 2167   2.951   6.403   2.989  0.7763  0.3052  2.3742
   17SAPS   H3S 2168   3.114   6.396   3.022 -0.5761  0.4664 -0.5381
   17SAPS   C24 2169   3.018   6.204   3.009  0.2626 -0.0048  0.1033
   17SAPS   H4R 2170   3.113   6.147   3.000 -1.5928 -3.2543 -0.1829
   17SAPS   H4S 2171   2.958   6.149   2.933  1.2110  1.4310 -1.7941
   17SAPS   C25 2172   2.952   6.200   3.138 -0.1451 -0.5741  0.3966
   17SAPS   H5R 2173   2.842   6.206   3.141 -0.3139 -1.9720 -1.5297
   17SAPS   C26 2174   3.008   6.179   3.262  0.1221 -0.3925 -0.1011
   17SAPS   H6R 2175   2.934   6.176   3.344 -0.1806 -2.4369 -0.3787
   17SAPS   C27 2176   3.151   6.152   3.295  0.6213  0.0211  0.1315
   17SAPS   H7R 2177   3.226   6.182   3.219  3.0883  0.3752  2.5493
   17SAPS   H7S 2178   3.167   6.044   3.315 -1.1795 -0.1433  0.9388
   17SAPS   C28 2179   3.190   6.238   3.409  0.2388  0.0083  0.3150
   17SAPS   H8R 2180   3.208   6.343   3.381  1.5116 -0.2052  0.2452
   17SAPS   C29 2181   3.233   6.204   3.535  0.4365 -0.0168  0.1291
   17SAPS   H9R 2182   3.241   6.290   3.604  1.5664  0.1767 -0.2195
   17SAPS  C210 2183   3.240   6.063   3.586  0.4045  0.2180  0.4778
   17SAPS  H10R 2184   3.342   6.043   3.624  0.2824  1.3209  1.4407
   17SAPS  H10S 2185   3.236   5.982   3.511  1.8225 -0.9187  1.5636
   17SAPS  C211 2186   3.122   6.033   3.675  0.6458 -0.0965  0.0550
   17SAPS  H11R 2187   3.023   6.053   3.633  0.4941  1.1325  0.9138
   17SAPS  C212 2188   3.136   5.986   3.802  0.1121  0.4912 -0.1210
   17SAPS  H12R 2189   3.043   5.966   3.857 -0.0969  1.2714 -0.1743
   17SAPS  C213 2190   3.268   5.952   3.874  0.2797 -0.3257 -0.3018
   17SAPS  H13R 2191   3.358   6.003   3.832  0.2749 -1.0220 -1.1707
   17SAPS  H13S 2192   3.290   5.843   3.867 -1.5542 -0.7387 -0.1220
   17SAPS  C214 2193   3.281   6.002   4.017  0.3082 -0.1181  0.2364
   17SAPS  H14R 2194   3.363   6.071   4.040 -0.1786  0.2985  0.7303
   17SAPS  C215 2195   3.201   5.971   4.117 -0.2445 -0.2303 -0.4281
   17SAPS  H15R 2196   3.215   6.018   4.216 -0.6927 -1.1603  0.0910
   17SAPS  C216 2197   3.090   5.867   4.125  0.3918 -0.3457  0.2683
   17SAPS  H16R 2198   3.068   5.822   4.026  2.4510  1.1339 -0.9480
   17SAPS  H16S 2199   2.995   5.916   4.152 -0.1119 -0.6077 -0.9763
   17SAPS  C217 2200   3.122   5.761   4.222 -0.0377 -0.0272 -0.3591
   17SAPS  H17R 2201   3.207   5.696   4.191  1.3372  1.4356  0.1546
   17SAPS  H17S 2202   3.034   5.694   4.227  1.1145 -1.7410 -1.7094
   17SAPS  C218 2203   3.165   5.803   4.363  0.2287  0.2778  0.5241
   17SAPS  H18R 2204   3.099   5.885   4.396  1.0552  0.4172  1.9194
   17SAPS  H18S 2205   3.266   5.849   4.360  0.3672  0.0389  1.2506
   17SAPS  C219 2206   3.159   5.673   4.448  0.7053  0.1979 -0.5669
   17SAPS  H19R 2207   3.234   5.604   4.403  0.2764 -1.1814  0.7660
   17SAPS  H19S 2208   3.055   5.635   4.444  1.0032 -0.5532 -1.5657
   17SAPS  C220 2209   3.193   5.718   4.592 -0.8580  0.0110 -0.3476
   17SAPS  H20R 2210   3.185   5.631   4.661 -1.7239 -1.2511 -1.9525
   17SAPS  H20S 2211   3.120   5.799   4.611  0.9777  1.9811 -1.3459
   17SAPS  H20T 2212   3.297   5.753   4.580  0.0091 -0.0806  4.6425
   17SAPS   C33 2213   3.396   6.615   3.352 -0.0818  0.0875  0.0216
   17SAPS   H3X 2214   3.289   6.638   3.332  0.1782  2.1722  0.7696
   17SAPS   H3Y 2215   3.451   6.709   3.331  0.7449 -0.1578  1.0156
   17SAPS   C34 2216   3.394   6.594   3.508  0.2947 -0.6553  0.0805
   17SAPS   H4X 2217   3.323   6.511   3.528  0.4637 -1.0071 -0.7427
   17SAPS   H4Y 2218   3.352   6.688   3.551 -0.2707 -1.6214  1.7379
   17SAPS   C35 2219   3.530   6.563   3.563 -0.0879 -0.3161 -0.0614
   17SAPS   H5X 2220   3.605   6.637   3.530  0.0828  0.2292  1.4618
   17SAPS   H5Y 2221   3.553   6.457   3.540 -0.7311 -0.4425 -0.1585
   17SAPS   C36 2222   3.542   6.580   3.714 -0.7610 -0.1570 -0.2807
   17SAPS   H6X 2223   3.480   6.670   3.733 -0.4808  0.0544 -0.3642
   17SAPS   H6Y 2224   3.647   6.611   3.732 -0.5107 -0.4128 -1.2554
   17SAPS   C37 2225   3.526   6.457   3.799 -0.0987  0.2303  0.2239
   17SAPS   H7X 2226   3.617   6.394   3.805  1.8616  2.8480  0.1597
   17SAPS   H7Y 2227   3.447   6.398   3.749  0.8695 -0.1547 -0.8892
   17SAPS   C38 2228   3.485   6.492   3.943 -0.6809 -0.1141 -0.3036
   17SAPS   H8X 2229   3.402   6.566   3.945  1.3116  2.2320  0.8454
   17SAPS   H8Y 2230   3.566   6.549   3.994  0.0275 -1.6884  0.3985
   17SAPS   C39 2231   3.459   6.365   4.026 -0.4358  0.5388  0.9822
   17SAPS   H9X 2232   3.556   6.311   4.034 -0.3773  0.7083  1.4505
   17SAPS   H9Y 2233   3.385   6.303   3.974  0.8807 -0.9008  0.7542
   17SAPS  C310 2234   3.433   6.399   4.167  0.1248  0.1331 -0.0272
   17SAPS  H10X 2235   3.334   6.448   4.171  0.5702  1.0709 -0.2826
   17SAPS  H10Y 2236   3.513   6.464   4.209  0.2888 -1.2076  1.8624
   17SAPS  C311 2237   3.415   6.270   4.255 -0.1446 -0.4528  0.3558
   17SAPS  H11X 2238   3.505   6.206   4.240  0.4148 -0.3600  2.7826
   17SAPS  H11Y 2239   3.318   6.232   4.218  0.5403 -1.0929 -0.8512
   17SAPS  C312 2240   3.414   6.298   4.407  0.1511  1.0735  0.3447
   17SAPS  H12X 2241   3.361   6.394   4.424 -0.4014  0.3147  3.5373
   17SAPS  H12Y 2242   3.520   6.300   4.440  0.4407  0.0893 -0.4533
   17SAPS  C313 2243   3.348   6.183   4.487  0.0060 -0.1556 -0.2818
   17SAPS  H13X 2244   3.393   6.084   4.464 -1.2971 -0.7614 -0.3189
   17SAPS  H13Y 2245   3.239   6.167   4.475 -0.3293  0.0321  2.0486
   17SAPS  C314 2246   3.372   6.210   4.644  0.3764  0.6959  0.0583
   17SAPS  H14X 2247   3.343   6.314   4.670  0.5842  1.1171 -1.2864
   17SAPS  H14Y 2248   3.483   6.216   4.651  0.2639  1.7373  1.2295
   17SAPS  C315 2249   3.309   6.101   4.723  0.5971 -0.1149 -0.7507
   17SAPS  H15X 2250   3.359   6.003   4.704 -0.6464 -0.8580 -0.3020
   17SAPS  H15Y 2251   3.204   6.095   4.689 -0.4274 -0.8539  2.2046
   17SAPS  C316 2252   3.310   6.124   4.868 -0.4433  0.0282 -0.7897
   17SAPS  H16X 2253   3.245   6.042   4.905 -2.0647  1.2324 -0.8796
   17SAPS  H16Y 2254   3.272   6.220   4.908  3.1422  0.7156  1.4690
   17SAPS  C317 2255   3.454   6.109   4.927  0.2549  0.4105 -0.0045
   17SAPS  H17X 2256   3.515   6.195   4.894  1.7428 -0.5218  0.2177
   17SAPS  H17Y 2257   3.492   6.017   4.878 -0.3514 -0.0418  0.3480
   17SAPS  C318 2258   3.437   6.098   5.082 -0.3170 -0.5150 -0.0749
   17SAPS  H18X 2259   3.373   6.010   5.103  2.1340 -2.7995 -1.4710
   17SAPS  H18Y 2260   3.394   6.191   5.123 -1.8339 -0.9848 -0.5415
   17SAPS  H18Z 2261   3.541   6.084   5.119 -0.6208  0.7723  1.3429
   18SAPS     N 2262   1.179   3.595   2.417  0.0259  0.4082 -0.0608
   18SAPS   HN1 2263   1.112   3.517   2.432  0.9463 -0.8053 -1.8303
   18SAPS   HN2 2264   1.234   3.620   2.502 -2.4052  2.0209  1.1248
   18SAPS   HN3 2265   1.124   3.678   2.386 -0.3047 -0.5600 -2.2698
   18SAPS   C12 2266   1.270   3.539   2.307 -0.2595 -0.3218  0.7058
   18SAPS  H12A 2267   1.221   3.476   2.234  0.4453  0.9021 -0.9035
   18SAPS   C13 2268   1.334   3.659   2.222  0.1040  0.3759 -0.4995
   18SAPS  O13A 2269   1.305   3.776   2.244  0.0838  0.2246  0.6213
   18SAPS  O13B 2270   1.397   3.634   2.116  0.2096  0.5987 -0.9090
   18SAPS   C11 2271   1.384   3.461   2.373 -0.2407  0.1250 -0.5739
   18SAPS  H11A 2272   1.447   3.528   2.434 -0.8683  0.4354 -0.2581
   18SAPS  H11B 2273   1.441   3.421   2.286 -5.0181 -3.1057 -2.6610
   18SAPS     P 2274   1.427   3.236   2.498 -0.0709 -0.0981 -0.1405
   18SAPS   O13 2275   1.418   3.127   2.397 -0.1705 -0.7002  0.2810
   18SAPS   O14 2276   1.562   3.287   2.523  0.6697 -0.0040  0.1733
   18SAPS   O12 2277   1.326   3.352   2.452  0.0390 -0.1713 -0.3178
   18SAPS   O11 2278   1.364   3.199   2.643  0.5058  0.4993 -0.0949
   18SAPS    C1 2279   1.319   3.310   2.725 -0.5960  0.0521  0.0807
   18SAPS    HA 2280   1.390   3.396   2.725 -0.5810  0.0529  1.3997
   18SAPS    HB 2281   1.217   3.347   2.699 -0.8798  0.3082  1.5040
   18SAPS    C2 2282   1.313   3.256   2.871 -0.0300  0.2488 -0.8500
   18SAPS    HS 2283   1.289   3.350   2.926 -0.5724 -1.3234  1.7324
   18SAPS   O21 2284   1.426   3.187   2.925 -0.3971 -0.4015 -0.1519
   18SAPS   C21 2285   1.529   3.271   2.966 -0.6057 -0.3964 -0.3406
   18SAPS   O22 2286   1.531   3.392   2.940 -0.5855  0.1911  0.3575
   18SAPS   C22 2287   1.625   3.207   3.064  0.2583  0.3823 -0.5020
   18SAPS   H2R 2288   1.568   3.143   3.135 -2.0066 -0.9412 -3.2552
   18SAPS   H2S 2289   1.702   3.149   3.008  1.4889  1.4579  0.0396
   18SAPS    C3 2290   1.194   3.160   2.897 -0.0407  0.7405 -0.0663
   18SAPS    HX 2291   1.229   3.065   2.851 -2.5168 -0.4257  0.2970
   18SAPS    HY 2292   1.100   3.181   2.842  1.0032 -1.1571 -2.8390
   18SAPS   O31 2293   1.177   3.138   3.041  0.5953  0.2308  0.0485
   18SAPS   C31 2294   1.113   3.228   3.116 -0.1580  0.1683  0.1528
   18SAPS   O32 2295   1.054   3.325   3.071 -0.5508 -0.2339  0.3390
   18SAPS   C32 2296   1.125   3.189   3.265  0.2310 -0.7204 -0.0610
   18SAPS   H2X 2297   1.226   3.144   3.275  0.7333 -0.6324 -3.3320
   18SAPS   H2Y 2298   1.055   3.105   3.284 -0.4494 -0.3967 -1.0568
   18SAPS   C23 2299   1.711   3.321   3.139 -0.2020  0.2602  0.3921
   18SAPS   H3R 2300   1.759   3.388   3.065  1.3263 -1.4538 -0.2656
   18SAPS   H3S 2301   1.796   3.278   3.196  0.2296  0.9224  0.2576
   18SAPS   C24 2302   1.638   3.406   3.240 -0.0496  0.3613 -0.4924
   18SAPS   H4R 2303   1.556   3.459   3.186  0.6413  0.8076 -1.1269
   18SAPS   H4S 2304   1.706   3.483   3.282  0.8583 -0.5813 -0.1945
   18SAPS   C25 2305   1.572   3.328   3.351 -0.0859 -0.3429 -0.3558
   18SAPS   H5R 2306   1.487   3.260   3.337  0.1428 -0.6956 -0.0528
   18SAPS   C26 2307   1.616   3.322   3.481 -1.0743 -0.8698 -0.3543
   18SAPS   H6R 2308   1.557   3.260   3.550 -3.2743 -1.8562 -2.9166
   18SAPS   C27 2309   1.729   3.404   3.540  0.3521 -0.2085  0.8275
   18SAPS   H7R 2310   1.692   3.505   3.571  0.6207 -0.1815  1.0705
   18SAPS   H7S 2311   1.812   3.416   3.467 -0.2740  0.7528  0.2535
   18SAPS   C28 2312   1.802   3.348   3.665 -0.1346  0.6477  0.0356
   18SAPS   H8R 2313   1.896   3.295   3.642 -0.3700 -1.2804  2.9353
   18SAPS   C29 2314   1.766   3.355   3.792 -0.9225  0.4509 -0.4146
   18SAPS   H9R 2315   1.831   3.318   3.873 -1.0136  1.7284  0.2638
   18SAPS  C210 2316   1.651   3.414   3.858 -0.2759 -0.3423 -0.0984
   18SAPS  H10R 2317   1.636   3.365   3.957 -1.8433  0.9334  0.3398
   18SAPS  H10S 2318   1.557   3.391   3.804 -1.5209  0.7571  1.4965
   18SAPS  C211 2319   1.674   3.569   3.882  0.7194 -0.4671  0.1581
   18SAPS  H11R 2320   1.693   3.624   3.788  0.1582  0.2455  0.4502
   18SAPS  C212 2321   1.680   3.632   3.997 -0.3402 -0.1536 -0.9964
   18SAPS  H12R 2322   1.701   3.740   4.005  0.2676 -0.4245  2.6642
   18SAPS  C213 2323   1.636   3.562   4.129 -0.3428 -0.2712  1.1496
   18SAPS  H13R 2324   1.550   3.494   4.111 -0.2079  0.3314 -2.7762
   18SAPS  H13S 2325   1.590   3.642   4.191  2.7369  2.4694  0.2025
   18SAPS  C214 2326   1.739   3.488   4.206 -0.2812  0.0993  0.1901
   18SAPS  H14R 2327   1.788   3.405   4.152  0.2142 -0.0010  0.7727
   18SAPS  C215 2328   1.771   3.496   4.341 -0.5772  0.1108 -0.7751
   18SAPS  H15R 2329   1.855   3.436   4.378 -0.1602  0.3420 -1.3373
   18SAPS  C216 2330   1.728   3.591   4.448 -0.0017  0.1240 -0.4195
   18SAPS  H16R 2331   1.619   3.575   4.461  0.2031 -0.1552  1.0640
   18SAPS  H16S 2332   1.739   3.690   4.400 -1.1803  0.2426 -0.4726
   18SAPS  C217 2333   1.823   3.576   4.573  0.3512  0.6763  0.4804
   18SAPS  H17R 2334   1.812   3.471   4.607  1.3391  0.0084 -1.1527
   18SAPS  H17S 2335   1.797   3.644   4.657 -0.6653 -1.8847  2.3825
   18SAPS  C218 2336   1.971   3.602   4.544 -0.8204  0.1428 -0.0407
   18SAPS  H18R 2337   1.992   3.693   4.484 -0.3380  0.0402 -0.0332
   18SAPS  H18S 2338   2.011   3.512   4.494  0.5829 -0.1674  1.5340
   18SAPS  C219 2339   2.046   3.626   4.677 -0.4364 -0.1984 -0.2091
   18SAPS  H19R 2340   2.037   3.547   4.755 -0.3943  0.0673  0.0698
   18SAPS  H19S 2341   2.000   3.722   4.712  1.5227  0.6070  0.2926
   18SAPS  C220 2342   2.193   3.674   4.657  0.2044  0.4021 -0.7218
   18SAPS  H20R 2343   2.186   3.777   4.614 -0.1753  0.8866  0.4582
   18SAPS  H20S 2344   2.253   3.615   4.584 -1.8409  0.1099 -2.2464
   18SAPS  H20T 2345   2.249   3.674   4.753  0.3996 -1.1405 -0.8112
   18SAPS   C33 2346   1.098   3.301   3.359  0.7811 -0.4363 -1.3044
   18SAPS   H3X 2347   1.033   3.382   3.320  1.6898  2.0189  1.8530
   18SAPS   H3Y 2348   1.196   3.351   3.375 -0.9933  2.4640  1.7473
   18SAPS   C34 2349   1.025   3.262   3.492 -0.7991  1.2138 -0.4356
   18SAPS   H4X 2350   0.942   3.194   3.463 -0.7030  0.8273  0.1780
   18SAPS   H4Y 2351   0.983   3.353   3.541 -0.5961  1.0324  0.0872
   18SAPS   C35 2352   1.116   3.186   3.591 -0.6896  0.0628 -0.1908
   18SAPS   H5X 2353   1.211   3.241   3.611  0.4061 -2.3190  1.6555
   18SAPS   H5Y 2354   1.136   3.085   3.550  0.5387  0.3214 -0.2785
   18SAPS   C36 2355   1.054   3.169   3.731  0.2787 -0.4818 -0.0797
   18SAPS   H6X 2356   0.966   3.103   3.715  0.9599 -1.4827  0.2455
   18SAPS   H6Y 2357   1.020   3.272   3.757 -5.2123 -1.9487 -0.2354
   18SAPS   C37 2358   1.137   3.113   3.846  0.4757  0.0016 -0.9464
   18SAPS   H7X 2359   1.222   3.180   3.868 -0.0957  0.1949  0.7977
   18SAPS   H7Y 2360   1.188   3.018   3.820 -0.0773 -1.0941  1.6699
   18SAPS   C38 2361   1.046   3.102   3.974  0.9770  0.3189 -0.4435
   18SAPS   H8X 2362   0.968   3.026   3.952  0.9656 -0.7453  2.7759
   18SAPS   H8Y 2363   1.012   3.203   4.004 -1.4088 -0.6272  0.2066
   18SAPS   C39 2364   1.141   3.064   4.091  0.3420  0.6919 -0.5772
   18SAPS   H9X 2365   1.211   3.143   4.127  2.9260 -0.9564 -1.7318
   18SAPS   H9Y 2366   1.205   2.986   4.046 -1.3267  0.3108 -2.4320
   18SAPS  C310 2367   1.052   3.009   4.201 -0.0042  0.1828 -0.6890
   18SAPS  H10X 2368   0.996   2.926   4.152  0.1987  0.6967 -1.8317
   18SAPS  H10Y 2369   0.990   3.098   4.228  1.1326  1.0887 -1.0070
   18SAPS  C311 2370   1.114   2.944   4.325 -0.2551 -0.3409 -0.2993
   18SAPS  H11X 2371   1.189   3.004   4.382  0.2754  0.0071 -1.3472
   18SAPS  H11Y 2372   1.174   2.853   4.305  1.6178 -0.0052  3.0031
   18SAPS  C312 2373   1.014   2.916   4.437  0.2565 -0.1570  0.3011
   18SAPS  H12X 2374   0.953   2.829   4.405  1.2759 -0.5328 -0.6746
   18SAPS  H12Y 2375   0.952   3.006   4.457  1.1766  0.4917  0.2724
   18SAPS  C313 2376   1.095   2.881   4.565  0.8360 -0.4172 -0.4784
   18SAPS  H13X 2377   1.156   2.969   4.593 -0.8118  0.3126  1.0076
   18SAPS  H13Y 2378   1.168   2.804   4.534  0.5078 -0.8933 -0.0914
   18SAPS  C314 2379   1.014   2.832   4.685 -0.0328 -0.0841 -0.1855
   18SAPS  H14X 2380   0.943   2.751   4.658  0.1119 -0.2195 -0.1549
   18SAPS  H14Y 2381   0.941   2.910   4.717 -0.7873 -0.3384 -1.2381
   18SAPS  C315 2382   1.096   2.792   4.798 -0.2320 -0.7939 -0.4460
   18SAPS  H15X 2383   1.137   2.886   4.839 -1.8452  0.8996 -2.4439
   18SAPS  H15Y 2384   1.179   2.723   4.772 -1.3298 -2.0370 -0.7604
   18SAPS  C316 2385   1.010   2.732   4.908  0.9077 -0.3559 -0.2919
   18SAPS  H16X 2386   0.980   2.627   4.884  2.1594 -1.0733  1.1084
   18SAPS  H16Y 2387   0.913   2.785   4.914  0.1856 -1.7034  0.5909
   18SAPS  C317 2388   1.076   2.737   5.044 -0.0266  0.4804  0.4181
   18SAPS  H17X 2389   0.992   2.714   5.113 -0.3975  2.1161  0.5736
   18SAPS  H17Y 2390   1.112   2.842   5.054  0.1977  0.4161  0.2862
   18SAPS  C318 2391   1.190   2.648   5.076 -0.4310  0.2103  0.5707
   18SAPS  H18X 2392   1.264   2.656   4.993 -1.3995 -1.9249 -0.5692
   18SAPS  H18Y 2393   1.147   2.546   5.078  0.4287 -0.1386  1.4006
   18SAPS  H18Z 2394   1.245   2.661   5.171  0.0022 -0.0093  0.3507
   19SAPS     N 2395   6.778   0.875   2.285 -0.0804  0.0823  0.3324
   19SAPS   HN1 2396   6.812   0.793   2.231 -0.9770 -0.1913  0.1651
   19SAPS   HN2 2397   6.717   0.936   2.227 -1.3605 -1.9982 -0.6205
   19SAPS   HN3 2398   6.861   0.937   2.293 -0.3653  1.4271 -4.2506
   19SAPS   C12 2399   6.718   0.846   2.416  1.1451  1.1337 -0.7552
   19SAPS  H12A 2400   6.631   0.784   2.404  0.8816  0.9617  1.5529
   19SAPS   C13 2401   6.810   0.772   2.514  0.4513  0.2058  0.2550
   19SAPS  O13A 2402   6.923   0.741   2.480 -0.1235  0.5937  0.4950
   19SAPS  O13B 2403   6.760   0.734   2.622  0.4682 -0.1261  0.7348
   19SAPS   C11 2404   6.670   0.974   2.493  0.1289 -0.7034  0.1017
   19SAPS  H11A 2405   6.757   1.033   2.527 -0.6136  0.4562  0.0440
   19SAPS  H11B 2406   6.616   0.949   2.587  1.4674  0.5769  1.2417
   19SAPS     P 2407   6.587   1.210   2.431  0.2582  0.2061  0.4300
   19SAPS   O13 2408   6.718   1.262   2.391  0.0697 -0.3256  0.2220
   19SAPS   O14 2409   6.470   1.262   2.356 -0.0545  0.1589 -0.1142
   19SAPS   O12 2410   6.590   1.056   2.411 -0.0429 -0.2545 -0.4241
   19SAPS   O11 2411   6.575   1.222   2.587  0.6532  0.2497 -0.5949
   19SAPS    C1 2412   6.687   1.240   2.675  0.4578  0.4816  0.5518
   19SAPS    HA 2413   6.777   1.205   2.621  0.1445 -1.5857  1.2547
   19SAPS    HB 2414   6.704   1.348   2.693 -1.9266  1.1453 -0.7206
   19SAPS    C2 2415   6.682   1.147   2.802  0.0567 -0.2091 -0.4733
   19SAPS    HS 2416   6.715   1.044   2.777  0.3577 -0.0263 -0.8360
   19SAPS   O21 2417   6.545   1.146   2.845 -0.3123 -0.1558 -0.0542
   19SAPS   C21 2418   6.511   1.035   2.915 -0.6290  0.2561  0.5438
   19SAPS   O22 2419   6.570   0.933   2.930  0.2024  0.3954 -0.1705
   19SAPS   C22 2420   6.366   1.062   2.970 -0.4487  0.0130 -0.1042
   19SAPS   H2R 2421   6.294   1.078   2.888 -0.9333 -1.0416  0.1096
   19SAPS   H2S 2422   6.330   0.966   3.013 -0.4054 -0.5949 -1.3991
   19SAPS    C3 2423   6.780   1.206   2.907 -0.2185 -0.1666  0.0800
   19SAPS    HX 2424   6.743   1.306   2.936  0.8533 -0.2122  1.7174
   19SAPS    HY 2425   6.882   1.226   2.868 -1.1723  1.7184 -1.6381
   19SAPS   O31 2426   6.774   1.122   3.033 -0.4356  0.3035  0.2891
   19SAPS   C31 2427   6.845   1.017   3.032  0.6959  0.2267 -0.7162
   19SAPS   O32 2428   6.934   0.990   2.951  0.1361 -0.9577  0.2809
   19SAPS   C32 2429   6.794   0.916   3.138 -0.0550 -0.1396 -0.1294
   19SAPS   H2X 2430   6.701   0.866   3.104  0.5089 -3.4368  2.6021
   19SAPS   H2Y 2431   6.767   0.976   3.227  0.1622 -1.8949  1.1708
   19SAPS   C23 2432   6.369   1.176   3.070 -0.1612 -0.7417 -0.2044
   19SAPS   H3R 2433   6.385   1.275   3.023 -0.7261 -0.1134  0.8876
   19SAPS   H3S 2434   6.453   1.149   3.138 -1.3130 -1.8928  0.8041
   19SAPS   C24 2435   6.248   1.176   3.161  0.6414  0.1046 -0.4095
   19SAPS   H4R 2436   6.220   1.077   3.203  1.0709  0.2347  0.1895
   19SAPS   H4S 2437   6.160   1.200   3.096  1.8932  1.2484 -1.7458
   19SAPS   C25 2438   6.270   1.269   3.282 -0.5504  0.2671  0.3850
   19SAPS   H5R 2439   6.216   1.364   3.271  0.0156  0.4079 -1.5819
   19SAPS   C26 2440   6.346   1.248   3.389 -0.0418  0.3527 -0.6378
   19SAPS   H6R 2441   6.336   1.316   3.476  0.2537  2.0363 -1.8752
   19SAPS   C27 2442   6.431   1.120   3.413  0.6897 -0.5126  0.3220
   19SAPS   H7R 2443   6.429   1.053   3.325  0.3747 -0.8343  0.5703
   19SAPS   H7S 2444   6.389   1.060   3.496  2.3501 -0.2654  1.3853
   19SAPS   C28 2445   6.579   1.137   3.438  0.1477  0.7256 -0.6546
   19SAPS   H8R 2446   6.651   1.115   3.358  0.8008 -1.5181  0.4666
   19SAPS   C29 2447   6.636   1.171   3.554 -0.0961  0.1928 -0.4578
   19SAPS   H9R 2448   6.746   1.170   3.558 -0.1015 -0.5866 -0.3696
   19SAPS  C210 2449   6.580   1.201   3.691  0.5085 -0.8317 -0.1232
   19SAPS  H10R 2450   6.548   1.307   3.689 -0.4385 -0.8746  3.9747
   19SAPS  H10S 2451   6.666   1.215   3.760  0.2489  0.5857 -0.0654
   19SAPS  C211 2452   6.478   1.109   3.755 -0.2212 -0.2067 -0.2832
   19SAPS  H11R 2453   6.385   1.100   3.697 -0.6572  2.2077 -0.0904
   19SAPS  C212 2454   6.483   1.053   3.876  0.1763 -0.3502  0.3604
   19SAPS  H12R 2455   6.408   0.984   3.916 -0.7669  1.1391  1.2313
   19SAPS  C213 2456   6.589   1.067   3.979  0.4759 -0.2272 -0.0964
   19SAPS  H13R 2457   6.657   1.155   3.972  0.3086 -0.0179  0.8236
   19SAPS  H13S 2458   6.652   0.976   3.989  0.0061 -0.5010  0.4312
   19SAPS  C214 2459   6.537   1.083   4.120  0.6140 -0.3302  0.1711
   19SAPS  H14R 2460   6.431   1.098   4.146  1.0061 -0.2004  1.7869
   19SAPS  C215 2461   6.622   1.088   4.227  0.3863 -0.2921 -0.4361
   19SAPS  H15R 2462   6.568   1.088   4.324  2.5845 -0.9948  0.8654
   19SAPS  C216 2463   6.771   1.051   4.231  0.4173 -0.4024 -0.1496
   19SAPS  H16R 2464   6.820   1.034   4.132 -0.0289  0.2632 -0.4973
   19SAPS  H16S 2465   6.776   0.959   4.293  3.0740 -0.9006 -0.9647
   19SAPS  C217 2466   6.848   1.166   4.304 -0.0123 -0.2420  0.6719
   19SAPS  H17R 2467   6.957   1.150   4.285 -0.6006 -0.4611 -3.2236
   19SAPS  H17S 2468   6.815   1.176   4.410 -0.1733  0.5739  0.5482
   19SAPS  C218 2469   6.825   1.298   4.238  0.2731 -0.7636 -0.1398
   19SAPS  H18R 2470   6.719   1.330   4.247  1.4610  3.2496  2.2588
   19SAPS  H18S 2471   6.854   1.296   4.131 -0.1384  0.2201 -0.2892
   19SAPS  C219 2472   6.909   1.418   4.297  0.1570 -0.2005 -0.0591
   19SAPS  H19R 2473   7.015   1.384   4.301 -0.1424 -1.0839  0.6931
   19SAPS  H19S 2474   6.888   1.450   4.401 -0.1898  1.0700 -0.5076
   19SAPS  C220 2475   6.896   1.549   4.220  0.7842  0.0324 -0.5618
   19SAPS  H20R 2476   6.952   1.620   4.284  0.5219  1.3838 -1.7799
   19SAPS  H20S 2477   6.787   1.570   4.211 -0.2748 -1.3303  5.0486
   19SAPS  H20T 2478   6.937   1.544   4.117  2.9829 -1.3319  0.3201
   19SAPS   C33 2479   6.894   0.812   3.181 -0.6709 -0.4130 -0.1306
   19SAPS   H3X 2480   6.992   0.863   3.196 -0.9444 -0.4063  1.9837
   19SAPS   H3Y 2481   6.890   0.737   3.099 -1.1357  0.4336 -0.9011
   19SAPS   C34 2482   6.845   0.739   3.313 -0.0339  0.2325  0.6785
   19SAPS   H4X 2483   6.881   0.634   3.312 -0.4190  0.0946  1.2676
   19SAPS   H4Y 2484   6.735   0.732   3.321 -0.0622  0.3854  0.4436
   19SAPS   C35 2485   6.894   0.816   3.441  0.1437  0.0457  0.3931
   19SAPS   H5X 2486   6.863   0.923   3.442  1.1385  0.3641  2.6651
   19SAPS   H5Y 2487   7.004   0.809   3.456  0.3544  0.7233 -0.6781
   19SAPS   C36 2488   6.818   0.767   3.566 -0.4210 -0.2538 -0.1043
   19SAPS   H6X 2489   6.803   0.657   3.559 -1.1565 -0.1398 -0.3537
   19SAPS   H6Y 2490   6.720   0.819   3.575  0.9117  2.0817  2.4212
   19SAPS   C37 2491   6.900   0.783   3.697 -0.3511 -0.1887 -0.4312
   19SAPS   H7X 2492   6.908   0.890   3.724 -1.0443 -0.9204  3.3243
   19SAPS   H7Y 2493   7.001   0.737   3.698  0.5986  1.8213  0.1387
   19SAPS   C38 2494   6.822   0.726   3.813  0.3203 -0.0026  0.1661
   19SAPS   H8X 2495   6.822   0.615   3.818 -0.7360 -0.0797 -1.1344
   19SAPS   H8Y 2496   6.720   0.768   3.806  0.8612  1.4659  0.6206
   19SAPS   C39 2497   6.878   0.758   3.951 -0.1714  0.7761 -0.7235
   19SAPS   H9X 2498   6.887   0.867   3.970 -1.3293  1.2256 -2.5818
   19SAPS   H9Y 2499   6.982   0.717   3.947  0.1111  1.5224 -1.2281
   19SAPS  C310 2500   6.796   0.686   4.063  0.4819  0.0195 -0.0917
   19SAPS  H10X 2501   6.772   0.582   4.033 -1.4277  0.2185  0.6234
   19SAPS  H10Y 2502   6.698   0.736   4.078 -0.8124 -1.8590 -1.7650
   19SAPS  C311 2503   6.862   0.694   4.201  0.5561  0.2470 -0.3805
   19SAPS  H11X 2504   6.871   0.792   4.252  0.6460  0.8541 -1.5142
   19SAPS  H11Y 2505   6.963   0.650   4.186 -0.0646 -0.7016 -2.1729
   19SAPS  C312 2506   6.779   0.616   4.302 -0.1319  0.3595  0.1324
   19SAPS  H12X 2507   6.793   0.509   4.278  0.2087  0.4021  0.1370
   19SAPS  H12Y 2508   6.673   0.648   4.293 -0.0732  0.9070  1.2671
   19SAPS  C313 2509   6.825   0.631   4.447 -0.3359 -0.1257  0.4630
   19SAPS  H13X 2510   6.829   0.739   4.474 -0.2849 -0.1946  0.7367
   19SAPS  H13Y 2511   6.925   0.587   4.464 -1.2327 -1.9086  1.3443
   19SAPS  C314 2512   6.733   0.560   4.549 -0.0320 -0.5876  0.1594
   19SAPS  H14X 2513   6.743   0.450   4.543  0.2839 -0.5652  0.2717
   19SAPS  H14Y 2514   6.630   0.599   4.536  0.8701  1.7542 -0.5333
   19SAPS  C315 2515   6.778   0.595   4.692 -0.4213 -0.3110 -0.3845
   19SAPS  H15X 2516   6.780   0.706   4.700 -2.3818 -0.1411 -1.6412
   19SAPS  H15Y 2517   6.884   0.563   4.703  0.1325  1.9117  1.7383
   19SAPS  C316 2518   6.690   0.535   4.805  0.1910  0.5570 -0.3595
   19SAPS  H16X 2519   6.690   0.424   4.794  0.6818  0.4582  0.4757
   19SAPS  H16Y 2520   6.585   0.568   4.794  0.4858  1.5621 -0.2147
   19SAPS  C317 2521   6.750   0.576   4.942  0.4575 -0.2081  0.3122
   19SAPS  H17X 2522   6.760   0.684   4.968 -0.0965  0.0500 -0.5225
   19SAPS  H17Y 2523   6.850   0.527   4.934  0.9527  1.0675 -2.1864
   19SAPS  C318 2524   6.678   0.516   5.063 -0.4377  0.4467 -0.2420
   19SAPS  H18X 2525   6.588   0.570   5.102 -2.0173 -1.2309 -1.3835
   19SAPS  H18Y 2526   6.746   0.485   5.145 -1.2253  2.4787  1.2710
   19SAPS  H18Z 2527   6.643   0.414   5.038  0.1358  0.1848  0.0285
   20SAPS     N 2528   1.286   1.581   2.824 -0.0078  0.0900 -0.7717
   20SAPS   HN1 2529   1.342   1.553   2.907 -0.8902 -0.1720 -0.2553
   20SAPS   HN2 2530   1.271   1.684   2.832 -0.0962 -0.0013  0.3937
   20SAPS   HN3 2531   1.205   1.517   2.811 -0.4818  0.6840 -0.8189
   20SAPS   C12 2532   1.386   1.542   2.715 -0.6778 -0.4922 -0.1989
   20SAPS  H12A 2533   1.460   1.470   2.748 -0.2892 -0.2330 -0.4942
   20SAPS   C13 2534   1.314   1.473   2.594 -0.0244  0.1683 -0.2183
   20SAPS  O13A 2535   1.198   1.431   2.612 -0.4423 -0.1094 -0.6170
   20SAPS  O13B 2536   1.386   1.408   2.509 -0.3680  0.3225  0.4567
   20SAPS   C11 2537   1.460   1.666   2.665 -0.1303 -0.0494 -0.0039
   20SAPS  H11A 2538   1.388   1.738   2.620  2.1116  1.8227 -0.8317
   20SAPS  H11B 2539   1.536   1.639   2.590  0.1634  1.4005 -0.2654
   20SAPS     P 2540   1.661   1.689   2.825  0.0412  0.0465  0.0614
   20SAPS   O13 2541   1.634   1.562   2.897 -0.1328  0.1568  0.4014
   20SAPS   O14 2542   1.764   1.686   2.711  0.1458  0.0673 -0.1622
   20SAPS   O12 2543   1.527   1.746   2.770  0.2519 -0.4454 -0.1999
   20SAPS   O11 2544   1.705   1.796   2.935 -0.3056 -0.4517  0.3112
   20SAPS    C1 2545   1.629   1.828   3.049  0.3106 -0.8932 -0.4554
   20SAPS    HA 2546   1.611   1.934   3.075  0.4468 -1.1315  0.6667
   20SAPS    HB 2547   1.522   1.800   3.040  0.2811 -2.1003  2.4520
   20SAPS    C2 2548   1.692   1.757   3.174 -0.2531 -0.3439  0.2584
   20SAPS    HS 2549   1.683   1.648   3.155  1.0606 -1.0004  2.9730
   20SAPS   O21 2550   1.614   1.799   3.293 -0.6299 -0.5155  0.1213
   20SAPS   C21 2551   1.600   1.705   3.386 -0.5526  0.2036  0.4497
   20SAPS   O22 2552   1.622   1.589   3.372 -0.1520  0.0979 -0.4268
   20SAPS   C22 2553   1.549   1.762   3.518  0.1490 -0.3157  0.3365
   20SAPS   H2R 2554   1.552   1.873   3.520 -1.3624 -0.2546  0.1130
   20SAPS   H2S 2555   1.443   1.733   3.535  0.6712 -0.7372  3.4909
   20SAPS    C3 2556   1.837   1.788   3.194 -0.1036 -0.4912  0.0281
   20SAPS    HX 2557   1.845   1.899   3.201  0.3372 -0.5044 -0.1698
   20SAPS    HY 2558   1.907   1.761   3.112 -0.3737 -1.9582  0.2546
   20SAPS   O31 2559   1.880   1.733   3.322 -0.4793 -0.7125  0.6420
   20SAPS   C31 2560   1.927   1.612   3.316  0.1376 -0.5221 -0.1783
   20SAPS   O32 2561   1.921   1.538   3.221 -0.6636  0.0382 -0.4468
   20SAPS   C32 2562   1.993   1.586   3.452  0.1173  0.2047 -0.0900
   20SAPS   H2X 2563   1.953   1.492   3.496  0.1454 -0.4598 -1.4177
   20SAPS   H2Y 2564   1.960   1.664   3.523  0.5569 -0.5587  0.9822
   20SAPS   C23 2565   1.616   1.722   3.651 -0.5377  0.1849  0.0383
   20SAPS   H3R 2566   1.723   1.750   3.643 -0.4461 -0.2367 -0.2576
   20SAPS   H3S 2567   1.605   1.615   3.676  2.5482  0.1306  1.7069
   20SAPS   C24 2568   1.556   1.795   3.776  0.5711  0.1990 -0.0482
   20SAPS   H4R 2569   1.580   1.744   3.871  0.1906 -0.0105 -0.0646
   20SAPS   H4S 2570   1.447   1.804   3.762  0.3372  1.5718  2.2216
   20SAPS   C25 2571   1.605   1.942   3.782  0.1704 -0.0299  0.1735
   20SAPS   H5R 2572   1.589   2.000   3.690 -0.5597  0.3312  0.5224
   20SAPS   C26 2573   1.645   2.009   3.885  0.1883 -0.2424 -0.3950
   20SAPS   H6R 2574   1.662   2.116   3.866  1.1358 -0.3799 -0.3902
   20SAPS   C27 2575   1.669   1.959   4.027 -0.3452 -0.2770  0.1996
   20SAPS   H7R 2576   1.717   1.861   4.008  1.0613  0.6296 -1.2462
   20SAPS   H7S 2577   1.575   1.934   4.080 -0.6133 -1.4684 -0.7805
   20SAPS   C28 2578   1.760   2.057   4.100 -0.3825  0.7669  0.1446
   20SAPS   H8R 2579   1.818   2.131   4.044 -0.5798 -1.1898 -2.9112
   20SAPS   C29 2580   1.780   2.049   4.234  0.0531  0.7168  0.0069
   20SAPS   H9R 2581   1.822   2.134   4.290 -0.7108  0.4259  1.0645
   20SAPS  C210 2582   1.722   1.952   4.333  0.1457  0.3269  0.5650
   20SAPS  H10R 2583   1.815   1.900   4.366  0.7793  0.8681 -0.3339
   20SAPS  H10S 2584   1.654   1.879   4.286  1.4206 -0.7844  0.3811
   20SAPS  C211 2585   1.655   2.020   4.450  0.2096  0.6316 -0.0828
   20SAPS  H11R 2586   1.558   2.066   4.425 -0.0855  0.2953  0.4266
   20SAPS  C212 2587   1.692   2.020   4.575 -0.4709 -0.6423 -0.1020
   20SAPS  H12R 2588   1.633   2.079   4.647  2.8283  1.2512  1.2740
   20SAPS  C213 2589   1.822   1.968   4.635 -0.1011  0.3743 -0.5443
   20SAPS  H13R 2590   1.911   1.974   4.569  0.2397  1.8281  0.0008
   20SAPS  H13S 2591   1.798   1.865   4.668  0.8752  0.6590  1.1970
   20SAPS  C214 2592   1.853   2.065   4.753  0.0410  0.7680  0.3839
   20SAPS  H14R 2593   1.922   2.141   4.713  2.1672 -2.1601 -1.9871
   20SAPS  C215 2594   1.835   2.048   4.886 -0.3656  0.5750  0.0529
   20SAPS  H15R 2595   1.863   2.137   4.946 -1.1268  1.5379 -0.9739
   20SAPS  C216 2596   1.781   1.937   4.968  0.0918 -1.0681  1.1687
   20SAPS  H16R 2597   1.733   1.857   4.907 -1.8301 -0.6870  2.1017
   20SAPS  H16S 2598   1.702   1.976   5.036  1.2320  1.9309  0.9093
   20SAPS  C217 2599   1.878   1.861   5.055  0.3987  0.7819 -0.1112
   20SAPS  H17R 2600   1.944   1.925   5.119  0.7700  1.3452 -1.0323
   20SAPS  H17S 2601   1.942   1.798   4.989 -1.9680 -0.6567 -1.1308
   20SAPS  C218 2602   1.818   1.760   5.157 -0.4693  0.1374 -0.4048
   20SAPS  H18R 2603   1.751   1.710   5.084 -1.3564  1.5839 -0.6315
   20SAPS  H18S 2604   1.756   1.805   5.237 -2.1067 -1.9772 -0.3937
   20SAPS  C219 2605   1.929   1.667   5.217  0.1677 -0.6349 -0.0550
   20SAPS  H19R 2606   1.963   1.595   5.140 -1.1627  0.0544 -1.3325
   20SAPS  H19S 2607   1.894   1.615   5.308  0.4308 -0.2568  0.2681
   20SAPS  C220 2608   2.050   1.739   5.273  0.0460 -0.1066 -0.4808
   20SAPS  H20R 2609   2.031   1.814   5.353 -0.3888 -0.0979 -0.5921
   20SAPS  H20S 2610   2.099   1.799   5.192 -0.5308  1.8422  0.5410
   20SAPS  H20T 2611   2.122   1.663   5.311 -0.7814  0.1533  1.7395
   20SAPS   C33 2612   2.148   1.579   3.454 -0.2188 -0.0885 -0.7498
   20SAPS   H3X 2613   2.185   1.677   3.416 -2.0244  0.7132 -0.5410
   20SAPS   H3Y 2614   2.203   1.512   3.385  0.2046  0.0564 -0.5549
   20SAPS   C34 2615   2.197   1.564   3.602  0.7180 -0.0347  0.2662
   20SAPS   H4X 2616   2.162   1.469   3.648  2.0320  0.3304  2.1709
   20SAPS   H4Y 2617   2.149   1.648   3.657 -1.9065 -0.7953 -0.6978
   20SAPS   C35 2618   2.349   1.578   3.617 -0.2937  0.3658  0.1704
   20SAPS   H5X 2619   2.387   1.681   3.597  0.1743  0.3435  0.8738
   20SAPS   H5Y 2620   2.398   1.521   3.536  2.7204  3.2013 -0.2530
   20SAPS   C36 2621   2.398   1.533   3.756 -0.5912 -0.6658 -0.1374
   20SAPS   H6X 2622   2.392   1.422   3.762  2.3273 -1.0492 -2.1749
   20SAPS   H6Y 2623   2.336   1.565   3.843 -1.1999 -2.3856  0.0977
   20SAPS   C37 2624   2.545   1.578   3.768  0.1069 -0.6232  0.3791
   20SAPS   H7X 2625   2.556   1.688   3.763 -0.8948 -0.5038  0.7174
   20SAPS   H7Y 2626   2.596   1.529   3.682  1.9701 -1.4735  1.8950
   20SAPS   C38 2627   2.616   1.537   3.895  0.6979 -0.6947  0.7496
   20SAPS   H8X 2628   2.723   1.566   3.881  0.9608 -0.7794  2.4611
   20SAPS   H8Y 2629   2.621   1.427   3.910  1.1575 -0.5006  2.0992
   20SAPS   C39 2630   2.544   1.603   4.015 -0.6288 -0.1648  0.2766
   20SAPS   H9X 2631   2.437   1.581   4.031 -1.0148  1.7529  0.5279
   20SAPS   H9Y 2632   2.541   1.711   3.989  1.0018 -0.2447 -0.3883
   20SAPS  C310 2633   2.602   1.574   4.151 -0.4213  0.4031 -0.7404
   20SAPS  H10X 2634   2.711   1.579   4.131  0.2903  1.6624  2.6672
   20SAPS  H10Y 2635   2.568   1.479   4.199  0.7108  0.3640  0.0331
   20SAPS  C311 2636   2.574   1.682   4.263  0.2747  0.4769 -0.2978
   20SAPS  H11X 2637   2.464   1.693   4.273 -0.0189 -0.7733 -1.7764
   20SAPS  H11Y 2638   2.617   1.776   4.224  1.1610 -0.6801 -2.2594
   20SAPS  C312 2639   2.624   1.626   4.401 -0.2787 -0.1348  0.3658
   20SAPS  H12X 2640   2.734   1.621   4.392 -0.1875 -0.5004  1.5433
   20SAPS  H12Y 2641   2.589   1.524   4.426  1.4682 -0.9823 -0.4911
   20SAPS  C313 2642   2.583   1.714   4.520 -0.6898  0.2120 -0.6055
   20SAPS  H13X 2643   2.473   1.719   4.531 -0.7451  0.0394 -1.0790
   20SAPS  H13Y 2644   2.631   1.813   4.503  0.0762  0.0069  0.2203
   20SAPS  C314 2645   2.645   1.665   4.651  0.3083 -0.3228  0.3659
   20SAPS  H14X 2646   2.725   1.590   4.636  2.4849  2.2749 -2.0291
   20SAPS  H14Y 2647   2.563   1.618   4.710 -1.1275  1.5773 -0.0218
   20SAPS  C315 2648   2.695   1.786   4.733  0.1338 -0.0617 -0.3195
   20SAPS  H15X 2649   2.611   1.857   4.743 -0.8320 -0.8438 -2.3742
   20SAPS  H15Y 2650   2.780   1.827   4.674 -0.8357  0.1788 -1.5883
   20SAPS  C316 2651   2.751   1.734   4.864 -0.5501  0.1121 -0.5912
   20SAPS  H16X 2652   2.835   1.661   4.857 -0.9137 -0.3543 -0.1892
   20SAPS  H16Y 2653   2.677   1.665   4.911  1.2489 -2.4101 -1.2100
   20SAPS  C317 2654   2.799   1.842   4.960  0.7016  0.7537  0.5601
   20SAPS  H17X 2655   2.717   1.914   4.983 -0.9104 -0.6125 -0.6974
   20SAPS  H17Y 2656   2.877   1.895   4.902  0.8768 -0.2999 -0.1864
   20SAPS  C318 2657   2.865   1.800   5.088 -0.2895  0.4586  0.6023
   20SAPS  H18X 2658   2.872   1.881   5.164 -2.0978  1.6461 -0.4227
   20SAPS  H18Y 2659   2.968   1.765   5.063 -0.2202 -0.5630  2.1275
   20SAPS  H18Z 2660   2.808   1.715   5.132  0.9203  1.4995  4.5775
   21CHL1    C3 2661   6.364   5.623   6.315 -0.1764  0.5723 -0.8237
   21CHL1    H3 2662   6.277   5.693   6.317  0.4697  1.4049 -1.5318
   21CHL1    O3 2663   6.409   5.589   6.447  0.7505  0.1488 -0.1337
   21CHL1   H3' 2664   6.486   5.532   6.434  0.8504  0.3177 -0.2841
   21CHL1    C4 2665   6.323   5.497   6.240 -0.4064  0.9720  0.0248
   21CHL1   H4A 2666   6.408   5.428   6.256  0.5580  2.1721  0.1580
   21CHL1   H4B 2667   6.233   5.467   6.299  2.3222 -2.7624  2.7578
   21CHL1    C5 2668   6.301   5.512   6.089 -0.5646 -0.7799 -0.7626
   21CHL1    C6 2669   6.184   5.474   6.031 -0.0783  0.8919 -0.2129
   21CHL1    H6 2670   6.121   5.422   6.105  1.1487  0.0141  0.2622
   21CHL1    C7 2671   6.156   5.491   5.884  1.0187 -0.8179  0.0679
   21CHL1   H7A 2672   6.116   5.399   5.836  0.4780 -1.2043  1.2108
   21CHL1   H7B 2673   6.082   5.572   5.870  0.9422 -0.9677 -0.4092
   21CHL1    C8 2674   6.287   5.524   5.805  0.2096 -0.1776  0.5802
   21CHL1    H8 2675   6.351   5.434   5.808  0.6031  0.0570 -0.4201
   21CHL1   C14 2676   6.255   5.559   5.665  0.6383 -0.3050 -0.3662
   21CHL1   H14 2677   6.193   5.650   5.675  0.0366 -0.9025  1.8177
   21CHL1   C15 2678   6.158   5.465   5.588  0.0128 -0.1971 -0.0180
   21CHL1  H15A 2679   6.190   5.359   5.600  0.5302 -0.0495 -0.0516
   21CHL1  H15B 2680   6.053   5.457   5.623  0.2353 -0.1445  0.6856
   21CHL1   C16 2681   6.171   5.518   5.444  0.5655  0.3383 -0.2174
   21CHL1  H16A 2682   6.190   5.432   5.376  1.9072  1.1186 -0.8516
   21CHL1  H16B 2683   6.085   5.572   5.398 -1.9420  0.0559  3.5977
   21CHL1   C17 2684   6.292   5.617   5.448  0.4488 -0.3484  0.2692
   21CHL1   H17 2685   6.232   5.709   5.459 -1.5873 -1.4516 -0.9922
   21CHL1   C13 2686   6.369   5.585   5.572  0.6876  0.2547  0.1787
   21CHL1   C18 2687   6.451   5.457   5.549 -0.2093  0.1883 -0.0251
   21CHL1  H18A 2688   6.479   5.416   5.648  0.5370  0.3751 -0.1586
   21CHL1  H18B 2689   6.389   5.384   5.493 -1.3293 -0.4672  1.9610
   21CHL1  H18C 2690   6.541   5.491   5.494 -0.5834  0.4092 -0.5171
   21CHL1   C12 2691   6.443   5.701   5.635 -0.1578 -0.0957 -0.1179
   21CHL1  H12A 2692   6.528   5.722   5.567  0.2162  0.1704  0.4174
   21CHL1  H12B 2693   6.373   5.787   5.626  0.0496 -0.0253 -1.2062
   21CHL1   C11 2694   6.484   5.684   5.775  0.1933  0.6957  0.4096
   21CHL1  H11A 2695   6.563   5.606   5.779 -1.3656 -0.9535  0.2438
   21CHL1  H11B 2696   6.534   5.775   5.813  0.0916  0.0617  2.1578
   21CHL1    C9 2697   6.368   5.629   5.872 -0.6585  0.3624  0.1819
   21CHL1    H9 2698   6.306   5.721   5.878  1.1585  1.5435  2.3768
   21CHL1   C10 2699   6.415   5.594   6.015 -0.4247  0.0378 -0.0491
   21CHL1   C19 2700   6.549   5.512   6.011  0.2375  0.3982 -0.2553
   21CHL1  H19A 2701   6.533   5.423   5.946 -3.0038 -0.7801  1.8951
   21CHL1  H19B 2702   6.640   5.564   5.974  0.1667 -0.4239 -1.6854
   21CHL1  H19C 2703   6.570   5.469   6.111 -1.1274 -0.1587 -0.1781
   21CHL1    C1 2704   6.458   5.719   6.098 -0.4233  0.4090  0.0629
   21CHL1   H1A 2705   6.542   5.774   6.051 -0.7068  1.3894  0.6886
   21CHL1   H1B 2706   6.377   5.794   6.089 -0.3720  0.4420 -0.1383
   21CHL1    C2 2707   6.491   5.700   6.249  0.2176  0.5470  0.2312
   21CHL1   H2A 2708   6.521   5.787   6.311  4.0598 -1.4004  1.3964
   21CHL1   H2B 2709   6.573   5.628   6.270 -0.4486 -0.2836  0.0245
   21CHL1   C20 2710   6.374   5.641   5.322 -0.2203  0.1825  0.2204
   21CHL1   H20 2711   6.467   5.580   5.329 -0.8367 -1.2459 -2.4254
   21CHL1   C21 2712   6.414   5.788   5.306 -0.5401 -0.1797  0.3436
   21CHL1  H21A 2713   6.328   5.857   5.320 -0.0991  0.1457  1.5104
   21CHL1  H21B 2714   6.457   5.808   5.206 -1.6496  0.0670 -0.1047
   21CHL1  H21C 2715   6.497   5.803   5.377  1.0609 -0.7698 -1.3243
   21CHL1   C22 2716   6.309   5.577   5.198 -0.3290 -0.5423 -0.5807
   21CHL1  H22A 2717   6.303   5.467   5.210  0.1611 -0.5757 -0.6248
   21CHL1  H22B 2718   6.208   5.623   5.186 -0.5464  2.5420  7.0044
   21CHL1   C23 2719   6.394   5.593   5.067  0.8480 -0.1893 -0.4788
   21CHL1  H23A 2720   6.408   5.700   5.038  3.3096 -0.1410  0.6464
   21CHL1  H23B 2721   6.497   5.564   5.099  1.0189  1.6481  0.8061
   21CHL1   C24 2722   6.348   5.498   4.951 -1.0715 -0.5718  0.4631
   21CHL1  H24A 2723   6.368   5.397   4.993  1.0140 -0.0604  0.8084
   21CHL1  H24B 2724   6.240   5.522   4.938 -1.2797 -1.0836  1.1968
   21CHL1   C25 2725   6.423   5.502   4.813  0.2936 -1.0059 -0.1299
   21CHL1   H25 2726   6.357   5.440   4.749 -0.5539 -0.5295  0.2488
   21CHL1   C26 2727   6.426   5.649   4.756 -0.5380 -0.5805  0.1007
   21CHL1  H26A 2728   6.321   5.686   4.760 -0.0574  1.4706 -3.0740
   21CHL1  H26B 2729   6.495   5.718   4.810  1.0120 -0.7155 -1.6042
   21CHL1  H26C 2730   6.464   5.643   4.652  0.0092  0.4506  0.2256
   21CHL1   C27 2731   6.565   5.432   4.813 -0.0809  0.6346  0.1854
   21CHL1  H27A 2732   6.566   5.330   4.857 -0.6451  0.0860 -1.0357
   21CHL1  H27B 2733   6.596   5.406   4.710  1.8054 -0.6386  0.9989
   21CHL1  H27C 2734   6.643   5.497   4.859  0.5711 -0.4664  0.6571
   22CHL1    C3 2735   1.144   4.119   6.740  0.2781  0.1097 -0.4325
   22CHL1    H3 2736   1.238   4.178   6.727  0.0558  0.5037 -0.2516
   22CHL1    O3 2737   1.122   4.104   6.887  0.0336  0.5122  0.2686
   22CHL1   H3' 2738   1.044   4.048   6.890 -1.3272  2.2886  0.0963
   22CHL1    C4 2739   1.018   4.173   6.684 -0.2547  0.4302  0.0701
   22CHL1   H4A 2740   0.928   4.123   6.724 -0.9773  0.5008 -1.4146
   22CHL1   H4B 2741   1.027   4.278   6.722  1.6042  0.3735 -0.1224
   22CHL1    C5 2742   1.023   4.170   6.533 -0.2396  0.5488 -0.9354
   22CHL1    C6 2743   1.010   4.275   6.454  0.2796 -0.2084 -0.1152
   22CHL1    H6 2744   1.002   4.370   6.508  0.4927 -1.2815  1.9041
   22CHL1    C7 2745   1.005   4.270   6.306 -0.5263  0.1477  0.3482
   22CHL1   H7A 2746   0.936   4.348   6.265 -0.3383  1.7993  2.9694
   22CHL1   H7B 2747   1.103   4.309   6.272 -0.1020  0.6548  2.0822
   22CHL1    C8 2748   0.980   4.128   6.241  0.1268 -0.2876  0.5379
   22CHL1    H8 2749   0.873   4.102   6.255 -0.3658  0.9269 -0.7549
   22CHL1   C14 2750   1.016   4.133   6.089 -0.4555  0.4825 -0.2958
   22CHL1   H14 2751   1.125   4.155   6.086 -0.1554 -0.4767  1.7738
   22CHL1   C15 2752   0.943   4.236   5.999 -0.2768 -0.5868  0.7539
   22CHL1  H15A 2753   0.835   4.246   6.027  0.1149  1.0831  1.8562
   22CHL1  H15B 2754   0.990   4.336   6.010  4.3889 -2.7986  4.7280
   22CHL1   C16 2755   0.953   4.183   5.855  0.2410 -0.7453  0.1399
   22CHL1  H16A 2756   0.853   4.165   5.809  0.2227 -0.2989 -0.0024
   22CHL1  H16B 2757   1.006   4.262   5.797 -1.0704  1.0446  1.2360
   22CHL1   C17 2758   1.023   4.043   5.869  0.6019  0.0995 -0.4295
   22CHL1   H17 2759   1.131   4.064   5.859  0.6707 -1.1242 -3.6363
   22CHL1   C13 2760   0.990   4.003   6.019 -0.0284  0.6377  0.0665
   22CHL1   C18 2761   0.837   3.955   6.024 -0.7080  0.1459  0.7453
   22CHL1  H18A 2762   0.805   3.947   6.130  0.7408  0.7405  1.2628
   22CHL1  H18B 2763   0.768   4.029   5.979 -0.2703 -0.2335 -0.6194
   22CHL1  H18C 2764   0.821   3.866   5.959  0.8723  0.7367 -0.5320
   22CHL1   C12 2765   1.080   3.900   6.092 -1.0829  0.8100 -0.0994
   22CHL1  H12A 2766   1.057   3.804   6.040  1.0938 -0.7905  1.6958
   22CHL1  H12B 2767   1.185   3.931   6.072 -0.4661 -1.4066 -0.6160
   22CHL1   C11 2768   1.054   3.888   6.243  0.2159 -0.3566  0.8986
   22CHL1  H11A 2769   0.948   3.854   6.252 -0.1500 -1.0563 -3.7635
   22CHL1  H11B 2770   1.114   3.811   6.297  2.1532  0.1153 -0.4926
   22CHL1    C9 2771   1.064   4.026   6.316 -0.1841 -0.3884  0.5583
   22CHL1    H9 2772   1.171   4.054   6.311  0.2140 -1.9621 -0.5687
   22CHL1   C10 2773   1.039   4.032   6.472  0.3564  0.1483  0.0696
   22CHL1   C19 2774   0.911   3.967   6.508  0.4216 -0.2388  0.2463
   22CHL1  H19A 2775   0.826   4.011   6.452  0.1715 -0.4482  0.4598
   22CHL1  H19B 2776   0.914   3.859   6.480  0.6647 -0.0054 -0.6600
   22CHL1  H19C 2777   0.881   3.955   6.614  0.6458  0.2523  0.3666
   22CHL1    C1 2778   1.163   3.965   6.538  0.4433 -0.3164 -0.5987
   22CHL1   H1A 2779   1.168   3.859   6.504  2.9365 -0.8870  1.3388
   22CHL1   H1B 2780   1.249   4.027   6.505 -1.3174  2.5889 -0.1408
   22CHL1    C2 2781   1.167   3.972   6.687 -0.1375 -1.2759 -0.4285
   22CHL1   H2A 2782   1.265   3.935   6.723  1.7065  1.4507 -2.3061
   22CHL1   H2B 2783   1.091   3.907   6.736 -0.6706 -0.0527  0.4284
   22CHL1   C20 2784   0.977   3.952   5.751 -0.4316  0.1455  0.4786
   22CHL1   H20 2785   0.871   3.921   5.765 -0.2075 -0.4176  0.9581
   22CHL1   C21 2786   1.058   3.817   5.765 -0.2433  0.2674 -0.1112
   22CHL1  H21A 2787   1.002   3.753   5.837  2.2524 -0.4797  1.2701
   22CHL1  H21B 2788   1.157   3.839   5.810 -1.0730  0.9774  1.4449
   22CHL1  H21C 2789   1.071   3.757   5.673  0.3982  1.1390 -0.6049
   22CHL1   C22 2790   0.989   4.014   5.607 -0.0954 -0.1444  0.0412
   22CHL1  H22A 2791   0.941   4.114   5.609  1.1351  0.4646  1.1714
   22CHL1  H22B 2792   1.097   4.036   5.592 -0.2486  1.0146  0.5157
   22CHL1   C23 2793   0.929   3.941   5.491 -0.0813 -0.2374 -0.0295
   22CHL1  H23A 2794   0.954   3.835   5.514  0.6798  0.1674  1.1182
   22CHL1  H23B 2795   0.818   3.945   5.502  0.0017 -1.8758  2.4494
   22CHL1   C24 2796   0.999   3.995   5.359 -0.4349 -0.2268  0.2556
   22CHL1  H24A 2797   0.959   4.091   5.319  0.3609 -0.2789 -0.6881
   22CHL1  H24B 2798   1.108   4.010   5.372 -0.5013  0.0960  0.4760
   22CHL1   C25 2799   0.973   3.899   5.243  0.0410  0.1512 -0.5511
   22CHL1   H25 2800   0.867   3.875   5.265  0.5908 -0.1012  2.0865
   22CHL1   C26 2801   0.967   3.968   5.110  0.1491  0.8805  0.1460
   22CHL1  H26A 2802   0.938   3.901   5.026 -2.8019  1.3267  0.7102
   22CHL1  H26B 2803   0.896   4.052   5.118 -0.4549  0.4007 -0.1123
   22CHL1  H26C 2804   1.067   4.017   5.104 -0.0768  1.4655  0.9036
   22CHL1   C27 2805   1.045   3.764   5.256  0.6725 -0.3732 -0.4431
   22CHL1  H27A 2806   1.001   3.705   5.174 -2.9906 -1.1329  1.8763
   22CHL1  H27B 2807   1.153   3.783   5.235  0.4706  1.0757 -0.3200
   22CHL1  H27C 2808   1.023   3.722   5.356  0.0323  0.7320 -0.1064
   23CHL1    C3 2809   5.972   4.958   6.553 -0.2744  0.5398 -0.5211
   23CHL1    H3 2810   6.074   4.995   6.529  0.5871 -1.2946  0.1335
   23CHL1    O3 2811   5.972   4.936   6.690  0.0262  0.3482 -0.4348
   23CHL1   H3' 2812   5.879   4.923   6.709  0.4692 -0.2125  1.5969
   23CHL1    C4 2813   5.879   5.072   6.512  0.2975  0.3870 -0.4366
   23CHL1   H4A 2814   5.780   5.050   6.558 -0.3001 -0.8210 -2.2099
   23CHL1   H4B 2815   5.922   5.162   6.560 -0.3913  0.4703  0.0336
   23CHL1    C5 2816   5.869   5.083   6.365  0.0787  0.2772  0.9161
   23CHL1    C6 2817   5.888   5.199   6.300  0.6789 -0.0754 -0.6623
   23CHL1    H6 2818   5.918   5.289   6.356  1.0667 -0.7188  0.1857
   23CHL1    C7 2819   5.880   5.219   6.155 -0.2076  0.7750 -0.0136
   23CHL1   H7A 2820   5.820   5.310   6.132  0.4436  0.7489 -1.9412
   23CHL1   H7B 2821   5.983   5.241   6.118 -0.2826 -2.0721 -2.2712
   23CHL1    C8 2822   5.821   5.095   6.080  0.6638 -0.3205 -0.4453
   23CHL1    H8 2823   5.711   5.104   6.089  0.6511 -2.1147  3.8331
   23CHL1   C14 2824   5.867   5.102   5.936 -0.0356 -0.4036 -0.1270
   23CHL1   H14 2825   5.978   5.106   5.934 -0.0661  2.0238 -0.7452
   23CHL1   C15 2826   5.852   5.230   5.860  0.3041  0.3389  0.3470
   23CHL1  H15A 2827   5.750   5.273   5.858  1.5377  3.4917 -1.0804
   23CHL1  H15B 2828   5.932   5.302   5.886  1.3937  0.3983 -2.7973
   23CHL1   C16 2829   5.874   5.186   5.714 -0.2934  0.0014 -0.5520
   23CHL1  H16A 2830   5.784   5.229   5.664  0.4434  1.5749 -0.5793
   23CHL1  H16B 2831   5.966   5.223   5.665  1.6359 -0.5930  2.3576
   23CHL1   C17 2832   5.883   5.033   5.711 -0.4523  0.2529  0.5310
   23CHL1   H17 2833   5.990   5.011   5.731 -0.5570 -0.3463  0.4460
   23CHL1   C13 2834   5.821   4.992   5.845  0.3032 -0.0316  1.4374
   23CHL1   C18 2835   5.671   4.993   5.828 -0.6964 -0.1250 -1.0739
   23CHL1  H18A 2836   5.630   4.927   5.750 -1.5144 -0.3684 -0.4573
   23CHL1  H18B 2837   5.629   4.965   5.928 -1.2367  0.0053 -1.2620
   23CHL1  H18C 2838   5.629   5.090   5.794 -0.4768 -0.8239 -3.4899
   23CHL1   C12 2839   5.872   4.856   5.906  0.1647  0.4190 -0.0949
   23CHL1  H12A 2840   5.825   4.772   5.850 -2.2371  1.0792  0.7909
   23CHL1  H12B 2841   5.983   4.848   5.904  0.1433  0.2319 -0.5622
   23CHL1   C11 2842   5.829   4.843   6.049  0.4199 -0.1403 -0.2399
   23CHL1  H11A 2843   5.719   4.829   6.055  0.5228 -0.4765  1.2466
   23CHL1  H11B 2844   5.881   4.754   6.090  1.3864  1.5876  2.5916
   23CHL1    C9 2845   5.874   4.966   6.136 -0.7336  1.0034 -0.7480
   23CHL1    H9 2846   5.985   4.977   6.130 -0.6900  1.4730  0.5562
   23CHL1   C10 2847   5.848   4.953   6.287  0.2852  0.5416 -0.0546
   23CHL1   C19 2848   5.706   4.909   6.305 -0.2108 -1.0485  0.4283
   23CHL1  H19A 2849   5.676   4.903   6.412 -2.3475 -0.1570 -0.0540
   23CHL1  H19B 2850   5.643   4.975   6.240 -1.2938 -1.5849  0.9156
   23CHL1  H19C 2851   5.687   4.808   6.262 -0.6854 -0.6452 -0.3473
   23CHL1    C1 2852   5.947   4.839   6.339  0.1805 -0.9324  0.5289
   23CHL1   H1A 2853   5.911   4.739   6.307  1.0171 -1.0017 -0.2533
   23CHL1   H1B 2854   6.055   4.846   6.314  0.2995  0.1086  1.2497
   23CHL1    C2 2855   5.949   4.826   6.487  0.0708 -0.4191  0.2580
   23CHL1   H2A 2856   6.027   4.756   6.522  2.2421  1.6673 -0.1084
   23CHL1   H2B 2857   5.848   4.786   6.513  1.0350 -1.2003  3.1649
   23CHL1   C20 2858   5.847   4.975   5.575  0.6571 -0.0497  0.3684
   23CHL1   H20 2859   5.744   5.004   5.548  1.3562  4.2315  1.4653
   23CHL1   C21 2860   5.858   4.822   5.568 -0.5639  0.0730 -0.4429
   23CHL1  H21A 2861   5.776   4.780   5.629 -0.7711  1.7405  0.4729
   23CHL1  H21B 2862   5.962   4.788   5.591 -0.3440 -0.7753 -2.4523
   23CHL1  H21C 2863   5.835   4.781   5.467 -0.3814  0.1728 -0.5270
   23CHL1   C22 2864   5.932   5.022   5.461 -0.3639 -0.3360  0.4802
   23CHL1  H22A 2865   5.939   5.133   5.470  0.3041 -0.4670  1.9079
   23CHL1  H22B 2866   6.035   4.980   5.453  0.5689  2.0438 -1.2628
   23CHL1   C23 2867   5.880   5.010   5.322  0.3169  0.0908  0.2255
   23CHL1  H23A 2868   5.842   4.906   5.307  2.7746 -0.8686  0.0992
   23CHL1  H23B 2869   5.794   5.078   5.305  0.7932  0.4338 -0.9617
   23CHL1   C24 2870   5.986   5.030   5.221 -0.5969  0.0213  0.3793
   23CHL1  H24A 2871   6.064   4.954   5.241 -1.3253 -0.3156  2.1582
   23CHL1  H24B 2872   5.955   5.011   5.116  0.5879  1.9727 -0.3769
   23CHL1   C25 2873   6.067   5.169   5.228 -0.7352 -0.9954 -0.6383
   23CHL1   H25 2874   6.109   5.188   5.329  0.4618 -1.2395 -1.0691
   23CHL1   C26 2875   6.185   5.163   5.119  0.7798 -0.1625  0.0791
   23CHL1  H26A 2876   6.266   5.098   5.158 -0.8312 -0.3386  3.5039
   23CHL1  H26B 2877   6.138   5.126   5.025 -2.0037  0.5917  1.0651
   23CHL1  H26C 2878   6.228   5.264   5.104  0.2653  0.1365  0.5641
   23CHL1   C27 2879   5.974   5.291   5.185 -0.0819  0.0743  0.0421
   23CHL1  H27A 2880   6.047   5.373   5.167  0.5061 -0.3793  0.3454
   23CHL1  H27B 2881   5.924   5.260   5.091  1.2086  2.9705 -1.7586
   23CHL1  H27C 2882   5.904   5.322   5.266 -0.7887 -0.6499 -0.2817
   24CHL1    C3 2883   1.337   4.729   6.472 -0.3941  0.8173  0.0759
   24CHL1    H3 2884   1.428   4.693   6.420  0.4060  1.1663  1.2015
   24CHL1    O3 2885   1.354   4.723   6.610 -0.3498 -0.7042 -0.5610
   24CHL1   H3' 2886   1.439   4.680   6.623  0.4080  1.0492  0.6749
   24CHL1    C4 2887   1.308   4.874   6.428  0.0895  0.3839 -0.1312
   24CHL1   H4A 2888   1.219   4.908   6.484  0.3668  0.7998  0.0572
   24CHL1   H4B 2889   1.396   4.932   6.464  0.1514 -0.3007  0.8504
   24CHL1    C5 2890   1.283   4.879   6.279 -1.2284  0.2060  0.2662
   24CHL1    C6 2891   1.339   4.961   6.194  0.3962 -0.7518 -0.1507
   24CHL1    H6 2892   1.412   5.037   6.225  0.1252  0.4061 -2.1703
   24CHL1    C7 2893   1.303   4.974   6.051  0.3691 -0.7561  0.1338
   24CHL1   H7A 2894   1.292   5.081   6.021 -0.7050 -0.4197  1.6001
   24CHL1   H7B 2895   1.392   4.942   5.994  0.3845 -1.0928  0.3423
   24CHL1    C8 2896   1.178   4.902   6.003 -0.0046  0.4245 -0.4591
   24CHL1    H8 2897   1.094   4.975   6.007  1.0070  1.6448 -1.0358
   24CHL1   C14 2898   1.194   4.880   5.857  0.0492  0.2551  1.0730
   24CHL1   H14 2899   1.278   4.809   5.846 -0.0182  0.0246  1.9904
   24CHL1   C15 2900   1.224   4.986   5.752 -0.5693 -0.4566 -0.4978
   24CHL1  H15A 2901   1.159   5.076   5.755  0.4526  0.2743  0.0743
   24CHL1  H15B 2902   1.328   5.021   5.763 -0.6449 -0.7546  1.4255
   24CHL1   C16 2903   1.201   4.911   5.622 -0.1700 -0.2470 -0.7322
   24CHL1  H16A 2904   1.145   4.977   5.553  1.2078  1.0207 -0.6939
   24CHL1  H16B 2905   1.298   4.891   5.572 -0.1840  0.2237 -0.9527
   24CHL1   C17 2906   1.122   4.780   5.649  0.4201 -0.7096  0.1216
   24CHL1   H17 2907   1.201   4.702   5.656  0.4117 -1.2428 -3.8700
   24CHL1   C13 2908   1.078   4.800   5.794 -0.2747  0.2600  0.1119
   24CHL1   C18 2909   0.949   4.888   5.801 -0.2543 -0.0426  0.0070
   24CHL1  H18A 2910   0.904   4.902   5.902 -0.9529 -0.3596 -0.2617
   24CHL1  H18B 2911   0.956   4.983   5.744  0.2697  0.3146  0.6435
   24CHL1  H18C 2912   0.869   4.830   5.753  0.1788 -1.8595  1.3734
   24CHL1   C12 2913   1.051   4.662   5.863 -0.3662 -0.3013  0.6576
   24CHL1  H12A 2914   0.957   4.620   5.820 -2.1364  2.3933  1.5996
   24CHL1  H12B 2915   1.140   4.597   5.851 -0.6796 -1.1017  2.3088
   24CHL1   C11 2916   1.044   4.679   6.013 -0.2805 -0.2409 -0.3992
   24CHL1  H11A 2917   0.952   4.734   6.040  1.0999  0.9965  2.1095
   24CHL1  H11B 2918   1.046   4.578   6.060 -0.9208 -0.9059 -1.7394
   24CHL1    C9 2919   1.161   4.768   6.072 -0.2866 -0.5263  0.2389
   24CHL1    H9 2920   1.247   4.705   6.039  0.1212  0.6975 -1.1181
   24CHL1   C10 2921   1.179   4.774   6.225  0.6975 -0.1591 -0.1138
   24CHL1   C19 2922   1.041   4.814   6.279 -0.2467 -0.3285  0.1643
   24CHL1  H19A 2923   1.044   4.838   6.387  0.1340 -0.6594  0.2309
   24CHL1  H19B 2924   1.000   4.903   6.227  0.5140  1.2441  2.1241
   24CHL1  H19C 2925   0.968   4.733   6.260 -0.4178  0.3637 -2.5195
   24CHL1    C1 2926   1.206   4.637   6.283  0.6463 -0.0654 -0.3026
   24CHL1   H1A 2927   1.119   4.572   6.259 -0.7144  2.0503 -1.4197
   24CHL1   H1B 2928   1.297   4.600   6.230 -0.3255 -2.0974 -0.6625
   24CHL1    C2 2929   1.227   4.627   6.433  0.3292 -0.3501 -0.3570
   24CHL1   H2A 2930   1.241   4.522   6.467  1.7673  0.1255  0.5961
   24CHL1   H2B 2931   1.141   4.663   6.492  0.3529 -0.8235 -0.0329
   24CHL1   C20 2932   1.022   4.744   5.541 -0.0534 -0.3805  0.1550
   24CHL1   H20 2933   0.929   4.805   5.547 -1.3716 -1.9517 -2.3416
   24CHL1   C21 2934   0.976   4.598   5.563 -0.3747  0.0657  0.0111
   24CHL1  H21A 2935   1.060   4.537   5.604  1.4826  3.2203  1.2296
   24CHL1  H21B 2936   0.941   4.554   5.467 -0.3794 -2.2587  0.9980
   24CHL1  H21C 2937   0.892   4.600   5.635  1.0124  1.1677  1.6612
   24CHL1   C22 2938   1.064   4.757   5.395 -0.2880  0.9238  0.1590
   24CHL1  H22A 2939   1.157   4.818   5.396  1.5265 -1.7047  1.6320
   24CHL1  H22B 2940   1.119   4.668   5.359 -1.4392  0.0265  0.5587
   24CHL1   C23 2941   0.961   4.824   5.295 -0.6334  0.3822  0.2749
   24CHL1  H23A 2942   0.859   4.808   5.336 -1.8488  2.1255 -1.8512
   24CHL1  H23B 2943   0.988   4.932   5.294  4.1111 -0.5733  0.5073
   24CHL1   C24 2944   0.982   4.759   5.156  0.0843  0.8680 -0.2727
   24CHL1  H24A 2945   1.083   4.784   5.119  0.0995  0.2310 -0.6807
   24CHL1  H24B 2946   0.989   4.649   5.172  0.3355  0.9965  0.5784
   24CHL1   C25 2947   0.874   4.802   5.055 -0.7599 -0.3246 -0.3419
   24CHL1   H25 2948   0.776   4.779   5.102  0.5307  0.6384  3.1584
   24CHL1   C26 2949   0.882   4.950   5.020  0.2177 -1.8164 -0.4342
   24CHL1  H26A 2950   0.886   5.014   5.111 -1.0695  1.3901 -2.4604
   24CHL1  H26B 2951   0.969   4.981   4.958  1.0906 -1.8174  0.7543
   24CHL1  H26C 2952   0.794   4.991   4.967  0.6287  2.1815  1.6076
   24CHL1   C27 2953   0.891   4.706   4.932 -0.2796 -0.0913  0.4050
   24CHL1  H27A 2954   0.931   4.614   4.981  0.0190  0.1956  0.7085
   24CHL1  H27B 2955   0.792   4.691   4.885 -0.1108  0.9513 -0.3149
   24CHL1  H27C 2956   0.978   4.739   4.871  1.4201 -0.7236  2.3497
   25CHL1    C3 2957   4.729   0.643   6.610  0.6501 -0.4483 -0.3780
   25CHL1    H3 2958   4.627   0.669   6.576  0.8192  3.0609  1.4023
   25CHL1    O3 2959   4.727   0.637   6.754  0.8152  0.5468  0.1681
   25CHL1   H3' 2960   4.819   0.622   6.775  1.0683  1.6901 -0.0389
   25CHL1    C4 2961   4.778   0.509   6.551 -0.8806 -0.2076 -0.5784
   25CHL1   H4A 2962   4.884   0.489   6.578 -0.1999  2.9037 -0.6048
   25CHL1   H4B 2963   4.722   0.423   6.595 -1.8020  0.3868 -0.5560
   25CHL1    C5 2964   4.781   0.508   6.401 -0.3813 -0.2355  0.3191
   25CHL1    C6 2965   4.705   0.419   6.336 -0.1364  0.3007  0.4670
   25CHL1    H6 2966   4.647   0.342   6.389 -1.7968 -0.4319 -2.1903
   25CHL1    C7 2967   4.694   0.409   6.189  0.0657  0.4711 -0.0746
   25CHL1   H7A 2968   4.721   0.309   6.148  1.7992  0.6553  0.5620
   25CHL1   H7B 2969   4.599   0.451   6.148  1.5908  1.6734 -2.6751
   25CHL1    C8 2970   4.800   0.492   6.117 -0.6061  0.0101  0.4572
   25CHL1    H8 2971   4.901   0.449   6.131 -0.2749  0.7644  0.3976
   25CHL1   C14 2972   4.754   0.511   5.969 -0.4964 -0.2804  0.5396
   25CHL1   H14 2973   4.668   0.582   5.971 -1.9136 -1.8662 -0.6238
   25CHL1   C15 2974   4.713   0.384   5.879 -0.5279  0.2829 -0.8382
   25CHL1  H15A 2975   4.784   0.304   5.907  0.5650  1.5426  0.1428
   25CHL1  H15B 2976   4.608   0.360   5.904 -1.2176  0.9303 -2.8679
   25CHL1   C16 2977   4.746   0.429   5.731  1.3157 -0.6395  0.0883
   25CHL1  H16A 2978   4.833   0.368   5.701  1.8752 -0.0513  0.4854
   25CHL1  H16B 2979   4.669   0.410   5.653  1.3094 -2.8525  0.5815
   25CHL1   C17 2980   4.784   0.580   5.749 -0.5160 -0.5868  0.0952
   25CHL1   H17 2981   4.684   0.629   5.751 -0.1391  0.4731 -2.5065
   25CHL1   C13 2982   4.854   0.590   5.886  0.4955 -0.0169 -0.7622
   25CHL1   C18 2983   4.991   0.519   5.884 -0.7162 -0.4609  0.1436
   25CHL1  H18A 2984   5.063   0.563   5.812 -1.5991 -0.9648 -1.0875
   25CHL1  H18B 2985   5.031   0.514   5.987 -0.0669 -1.7236 -0.1413
   25CHL1  H18C 2986   4.979   0.410   5.868 -0.3867 -0.4850  0.0592
   25CHL1   C12 2987   4.858   0.733   5.945 -0.4989 -0.9985  0.4635
   25CHL1  H12A 2988   4.949   0.778   5.901 -2.0041  0.1276 -1.6814
   25CHL1  H12B 2989   4.767   0.791   5.918  0.7725  0.5869 -0.6038
   25CHL1   C11 2990   4.893   0.730   6.090  0.3515 -0.6265  0.0143
   25CHL1  H11A 2991   5.003   0.716   6.096  0.4030  0.2647  2.0061
   25CHL1  H11B 2992   4.877   0.831   6.134  0.7345  1.0232 -3.2589
   25CHL1    C9 2993   4.811   0.630   6.179 -0.5012  0.2330 -0.0890
   25CHL1    H9 2994   4.704   0.661   6.181 -0.7245 -0.4961 -0.6037
   25CHL1   C10 2995   4.842   0.625   6.330 -0.6650 -1.1772  0.4157
   25CHL1   C19 2996   4.999   0.608   6.342  0.3888  0.5062 -0.0424
   25CHL1  H19A 2997   5.054   0.698   6.305  2.0009 -0.6700 -0.6461
   25CHL1  H19B 2998   5.047   0.585   6.439  0.0965  1.5393  0.3555
   25CHL1  H19C 2999   5.026   0.528   6.269 -0.6818  1.4718 -1.5597
   25CHL1    C1 3000   4.796   0.758   6.400 -0.5822  0.6832 -0.1448
   25CHL1   H1A 3001   4.862   0.839   6.361 -1.2044  0.8032 -0.9879
   25CHL1   H1B 3002   4.695   0.787   6.366 -1.4894 -1.3969  0.6284
   25CHL1    C2 3003   4.811   0.763   6.559  0.2931  0.6417  0.0380
   25CHL1   H2A 3004   4.771   0.856   6.604 -0.5449 -0.3516  1.4177
   25CHL1   H2B 3005   4.920   0.750   6.576  0.7039  4.0207  0.5676
   25CHL1   C20 3006   4.871   0.628   5.631  0.4075  0.2935  0.4249
   25CHL1   H20 3007   4.969   0.576   5.627 -0.7210 -1.9195 -2.4177
   25CHL1   C21 3008   4.887   0.782   5.644 -0.1940 -0.3168 -0.8448
   25CHL1  H21A 3009   4.802   0.831   5.697  0.2794 -1.0745  0.6628
   25CHL1  H21B 3010   4.905   0.837   5.549  1.6134  1.4325  0.4225
   25CHL1  H21C 3011   4.976   0.806   5.706  0.2326  1.9191 -2.1902
   25CHL1   C22 3012   4.811   0.596   5.488  0.0109 -0.8829 -0.1062
   25CHL1  H22A 3013   4.788   0.488   5.475 -3.2790 -0.3171 -0.0068
   25CHL1  H22B 3014   4.709   0.639   5.476  0.3219 -0.0584  0.1355
   25CHL1   C23 3015   4.893   0.620   5.360 -0.3407 -0.2140 -0.0980
   25CHL1  H23A 3016   4.931   0.725   5.357  2.3424 -1.1238 -1.0106
   25CHL1  H23B 3017   4.988   0.562   5.369 -0.8863 -0.7783  3.2352
   25CHL1   C24 3018   4.802   0.600   5.234  0.3867 -0.3615 -0.1427
   25CHL1  H24A 3019   4.778   0.491   5.232  3.3519 -1.1127 -0.3302
   25CHL1  H24B 3020   4.705   0.654   5.236 -0.4422 -1.6572 -1.9742
   25CHL1   C25 3021   4.863   0.632   5.103  0.5428 -0.0534 -0.1316
   25CHL1   H25 3022   4.967   0.593   5.103 -0.1682 -2.0489 -0.0850
   25CHL1   C26 3023   4.791   0.569   4.982  0.0131  0.0773 -0.3012
   25CHL1  H26A 3024   4.832   0.618   4.891 -1.2425  1.8898  0.0373
   25CHL1  H26B 3025   4.810   0.460   4.984  0.0429  0.0452 -1.8096
   25CHL1  H26C 3026   4.683   0.596   4.987  0.3307  1.2053  1.1609
   25CHL1   C27 3027   4.870   0.780   5.079  0.0052 -1.2267  0.5604
   25CHL1  H27A 3028   4.772   0.829   5.097  0.7722 -0.0960  1.8299
   25CHL1  H27B 3029   4.942   0.824   5.151 -0.8719  1.6598 -0.2109
   25CHL1  H27C 3030   4.908   0.804   4.977 -1.2664 -0.6453  0.2074
   26CHL1    C3 3031   0.922   5.187   6.446 -0.2278  0.7158  0.0400
   26CHL1    H3 3032   0.998   5.112   6.419 -1.0523 -1.2955  2.8783
   26CHL1    O3 3033   0.893   5.179   6.582 -0.3024 -0.3417 -0.1796
   26CHL1   H3' 3034   0.840   5.255   6.607  0.4271 -0.7337  2.9506
   26CHL1    C4 3035   0.965   5.335   6.413 -0.1653  0.8720 -0.2633
   26CHL1   H4A 3036   0.896   5.412   6.453 -1.9338 -0.0911 -1.3662
   26CHL1   H4B 3037   1.059   5.349   6.470 -0.3690  1.8936 -0.1619
   26CHL1    C5 3038   0.975   5.363   6.268  0.2126 -0.2752 -0.1976
   26CHL1    C6 3039   1.081   5.436   6.215 -0.0364  1.0388  0.4547
   26CHL1    H6 3040   1.162   5.477   6.275  0.5210  2.7304 -1.3546
   26CHL1    C7 3041   1.095   5.466   6.066 -0.3885  0.3321 -0.1433
   26CHL1   H7A 3042   1.128   5.571   6.053 -1.1213  0.7292  1.0457
   26CHL1   H7B 3043   1.181   5.405   6.032 -1.3873 -1.6172  0.6992
   26CHL1    C8 3044   0.976   5.441   5.973 -0.0405 -0.7042  0.0688
   26CHL1    H8 3045   0.932   5.542   5.981  0.5426 -0.2917 -1.5364
   26CHL1   C14 3046   1.021   5.423   5.830  0.1918 -0.2214  0.7186
   26CHL1   H14 3047   1.073   5.325   5.827 -0.1835 -0.4636  1.7391
   26CHL1   C15 3048   1.111   5.537   5.778  0.8134  0.4819 -0.2735
   26CHL1  H15A 3049   1.074   5.638   5.805 -1.2358  0.6471 -3.2633
   26CHL1  H15B 3050   1.216   5.521   5.810  0.2060  0.1369  1.6778
   26CHL1   C16 3051   1.100   5.523   5.630 -0.2941 -0.3084 -0.1906
   26CHL1  H16A 3052   1.070   5.621   5.588  0.1597 -0.5440 -1.0939
   26CHL1  H16B 3053   1.194   5.491   5.580 -0.4658 -4.5617  1.7992
   26CHL1   C17 3054   0.983   5.416   5.597 -0.5367 -0.4638  0.5391
   26CHL1   H17 3055   1.039   5.320   5.591 -1.0893 -0.7285 -0.5915
   26CHL1   C13 3056   0.902   5.411   5.732 -0.0411 -0.2888  0.5659
   26CHL1   C18 3057   0.814   5.538   5.733  0.5131 -0.2042  0.2683
   26CHL1  H18A 3058   0.872   5.630   5.712 -1.7482  0.5350 -3.6839
   26CHL1  H18B 3059   0.744   5.531   5.647  0.4335 -2.0729  0.4444
   26CHL1  H18C 3060   0.752   5.538   5.825 -3.1641  3.4252 -1.9111
   26CHL1   C12 3061   0.821   5.285   5.767  0.0232  0.4373 -0.3644
   26CHL1  H12A 3062   0.737   5.276   5.695  0.1641  3.3700 -1.0215
   26CHL1  H12B 3063   0.881   5.195   5.741 -2.9990 -1.6540 -0.5518
   26CHL1   C11 3064   0.780   5.281   5.917 -0.3903  0.7720 -0.3627
   26CHL1  H11A 3065   0.691   5.348   5.926  0.0783  1.8454 -2.9140
   26CHL1  H11B 3066   0.740   5.182   5.949  0.2324  1.4670  2.9163
   26CHL1    C9 3067   0.899   5.314   6.022 -0.3055 -0.4169  0.0323
   26CHL1    H9 3068   0.963   5.223   6.016 -0.9828 -0.9370  0.5652
   26CHL1   C10 3069   0.856   5.314   6.170  0.0055  0.1693  0.4039
   26CHL1   C19 3070   0.744   5.419   6.197  0.2825  0.5302 -0.2588
   26CHL1  H19A 3071   0.709   5.413   6.302  0.4179 -0.4528 -0.2618
   26CHL1  H19B 3072   0.769   5.524   6.172 -0.4741  0.3166 -2.0139
   26CHL1  H19C 3073   0.653   5.387   6.141  1.4723 -0.4765 -1.6929
   26CHL1    C1 3074   0.821   5.169   6.216  0.2414  0.4315  0.1145
   26CHL1   H1A 3075   0.725   5.150   6.163  0.5696 -1.0010 -0.0266
   26CHL1   H1B 3076   0.885   5.087   6.177 -0.6480  0.0418 -0.5496
   26CHL1    C2 3077   0.797   5.151   6.366 -1.0375  0.4170  0.7244
   26CHL1   H2A 3078   0.775   5.043   6.380 -0.8448  0.2799  0.0271
   26CHL1   H2B 3079   0.703   5.198   6.403 -1.3588  2.6562 -2.5302
   26CHL1   C20 3080   0.901   5.448   5.467 -0.5828 -0.0869 -0.8017
   26CHL1   H20 3081   0.854   5.548   5.477  1.2578  0.9669 -2.0111
   26CHL1   C21 3082   0.796   5.341   5.431  1.2706  0.0765 -0.3122
   26CHL1  H21A 3083   0.740   5.364   5.338 -1.2398 -2.6348  0.3687
   26CHL1  H21B 3084   0.717   5.331   5.509  1.0623 -1.3859 -0.6805
   26CHL1  H21C 3085   0.839   5.240   5.416 -1.6468 -1.1316 -1.2545
   26CHL1   C22 3086   0.989   5.459   5.334  0.1213 -0.7093  0.3139
   26CHL1  H22A 3087   1.073   5.529   5.353 -0.2239  0.7907 -3.0009
   26CHL1  H22B 3088   1.038   5.361   5.314 -0.7098 -1.0929  0.1189
   26CHL1   C23 3089   0.929   5.520   5.210  0.1761  0.3974 -0.3809
   26CHL1  H23A 3090   1.005   5.522   5.128  0.2543 -1.5998 -0.4102
   26CHL1  H23B 3091   0.843   5.453   5.188 -0.2766  0.1020  2.0179
   26CHL1   C24 3092   0.870   5.662   5.239 -0.6882  0.4270  0.2275
   26CHL1  H24A 3093   0.781   5.647   5.305  0.4084 -2.9750  1.1236
   26CHL1  H24B 3094   0.946   5.715   5.300 -0.8357 -1.6664  2.3611
   26CHL1   C25 3095   0.832   5.738   5.108  0.5432 -0.2247 -0.1422
   26CHL1   H25 3096   0.760   5.672   5.054 -0.1875  1.3677 -1.1986
   26CHL1   C26 3097   0.756   5.867   5.139 -0.6283  0.2203  0.2699
   26CHL1  H26A 3098   0.709   5.920   5.053 -0.9985  0.2770  0.5026
   26CHL1  H26B 3099   0.669   5.844   5.204 -0.7190 -0.8362 -0.1908
   26CHL1  H26C 3100   0.828   5.942   5.178 -1.0176  1.5520 -1.4524
   26CHL1   C27 3101   0.944   5.763   5.013 -0.8451  0.4650  0.1408
   26CHL1  H27A 3102   1.024   5.824   5.060 -1.6490  0.8309  1.0774
   26CHL1  H27B 3103   0.983   5.670   4.966 -0.6743  0.4036  0.4036
   26CHL1  H27C 3104   0.917   5.820   4.921  1.3185 -0.3541 -1.0832
   27CHL1    C3 3105   6.387   3.193   6.429  0.0091 -0.4486  0.4459
   27CHL1    H3 3106   6.340   3.291   6.408 -1.6609 -0.9843  1.5249
   27CHL1    O3 3107   6.370   3.176   6.569 -0.2937  0.4084 -0.5503
   27CHL1   H3' 3108   6.294   3.231   6.590 -2.7287 -1.7138 -3.1154
   27CHL1    C4 3109   6.306   3.088   6.347 -0.4349  0.1837  0.3157
   27CHL1   H4A 3110   6.348   2.988   6.371 -1.0155  0.0820  0.9744
   27CHL1   H4B 3111   6.203   3.096   6.390 -0.8709  0.3806 -0.7224
   27CHL1    C5 3112   6.315   3.111   6.199  0.6526 -0.6809 -0.7137
   27CHL1    C6 3113   6.206   3.133   6.131 -0.0250 -0.5505 -0.1364
   27CHL1    H6 3114   6.110   3.119   6.182 -0.6090  0.0409 -1.0446
   27CHL1    C7 3115   6.224   3.148   5.981 -0.0709 -0.1008 -0.3798
   27CHL1   H7A 3116   6.153   3.094   5.915 -0.7837 -2.2612  1.9867
   27CHL1   H7B 3117   6.187   3.251   5.962 -0.3733 -0.0363  0.5222
   27CHL1    C8 3118   6.362   3.124   5.923  0.0099 -0.1805 -0.7590
   27CHL1    H8 3119   6.380   3.014   5.925  0.8888 -0.0489  1.5844
   27CHL1   C14 3120   6.376   3.180   5.785  1.1319 -0.3891 -0.1777
   27CHL1   H14 3121   6.363   3.289   5.803  0.5585 -0.2058 -1.5988
   27CHL1   C15 3122   6.271   3.144   5.677  0.2424  0.7848  0.8365
   27CHL1  H15A 3123   6.256   3.034   5.679 -2.3677  0.9891 -0.9911
   27CHL1  H15B 3124   6.169   3.188   5.683  0.6088  1.8590 -0.2854
   27CHL1   C16 3125   6.325   3.188   5.549  0.5667 -0.8671 -0.3060
   27CHL1  H16A 3126   6.331   3.114   5.466  1.0401 -0.4491 -0.6543
   27CHL1  H16B 3127   6.268   3.270   5.502  0.5119 -0.5888  0.2416
   27CHL1   C17 3128   6.473   3.242   5.573 -0.4064 -0.2997  0.1142
   27CHL1   H17 3129   6.461   3.351   5.591  0.8002 -0.5278  2.7575
   27CHL1   C13 3130   6.509   3.175   5.710  0.2210 -0.2063 -0.5477
   27CHL1   C18 3131   6.545   3.030   5.699 -0.4555  0.0582 -0.2272
   27CHL1  H18A 3132   6.470   2.977   5.637 -0.4260 -0.9288  0.5522
   27CHL1  H18B 3133   6.640   3.017   5.643 -1.5548 -1.2899 -1.8642
   27CHL1  H18C 3134   6.547   2.974   5.795  2.0976  0.8096  0.2339
   27CHL1   C12 3135   6.606   3.254   5.797  0.1257  0.6112  0.4611
   27CHL1  H12A 3136   6.711   3.250   5.760  0.3237 -1.5579  1.0971
   27CHL1  H12B 3137   6.588   3.363   5.788 -0.3146  0.4385 -1.0056
   27CHL1   C11 3138   6.610   3.206   5.941 -0.5038 -0.2536 -0.0865
   27CHL1  H11A 3139   6.664   3.109   5.948  2.6029  1.3298  0.1429
   27CHL1  H11B 3140   6.670   3.278   6.002 -1.8127  1.1162 -0.3589
   27CHL1    C9 3141   6.467   3.187   6.007  0.7812  0.5746  0.1541
   27CHL1    H9 3142   6.433   3.291   6.028 -1.7512 -0.3690  1.1470
   27CHL1   C10 3143   6.464   3.121   6.146 -0.2111  0.4872  0.4286
   27CHL1   C19 3144   6.532   2.983   6.155 -0.1671 -0.7355 -0.0572
   27CHL1  H19A 3145   6.637   3.002   6.125 -0.1938 -1.0357 -0.3454
   27CHL1  H19B 3146   6.547   2.948   6.260  1.8639  1.3113  0.3976
   27CHL1  H19C 3147   6.480   2.916   6.083 -0.1724  1.8029 -2.5639
   27CHL1    C1 3148   6.551   3.212   6.241  0.1135 -0.4322 -0.5567
   27CHL1   H1A 3149   6.657   3.196   6.212  0.5572  2.7291 -0.9864
   27CHL1   H1B 3150   6.528   3.319   6.222  1.3987 -0.0702 -0.1655
   27CHL1    C2 3151   6.531   3.193   6.393 -0.4198 -0.3193  0.3126
   27CHL1   H2A 3152   6.592   3.269   6.446  1.3345 -1.5151  0.0753
   27CHL1   H2B 3153   6.578   3.099   6.425  2.0902 -0.0574 -2.2070
   27CHL1   C20 3154   6.567   3.224   5.450 -0.2095 -0.0932  0.7434
   27CHL1   H20 3155   6.581   3.115   5.434 -1.1161 -0.3169  1.4084
   27CHL1   C21 3156   6.699   3.290   5.486 -0.1823  0.0743  0.4809
   27CHL1  H21A 3157   6.769   3.283   5.400 -1.4510 -0.1504 -0.5663
   27CHL1  H21B 3158   6.746   3.235   5.570 -0.8322  0.9318  1.4258
   27CHL1  H21C 3159   6.679   3.395   5.518 -1.8251 -0.0505 -0.0581
   27CHL1   C22 3160   6.507   3.292   5.320  0.3776 -0.5125  0.2384
   27CHL1  H22A 3161   6.407   3.248   5.302  0.0134  0.0768  0.7864
   27CHL1  H22B 3162   6.492   3.400   5.340  0.2574  0.2295 -3.2673
   27CHL1   C23 3163   6.589   3.273   5.193  0.9544 -0.3893 -0.6751
   27CHL1  H23A 3164   6.673   3.346   5.201 -1.1244  1.9289  2.2838
   27CHL1  H23B 3165   6.637   3.173   5.187 -0.7149 -1.5062  2.2456
   27CHL1   C24 3166   6.512   3.284   5.057 -0.0779  0.2804  0.4450
   27CHL1  H24A 3167   6.426   3.214   5.050  0.4097 -0.3125  0.3763
   27CHL1  H24B 3168   6.474   3.388   5.041 -0.1501  0.3124  0.8163
   27CHL1   C25 3169   6.609   3.263   4.933 -0.5081 -0.9533 -0.0480
   27CHL1   H25 3170   6.691   3.338   4.941 -2.0884  0.8996 -0.3241
   27CHL1   C26 3171   6.677   3.125   4.938 -0.0934  0.1032  0.5365
   27CHL1  H26A 3172   6.743   3.103   5.024 -0.8040  0.0203  1.0752
   27CHL1  H26B 3173   6.598   3.047   4.938  0.5739 -0.6470 -1.8789
   27CHL1  H26C 3174   6.740   3.110   4.848 -3.1274  0.9219 -1.9378
   27CHL1   C27 3175   6.539   3.309   4.797  0.1099  0.6894 -0.5910
   27CHL1  H27A 3176   6.454   3.240   4.778  1.2351 -1.0673  0.4734
   27CHL1  H27B 3177   6.611   3.313   4.713 -1.0672  2.1130 -1.5795
   27CHL1  H27C 3178   6.497   3.410   4.811  1.3962  1.0351  1.0992
   28CHL1    C3 3179   6.762   2.515   6.352 -0.4513 -0.8250  0.3339
   28CHL1    H3 3180   6.853   2.452   6.343 -0.5357 -0.9306  0.2088
   28CHL1    O3 3181   6.737   2.563   6.484 -0.6008  0.5205  0.0513
   28CHL1   H3' 3182   6.663   2.623   6.473 -0.5424  0.8756  1.3903
   28CHL1    C4 3183   6.789   2.642   6.260 -0.1877 -0.2700  0.1791
   28CHL1   H4A 3184   6.704   2.712   6.265 -0.0661  0.1382 -2.2964
   28CHL1   H4B 3185   6.869   2.698   6.313 -0.5712  1.8501 -1.3792
   28CHL1    C5 3186   6.807   2.610   6.115 -0.2196  0.2856 -0.4600
   28CHL1    C6 3187   6.915   2.649   6.051 -0.0263 -0.6878  0.5488
   28CHL1    H6 3188   6.986   2.715   6.104  1.5935 -2.4112  0.6210
   28CHL1    C7 3189   6.942   2.622   5.910 -1.0607  0.1559  0.2798
   28CHL1   H7A 3190   6.979   2.718   5.868 -1.2315  1.0115  2.0172
   28CHL1   H7B 3191   7.030   2.556   5.900  0.1437  1.8336 -0.7248
   28CHL1    C8 3192   6.814   2.578   5.829 -0.5096  0.9100  0.1680
   28CHL1    H8 3193   6.747   2.665   5.814 -1.3872  0.9847  3.5243
   28CHL1   C14 3194   6.851   2.528   5.697 -0.5745  0.0462  0.4304
   28CHL1   H14 3195   6.903   2.432   5.714  0.9753  1.2517  3.1787
   28CHL1   C15 3196   6.938   2.620   5.607 -0.3875 -0.8015 -0.0265
   28CHL1  H15A 3197   6.905   2.725   5.597  3.1383  0.5460  0.8772
   28CHL1  H15B 3198   7.043   2.627   5.644  0.4793 -1.1014 -2.2679
   28CHL1   C16 3199   6.936   2.554   5.467 -0.2866 -0.9240  0.7396
   28CHL1  H16A 3200   6.903   2.634   5.397  2.6221  0.0728  0.3638
   28CHL1  H16B 3201   7.034   2.507   5.447 -0.5273 -0.5763 -1.5743
   28CHL1   C17 3202   6.818   2.449   5.477  0.1882  0.4169  0.7310
   28CHL1   H17 3203   6.865   2.349   5.493 -0.9966  0.0344  2.0261
   28CHL1   C13 3204   6.739   2.478   5.606 -0.3840 -0.4341  0.6316
   28CHL1   C18 3205   6.642   2.595   5.574  1.0384 -0.0128 -0.4780
   28CHL1  H18A 3206   6.579   2.619   5.662  1.4676  0.0832 -0.1957
   28CHL1  H18B 3207   6.693   2.690   5.549 -0.9311  0.9805 -0.9638
   28CHL1  H18C 3208   6.569   2.572   5.493  0.4209 -0.4803  0.1886
   28CHL1   C12 3209   6.673   2.363   5.687 -0.0928  0.3863  0.6426
   28CHL1  H12A 3210   6.581   2.331   5.633  0.0817 -0.0567  0.6033
   28CHL1  H12B 3211   6.740   2.275   5.696  1.0951  1.4551  3.4007
   28CHL1   C11 3212   6.625   2.403   5.827 -0.2107  0.3006  0.6425
   28CHL1  H11A 3213   6.544   2.478   5.816 -0.4345  0.0040  0.2331
   28CHL1  H11B 3214   6.580   2.320   5.885 -0.4165  0.8196  1.2309
   28CHL1    C9 3215   6.735   2.471   5.909  0.2305  0.4810 -0.0127
   28CHL1    H9 3216   6.806   2.387   5.919 -0.4199 -0.1227 -0.4099
   28CHL1   C10 3217   6.704   2.511   6.055 -0.4542 -1.5575 -0.7211
   28CHL1   C19 3218   6.577   2.594   6.043  0.2383 -0.2322  0.3756
   28CHL1  H19A 3219   6.495   2.519   6.038  0.1715 -0.0703 -1.7800
   28CHL1  H19B 3220   6.560   2.665   6.127 -1.5365 -0.0597 -0.1005
   28CHL1  H19C 3221   6.570   2.636   5.941 -1.5853  0.3215  0.6924
   28CHL1    C1 3222   6.674   2.394   6.150 -0.3306 -0.3199 -0.3810
   28CHL1   H1A 3223   6.575   2.348   6.126 -0.9892  0.8606 -0.0055
   28CHL1   H1B 3224   6.752   2.315   6.149 -0.2953 -0.2885 -0.1527
   28CHL1    C2 3225   6.648   2.441   6.296 -0.0495  0.5351  0.4734
   28CHL1   H2A 3226   6.626   2.350   6.356 -2.0118 -1.4162 -2.8805
   28CHL1   H2B 3227   6.556   2.502   6.301 -0.7249 -0.3409 -0.7138
   28CHL1   C20 3228   6.742   2.431   5.347 -0.0787 -0.0148 -0.1910
   28CHL1   H20 3229   6.700   2.532   5.326 -1.4650 -0.3679  0.7204
   28CHL1   C21 3230   6.626   2.325   5.353 -0.7588  0.0074 -0.0884
   28CHL1  H21A 3231   6.587   2.317   5.249 -1.3912  1.0361  0.0616
   28CHL1  H21B 3232   6.543   2.360   5.417  0.7514  2.9538  0.4330
   28CHL1  H21C 3233   6.669   2.232   5.395  0.7126  0.1219 -1.2485
   28CHL1   C22 3234   6.830   2.398   5.227 -0.0458 -0.1439  0.2311
   28CHL1  H22A 3235   6.922   2.459   5.231  0.9947 -1.7086  1.2011
   28CHL1  H22B 3236   6.866   2.294   5.239 -1.1190 -0.6417 -0.6481
   28CHL1   C23 3237   6.772   2.417   5.084 -0.3030 -0.0431 -0.5591
   28CHL1  H23A 3238   6.664   2.391   5.076 -0.1078 -1.3114  0.5247
   28CHL1  H23B 3239   6.784   2.523   5.056  0.1250  0.4100  1.1898
   28CHL1   C24 3240   6.849   2.329   4.980  0.3491 -0.5315  0.5079
   28CHL1  H24A 3241   6.820   2.364   4.879  1.0676  2.0373  1.0953
   28CHL1  H24B 3242   6.954   2.361   4.999  0.4076  0.2814 -1.0355
   28CHL1   C25 3243   6.819   2.184   4.982  0.3789  0.0057 -0.4978
   28CHL1   H25 3244   6.846   2.139   5.080 -0.7704 -1.0688 -0.6561
   28CHL1   C26 3245   6.671   2.142   4.964 -0.3797 -0.3484  0.4033
   28CHL1  H26A 3246   6.609   2.181   5.048 -0.9239 -0.9174  0.2666
   28CHL1  H26B 3247   6.626   2.184   4.872 -0.6253  3.2893  1.9816
   28CHL1  H26C 3248   6.665   2.031   4.971 -3.2039 -0.1870  2.0481
   28CHL1   C27 3249   6.897   2.100   4.873 -0.5704  0.9867 -0.0022
   28CHL1  H27A 3250   6.859   2.123   4.771 -1.5279  1.0231  0.3452
   28CHL1  H27B 3251   7.002   2.134   4.874 -0.3301  0.6414 -3.1668
   28CHL1  H27C 3252   6.876   1.994   4.898  0.5115  1.0221  1.1581
   29CHL1    C3 3253   6.035   6.580   6.480  0.3979 -0.2952  0.1524
   29CHL1    H3 3254   5.943   6.521   6.502  0.1860  0.7312  2.1733
   29CHL1    O3 3255   6.060   6.662   6.589  0.2106 -0.4547  0.2967
   29CHL1   H3' 3256   6.070   6.602   6.664 -0.5938  1.8152  2.3345
   29CHL1    C4 3257   6.155   6.489   6.465 -0.6926 -0.0493 -0.0080
   29CHL1   H4A 3258   6.251   6.538   6.438 -0.8577 -0.9360 -2.4254
   29CHL1   H4B 3259   6.166   6.427   6.556  0.4833 -0.7379 -0.6020
   29CHL1    C5 3260   6.139   6.404   6.346 -0.3456  0.4075 -0.8508
   29CHL1    C6 3261   6.135   6.269   6.355  0.6934  0.4209 -0.5168
   29CHL1    H6 3262   6.137   6.208   6.446 -2.9102 -0.7829 -1.0691
   29CHL1    C7 3263   6.116   6.182   6.235 -0.1000  0.3646 -0.2105
   29CHL1   H7A 3264   6.191   6.101   6.244  0.6421  0.8012 -1.9993
   29CHL1   H7B 3265   6.018   6.129   6.241 -0.5489  1.1505 -0.3626
   29CHL1    C8 3266   6.131   6.250   6.096  1.0643 -0.2854  0.1895
   29CHL1    H8 3267   6.240   6.258   6.079  1.2995 -0.2186  1.6057
   29CHL1   C14 3268   6.056   6.159   5.997 -0.5882 -0.6244  0.5219
   29CHL1   H14 3269   5.953   6.145   6.034 -0.2089 -0.9814  1.4748
   29CHL1   C15 3270   6.103   6.014   5.988  0.9116 -0.6499  0.3840
   29CHL1  H15A 3271   6.214   6.011   5.980  1.1410 -0.1898  2.7153
   29CHL1  H15B 3272   6.079   5.959   6.081  0.4832  2.1299  2.0401
   29CHL1   C16 3273   6.044   5.968   5.856 -0.6899 -0.4058  0.2115
   29CHL1  H16A 3274   6.131   5.935   5.795  0.0259  0.7959  0.5488
   29CHL1  H16B 3275   5.987   5.873   5.869  1.2292 -1.8360 -1.2920
   29CHL1   C17 3276   5.971   6.088   5.787  0.0007 -0.5942 -0.2752
   29CHL1   H17 3277   5.870   6.095   5.832  0.2706  2.7516  0.0667
   29CHL1   C13 3278   6.041   6.206   5.850 -1.1957  0.5838  0.1164
   29CHL1   C18 3279   6.184   6.211   5.787 -0.5552  0.2382 -0.2370
   29CHL1  H18A 3280   6.244   6.286   5.844  0.2820  0.5408 -1.4776
   29CHL1  H18B 3281   6.248   6.122   5.775  0.4871  0.9515 -0.1239
   29CHL1  H18C 3282   6.170   6.252   5.685  1.0924  0.6686 -0.3250
   29CHL1   C12 3283   5.973   6.340   5.859  0.2025 -0.5978  0.6792
   29CHL1  H12A 3284   5.974   6.376   5.754  0.0568  0.8025  1.1495
   29CHL1  H12B 3285   5.873   6.310   5.897 -0.0176 -0.7665 -0.0232
   29CHL1   C11 3286   6.036   6.443   5.959 -0.2865  0.0850  0.8657
   29CHL1  H11A 3287   6.140   6.463   5.926 -0.0664 -1.0690  0.7945
   29CHL1  H11B 3288   5.979   6.538   5.967  0.5139  0.8447 -1.5338
   29CHL1    C9 3289   6.060   6.384   6.101  0.0969  0.3398 -0.3814
   29CHL1    H9 3290   5.955   6.367   6.133  0.3407  1.2753  1.0413
   29CHL1   C10 3291   6.108   6.478   6.208  0.4918 -0.7207  0.0658
   29CHL1   C19 3292   6.243   6.531   6.166  0.1585  0.5604  0.7495
   29CHL1  H19A 3293   6.265   6.609   6.242 -1.3885  1.0130  0.7642
   29CHL1  H19B 3294   6.317   6.449   6.150  1.9605  1.9431  1.5975
   29CHL1  H19C 3295   6.232   6.590   6.072 -1.6696  2.0420  1.8378
   29CHL1    C1 3296   6.002   6.596   6.224  0.8659 -1.0018  0.0226
   29CHL1   H1A 3297   5.984   6.658   6.134  0.3117 -1.1684  0.0094
   29CHL1   H1B 3298   5.903   6.551   6.246 -1.4896  2.4316 -2.5203
   29CHL1    C2 3299   6.018   6.676   6.359 -0.3391  0.1634 -0.3930
   29CHL1   H2A 3300   5.930   6.743   6.370 -0.0084  0.6717 -0.7998
   29CHL1   H2B 3301   6.102   6.748   6.366 -0.0326 -0.3418  2.9037
   29CHL1   C20 3302   5.949   6.085   5.635 -0.6377  0.4184 -0.1693
   29CHL1   H20 3303   6.040   6.127   5.588 -1.0603  0.3851 -1.0440
   29CHL1   C21 3304   5.834   6.183   5.600 -0.1114 -0.2275 -0.3818
   29CHL1  H21A 3305   5.849   6.289   5.631 -0.7488 -0.0923 -0.5187
   29CHL1  H21B 3306   5.743   6.150   5.656 -1.0802  1.6264 -0.7751
   29CHL1  H21C 3307   5.801   6.183   5.494  0.3527  0.0118 -0.5269
   29CHL1   C22 3308   5.927   5.950   5.570 -0.7445  0.3391 -0.1856
   29CHL1  H22A 3309   6.023   5.896   5.579 -0.8419  0.2230  0.1838
   29CHL1  H22B 3310   5.862   5.877   5.623  0.9255 -0.0882  1.3887
   29CHL1   C23 3311   5.902   5.958   5.421 -0.2897  0.1516 -0.5504
   29CHL1  H23A 3312   5.812   6.016   5.393  0.4556  1.8428  0.3931
   29CHL1  H23B 3313   5.995   6.007   5.386  1.1013 -0.6943  1.6812
   29CHL1   C24 3314   5.896   5.821   5.352 -0.4763  0.0874  0.1247
   29CHL1  H24A 3315   5.990   5.767   5.374 -0.0009  0.7442 -0.2535
   29CHL1  H24B 3316   5.814   5.760   5.396  0.4773 -1.2681  0.0948
   29CHL1   C25 3317   5.879   5.817   5.203  0.2237 -0.0368  0.7436
   29CHL1   H25 3318   5.802   5.891   5.171 -0.4558 -0.7003  0.8044
   29CHL1   C26 3319   6.011   5.860   5.135 -0.6851 -0.1766  0.0199
   29CHL1  H26A 3320   6.026   5.969   5.146  3.5363 -0.6886  1.2065
   29CHL1  H26B 3321   6.090   5.796   5.180 -2.2035 -2.8792 -0.9175
   29CHL1  H26C 3322   6.013   5.827   5.029  0.8293  1.4833 -0.5158
   29CHL1   C27 3323   5.843   5.677   5.168  0.0280  0.3304  0.1531
   29CHL1  H27A 3324   5.757   5.652   5.234  0.9558 -0.8786  0.9296
   29CHL1  H27B 3325   5.806   5.664   5.064  3.0896  0.4160 -1.0438
   29CHL1  H27C 3326   5.922   5.600   5.174  1.0258  1.0413 -2.3491
   30CHL1    C3 3327   2.041   6.300   7.068  0.0518 -0.0483  0.6224
   30CHL1    H3 3328   2.082   6.399   7.040  0.3804  0.0078  1.2697
   30CHL1    O3 3329   1.959   6.313   7.181  0.2370  0.5332 -0.0164
   30CHL1   H3' 3330   1.877   6.355   7.154  0.2721  1.6698  1.5413
   30CHL1    C4 3331   1.953   6.256   6.949 -0.3753 -0.5860  0.1789
   30CHL1   H4A 3332   1.891   6.169   6.981  1.2309 -1.5756  0.7090
   30CHL1   H4B 3333   1.893   6.348   6.931  0.3663 -0.0031  0.6545
   30CHL1    C5 3334   2.035   6.225   6.824 -0.6937  0.3338  0.0348
   30CHL1    C6 3335   1.994   6.277   6.708  0.3454 -0.1491 -0.0734
   30CHL1    H6 3336   1.894   6.323   6.702 -0.7445 -2.3871 -0.1971
   30CHL1    C7 3337   2.058   6.277   6.574  0.1103 -0.1140  0.2967
   30CHL1   H7A 3338   1.977   6.269   6.498 -0.0407  1.7550  0.2198
   30CHL1   H7B 3339   2.105   6.373   6.546 -2.9427  0.8569 -2.1495
   30CHL1    C8 3340   2.168   6.166   6.576 -0.4833  0.4696  0.0648
   30CHL1    H8 3341   2.122   6.065   6.568 -4.0052  1.9651  0.0062
   30CHL1   C14 3342   2.261   6.180   6.458 -0.1049 -0.2609 -0.4688
   30CHL1   H14 3343   2.310   6.280   6.463  1.7794 -1.1450 -0.3587
   30CHL1   C15 3344   2.205   6.186   6.311 -0.0359 -0.2030  0.1186
   30CHL1  H15A 3345   2.144   6.094   6.301  0.3908 -0.8158  2.5546
   30CHL1  H15B 3346   2.148   6.279   6.290 -1.6404 -1.3543 -0.8405
   30CHL1   C16 3347   2.334   6.179   6.223 -0.3135 -0.0463  0.0761
   30CHL1  H16A 3348   2.325   6.104   6.141 -3.0812 -1.1885  1.2825
   30CHL1  H16B 3349   2.357   6.277   6.177 -1.1476 -0.4393 -1.2335
   30CHL1   C17 3350   2.451   6.137   6.320 -0.4858 -0.0585 -0.1351
   30CHL1   H17 3351   2.494   6.237   6.341 -0.8885  0.2117 -0.5899
   30CHL1   C13 3352   2.386   6.087   6.450  0.1231 -0.1573  0.1039
   30CHL1   C18 3353   2.344   5.940   6.437  0.5165 -0.6531 -0.1382
   30CHL1  H18A 3354   2.437   5.879   6.442  0.8034 -0.1690  3.3650
   30CHL1  H18B 3355   2.273   5.910   6.517 -0.2752  1.3623 -0.0161
   30CHL1  H18C 3356   2.280   5.921   6.349 -1.5208  0.3033  1.0398
   30CHL1   C12 3357   2.466   6.113   6.579  0.6421  0.4784 -0.2212
   30CHL1  H12A 3358   2.558   6.051   6.582 -1.2030 -2.4711  0.7675
   30CHL1  H12B 3359   2.489   6.221   6.592 -1.3065  0.9142 -0.0805
   30CHL1   C11 3360   2.383   6.085   6.702  0.0412  0.3342 -0.2588
   30CHL1  H11A 3361   2.352   5.978   6.704  1.0060  0.0445 -0.3354
   30CHL1  H11B 3362   2.440   6.104   6.795  0.2720 -2.2627  0.2182
   30CHL1    C9 3363   2.260   6.176   6.704  0.2570  0.5647  0.0692
   30CHL1    H9 3364   2.281   6.284   6.719  0.1983  0.5307  0.3918
   30CHL1   C10 3365   2.169   6.150   6.831 -0.5876  0.2823 -0.3626
   30CHL1   C19 3366   2.131   5.999   6.854 -0.1272  0.3007  0.4257
   30CHL1  H19A 3367   2.061   5.973   6.936  0.1447 -0.3785  0.4455
   30CHL1  H19B 3368   2.093   5.952   6.762  1.2764 -1.9993  0.9447
   30CHL1  H19C 3369   2.225   5.947   6.881  0.2765  1.2675  0.9598
   30CHL1    C1 3370   2.248   6.190   6.956 -0.4389  0.3249  0.9982
   30CHL1   H1A 3371   2.332   6.122   6.982 -0.8884 -0.2627  0.9454
   30CHL1   H1B 3372   2.281   6.293   6.933 -1.1471  0.0125 -1.8107
   30CHL1    C2 3373   2.161   6.205   7.088  0.3540 -0.7213  0.1046
   30CHL1   H2A 3374   2.233   6.242   7.164  0.3454 -0.3711 -0.0561
   30CHL1   H2B 3375   2.131   6.107   7.131 -0.5953 -0.3815  0.2467
   30CHL1   C20 3376   2.568   6.056   6.252  0.9206 -0.1076 -0.1430
   30CHL1   H20 3377   2.525   5.964   6.208  1.2313 -1.1563  1.6387
   30CHL1   C21 3378   2.680   6.016   6.342 -0.0256 -0.0634 -0.2978
   30CHL1  H21A 3379   2.756   5.952   6.292 -0.2250  0.4378 -1.2802
   30CHL1  H21B 3380   2.630   5.952   6.418 -0.6539 -1.0651 -1.5168
   30CHL1  H21C 3381   2.718   6.114   6.378 -1.8417  0.1340  1.2152
   30CHL1   C22 3382   2.627   6.128   6.129  0.0139  0.2366 -0.1931
   30CHL1  H22A 3383   2.556   6.198   6.080 -0.8848  0.8341  1.8675
   30CHL1  H22B 3384   2.702   6.204   6.160  0.6380  0.8524 -2.9439
   30CHL1   C23 3385   2.703   6.033   6.026 -0.4563 -0.9990 -0.5387
   30CHL1  H23A 3386   2.759   6.102   5.958 -2.6873  1.5222 -0.0257
   30CHL1  H23B 3387   2.774   5.970   6.082  0.4095 -0.0396 -0.5326
   30CHL1   C24 3388   2.619   5.942   5.947  0.5104 -0.3911 -0.1326
   30CHL1  H24A 3389   2.568   5.876   6.021 -0.4265  0.1648 -0.2687
   30CHL1  H24B 3390   2.543   5.993   5.885  1.9271 -0.1996 -1.7765
   30CHL1   C25 3391   2.680   5.846   5.850  0.1825  0.3403  0.2193
   30CHL1   H25 3392   2.760   5.787   5.899 -0.5674 -0.7325  0.1885
   30CHL1   C26 3393   2.561   5.760   5.793 -0.0482 -0.2801  0.1787
   30CHL1  H26A 3394   2.497   5.830   5.736 -0.6242  0.2273  1.4149
   30CHL1  H26B 3395   2.606   5.688   5.721  0.8141 -0.3450  0.7596
   30CHL1  H26C 3396   2.505   5.702   5.870  0.0301 -0.5276  0.0503
   30CHL1   C27 3397   2.754   5.907   5.736 -0.1446 -0.0507  0.3617
   30CHL1  H27A 3398   2.835   5.978   5.765 -0.4234  0.1798  0.5904
   30CHL1  H27B 3399   2.808   5.847   5.659  1.7122  0.3869  1.2646
   30CHL1  H27C 3400   2.681   5.977   5.689  1.3046  1.2316 -0.0652
   31CHL1    C3 3401   6.492   5.098   6.401  0.2424  0.3701  0.3696
   31CHL1    H3 3402   6.476   5.208   6.409 -2.6387  0.1776 -1.1624
   31CHL1    O3 3403   6.489   5.042   6.532  0.7425 -0.3174 -0.2484
   31CHL1   H3' 3404   6.460   4.951   6.522  0.5698 -0.2013 -0.8569
   31CHL1    C4 3405   6.377   5.034   6.320 -0.0461 -0.2354  0.2174
   31CHL1   H4A 3406   6.371   4.923   6.330  0.4889 -0.3659 -0.8238
   31CHL1   H4B 3407   6.281   5.072   6.362  0.9554  0.8349  1.6235
   31CHL1    C5 3408   6.376   5.058   6.162  0.2848  0.2983  0.4512
   31CHL1    C6 3409   6.268   5.100   6.090  0.0789  0.6360  0.3800
   31CHL1    H6 3410   6.170   5.100   6.139 -0.9684 -0.1671 -1.6348
   31CHL1    C7 3411   6.269   5.099   5.938 -0.2168 -0.5205 -0.1096
   31CHL1   H7A 3412   6.178   5.043   5.909 -2.2099  2.0145  0.7786
   31CHL1   H7B 3413   6.266   5.201   5.894 -2.2171 -1.3044 -1.9583
   31CHL1    C8 3414   6.401   5.035   5.874 -0.3745 -0.3480 -0.1908
   31CHL1    H8 3415   6.379   4.926   5.874 -5.0518  0.3480  1.2655
   31CHL1   C14 3416   6.419   5.085   5.732  0.0090 -0.8937  0.3929
   31CHL1   H14 3417   6.424   5.196   5.737 -0.4923 -0.7342 -1.6982
   31CHL1   C15 3418   6.291   5.081   5.641 -0.3313  0.2280 -0.3632
   31CHL1  H15A 3419   6.242   4.982   5.634 -0.8727  0.5043 -0.5646
   31CHL1  H15B 3420   6.209   5.153   5.663 -0.2896  1.0013 -2.4131
   31CHL1   C16 3421   6.351   5.107   5.505 -0.8606  0.0543  0.2960
   31CHL1  H16A 3422   6.313   5.030   5.435 -0.3539  0.4579 -0.4373
   31CHL1  H16B 3423   6.311   5.199   5.458  0.1253 -0.0428 -0.7885
   31CHL1   C17 3424   6.509   5.094   5.518  0.7654 -0.7373  0.0454
   31CHL1   H17 3425   6.543   5.200   5.517 -0.5157 -0.3007 -1.6685
   31CHL1   C13 3426   6.533   5.029   5.653  0.3653 -0.1368  0.2522
   31CHL1   C18 3427   6.502   4.877   5.649  0.7063 -0.2639 -0.0799
   31CHL1  H18A 3428   6.583   4.824   5.594  0.7224 -0.0344 -0.2827
   31CHL1  H18B 3429   6.509   4.832   5.750  0.1420  0.7266  0.4176
   31CHL1  H18C 3430   6.405   4.850   5.602  2.2431 -2.8734 -2.0565
   31CHL1   C12 3431   6.667   5.064   5.733  0.0593  0.5380 -0.0362
   31CHL1  H12A 3432   6.757   5.018   5.687  0.6885  2.3475 -0.7165
   31CHL1  H12B 3433   6.684   5.174   5.727  3.0501  0.1374 -0.0271
   31CHL1   C11 3434   6.654   5.015   5.882 -0.4866 -0.0384  0.3924
   31CHL1  H11A 3435   6.657   4.904   5.879 -0.7512 -0.0309 -2.3147
   31CHL1  H11B 3436   6.750   5.048   5.927 -0.6869  1.3999 -0.1669
   31CHL1    C9 3437   6.534   5.070   5.957  0.0367  0.7443  0.1604
   31CHL1    H9 3438   6.548   5.180   5.962  3.4729  0.4051  0.8192
   31CHL1   C10 3439   6.514   5.025   6.103 -0.1755 -0.5519  0.1650
   31CHL1   C19 3440   6.525   4.871   6.109  0.5968 -0.4627  0.3821
   31CHL1  H19A 3441   6.491   4.813   6.198 -0.4114 -2.3823 -1.1668
   31CHL1  H19B 3442   6.462   4.823   6.031  2.4709 -1.1332 -0.7973
   31CHL1  H19C 3443   6.630   4.842   6.086  0.6836 -0.2050  0.4479
   31CHL1    C1 3444   6.624   5.103   6.183  0.5727 -0.3090  0.4000
   31CHL1   H1A 3445   6.718   5.074   6.132 -0.2219  0.5812 -1.6851
   31CHL1   H1B 3446   6.619   5.213   6.170 -1.0187 -0.3623  0.3478
   31CHL1    C2 3447   6.627   5.075   6.334  0.5906  0.2464  0.1794
   31CHL1   H2A 3448   6.704   5.146   6.372  2.3966 -0.6260 -1.6747
   31CHL1   H2B 3449   6.669   4.973   6.345 -1.8087 -0.9913 -1.3110
   31CHL1   C20 3450   6.573   5.026   5.402 -0.3380  0.3127  0.4429
   31CHL1   H20 3451   6.516   4.931   5.389 -0.2916 -0.0025  2.2396
   31CHL1   C21 3452   6.723   4.996   5.414  0.4523 -0.0497  0.6827
   31CHL1  H21A 3453   6.782   5.091   5.409 -2.5445  1.8869 -1.0607
   31CHL1  H21B 3454   6.750   4.944   5.320 -0.5243 -0.2279  0.4983
   31CHL1  H21C 3455   6.745   4.937   5.505 -1.6689 -1.6052  0.2542
   31CHL1   C22 3456   6.564   5.100   5.270 -0.2255 -1.3641 -0.1301
   31CHL1  H22A 3457   6.477   5.169   5.268  1.0453  0.2849 -0.4406
   31CHL1  H22B 3458   6.648   5.171   5.255 -1.8598  0.2806 -2.1603
   31CHL1   C23 3459   6.542   5.003   5.150  0.0864  0.8720  0.0020
   31CHL1  H23A 3460   6.618   4.923   5.138 -2.2253 -1.5386  0.4086
   31CHL1  H23B 3461   6.449   4.943   5.160  1.8659 -1.9168  1.1255
   31CHL1   C24 3462   6.534   5.084   5.019  0.8687  0.1597 -0.1916
   31CHL1  H24A 3463   6.452   5.158   5.022  0.7407  0.1022 -1.5148
   31CHL1  H24B 3464   6.621   5.152   5.015  0.2487  0.9110 -1.4229
   31CHL1   C25 3465   6.512   4.995   4.900  0.0369  0.6464  0.5060
   31CHL1   H25 3466   6.448   4.909   4.928 -1.0122  0.8578 -1.1127
   31CHL1   C26 3467   6.432   5.069   4.786 -0.1748 -0.6910 -0.2129
   31CHL1  H26A 3468   6.473   5.172   4.775 -0.0879 -0.4432  2.0119
   31CHL1  H26B 3469   6.435   5.015   4.689  1.3836 -0.7466 -0.1525
   31CHL1  H26C 3470   6.323   5.079   4.806 -0.0832 -0.4988  0.2040
   31CHL1   C27 3471   6.647   4.941   4.847 -0.2005 -0.4061 -0.6431
   31CHL1  H27A 3472   6.624   4.856   4.779 -0.9573 -0.0379 -0.8642
   31CHL1  H27B 3473   6.694   5.025   4.790 -0.1950 -1.0011 -1.5395
   31CHL1  H27C 3474   6.711   4.915   4.933  0.5519  1.6552 -0.5194
   32CHL1    C3 3475   2.089   3.355   6.308 -0.1768 -0.1351  0.0595
   32CHL1    H3 3476   2.179   3.307   6.264  0.6191  1.3985 -0.0750
   32CHL1    O3 3477   2.107   3.349   6.450  0.8697 -0.3020 -0.9097
   32CHL1   H3' 3478   2.024   3.390   6.476 -0.4466 -1.9449 -2.3100
   32CHL1    C4 3479   2.101   3.496   6.258  0.1831 -0.0644  0.1325
   32CHL1   H4A 3480   2.041   3.576   6.307 -0.4616  1.2781 -2.6322
   32CHL1   H4B 3481   2.206   3.523   6.281 -0.1019  1.1381  0.1029
   32CHL1    C5 3482   2.070   3.503   6.105 -0.4663 -0.4956 -0.2493
   32CHL1    C6 3483   2.162   3.561   6.028 -0.0830  0.1628  0.3445
   32CHL1    H6 3484   2.253   3.604   6.073 -0.0837 -1.2591  1.8413
   32CHL1    C7 3485   2.150   3.565   5.878  0.1658 -0.7928  0.4115
   32CHL1   H7A 3486   2.154   3.674   5.857 -1.3545 -0.9004 -0.5329
   32CHL1   H7B 3487   2.236   3.516   5.827 -0.4459 -0.9149 -0.5345
   32CHL1    C8 3488   2.007   3.515   5.825  0.3234  0.0321 -0.3205
   32CHL1    H8 3489   1.928   3.593   5.837  0.7672  0.4348  0.0179
   32CHL1   C14 3490   2.015   3.484   5.676 -0.1717  0.1955 -0.0503
   32CHL1   H14 3491   2.090   3.402   5.673  1.4829  1.2561  4.4328
   32CHL1   C15 3492   2.070   3.600   5.585 -0.0625 -0.1316  0.4287
   32CHL1  H15A 3493   2.036   3.699   5.625  1.1134  0.8363 -0.8757
   32CHL1  H15B 3494   2.180   3.607   5.595 -0.1521  1.9357  0.4480
   32CHL1   C16 3495   2.015   3.565   5.443 -1.0791 -0.1422  0.7902
   32CHL1  H16A 3496   1.950   3.642   5.397  0.0084  0.6181  0.4657
   32CHL1  H16B 3497   2.097   3.545   5.370 -0.6611 -0.2086  1.2704
   32CHL1   C17 3498   1.934   3.428   5.464  0.1401 -0.1706 -0.0291
   32CHL1   H17 3499   1.999   3.339   5.456  0.7514  0.3920 -1.8378
   32CHL1   C13 3500   1.887   3.429   5.612 -0.4913  0.6672  0.3967
   32CHL1   C18 3501   1.777   3.537   5.631  0.3587  0.0207  0.8365
   32CHL1  H18A 3502   1.745   3.545   5.737  1.3547 -1.3244  1.2632
   32CHL1  H18B 3503   1.800   3.643   5.606  0.1111  0.2353  1.4741
   32CHL1  H18C 3504   1.695   3.500   5.566  1.6653  0.3856 -1.0924
   32CHL1   C12 3505   1.855   3.301   5.686 -0.5612 -0.0463  0.1730
   32CHL1  H12A 3506   1.758   3.262   5.648 -0.0413 -0.4672 -0.7428
   32CHL1  H12B 3507   1.929   3.219   5.673 -0.1813  0.4741 -1.0604
   32CHL1   C11 3508   1.848   3.322   5.835  0.3776  0.8807 -0.5482
   32CHL1  H11A 3509   1.757   3.377   5.867  1.0691  2.2498 -0.8686
   32CHL1  H11B 3510   1.849   3.224   5.888 -0.2132  1.6412  0.9179
   32CHL1    C9 3511   1.969   3.388   5.898  0.3629 -0.4595  0.0719
   32CHL1    H9 3512   2.062   3.328   5.886  0.0248 -0.8445 -0.6477
   32CHL1   C10 3513   1.960   3.420   6.047  0.5174 -0.6607 -0.1832
   32CHL1   C19 3514   1.829   3.507   6.070  0.8540 -0.4353 -0.2770
   32CHL1  H19A 3515   1.841   3.599   6.008  2.4026 -0.2876  0.1872
   32CHL1  H19B 3516   1.741   3.443   6.050 -0.1938  0.7939  0.2290
   32CHL1  H19C 3517   1.826   3.536   6.177  0.8011  1.0081 -0.6485
   32CHL1    C1 3518   1.941   3.291   6.120  0.1375  0.0577 -0.3468
   32CHL1   H1A 3519   1.839   3.252   6.100  0.9563 -1.4367 -1.9399
   32CHL1   H1B 3520   2.009   3.214   6.077  0.2752 -0.5555  0.9318
   32CHL1    C2 3521   1.960   3.290   6.272 -0.6768  0.7694 -1.0738
   32CHL1   H2A 3522   1.941   3.186   6.306 -0.5119  0.7334 -1.0907
   32CHL1   H2B 3523   1.878   3.347   6.320 -2.2429 -3.8798  2.4486
   32CHL1   C20 3524   1.831   3.404   5.354 -0.0163  0.1810 -0.1966
   32CHL1   H20 3525   1.751   3.479   5.373 -1.9514 -1.9049  0.3578
   32CHL1   C21 3526   1.761   3.262   5.369 -0.4094  0.5043  0.0123
   32CHL1  H21A 3527   1.836   3.180   5.361  2.2680  2.8120 -0.1987
   32CHL1  H21B 3528   1.685   3.248   5.289 -0.5828 -1.6544  0.5105
   32CHL1  H21C 3529   1.697   3.247   5.458 -1.6869 -0.4935 -1.0319
   32CHL1   C22 3530   1.873   3.417   5.209 -0.1457  0.4273 -0.4086
   32CHL1  H22A 3531   1.790   3.378   5.147  0.4687 -1.3393 -0.1651
   32CHL1  H22B 3532   1.884   3.524   5.179 -1.0158  1.1627  1.7560
   32CHL1   C23 3533   2.004   3.339   5.161 -0.2859 -0.0308  0.0860
   32CHL1  H23A 3534   2.083   3.379   5.228 -0.4412  1.0654 -0.3674
   32CHL1  H23B 3535   1.989   3.233   5.190 -1.1503 -0.1992 -0.9178
   32CHL1   C24 3536   2.040   3.341   5.009  0.1771  0.3402 -0.9339
   32CHL1  H24A 3537   1.943   3.320   4.959  0.0252  1.7789 -1.3006
   32CHL1  H24B 3538   2.057   3.444   4.971  1.3247  0.4430 -0.1811
   32CHL1   C25 3539   2.153   3.246   4.961  0.2074 -1.0637  0.8145
   32CHL1   H25 3540   2.112   3.146   4.985 -0.6211 -0.3305  2.6283
   32CHL1   C26 3541   2.146   3.255   4.809 -0.2774  0.2176 -0.2112
   32CHL1  H26A 3542   2.241   3.217   4.766 -0.3761  0.4081 -0.5999
   32CHL1  H26B 3543   2.056   3.206   4.766  0.7312 -1.8526 -0.1012
   32CHL1  H26C 3544   2.149   3.363   4.786 -4.4878  0.9934  1.8959
   32CHL1   C27 3545   2.295   3.269   5.022 -0.5337 -0.6154 -0.6452
   32CHL1  H27A 3546   2.337   3.364   4.982 -0.0244 -1.4938 -2.2898
   32CHL1  H27B 3547   2.277   3.273   5.132  0.6519 -0.3207 -0.4422
   32CHL1  H27C 3548   2.381   3.203   4.996 -0.1509 -0.5911  0.4911
   33CHL1    C3 3549   5.287   3.963   6.427 -1.0581  0.3004  0.2238
   33CHL1    H3 3550   5.387   3.937   6.387 -0.9166  0.1588  0.6741
   33CHL1    O3 3551   5.284   3.973   6.570 -0.1054 -0.1040 -0.0325
   33CHL1   H3' 3552   5.192   3.970   6.598 -0.1724 -0.2908 -0.2677
   33CHL1    C4 3553   5.243   4.096   6.367 -0.0112  0.0710  0.1486
   33CHL1   H4A 3554   5.143   4.120   6.411 -0.0352 -1.7850  1.1912
   33CHL1   H4B 3555   5.318   4.166   6.408  2.0834 -2.8205  1.5940
   33CHL1    C5 3556   5.251   4.091   6.213 -0.0034 -0.3284  0.3921
   33CHL1    C6 3557   5.334   4.172   6.149  0.6657 -1.2679  0.6974
   33CHL1    H6 3558   5.389   4.254   6.198  0.2324 -0.7384  0.3067
   33CHL1    C7 3559   5.355   4.171   5.999  0.2978  0.3294  0.4149
   33CHL1   H7A 3560   5.355   4.276   5.964 -1.5542  0.8866  1.9109
   33CHL1   H7B 3561   5.448   4.114   5.979 -1.1795 -2.0156 -0.1707
   33CHL1    C8 3562   5.231   4.097   5.935 -0.5131  0.4034  0.6744
   33CHL1    H8 3563   5.142   4.163   5.941  0.0350  1.2634 -0.3728
   33CHL1   C14 3564   5.264   4.083   5.787 -0.2396 -0.1619  0.2304
   33CHL1   H14 3565   5.360   4.028   5.782  2.0219  3.5520 -3.6828
   33CHL1   C15 3566   5.300   4.207   5.693 -0.4264 -0.5904  0.1051
   33CHL1  H15A 3567   5.231   4.291   5.711 -0.6016 -0.9541  1.2342
   33CHL1  H15B 3568   5.402   4.249   5.704  0.1646 -2.1698  1.0168
   33CHL1   C16 3569   5.283   4.158   5.553  0.1623 -0.3396  0.0755
   33CHL1  H16A 3570   5.213   4.215   5.488  1.1419  0.4319 -0.3259
   33CHL1  H16B 3571   5.379   4.154   5.497  1.4228  0.9318  2.0474
   33CHL1   C17 3572   5.220   4.014   5.558 -0.8449  0.3685 -0.3970
   33CHL1   H17 3573   5.300   3.937   5.566  0.6909  1.9556  0.1322
   33CHL1   C13 3574   5.167   4.001   5.705 -0.6867  0.0895 -0.8603
   33CHL1   C18 3575   5.031   4.073   5.710  0.0339 -0.1071  0.0111
   33CHL1  H18A 3576   4.952   4.014   5.659  0.1799 -1.6638  1.4580
   33CHL1  H18B 3577   4.989   4.083   5.812  2.1648 -1.7542  1.1515
   33CHL1  H18C 3578   5.040   4.169   5.656 -0.2587 -1.3682 -2.4089
   33CHL1   C12 3579   5.154   3.860   5.768  0.0327 -0.3025 -0.3868
   33CHL1  H12A 3580   5.068   3.812   5.717  1.1052 -0.8477 -1.7359
   33CHL1  H12B 3581   5.250   3.807   5.750  1.0912  1.1053  0.9071
   33CHL1   C11 3582   5.121   3.868   5.917  0.2765 -0.2926  0.0035
   33CHL1  H11A 3583   5.013   3.888   5.936  0.4474 -1.1379  2.2272
   33CHL1  H11B 3584   5.131   3.771   5.972 -1.0160 -0.1244  0.5776
   33CHL1    C9 3585   5.215   3.965   5.997  0.8090 -0.0153  0.1101
   33CHL1    H9 3586   5.318   3.923   5.990  1.0609  0.8341 -1.8905
   33CHL1   C10 3587   5.174   3.982   6.147 -0.4799 -0.6297  0.0637
   33CHL1   C19 3588   5.026   4.012   6.168 -1.1430 -0.2981  0.1763
   33CHL1  H19A 3589   4.967   3.925   6.131 -0.7929  0.2899 -1.8941
   33CHL1  H19B 3590   5.005   4.034   6.274 -1.2930  2.5333 -0.3497
   33CHL1  H19C 3591   4.991   4.099   6.109 -0.2307  0.2947  0.4874
   33CHL1    C1 3592   5.210   3.848   6.216  0.4513  0.2011 -0.7249
   33CHL1   H1A 3593   5.134   3.778   6.176  0.0469  0.0212  0.3474
   33CHL1   H1B 3594   5.313   3.814   6.192  0.8545  0.5803  0.4249
   33CHL1    C2 3595   5.211   3.849   6.374  1.1861  0.0662 -0.0698
   33CHL1   H2A 3596   5.253   3.752   6.407  1.6880  0.4404  0.4016
   33CHL1   H2B 3597   5.118   3.869   6.431  1.2315 -2.6253  1.0741
   33CHL1   C20 3598   5.142   3.976   5.436  0.3272 -0.4350  0.4709
   33CHL1   H20 3599   5.058   4.048   5.423  0.7231  0.0092  0.3225
   33CHL1   C21 3600   5.093   3.826   5.457 -0.3213  0.5629 -0.3244
   33CHL1  H21A 3601   5.174   3.757   5.488  0.5927  1.6252 -0.2831
   33CHL1  H21B 3602   5.064   3.798   5.353  2.1552  0.9726 -1.1904
   33CHL1  H21C 3603   5.010   3.822   5.530  0.6055  0.3236  0.7353
   33CHL1   C22 3604   5.219   3.987   5.304 -0.0510 -0.0403 -0.1518
   33CHL1  H22A 3605   5.318   4.039   5.309 -0.4789  0.8152 -0.3718
   33CHL1  H22B 3606   5.241   3.886   5.265  0.9665 -0.5305  1.5860
   33CHL1   C23 3607   5.148   4.056   5.181  0.6869  0.1460  0.2633
   33CHL1  H23A 3608   5.060   4.000   5.144  0.3434  0.2483  0.8974
   33CHL1  H23B 3609   5.107   4.151   5.222  2.0685  0.4481  1.0129
   33CHL1   C24 3610   5.232   4.086   5.059  0.3921 -0.0174  0.3457
   33CHL1  H24A 3611   5.304   4.165   5.089 -0.3060  0.5737  0.4580
   33CHL1  H24B 3612   5.297   4.003   5.023 -1.1950 -0.9870 -0.3779
   33CHL1   C25 3613   5.153   4.144   4.933  0.5164 -0.2948 -0.4193
   33CHL1   H25 3614   5.096   4.230   4.973  1.8339  0.8357 -0.9147
   33CHL1   C26 3615   5.242   4.186   4.818  0.3337  0.3014 -0.1543
   33CHL1  H26A 3616   5.286   4.095   4.771  0.1531  0.0620  0.1379
   33CHL1  H26B 3617   5.191   4.251   4.744  1.3699  0.3993 -0.8004
   33CHL1  H26C 3618   5.325   4.248   4.859 -0.2203  1.7828 -1.2126
   33CHL1   C27 3619   5.054   4.044   4.876  0.1100  0.4514 -0.1039
   33CHL1  H27A 3620   5.002   4.102   4.797  0.1174 -0.2683 -0.6558
   33CHL1  H27B 3621   5.111   3.959   4.834 -0.0945 -0.0953  0.6952
   33CHL1  H27C 3622   4.980   4.002   4.948 -0.8995 -1.7148 -2.2224
   34CHL1    C3 3623   0.194   5.389   6.321  0.0907 -0.0072 -0.1660
   34CHL1    H3 3624   0.230   5.480   6.268  0.7349 -0.0617  0.1689
   34CHL1    O3 3625   0.144   5.406   6.451  0.1284  0.0963 -0.7210
   34CHL1   H3' 3626   0.222   5.444   6.493 -1.4419  2.1491  0.5246
   34CHL1    C4 3627   0.072   5.335   6.242 -0.4322  0.1916  0.4728
   34CHL1   H4A 3628   0.032   5.247   6.295  1.0990 -1.2214 -0.5928
   34CHL1   H4B 3629  -0.005   5.415   6.247 -0.9710 -0.4109  2.5180
   34CHL1    C5 3630   0.116   5.313   6.099  0.9325  0.5633  0.2347
   34CHL1    C6 3631   0.046   5.366   5.998 -0.8167 -0.0585  0.0365
   34CHL1    H6 3632  -0.036   5.437   6.019 -2.3568 -1.7340 -0.0724
   34CHL1    C7 3633   0.074   5.329   5.853 -0.6539  0.2293  0.0094
   34CHL1   H7A 3634  -0.012   5.311   5.785  0.9752  0.6523 -2.2942
   34CHL1   H7B 3635   0.119   5.418   5.804  0.2365  0.4261  1.1404
   34CHL1    C8 3636   0.173   5.211   5.839  0.8882  0.0868  0.3501
   34CHL1    H8 3637   0.125   5.112   5.846  3.5637 -1.3398  0.0227
   34CHL1   C14 3638   0.227   5.220   5.697  0.1897 -0.2458 -1.0918
   34CHL1   H14 3639   0.294   5.307   5.687  1.2134 -0.9832 -0.8110
   34CHL1   C15 3640   0.131   5.230   5.579 -0.0970  0.0738 -0.0517
   34CHL1  H15A 3641   0.035   5.176   5.595 -0.9526  1.3801 -0.6306
   34CHL1  H15B 3642   0.119   5.339   5.564  0.0111  0.0594 -0.2568
   34CHL1   C16 3643   0.220   5.185   5.459  0.5282 -0.1488  0.5537
   34CHL1  H16A 3644   0.164   5.116   5.393 -1.3954 -0.4406  2.3826
   34CHL1  H16B 3645   0.248   5.272   5.396 -0.5599 -0.3155 -0.1886
   34CHL1   C17 3646   0.347   5.130   5.522 -0.6141 -0.1099 -0.3952
   34CHL1   H17 3647   0.417   5.216   5.519 -2.1979  1.2421 -0.3525
   34CHL1   C13 3648   0.318   5.103   5.664  0.2292  0.3063 -0.7519
   34CHL1   C18 3649   0.236   4.968   5.666  0.2397 -0.2548 -0.1447
   34CHL1  H18A 3650   0.143   4.976   5.606  1.3329  0.2139 -1.8315
   34CHL1  H18B 3651   0.296   4.886   5.621 -0.8967 -0.8228 -0.6670
   34CHL1  H18C 3652   0.209   4.943   5.771 -0.0511 -0.5027 -0.2782
   34CHL1   C12 3653   0.440   5.095   5.764  0.1607  0.3389  0.5695
   34CHL1  H12A 3654   0.508   5.008   5.750 -0.1820  0.3323 -1.3436
   34CHL1  H12B 3655   0.509   5.181   5.747  0.6372 -0.3424 -1.2220
   34CHL1   C11 3656   0.386   5.093   5.911  0.1603 -0.3104  0.0480
   34CHL1  H11A 3657   0.332   4.997   5.920 -3.1775  1.2174 -1.7816
   34CHL1  H11B 3658   0.468   5.089   5.985 -1.9908  1.7622  2.7441
   34CHL1    C9 3659   0.291   5.209   5.940  0.0107 -0.1376 -0.4231
   34CHL1    H9 3660   0.350   5.299   5.916  0.2488 -0.5385 -1.3795
   34CHL1   C10 3661   0.234   5.212   6.085  0.6399  0.0831  0.1491
   34CHL1   C19 3662   0.168   5.076   6.122 -0.3433  0.1823 -0.0622
   34CHL1  H19A 3663   0.078   5.039   6.069 -0.9610 -1.0454  1.7534
   34CHL1  H19B 3664   0.244   4.995   6.120 -0.7790 -0.2229 -0.2526
   34CHL1  H19C 3665   0.136   5.072   6.228 -0.1622  2.6020  0.1428
   34CHL1    C1 3666   0.339   5.238   6.188  0.0532 -0.0579  0.6087
   34CHL1   H1A 3667   0.401   5.146   6.193  0.0976  0.0336  2.0503
   34CHL1   H1B 3668   0.396   5.325   6.150 -1.5749  0.3619 -1.0140
   34CHL1    C2 3669   0.289   5.274   6.326 -0.2212  0.0578 -0.2188
   34CHL1   H2A 3670   0.379   5.310   6.381 -0.5914  3.3829 -1.5359
   34CHL1   H2B 3671   0.244   5.189   6.382 -2.7728  2.1000  1.0820
   34CHL1   C20 3672   0.426   5.031   5.429 -0.2810  0.5370 -0.8724
   34CHL1   H20 3673   0.353   4.949   5.415  0.0912  0.0959 -0.2738
   34CHL1   C21 3674   0.548   4.950   5.492  0.1385  0.2496 -0.2287
   34CHL1  H21A 3675   0.512   4.873   5.564  1.1652 -0.0881 -0.0581
   34CHL1  H21B 3676   0.612   5.027   5.541  0.3735  0.3113 -0.6326
   34CHL1  H21C 3677   0.616   4.901   5.419  1.5213 -0.1961  1.2974
   34CHL1   C22 3678   0.455   5.098   5.289 -0.1678  0.5277 -0.0525
   34CHL1  H22A 3679   0.364   5.149   5.252 -0.9669 -0.3380  0.6651
   34CHL1  H22B 3680   0.543   5.164   5.301  0.2725  0.0777 -0.7132
   34CHL1   C23 3681   0.484   4.995   5.183 -0.3034  0.3252 -0.6116
   34CHL1  H23A 3682   0.588   4.958   5.190  0.5211  2.4593 -0.7579
   34CHL1  H23B 3683   0.425   4.901   5.189  1.5826 -0.8685  0.1806
   34CHL1   C24 3684   0.453   5.053   5.048  0.0488 -0.0039 -0.1925
   34CHL1  H24A 3685   0.347   5.087   5.044  0.1913  0.4955  0.1386
   34CHL1  H24B 3686   0.514   5.145   5.038  1.0675 -0.4043  1.9397
   34CHL1   C25 3687   0.488   4.963   4.931  0.1253 -0.5905 -0.4139
   34CHL1   H25 3688   0.586   4.918   4.959 -0.2780 -1.2922 -0.1153
   34CHL1   C26 3689   0.394   4.840   4.910 -0.0766  0.0512 -0.7818
   34CHL1  H26A 3690   0.396   4.775   4.999 -0.2558 -0.5536 -1.2125
   34CHL1  H26B 3691   0.294   4.867   4.871  0.7110  1.2518 -2.1063
   34CHL1  H26C 3692   0.452   4.774   4.841 -1.4183  0.8342 -2.7388
   34CHL1   C27 3693   0.494   5.044   4.799  0.5720 -0.4554 -0.3808
   34CHL1  H27A 3694   0.390   5.080   4.781 -0.9689 -1.9157  4.3061
   34CHL1  H27B 3695   0.569   5.126   4.791  4.0567 -3.5500 -3.8291
   34CHL1  H27C 3696   0.518   4.973   4.717 -1.1021  2.1193 -3.3719
   35CHL1    C3 3697   1.238   1.582   6.778 -0.1094 -0.2936  0.0025
   35CHL1    H3 3698   1.309   1.667   6.785  1.8754 -1.9114  0.5874
   35CHL1    O3 3699   1.176   1.544   6.903  0.7635 -0.1842  0.2127
   35CHL1   H3' 3700   1.251   1.553   6.962  1.4029  0.7552 -0.7255
   35CHL1    C4 3701   1.124   1.604   6.671 -0.0873  0.0618  0.5544
   35CHL1   H4A 3702   1.064   1.510   6.673 -0.2986  0.0995 -1.6709
   35CHL1   H4B 3703   1.061   1.686   6.711 -1.4628  0.4011 -2.0590
   35CHL1    C5 3704   1.162   1.627   6.527 -0.5164  0.1397 -0.3558
   35CHL1    C6 3705   1.127   1.737   6.456 -0.3756  0.1615 -0.5793
   35CHL1    H6 3706   1.071   1.821   6.501 -0.0367  1.1860 -2.0177
   35CHL1    C7 3707   1.162   1.753   6.314 -1.0563 -0.1749 -0.9244
   35CHL1   H7A 3708   1.067   1.782   6.264 -1.3105  2.2444  0.7630
   35CHL1   H7B 3709   1.228   1.841   6.300 -1.2780  0.1339 -0.0793
   35CHL1    C8 3710   1.237   1.636   6.247  0.2601 -0.6551 -0.7400
   35CHL1    H8 3711   1.160   1.572   6.199 -2.4004  0.9817  1.0451
   35CHL1   C14 3712   1.325   1.696   6.135 -0.4147  0.2119  0.6763
   35CHL1   H14 3713   1.403   1.761   6.179 -0.0443 -0.2527  0.7173
   35CHL1   C15 3714   1.254   1.791   6.029 -0.7304  0.4662  0.3856
   35CHL1  H15A 3715   1.154   1.753   5.999 -0.9657  1.5405 -0.2230
   35CHL1  H15B 3716   1.243   1.898   6.057  0.7317  0.5687  0.6280
   35CHL1   C16 3717   1.351   1.784   5.911  0.0589 -0.3864 -0.4030
   35CHL1  H16A 3718   1.296   1.745   5.822  1.2645  0.4849 -1.5640
   35CHL1  H16B 3719   1.370   1.887   5.875 -0.4239 -0.9657 -2.4597
   35CHL1   C17 3720   1.465   1.682   5.945 -0.1735  0.0288 -0.0070
   35CHL1   H17 3721   1.547   1.743   5.989  1.9186 -2.6810  0.0522
   35CHL1   C13 3722   1.409   1.595   6.061 -0.7182  0.4163 -0.6707
   35CHL1   C18 3723   1.320   1.485   5.996 -0.2187  0.7329 -0.0013
   35CHL1  H18A 3724   1.376   1.402   5.949 -1.8835 -0.0088 -0.7574
   35CHL1  H18B 3725   1.250   1.442   6.071 -0.1749  0.3768 -0.1641
   35CHL1  H18C 3726   1.260   1.521   5.910  1.0690 -1.8404 -2.1210
   35CHL1   C12 3727   1.514   1.528   6.161 -0.1120 -0.3703  0.9149
   35CHL1  H12A 3728   1.599   1.478   6.109  1.4025  0.7770  2.2086
   35CHL1  H12B 3729   1.564   1.619   6.201  1.9631 -0.8639 -0.4119
   35CHL1   C11 3730   1.433   1.463   6.277  0.0203 -0.2681  0.0335
   35CHL1  H11A 3731   1.388   1.372   6.231  1.8082 -0.6143 -1.1234
   35CHL1  H11B 3732   1.509   1.441   6.354  1.4996  1.2691 -0.9180
   35CHL1    C9 3733   1.331   1.565   6.343  0.4368  0.2708  0.5414
   35CHL1    H9 3734   1.397   1.645   6.380  0.2584  0.8852 -0.4274
   35CHL1   C10 3735   1.256   1.518   6.469  0.5624 -0.2052  0.3806
   35CHL1   C19 3736   1.184   1.388   6.424 -0.9123 -0.8235 -0.0423
   35CHL1  H19A 3737   1.129   1.406   6.329 -1.0489 -0.8701  0.0273
   35CHL1  H19B 3738   1.260   1.309   6.405 -1.0436 -1.9394  3.4038
   35CHL1  H19C 3739   1.124   1.344   6.507 -1.2967 -0.2805 -0.0287
   35CHL1    C1 3740   1.368   1.490   6.578  0.6990  0.1462  0.1778
   35CHL1   H1A 3741   1.421   1.396   6.553  2.3776  1.3286 -0.9780
   35CHL1   H1B 3742   1.447   1.568   6.582  0.5342  0.3688 -0.7002
   35CHL1    C2 3743   1.317   1.466   6.727  0.3336 -0.2033  1.2504
   35CHL1   H2A 3744   1.403   1.453   6.796  1.0403 -0.2991  0.3609
   35CHL1   H2B 3745   1.262   1.370   6.734 -1.1679  0.4416 -0.8711
   35CHL1   C20 3746   1.525   1.615   5.818 -0.2254  0.4247  0.1529
   35CHL1   H20 3747   1.448   1.542   5.785  0.0116  0.3203 -0.1719
   35CHL1   C21 3748   1.647   1.524   5.855  0.2403 -0.2003  0.0590
   35CHL1  H21A 3749   1.714   1.492   5.772 -0.1145 -0.2547 -0.2092
   35CHL1  H21B 3750   1.616   1.434   5.912 -0.0806 -1.6593 -2.2885
   35CHL1  H21C 3751   1.703   1.578   5.934 -0.6890  1.0485 -0.1080
   35CHL1   C22 3752   1.563   1.713   5.711 -0.9795  0.0552  0.6361
   35CHL1  H22A 3753   1.481   1.787   5.695  1.1067  2.9556  2.3593
   35CHL1  H22B 3754   1.654   1.775   5.728 -1.5305  1.0782 -0.0050
   35CHL1   C23 3755   1.579   1.644   5.570  0.6220 -0.1302  0.3372
   35CHL1  H23A 3756   1.639   1.716   5.509 -0.4222  0.5217  0.0552
   35CHL1  H23B 3757   1.633   1.547   5.578  0.2726 -0.2239  1.7129
   35CHL1   C24 3758   1.450   1.604   5.493 -0.7549 -0.4222  0.4363
   35CHL1  H24A 3759   1.429   1.498   5.516  1.0184 -0.9190 -0.0242
   35CHL1  H24B 3760   1.366   1.669   5.525  1.4627  2.4328  0.9010
   35CHL1   C25 3761   1.455   1.604   5.338 -0.0839 -0.9338 -0.3858
   35CHL1   H25 3762   1.351   1.570   5.317 -1.2893  1.9249  0.4701
   35CHL1   C26 3763   1.476   1.745   5.285  0.3425  0.6721 -0.0848
   35CHL1  H26A 3764   1.500   1.730   5.177  4.1593  2.9745  0.2857
   35CHL1  H26B 3765   1.396   1.821   5.297 -0.2498  0.5943 -2.8530
   35CHL1  H26C 3766   1.565   1.799   5.321  0.9958  0.5904 -1.5192
   35CHL1   C27 3767   1.569   1.518   5.280  0.8822 -0.6749 -0.0192
   35CHL1  H27A 3768   1.572   1.418   5.329  2.1427 -0.2382  0.8328
   35CHL1  H27B 3769   1.565   1.514   5.169 -3.2967  1.7055 -0.1680
   35CHL1  H27C 3770   1.667   1.561   5.307  0.9329 -0.5996 -0.3156
   36CHL1    C3 3771   4.448   5.947   6.872 -0.0790 -0.3958 -0.6601
   36CHL1    H3 3772   4.554   5.964   6.843 -0.4532  2.1132 -0.8184
   36CHL1    O3 3773   4.430   5.963   7.012  0.2099 -0.9336 -0.3485
   36CHL1   H3' 3774   4.335   5.960   7.024 -0.1140  2.4590 -1.2489
   36CHL1    C4 3775   4.349   6.048   6.797 -0.1833 -0.1128  0.2200
   36CHL1   H4A 3776   4.248   6.041   6.842  0.2397 -2.4921  0.9491
   36CHL1   H4B 3777   4.398   6.146   6.815 -0.0315 -0.5858  2.6447
   36CHL1    C5 3778   4.335   6.021   6.649  0.0683  0.4517  0.3641
   36CHL1    C6 3779   4.341   6.123   6.560 -0.1894  0.0742 -0.0937
   36CHL1    H6 3780   4.346   6.227   6.596 -1.7659 -0.0459  0.5551
   36CHL1    C7 3781   4.349   6.097   6.411 -0.3395 -0.7494 -0.0869
   36CHL1   H7A 3782   4.276   6.161   6.358  0.6274  0.6296  0.1866
   36CHL1   H7B 3783   4.450   6.120   6.372 -0.5892 -0.4162 -0.5523
   36CHL1    C8 3784   4.291   5.955   6.370 -0.2844  0.1744 -0.2980
   36CHL1    H8 3785   4.184   5.955   6.399  0.0414 -0.3599  0.9588
   36CHL1   C14 3786   4.318   5.932   6.223 -0.1241  0.0220 -0.5111
   36CHL1   H14 3787   4.428   5.931   6.206  0.1214  0.0294  0.9509
   36CHL1   C15 3788   4.257   6.034   6.130  0.4440 -0.2123  0.4240
   36CHL1  H15A 3789   4.146   6.042   6.137  0.3716  1.8661 -1.7253
   36CHL1  H15B 3790   4.295   6.139   6.134 -1.6468  0.6621 -0.7299
   36CHL1   C16 3791   4.293   5.976   5.994  0.1307 -0.1811  0.2387
   36CHL1  H16A 3792   4.216   6.011   5.922  0.2469 -0.0046  0.1995
   36CHL1  H16B 3793   4.397   6.003   5.966  0.9368 -1.7360  1.5581
   36CHL1   C17 3794   4.306   5.816   6.023  0.5580  1.1995 -0.5847
   36CHL1   H17 3795   4.415   5.793   6.021  0.5436  0.2909  2.8919
   36CHL1   C13 3796   4.268   5.795   6.176 -0.2576 -0.4274  0.3483
   36CHL1   C18 3797   4.115   5.778   6.188 -0.4043 -0.4597 -0.2987
   36CHL1  H18A 3798   4.060   5.838   6.113  0.8443 -0.0729 -0.9424
   36CHL1  H18B 3799   4.109   5.673   6.150  0.1864 -0.4883 -0.3356
   36CHL1  H18C 3800   4.083   5.791   6.293  0.1387 -1.2972 -0.0152
   36CHL1   C12 3801   4.346   5.695   6.257  0.1575 -0.3677  0.7437
   36CHL1  H12A 3802   4.314   5.600   6.210 -0.0553  0.0376  0.0593
   36CHL1  H12B 3803   4.456   5.704   6.243  0.1332 -1.2646 -0.1776
   36CHL1   C11 3804   4.316   5.700   6.406 -0.1551  0.0629 -0.6980
   36CHL1  H11A 3805   4.212   5.673   6.432 -0.1696  1.3394  0.7004
   36CHL1  H11B 3806   4.386   5.635   6.463  1.0831  2.1358  0.2476
   36CHL1    C9 3807   4.349   5.849   6.458  0.3857  0.5094 -0.3144
   36CHL1    H9 3808   4.459   5.862   6.450  0.3932  0.2083 -0.7370
   36CHL1   C10 3809   4.329   5.869   6.611  0.0442 -0.3440  0.6021
   36CHL1   C19 3810   4.181   5.831   6.645  0.0251 -0.0619  0.4335
   36CHL1  H19A 3811   4.168   5.721   6.645  1.3249 -0.2341  1.1915
   36CHL1  H19B 3812   4.143   5.866   6.744 -1.3257  0.4587 -0.2409
   36CHL1  H19C 3813   4.106   5.874   6.575  0.4657  1.1230  0.6566
   36CHL1    C1 3814   4.431   5.782   6.692 -0.9948 -0.4519  0.2511
   36CHL1   H1A 3815   4.392   5.681   6.663 -1.2025  0.4143 -2.7932
   36CHL1   H1B 3816   4.534   5.809   6.662 -0.8321 -1.0647  0.2447
   36CHL1    C2 3817   4.412   5.795   6.843  0.2333  0.4193  0.2653
   36CHL1   H2A 3818   4.482   5.729   6.898 -0.9739 -2.7015 -1.6784
   36CHL1   H2B 3819   4.304   5.778   6.864  0.3757  0.7568  1.3569
   36CHL1   C20 3820   4.239   5.726   5.920 -0.7272 -0.1566  0.1276
   36CHL1   H20 3821   4.128   5.730   5.924 -0.8473 -0.1649 -1.9317
   36CHL1   C21 3822   4.281   5.581   5.940  0.0133  0.3042 -0.2747
   36CHL1  H21A 3823   4.232   5.539   6.030 -1.8651  1.7395 -0.5577
   36CHL1  H21B 3824   4.388   5.558   5.926  0.1656  0.7102  0.1979
   36CHL1  H21C 3825   4.228   5.525   5.859 -3.7862 -0.5289  2.5024
   36CHL1   C22 3826   4.286   5.764   5.774  0.3494  0.5490  0.2797
   36CHL1  H22A 3827   4.254   5.869   5.755 -0.5476  0.1680 -0.3813
   36CHL1  H22B 3828   4.395   5.743   5.771 -0.0511 -1.6464 -0.9364
   36CHL1   C23 3829   4.215   5.692   5.654 -0.1998 -0.1339  0.7337
   36CHL1  H23A 3830   4.250   5.587   5.668  3.1869  0.8054  0.2852
   36CHL1  H23B 3831   4.105   5.698   5.666 -0.4635 -1.0801 -0.9016
   36CHL1   C24 3832   4.258   5.754   5.516 -0.3649 -0.1030  0.1640
   36CHL1  H24A 3833   4.210   5.853   5.498 -2.8219 -1.6212 -2.2664
   36CHL1  H24B 3834   4.369   5.767   5.513  0.0876 -3.0201  0.8952
   36CHL1   C25 3835   4.216   5.663   5.397 -0.4748 -0.5347 -0.1646
   36CHL1   H25 3836   4.251   5.562   5.424  1.0148  0.1356  0.5601
   36CHL1   C26 3837   4.062   5.646   5.375 -0.7623 -0.1596 -0.0379
   36CHL1  H26A 3838   4.012   5.742   5.353 -0.9123  0.5337  2.9499
   36CHL1  H26B 3839   4.045   5.591   5.280  1.7122  0.1328 -0.7155
   36CHL1  H26C 3840   4.010   5.607   5.466 -1.0854 -3.9032 -1.6280
   36CHL1   C27 3841   4.278   5.705   5.271  0.1676  0.2460  0.1744
   36CHL1  H27A 3842   4.233   5.797   5.230 -1.0176 -0.2029  0.4358
   36CHL1  H27B 3843   4.387   5.716   5.290  0.1767  0.3283  0.0703
   36CHL1  H27C 3844   4.265   5.627   5.192  2.8159  0.9891 -1.0960
   37CHL1    C3 3845   1.743   1.741   6.757  0.4866 -0.3626 -0.8710
   37CHL1    H3 3846   1.733   1.632   6.738  1.1672 -1.1919  2.7779
   37CHL1    O3 3847   1.706   1.749   6.897  0.7848 -0.2070  0.9211
   37CHL1   H3' 3848   1.701   1.844   6.906 -0.3162 -0.3389  1.9563
   37CHL1    C4 3849   1.886   1.775   6.738 -0.1470 -0.4447  0.3398
   37CHL1   H4A 3850   1.903   1.883   6.759  0.9263 -0.3442 -0.9189
   37CHL1   H4B 3851   1.942   1.710   6.807 -0.1345 -2.9244 -1.8501
   37CHL1    C5 3852   1.926   1.752   6.591  0.2503 -0.0464 -0.1885
   37CHL1    C6 3853   2.018   1.655   6.567 -0.7980 -1.0657 -0.3986
   37CHL1    H6 3854   2.074   1.601   6.645  2.0909  0.6362 -1.1658
   37CHL1    C7 3855   2.065   1.617   6.426 -0.1011  0.4371  0.5652
   37CHL1   H7A 3856   2.175   1.625   6.417 -0.2032  0.4071 -0.9513
   37CHL1   H7B 3857   2.027   1.518   6.392  0.7764  0.4016 -0.3320
   37CHL1    C8 3858   2.022   1.736   6.329 -0.9172  0.1390 -0.1376
   37CHL1    H8 3859   2.087   1.824   6.348  0.1508 -0.7782  0.6391
   37CHL1   C14 3860   2.053   1.689   6.190 -0.1913 -0.1577 -0.1035
   37CHL1   H14 3861   1.981   1.605   6.177  0.8995 -1.0038 -0.9022
   37CHL1   C15 3862   2.195   1.635   6.149 -0.4157 -0.0179 -0.0731
   37CHL1  H15A 3863   2.274   1.697   6.197  1.6568 -1.7168 -1.0773
   37CHL1  H15B 3864   2.206   1.530   6.184 -0.8614  0.1834  0.6910
   37CHL1   C16 3865   2.206   1.644   5.999 -0.2146  0.6408  0.2126
   37CHL1  H16A 3866   2.279   1.726   5.979 -1.5221  1.9120  0.4799
   37CHL1  H16B 3867   2.236   1.555   5.939 -0.2619  2.0697 -2.0344
   37CHL1   C17 3868   2.065   1.703   5.964  0.1044 -0.0961 -0.0883
   37CHL1   H17 3869   1.988   1.624   5.964 -0.1881  0.1722 -1.3039
   37CHL1   C13 3870   2.009   1.782   6.079  0.2559  0.2196 -0.2506
   37CHL1   C18 3871   2.088   1.917   6.083  0.7469  0.0725 -0.3326
   37CHL1  H18A 3872   2.197   1.894   6.091  0.8034  0.1454 -0.8637
   37CHL1  H18B 3873   2.068   1.990   6.003  1.0190  0.8976  0.3390
   37CHL1  H18C 3874   2.056   1.971   6.174  0.2961 -0.6340 -0.0637
   37CHL1   C12 3875   1.859   1.803   6.080 -0.4575 -0.0195 -1.1164
   37CHL1  H12A 3876   1.831   1.877   6.002  2.3563  1.4996 -0.8048
   37CHL1  H12B 3877   1.789   1.717   6.065 -0.3391 -0.1878 -0.7050
   37CHL1   C11 3878   1.811   1.857   6.222 -0.3477  0.7680  0.1522
   37CHL1  H11A 3879   1.846   1.960   6.243 -0.2063  0.7204  0.1515
   37CHL1  H11B 3880   1.700   1.850   6.221 -0.2754 -0.7319 -1.3420
   37CHL1    C9 3881   1.867   1.769   6.343 -0.5328  0.1817 -1.0249
   37CHL1    H9 3882   1.810   1.673   6.350 -1.0781  0.5732  0.0820
   37CHL1   C10 3883   1.839   1.827   6.488  0.3742  0.6912 -0.5043
   37CHL1   C19 3884   1.880   1.973   6.499  0.2379 -0.6498  0.1683
   37CHL1  H19A 3885   1.810   2.037   6.441  0.3393 -3.5785 -3.5677
   37CHL1  H19B 3886   1.878   2.013   6.602  1.5182 -2.5831  1.0059
   37CHL1  H19C 3887   1.978   2.000   6.453  1.5272 -1.9342  2.0195
   37CHL1    C1 3888   1.685   1.805   6.523 -0.0849  0.0168 -0.4177
   37CHL1   H1A 3889   1.624   1.869   6.456 -0.0485 -0.3716 -0.8323
   37CHL1   H1B 3890   1.661   1.698   6.502 -2.1808  0.6507 -1.4855
   37CHL1    C2 3891   1.650   1.834   6.676 -0.1703  0.4614  0.1372
   37CHL1   H2A 3892   1.545   1.812   6.705 -0.5892  4.4813  2.2971
   37CHL1   H2B 3893   1.660   1.944   6.687  0.4714  0.5441 -1.0594
   37CHL1   C20 3894   2.046   1.751   5.824  0.6636 -0.1608 -0.2260
   37CHL1   H20 3895   1.956   1.816   5.813 -0.8577 -2.0673  0.5471
   37CHL1   C21 3896   2.018   1.638   5.721 -0.3133 -0.9449  0.2557
   37CHL1  H21A 3897   2.098   1.561   5.711 -0.8481 -1.3233 -1.3604
   37CHL1  H21B 3898   2.005   1.678   5.618  0.4403 -2.2428 -0.3707
   37CHL1  H21C 3899   1.921   1.588   5.741  1.0030 -3.3757  0.9617
   37CHL1   C22 3900   2.157   1.843   5.764  0.1166 -0.1812 -0.0963
   37CHL1  H22A 3901   2.183   1.930   5.828 -1.4490  0.9038 -0.8970
   37CHL1  H22B 3902   2.251   1.783   5.760 -0.5143 -1.1504 -1.3570
   37CHL1   C23 3903   2.147   1.917   5.629  0.3266 -0.0224 -0.5838
   37CHL1  H23A 3904   2.092   1.854   5.556  1.7508 -1.9933 -0.0411
   37CHL1  H23B 3905   2.075   1.999   5.651  2.4491  0.9369  4.0881
   37CHL1   C24 3906   2.278   1.970   5.579  0.4795 -0.5951 -0.1084
   37CHL1  H24A 3907   2.266   2.021   5.481  3.2580  1.6927  0.6297
   37CHL1  H24B 3908   2.328   2.041   5.647 -1.1992 -0.3217  0.8968
   37CHL1   C25 3909   2.383   1.865   5.549  0.2074  0.3419  0.4602
   37CHL1   H25 3910   2.411   1.814   5.644 -0.1469 -1.0260 -0.1531
   37CHL1   C26 3911   2.350   1.741   5.459 -0.0843 -0.2677 -0.5750
   37CHL1  H26A 3912   2.440   1.683   5.429  0.0480  0.7236 -2.1534
   37CHL1  H26B 3913   2.272   1.672   5.498 -0.7048 -0.6703 -2.4553
   37CHL1  H26C 3914   2.316   1.776   5.359  0.5275  2.0100 -0.0314
   37CHL1   C27 3915   2.505   1.930   5.480 -0.6887  1.0446  0.0729
   37CHL1  H27A 3916   2.468   1.950   5.378 -2.1640  1.2878  0.6230
   37CHL1  H27B 3917   2.537   2.023   5.531 -4.9652  1.1744  3.1541
   37CHL1  H27C 3918   2.581   1.849   5.475 -4.1464 -2.4541 -0.7001
   38CHL1    C3 3919   1.948   2.320   6.345 -0.0366 -0.0403 -0.3700
   38CHL1    H3 3920   1.952   2.215   6.307  2.4925 -0.4047  0.7036
   38CHL1    O3 3921   1.919   2.320   6.484  0.2924  0.7156  0.9254
   38CHL1   H3' 3922   1.996   2.286   6.529  0.5841 -0.5832 -0.4758
   38CHL1    C4 3923   2.088   2.382   6.328 -0.8784 -0.3229 -0.6203
   38CHL1   H4A 3924   2.086   2.486   6.367 -2.5336 -0.5989  0.1283
   38CHL1   H4B 3925   2.158   2.329   6.395  1.1426 -2.1602 -3.9014
   38CHL1    C5 3926   2.137   2.384   6.182  0.7766  0.6897 -0.6423
   38CHL1    C6 3927   2.246   2.320   6.141 -0.5230 -0.3578 -0.4995
   38CHL1    H6 3928   2.309   2.264   6.211 -0.1739 -0.2545 -0.7294
   38CHL1    C7 3929   2.302   2.336   6.003 -0.1129  0.0822  0.3519
   38CHL1   H7A 3930   2.408   2.370   6.002 -0.0221  0.0135  2.6257
   38CHL1   H7B 3931   2.306   2.234   5.960 -0.5101  1.0902 -2.2784
   38CHL1    C8 3932   2.229   2.422   5.908 -0.2241 -0.1244 -0.4142
   38CHL1    H8 3933   2.258   2.529   5.916 -1.6612  0.3479 -1.1535
   38CHL1   C14 3934   2.258   2.382   5.764 -0.6718 -0.3449  0.6713
   38CHL1   H14 3935   2.221   2.278   5.748 -0.6718  0.0324 -2.5991
   38CHL1   C15 3936   2.407   2.368   5.715 -0.7679 -0.7316 -0.0848
   38CHL1  H15A 3937   2.481   2.440   5.758 -0.2067 -0.2716 -1.7415
   38CHL1  H15B 3938   2.431   2.265   5.749  1.5117  0.1180  1.1089
   38CHL1   C16 3939   2.401   2.375   5.566 -0.0028  0.1613  0.5813
   38CHL1  H16A 3940   2.471   2.448   5.521 -0.6313 -0.0587 -0.8148
   38CHL1  H16B 3941   2.429   2.279   5.518  0.8030  0.5878  0.1841
   38CHL1   C17 3942   2.248   2.398   5.530  0.4648  0.3202 -0.0357
   38CHL1   H17 3943   2.192   2.302   5.518  0.0458  0.6528 -0.7570
   38CHL1   C13 3944   2.185   2.468   5.659  0.2191  0.0990  0.3343
   38CHL1   C18 3945   2.243   2.618   5.676 -0.3165  0.6594  0.1443
   38CHL1  H18A 3946   2.354   2.621   5.670 -0.3614  3.6042 -1.0992
   38CHL1  H18B 3947   2.198   2.686   5.600 -2.9301 -1.8986 -0.7499
   38CHL1  H18C 3948   2.222   2.656   5.778 -0.0005  0.9611  0.1011
   38CHL1   C12 3949   2.033   2.450   5.680 -0.7681  0.3806 -0.0518
   38CHL1  H12A 3950   1.975   2.501   5.600  1.9510 -0.7210 -2.9583
   38CHL1  H12B 3951   2.003   2.344   5.667 -1.7461  0.8714 -2.3656
   38CHL1   C11 3952   1.994   2.490   5.826  0.0885  0.1937  0.3672
   38CHL1  H11A 3953   1.985   2.601   5.825 -0.0498  0.1802 -0.4115
   38CHL1  H11B 3954   1.890   2.455   5.844 -0.7722  1.3025 -2.1008
   38CHL1    C9 3955   2.074   2.424   5.935 -0.0777  0.2429  0.5715
   38CHL1    H9 3956   2.047   2.317   5.923  2.8863 -0.8393  2.4154
   38CHL1   C10 3957   2.036   2.451   6.092  0.1502  0.3432 -0.4431
   38CHL1   C19 3958   2.061   2.606   6.103  0.3263  0.5122 -0.0728
   38CHL1  H19A 3959   2.028   2.640   6.204  0.3292 -1.2214  0.5509
   38CHL1  H19B 3960   2.170   2.628   6.096  0.0845  2.2728  0.9981
   38CHL1  H19C 3961   2.012   2.665   6.023 -3.1270  0.1756  1.6175
   38CHL1    C1 3962   1.885   2.406   6.116  0.1859  0.1196  0.1345
   38CHL1   H1A 3963   1.821   2.468   6.050  0.7018  1.5383  0.9241
   38CHL1   H1B 3964   1.887   2.301   6.081 -0.3446  0.3131 -0.5115
   38CHL1    C2 3965   1.845   2.405   6.267  0.0257 -0.1619  0.2105
   38CHL1   H2A 3966   1.748   2.355   6.288  0.0543  0.5754  2.3806
   38CHL1   H2B 3967   1.833   2.514   6.286 -2.4864 -0.1797 -0.9344
   38CHL1   C20 3968   2.227   2.469   5.395 -0.4510 -0.4661  0.0568
   38CHL1   H20 3969   2.245   2.578   5.405  0.8017 -0.5360 -1.1597
   38CHL1   C21 3970   2.079   2.444   5.346  0.0231 -0.1406 -0.0216
   38CHL1  H21A 3971   2.074   2.475   5.239 -1.6679 -0.1450  0.0281
   38CHL1  H21B 3972   2.011   2.506   5.408 -0.0999 -1.6616  1.4186
   38CHL1  H21C 3973   2.039   2.341   5.342 -1.2211  0.3619 -1.3807
   38CHL1   C22 3974   2.329   2.427   5.277  0.6272 -0.6682 -0.2745
   38CHL1  H22A 3975   2.298   2.486   5.188 -2.6059 -0.1142  1.0689
   38CHL1  H22B 3976   2.432   2.453   5.309 -0.0838 -0.2394  1.8854
   38CHL1   C23 3977   2.313   2.281   5.232  0.7299 -0.3455 -0.3622
   38CHL1  H23A 3978   2.300   2.213   5.318  2.1264 -0.7655 -0.4483
   38CHL1  H23B 3979   2.219   2.264   5.176  0.3417  0.2150  0.1145
   38CHL1   C24 3980   2.420   2.232   5.133  0.2783  0.2656 -0.0046
   38CHL1  H24A 3981   2.519   2.255   5.179  0.4714  1.1890 -0.8524
   38CHL1  H24B 3982   2.412   2.124   5.108  0.1193  0.0434  0.9708
   38CHL1   C25 3983   2.416   2.310   5.005 -0.2645  0.5537 -0.2713
   38CHL1   H25 3984   2.407   2.419   5.027 -1.2099 -0.1165  3.4122
   38CHL1   C26 3985   2.540   2.294   4.924 -0.2370 -0.0581  0.2120
   38CHL1  H26A 3986   2.546   2.353   4.831  0.9026 -1.4673 -0.6491
   38CHL1  H26B 3987   2.622   2.339   4.985 -0.9787  0.1523  1.0730
   38CHL1  H26C 3988   2.571   2.187   4.921  1.7596  0.2849  3.5451
   38CHL1   C27 3989   2.291   2.267   4.919  0.3633  0.1218  0.1477
   38CHL1  H27A 3990   2.312   2.160   4.897  0.7371 -0.2369  2.0351
   38CHL1  H27B 3991   2.194   2.290   4.968  0.0971  1.5759 -1.0247
   38CHL1  H27C 3992   2.285   2.318   4.821  2.0641 -2.5695 -1.4758
   39CHL1    C3 3993   2.409   2.093   6.711 -0.2437 -0.1038  0.0395
   39CHL1    H3 3994   2.330   2.160   6.671  0.4445  1.4049  1.0772
   39CHL1    O3 3995   2.375   2.068   6.852 -0.0032  0.0052  0.3305
   39CHL1   H3' 3996   2.351   2.154   6.887  0.9500  0.1111  0.7613
   39CHL1    C4 3997   2.406   1.960   6.631  0.1599 -0.6861 -0.1381
   39CHL1   H4A 3998   2.467   1.890   6.692  0.5344 -0.3849 -0.1674
   39CHL1   H4B 3999   2.305   1.915   6.645 -0.7991  1.7630  1.3258
   39CHL1    C5 4000   2.446   1.970   6.489 -0.4988 -0.7512  0.0648
   39CHL1    C6 4001   2.379   1.917   6.385  0.7646 -0.1124  0.4680
   39CHL1    H6 4002   2.289   1.857   6.406  0.9219  0.0243  1.6403
   39CHL1    C7 4003   2.422   1.931   6.243  0.9247 -1.0484  0.5250
   39CHL1   H7A 4004   2.434   1.832   6.194  0.4499 -0.4631 -0.8127
   39CHL1   H7B 4005   2.347   1.991   6.188  2.1851  0.0487 -0.0382
   39CHL1    C8 4006   2.558   2.012   6.219 -0.7767 -0.3231  0.3545
   39CHL1    H8 4007   2.636   1.934   6.237 -0.2707 -0.2844 -1.4599
   39CHL1   C14 4008   2.570   2.057   6.073 -0.4629 -1.1302 -0.2260
   39CHL1   H14 4009   2.488   2.131   6.060  0.7283 -0.0405 -2.0187
   39CHL1   C15 4010   2.551   1.955   5.966 -0.1741  0.7329 -0.1933
   39CHL1  H15A 4011   2.614   1.866   5.985 -2.1661 -0.4641  1.2118
   39CHL1  H15B 4012   2.442   1.941   5.947 -0.0922  1.5715 -1.4398
   39CHL1   C16 4013   2.593   2.034   5.844 -0.1216 -0.4172  0.6628
   39CHL1  H16A 4014   2.650   1.966   5.777  1.4527  0.5869  0.9363
   39CHL1  H16B 4015   2.502   2.070   5.791 -1.6037 -1.5528  2.3022
   39CHL1   C17 4016   2.677   2.158   5.886 -0.2913 -0.4551 -0.0767
   39CHL1   H17 4017   2.612   2.247   5.880 -0.2451 -0.3775  0.4932
   39CHL1   C13 4018   2.704   2.130   6.038  0.6131  0.6910  0.0704
   39CHL1   C18 4019   2.820   2.026   6.046  0.0879 -0.2005 -0.2139
   39CHL1  H18A 4020   2.803   1.945   5.972 -0.7336  0.6037 -0.9244
   39CHL1  H18B 4021   2.912   2.080   6.015 -1.5580  1.6305 -2.1957
   39CHL1  H18C 4022   2.832   1.980   6.147 -0.6485  0.0947  0.0149
   39CHL1   C12 4023   2.715   2.248   6.132 -1.1604 -0.9027  0.2969
   39CHL1  H12A 4024   2.809   2.306   6.120 -1.0331 -1.1944 -0.1449
   39CHL1  H12B 4025   2.636   2.318   6.096  0.2963 -0.4857 -2.3785
   39CHL1   C11 4026   2.690   2.216   6.276  0.5628 -0.6247  0.1652
   39CHL1  H11A 4027   2.785   2.167   6.308  1.6488  0.8508 -0.6610
   39CHL1  H11B 4028   2.669   2.311   6.330 -1.0787 -1.9866  2.0587
   39CHL1    C9 4029   2.569   2.128   6.316  0.0798 -0.4799  1.2431
   39CHL1    H9 4030   2.474   2.186   6.309 -1.3906 -2.5961  2.7221
   39CHL1   C10 4031   2.561   2.071   6.458  0.0659  0.1626 -0.2444
   39CHL1   C19 4032   2.695   1.987   6.492 -0.0427  0.1298 -0.0472
   39CHL1  H19A 4033   2.705   1.893   6.433  0.1893 -1.0307  1.7633
   39CHL1  H19B 4034   2.786   2.049   6.483 -0.3685  0.7910  1.1488
   39CHL1  H19C 4035   2.693   1.960   6.599 -2.4101  0.6265  0.0801
   39CHL1    C1 4036   2.567   2.192   6.550 -0.1374  0.5384 -0.0036
   39CHL1   H1A 4037   2.665   2.242   6.535  0.4530 -0.5424  0.0843
   39CHL1   H1B 4038   2.492   2.268   6.519  0.1907  1.2906  1.0086
   39CHL1    C2 4039   2.544   2.166   6.703 -0.8395  0.0889  0.6267
   39CHL1   H2A 4040   2.545   2.261   6.760 -0.5402  0.5478 -0.1229
   39CHL1   H2B 4041   2.628   2.105   6.743  0.4069  0.9063 -0.6701
   39CHL1   C20 4042   2.793   2.191   5.788  0.3574 -0.1680  1.0697
   39CHL1   H20 4043   2.862   2.104   5.787  1.5948  0.7425 -0.7963
   39CHL1   C21 4044   2.867   2.317   5.840  0.3010  0.1369  0.2947
   39CHL1  H21A 4045   2.900   2.299   5.945  1.2635 -0.3340 -0.0662
   39CHL1  H21B 4046   2.808   2.410   5.837  1.0873  0.6236 -0.5447
   39CHL1  H21C 4047   2.960   2.339   5.783  0.0757  1.9323  0.5854
   39CHL1   C22 4048   2.741   2.220   5.637  0.4129  0.1998  0.2163
   39CHL1  H22A 4049   2.662   2.151   5.600 -1.0601  1.8886  0.1101
   39CHL1  H22B 4050   2.690   2.318   5.640 -1.0014 -0.4144 -1.9401
   39CHL1   C23 4051   2.859   2.228   5.540  0.3777 -0.0237 -0.5826
   39CHL1  H23A 4052   2.926   2.312   5.570  0.8980 -0.8945  0.7685
   39CHL1  H23B 4053   2.920   2.138   5.561 -0.6022 -0.0854  2.4164
   39CHL1   C24 4054   2.812   2.263   5.391 -0.1795 -0.4584 -0.4507
   39CHL1  H24A 4055   2.739   2.189   5.354  1.2306 -0.9656 -2.3523
   39CHL1  H24B 4056   2.753   2.357   5.380 -0.8762 -1.0017 -1.5302
   39CHL1   C25 4057   2.934   2.255   5.300 -1.0005 -0.0652  0.5001
   39CHL1   H25 4058   2.997   2.169   5.330 -0.3459 -0.1736 -1.0708
   39CHL1   C26 4059   2.887   2.241   5.151 -0.0483  0.5491  0.4156
   39CHL1  H26A 4060   2.976   2.247   5.086  0.1648 -2.1264  0.3213
   39CHL1  H26B 4061   2.837   2.142   5.139  1.7678 -0.2095 -1.5456
   39CHL1  H26C 4062   2.812   2.323   5.143 -1.6388 -0.7710  1.0861
   39CHL1   C27 4063   3.022   2.378   5.320  0.2153 -0.2172  0.2367
   39CHL1  H27A 4064   2.994   2.470   5.265 -0.8281 -1.2030 -0.9355
   39CHL1  H27B 4065   3.038   2.402   5.427  0.0550 -1.2279  0.4988
   39CHL1  H27C 4066   3.119   2.356   5.270 -1.5637  0.1926 -3.7853
   40CHL1    C3 4067   6.286   0.323   6.450  0.7820 -0.0710 -0.8571
   40CHL1    H3 4068   6.231   0.419   6.449 -1.9888 -1.5422  0.3391
   40CHL1    O3 4069   6.331   0.313   6.588  0.2840 -0.2491  0.1920
   40CHL1   H3' 4070   6.376   0.228   6.597 -0.6227 -0.7103  0.4622
   40CHL1    C4 4071   6.187   0.208   6.426  0.1244  0.1949 -0.2241
   40CHL1   H4A 4072   6.227   0.110   6.461 -0.3495 -0.0153 -0.2670
   40CHL1   H4B 4073   6.101   0.223   6.495  0.8218 -0.2165  0.7532
   40CHL1    C5 4074   6.145   0.200   6.281  0.8179 -0.7007 -0.7757
   40CHL1    C6 4075   6.014   0.200   6.246 -0.4279  0.8245  0.4337
   40CHL1    H6 4076   5.931   0.192   6.319  0.5578 -0.1670  1.4881
   40CHL1    C7 4077   5.972   0.160   6.108 -0.1887  0.1819 -0.0256
   40CHL1   H7A 4078   5.885   0.092   6.106  1.3401 -1.9112  1.1502
   40CHL1   H7B 4079   5.942   0.255   6.057 -0.8113  0.3718  0.6867
   40CHL1    C8 4080   6.090   0.112   6.017  0.7626  0.1004  0.0678
   40CHL1    H8 4081   6.108   0.004   6.035  1.0180  0.1173 -0.0805
   40CHL1   C14 4082   6.049   0.135   5.865  0.9374 -0.2642 -0.3892
   40CHL1   H14 4083   6.017   0.241   5.856  2.2573  0.2094  0.1990
   40CHL1   C15 4084   5.912   0.069   5.825  0.7043  0.1656  0.4787
   40CHL1  H15A 4085   5.902  -0.039   5.851  0.6034  0.3351  1.1836
   40CHL1  H15B 4086   5.831   0.129   5.872  0.1573  1.3610 -1.8435
   40CHL1   C16 4087   5.922   0.089   5.672 -0.4262  0.4673 -0.2279
   40CHL1  H16A 4088   5.900  -0.013   5.634 -0.5405  0.2360  0.4498
   40CHL1  H16B 4089   5.844   0.159   5.637 -2.0388 -0.5272  1.2608
   40CHL1   C17 4090   6.069   0.133   5.639  0.0500  0.2218 -0.6966
   40CHL1   H17 4091   6.070   0.243   5.627 -1.5693  0.2307 -0.8822
   40CHL1   C13 4092   6.154   0.105   5.764 -0.2442 -0.0605  0.6239
   40CHL1   C18 4093   6.185  -0.044   5.763  0.3484 -0.1703 -0.0182
   40CHL1  H18A 4094   6.276  -0.069   5.705 -0.0133 -1.6167 -0.0029
   40CHL1  H18B 4095   6.193  -0.084   5.866  0.0471 -1.8901 -0.6358
   40CHL1  H18C 4096   6.100  -0.093   5.711  0.8141  2.4619 -3.6562
   40CHL1   C12 4097   6.277   0.190   5.795 -0.1207 -0.1255  0.2109
   40CHL1  H12A 4098   6.352   0.159   5.719  0.9889  0.7466  0.9126
   40CHL1  H12B 4099   6.260   0.299   5.785  0.0333 -0.1194 -0.0005
   40CHL1   C11 4100   6.327   0.154   5.938 -0.8950  0.0309 -0.2529
   40CHL1  H11A 4101   6.352   0.046   5.941 -0.0025  0.2542  1.0151
   40CHL1  H11B 4102   6.414   0.219   5.959 -2.2011  1.9548 -0.5085
   40CHL1    C9 4103   6.218   0.192   6.038  0.0797  0.1686  0.1454
   40CHL1    H9 4104   6.184   0.292   6.004 -2.7067 -0.6658  0.2214
   40CHL1   C10 4105   6.260   0.190   6.185 -0.7437 -0.3820  0.2031
   40CHL1   C19 4106   6.339   0.055   6.210  0.7172  0.1141  0.1283
   40CHL1  H19A 4107   6.433   0.066   6.152  1.2956  1.5884  1.2594
   40CHL1  H19B 4108   6.367   0.042   6.317  1.1959  1.4896  0.1922
   40CHL1  H19C 4109   6.288  -0.035   6.170  0.7907 -1.5721  3.5072
   40CHL1    C1 4110   6.359   0.309   6.214  0.4578  0.4235  0.0713
   40CHL1   H1A 4111   6.448   0.299   6.148  1.6962 -1.7033  1.9084
   40CHL1   H1B 4112   6.320   0.408   6.185  1.4509  1.1338  1.0798
   40CHL1    C2 4113   6.406   0.317   6.356  0.7887 -0.2314 -0.5766
   40CHL1   H2A 4114   6.471   0.406   6.367 -0.0698  0.2551  0.7883
   40CHL1   H2B 4115   6.471   0.232   6.385 -0.5741 -1.5453 -1.2515
   40CHL1   C20 4116   6.121   0.076   5.505 -0.3138  0.4792 -0.1371
   40CHL1   H20 4117   6.118  -0.035   5.514  0.2169  0.4356 -0.4418
   40CHL1   C21 4118   6.263   0.128   5.465 -0.3173  0.0653  0.8003
   40CHL1  H21A 4119   6.264   0.239   5.470 -1.1916  0.0993  0.2266
   40CHL1  H21B 4120   6.290   0.107   5.360 -1.3390  1.2647  0.2788
   40CHL1  H21C 4121   6.341   0.082   5.530  0.2663 -1.9595 -1.2237
   40CHL1   C22 4122   6.018   0.107   5.384 -0.4249 -0.0913 -0.0467
   40CHL1  H22A 4123   5.914   0.101   5.422 -0.5458 -0.6806 -0.4650
   40CHL1  H22B 4124   6.037   0.213   5.356  1.0690 -0.8346 -2.0526
   40CHL1   C23 4125   6.043   0.026   5.251 -0.1649 -0.7785 -1.0077
   40CHL1  H23A 4126   6.136   0.054   5.198 -0.8026  3.0974 -0.3917
   40CHL1  H23B 4127   6.042  -0.079   5.286 -0.2607 -0.2565  0.6685
   40CHL1   C24 4128   5.924   0.033   5.160  0.2578 -0.2375  0.5059
   40CHL1  H24A 4129   5.832   0.016   5.219  0.0085  0.9218  0.4794
   40CHL1  H24B 4130   5.926   0.141   5.134  1.0413 -0.4756 -0.5133
   40CHL1   C25 4131   5.935  -0.060   5.038  0.1144  0.2361 -0.0110
   40CHL1   H25 4132   5.894  -0.156   5.077  0.7739  1.3518  3.8911
   40CHL1   C26 4133   5.855  -0.016   4.922  0.1546  0.0692 -0.1832
   40CHL1  H26A 4134   5.891   0.077   4.872  0.2400  1.3117  2.0876
   40CHL1  H26B 4135   5.853  -0.099   4.848  0.0606 -0.2768  0.2064
   40CHL1  H26C 4136   5.753   0.014   4.954  0.0397 -0.5049 -0.0069
   40CHL1   C27 4137   6.076  -0.092   4.987 -0.2177 -0.2628  0.1975
   40CHL1  H27A 4138   6.145  -0.132   5.064  3.3147  1.6599 -1.6865
   40CHL1  H27B 4139   6.075  -0.179   4.918 -2.0526 -0.2265  0.1332
   40CHL1  H27C 4140   6.122  -0.005   4.936  0.9949 -1.5875 -1.0678
   41CHL1    C3 4141   4.352   1.201   6.436  0.2132  0.3098  0.5865
   41CHL1    H3 4142   4.378   1.309   6.436 -0.0715  0.3801  0.4527
   41CHL1    O3 4143   4.306   1.175   6.562  0.3620  0.0574 -0.1004
   41CHL1   H3' 4144   4.373   1.199   6.627 -0.4584  0.1873  0.7226
   41CHL1    C4 4145   4.246   1.179   6.334  0.9023 -0.1506  0.5710
   41CHL1   H4A 4146   4.203   1.076   6.334 -1.3695  0.6935  2.5468
   41CHL1   H4B 4147   4.167   1.256   6.344  3.3897  2.7166 -0.3869
   41CHL1    C5 4148   4.301   1.210   6.193  0.1494  0.4415 -0.1829
   41CHL1    C6 4149   4.247   1.301   6.112 -0.0835 -0.4776 -0.0857
   41CHL1    H6 4150   4.157   1.356   6.146 -0.1170 -0.3858 -0.3199
   41CHL1    C7 4151   4.293   1.320   5.971  0.3024 -0.0707 -0.4039
   41CHL1   H7A 4152   4.215   1.352   5.899  0.0784  1.5439  0.5099
   41CHL1   H7B 4153   4.373   1.398   5.975  0.4690 -0.2699  0.2647
   41CHL1    C8 4154   4.366   1.201   5.909  1.2206 -0.6854 -0.0983
   41CHL1    H8 4155   4.301   1.115   5.883 -2.1973  2.1540 -1.8148
   41CHL1   C14 4156   4.442   1.246   5.776  0.5512 -0.1372  0.1977
   41CHL1   H14 4157   4.524   1.314   5.807  0.6689 -0.0542 -0.2897
   41CHL1   C15 4158   4.362   1.321   5.668 -0.4573  0.0093  0.2970
   41CHL1  H15A 4159   4.260   1.277   5.664 -1.2211  1.7699 -2.0951
   41CHL1  H15B 4160   4.353   1.429   5.695  0.5342  0.4185 -0.8835
   41CHL1   C16 4161   4.442   1.303   5.537  0.6933 -0.3849 -0.0073
   41CHL1  H16A 4162   4.381   1.253   5.459  0.2620 -2.2468  1.4307
   41CHL1  H16B 4163   4.490   1.393   5.493 -0.7702  0.4185 -0.0138
   41CHL1   C17 4164   4.554   1.202   5.572  0.0443 -0.1339  0.3552
   41CHL1   H17 4165   4.642   1.266   5.597  1.5661 -2.0597  0.1592
   41CHL1   C13 4166   4.507   1.131   5.703 -0.0644 -0.4417 -0.0909
   41CHL1   C18 4167   4.407   1.020   5.663 -0.1966 -0.0113 -0.5449
   41CHL1  H18A 4168   4.335   0.989   5.742  2.5760 -0.0064  2.1470
   41CHL1  H18B 4169   4.349   1.050   5.573 -0.9268 -0.1299 -0.1247
   41CHL1  H18C 4170   4.471   0.930   5.647 -1.0377 -0.4188 -1.7865
   41CHL1   C12 4171   4.615   1.078   5.799 -1.0498 -0.0529  0.4281
   41CHL1  H12A 4172   4.670   0.994   5.751 -2.0007  0.0015 -0.8314
   41CHL1  H12B 4173   4.684   1.164   5.808  0.7260 -1.5818  2.7695
   41CHL1   C11 4174   4.570   1.044   5.946 -0.4963 -0.0414 -0.8734
   41CHL1  H11A 4175   4.522   0.945   5.934  1.2995 -0.9097 -1.0501
   41CHL1  H11B 4176   4.657   1.038   6.015 -0.8691  0.4407 -0.3479
   41CHL1    C9 4177   4.479   1.160   6.010 -0.1858 -0.7891 -0.3750
   41CHL1    H9 4178   4.551   1.244   6.013  0.0844 -1.0366  1.1966
   41CHL1   C10 4179   4.423   1.129   6.152  1.1080  0.5495 -0.5257
   41CHL1   C19 4180   4.380   0.979   6.155  0.6620  0.3681  0.1568
   41CHL1  H19A 4181   4.353   0.946   6.258  2.1698  0.6461  0.6700
   41CHL1  H19B 4182   4.289   0.974   6.091  0.6231 -0.3478  0.2600
   41CHL1  H19C 4183   4.458   0.908   6.122 -0.3489 -1.3576  1.3040
   41CHL1    C1 4184   4.529   1.156   6.260  0.3099 -0.5158  0.1940
   41CHL1   H1A 4185   4.617   1.093   6.234  0.2635 -0.4020 -0.2589
   41CHL1   H1B 4186   4.565   1.261   6.256  0.4036 -0.4939  1.2976
   41CHL1    C2 4187   4.487   1.123   6.404 -0.2992 -0.9497  0.2700
   41CHL1   H2A 4188   4.560   1.158   6.480  0.6313 -3.4180  0.6008
   41CHL1   H2B 4189   4.474   1.013   6.404 -1.8311 -0.7947  1.0593
   41CHL1   C20 4190   4.602   1.127   5.447 -0.2537  0.6939  0.6481
   41CHL1   H20 4191   4.513   1.077   5.403  1.4198 -0.6676 -1.3878
   41CHL1   C21 4192   4.713   1.023   5.487  1.0766  0.1800 -0.0808
   41CHL1  H21A 4193   4.794   1.066   5.550  1.5085 -1.7575  0.7745
   41CHL1  H21B 4194   4.749   0.979   5.392 -0.5001 -1.2217 -0.0839
   41CHL1  H21C 4195   4.663   0.942   5.545 -0.2957  0.6077 -0.6240
   41CHL1   C22 4196   4.657   1.212   5.329 -0.6320  0.4893  0.0711
   41CHL1  H22A 4197   4.602   1.307   5.307 -0.2121  0.6888 -0.1239
   41CHL1  H22B 4198   4.757   1.246   5.363 -0.9251  1.0009  0.4531
   41CHL1   C23 4199   4.666   1.142   5.193  0.2266 -0.5815  0.5601
   41CHL1  H23A 4200   4.750   1.070   5.207  2.3281  2.2979  4.7618
   41CHL1  H23B 4201   4.572   1.086   5.173  0.5340 -0.4606 -1.4618
   41CHL1   C24 4202   4.704   1.241   5.075 -0.4246 -0.1199  0.1905
   41CHL1  H24A 4203   4.614   1.301   5.052 -1.1682 -1.5369 -0.7577
   41CHL1  H24B 4204   4.783   1.312   5.107 -1.3480  0.9321  0.1742
   41CHL1   C25 4205   4.757   1.166   4.947  0.3195  0.4670 -0.5134
   41CHL1   H25 4206   4.835   1.096   4.984 -1.6551 -0.3753  2.3818
   41CHL1   C26 4207   4.643   1.089   4.877  0.4505  0.4836 -0.0488
   41CHL1  H26A 4208   4.581   1.034   4.952  0.8055 -0.5573 -0.4973
   41CHL1  H26B 4209   4.574   1.157   4.824 -1.8147 -1.6607 -0.0711
   41CHL1  H26C 4210   4.677   1.014   4.802 -0.6884 -1.2524  1.0966
   41CHL1   C27 4211   4.818   1.277   4.849  0.3723  0.6469 -0.5984
   41CHL1  H27A 4212   4.735   1.349   4.829  1.0375  1.9432  1.1331
   41CHL1  H27B 4213   4.901   1.325   4.904 -1.0493 -0.2530  2.5438
   41CHL1  H27C 4214   4.862   1.228   4.759  0.2076 -0.5174 -0.0610
   42CHL1    C3 4215   4.923   2.479   6.658 -0.1769 -0.0791  0.0217
   42CHL1    H3 4216   5.020   2.534   6.653  0.8711 -1.9263 -1.2505
   42CHL1    O3 4217   4.893   2.455   6.795  0.3816  0.2750  0.2030
   42CHL1   H3' 4218   4.954   2.387   6.823 -0.4911 -1.6442 -2.1809
   42CHL1    C4 4219   4.823   2.576   6.587 -0.2780  0.7324 -1.5217
   42CHL1   H4A 4220   4.727   2.521   6.603 -0.2818  0.5127 -2.2646
   42CHL1   H4B 4221   4.801   2.671   6.640 -1.2191 -0.4900  0.4152
   42CHL1    C5 4222   4.854   2.596   6.442  0.0213 -0.5495  0.1058
   42CHL1    C6 4223   4.873   2.708   6.377 -0.0636 -0.0150 -0.2808
   42CHL1    H6 4224   4.866   2.797   6.440 -1.6204 -0.0101 -0.4389
   42CHL1    C7 4225   4.876   2.732   6.227 -0.0584 -0.0453 -0.2310
   42CHL1   H7A 4226   4.807   2.811   6.191  0.8480  0.7088 -0.3760
   42CHL1   H7B 4227   4.975   2.768   6.191 -0.7955 -0.1110 -2.4774
   42CHL1    C8 4228   4.851   2.594   6.154  0.2047  0.3711  0.4592
   42CHL1    H8 4229   4.742   2.571   6.155  0.5987 -1.6391  1.0193
   42CHL1   C14 4230   4.904   2.613   6.013  0.2644 -0.2467 -0.7377
   42CHL1   H14 4231   5.012   2.634   6.029 -0.2826  1.5048  1.0644
   42CHL1   C15 4232   4.847   2.727   5.927 -0.2829 -0.1288 -0.1622
   42CHL1  H15A 4233   4.736   2.729   5.927 -0.2952 -0.4466 -0.9550
   42CHL1  H15B 4234   4.890   2.824   5.958 -0.8659 -0.0568  0.4312
   42CHL1   C16 4235   4.897   2.693   5.786 -0.7453 -0.2822  0.7404
   42CHL1  H16A 4236   4.823   2.699   5.703  0.4768 -0.7565 -0.4160
   42CHL1  H16B 4237   4.986   2.758   5.770 -1.6505  0.7021 -0.4938
   42CHL1   C17 4238   4.953   2.546   5.787  0.1006 -0.5253  0.6133
   42CHL1   H17 4239   5.064   2.551   5.801  0.2092 -0.4142 -0.2310
   42CHL1   C13 4240   4.902   2.491   5.918 -0.2294  0.8764  0.1675
   42CHL1   C18 4241   4.753   2.455   5.904 -0.3226  1.0926 -0.4852
   42CHL1  H18A 4242   4.751   2.368   5.834  0.9438  0.4373  0.2540
   42CHL1  H18B 4243   4.716   2.428   6.006 -1.9735  0.3067 -1.2464
   42CHL1  H18C 4244   4.688   2.536   5.864 -1.2420  0.5864 -0.0557
   42CHL1   C12 4245   4.974   2.379   5.994  0.5182 -0.1670 -0.1258
   42CHL1  H12A 4246   4.959   2.287   5.932 -1.5410 -0.1550  0.2834
   42CHL1  H12B 4247   5.082   2.407   5.997  0.8979 -1.4813 -0.7254
   42CHL1   C11 4248   4.929   2.353   6.139 -0.2456  0.6249  0.2147
   42CHL1  H11A 4249   4.829   2.307   6.128 -0.1475  0.1250  1.2683
   42CHL1  H11B 4250   4.991   2.275   6.187 -1.2307 -0.2720  0.0606
   42CHL1    C9 4251   4.925   2.478   6.226  0.1337  0.1928 -0.2355
   42CHL1    H9 4252   5.027   2.512   6.253 -0.9837  0.4923  4.4589
   42CHL1   C10 4253   4.867   2.452   6.371 -0.6561 -0.6696 -0.6336
   42CHL1   C19 4254   4.730   2.388   6.368  0.4362  0.3665 -0.2088
   42CHL1  H19A 4255   4.674   2.366   6.462 -0.3336  1.4188 -0.3987
   42CHL1  H19B 4256   4.659   2.443   6.302 -2.3672 -2.2238  0.4163
   42CHL1  H19C 4257   4.736   2.285   6.328 -2.5140 -0.4949  1.2857
   42CHL1    C1 4258   4.966   2.359   6.444  0.2727 -0.0985 -0.3295
   42CHL1   H1A 4259   4.967   2.259   6.397  1.8438  0.2424 -1.0833
   42CHL1   H1B 4260   5.069   2.395   6.425  0.4476 -1.2449 -1.6619
   42CHL1    C2 4261   4.934   2.344   6.594  0.6474 -0.3637  0.0285
   42CHL1   H2A 4262   5.010   2.279   6.642 -0.1481 -0.2865  1.4556
   42CHL1   H2B 4263   4.837   2.290   6.598 -0.5637  1.7527  0.8020
   42CHL1   C20 4264   4.928   2.471   5.658 -0.9390  0.3812  0.3733
   42CHL1   H20 4265   4.817   2.466   5.647 -0.9302  1.0290 -0.1025
   42CHL1   C21 4266   4.979   2.322   5.671  0.0019  0.0261  0.1619
   42CHL1  H21A 4267   5.083   2.334   5.707  1.1559  1.7492 -3.3075
   42CHL1  H21B 4268   4.966   2.281   5.569  0.3918  0.3859 -0.0380
   42CHL1  H21C 4269   4.919   2.266   5.747 -0.1555  0.5483  0.4319
   42CHL1   C22 4270   4.985   2.542   5.534  0.0403  0.0472  0.8450
   42CHL1  H22A 4271   4.943   2.499   5.441 -1.8308  3.3319 -0.0133
   42CHL1  H22B 4272   4.947   2.647   5.530  0.7033  0.2536 -1.2993
   42CHL1   C23 4273   5.137   2.545   5.514 -0.9980 -0.2144 -0.3441
   42CHL1  H23A 4274   5.180   2.597   5.603  1.3671  1.0453 -2.1217
   42CHL1  H23B 4275   5.167   2.439   5.510 -0.2474 -0.1067  1.2940
   42CHL1   C24 4276   5.193   2.625   5.397  0.4097  0.1362 -1.1448
   42CHL1  H24A 4277   5.182   2.561   5.307 -1.3363 -2.6137  0.8910
   42CHL1  H24B 4278   5.145   2.725   5.396  0.3088  0.1303  0.4701
   42CHL1   C25 4279   5.346   2.654   5.407 -0.1042  0.0518  0.7276
   42CHL1   H25 4280   5.372   2.723   5.490  0.1348 -0.6724  1.2673
   42CHL1   C26 4281   5.434   2.528   5.430  0.1565 -1.2044  0.3959
   42CHL1  H26A 4282   5.542   2.553   5.419 -0.0809  1.3503  2.9045
   42CHL1  H26B 4283   5.433   2.491   5.535  2.5053 -0.9349  0.5717
   42CHL1  H26C 4284   5.401   2.447   5.361 -1.6555 -0.1144 -0.0829
   42CHL1   C27 4285   5.393   2.721   5.284  0.3492  0.0628  0.0838
   42CHL1  H27A 4286   5.357   2.669   5.193  1.7342  0.1258 -0.5225
   42CHL1  H27B 4287   5.353   2.824   5.272  1.2408  0.2960 -1.0786
   42CHL1  H27C 4288   5.503   2.731   5.281  0.2237  1.3901 -1.9315
   43CHL1    C3 4289   4.109   3.415   6.363  0.4281 -0.8942 -0.1711
   43CHL1    H3 4290   4.218   3.426   6.375  0.2583 -0.4468  1.1346
   43CHL1    O3 4291   4.053   3.385   6.490  0.5580 -0.4358  0.1100
   43CHL1   H3' 4292   4.092   3.302   6.518 -2.3845 -1.9741  0.0325
   43CHL1    C4 4293   4.057   3.552   6.314  0.0669 -0.1059 -1.2667
   43CHL1   H4A 4294   3.947   3.555   6.299  0.0665 -0.9436 -1.4576
   43CHL1   H4B 4295   4.097   3.618   6.395  0.0543 -1.2368 -0.3063
   43CHL1    C5 4296   4.104   3.597   6.180  0.1467 -0.3257 -0.1431
   43CHL1    C6 4297   4.165   3.717   6.156  0.3630  0.4006  0.6594
   43CHL1    H6 4298   4.190   3.787   6.237  1.4014  0.2322  0.4962
   43CHL1    C7 4299   4.203   3.769   6.016 -0.3161  0.2514 -0.7505
   43CHL1   H7A 4300   4.182   3.878   6.017  0.5778  0.6965  5.2683
   43CHL1   H7B 4301   4.313   3.760   6.002 -0.2141 -1.5033  0.8277
   43CHL1    C8 4302   4.146   3.679   5.897 -0.0961 -0.1977  0.0365
   43CHL1    H8 4303   4.038   3.704   5.884  0.0307 -0.3819 -1.6766
   43CHL1   C14 4304   4.229   3.712   5.762 -0.1251  0.4292 -0.4655
   43CHL1   H14 4305   4.335   3.687   5.780  0.1773  1.9803  0.0122
   43CHL1   C15 4306   4.228   3.855   5.712  0.1176  0.2430 -0.3316
   43CHL1  H15A 4307   4.128   3.902   5.722  0.4967  0.7242  1.6984
   43CHL1  H15B 4308   4.299   3.915   5.773  1.4789 -1.0857 -0.5523
   43CHL1   C16 4309   4.268   3.847   5.568 -0.4216  0.3021 -0.3177
   43CHL1  H16A 4310   4.183   3.897   5.516  0.9585  1.3491 -1.6305
   43CHL1  H16B 4311   4.361   3.902   5.543  1.0150 -2.5204 -1.6872
   43CHL1   C17 4312   4.281   3.702   5.532 -0.3854 -0.4519 -1.0405
   43CHL1   H17 4313   4.386   3.671   5.549  0.3418 -0.3763 -4.5947
   43CHL1   C13 4314   4.195   3.622   5.642  0.6513 -0.2473  0.0672
   43CHL1   C18 4315   4.047   3.640   5.599  0.3693  0.6331  0.4233
   43CHL1  H18A 4316   3.983   3.588   5.673  1.1381 -0.9880 -0.0241
   43CHL1  H18B 4317   4.008   3.744   5.596 -0.4520  0.3012 -1.3291
   43CHL1  H18C 4318   4.033   3.602   5.496  1.8467  1.6701 -0.2049
   43CHL1   C12 4319   4.228   3.484   5.685  0.0012 -0.6833 -0.0834
   43CHL1  H12A 4320   4.200   3.407   5.610 -2.6343  1.0727 -1.0687
   43CHL1  H12B 4321   4.338   3.476   5.689  0.2042  0.2767 -2.1661
   43CHL1   C11 4322   4.154   3.433   5.816  0.2690 -0.4719 -0.7493
   43CHL1  H11A 4323   4.046   3.413   5.796  0.6433 -2.1466 -1.1898
   43CHL1  H11B 4324   4.197   3.340   5.858  1.0596  0.4550  0.5770
   43CHL1    C9 4325   4.168   3.533   5.937  0.6445  0.1414  0.1519
   43CHL1    H9 4326   4.278   3.514   5.938  0.8942  1.1621 -2.1725
   43CHL1   C10 4327   4.096   3.488   6.066  0.2570 -0.8780 -0.2083
   43CHL1   C19 4328   3.947   3.480   6.032 -0.4187  0.3368  0.4110
   43CHL1  H19A 4329   3.911   3.564   5.969 -0.6590 -0.6508 -0.8048
   43CHL1  H19B 4330   3.928   3.385   5.978  0.1036 -0.6825  1.9613
   43CHL1  H19C 4331   3.876   3.474   6.117  0.9346  0.1893  1.5725
   43CHL1    C1 4332   4.152   3.353   6.119 -0.7182 -1.0433  0.3630
   43CHL1   H1A 4333   4.126   3.282   6.037 -0.1718  1.0524 -1.7421
   43CHL1   H1B 4334   4.263   3.357   6.118 -0.7506  0.1606  0.1111
   43CHL1    C2 4335   4.085   3.311   6.255  0.2878  0.1965 -1.0084
   43CHL1   H2A 4336   4.130   3.213   6.279  1.8568  1.0544 -0.3288
   43CHL1   H2B 4337   3.975   3.306   6.238 -0.1253  1.6178  0.9127
   43CHL1   C20 4338   4.268   3.679   5.381  0.1115  0.0588  0.6154
   43CHL1   H20 4339   4.162   3.704   5.356 -0.7279 -0.8339  2.9854
   43CHL1   C21 4340   4.291   3.534   5.346  0.2704 -0.5679  0.0053
   43CHL1  H21A 4341   4.209   3.475   5.393  0.6270 -1.6929 -0.7273
   43CHL1  H21B 4342   4.390   3.496   5.381 -0.9909 -1.7285  2.5875
   43CHL1  H21C 4343   4.279   3.531   5.236  0.0037 -0.0726  0.0213
   43CHL1   C22 4344   4.365   3.775   5.307 -0.2222  0.1237 -0.2167
   43CHL1  H22A 4345   4.347   3.883   5.326  0.3441  0.2006 -0.0796
   43CHL1  H22B 4346   4.471   3.746   5.325  0.0592  1.2163 -0.0035
   43CHL1   C23 4347   4.375   3.753   5.153 -0.9183  0.1507 -0.1491
   43CHL1  H23A 4348   4.404   3.647   5.139 -0.3562  0.1133  1.1524
   43CHL1  H23B 4349   4.274   3.763   5.107 -0.0149  0.0819 -2.2324
   43CHL1   C24 4350   4.473   3.845   5.080 -0.3876  0.5145  0.4751
   43CHL1  H24A 4351   4.437   3.951   5.083 -0.9967  0.3021  0.8427
   43CHL1  H24B 4352   4.562   3.853   5.145 -0.3664 -0.5039  0.5816
   43CHL1   C25 4353   4.495   3.817   4.926 -0.4696 -0.0735  0.5743
   43CHL1   H25 4354   4.393   3.791   4.889  0.2257  1.0587 -2.5004
   43CHL1   C26 4355   4.551   3.929   4.850  0.2032 -0.0182 -0.6378
   43CHL1  H26A 4356   4.573   3.883   4.752 -2.1429 -2.7350 -0.0114
   43CHL1  H26B 4357   4.468   4.003   4.840  0.0503 -0.1516 -0.3602
   43CHL1  H26C 4358   4.647   3.974   4.884  0.2305 -0.8205  0.3859
   43CHL1   C27 4359   4.587   3.693   4.912  0.1460  0.0843 -0.5016
   43CHL1  H27A 4360   4.694   3.708   4.939 -0.3508 -2.2672  3.6365
   43CHL1  H27B 4361   4.560   3.607   4.978 -1.9005 -0.6501 -2.1569
   43CHL1  H27C 4362   4.588   3.658   4.807  0.0432  1.5219 -0.9917
   44CHL1    C3 4363   3.405   4.762   6.646 -1.2690 -0.2803 -0.6556
   44CHL1    H3 4364   3.306   4.812   6.637 -0.5537  1.1947 -0.6658
   44CHL1    O3 4365   3.453   4.812   6.776 -0.8659 -0.7461 -0.2471
   44CHL1   H3' 4366   3.528   4.761   6.806  0.0491  0.6224 -0.1337
   44CHL1    C4 4367   3.384   4.605   6.662 -0.8326 -0.6337  0.0046
   44CHL1   H4A 4368   3.468   4.571   6.726 -1.4738  0.0411  1.2536
   44CHL1   H4B 4369   3.292   4.596   6.724 -1.2040 -0.8872 -0.5730
   44CHL1    C5 4370   3.377   4.539   6.516  0.6534  0.2164 -0.4490
   44CHL1    C6 4371   3.275   4.456   6.489  0.1371  0.6719  0.3076
   44CHL1    H6 4372   3.196   4.430   6.560 -1.7922  0.6684 -1.7242
   44CHL1    C7 4373   3.259   4.384   6.362 -0.2459  0.0719  0.0744
   44CHL1   H7A 4374   3.236   4.276   6.374 -0.8550  0.2337  0.4057
   44CHL1   H7B 4375   3.171   4.419   6.304  0.3752 -0.4549 -1.2280
   44CHL1    C8 4376   3.384   4.390   6.266  0.1291  0.4374  0.0220
   44CHL1    H8 4377   3.450   4.313   6.311 -1.5393 -0.0857  1.7122
   44CHL1   C14 4378   3.341   4.361   6.120 -0.1953 -0.1386  0.1232
   44CHL1   H14 4379   3.272   4.444   6.091  1.5480  0.8002 -1.5634
   44CHL1   C15 4380   3.262   4.229   6.099 -1.0697 -0.5295  0.3604
   44CHL1  H15A 4381   3.296   4.135   6.148 -0.7370 -0.7351 -0.2524
   44CHL1  H15B 4382   3.157   4.254   6.127 -0.9133  4.6090 -2.4448
   44CHL1   C16 4383   3.269   4.207   5.945  0.1671 -0.2226  0.5107
   44CHL1  H16A 4384   3.305   4.106   5.916 -1.0083 -0.0516 -1.7754
   44CHL1  H16B 4385   3.172   4.230   5.897 -0.3783 -2.5989  0.3575
   44CHL1   C17 4386   3.378   4.305   5.887  0.1568 -0.0579  0.4251
   44CHL1   H17 4387   3.325   4.394   5.847 -1.5425 -1.0555  0.3656
   44CHL1   C13 4388   3.453   4.356   6.019  0.7870  0.0604  0.2594
   44CHL1   C18 4389   3.557   4.239   6.055 -0.6505  0.4990 -0.3749
   44CHL1  H18A 4390   3.525   4.133   6.054  2.9115 -0.6767 -0.7987
   44CHL1  H18B 4391   3.642   4.247   5.984 -0.6734 -1.5321 -0.6884
   44CHL1  H18C 4392   3.604   4.259   6.153  2.0473  0.1522 -1.5193
   44CHL1   C12 4393   3.510   4.500   6.022 -0.4162 -0.0091  0.7566
   44CHL1  H12A 4394   3.608   4.505   5.970 -1.4071 -0.8254 -1.2828
   44CHL1  H12B 4395   3.432   4.567   5.980 -2.6551 -3.0869 -0.4110
   44CHL1   C11 4396   3.548   4.560   6.157  0.4219 -0.4137 -0.1454
   44CHL1  H11A 4397   3.647   4.520   6.187 -1.0005 -4.3141 -0.0350
   44CHL1  H11B 4398   3.554   4.669   6.137 -0.3738 -0.6802 -2.1576
   44CHL1    C9 4399   3.435   4.531   6.268  0.4698 -0.9569  0.7213
   44CHL1    H9 4400   3.353   4.599   6.236  1.2607 -0.5807 -0.5748
   44CHL1   C10 4401   3.475   4.581   6.410  0.5530 -0.1643  1.0590
   44CHL1   C19 4402   3.609   4.509   6.445  0.2489 -0.6670 -0.6764
   44CHL1  H19A 4403   3.692   4.571   6.405  0.2467 -0.4380 -0.3297
   44CHL1  H19B 4404   3.619   4.507   6.556  0.9857  1.8808 -0.6412
   44CHL1  H19C 4405   3.607   4.403   6.411 -1.1700 -0.2100 -2.1467
   44CHL1    C1 4406   3.476   4.738   6.409 -0.4513 -0.3839 -0.1675
   44CHL1   H1A 4407   3.551   4.777   6.337  0.6458  0.4921  1.3839
   44CHL1   H1B 4408   3.376   4.765   6.368 -0.2017  3.6563  1.3577
   44CHL1    C2 4409   3.506   4.811   6.543 -0.4903 -0.1790 -0.3291
   44CHL1   H2A 4410   3.499   4.921   6.532  2.6696  0.3131  1.2342
   44CHL1   H2B 4411   3.603   4.783   6.589 -0.2087 -0.0924 -0.8628
   44CHL1   C20 4412   3.457   4.238   5.776 -1.3398 -0.2996  0.6997
   44CHL1   H20 4413   3.511   4.152   5.821 -0.8084  0.3363  1.3009
   44CHL1   C21 4414   3.574   4.342   5.741  0.4396  0.8259  0.2714
   44CHL1  H21A 4415   3.637   4.295   5.663  0.1751 -2.2912  1.7944
   44CHL1  H21B 4416   3.629   4.375   5.832 -0.8530 -0.4711  1.5762
   44CHL1  H21C 4417   3.538   4.435   5.691  1.5356  1.7745  1.1745
   44CHL1   C22 4418   3.366   4.192   5.659 -0.7221  0.4773 -0.8021
   44CHL1  H22A 4419   3.287   4.121   5.692 -3.4773  2.5248 -2.5203
   44CHL1  H22B 4420   3.311   4.282   5.624  0.7436  0.8733 -2.2645
   44CHL1   C23 4421   3.439   4.133   5.540 -0.2016 -0.2374 -0.2830
   44CHL1  H23A 4422   3.523   4.196   5.502 -0.6087  0.2637 -0.3762
   44CHL1  H23B 4423   3.494   4.047   5.584  0.5268  0.3498 -0.0073
   44CHL1   C24 4424   3.345   4.090   5.428  0.1005 -0.2131  0.1688
   44CHL1  H24A 4425   3.264   4.039   5.484 -1.1082 -0.4673 -1.7218
   44CHL1  H24B 4426   3.314   4.182   5.374  1.0408 -0.0678 -0.1486
   44CHL1   C25 4427   3.396   3.992   5.321  0.0428  0.1081  0.4099
   44CHL1   H25 4428   3.499   4.025   5.296  0.5557  0.1382  2.4251
   44CHL1   C26 4429   3.410   3.847   5.363 -0.6405 -0.3266  0.3597
   44CHL1  H26A 4430   3.477   3.814   5.446 -0.5838 -1.3099 -0.0590
   44CHL1  H26B 4431   3.318   3.791   5.390 -0.3085  0.4702  3.6656
   44CHL1  H26C 4432   3.453   3.793   5.276 -1.9189  1.2047 -1.2800
   44CHL1   C27 4433   3.295   3.994   5.207  0.1237  0.4694 -0.4467
   44CHL1  H27A 4434   3.313   3.917   5.129 -0.4558 -0.1380  0.0076
   44CHL1  H27B 4435   3.195   3.967   5.245  1.0637 -1.8022  0.5934
   44CHL1  H27C 4436   3.288   4.088   5.148  0.1508 -0.6441 -2.3435
   45CHL1    C3 4437   3.736   0.015   6.628  0.1588  0.5059 -0.2998
   45CHL1    H3 4438   3.740   0.123   6.655 -0.7048  0.5104 -0.1692
   45CHL1    O3 4439   3.769  -0.052   6.748  0.0813  0.1261  0.3270
   45CHL1   H3' 4440   3.826   0.004   6.801 -0.0994 -0.2036  0.8839
   45CHL1    C4 4441   3.600  -0.037   6.584  0.5387 -0.2254  0.1094
   45CHL1   H4A 4442   3.603  -0.148   6.585 -0.2271 -0.2488  0.1166
   45CHL1   H4B 4443   3.515  -0.020   6.653  0.0183  1.2413 -0.8540
   45CHL1    C5 4444   3.567   0.009   6.442 -0.0723  0.0338  0.2914
   45CHL1    C6 4445   3.451   0.077   6.426  0.3185  0.4938  0.0639
   45CHL1    H6 4446   3.384   0.088   6.513 -0.0764 -1.5301  0.0442
   45CHL1    C7 4447   3.400   0.123   6.288 -0.7657 -0.2705  0.1934
   45CHL1   H7A 4448   3.304   0.069   6.273 -1.3227  0.5610  0.7328
   45CHL1   H7B 4449   3.382   0.232   6.292  0.5032 -0.0392  0.1035
   45CHL1    C8 4450   3.488   0.078   6.167 -0.3308  0.6287 -0.1937
   45CHL1    H8 4451   3.442  -0.021   6.146 -0.5308  0.4358  1.0913
   45CHL1   C14 4452   3.457   0.170   6.047 -1.2099  0.2003  0.0643
   45CHL1   H14 4453   3.518   0.260   6.069  1.3469 -1.2981 -0.4495
   45CHL1   C15 4454   3.315   0.223   6.025  0.7018  0.1799  0.2941
   45CHL1  H15A 4455   3.255   0.131   6.042  1.2878 -0.5069 -1.2060
   45CHL1  H15B 4456   3.297   0.311   6.091 -0.5248  0.1752 -0.0057
   45CHL1   C16 4457   3.317   0.258   5.878  0.3821  0.3007 -0.2023
   45CHL1  H16A 4458   3.237   0.206   5.822  0.0670  1.1055 -0.5266
   45CHL1  H16B 4459   3.308   0.369   5.884  1.0789  0.2933  2.4879
   45CHL1   C17 4460   3.461   0.212   5.820 -0.5232 -1.1730  0.3477
   45CHL1   H17 4461   3.526   0.301   5.833 -1.7353 -0.5152  2.2905
   45CHL1   C13 4462   3.516   0.103   5.918  0.0793 -0.3649  0.7142
   45CHL1   C18 4463   3.444  -0.032   5.879  0.5001  0.8461 -0.1480
   45CHL1  H18A 4464   3.479  -0.110   5.950  1.5564  0.3226 -1.2021
   45CHL1  H18B 4465   3.335  -0.013   5.886  0.6341  1.5372  0.1212
   45CHL1  H18C 4466   3.474  -0.066   5.777 -1.9450 -0.8145 -0.4034
   45CHL1   C12 4467   3.667   0.083   5.940 -0.2772 -0.1442  0.7487
   45CHL1  H12A 4468   3.711   0.024   5.857  0.8436 -0.2216  1.3815
   45CHL1  H12B 4469   3.720   0.180   5.948 -1.7368  0.6651  1.0852
   45CHL1   C11 4470   3.709   0.001   6.067 -0.0212  0.2723  0.0689
   45CHL1  H11A 4471   3.679  -0.105   6.052  1.2052 -0.1460  0.4844
   45CHL1  H11B 4472   3.819   0.000   6.082  0.1174  0.8400 -0.8441
   45CHL1    C9 4473   3.636   0.058   6.196  0.1667  0.3583 -0.4788
   45CHL1    H9 4474   3.687   0.156   6.205 -0.1264  0.3488  2.4312
   45CHL1   C10 4475   3.670  -0.020   6.328 -0.0928 -0.5388 -0.0177
   45CHL1   C19 4476   3.661  -0.174   6.308  0.1869  0.3995 -0.4138
   45CHL1  H19A 4477   3.579  -0.211   6.244  0.0112  1.1850 -0.6536
   45CHL1  H19B 4478   3.749  -0.224   6.262 -0.8333 -3.9437  1.8243
   45CHL1  H19C 4479   3.650  -0.228   6.405 -0.6432 -1.2601 -1.3902
   45CHL1    C1 4480   3.813   0.030   6.379  0.1918  0.0228 -0.4715
   45CHL1   H1A 4481   3.899   0.001   6.314 -0.1633 -0.8391 -0.5657
   45CHL1   H1B 4482   3.797   0.140   6.387  0.5621 -0.0449  2.0006
   45CHL1    C2 4483   3.838  -0.023   6.527 -0.1392  0.2275  0.9138
   45CHL1   H2A 4484   3.932   0.028   6.558  0.5136  1.5537 -2.6968
   45CHL1   H2B 4485   3.858  -0.132   6.527  1.8992  0.5543  0.5330
   45CHL1   C20 4486   3.461   0.194   5.664  0.1544  0.4177 -0.9576
   45CHL1   H20 4487   3.407   0.101   5.637  0.1204  0.2038 -0.1575
   45CHL1   C21 4488   3.605   0.192   5.614 -0.3458 -0.2967  0.9423
   45CHL1  H21A 4489   3.673   0.131   5.678  0.5186  2.1750  2.5515
   45CHL1  H21B 4490   3.651   0.292   5.597  1.4348 -1.3412 -0.8381
   45CHL1  H21C 4491   3.610   0.153   5.510  0.6600  0.6977  0.5931
   45CHL1   C22 4492   3.383   0.308   5.596  0.3976  0.4337  0.3583
   45CHL1  H22A 4493   3.274   0.300   5.615  0.2479 -0.5989 -0.8558
   45CHL1  H22B 4494   3.419   0.404   5.639 -0.9516  1.1742 -0.0865
   45CHL1   C23 4495   3.406   0.323   5.441 -0.0579  0.0153 -0.0112
   45CHL1  H23A 4496   3.352   0.412   5.401 -2.2207 -2.3894 -2.8982
   45CHL1  H23B 4497   3.512   0.357   5.434  1.0254 -2.4978  2.5524
   45CHL1   C24 4498   3.374   0.209   5.356  0.1905  0.3207  0.5643
   45CHL1  H24A 4499   3.410   0.115   5.403 -2.7713 -1.3565 -0.2181
   45CHL1  H24B 4500   3.265   0.189   5.347  0.0753  0.5813  1.3183
   45CHL1   C25 4501   3.439   0.203   5.212  0.3104  0.1899 -0.0487
   45CHL1   H25 4502   3.415   0.295   5.154  1.4761  0.0502 -0.7708
   45CHL1   C26 4503   3.594   0.174   5.222 -1.1677 -0.1755 -0.3415
   45CHL1  H26A 4504   3.640   0.270   5.254 -0.9746 -0.4176  0.1098
   45CHL1  H26B 4505   3.608   0.092   5.296  1.1752 -2.1894 -2.8086
   45CHL1  H26C 4506   3.618   0.137   5.120  0.6642  0.7031 -0.2637
   45CHL1   C27 4507   3.381   0.095   5.122 -0.1056  0.2843  0.3918
   45CHL1  H27A 4508   3.274   0.099   5.092 -0.5703 -1.0298  1.7771
   45CHL1  H27B 4509   3.446   0.092   5.032 -1.1512  0.1668 -0.3700
   45CHL1  H27C 4510   3.395  -0.004   5.170  0.6897 -0.2710 -0.9432
   46CHL1    C3 4511   1.213   6.361   6.472  0.6957  0.4998 -0.4582
   46CHL1    H3 4512   1.314   6.324   6.497  0.5824  1.2584  1.2071
   46CHL1    O3 4513   1.122   6.370   6.577 -0.0910 -0.1055  0.0781
   46CHL1   H3' 4514   1.034   6.369   6.540 -0.3884 -0.9575  0.7745
   46CHL1    C4 4515   1.215   6.491   6.402 -0.2900 -0.2760  0.4706
   46CHL1   H4A 4516   1.115   6.539   6.406 -1.6247 -2.9044  1.8198
   46CHL1   H4B 4517   1.272   6.557   6.471  2.8207 -2.9111  0.6594
   46CHL1    C5 4518   1.272   6.479   6.264  0.8158 -0.1232 -0.8129
   46CHL1    C6 4519   1.382   6.553   6.237 -0.3278  0.4912  0.2363
   46CHL1    H6 4520   1.420   6.617   6.318  1.6705  1.0561 -1.0754
   46CHL1    C7 4521   1.435   6.565   6.098 -0.4694  0.0050  0.2188
   46CHL1   H7A 4522   1.439   6.675   6.081  1.2661 -0.0078  0.3927
   46CHL1   H7B 4523   1.540   6.530   6.098 -1.0471 -1.8592  1.0944
   46CHL1    C8 4524   1.348   6.499   5.989  0.2505 -0.2557 -0.3954
   46CHL1    H8 4525   1.262   6.567   5.970 -0.2439 -0.2367  1.6632
   46CHL1   C14 4526   1.434   6.465   5.868 -0.0949 -0.6444  0.2976
   46CHL1   H14 4527   1.506   6.390   5.909 -3.6624 -5.0512 -0.6354
   46CHL1   C15 4528   1.524   6.574   5.800 -0.0303  0.1011  0.4804
   46CHL1  H15A 4529   1.451   6.657   5.785  2.2360  2.9933  3.8349
   46CHL1  H15B 4530   1.607   6.595   5.871 -0.5390  1.8011  0.6280
   46CHL1   C16 4531   1.568   6.510   5.664 -0.8464  0.5811 -0.5937
   46CHL1  H16A 4532   1.565   6.583   5.581 -2.6678  2.4309  0.9890
   46CHL1  H16B 4533   1.673   6.471   5.666 -0.7794  0.3426 -3.6763
   46CHL1   C17 4534   1.471   6.392   5.643 -0.5755  0.7970 -0.1829
   46CHL1   H17 4535   1.518   6.294   5.666 -2.7174 -0.5873 -1.3479
   46CHL1   C13 4536   1.363   6.394   5.750 -0.1361 -0.6292  0.7800
   46CHL1   C18 4537   1.248   6.493   5.703 -1.0844  0.1771 -0.1497
   46CHL1  H18A 4538   1.185   6.443   5.627 -1.2261  1.8176 -1.1486
   46CHL1  H18B 4539   1.181   6.512   5.790 -0.4509  0.6365  0.2496
   46CHL1  H18C 4540   1.290   6.583   5.654 -0.8195 -0.2798 -0.7755
   46CHL1   C12 4541   1.306   6.264   5.795  0.0184  0.8004  0.4536
   46CHL1  H12A 4542   1.252   6.213   5.712  0.6528  2.4740 -1.0397
   46CHL1  H12B 4543   1.383   6.193   5.833 -0.6295 -0.5726 -0.6612
   46CHL1   C11 4544   1.222   6.281   5.926 -0.5614  0.0270  1.5808
   46CHL1  H11A 4545   1.124   6.325   5.898 -0.0437  0.8052  0.9389
   46CHL1  H11B 4546   1.212   6.179   5.968 -3.4571  0.1313  1.3604
   46CHL1    C9 4547   1.291   6.365   6.033 -0.1204 -0.0598 -0.4857
   46CHL1    H9 4548   1.382   6.306   6.055  0.2477  0.2392 -1.1667
   46CHL1   C10 4549   1.214   6.382   6.163 -0.1952  0.0192  0.0226
   46CHL1   C19 4550   1.075   6.443   6.130 -0.0795 -0.5918 -0.3786
   46CHL1  H19A 4551   1.012   6.454   6.221  0.6254 -1.6250  0.2529
   46CHL1  H19B 4552   1.064   6.539   6.075  3.0525 -0.1154 -0.3058
   46CHL1  H19C 4553   1.019   6.368   6.069  2.0661 -0.2944 -2.8901
   46CHL1    C1 4554   1.211   6.248   6.235 -0.1320 -0.1811  0.6123
   46CHL1   H1A 4555   1.158   6.171   6.175  1.8337 -0.2354 -1.1762
   46CHL1   H1B 4556   1.313   6.205   6.250  0.3403  0.9389  0.7425
   46CHL1    C2 4557   1.158   6.251   6.374  0.2698  0.0614 -0.0767
   46CHL1   H2A 4558   1.175   6.150   6.418  0.8822 -0.4580 -1.4199
   46CHL1   H2B 4559   1.048   6.263   6.369 -0.1056 -1.2645  2.9802
   46CHL1   C20 4560   1.426   6.393   5.493 -0.6132  0.5457  0.5066
   46CHL1   H20 4561   1.364   6.485   5.482 -0.4681  0.6693  0.7052
   46CHL1   C21 4562   1.335   6.274   5.455  0.9019 -0.0216  0.5194
   46CHL1  H21A 4563   1.286   6.280   5.355 -1.0940 -2.3279  1.2694
   46CHL1  H21B 4564   1.240   6.274   5.512 -1.0540 -1.7697 -2.4734
   46CHL1  H21C 4565   1.388   6.177   5.455  0.2262 -0.3915  0.6896
   46CHL1   C22 4566   1.547   6.397   5.387  0.7131  0.1039  0.3433
   46CHL1  H22A 4567   1.606   6.492   5.390  0.1555  0.4775 -0.4320
   46CHL1  H22B 4568   1.623   6.323   5.420 -0.1853 -1.1813 -0.4110
   46CHL1   C23 4569   1.500   6.376   5.240  0.2812  0.4321  0.2034
   46CHL1  H23A 4570   1.458   6.275   5.222 -2.8796  2.0304 -2.3828
   46CHL1  H23B 4571   1.426   6.448   5.201 -0.4527  0.3852  1.4500
   46CHL1   C24 4572   1.631   6.367   5.155  0.8150 -0.1483  0.0922
   46CHL1  H24A 4573   1.691   6.455   5.186 -0.6639 -0.3742  4.2538
   46CHL1  H24B 4574   1.687   6.274   5.180 -1.8291 -1.3473  1.9964
   46CHL1   C25 4575   1.601   6.378   5.004 -0.6450 -0.1560 -0.4145
   46CHL1   H25 4576   1.531   6.462   4.987  0.5948  0.4637 -3.0979
   46CHL1   C26 4577   1.737   6.402   4.923  0.0665  0.3270  0.5422
   46CHL1  H26A 4578   1.817   6.329   4.950  1.6334  1.5656 -0.5007
   46CHL1  H26B 4579   1.717   6.388   4.815  1.6416  0.2861  0.2335
   46CHL1  H26C 4580   1.767   6.505   4.954  0.3977  0.7218 -1.0199
   46CHL1   C27 4581   1.548   6.249   4.952  0.2585  0.7189 -0.1926
   46CHL1  H27A 4582   1.492   6.272   4.859 -2.1158 -1.4110  0.6136
   46CHL1  H27B 4583   1.616   6.163   4.934  0.0071  0.6508 -0.8543
   46CHL1  H27C 4584   1.467   6.211   5.017  0.3364 -0.2893 -0.6654
   47CHL1    C3 4585   1.959   0.799   6.761 -0.2285  0.3141  0.2736
   47CHL1    H3 4586   1.882   0.719   6.763  0.8360 -0.8048 -1.2403
   47CHL1    O3 4587   1.977   0.838   6.898  0.2900 -0.1491  0.5332
   47CHL1   H3' 4588   2.036   0.912   6.884 -0.5878  0.3541 -0.6355
   47CHL1    C4 4589   2.097   0.738   6.708 -0.0154 -0.2105  0.4572
   47CHL1   H4A 4590   2.163   0.827   6.695 -1.3877  0.6334 -1.1558
   47CHL1   H4B 4591   2.123   0.665   6.787 -1.0876 -0.7316  0.3502
   47CHL1    C5 4592   2.090   0.678   6.575  0.6064  0.0783  0.5226
   47CHL1    C6 4593   2.123   0.548   6.556  0.1327  0.8879 -0.7057
   47CHL1    H6 4594   2.152   0.482   6.640 -3.5463  0.0658  0.0923
   47CHL1    C7 4595   2.095   0.485   6.427 -0.6315 -0.3789  0.5544
   47CHL1   H7A 4596   2.181   0.423   6.394  0.0326  0.5644  0.4840
   47CHL1   H7B 4597   2.009   0.417   6.444 -0.5269 -0.1120  2.2443
   47CHL1    C8 4598   2.071   0.581   6.308  0.2879 -0.3292  0.1303
   47CHL1    H8 4599   2.165   0.633   6.278  1.0976 -1.8853 -0.1374
   47CHL1   C14 4600   2.007   0.508   6.190  0.2840 -0.6308 -0.2320
   47CHL1   H14 4601   1.908   0.473   6.226  0.4447 -1.0715 -0.2122
   47CHL1   C15 4602   2.070   0.383   6.126 -0.4187  0.4937 -0.1514
   47CHL1  H15A 4603   2.181   0.396   6.124 -0.1715 -1.2017 -2.7304
   47CHL1  H15B 4604   2.054   0.299   6.197 -0.1948 -0.7231 -1.4944
   47CHL1   C16 4605   2.012   0.378   5.983 -0.7087 -0.4472 -0.6430
   47CHL1  H16A 4606   2.092   0.417   5.916 -1.5244  1.4634 -0.5689
   47CHL1  H16B 4607   1.977   0.278   5.951  2.9581 -1.3832 -2.2768
   47CHL1   C17 4608   1.905   0.496   5.969  0.3798  0.0958  0.2150
   47CHL1   H17 4609   1.807   0.457   6.005 -0.6986  1.2350 -1.3726
   47CHL1   C13 4610   1.970   0.599   6.071  0.1175  0.5696  0.2747
   47CHL1   C18 4611   2.107   0.672   6.024 -0.6310  0.7148  0.3151
   47CHL1  H18A 4612   2.133   0.754   6.094  1.7758  0.1907  0.1188
   47CHL1  H18B 4613   2.194   0.603   6.030  1.0221  2.8247  2.2172
   47CHL1  H18C 4614   2.102   0.716   5.922  1.3144  1.0467  0.3139
   47CHL1   C12 4615   1.865   0.695   6.116  0.1577  0.5446 -0.2121
   47CHL1  H12A 4616   1.830   0.774   6.046 -2.8437  0.4082  0.9925
   47CHL1  H12B 4617   1.774   0.634   6.135  1.0842 -0.7975  0.0667
   47CHL1   C11 4618   1.912   0.772   6.237 -0.0476  0.5383  0.5749
   47CHL1  H11A 4619   1.989   0.838   6.193 -1.4992  0.2221 -2.7434
   47CHL1  H11B 4620   1.825   0.829   6.276  0.9932  2.0465  0.7646
   47CHL1    C9 4621   1.969   0.691   6.352  0.2175  0.0268 -0.0152
   47CHL1    H9 4622   1.886   0.635   6.401 -1.6846  0.6959 -2.2883
   47CHL1   C10 4623   2.028   0.775   6.469  0.3600  0.3677  0.3304
   47CHL1   C19 4624   2.142   0.868   6.428  0.5263 -0.2229 -0.0292
   47CHL1  H19A 4625   2.105   0.948   6.361 -0.9615  0.1832  1.2021
   47CHL1  H19B 4626   2.192   0.925   6.510 -1.8012  1.3666  0.3765
   47CHL1  H19C 4627   2.229   0.820   6.378  0.2345 -1.1602  0.3259
   47CHL1    C1 4628   1.905   0.852   6.524  0.3987 -0.1642 -0.4306
   47CHL1   H1A 4629   1.875   0.941   6.465  1.1366  0.5299  0.2132
   47CHL1   H1B 4630   1.823   0.778   6.536 -0.4456  0.8533  0.2401
   47CHL1    C2 4631   1.928   0.912   6.674 -0.4995 -0.4478 -0.2915
   47CHL1   H2A 4632   1.830   0.958   6.696 -0.0195  1.2110 -1.3610
   47CHL1   H2B 4633   2.006   0.991   6.669 -1.1215  0.1705 -0.3718
   47CHL1   C20 4634   1.879   0.537   5.821 -0.6951 -0.6436  0.7573
   47CHL1   H20 4635   1.967   0.596   5.789 -2.7759  2.0507 -0.4196
   47CHL1   C21 4636   1.762   0.634   5.804  0.2240 -0.0416 -0.4366
   47CHL1  H21A 4637   1.667   0.589   5.838  0.5771 -0.2021  0.3789
   47CHL1  H21B 4638   1.746   0.672   5.701  1.6466  1.1562 -0.2615
   47CHL1  H21C 4639   1.782   0.727   5.862  2.4881 -0.3764 -0.5536
   47CHL1   C22 4640   1.868   0.417   5.720 -0.6160  0.5294  0.2955
   47CHL1  H22A 4641   1.968   0.370   5.707 -0.2426  1.3438  0.1386
   47CHL1  H22B 4642   1.803   0.333   5.753  0.3453 -0.4088 -0.1519
   47CHL1   C23 4643   1.843   0.470   5.581 -0.5963 -0.1584  0.3306
   47CHL1  H23A 4644   1.738   0.504   5.580 -0.5026  0.1479 -1.1478
   47CHL1  H23B 4645   1.915   0.550   5.553  2.0491 -2.5201 -0.1567
   47CHL1   C24 4646   1.863   0.360   5.485  0.4258 -0.1990  0.0793
   47CHL1  H24A 4647   1.967   0.325   5.506  0.3485  0.5789  1.9370
   47CHL1  H24B 4648   1.790   0.280   5.509 -0.5567  0.6878  0.0813
   47CHL1   C25 4649   1.847   0.417   5.339 -0.3622  0.7163 -0.4085
   47CHL1   H25 4650   1.922   0.497   5.320 -0.7095  1.2850  0.5553
   47CHL1   C26 4651   1.877   0.308   5.236  0.0484 -0.7331 -0.0115
   47CHL1  H26A 4652   1.799   0.229   5.244 -1.4636  0.5259 -1.5301
   47CHL1  H26B 4653   1.883   0.345   5.132  3.2019 -0.4605  0.1881
   47CHL1  H26C 4654   1.980   0.277   5.262 -0.5714 -1.9365  1.1717
   47CHL1   C27 4655   1.707   0.473   5.320 -0.4941  0.4707 -1.0517
   47CHL1  H27A 4656   1.696   0.562   5.385  3.0789  0.0379  0.3717
   47CHL1  H27B 4657   1.690   0.504   5.215  1.5822 -1.3201 -1.9814
   47CHL1  H27C 4658   1.629   0.398   5.346  1.8878 -1.0571  2.4310
   48CHL1    C3 4659   5.804   0.737   6.721  0.5798  0.4202 -0.2908
   48CHL1    H3 4660   5.745   0.643   6.709 -3.0613  2.0036  3.0134
   48CHL1    O3 4661   5.808   0.773   6.854  0.7232  0.1419  0.5334
   48CHL1   H3' 4662   5.722   0.809   6.876  0.7111  1.7211 -1.7578
   48CHL1    C4 4663   5.946   0.722   6.667 -0.3810 -0.0351 -0.3642
   48CHL1   H4A 4664   6.005   0.809   6.702  0.1446 -1.6335  3.1560
   48CHL1   H4B 4665   6.002   0.641   6.719  0.4358  1.1991  0.7303
   48CHL1    C5 4666   5.933   0.706   6.517  0.1177  0.3329 -0.2479
   48CHL1    C6 4667   6.002   0.604   6.465 -0.2515  0.4161 -0.9177
   48CHL1    H6 4668   6.057   0.545   6.540 -1.0056 -1.3877 -1.7411
   48CHL1    C7 4669   6.011   0.572   6.322 -0.0988  0.2055  0.0879
   48CHL1   H7A 4670   6.114   0.535   6.303 -0.4901 -0.2654 -1.1928
   48CHL1   H7B 4671   5.944   0.487   6.297  1.3197 -0.5349 -1.3963
   48CHL1    C8 4672   5.972   0.685   6.226  0.1568  0.3657  0.8967
   48CHL1    H8 4673   6.052   0.762   6.222 -0.8123  1.3528 -0.2970
   48CHL1   C14 4674   5.935   0.624   6.087 -0.5397 -0.6409  0.8317
   48CHL1   H14 4675   5.849   0.557   6.109 -1.1656 -0.3748 -0.7283
   48CHL1   C15 4676   6.034   0.535   6.010  0.2031 -0.2637  0.1032
   48CHL1  H15A 4677   6.123   0.599   6.028 -0.4531  0.6845  0.0540
   48CHL1  H15B 4678   6.061   0.432   6.043 -1.2439 -0.9253 -0.6764
   48CHL1   C16 4679   5.993   0.547   5.866 -0.1715 -0.3011  0.0338
   48CHL1  H16A 4680   6.085   0.583   5.816 -0.8880 -0.2202 -1.3007
   48CHL1  H16B 4681   5.963   0.447   5.827  0.8888 -0.0164 -1.6326
   48CHL1   C17 4682   5.884   0.657   5.856  0.1670 -0.6579  0.0255
   48CHL1   H17 4683   5.792   0.595   5.857 -1.7938  1.9607 -2.4203
   48CHL1   C13 4684   5.891   0.735   5.994 -0.9732 -0.4469  0.0825
   48CHL1   C18 4685   5.991   0.848   5.964  0.1586  0.5967 -0.1774
   48CHL1  H18A 4686   6.078   0.808   5.908  1.5041  0.9908  1.5327
   48CHL1  H18B 4687   5.947   0.930   5.904  0.7121 -0.2205 -1.7477
   48CHL1  H18C 4688   6.026   0.890   6.061  0.8705 -1.8611  0.7102
   48CHL1   C12 4689   5.760   0.791   6.053 -0.2064  0.4952 -0.2865
   48CHL1  H12A 4690   5.719   0.870   5.987 -0.5972 -0.4078 -1.1503
   48CHL1  H12B 4691   5.694   0.703   6.038  1.0753 -1.0645  2.4245
   48CHL1   C11 4692   5.774   0.853   6.189  0.1053 -1.0452 -0.6185
   48CHL1  H11A 4693   5.826   0.952   6.192 -3.6489  1.0820  0.8636
   48CHL1  H11B 4694   5.671   0.873   6.226  0.9890 -1.1002  2.1169
   48CHL1    C9 4695   5.845   0.752   6.289  0.4113  0.6724  0.2871
   48CHL1    H9 4696   5.764   0.676   6.291 -2.5258  3.5414 -0.6307
   48CHL1   C10 4697   5.853   0.804   6.435 -0.0453  0.7151  0.9355
   48CHL1   C19 4698   5.930   0.939   6.437  0.0619 -0.9010  0.1038
   48CHL1  H19A 4699   5.982   0.952   6.534 -1.0889  1.3349  0.4933
   48CHL1  H19B 4700   6.020   0.940   6.372 -0.8441  1.8888 -1.2835
   48CHL1  H19C 4701   5.860   1.024   6.420  1.8892  0.6372 -0.0847
   48CHL1    C1 4702   5.714   0.815   6.500 -0.0956  0.1604  0.2288
   48CHL1   H1A 4703   5.647   0.892   6.455  0.9672  2.3031  2.1427
   48CHL1   H1B 4704   5.661   0.718   6.482  1.5106 -0.6493 -0.3592
   48CHL1    C2 4705   5.710   0.840   6.648 -0.4105  0.0308  0.0534
   48CHL1   H2A 4706   5.606   0.844   6.688 -0.3829  0.7904  0.0713
   48CHL1   H2B 4707   5.751   0.942   6.666  0.2738 -0.2783  0.2852
   48CHL1   C20 4708   5.874   0.736   5.728 -0.9499  0.5710 -0.5310
   48CHL1   H20 4709   5.963   0.799   5.705 -1.2170  0.7319 -1.1276
   48CHL1   C21 4710   5.755   0.834   5.723 -0.1805 -0.2416  0.0902
   48CHL1  H21A 4711   5.791   0.925   5.775 -1.5634 -0.2272  1.0852
   48CHL1  H21B 4712   5.712   0.864   5.625 -1.1591 -2.0878 -0.1045
   48CHL1  H21C 4713   5.677   0.795   5.793 -2.5589  2.4288 -0.8756
   48CHL1   C22 4714   5.873   0.634   5.610 -0.0573  0.3721  0.6876
   48CHL1  H22A 4715   5.935   0.542   5.619 -1.5830 -0.7432  0.2174
   48CHL1  H22B 4716   5.768   0.600   5.614 -0.1986  0.2378 -1.9254
   48CHL1   C23 4717   5.887   0.685   5.465  0.1470  0.2278 -0.0435
   48CHL1  H23A 4718   5.806   0.758   5.445  0.2635  0.2250 -0.5492
   48CHL1  H23B 4719   5.985   0.737   5.467  0.2537  0.1486  3.2609
   48CHL1   C24 4720   5.875   0.574   5.358 -1.0772  0.1540  0.1344
   48CHL1  H24A 4721   5.974   0.551   5.312 -0.9465 -0.0170  0.4987
   48CHL1  H24B 4722   5.854   0.486   5.421 -3.7573 -0.2451 -1.1814
   48CHL1   C25 4723   5.761   0.591   5.257 -0.2156  0.8199  0.7797
   48CHL1   H25 4724   5.672   0.622   5.316  0.6796  0.0479  2.6250
   48CHL1   C26 4725   5.778   0.702   5.153  0.3582  0.3522  0.1534
   48CHL1  H26A 4726   5.680   0.747   5.127 -0.3512 -1.9641 -1.5271
   48CHL1  H26B 4727   5.848   0.774   5.200  0.9469 -0.5342  0.6577
   48CHL1  H26C 4728   5.826   0.667   5.060 -0.0869  0.9697 -0.3195
   48CHL1   C27 4729   5.741   0.458   5.183  0.1978 -0.1924 -0.1202
   48CHL1  H27A 4730   5.714   0.380   5.258  0.4856  1.1938  1.4867
   48CHL1  H27B 4731   5.662   0.464   5.105  1.0247  1.6491 -0.8695
   48CHL1  H27C 4732   5.833   0.437   5.123  1.0798  1.2712  0.6582
   49CHL1    C3 4733   0.281   0.371   3.463  0.3140 -0.0996 -0.2358
   49CHL1    H3 4734   0.239   0.272   3.490 -0.3143  0.9730  3.1633
   49CHL1    O3 4735   0.254   0.411   3.325 -0.0851  0.3081 -0.2718
   49CHL1   H3' 4736   0.321   0.368   3.271 -2.5940 -2.1512 -1.7009
   49CHL1    C4 4737   0.207   0.466   3.569 -0.4391 -0.0018  0.1725
   49CHL1   H4A 4738   0.232   0.570   3.539 -0.1433 -0.0236  0.3415
   49CHL1   H4B 4739   0.100   0.443   3.551 -0.2129  0.8596 -2.8250
   49CHL1    C5 4740   0.254   0.428   3.716  0.1492  0.3720 -0.2607
   49CHL1    C6 4741   0.163   0.395   3.809 -0.9768 -0.1166  0.2030
   49CHL1    H6 4742   0.057   0.395   3.780 -1.0698 -0.1893  0.5303
   49CHL1    C7 4743   0.202   0.351   3.950  0.3045  0.8229 -0.3467
   49CHL1   H7A 4744   0.122   0.386   4.018  0.5906  1.9529 -0.5769
   49CHL1   H7B 4745   0.227   0.243   3.957  1.8725  1.2312  1.0328
   49CHL1    C8 4746   0.341   0.414   3.987  0.0216  0.2292 -0.5148
   49CHL1    H8 4747   0.329   0.524   3.996 -0.8142  0.2003 -1.1182
   49CHL1   C14 4748   0.386   0.357   4.121  0.0045 -0.7398  0.2010
   49CHL1   H14 4749   0.390   0.247   4.108  0.7170 -0.6235 -0.6385
   49CHL1   C15 4750   0.295   0.385   4.239 -0.6169  0.5236  0.3720
   49CHL1  H15A 4751   0.273   0.491   4.261  0.9996  0.9507  0.0855
   49CHL1  H15B 4752   0.202   0.325   4.225 -1.1082  1.5505 -1.0532
   49CHL1   C16 4753   0.380   0.332   4.356 -0.0850 -0.4887  0.4658
   49CHL1  H16A 4754   0.380   0.413   4.431 -0.8526 -1.9407  2.0889
   49CHL1  H16B 4755   0.334   0.238   4.392  3.8366 -1.9743  2.1247
   49CHL1   C17 4756   0.525   0.312   4.302  0.2793 -0.0091 -0.3143
   49CHL1   H17 4757   0.548   0.205   4.283 -0.4400  0.0573 -1.6811
   49CHL1   C13 4758   0.529   0.388   4.165 -0.0836  0.2572 -1.0193
   49CHL1   C18 4759   0.545   0.550   4.188 -0.0881 -0.7002 -0.4060
   49CHL1  H18A 4760   0.647   0.579   4.221 -0.1188 -0.0745 -0.8556
   49CHL1  H18B 4761   0.523   0.599   4.091 -1.9400 -1.6687 -0.5219
   49CHL1  H18C 4762   0.479   0.575   4.273  2.3699 -1.8528  2.0075
   49CHL1   C12 4763   0.626   0.325   4.065 -0.4447 -0.3399 -0.1111
   49CHL1  H12A 4764   0.732   0.341   4.092 -0.2822 -1.3815 -0.0873
   49CHL1  H12B 4765   0.620   0.214   4.070  0.8606 -0.4842 -1.2204
   49CHL1   C11 4766   0.588   0.379   3.921  0.6608 -0.8088  0.4012
   49CHL1  H11A 4767   0.610   0.487   3.924 -0.2388 -0.4705 -2.1508
   49CHL1  H11B 4768   0.653   0.335   3.842  0.4856 -0.6001  0.1367
   49CHL1    C9 4769   0.436   0.361   3.881  1.0790 -0.2368  0.1558
   49CHL1    H9 4770   0.427   0.250   3.876 -1.0887 -0.2861  2.8635
   49CHL1   C10 4771   0.403   0.425   3.742  0.8893 -0.2220  0.7101
   49CHL1   C19 4772   0.446   0.582   3.740 -0.0575 -0.2463  0.1864
   49CHL1  H19A 4773   0.554   0.602   3.757 -0.8540  3.6327  1.8848
   49CHL1  H19B 4774   0.422   0.624   3.639 -1.7608 -1.5565 -0.0022
   49CHL1  H19C 4775   0.390   0.643   3.815 -1.0915  0.2308 -0.9363
   49CHL1    C1 4776   0.475   0.349   3.629 -0.0042  0.2383 -0.6811
   49CHL1   H1A 4777   0.577   0.391   3.621  0.5351 -0.9008 -0.1064
   49CHL1   H1B 4778   0.504   0.243   3.644 -0.6316  0.1773  0.1687
   49CHL1    C2 4779   0.428   0.376   3.485  0.1651 -0.1722  0.3543
   49CHL1   H2A 4780   0.462   0.293   3.420 -0.2451 -0.5958  0.6846
   49CHL1   H2B 4781   0.477   0.465   3.439  0.9386 -0.0129  1.4280
   49CHL1   C20 4782   0.619   0.352   4.417 -1.0643 -0.1009 -0.0603
   49CHL1   H20 4783   0.612   0.462   4.429  1.8638 -0.0668  2.4528
   49CHL1   C21 4784   0.766   0.324   4.375  0.0112 -0.2515  0.5138
   49CHL1  H21A 4785   0.783   0.224   4.330 -4.4600 -0.3158 -1.5977
   49CHL1  H21B 4786   0.825   0.333   4.469 -2.0751  0.2852  1.8309
   49CHL1  H21C 4787   0.802   0.401   4.303  1.3655 -0.3792  1.0312
   49CHL1   C22 4788   0.590   0.285   4.547  0.2801  0.0119 -0.1699
   49CHL1  H22A 4789   0.666   0.326   4.618  0.8258 -0.0367 -0.7118
   49CHL1  H22B 4790   0.490   0.326   4.573  0.9226  2.5393 -1.3224
   49CHL1   C23 4791   0.599   0.130   4.557  0.3715 -0.2321  0.1756
   49CHL1  H23A 4792   0.523   0.086   4.490  1.0539 -1.3746  0.1372
   49CHL1  H23B 4793   0.702   0.103   4.524  0.8965 -0.0169  1.5839
   49CHL1   C24 4794   0.573   0.083   4.700  0.0615 -0.3495 -0.1263
   49CHL1  H24A 4795   0.663   0.103   4.762  0.1209 -1.3060  0.1123
   49CHL1  H24B 4796   0.489   0.140   4.745  2.2770  1.8202  1.5192
   49CHL1   C25 4797   0.556  -0.074   4.718  0.4567 -0.3864 -0.4182
   49CHL1   H25 4798   0.641  -0.121   4.663  0.9577 -0.5108  0.4514
   49CHL1   C26 4799   0.549  -0.105   4.871 -0.1170  0.3557 -0.3202
   49CHL1  H26A 4800   0.553  -0.216   4.876 -0.7615  0.1929 -2.4782
   49CHL1  H26B 4801   0.632  -0.057   4.927  1.6875 -0.6096 -2.0329
   49CHL1  H26C 4802   0.453  -0.067   4.912  0.7459  1.1440  1.0501
   49CHL1   C27 4803   0.432  -0.123   4.656  0.0548 -0.0544 -0.4156
   49CHL1  H27A 4804   0.425  -0.097   4.548  2.7004  1.8945 -0.2194
   49CHL1  H27B 4805   0.417  -0.232   4.667 -2.3753 -0.0646 -2.6553
   49CHL1  H27C 4806   0.348  -0.067   4.702  2.4328  0.9357  3.1251
   50CHL1    C3 4807   0.832   2.866   3.198 -0.3371  0.2638 -0.8717
   50CHL1    H3 4808   0.876   2.961   3.234  0.3911 -0.1138 -0.7426
   50CHL1    O3 4809   0.845   2.867   3.060 -0.2545 -0.2419 -0.3735
   50CHL1   H3' 4810   0.797   2.791   3.026  0.9340 -1.0586 -0.2865
   50CHL1    C4 4811   0.901   2.742   3.262  0.5306 -0.1885  0.3825
   50CHL1   H4A 4812   0.855   2.648   3.223  1.1928 -1.9409  3.5337
   50CHL1   H4B 4813   1.008   2.742   3.233  0.0846  0.1024 -1.4092
   50CHL1    C5 4814   0.882   2.756   3.417 -0.6092  0.6123  0.7948
   50CHL1    C6 4815   0.987   2.764   3.502  0.0883 -0.0293  0.0413
   50CHL1    H6 4816   1.090   2.748   3.468  0.0332  0.3869 -0.3245
   50CHL1    C7 4817   0.968   2.758   3.649  0.1228 -0.4398  0.4329
   50CHL1   H7A 4818   1.048   2.692   3.689  0.0969 -1.6909 -1.4696
   50CHL1   H7B 4819   0.997   2.847   3.709 -0.4758  0.1145 -0.0979
   50CHL1    C8 4820   0.830   2.727   3.705  0.6909 -0.1318 -0.5036
   50CHL1    H8 4821   0.810   2.619   3.691  3.8189 -0.9073  0.3174
   50CHL1   C14 4822   0.820   2.760   3.854  0.4572  0.0762  0.1005
   50CHL1   H14 4823   0.825   2.870   3.863 -0.2302  0.2569 -1.4903
   50CHL1   C15 4824   0.913   2.684   3.946  0.3586 -0.2159 -0.5534
   50CHL1  H15A 4825   0.930   2.578   3.917 -2.2828 -0.8688 -0.0393
   50CHL1  H15B 4826   1.007   2.742   3.956 -0.0701  0.5679 -0.9555
   50CHL1   C16 4827   0.841   2.689   4.087 -0.0893 -0.7375 -0.1461
   50CHL1  H16A 4828   0.836   2.583   4.119  0.1916 -1.6660 -2.9082
   50CHL1  H16B 4829   0.897   2.754   4.158 -2.6148  0.8019  0.5665
   50CHL1   C17 4830   0.702   2.747   4.058  1.2167  0.1052  0.6230
   50CHL1   H17 4831   0.718   2.857   4.069  0.4915  0.3606 -0.6898
   50CHL1   C13 4832   0.678   2.725   3.909 -0.3239  0.0599 -0.0152
   50CHL1   C18 4833   0.633   2.572   3.881 -0.1197 -0.2403  0.8830
   50CHL1  H18A 4834   0.533   2.556   3.927  0.0298 -0.9755  0.9552
   50CHL1  H18B 4835   0.625   2.553   3.772  1.8679 -0.9732  0.8269
   50CHL1  H18C 4836   0.704   2.502   3.930  0.0161 -0.2209  0.7156
   50CHL1   C12 4837   0.587   2.822   3.829  0.3057  0.4182  0.1642
   50CHL1  H12A 4838   0.485   2.804   3.867  0.9287 -0.0936  1.6806
   50CHL1  H12B 4839   0.601   2.922   3.877 -1.8355  0.3381  1.0762
   50CHL1   C11 4840   0.585   2.805   3.678 -0.4579  0.0539 -0.2402
   50CHL1  H11A 4841   0.541   2.704   3.658  1.8791 -1.3191  1.1410
   50CHL1  H11B 4842   0.520   2.883   3.633  0.8440  0.4708 -1.4714
   50CHL1    C9 4843   0.731   2.801   3.615  0.1293 -0.1546  1.0519
   50CHL1    H9 4844   0.769   2.905   3.619 -1.4001  0.4248  1.3249
   50CHL1   C10 4845   0.741   2.767   3.467 -0.4011  0.3497 -0.1538
   50CHL1   C19 4846   0.671   2.625   3.447  0.8029 -0.0826 -0.0003
   50CHL1  H19A 4847   0.725   2.550   3.509 -0.8222 -1.7619 -0.5200
   50CHL1  H19B 4848   0.570   2.613   3.491  0.4146 -1.2815 -1.1675
   50CHL1  H19C 4849   0.668   2.572   3.350  2.7241 -2.1792  1.0035
   50CHL1    C1 4850   0.664   2.880   3.389 -0.0093  0.5965  0.2376
   50CHL1   H1A 4851   0.555   2.876   3.413  0.0945  2.1883  1.1307
   50CHL1   H1B 4852   0.689   2.984   3.419  0.2662  0.5966  0.0134
   50CHL1    C2 4853   0.679   2.870   3.240 -0.3125 -0.3245  0.2288
   50CHL1   H2A 4854   0.625   2.962   3.208  1.9563  1.2912  0.8103
   50CHL1   H2B 4855   0.639   2.774   3.201 -3.7994  1.8954 -2.3145
   50CHL1   C20 4856   0.588   2.697   4.156  0.4279  0.1608 -0.0944
   50CHL1   H20 4857   0.537   2.603   4.127  0.2213 -0.1916  1.3308
   50CHL1   C21 4858   0.471   2.794   4.165 -0.5674 -1.0289  0.7718
   50CHL1  H21A 4859   0.442   2.817   4.061  0.0523 -1.3946  0.5174
   50CHL1  H21B 4860   0.497   2.897   4.199 -0.2279 -0.1230 -1.9865
   50CHL1  H21C 4861   0.377   2.757   4.211 -0.6171 -0.9414  0.7415
   50CHL1   C22 4862   0.637   2.656   4.300 -0.1545  0.7112 -1.3687
   50CHL1  H22A 4863   0.713   2.575   4.301  0.1315  0.8855  2.3607
   50CHL1  H22B 4864   0.681   2.739   4.359 -0.4935  0.3417 -0.5831
   50CHL1   C23 4865   0.527   2.606   4.397 -0.1999 -0.6444  0.6364
   50CHL1  H23A 4866   0.454   2.686   4.421  1.4230  0.5865  1.6299
   50CHL1  H23B 4867   0.473   2.524   4.346 -1.6199  0.2323  0.6821
   50CHL1   C24 4868   0.579   2.545   4.530 -0.5457  0.0532 -0.2076
   50CHL1  H24A 4869   0.654   2.467   4.505  0.9661  2.3163 -3.5691
   50CHL1  H24B 4870   0.629   2.625   4.589 -0.5288 -0.1991  0.1178
   50CHL1   C25 4871   0.467   2.489   4.621  0.2544  0.3290  0.4886
   50CHL1   H25 4872   0.439   2.387   4.586  0.4920  0.8999 -1.4663
   50CHL1   C26 4873   0.525   2.449   4.760  0.6018  0.0934 -0.9592
   50CHL1  H26A 4874   0.439   2.398   4.808 -0.4298  0.1114 -2.7209
   50CHL1  H26B 4875   0.607   2.375   4.762 -1.5435 -2.4008 -0.0719
   50CHL1  H26C 4876   0.548   2.546   4.810 -2.8620  0.9379 -0.7448
   50CHL1   C27 4877   0.346   2.572   4.645  0.3742 -0.1791  0.3353
   50CHL1  H27A 4878   0.270   2.527   4.712  0.2601 -0.1389  0.2340
   50CHL1  H27B 4879   0.373   2.671   4.688  2.1415 -0.6762  0.4149
   50CHL1  H27C 4880   0.289   2.579   4.550  2.2525 -0.9164 -0.8923
   51CHL1    C3 4881   6.563   6.448   3.525  0.1743 -0.1903  0.2045
   51CHL1    H3 4882   6.500   6.358   3.542  0.9474 -0.0911  5.2959
   51CHL1    O3 4883   6.561   6.506   3.393 -0.4608  0.4113 -0.4727
   51CHL1   H3' 4884   6.630   6.452   3.355 -0.9240 -1.0881  0.7381
   51CHL1    C4 4885   6.530   6.562   3.623  0.2737 -0.0215  0.7745
   51CHL1   H4A 4886   6.589   6.652   3.596 -2.2149  1.2377 -0.7622
   51CHL1   H4B 4887   6.426   6.589   3.597  0.9007  0.8421 -0.9907
   51CHL1    C5 4888   6.543   6.520   3.766  0.5362  0.3946 -0.1399
   51CHL1    C6 4889   6.431   6.510   3.839  0.1843 -0.7198  0.0559
   51CHL1    H6 4890   6.339   6.554   3.799 -0.0525 -1.6169 -0.4010
   51CHL1    C7 4891   6.425   6.459   3.977  0.4157 -0.3950 -0.2210
   51CHL1   H7A 4892   6.357   6.522   4.038 -0.9673 -1.5394 -0.5176
   51CHL1   H7B 4893   6.384   6.356   3.980 -3.3665  0.9306 -0.9186
   51CHL1    C8 4894   6.566   6.460   4.038  0.4556  0.2157 -0.2311
   51CHL1    H8 4895   6.589   6.568   4.050  1.1820  0.0641 -0.2214
   51CHL1   C14 4896   6.558   6.384   4.166  0.3918 -0.5282 -0.1190
   51CHL1   H14 4897   6.532   6.281   4.135 -0.8822 -0.4521  0.6255
   51CHL1   C15 4898   6.447   6.407   4.268  0.3761 -0.0146 -0.0055
   51CHL1  H15A 4899   6.437   6.517   4.279  2.3096  0.1979 -0.0659
   51CHL1  H15B 4900   6.355   6.356   4.229  0.0818  0.9867 -0.6654
   51CHL1   C16 4901   6.495   6.346   4.400  0.8824 -0.3776 -0.5892
   51CHL1  H16A 4902   6.483   6.428   4.474 -1.9582 -0.5438 -0.7308
   51CHL1  H16B 4903   6.431   6.265   4.440 -0.9179  1.3710  0.2687
   51CHL1   C17 4904   6.637   6.298   4.371  0.0014 -0.4621  0.1553
   51CHL1   H17 4905   6.622   6.191   4.345  1.2745 -0.8477  0.9308
   51CHL1   C13 4906   6.685   6.384   4.242 -0.1557 -0.0427 -0.2270
   51CHL1   C18 4907   6.730   6.529   4.295  1.1674 -0.4377 -1.0202
   51CHL1  H18A 4908   6.665   6.571   4.375  1.8052 -1.3953  0.0223
   51CHL1  H18B 4909   6.830   6.528   4.342  0.8220  1.1055 -0.1816
   51CHL1  H18C 4910   6.735   6.607   4.216 -0.6139  0.6719 -0.1086
   51CHL1   C12 4911   6.794   6.318   4.162  0.0917 -0.2110  0.2767
   51CHL1  H12A 4912   6.891   6.325   4.215 -0.6118  0.2326  1.5465
   51CHL1  H12B 4913   6.777   6.208   4.158 -0.2778 -0.1850  0.9274
   51CHL1   C11 4914   6.809   6.391   4.023 -0.6654 -0.2545  0.1380
   51CHL1  H11A 4915   6.849   6.492   4.045  1.4857 -0.9331 -0.4800
   51CHL1  H11B 4916   6.882   6.335   3.961 -1.3799 -0.3659 -0.6283
   51CHL1    C9 4917   6.672   6.402   3.946 -0.2879 -0.2078 -0.0614
   51CHL1    H9 4918   6.635   6.299   3.923 -1.2619 -0.1768  1.2599
   51CHL1   C10 4919   6.678   6.477   3.806 -0.3002  0.5579 -0.7942
   51CHL1   C19 4920   6.776   6.595   3.822  0.5164 -0.4132 -0.1229
   51CHL1  H19A 4921   6.875   6.547   3.832  0.2901 -0.6561  1.0793
   51CHL1  H19B 4922   6.776   6.664   3.735 -0.5979  0.7759  0.7762
   51CHL1  H19C 4923   6.752   6.658   3.911 -2.6750 -1.6187  0.0053
   51CHL1    C1 4924   6.729   6.371   3.700  0.5998  0.1094 -0.8213
   51CHL1   H1A 4925   6.833   6.339   3.726 -0.7849 -1.6821  3.5798
   51CHL1   H1B 4926   6.672   6.276   3.705 -0.2453  0.6342 -0.3155
   51CHL1    C2 4927   6.714   6.413   3.552  0.3001 -0.1463 -0.2327
   51CHL1   H2A 4928   6.747   6.325   3.493 -0.7865 -0.6571 -0.1198
   51CHL1   H2B 4929   6.791   6.489   3.528  1.9208 -1.5404  0.3343
   51CHL1   C20 4930   6.719   6.297   4.503 -0.5112 -0.1781  0.9429
   51CHL1   H20 4931   6.719   6.404   4.531  0.2472 -0.2486  1.2364
   51CHL1   C21 4932   6.868   6.260   4.488 -0.3713 -0.1838 -0.0096
   51CHL1  H21A 4933   6.884   6.182   4.411  0.5758 -1.3586  1.3239
   51CHL1  H21B 4934   6.900   6.226   4.589 -5.4394 -1.0489  1.5670
   51CHL1  H21C 4935   6.917   6.351   4.447 -1.0279  0.6030  0.8997
   51CHL1   C22 4936   6.658   6.211   4.617  0.5263  1.0609  0.4667
   51CHL1  H22A 4937   6.724   6.220   4.706 -0.3376  2.6760  0.9999
   51CHL1  H22B 4938   6.559   6.256   4.638  0.1738  0.0651  0.9870
   51CHL1   C23 4939   6.633   6.059   4.592 -0.2928  0.2033 -0.0204
   51CHL1  H23A 4940   6.561   6.029   4.513  0.4587 -1.3914 -0.1333
   51CHL1  H23B 4941   6.731   6.014   4.563 -0.6110  0.3755 -1.4478
   51CHL1   C24 4942   6.583   5.982   4.718 -0.4214  0.3317  0.0190
   51CHL1  H24A 4943   6.487   6.025   4.752  0.1873  1.1882  0.6834
   51CHL1  H24B 4944   6.574   5.873   4.699 -2.1400  0.5619 -0.7508
   51CHL1   C25 4945   6.681   6.004   4.842  0.1056  0.2929  1.0944
   51CHL1   H25 4946   6.674   6.112   4.864 -0.2634  0.6294 -0.5700
   51CHL1   C26 4947   6.633   5.920   4.958  0.3204  0.2285 -0.2809
   51CHL1  H26A 4948   6.669   5.815   4.959 -0.0578  0.0838  1.7322
   51CHL1  H26B 4949   6.676   5.953   5.055  2.6295 -2.2723 -0.3432
   51CHL1  H26C 4950   6.522   5.919   4.970  0.3702  2.6867  1.0334
   51CHL1   C27 4951   6.831   5.970   4.806  0.6541 -0.1638  0.5570
   51CHL1  H27A 4952   6.855   6.030   4.715  0.8361  2.2898  2.1546
   51CHL1  H27B 4953   6.912   5.981   4.881  2.1793 -1.4536 -0.8032
   51CHL1  H27C 4954   6.833   5.862   4.778  0.2852 -0.8993  3.1554
   52CHL1    C3 4955   5.052   4.056   2.900 -0.3178 -0.6958  0.1359
   52CHL1    H3 4956   5.017   4.162   2.906  1.7608 -0.0166  1.2873
   52CHL1    O3 4957   5.035   3.993   2.773  0.6801 -0.2918  0.5681
   52CHL1   H3' 4958   5.089   3.914   2.772 -1.0852 -1.6052 -1.5884
   52CHL1    C4 4959   5.190   4.042   2.951 -0.4779 -0.0431 -0.2852
   52CHL1   H4A 4960   5.230   3.939   2.949  0.8273  0.1051  4.4131
   52CHL1   H4B 4961   5.257   4.094   2.879 -0.9501 -0.2701 -0.8978
   52CHL1    C5 4962   5.220   4.079   3.095  0.4084 -0.4879 -0.4407
   52CHL1    C6 4963   5.308   4.174   3.133 -0.1004  0.3350 -1.4900
   52CHL1    H6 4964   5.376   4.205   3.052  1.7023 -1.8444 -0.9091
   52CHL1    C7 4965   5.322   4.222   3.278  0.0736  0.6141 -0.2350
   52CHL1   H7A 4966   5.431   4.233   3.293  0.1830 -0.6595  0.0253
   52CHL1   H7B 4967   5.280   4.323   3.293  0.0095  0.2611  2.4834
   52CHL1    C8 4968   5.254   4.133   3.380  0.5202 -0.2095  0.1505
   52CHL1    H8 4969   5.324   4.048   3.390  2.1569  1.0029 -0.5678
   52CHL1   C14 4970   5.243   4.210   3.514  0.4945  0.2983 -0.1706
   52CHL1   H14 4971   5.165   4.287   3.492 -1.0606 -0.7055  1.5403
   52CHL1   C15 4972   5.369   4.282   3.567 -1.5048 -0.7361  0.2315
   52CHL1  H15A 4973   5.456   4.213   3.567  0.3668  1.3680  3.6321
   52CHL1  H15B 4974   5.391   4.375   3.510  0.5671 -1.4123 -0.1644
   52CHL1   C16 4975   5.351   4.293   3.716  0.2042  0.0499 -0.0922
   52CHL1  H16A 4976   5.436   4.242   3.767 -1.8372 -2.0052  1.4379
   52CHL1  H16B 4977   5.346   4.394   3.762 -2.8455 -1.3459  3.1214
   52CHL1   C17 4978   5.217   4.226   3.748 -0.2340 -0.6954  0.6996
   52CHL1   H17 4979   5.139   4.305   3.748  0.9276  0.5547 -1.5250
   52CHL1   C13 4980   5.182   4.136   3.628 -0.0941  0.0812 -0.2696
   52CHL1   C18 4981   5.266   4.012   3.648 -0.5344  0.4124 -0.1763
   52CHL1  H18A 4982   5.227   3.956   3.735  1.9978 -0.3546  0.5449
   52CHL1  H18B 4983   5.267   3.940   3.563 -0.2873  0.0389  0.1415
   52CHL1  H18C 4984   5.373   4.022   3.678 -0.3312 -1.7663 -0.0229
   52CHL1   C12 4985   5.038   4.104   3.585 -0.8514  0.4847 -0.7126
   52CHL1  H12A 4986   4.996   4.024   3.651 -0.2794  0.3612 -0.4927
   52CHL1  H12B 4987   4.977   4.196   3.597 -1.7862 -0.3377  1.3681
   52CHL1   C11 4988   5.027   4.047   3.448  0.0795 -0.0926  0.3362
   52CHL1  H11A 4989   5.061   3.942   3.465 -0.6774 -0.5261 -0.7038
   52CHL1  H11B 4990   4.919   4.049   3.422 -0.0264  1.0182  0.8045
   52CHL1    C9 4991   5.112   4.107   3.331 -0.8731  0.0422 -0.6705
   52CHL1    H9 4992   5.069   4.204   3.300 -1.4728 -0.8241 -2.7119
   52CHL1   C10 4993   5.113   4.027   3.193  0.1836 -0.2255  0.2064
   52CHL1   C19 4994   5.148   3.879   3.219  0.3707  0.1542  0.6446
   52CHL1  H19A 4995   5.138   3.817   3.127 -2.8867 -1.7667  2.0959
   52CHL1  H19B 4996   5.244   3.869   3.272 -0.2246 -0.8006  1.5878
   52CHL1  H19C 4997   5.071   3.832   3.284  1.0499 -3.8762 -1.1143
   52CHL1    C1 4998   4.968   4.029   3.137 -0.3149 -0.5014  0.0255
   52CHL1   H1A 4999   4.903   3.964   3.199  1.1223 -2.5535 -0.5304
   52CHL1   H1B 5000   4.936   4.135   3.135  2.5345  0.4440  0.2211
   52CHL1    C2 5001   4.948   3.988   2.988 -0.2256  0.4714 -0.2573
   52CHL1   H2A 5002   4.845   4.006   2.951 -0.3983 -0.2242 -0.1242
   52CHL1   H2B 5003   4.957   3.877   2.990 -1.7944  0.3227  1.8874
   52CHL1   C20 5004   5.208   4.167   3.892  0.8231  0.4905  0.0640
   52CHL1   H20 5005   5.258   4.068   3.901 -1.8886 -0.9074  0.8233
   52CHL1   C21 5006   5.061   4.146   3.933 -0.3842 -0.4511 -0.5951
   52CHL1  H21A 5007   4.999   4.237   3.924 -1.6209 -1.2484 -0.3099
   52CHL1  H21B 5008   5.060   4.103   4.035 -1.0050 -0.3604 -0.5591
   52CHL1  H21C 5009   5.024   4.068   3.863 -1.4017 -1.0945  0.6233
   52CHL1   C22 5010   5.269   4.255   3.998 -0.6945 -0.0161 -0.2528
   52CHL1  H22A 5011   5.371   4.295   3.979  0.0190 -2.0187 -0.8317
   52CHL1  H22B 5012   5.216   4.352   4.012 -1.8799 -0.5213 -1.1402
   52CHL1   C23 5013   5.294   4.188   4.134 -0.4889  0.0976  0.4108
   52CHL1  H23A 5014   5.192   4.180   4.177 -0.9355 -0.6739 -0.7649
   52CHL1  H23B 5015   5.330   4.084   4.119 -0.1616  0.3129 -0.3350
   52CHL1   C24 5016   5.381   4.268   4.229  0.1155 -0.1595 -1.1307
   52CHL1  H24A 5017   5.484   4.260   4.189  0.4329  2.7593 -1.0756
   52CHL1  H24B 5018   5.344   4.372   4.240  1.2313  0.0929  0.5071
   52CHL1   C25 5019   5.387   4.220   4.378  1.0883  0.2458  0.6570
   52CHL1   H25 5020   5.443   4.124   4.390  2.5395  1.1873  1.7968
   52CHL1   C26 5021   5.472   4.319   4.457  0.1755 -0.0698 -0.2293
   52CHL1  H26A 5022   5.568   4.307   4.404 -0.7997 -2.4275 -1.6077
   52CHL1  H26B 5023   5.426   4.420   4.449 -0.9885 -0.5923 -0.3956
   52CHL1  H26C 5024   5.485   4.282   4.561 -1.8138 -1.2324 -0.3393
   52CHL1   C27 5025   5.245   4.207   4.438  0.1737 -0.1957 -0.0596
   52CHL1  H27A 5026   5.249   4.153   4.535 -1.3046  1.5012  1.0057
   52CHL1  H27B 5027   5.202   4.307   4.461 -0.6869 -0.7543  0.7904
   52CHL1  H27C 5028   5.176   4.152   4.371  2.8161 -0.5609 -2.7111
   53CHL1    C3 5029   5.065   2.450   3.313  0.3812 -0.8781 -0.3687
   53CHL1    H3 5030   4.965   2.464   3.358  0.3750 -0.4334 -0.5157
   53CHL1    O3 5031   5.056   2.442   3.175  0.0297 -0.1903  0.2836
   53CHL1   H3' 5032   5.000   2.515   3.150  4.5782  3.5147 -0.5928
   53CHL1    C4 5033   5.158   2.571   3.353  0.2948 -0.0660 -0.0566
   53CHL1   H4A 5034   5.250   2.551   3.293 -0.7426 -0.8649 -1.4313
   53CHL1   H4B 5035   5.103   2.659   3.314 -0.7521 -0.8184 -0.3310
   53CHL1    C5 5036   5.195   2.570   3.504  0.2417 -0.8405  0.6350
   53CHL1    C6 5037   5.152   2.681   3.566  0.5912 -0.3438  0.3701
   53CHL1    H6 5038   5.118   2.765   3.503  0.2068 -0.9012 -0.1811
   53CHL1    C7 5039   5.164   2.696   3.720  0.1409 -0.2330  0.3097
   53CHL1   H7A 5040   5.215   2.788   3.758 -1.2339  0.1838  1.2351
   53CHL1   H7B 5041   5.067   2.694   3.773  1.8361 -0.8288  3.6954
   53CHL1    C8 5042   5.245   2.583   3.790 -0.3539 -0.1899  0.0877
   53CHL1    H8 5043   5.355   2.589   3.771  0.1237 -0.6327  2.4112
   53CHL1   C14 5044   5.223   2.583   3.937  0.1663  0.2182 -0.0719
   53CHL1   H14 5045   5.113   2.579   3.955  0.0728 -1.8494 -0.8152
   53CHL1   C15 5046   5.261   2.709   4.015  0.4069 -0.6983  1.2836
   53CHL1  H15A 5047   5.352   2.761   3.979 -0.8546  0.5338 -0.2195
   53CHL1  H15B 5048   5.187   2.791   4.009  1.4713  0.1737 -0.7355
   53CHL1   C16 5049   5.282   2.659   4.161 -0.6824  0.2837  0.1634
   53CHL1  H16A 5050   5.386   2.673   4.197  0.2513 -2.2024 -1.3061
   53CHL1  H16B 5051   5.211   2.697   4.238 -0.3510 -1.0106  1.1591
   53CHL1   C17 5052   5.252   2.505   4.156 -0.1956  0.4610 -0.4525
   53CHL1   H17 5053   5.143   2.498   4.172 -0.4976  0.0222 -2.4115
   53CHL1   C13 5054   5.302   2.475   4.012 -0.4634  0.7688  0.1877
   53CHL1   C18 5055   5.459   2.487   3.992 -0.2322  0.5893 -0.3709
   53CHL1  H18A 5056   5.513   2.432   4.072  0.2422  2.5688  0.7225
   53CHL1  H18B 5057   5.485   2.444   3.893  1.0907 -0.1318  0.2537
   53CHL1  H18C 5058   5.495   2.591   4.007  0.0169  0.3012  1.2924
   53CHL1   C12 5059   5.250   2.328   3.956  0.5435 -0.6093 -0.0467
   53CHL1  H12A 5060   5.310   2.246   4.002 -0.4355 -0.0351  2.4243
   53CHL1  H12B 5061   5.145   2.323   3.990  0.2000  0.3327 -0.9299
   53CHL1   C11 5062   5.270   2.330   3.799 -0.5774 -0.3684  0.4418
   53CHL1  H11A 5063   5.379   2.324   3.780 -0.5969  1.4203 -0.4436
   53CHL1  H11B 5064   5.232   2.234   3.759 -1.4216  0.4826 -0.8553
   53CHL1    C9 5065   5.213   2.447   3.724 -0.4127 -1.0832  0.0635
   53CHL1    H9 5066   5.103   2.435   3.735 -0.5319  0.1237  0.2830
   53CHL1   C10 5067   5.238   2.444   3.570  0.0467  0.4657  0.6836
   53CHL1   C19 5068   5.387   2.420   3.534  0.4466  0.7950 -0.1279
   53CHL1  H19A 5069   5.462   2.497   3.560 -0.1315  0.5966  2.3744
   53CHL1  H19B 5070   5.426   2.320   3.563 -0.6366  0.3753 -0.0359
   53CHL1  H19C 5071   5.399   2.409   3.424  1.5143  0.7615 -0.0178
   53CHL1    C1 5072   5.153   2.323   3.518  0.1509  0.2197  0.2298
   53CHL1   H1A 5073   5.198   2.225   3.545 -2.5012 -0.2273  3.6015
   53CHL1   H1B 5074   5.053   2.320   3.565  0.3064 -0.3448  0.5312
   53CHL1    C2 5075   5.125   2.320   3.364  0.0193  0.6875 -0.4134
   53CHL1   H2A 5076   5.050   2.239   3.355 -0.8641  1.4133  0.2644
   53CHL1   H2B 5077   5.226   2.300   3.320  0.7284  2.2742  0.4079
   53CHL1   C20 5078   5.320   2.426   4.271 -0.2701 -0.1057 -0.2838
   53CHL1   H20 5079   5.427   2.402   4.253 -0.1599 -1.0195  1.3454
   53CHL1   C21 5080   5.242   2.297   4.294  0.1282  0.4366  0.5784
   53CHL1  H21A 5081   5.225   2.242   4.199  0.0468  1.6334 -0.1316
   53CHL1  H21B 5082   5.138   2.318   4.325 -0.5531 -0.7172 -0.7851
   53CHL1  H21C 5083   5.280   2.226   4.370 -0.4083  0.0484  0.4925
   53CHL1   C22 5084   5.316   2.508   4.408 -0.4200 -0.0948  0.6590
   53CHL1  H22A 5085   5.342   2.616   4.404 -1.8725  0.2301 -1.7276
   53CHL1  H22B 5086   5.208   2.512   4.433 -1.0788 -2.5192 -1.3519
   53CHL1   C23 5087   5.397   2.429   4.521 -0.4351 -0.3332 -0.1204
   53CHL1  H23A 5088   5.358   2.327   4.542 -0.5226 -0.1053  0.9201
   53CHL1  H23B 5089   5.503   2.416   4.489 -0.2562 -1.0305  0.6891
   53CHL1   C24 5090   5.399   2.512   4.656 -0.0128  0.2615 -0.1013
   53CHL1  H24A 5091   5.419   2.615   4.620  1.5416 -0.4301 -1.3563
   53CHL1  H24B 5092   5.300   2.506   4.706  0.1883 -0.7069  0.2014
   53CHL1   C25 5093   5.506   2.469   4.761  0.3902  0.2567 -0.1393
   53CHL1   H25 5094   5.496   2.359   4.759 -0.5016  0.3301 -0.0592
   53CHL1   C26 5095   5.650   2.522   4.735  0.0795  0.2865 -0.6697
   53CHL1  H26A 5096   5.654   2.632   4.740  0.2655  0.2331  0.6550
   53CHL1  H26B 5097   5.710   2.479   4.818 -0.4306  0.6780 -0.0938
   53CHL1  H26C 5098   5.682   2.495   4.632  0.8847  0.1500 -0.3877
   53CHL1   C27 5099   5.462   2.527   4.901  0.4383 -0.0944  0.5647
   53CHL1  H27A 5100   5.469   2.637   4.894  0.8415 -0.1696 -0.4023
   53CHL1  H27B 5101   5.357   2.508   4.932  0.4242  1.3563  1.4736
   53CHL1  H27C 5102   5.530   2.487   4.979  1.4398 -2.8234 -1.5208
   54CHL1    C3 5103   5.041   5.128   3.328 -0.6891 -0.4693 -0.5045
   54CHL1    H3 5104   4.931   5.120   3.337 -0.4892 -4.9609  0.5470
   54CHL1    O3 5105   5.060   5.106   3.187 -0.2152 -0.2712 -0.0229
   54CHL1   H3' 5106   5.154   5.123   3.179 -0.5895  1.2892 -1.7742
   54CHL1    C4 5107   5.103   5.262   3.381 -0.4048  0.0440 -0.4644
   54CHL1   H4A 5108   5.214   5.256   3.374 -0.2773  0.0171  1.1372
   54CHL1   H4B 5109   5.077   5.350   3.318 -1.6686 -0.9130 -1.3251
   54CHL1    C5 5110   5.071   5.275   3.532  0.2007  0.0188  0.6686
   54CHL1    C6 5111   4.993   5.369   3.588 -0.1147  0.1343  0.8929
   54CHL1    H6 5112   4.952   5.450   3.526  2.8666  1.1917  0.1265
   54CHL1    C7 5113   4.978   5.385   3.744  0.1957 -0.4796 -0.0415
   54CHL1   H7A 5114   4.985   5.492   3.773  1.0887 -0.2509 -1.0213
   54CHL1   H7B 5115   4.879   5.347   3.778 -1.1864  1.5385 -1.5295
   54CHL1    C8 5116   5.085   5.306   3.820  0.6039 -0.2382 -0.2460
   54CHL1    H8 5117   5.181   5.361   3.814  1.0198 -1.0407 -1.3234
   54CHL1   C14 5118   5.037   5.300   3.970  0.2551 -0.9898  0.0851
   54CHL1   H14 5119   4.937   5.252   3.982  0.0894 -0.3806  1.3702
   54CHL1   C15 5120   5.027   5.441   4.030 -0.6349 -0.2456  0.3135
   54CHL1  H15A 5121   5.109   5.501   3.984  0.5787 -1.9632  0.1353
   54CHL1  H15B 5122   4.935   5.488   3.989 -0.2663 -0.2329 -0.5256
   54CHL1   C16 5123   5.038   5.413   4.180  0.0428 -0.4282  0.6176
   54CHL1  H16A 5124   5.115   5.478   4.227  1.1134 -0.2687 -1.2561
   54CHL1  H16B 5125   4.937   5.436   4.219  0.7734  1.7182  1.4340
   54CHL1   C17 5126   5.073   5.260   4.197 -0.5796  0.5810  0.0165
   54CHL1   H17 5127   4.975   5.209   4.209  0.0533 -0.3165  1.5161
   54CHL1   C13 5128   5.130   5.220   4.057  0.4906 -0.8627 -0.8623
   54CHL1   C18 5129   5.278   5.267   4.047  0.3056  0.0453 -0.3460
   54CHL1  H18A 5130   5.348   5.199   4.099  2.5830  3.2100  1.0576
   54CHL1  H18B 5131   5.313   5.267   3.942 -0.2860 -1.5863 -0.5750
   54CHL1  H18C 5132   5.303   5.366   4.090 -0.0312 -0.2928  0.6622
   54CHL1   C12 5133   5.113   5.075   4.009  0.0440  0.0892  0.3104
   54CHL1  H12A 5134   5.167   5.007   4.079  2.0527  0.4605 -0.7956
   54CHL1  H12B 5135   5.006   5.049   4.026 -0.0089 -0.1989 -0.4587
   54CHL1   C11 5136   5.162   5.059   3.864  0.4395 -0.4222  0.6147
   54CHL1  H11A 5137   5.272   5.065   3.872  0.8942 -2.3670 -2.5061
   54CHL1  H11B 5138   5.134   4.960   3.822 -0.3090  0.1785 -0.3481
   54CHL1    C9 5139   5.084   5.161   3.768 -0.6395 -0.2718  0.1637
   54CHL1    H9 5140   4.978   5.130   3.772 -1.3399  2.0531  2.1278
   54CHL1   C10 5141   5.131   5.158   3.622  0.0231 -0.5639  1.0803
   54CHL1   C19 5142   5.280   5.177   3.615 -0.7155 -0.0126 -0.3866
   54CHL1  H19A 5143   5.325   5.177   3.513  0.2032 -0.4959  0.0014
   54CHL1  H19B 5144   5.316   5.271   3.663 -0.2585 -0.2578 -0.2362
   54CHL1  H19C 5145   5.328   5.097   3.676 -1.0030  1.1618  1.4734
   54CHL1    C1 5146   5.089   5.025   3.553 -0.2264  0.1610  0.0804
   54CHL1   H1A 5147   5.159   4.948   3.594  1.9245  1.5828 -0.7485
   54CHL1   H1B 5148   4.984   5.004   3.583 -0.4813 -0.5530 -1.2398
   54CHL1    C2 5149   5.106   5.013   3.401  0.8321 -0.4255 -0.4951
   54CHL1   H2A 5150   5.052   4.924   3.361 -2.5326  0.7793  0.9983
   54CHL1   H2B 5151   5.212   5.006   3.370  1.1280  1.2333  0.0602
   54CHL1   C20 5152   5.153   5.237   4.330  0.2680  0.1405  0.0888
   54CHL1   H20 5153   5.233   5.314   4.333 -1.4114  1.9700  2.0641
   54CHL1   C21 5154   5.208   5.093   4.354 -0.1394 -0.0556  0.7418
   54CHL1  H21A 5155   5.268   5.049   4.272  0.3021 -1.3399  1.7268
   54CHL1  H21B 5156   5.132   5.019   4.385 -1.1139  0.3508 -0.5897
   54CHL1  H21C 5157   5.281   5.099   4.437  0.6699  0.6823  0.0068
   54CHL1   C22 5158   5.063   5.274   4.453  0.5936  0.9541  0.5443
   54CHL1  H22A 5159   5.010   5.370   4.434 -3.4870 -1.2580 -0.4326
   54CHL1  H22B 5160   4.982   5.198   4.454 -0.3932  1.7621 -3.3587
   54CHL1   C23 5161   5.149   5.279   4.579 -0.4628  0.1984  0.7848
   54CHL1  H23A 5162   5.176   5.173   4.598 -0.1779  0.3713  1.3743
   54CHL1  H23B 5163   5.244   5.329   4.550 -0.1182 -1.0016 -0.2383
   54CHL1   C24 5164   5.090   5.340   4.705  0.1428 -0.6772 -1.1258
   54CHL1  H24A 5165   5.010   5.277   4.751  0.3404  0.6630  1.2269
   54CHL1  H24B 5166   5.166   5.351   4.785 -1.2029  0.7871  0.0182
   54CHL1   C25 5167   5.024   5.486   4.692  0.4808 -0.2948 -0.4243
   54CHL1   H25 5168   4.943   5.480   4.616 -0.8639 -0.8587  0.9942
   54CHL1   C26 5169   4.952   5.520   4.827 -0.3343  0.0990  0.5135
   54CHL1  H26A 5170   4.903   5.620   4.826 -1.2140 -0.3136  1.1076
   54CHL1  H26B 5171   4.868   5.448   4.838  0.5759 -1.0312  0.2797
   54CHL1  H26C 5172   5.035   5.524   4.900  1.1534  0.2560 -1.1189
   54CHL1   C27 5173   5.130   5.593   4.646  0.4267  0.6520  0.1991
   54CHL1  H27A 5174   5.224   5.587   4.704  1.1243  0.3671 -0.9369
   54CHL1  H27B 5175   5.158   5.569   4.542  0.2542  1.0299  0.0634
   54CHL1  H27C 5176   5.093   5.698   4.651  2.0718  1.3063 -0.6901
   55CHL1    C3 5177   2.755   1.884   3.403  0.3356  0.2037 -0.5862
   55CHL1    H3 5178   2.862   1.903   3.423  0.5145 -0.8831 -0.4300
   55CHL1    O3 5179   2.733   1.792   3.311  0.0895 -0.2899 -0.3657
   55CHL1   H3' 5180   2.768   1.830   3.230  2.5461  0.9562  1.1503
   55CHL1    C4 5181   2.702   1.811   3.533 -0.3707  0.1402 -0.3591
   55CHL1   H4A 5182   2.595   1.787   3.518 -0.5170 -0.3831  1.2429
   55CHL1   H4B 5183   2.760   1.717   3.543 -1.1333 -0.2133  0.9954
   55CHL1    C5 5184   2.728   1.897   3.656  1.1823 -0.4751  0.3830
   55CHL1    C6 5185   2.786   1.857   3.764  0.3873  0.4941 -0.4195
   55CHL1    H6 5186   2.824   1.754   3.776 -2.5805 -0.8728 -1.6442
   55CHL1    C7 5187   2.794   1.934   3.887 -0.8477 -0.2501 -0.1501
   55CHL1   H7A 5188   2.757   1.873   3.972  0.5619  1.4279  1.7849
   55CHL1   H7B 5189   2.898   1.957   3.920 -0.9225 -1.1953  0.8149
   55CHL1    C8 5190   2.703   2.053   3.885  0.5114  0.2109 -0.6595
   55CHL1    H8 5191   2.601   2.012   3.901  0.2479  0.5324 -1.4595
   55CHL1   C14 5192   2.740   2.143   4.017  0.3426 -0.5718 -0.2545
   55CHL1   H14 5193   2.841   2.180   3.991  0.9260 -2.2075 -0.4285
   55CHL1   C15 5194   2.763   2.075   4.148  0.1572  0.2907 -0.8921
   55CHL1  H15A 5195   2.697   1.986   4.158  0.5799  0.0086 -0.5919
   55CHL1  H15B 5196   2.866   2.036   4.163 -0.1273  0.2056  1.1000
   55CHL1   C16 5197   2.740   2.195   4.248 -0.6260  0.7205 -0.3404
   55CHL1  H16A 5198   2.658   2.162   4.316 -0.9879  1.0925 -0.5905
   55CHL1  H16B 5199   2.836   2.210   4.301  0.2282 -1.5408 -1.1519
   55CHL1   C17 5200   2.708   2.323   4.161  0.3051  0.2734  0.7741
   55CHL1   H17 5201   2.802   2.370   4.126  1.7186 -2.4215  0.7305
   55CHL1   C13 5202   2.644   2.264   4.035 -0.0577 -0.5179 -0.4963
   55CHL1   C18 5203   2.501   2.213   4.060 -0.1875  0.8721  0.1914
   55CHL1  H18A 5204   2.450   2.180   3.967  1.9200  1.0616 -1.1089
   55CHL1  H18B 5205   2.504   2.129   4.133  1.0791  0.7849  0.0629
   55CHL1  H18C 5206   2.434   2.291   4.100  0.0084  0.5271  1.2335
   55CHL1   C12 5207   2.668   2.344   3.906  0.5969 -0.3883  0.2212
   55CHL1  H12A 5208   2.612   2.439   3.892 -0.3193 -1.1180 -1.5070
   55CHL1  H12B 5209   2.773   2.379   3.908  0.7317 -0.8199  0.7662
   55CHL1   C11 5210   2.631   2.264   3.780  0.0588 -0.0171 -0.0147
   55CHL1  H11A 5211   2.520   2.258   3.781  0.0975 -0.8333  0.4456
   55CHL1  H11B 5212   2.645   2.325   3.688 -1.9737 -1.8277 -1.6408
   55CHL1    C9 5213   2.707   2.131   3.761  0.0761 -0.5761  0.1750
   55CHL1    H9 5214   2.814   2.158   3.746 -0.5305  0.7115 -2.2849
   55CHL1   C10 5215   2.665   2.042   3.640  0.2667 -0.3105 -0.4759
   55CHL1   C19 5216   2.513   2.031   3.646  0.0971 -0.2984 -0.0702
   55CHL1  H19A 5217   2.463   1.956   3.581 -1.0867 -0.6222  1.1521
   55CHL1  H19B 5218   2.465   2.035   3.746 -1.9121  0.1881 -0.9977
   55CHL1  H19C 5219   2.461   2.120   3.606  0.4609 -0.1798 -0.2826
   55CHL1    C1 5220   2.706   2.103   3.498  0.0111  0.3364  0.1180
   55CHL1   H1A 5221   2.644   2.194   3.483 -0.2800 -0.0616 -1.1615
   55CHL1   H1B 5222   2.814   2.125   3.512 -0.0777 -0.0698  1.5805
   55CHL1    C2 5223   2.683   2.019   3.377 -0.4198 -0.1719  0.0276
   55CHL1   H2A 5224   2.729   2.064   3.287  1.3886  0.0918  1.0419
   55CHL1   H2B 5225   2.574   2.000   3.366 -0.4586 -0.1678  0.4228
   55CHL1   C20 5226   2.616   2.420   4.236 -0.6843 -0.3815 -0.3572
   55CHL1   H20 5227   2.528   2.364   4.274 -0.4227 -0.2083  0.5319
   55CHL1   C21 5228   2.573   2.544   4.155 -0.1436  0.3947  0.2024
   55CHL1  H21A 5229   2.510   2.605   4.223 -0.2160  1.3108 -0.6564
   55CHL1  H21B 5230   2.526   2.528   4.055  2.0838  0.4261 -0.9136
   55CHL1  H21C 5231   2.663   2.609   4.150  0.5640 -0.4999  0.9677
   55CHL1   C22 5232   2.681   2.465   4.372  0.8034 -0.0111  0.2460
   55CHL1  H22A 5233   2.610   2.538   4.416  2.9939  1.2888  1.8404
   55CHL1  H22B 5234   2.687   2.377   4.440 -0.0424 -0.2690 -0.0091
   55CHL1   C23 5235   2.819   2.525   4.368  0.5917  0.0286 -0.7209
   55CHL1  H23A 5236   2.883   2.442   4.333  0.8157 -0.2032  0.2324
   55CHL1  H23B 5237   2.841   2.605   4.294  3.2591 -1.5699 -1.7831
   55CHL1   C24 5238   2.855   2.577   4.513 -0.1161 -0.9709 -0.4816
   55CHL1  H24A 5239   2.786   2.663   4.518 -0.6178 -1.3110 -1.3308
   55CHL1  H24B 5240   2.827   2.498   4.586 -1.1836 -1.6139 -1.5465
   55CHL1   C25 5241   3.003   2.618   4.538 -0.1174  0.1815  0.0155
   55CHL1   H25 5242   3.065   2.526   4.531 -1.8992 -0.9384 -1.8381
   55CHL1   C26 5243   3.061   2.726   4.438  0.6437 -0.2137 -0.0089
   55CHL1  H26A 5244   3.164   2.765   4.457  0.2642  0.4062  0.8474
   55CHL1  H26B 5245   3.068   2.677   4.339 -0.6932 -0.4420 -0.0082
   55CHL1  H26C 5246   2.986   2.807   4.423 -0.6867 -1.6133 -1.1555
   55CHL1   C27 5247   3.011   2.667   4.681  0.1558 -0.5928  0.0983
   55CHL1  H27A 5248   3.105   2.717   4.710  1.1303 -2.0837 -0.3913
   55CHL1  H27B 5249   2.935   2.744   4.708  0.2341 -0.9432  1.3910
   55CHL1  H27C 5250   2.987   2.578   4.743 -1.4004 -0.4257 -0.2162
   56CHL1    C3 5251   0.022   3.248   3.092  0.2299  0.6383  0.0807
   56CHL1    H3 5252  -0.052   3.165   3.096 -0.6701  1.4556  1.0074
   56CHL1    O3 5253   0.033   3.296   2.958  0.2888  0.0503  0.3203
   56CHL1   H3' 5254   0.089   3.374   2.967  0.8888 -0.3937  0.5822
   56CHL1    C4 5255  -0.034   3.360   3.188 -0.0998  0.2947  0.8800
   56CHL1   H4A 5256   0.014   3.458   3.165 -1.4089  0.5466 -1.0445
   56CHL1   H4B 5257  -0.135   3.393   3.156  0.7306  2.4942  0.2931
   56CHL1    C5 5258  -0.027   3.334   3.333 -1.0603 -0.2533 -0.7707
   56CHL1    C6 5259  -0.137   3.336   3.410 -0.6332 -0.2720  0.0702
   56CHL1    H6 5260  -0.228   3.371   3.358  1.3172  3.8410 -1.0033
   56CHL1    C7 5261  -0.143   3.326   3.562 -0.5609 -0.1193 -0.0208
   56CHL1   H7A 5262  -0.193   3.414   3.608  2.3386  0.7675  1.6826
   56CHL1   H7B 5263  -0.199   3.233   3.582 -0.5163  0.3897  2.8459
   56CHL1    C8 5264   0.003   3.332   3.625  0.0991  0.4468  0.3765
   56CHL1    H8 5265   0.048   3.434   3.622  0.9842  0.0663  0.4103
   56CHL1   C14 5266   0.002   3.273   3.762 -0.2073  0.3220 -0.3171
   56CHL1   H14 5267  -0.012   3.163   3.752 -0.2236  0.2039  0.8367
   56CHL1   C15 5268  -0.107   3.303   3.862  0.1477  0.3179 -0.7830
   56CHL1  H15A 5269  -0.134   3.411   3.875 -0.6425 -0.1757  3.1254
   56CHL1  H15B 5270  -0.200   3.246   3.840  0.5598 -0.2445 -1.0752
   56CHL1   C16 5271  -0.056   3.259   4.001 -0.0386 -0.2723 -0.2482
   56CHL1  H16A 5272  -0.049   3.346   4.069 -0.4276  0.0560 -0.6262
   56CHL1  H16B 5273  -0.127   3.180   4.034  0.3394  0.4047  2.3496
   56CHL1   C17 5274   0.084   3.187   3.975 -0.4487 -0.4520 -0.1376
   56CHL1   H17 5275   0.057   3.084   3.945 -0.0040 -0.4974 -0.3843
   56CHL1   C13 5276   0.137   3.253   3.836 -0.0147 -0.8174 -0.0905
   56CHL1   C18 5277   0.204   3.388   3.858 -0.3435  0.1102 -0.0463
   56CHL1  H18A 5278   0.308   3.386   3.897  0.0308 -0.8349 -1.0273
   56CHL1  H18B 5279   0.206   3.437   3.758 -0.0124 -0.5218 -0.3553
   56CHL1  H18C 5280   0.148   3.452   3.929  1.0079 -0.0217  1.1815
   56CHL1   C12 5281   0.228   3.167   3.749 -0.4217 -0.9945  0.0599
   56CHL1  H12A 5282   0.335   3.177   3.778  0.4307 -0.5226 -2.9012
   56CHL1  H12B 5283   0.194   3.061   3.741 -0.4218 -0.8904 -1.7285
   56CHL1   C11 5284   0.234   3.204   3.601 -0.3312  0.1359 -0.7409
   56CHL1  H11A 5285   0.303   3.290   3.589  1.2250 -0.9891 -0.2539
   56CHL1  H11B 5286   0.282   3.114   3.555  0.0449 -0.2555  0.3792
   56CHL1    C9 5287   0.091   3.231   3.537 -0.1205 -0.8246  0.0221
   56CHL1    H9 5288   0.031   3.138   3.524 -1.7066  0.3797 -1.8506
   56CHL1   C10 5289   0.111   3.284   3.388  0.6596 -0.0436 -0.1613
   56CHL1   C19 5290   0.201   3.413   3.386  0.0621  0.4841 -0.5229
   56CHL1  H19A 5291   0.194   3.464   3.484 -1.5477 -0.4710 -0.0880
   56CHL1  H19B 5292   0.306   3.380   3.380  0.6522  2.2212 -0.3101
   56CHL1  H19C 5293   0.179   3.486   3.305 -2.5859  2.2320  1.5904
   56CHL1    C1 5294   0.150   3.163   3.287 -0.1647 -0.2431 -0.0327
   56CHL1   H1A 5295   0.247   3.122   3.321 -1.7594 -3.4827  1.0220
   56CHL1   H1B 5296   0.073   3.083   3.289  2.1071 -2.5857  2.5712
   56CHL1    C2 5297   0.160   3.201   3.137 -0.0973  0.3551 -0.8892
   56CHL1   H2A 5298   0.192   3.107   3.086 -0.2893  1.0994 -2.4559
   56CHL1   H2B 5299   0.240   3.278   3.134  0.7022 -0.4277 -0.2059
   56CHL1   C20 5300   0.171   3.182   4.103  0.8208  0.0433  0.2609
   56CHL1   H20 5301   0.190   3.287   4.136 -1.0729  0.7323 -0.6949
   56CHL1   C21 5302   0.298   3.108   4.056 -0.4780 -0.1450 -0.0028
   56CHL1  H21A 5303   0.356   3.076   4.145 -0.4504  0.1728  0.0930
   56CHL1  H21B 5304   0.363   3.179   4.000  0.1023  1.5678  2.6873
   56CHL1  H21C 5305   0.275   3.014   4.001  0.7544  0.0013 -0.8194
   56CHL1   C22 5306   0.107   3.105   4.221  0.0309  0.7190 -0.1931
   56CHL1  H22A 5307   0.011   3.155   4.244  0.0662 -0.3490  2.6491
   56CHL1  H22B 5308   0.089   3.000   4.188  1.4076  1.2288 -2.8484
   56CHL1   C23 5309   0.190   3.105   4.349 -0.7717 -0.0855  0.5617
   56CHL1  H23A 5310   0.299   3.088   4.347 -0.9605 -1.6881 -2.2220
   56CHL1  H23B 5311   0.179   3.206   4.393  0.1665  0.2499  0.0460
   56CHL1   C24 5312   0.118   3.020   4.453 -0.1822 -0.3582  0.4705
   56CHL1  H24A 5313   0.022   3.064   4.488 -0.6752 -0.4081 -0.7613
   56CHL1  H24B 5314   0.086   2.920   4.418  0.0782 -0.3335  0.1591
   56CHL1   C25 5315   0.186   2.998   4.586  0.0756  0.4330 -0.7425
   56CHL1   H25 5316   0.117   2.925   4.633  0.1383  0.5497 -0.4663
   56CHL1   C26 5317   0.326   2.931   4.566  0.2382  0.9423 -0.1217
   56CHL1  H26A 5318   0.321   2.849   4.491  0.1355 -0.3701  1.2544
   56CHL1  H26B 5319   0.401   3.001   4.523 -0.1641  2.0505  0.9390
   56CHL1  H26C 5320   0.373   2.912   4.665  0.8463  0.8061 -0.4314
   56CHL1   C27 5321   0.195   3.127   4.675 -0.0817 -0.5136  0.1554
   56CHL1  H27A 5322   0.250   3.088   4.764 -1.5916 -0.2059  1.2575
   56CHL1  H27B 5323   0.239   3.209   4.615  0.9032 -1.4440 -0.4432
   56CHL1  H27C 5324   0.093   3.166   4.692 -0.4988  0.3629 -3.5480
   57CHL1    C3 5325   1.449   2.497   3.674  0.1385  0.2119 -0.1348
   57CHL1    H3 5326   1.454   2.603   3.642 -0.1060  0.0324 -0.7741
   57CHL1    O3 5327   1.432   2.418   3.558 -0.8952  0.2700 -0.2298
   57CHL1   H3' 5328   1.368   2.461   3.500 -1.7614 -0.3181  0.2654
   57CHL1    C4 5329   1.578   2.456   3.742  0.6414 -0.9732  0.0525
   57CHL1   H4A 5330   1.595   2.346   3.742  3.1040 -0.6475 -0.3303
   57CHL1   H4B 5331   1.655   2.489   3.669 -0.1681  0.5120 -0.1574
   57CHL1    C5 5332   1.605   2.499   3.884 -0.3546  0.0011  0.2975
   57CHL1    C6 5333   1.726   2.545   3.926 -0.0129 -0.1649 -0.2123
   57CHL1    H6 5334   1.811   2.544   3.856  0.1992  2.4177 -0.0966
   57CHL1    C7 5335   1.756   2.592   4.064  0.6632  0.3096 -0.5784
   57CHL1   H7A 5336   1.856   2.556   4.098  0.5065 -0.6200 -1.0791
   57CHL1   H7B 5337   1.758   2.701   4.084  1.4680  0.0561  0.8866
   57CHL1    C8 5338   1.652   2.540   4.174 -0.2061 -0.4534 -0.5272
   57CHL1    H8 5339   1.670   2.434   4.200 -2.6715 -0.2044  2.9103
   57CHL1   C14 5340   1.669   2.621   4.302 -0.4694  0.0944  0.2088
   57CHL1   H14 5341   1.645   2.725   4.271  0.8455 -0.0034 -1.2374
   57CHL1   C15 5342   1.808   2.634   4.368 -0.9179  0.5157 -0.2351
   57CHL1  H15A 5343   1.858   2.536   4.355  0.4834  1.3039 -0.9520
   57CHL1  H15B 5344   1.873   2.706   4.314  1.6398 -2.4665 -1.3632
   57CHL1   C16 5345   1.786   2.685   4.512  0.1534 -0.3381  0.2027
   57CHL1  H16A 5346   1.828   2.604   4.575 -1.3189  0.3340  2.1219
   57CHL1  H16B 5347   1.831   2.783   4.538  0.0026  0.2006 -1.4035
   57CHL1   C17 5348   1.632   2.690   4.527  0.4465  0.0760  0.2155
   57CHL1   H17 5349   1.592   2.786   4.488 -0.6701 -0.8728 -1.0990
   57CHL1   C13 5350   1.577   2.596   4.416 -0.4448 -0.0350 -0.2038
   57CHL1   C18 5351   1.581   2.448   4.464  0.2073  0.2235  0.4375
   57CHL1  H18A 5352   1.520   2.429   4.554 -2.0323  0.4962 -0.9299
   57CHL1  H18B 5353   1.540   2.368   4.398  1.0784 -0.6804  0.9768
   57CHL1  H18C 5354   1.683   2.415   4.489  0.3682 -0.4872 -1.0277
   57CHL1   C12 5355   1.441   2.627   4.364 -1.3665  0.0256  0.7246
   57CHL1  H12A 5356   1.370   2.582   4.436 -0.5642 -2.0344  0.3029
   57CHL1  H12B 5357   1.428   2.736   4.344  3.1719  0.2326 -2.8047
   57CHL1   C11 5358   1.411   2.551   4.228 -0.4758  0.3209 -0.5999
   57CHL1  H11A 5359   1.390   2.446   4.258  3.6337 -0.8785 -1.4175
   57CHL1  H11B 5360   1.318   2.596   4.185  0.1243  1.5085 -0.6968
   57CHL1    C9 5361   1.513   2.559   4.116 -0.0930  0.8742  0.1866
   57CHL1    H9 5362   1.513   2.666   4.086 -1.4355  1.5296  2.3073
   57CHL1   C10 5363   1.485   2.482   3.978 -0.7831 -1.1934 -1.4059
   57CHL1   C19 5364   1.472   2.336   4.007  0.5333  0.7113  0.1577
   57CHL1  H19A 5365   1.380   2.326   4.069 -0.3107  1.8406 -0.8811
   57CHL1  H19B 5366   1.457   2.271   3.918 -2.0858 -0.8929  1.6363
   57CHL1  H19C 5367   1.556   2.298   4.070  1.2403  1.2179 -0.4642
   57CHL1    C1 5368   1.363   2.547   3.908  0.5300 -0.2250  0.5545
   57CHL1   H1A 5369   1.268   2.541   3.964  2.1149  0.9162  3.6353
   57CHL1   H1B 5370   1.377   2.657   3.902 -0.3936 -0.1561 -1.3369
   57CHL1    C2 5371   1.332   2.478   3.773 -0.1070 -0.0761  0.2217
   57CHL1   H2A 5372   1.246   2.524   3.720 -0.8681 -2.5537 -0.8737
   57CHL1   H2B 5373   1.309   2.369   3.779 -3.2071  0.5256  0.8510
   57CHL1   C20 5374   1.576   2.679   4.663 -0.2014  0.1757 -0.0271
   57CHL1   H20 5375   1.472   2.641   4.657 -0.8840  2.0835 -1.3200
   57CHL1   C21 5376   1.565   2.819   4.716  0.5726  0.4693  0.9342
   57CHL1  H21A 5377   1.507   2.831   4.810 -2.9475  1.5901 -1.2076
   57CHL1  H21B 5378   1.529   2.888   4.637  0.7265 -2.0462 -1.4729
   57CHL1  H21C 5379   1.670   2.848   4.740  1.4758  1.4879 -3.3943
   57CHL1   C22 5380   1.651   2.590   4.763 -0.1525 -0.2554  0.2405
   57CHL1  H22A 5381   1.653   2.487   4.721 -0.5707 -0.6391  1.1360
   57CHL1  H22B 5382   1.756   2.616   4.788  0.6579 -1.9814 -1.0946
   57CHL1   C23 5383   1.579   2.571   4.901  0.5794 -0.1294 -0.2028
   57CHL1  H23A 5384   1.615   2.656   4.963  1.3320  0.1859 -1.0397
   57CHL1  H23B 5385   1.470   2.577   4.880  0.4389  0.4530  0.6525
   57CHL1   C24 5386   1.604   2.438   4.976 -0.4356  0.4247  0.2794
   57CHL1  H24A 5387   1.581   2.359   4.902 -1.9498  0.3068  0.8503
   57CHL1  H24B 5388   1.713   2.419   4.982 -0.2757  0.5740 -1.6670
   57CHL1   C25 5389   1.533   2.409   5.111  0.0709 -0.6690  0.0651
   57CHL1   H25 5390   1.439   2.468   5.115 -0.3888 -1.3660 -0.0922
   57CHL1   C26 5391   1.513   2.260   5.134  0.0055  0.1231 -0.4689
   57CHL1  H26A 5392   1.607   2.202   5.141  0.4242  0.9232  0.9777
   57CHL1  H26B 5393   1.448   2.234   5.220  1.2218  0.6649  0.6406
   57CHL1  H26C 5394   1.449   2.217   5.054  1.3270 -0.0014 -1.4875
   57CHL1   C27 5395   1.628   2.469   5.219 -0.2148 -0.4745  0.2256
   57CHL1  H27A 5396   1.660   2.574   5.198 -1.5307 -0.1659 -0.4083
   57CHL1  H27B 5397   1.576   2.474   5.317  1.3159 -0.1132  1.0389
   57CHL1  H27C 5398   1.724   2.415   5.233  1.5965  2.0393 -1.4626
   58CHL1    C3 5399   1.163   3.734   3.014  0.7170 -0.2041  0.4542
   58CHL1    H3 5400   1.129   3.629   3.024 -2.3781  0.6089 -0.3540
   58CHL1    O3 5401   1.173   3.766   2.877  0.5407 -0.1761  0.2328
   58CHL1   H3' 5402   1.182   3.860   2.861 -0.0931 -0.4504 -2.3134
   58CHL1    C4 5403   1.058   3.818   3.087 -0.5836 -0.0444  0.2592
   58CHL1   H4A 5404   1.084   3.925   3.068  0.9446 -0.8001 -2.4967
   58CHL1   H4B 5405   0.965   3.796   3.031  0.6922  0.7254 -2.3395
   58CHL1    C5 5406   1.046   3.767   3.234 -0.9806  0.5139  0.2159
   58CHL1    C6 5407   0.935   3.704   3.278  0.1861  0.0233 -0.1709
   58CHL1    H6 5408   0.845   3.701   3.215  0.0450 -0.6928  0.0541
   58CHL1    C7 5409   0.911   3.662   3.420  0.3655 -0.4633 -0.3528
   58CHL1   H7A 5410   0.808   3.694   3.448  0.1822 -0.9173 -0.4847
   58CHL1   H7B 5411   0.905   3.551   3.428  0.2143 -0.3867  0.8313
   58CHL1    C8 5412   1.017   3.723   3.514  0.4501  0.0853  0.2410
   58CHL1    H8 5413   0.998   3.831   3.531 -0.5048  0.2794 -1.7209
   58CHL1   C14 5414   1.005   3.642   3.648 -0.5620  0.1459  0.6804
   58CHL1   H14 5415   1.037   3.540   3.619 -1.2872  0.3617 -1.0047
   58CHL1   C15 5416   0.870   3.626   3.718 -0.1776 -0.1680  0.1827
   58CHL1  H15A 5417   0.821   3.725   3.725 -0.0580 -0.2126  1.8788
   58CHL1  H15B 5418   0.810   3.548   3.666 -0.2451 -0.6467  0.9714
   58CHL1   C16 5419   0.921   3.574   3.858 -0.4403 -0.5423 -0.2122
   58CHL1  H16A 5420   0.870   3.636   3.935  0.5217 -0.6658  0.5400
   58CHL1  H16B 5421   0.887   3.472   3.883  1.9066 -0.8286  2.2998
   58CHL1   C17 5422   1.072   3.589   3.867 -0.3862 -0.0693  0.0427
   58CHL1   H17 5423   1.129   3.495   3.849 -0.7152 -0.2896  0.1397
   58CHL1   C13 5424   1.111   3.684   3.750  0.6576  0.8283 -0.0770
   58CHL1   C18 5425   1.083   3.822   3.800  0.2067 -0.4929 -0.2368
   58CHL1  H18A 5426   1.156   3.867   3.871  0.1742  0.1726 -0.6132
   58CHL1  H18B 5427   1.067   3.906   3.728 -0.1016  0.6156  1.0840
   58CHL1  H18C 5428   0.989   3.822   3.859  1.1283  2.4451  1.4565
   58CHL1   C12 5429   1.255   3.666   3.698  0.4046 -0.1842 -0.1973
   58CHL1  H12A 5430   1.331   3.709   3.767  0.1196  0.4421 -0.2595
   58CHL1  H12B 5431   1.275   3.559   3.676  0.8563 -0.3112  0.7997
   58CHL1   C11 5432   1.266   3.756   3.571  0.2215 -0.0934 -0.0818
   58CHL1  H11A 5433   1.256   3.864   3.597  2.4309  0.0715  0.2815
   58CHL1  H11B 5434   1.370   3.753   3.532  1.6049  2.6998  2.8686
   58CHL1    C9 5435   1.163   3.713   3.460  0.3444 -0.1154 -0.0774
   58CHL1    H9 5436   1.182   3.604   3.449  0.3904 -0.0346 -0.7908
   58CHL1   C10 5437   1.177   3.776   3.312  0.6029 -0.3553 -0.6015
   58CHL1   C19 5438   1.204   3.923   3.349  0.1193  0.0078  0.0465
   58CHL1  H19A 5439   1.285   3.956   3.416  1.4124  1.2203 -1.9873
   58CHL1  H19B 5440   1.223   3.984   3.258 -0.2724  0.9709  0.5985
   58CHL1  H19C 5441   1.113   3.977   3.383  0.4826  0.5782  0.1219
   58CHL1    C1 5442   1.287   3.704   3.226  0.1286  0.2012  0.2522
   58CHL1   H1A 5443   1.388   3.724   3.269  0.3772  1.8253 -0.9834
   58CHL1   H1B 5444   1.274   3.594   3.218  0.6184  0.1358  0.3322
   58CHL1    C2 5445   1.289   3.751   3.083 -0.3412 -0.5636  1.0571
   58CHL1   H2A 5446   1.363   3.679   3.042 -1.4322 -0.8447 -0.4980
   58CHL1   H2B 5447   1.335   3.852   3.074  0.4242 -0.9984  0.0033
   58CHL1   C20 5448   1.126   3.623   4.004  1.0396  0.2280 -0.0939
   58CHL1   H20 5449   1.075   3.716   4.036 -1.4272 -1.0159 -0.1096
   58CHL1   C21 5450   1.273   3.646   4.011 -0.3585  0.2403 -0.4387
   58CHL1  H21A 5451   1.321   3.557   3.966 -1.7459 -0.7280 -0.0502
   58CHL1  H21B 5452   1.317   3.677   4.108 -0.2003  0.2667 -0.5178
   58CHL1  H21C 5453   1.311   3.739   3.963  0.2343  0.4160  0.3445
   58CHL1   C22 5454   1.084   3.516   4.110  0.1193 -0.3923 -0.3524
   58CHL1  H22A 5455   0.992   3.459   4.088  0.0180 -1.9651  3.3949
   58CHL1  H22B 5456   1.162   3.438   4.115  0.0171 -0.4856 -0.2011
   58CHL1   C23 5457   1.073   3.584   4.254  0.0347  0.1869 -1.1536
   58CHL1  H23A 5458   1.161   3.652   4.263 -1.8871  2.5622  1.6628
   58CHL1  H23B 5459   0.986   3.653   4.264  0.3520  0.4028  0.4745
   58CHL1   C24 5460   1.061   3.482   4.370 -0.0902  0.2989  0.2314
   58CHL1  H24A 5461   1.063   3.542   4.463 -0.4579 -0.8388  0.9936
   58CHL1  H24B 5462   0.957   3.445   4.366 -0.2717  0.5861  1.8231
   58CHL1   C25 5463   1.163   3.368   4.386  0.3772 -0.1663 -0.2968
   58CHL1   H25 5464   1.167   3.305   4.295 -0.4093  0.0781 -0.5081
   58CHL1   C26 5465   1.309   3.417   4.393  0.0408 -0.1423  0.4496
   58CHL1  H26A 5466   1.389   3.340   4.397  0.6347  0.3669 -1.1381
   58CHL1  H26B 5467   1.329   3.485   4.307 -1.8971 -2.3348 -1.8902
   58CHL1  H26C 5468   1.316   3.485   4.481 -1.3205  0.2055  0.3136
   58CHL1   C27 5469   1.135   3.287   4.513 -0.3412 -0.4422 -0.0220
   58CHL1  H27A 5470   1.211   3.206   4.523 -1.3920 -1.3302  0.9931
   58CHL1  H27B 5471   1.146   3.355   4.600 -0.6692  0.2221 -0.4837
   58CHL1  H27C 5472   1.036   3.238   4.504 -0.7086  0.1800  0.5433
   59CHL1    C3 5473   0.879   0.415   3.600 -0.1726 -0.0833 -0.2772
   59CHL1    H3 5474   0.798   0.370   3.662 -0.6102 -0.1217 -0.8650
   59CHL1    O3 5475   0.826   0.442   3.475 -0.0925  0.9794  0.0193
   59CHL1   H3' 5476   0.884   0.507   3.435  2.3925 -1.0460  0.0944
   59CHL1    C4 5477   0.937   0.545   3.661 -0.4606 -0.9010 -0.1105
   59CHL1   H4A 5478   1.019   0.576   3.592 -0.0040  1.1423  1.2718
   59CHL1   H4B 5479   0.854   0.618   3.656 -2.3191 -2.9800 -2.8571
   59CHL1    C5 5480   0.986   0.518   3.802  0.1196  0.0084  0.2365
   59CHL1    C6 5481   0.922   0.585   3.898  0.9114 -0.3030  0.3162
   59CHL1    H6 5482   0.844   0.655   3.864 -1.7952 -3.4201 -0.4694
   59CHL1    C7 5483   0.947   0.554   4.042 -0.4889 -0.3173 -0.0519
   59CHL1   H7A 5484   0.947   0.651   4.096  0.5560  0.3052 -1.1137
   59CHL1   H7B 5485   0.871   0.485   4.083 -2.7711  0.1461 -3.1372
   59CHL1    C8 5486   1.086   0.478   4.059  0.7167  1.0740  0.9053
   59CHL1    H8 5487   1.161   0.558   4.041  0.5014  1.1393  0.2970
   59CHL1   C14 5488   1.100   0.418   4.196  0.1070  0.0541 -0.0857
   59CHL1   H14 5489   1.024   0.337   4.200  2.0382 -1.8270  1.1699
   59CHL1   C15 5490   1.079   0.508   4.314  0.5242 -0.5502 -0.2168
   59CHL1  H15A 5491   1.147   0.594   4.296  0.8426 -0.2758  1.9679
   59CHL1  H15B 5492   0.972   0.534   4.329  0.8827 -0.5614  3.1758
   59CHL1   C16 5493   1.127   0.422   4.431 -0.3593  0.1057  1.3991
   59CHL1  H16A 5494   1.181   0.493   4.498  0.3184  0.5375  0.4195
   59CHL1  H16B 5495   1.049   0.376   4.495 -1.8467 -1.4164 -1.3194
   59CHL1   C17 5496   1.226   0.316   4.379  0.1150  0.0999 -0.7541
   59CHL1   H17 5497   1.164   0.226   4.401 -0.4851  0.7166  0.1547
   59CHL1   C13 5498   1.240   0.349   4.230 -0.0590  0.4745 -0.1301
   59CHL1   C18 5499   1.361   0.443   4.211 -0.5951 -0.1918  0.6115
   59CHL1  H18A 5500   1.453   0.404   4.258  0.2440  1.6606  0.5877
   59CHL1  H18B 5501   1.378   0.472   4.104  3.3180 -0.5062  1.0155
   59CHL1  H18C 5502   1.340   0.543   4.254 -1.9064  0.2731 -1.0041
   59CHL1   C12 5503   1.251   0.235   4.136  0.0047  0.5083 -0.0644
   59CHL1  H12A 5504   1.346   0.178   4.144  0.0858  0.4058 -1.5007
   59CHL1  H12B 5505   1.170   0.172   4.176  0.1494  1.1079  1.2207
   59CHL1   C11 5506   1.226   0.272   3.985  0.3650  0.0818  0.2074
   59CHL1  H11A 5507   1.323   0.312   3.951 -0.1743  1.8708  0.6566
   59CHL1  H11B 5508   1.204   0.175   3.937 -1.4025  0.9763 -0.9083
   59CHL1    C9 5509   1.108   0.367   3.954 -0.7699  0.1050  0.6675
   59CHL1    H9 5510   1.023   0.302   3.984  0.3193 -1.4204  0.5585
   59CHL1   C10 5511   1.100   0.412   3.810 -0.5234  0.2932 -0.5136
   59CHL1   C19 5512   1.226   0.487   3.759 -0.8798 -0.4451 -0.2685
   59CHL1  H19A 5513   1.225   0.511   3.650 -0.8595 -0.7902 -0.3467
   59CHL1  H19B 5514   1.244   0.583   3.811 -1.6945 -0.8827  0.8524
   59CHL1  H19C 5515   1.309   0.415   3.775 -0.4069 -0.3690 -2.1304
   59CHL1    C1 5516   1.066   0.289   3.719 -0.1034  0.1524 -0.0915
   59CHL1   H1A 5517   1.157   0.228   3.698 -0.0795  0.5421 -1.1417
   59CHL1   H1B 5518   0.994   0.220   3.767  0.1368 -0.7437 -0.9954
   59CHL1    C2 5519   1.004   0.323   3.581 -0.2667 -0.3355 -1.0207
   59CHL1   H2A 5520   0.973   0.245   3.509  0.3755 -0.1942 -1.4557
   59CHL1   H2B 5521   1.078   0.383   3.524  1.3499  0.3191  1.5784
   59CHL1   C20 5522   1.349   0.302   4.468 -0.0987 -0.4651  0.1530
   59CHL1   H20 5523   1.400   0.400   4.478  1.4734 -1.3312  1.0200
   59CHL1   C21 5524   1.449   0.198   4.430  0.1903  1.0733  0.1044
   59CHL1  H21A 5525   1.421   0.099   4.472 -1.8356  1.9482  0.9458
   59CHL1  H21B 5526   1.550   0.208   4.475  0.6495  1.7591 -1.0496
   59CHL1  H21C 5527   1.469   0.188   4.322  0.9509  0.7426  0.2662
   59CHL1   C22 5528   1.310   0.266   4.613 -0.0278  0.0721  0.1547
   59CHL1  H22A 5529   1.237   0.341   4.649 -0.4004 -1.4966  2.8991
   59CHL1  H22B 5530   1.267   0.164   4.606  1.6749 -0.6670 -0.0712
   59CHL1   C23 5531   1.424   0.258   4.717  0.6161 -0.2419  0.2592
   59CHL1  H23A 5532   1.497   0.178   4.692  0.7941  0.2605 -0.8994
   59CHL1  H23B 5533   1.478   0.354   4.706  1.1108 -0.2201  2.4009
   59CHL1   C24 5534   1.357   0.252   4.850  0.3074 -0.0089 -0.4600
   59CHL1  H24A 5535   1.285   0.336   4.864  1.0319  0.2446  2.5431
   59CHL1  H24B 5536   1.302   0.156   4.850  0.0300  0.1442 -1.1060
   59CHL1   C25 5537   1.448   0.262   4.969  0.7684 -0.4108  0.7219
   59CHL1   H25 5538   1.496   0.361   4.960 -1.3017  0.6539  0.7056
   59CHL1   C26 5539   1.370   0.283   5.102  0.6657  0.2993  0.6288
   59CHL1  H26A 5540   1.434   0.308   5.190 -0.8201  0.6930  1.6304
   59CHL1  H26B 5541   1.294   0.360   5.076 -0.9945 -1.2689  0.6363
   59CHL1  H26C 5542   1.313   0.192   5.131  1.0624 -0.3007 -0.4355
   59CHL1   C27 5543   1.556   0.159   4.976 -0.4319 -0.0502  0.1746
   59CHL1  H27A 5544   1.623   0.167   5.064 -0.0784  0.1640 -0.1091
   59CHL1  H27B 5545   1.492   0.069   4.987 -0.3950  0.0501  1.2387
   59CHL1  H27C 5546   1.609   0.161   4.878  0.7684  0.6830  0.8147
   60CHL1    C3 5547   2.529   5.415   3.529  0.0370  0.0854  0.3536
   60CHL1    H3 5548   2.622   5.440   3.584  1.0669 -2.7612  0.0911
   60CHL1    O3 5549   2.556   5.356   3.406 -0.0540 -0.6558  0.1497
   60CHL1   H3' 5550   2.474   5.350   3.356  1.4157 -4.0560 -2.2760
   60CHL1    C4 5551   2.450   5.318   3.619 -0.3126  0.2250  0.5248
   60CHL1   H4A 5552   2.355   5.294   3.566  0.2780  0.8317 -0.8564
   60CHL1   H4B 5553   2.499   5.220   3.637 -2.0461 -0.5923  1.0779
   60CHL1    C5 5554   2.421   5.373   3.759  0.2597 -0.0096 -0.7656
   60CHL1    C6 5555   2.457   5.314   3.876  0.5510  0.1207  0.5149
   60CHL1    H6 5556   2.510   5.218   3.865  0.0961  0.0882 -1.8316
   60CHL1    C7 5557   2.414   5.370   4.005 -0.0185 -0.4768 -0.2082
   60CHL1   H7A 5558   2.368   5.299   4.077 -0.1890  1.1663  1.3605
   60CHL1   H7B 5559   2.503   5.412   4.057 -1.3472  0.7046  1.1985
   60CHL1    C8 5560   2.318   5.494   4.000  0.6994 -0.0981 -0.1515
   60CHL1    H8 5561   2.211   5.463   3.996  0.5463  0.5443 -2.4571
   60CHL1   C14 5562   2.330   5.569   4.133 -0.1313 -0.5354 -0.2278
   60CHL1   H14 5563   2.436   5.597   4.150 -1.2589  2.3249  3.4550
   60CHL1   C15 5564   2.297   5.487   4.260 -0.3234 -0.1725 -0.7448
   60CHL1  H15A 5565   2.198   5.436   4.253  0.4666 -1.8527 -0.2558
   60CHL1  H15B 5566   2.370   5.407   4.285 -0.2100  0.4164  0.9599
   60CHL1   C16 5567   2.287   5.589   4.373 -0.1405 -0.5335  0.5903
   60CHL1  H16A 5568   2.192   5.585   4.431 -1.1266  1.8415 -0.7318
   60CHL1  H16B 5569   2.359   5.572   4.456  0.1823 -0.8023  0.2576
   60CHL1   C17 5570   2.286   5.724   4.303  0.5494 -0.0746 -0.4538
   60CHL1   H17 5571   2.383   5.777   4.308 -1.2024  3.2626  0.7430
   60CHL1   C13 5572   2.254   5.699   4.149  0.6162  0.1718  0.5657
   60CHL1   C18 5573   2.103   5.671   4.145  0.0644 -1.0482  0.0925
   60CHL1  H18A 5574   2.066   5.618   4.235 -0.7284  1.0909  1.1068
   60CHL1  H18B 5575   2.051   5.769   4.155  0.8208 -0.5484 -0.6978
   60CHL1  H18C 5576   2.074   5.627   4.047 -0.2138  0.9694 -0.7877
   60CHL1   C12 5577   2.300   5.798   4.036  0.0242 -0.3487 -0.9082
   60CHL1  H12A 5578   2.229   5.883   4.044  0.6085 -0.0088  1.4177
   60CHL1  H12B 5579   2.403   5.839   4.044  0.0638 -0.6908  0.5697
   60CHL1   C11 5580   2.288   5.733   3.893  0.4220 -0.7219 -0.3473
   60CHL1  H11A 5581   2.179   5.730   3.873  0.1093 -1.6067  1.3037
   60CHL1  H11B 5582   2.346   5.801   3.827  0.3294 -1.1450 -0.8668
   60CHL1    C9 5583   2.355   5.587   3.883  0.1073 -0.3324  0.3496
   60CHL1    H9 5584   2.461   5.611   3.904  0.5046  0.0857 -1.8160
   60CHL1   C10 5585   2.348   5.505   3.752  0.4765  0.0676  0.5441
   60CHL1   C19 5586   2.195   5.475   3.727  0.1756  0.1052  0.2668
   60CHL1  H19A 5587   2.137   5.570   3.733  0.0701  0.1028 -0.5948
   60CHL1  H19B 5588   2.169   5.430   3.629  3.0326 -0.1140 -0.4911
   60CHL1  H19C 5589   2.166   5.410   3.812  1.1767  0.3885  0.8455
   60CHL1    C1 5590   2.404   5.607   3.643 -0.0215 -0.1923  0.2324
   60CHL1   H1A 5591   2.332   5.690   3.629 -0.1096 -0.3625 -0.3548
   60CHL1   H1B 5592   2.491   5.653   3.692  0.5504 -0.7723 -0.2176
   60CHL1    C2 5593   2.437   5.538   3.510  0.3100  0.5671  0.1183
   60CHL1   H2A 5594   2.478   5.600   3.428  1.2721 -0.4422 -0.1940
   60CHL1   H2B 5595   2.341   5.500   3.467  0.5639  1.0184 -0.8708
   60CHL1   C20 5596   2.196   5.830   4.370 -0.1092 -0.4184  0.5118
   60CHL1   H20 5597   2.089   5.803   4.367 -0.5910  1.2967  1.1987
   60CHL1   C21 5598   2.208   5.970   4.299  0.0116 -0.1152 -0.0528
   60CHL1  H21A 5599   2.316   5.982   4.278 -0.1039  0.4076 -0.3601
   60CHL1  H21B 5600   2.190   6.046   4.379 -0.1795 -0.4827  0.2575
   60CHL1  H21C 5601   2.152   5.981   4.204  0.5359  0.1750 -0.3326
   60CHL1   C22 5602   2.210   5.840   4.525  0.0564 -0.2341 -0.7192
   60CHL1  H22A 5603   2.146   5.921   4.563  1.7220 -0.4785  3.1050
   60CHL1  H22B 5604   2.170   5.748   4.574 -2.0886  1.4009  0.7628
   60CHL1   C23 5605   2.352   5.879   4.565 -0.4075 -0.0082 -0.1795
   60CHL1  H23A 5606   2.423   5.797   4.540 -0.6056 -0.7326  1.5160
   60CHL1  H23B 5607   2.398   5.964   4.509  0.6893 -1.0400 -0.9052
   60CHL1   C24 5608   2.368   5.914   4.712 -0.4046 -0.1735  0.5372
   60CHL1  H24A 5609   2.300   5.844   4.766 -0.4812  0.1551  0.8687
   60CHL1  H24B 5610   2.472   5.880   4.733 -0.4585 -0.9980 -0.4222
   60CHL1   C25 5611   2.350   6.061   4.758  0.0091  0.3810  0.9303
   60CHL1   H25 5612   2.241   6.085   4.751 -0.2425 -0.5501  1.4393
   60CHL1   C26 5613   2.365   6.077   4.912 -0.0363 -0.5452 -0.3772
   60CHL1  H26A 5614   2.299   6.007   4.969  0.0798 -1.2911 -1.1306
   60CHL1  H26B 5615   2.470   6.081   4.948  0.0126  1.0823 -0.6490
   60CHL1  H26C 5616   2.323   6.177   4.934  0.8247 -0.5871  1.7432
   60CHL1   C27 5617   2.423   6.164   4.677  0.1103  0.1004  0.0831
   60CHL1  H27A 5618   2.414   6.261   4.730 -0.1661  0.0816  0.0701
   60CHL1  H27B 5619   2.533   6.144   4.680 -0.0570 -0.9707 -0.2218
   60CHL1  H27C 5620   2.404   6.168   4.567 -0.3873  2.2789  0.1993
   61CHL1    C3 5621   3.030   0.792   3.378 -0.2324 -0.4579 -0.1958
   61CHL1    H3 5622   3.024   0.903   3.378  2.6855 -0.2199  0.1502
   61CHL1    O3 5623   3.060   0.767   3.237  0.1588 -0.3094 -0.6453
   61CHL1   H3' 5624   3.047   0.673   3.225 -1.3717 -0.3008  0.5912
   61CHL1    C4 5625   3.152   0.744   3.462  0.4649 -0.2282  0.0271
   61CHL1   H4A 5626   3.188   0.645   3.426  1.0406  0.4481 -1.3197
   61CHL1   H4B 5627   3.235   0.814   3.441  0.0668  0.7188  1.4927
   61CHL1    C5 5628   3.128   0.759   3.613  0.4860 -0.2025 -0.6930
   61CHL1    C6 5629   3.224   0.823   3.692  0.1581  0.3472  0.0895
   61CHL1    H6 5630   3.319   0.855   3.647  0.2496  0.8527  0.6327
   61CHL1    C7 5631   3.212   0.838   3.842 -0.2854 -0.2762  0.2709
   61CHL1   H7A 5632   3.298   0.801   3.900 -0.6120 -0.5976  0.5554
   61CHL1   H7B 5633   3.176   0.940   3.866 -1.6081 -1.1652  2.3705
   61CHL1    C8 5634   3.091   0.759   3.905 -0.6307  0.0210 -1.7816
   61CHL1    H8 5635   3.130   0.656   3.923 -1.2166  0.2475  1.1972
   61CHL1   C14 5636   3.053   0.820   4.038  0.5660  0.1282  0.0297
   61CHL1   H14 5637   3.012   0.922   4.022 -1.5404 -0.6372  0.1725
   61CHL1   C15 5638   3.155   0.817   4.150 -0.3962 -0.0073 -0.4945
   61CHL1  H15A 5639   3.197   0.715   4.154  1.5032  0.7411 -0.1716
   61CHL1  H15B 5640   3.238   0.890   4.142 -0.3752  0.0541  0.2323
   61CHL1   C16 5641   3.079   0.842   4.289 -0.2675 -0.5071  0.1950
   61CHL1  H16A 5642   3.110   0.761   4.359 -2.1626 -1.5888 -0.1292
   61CHL1  H16B 5643   3.106   0.942   4.329  0.7306  0.2764 -2.2604
   61CHL1   C17 5644   2.928   0.838   4.244 -0.2263  0.1870 -0.5572
   61CHL1   H17 5645   2.910   0.945   4.223  2.7607  0.5593 -1.7264
   61CHL1   C13 5646   2.935   0.757   4.108  0.8939  0.0444 -0.3467
   61CHL1   C18 5647   2.955   0.603   4.130  0.4282 -0.3881 -0.1839
   61CHL1  H18A 5648   3.006   0.554   4.044 -1.1738  1.2453 -2.1613
   61CHL1  H18B 5649   3.034   0.604   4.209  0.4329 -0.7468 -0.1814
   61CHL1  H18C 5650   2.861   0.553   4.159  0.0459  0.5205  0.1893
   61CHL1   C12 5651   2.809   0.783   4.016 -0.1493 -0.1694  0.2045
   61CHL1  H12A 5652   2.712   0.740   4.050 -1.0647 -1.7655 -3.7746
   61CHL1  H12B 5653   2.792   0.892   4.005 -0.2746 -0.3545 -2.0853
   61CHL1   C11 5654   2.844   0.721   3.878  0.6572  0.0184 -0.1213
   61CHL1  H11A 5655   2.868   0.616   3.906  0.1669 -0.7877 -2.4678
   61CHL1  H11B 5656   2.755   0.720   3.810  0.4774  4.3256 -0.2274
   61CHL1    C9 5657   2.968   0.772   3.812 -0.2301 -0.5956  0.1322
   61CHL1    H9 5658   2.958   0.882   3.803 -0.4092 -0.6288 -0.0951
   61CHL1   C10 5659   2.989   0.713   3.665  0.6685  0.8337 -1.0244
   61CHL1   C19 5660   3.011   0.557   3.697 -0.3632  0.4436  0.4389
   61CHL1  H19A 5661   3.099   0.529   3.759 -0.5833 -1.1036  0.1147
   61CHL1  H19B 5662   2.919   0.524   3.749  1.2223 -1.2494  2.3365
   61CHL1  H19C 5663   3.011   0.502   3.600  0.0850  0.7942  0.2329
   61CHL1    C1 5664   2.871   0.760   3.576  0.2466  0.1307 -0.7394
   61CHL1   H1A 5665   2.782   0.703   3.609  2.3999 -3.3816 -0.3673
   61CHL1   H1B 5666   2.843   0.866   3.593  0.9869  0.7996 -3.2787
   61CHL1    C2 5667   2.897   0.734   3.427 -0.5660  0.3303 -0.3334
   61CHL1   H2A 5668   2.806   0.770   3.376 -1.6558  0.6138  1.6949
   61CHL1   H2B 5669   2.910   0.624   3.424  0.0225  0.3383  1.1151
   61CHL1   C20 5670   2.825   0.791   4.344  0.4138 -0.6305 -0.7119
   61CHL1   H20 5671   2.785   0.690   4.321  1.6048 -1.3871  0.3946
   61CHL1   C21 5672   2.716   0.903   4.341 -0.6135  0.0414 -0.1389
   61CHL1  H21A 5673   2.704   0.930   4.234  0.0811 -2.3675 -0.9049
   61CHL1  H21B 5674   2.740   0.997   4.395 -0.6236  0.4793 -0.8709
   61CHL1  H21C 5675   2.621   0.853   4.369  1.0295 -2.0936  2.0260
   61CHL1   C22 5676   2.873   0.776   4.493  0.1561  0.0316  0.2110
   61CHL1  H22A 5677   2.962   0.710   4.491 -0.1642 -0.3906 -1.2652
   61CHL1  H22B 5678   2.894   0.878   4.531  1.1912 -0.9732  2.4997
   61CHL1   C23 5679   2.753   0.715   4.570 -0.1078 -0.0937  0.0512
   61CHL1  H23A 5680   2.663   0.781   4.570  0.8016  1.4867 -4.5517
   61CHL1  H23B 5681   2.733   0.614   4.530 -0.9499 -0.1104  0.5018
   61CHL1   C24 5682   2.803   0.687   4.708 -0.1844 -0.2631 -0.3583
   61CHL1  H24A 5683   2.888   0.618   4.693 -0.9375 -0.9330 -1.6960
   61CHL1  H24B 5684   2.848   0.780   4.749 -1.8662  1.2577 -1.8000
   61CHL1   C25 5685   2.697   0.636   4.804 -0.5525 -0.0857 -0.5227
   61CHL1   H25 5686   2.647   0.554   4.748  1.5148 -0.4640 -1.9604
   61CHL1   C26 5687   2.764   0.580   4.932  0.2858 -0.7255  0.0940
   61CHL1  H26A 5688   2.683   0.540   4.997  0.8617 -1.9190  0.1061
   61CHL1  H26B 5689   2.830   0.493   4.911 -1.0936 -1.7525 -0.2040
   61CHL1  H26C 5690   2.822   0.654   4.990  1.3704 -2.0247  0.7377
   61CHL1   C27 5691   2.602   0.740   4.865  0.6247  0.0519  0.1248
   61CHL1  H27A 5692   2.663   0.821   4.908  2.5282 -1.1163 -0.2392
   61CHL1  H27B 5693   2.544   0.777   4.778  2.4310  2.6061 -0.0821
   61CHL1  H27C 5694   2.534   0.692   4.938  1.6871  2.3190  2.7676
   62CHL1    C3 5695   2.351   4.026   3.206 -0.3922  0.2477 -0.4673
   62CHL1    H3 5696   2.416   3.939   3.228  0.0429  0.7508  0.2815
   62CHL1    O3 5697   2.369   4.070   3.073  0.2557  0.0488  0.1711
   62CHL1   H3' 5698   2.315   4.148   3.059  0.7275  0.6475  1.5796
   62CHL1    C4 5699   2.208   3.993   3.226  0.0882 -0.4766  0.4162
   62CHL1   H4A 5700   2.143   4.082   3.206 -0.5428 -0.4565  2.3946
   62CHL1   H4B 5701   2.167   3.925   3.149 -1.4847 -0.3704  1.1291
   62CHL1    C5 5702   2.176   3.950   3.364 -0.3544 -0.1234 -0.3552
   62CHL1    C6 5703   2.112   3.836   3.394  0.1028  0.2561 -0.2573
   62CHL1    H6 5704   2.077   3.779   3.307  3.0450  1.1424 -2.1791
   62CHL1    C7 5705   2.079   3.783   3.534  0.5604  0.1947 -0.0017
   62CHL1   H7A 5706   1.973   3.754   3.545  0.7274 -0.5625 -0.3331
   62CHL1   H7B 5707   2.132   3.686   3.548  1.2685  0.9125  3.0518
   62CHL1    C8 5708   2.109   3.886   3.651 -0.2313  0.8618  0.4663
   62CHL1    H8 5709   2.020   3.951   3.666 -1.3091 -0.3516 -0.5309
   62CHL1   C14 5710   2.139   3.803   3.774  0.1269 -0.2132  0.1651
   62CHL1   H14 5711   2.233   3.748   3.755 -1.0961 -3.1212  1.9508
   62CHL1   C15 5712   2.044   3.692   3.806 -0.3597  0.2718 -0.0403
   62CHL1  H15A 5713   1.938   3.728   3.802 -0.2594  0.5587 -0.1586
   62CHL1  H15B 5714   2.051   3.599   3.746  0.6743  1.6050 -2.0658
   62CHL1   C16 5715   2.076   3.667   3.955  0.0504 -0.6801  0.4088
   62CHL1  H16A 5716   1.988   3.664   4.023 -3.2415  0.0489 -3.4303
   62CHL1  H16B 5717   2.145   3.581   3.973 -0.0162 -0.2426  3.1283
   62CHL1   C17 5718   2.168   3.783   4.002  0.5792  0.3501  0.3068
   62CHL1   H17 5719   2.275   3.756   3.992  0.5269 -0.1353  0.9595
   62CHL1   C13 5720   2.153   3.893   3.898 -0.2383  0.1564  0.4753
   62CHL1   C18 5721   2.017   3.970   3.928 -0.8502 -0.6816 -0.2600
   62CHL1  H18A 5722   1.930   3.904   3.908 -1.5422  0.6986 -2.0834
   62CHL1  H18B 5723   2.004   4.008   4.031  2.4149 -0.3672  0.1264
   62CHL1  H18C 5724   2.016   4.054   3.855 -1.8644  0.6773  1.2669
   62CHL1   C12 5725   2.276   3.986   3.868  0.2137 -0.0145  0.1874
   62CHL1  H12A 5726   2.292   4.055   3.954  2.8409  0.0713 -0.2806
   62CHL1  H12B 5727   2.368   3.924   3.869 -0.6227 -1.6099 -3.6872
   62CHL1   C11 5728   2.260   4.069   3.738 -0.4036  0.0259  0.4119
   62CHL1  H11A 5729   2.182   4.144   3.762 -0.0664  0.0832  1.3880
   62CHL1  H11B 5730   2.351   4.132   3.731  0.1754 -0.9778 -2.0877
   62CHL1    C9 5731   2.230   3.977   3.613 -0.4557  0.3757  0.7844
   62CHL1    H9 5732   2.313   3.904   3.608 -0.9443 -0.1676  0.4934
   62CHL1   C10 5733   2.231   4.045   3.476 -0.5143 -0.6147 -0.5558
   62CHL1   C19 5734   2.121   4.162   3.473  0.5298 -0.2602 -0.6153
   62CHL1  H19A 5735   2.116   4.201   3.369 -2.8310 -0.3172 -0.5764
   62CHL1  H19B 5736   2.022   4.125   3.504  0.8827  0.0045  0.9265
   62CHL1  H19C 5737   2.152   4.241   3.545 -0.3992  0.3728 -0.8902
   62CHL1    C1 5738   2.372   4.098   3.450  0.6988  0.0649 -0.3293
   62CHL1   H1A 5739   2.402   4.186   3.512  0.4927  1.3522 -1.9754
   62CHL1   H1B 5740   2.445   4.017   3.468 -1.0986 -1.6313 -0.4197
   62CHL1    C2 5741   2.398   4.137   3.302 -0.3134  0.5851  0.1339
   62CHL1   H2A 5742   2.505   4.159   3.282 -0.5404  0.2138 -1.6475
   62CHL1   H2B 5743   2.336   4.227   3.281  0.7820  1.1435 -0.8370
   62CHL1   C20 5744   2.154   3.810   4.155 -0.0158 -0.0495  0.0009
   62CHL1   H20 5745   2.049   3.837   4.177  0.0799  0.5874 -0.2970
   62CHL1   C21 5746   2.229   3.939   4.198  0.0268  0.0970  0.7001
   62CHL1  H21A 5747   2.206   3.951   4.306 -0.4804  1.1936  0.4875
   62CHL1  H21B 5748   2.185   4.031   4.154 -0.4899 -0.1772  0.6388
   62CHL1  H21C 5749   2.337   3.923   4.176 -0.5276 -2.4415 -0.5016
   62CHL1   C22 5750   2.179   3.694   4.249 -0.2977 -0.0747  0.3327
   62CHL1  H22A 5751   2.169   3.729   4.354 -0.6311 -1.0607  0.6363
   62CHL1  H22B 5752   2.105   3.614   4.228 -0.2522 -0.0748  0.1722
   62CHL1   C23 5753   2.320   3.630   4.224 -0.6980  0.8352 -0.3769
   62CHL1  H23A 5754   2.322   3.584   4.122 -2.4691 -0.3831  0.0971
   62CHL1  H23B 5755   2.400   3.705   4.242 -0.1742 -0.0624  1.1622
   62CHL1   C24 5756   2.364   3.526   4.325 -0.1276 -0.5225  0.1537
   62CHL1  H24A 5757   2.463   3.494   4.286  1.1161  0.6985  2.1024
   62CHL1  H24B 5758   2.368   3.579   4.423  1.1652  0.4587 -0.3973
   62CHL1   C25 5759   2.262   3.417   4.331  0.2001 -0.1900  0.0394
   62CHL1   H25 5760   2.163   3.457   4.361 -0.7311 -1.6144 -1.0285
   62CHL1   C26 5761   2.250   3.337   4.198 -0.2256 -0.9977 -0.0122
   62CHL1  H26A 5762   2.353   3.307   4.168  0.6581 -0.4761  2.2462
   62CHL1  H26B 5763   2.195   3.241   4.210  0.3314 -1.3537 -0.2347
   62CHL1  H26C 5764   2.200   3.397   4.119  1.8342  1.3083  0.3402
   62CHL1   C27 5765   2.312   3.317   4.440  0.8230 -0.0185 -0.1147
   62CHL1  H27A 5766   2.316   3.374   4.535 -3.1926  1.2353 -0.4685
   62CHL1  H27B 5767   2.237   3.239   4.465 -0.2704  0.4433 -1.7114
   62CHL1  H27C 5768   2.406   3.273   4.400  0.9479  0.5225 -0.4278
   63CHL1    C3 5769   6.578   0.332   3.317  0.3577  0.2099  0.0764
   63CHL1    H3 5770   6.474   0.367   3.337  0.2003 -0.0866 -0.2024
   63CHL1    O3 5771   6.605   0.369   3.184  0.0225 -0.2815  0.0595
   63CHL1   H3' 5772   6.692   0.411   3.190  0.0517 -0.1585 -1.0410
   63CHL1    C4 5773   6.678   0.403   3.414 -0.6646  0.0160  0.5928
   63CHL1   H4A 5774   6.784   0.372   3.403 -0.3326  1.4362 -0.4337
   63CHL1   H4B 5775   6.688   0.511   3.391 -0.1253 -0.0750  0.3806
   63CHL1    C5 5776   6.632   0.383   3.556 -0.6188  0.5990 -0.8759
   63CHL1    C6 5777   6.595   0.475   3.641 -0.3618  0.1965  0.1101
   63CHL1    H6 5778   6.606   0.581   3.617  2.1346  0.6944  2.8591
   63CHL1    C7 5779   6.570   0.458   3.794 -0.5767  0.4898 -0.4317
   63CHL1   H7A 5780   6.617   0.539   3.853 -0.8165 -0.5664  1.2653
   63CHL1   H7B 5781   6.461   0.473   3.807 -0.5870 -1.3286  2.1348
   63CHL1    C8 5782   6.604   0.314   3.839  0.2121  0.1012 -0.0406
   63CHL1    H8 5783   6.715   0.316   3.838  0.2141  1.2295  0.4852
   63CHL1   C14 5784   6.546   0.291   3.976 -0.3266 -0.0885 -0.5234
   63CHL1   H14 5785   6.437   0.300   3.958 -0.7639 -0.8640  1.4474
   63CHL1   C15 5786   6.596   0.384   4.084 -0.2687  0.9108  0.1957
   63CHL1  H15A 5787   6.707   0.379   4.086 -0.2970 -1.8204 -0.8273
   63CHL1  H15B 5788   6.552   0.485   4.074  1.3902  1.6778  0.2511
   63CHL1   C16 5789   6.533   0.330   4.214  0.1165 -0.1150 -0.3213
   63CHL1  H16A 5790   6.604   0.335   4.299  0.1045 -0.6619 -0.2752
   63CHL1  H16B 5791   6.435   0.381   4.228 -0.6838 -0.9518 -2.4083
   63CHL1   C17 5792   6.512   0.177   4.174 -0.4273  0.4925 -0.3161
   63CHL1   H17 5793   6.403   0.161   4.164 -0.6270  1.3000  0.4697
   63CHL1   C13 5794   6.568   0.150   4.033  0.2285  0.3622  1.0224
   63CHL1   C18 5795   6.720   0.119   4.047  0.3588  0.3536 -0.4022
   63CHL1  H18A 5796   6.776   0.114   3.951  0.1868 -1.3577 -0.4544
   63CHL1  H18B 5797   6.777   0.190   4.110  0.9815 -0.4785 -0.0042
   63CHL1  H18C 5798   6.734   0.017   4.090  2.3730  0.7095 -0.0890
   63CHL1   C12 5799   6.497   0.052   3.933 -0.3941  0.4933  0.0885
   63CHL1  H12A 5800   6.477  -0.047   3.980 -3.2734  2.3788  3.2972
   63CHL1  H12B 5801   6.391   0.083   3.916 -0.7593  0.5091  2.1157
   63CHL1   C11 5802   6.567   0.060   3.790 -0.1416 -0.2784 -0.2336
   63CHL1  H11A 5803   6.674   0.030   3.799  0.2393  0.9584 -0.4640
   63CHL1  H11B 5804   6.513  -0.014   3.727  0.7396 -1.2279  0.0967
   63CHL1    C9 5805   6.561   0.210   3.739  0.1292  0.1046  0.3017
   63CHL1    H9 5806   6.452   0.228   3.729  0.3044  0.6396 -0.8273
   63CHL1   C10 5807   6.624   0.231   3.599 -0.3464 -0.2856 -0.0842
   63CHL1   C19 5808   6.764   0.166   3.600  0.3276 -0.3062 -0.0949
   63CHL1  H19A 5809   6.761   0.057   3.617  0.6250 -0.5850 -1.6524
   63CHL1  H19B 5810   6.829   0.189   3.513 -1.0100  0.8788 -0.8178
   63CHL1  H19C 5811   6.809   0.218   3.687  2.9266  0.6592 -1.8854
   63CHL1    C1 5812   6.543   0.151   3.493  0.2263 -0.3481 -0.2652
   63CHL1   H1A 5813   6.572   0.045   3.510  0.0886 -0.5781 -1.4174
   63CHL1   H1B 5814   6.433   0.156   3.513  0.1411 -2.4925  0.1116
   63CHL1    C2 5815   6.579   0.181   3.351 -0.2603 -0.6686  0.0706
   63CHL1   H2A 5816   6.512   0.128   3.280  2.3665 -3.0134 -0.8537
   63CHL1   H2B 5817   6.683   0.156   3.320 -0.2785 -0.2851 -0.2975
   63CHL1   C20 5818   6.547   0.079   4.286  0.0709  0.4237 -0.7424
   63CHL1   H20 5819   6.656   0.076   4.305 -0.1859  0.5119  0.9801
   63CHL1   C21 5820   6.486  -0.056   4.252 -0.0549 -0.0068 -0.3705
   63CHL1  H21A 5821   6.532  -0.095   4.159 -0.7635 -0.6038 -0.4731
   63CHL1  H21B 5822   6.375  -0.054   4.247 -0.1679 -2.5499 -0.1370
   63CHL1  H21C 5823   6.518  -0.140   4.318 -0.1588 -1.5314 -2.2066
   63CHL1   C22 5824   6.489   0.135   4.424 -0.0849  0.0410  0.5194
   63CHL1  H22A 5825   6.536   0.233   4.448 -0.6741  0.6299 -0.6391
   63CHL1  H22B 5826   6.378   0.137   4.421 -0.2136 -3.2686 -0.3225
   63CHL1   C23 5827   6.513   0.045   4.545 -0.7780  0.3722 -0.6590
   63CHL1  H23A 5828   6.464  -0.054   4.533  0.2999 -0.3081  0.2831
   63CHL1  H23B 5829   6.622   0.024   4.550 -1.0832 -1.7390 -1.9933
   63CHL1   C24 5830   6.474   0.123   4.676  0.5963 -0.6836 -0.1591
   63CHL1  H24A 5831   6.539   0.213   4.676 -1.1960  0.6501 -0.3263
   63CHL1  H24B 5832   6.368   0.144   4.654 -0.7888 -5.1658  1.1563
   63CHL1   C25 5833   6.480   0.041   4.806 -0.3559 -0.2719  0.2840
   63CHL1   H25 5834   6.411  -0.046   4.801 -0.7212  0.0906 -1.8064
   63CHL1   C26 5835   6.621  -0.022   4.830  0.9329 -0.2165  0.1493
   63CHL1  H26A 5836   6.652  -0.099   4.757  1.2637 -1.4132  1.5016
   63CHL1  H26B 5837   6.699   0.055   4.814  0.9075 -0.5751 -1.9386
   63CHL1  H26C 5838   6.631  -0.076   4.926 -0.1298 -0.9347 -0.1259
   63CHL1   C27 5839   6.446   0.142   4.917  0.2566  0.6060 -0.0195
   63CHL1  H27A 5840   6.339   0.169   4.902  0.1062 -1.3182 -3.6815
   63CHL1  H27B 5841   6.452   0.091   5.015 -1.2596 -0.1805 -0.3063
   63CHL1  H27C 5842   6.513   0.230   4.904 -0.0829  0.8205 -0.3596
   64CHL1    C3 5843   6.265   4.094   3.218 -0.4613 -0.5218 -0.2285
   64CHL1    H3 5844   6.291   3.989   3.191  3.4107 -0.0633  1.1799
   64CHL1    O3 5845   6.233   4.150   3.098  0.1024  0.2581 -0.0676
   64CHL1   H3' 5846   6.318   4.151   3.054  0.0298 -2.3608 -0.4633
   64CHL1    C4 5847   6.136   4.104   3.307 -0.1055 -0.3890  0.3857
   64CHL1   H4A 5848   6.114   4.213   3.312  0.0975 -0.1486 -2.2866
   64CHL1   H4B 5849   6.048   4.061   3.255  0.1964  0.4778 -0.8907
   64CHL1    C5 5850   6.162   4.047   3.441  0.2595 -0.1246  0.4375
   64CHL1    C6 5851   6.072   3.965   3.493  0.5651  0.0105 -0.4150
   64CHL1    H6 5852   5.984   3.931   3.436  1.8883 -1.1286 -1.8819
   64CHL1    C7 5853   6.080   3.921   3.633 -0.4742  0.2992 -0.7506
   64CHL1   H7A 5854   5.984   3.941   3.685  0.3037  0.6518  0.5921
   64CHL1   H7B 5855   6.095   3.811   3.637  2.2661  0.6481 -0.0813
   64CHL1    C8 5856   6.181   4.003   3.718  0.2063 -0.3354 -0.5413
   64CHL1    H8 5857   6.134   4.102   3.740  0.7634 -0.5428  1.7940
   64CHL1   C14 5858   6.208   3.935   3.846 -0.6345  1.0683 -0.0097
   64CHL1   H14 5859   6.276   3.854   3.812 -0.4651  1.9939 -2.0351
   64CHL1   C15 5860   6.091   3.871   3.926  0.4152 -0.1324  0.1084
   64CHL1  H15A 5861   6.006   3.940   3.910 -0.2384 -0.9824 -0.1817
   64CHL1  H15B 5862   6.064   3.772   3.883  1.7019  0.0984 -1.3086
   64CHL1   C16 5863   6.138   3.864   4.072 -0.0371  0.4550  0.9924
   64CHL1  H16A 5864   6.079   3.935   4.133 -0.5822  2.3128 -1.5369
   64CHL1  H16B 5865   6.133   3.760   4.112 -2.8193 -0.9474 -2.4733
   64CHL1   C17 5866   6.287   3.911   4.070  0.3645 -0.0082  0.3012
   64CHL1   H17 5867   6.342   3.818   4.041 -2.4215 -1.5270 -0.4736
   64CHL1   C13 5868   6.294   4.007   3.948  0.8439 -0.1502 -0.1637
   64CHL1   C18 5869   6.225   4.145   3.982  0.3600  0.1387 -0.0698
   64CHL1  H18A 5870   6.136   4.135   4.046  1.5359 -0.7162  1.5081
   64CHL1  H18B 5871   6.297   4.177   4.060  0.2682 -1.7632  0.8679
   64CHL1  H18C 5872   6.214   4.205   3.889  1.4425 -0.1748 -0.4191
   64CHL1   C12 5873   6.431   4.039   3.890  0.2463 -0.0879 -0.0823
   64CHL1  H12A 5874   6.494   4.102   3.956 -1.3475 -0.4292  1.8635
   64CHL1  H12B 5875   6.487   3.943   3.884 -0.9115 -0.7111 -1.5693
   64CHL1   C11 5876   6.412   4.107   3.747 -0.3689  0.0522 -0.1572
   64CHL1  H11A 5877   6.373   4.208   3.771  0.2383  0.1484  0.4466
   64CHL1  H11B 5878   6.509   4.112   3.694 -0.9371 -1.1676 -1.3952
   64CHL1    C9 5879   6.320   4.026   3.650 -0.1667  0.0999  0.1513
   64CHL1    H9 5880   6.357   3.924   3.627  1.2020  0.6225 -0.0560
   64CHL1   C10 5881   6.289   4.104   3.513  0.4242  0.7414  0.0859
   64CHL1   C19 5882   6.274   4.249   3.543  0.1719  0.0896  0.3410
   64CHL1  H19A 5883   6.369   4.290   3.582 -0.4280  1.3300  0.5612
   64CHL1  H19B 5884   6.248   4.318   3.459  0.9151 -0.0378 -0.0009
   64CHL1  H19C 5885   6.195   4.272   3.618 -0.4908 -0.0868 -0.2825
   64CHL1    C1 5886   6.412   4.098   3.421 -0.6931  0.5459 -0.2786
   64CHL1   H1A 5887   6.490   4.165   3.463  0.8174 -2.3541  1.9203
   64CHL1   H1B 5888   6.447   3.994   3.402  0.9285  1.2225 -1.2500
   64CHL1    C2 5889   6.385   4.158   3.282  0.7133 -0.1337  0.9799
   64CHL1   H2A 5890   6.478   4.139   3.224 -0.2303 -2.4325  0.1352
   64CHL1   H2B 5891   6.358   4.266   3.283 -1.5406 -0.6552  1.0196
   64CHL1   C20 5892   6.335   3.965   4.204  1.0094  0.9018  0.0672
   64CHL1   H20 5893   6.314   4.073   4.221 -0.0569  0.3509  2.5291
   64CHL1   C21 5894   6.488   3.949   4.205  0.3438  0.3349 -0.1252
   64CHL1  H21A 5895   6.531   3.998   4.295  0.8778 -0.4223  0.0411
   64CHL1  H21B 5896   6.550   3.970   4.116 -1.6089 -1.1335 -1.9303
   64CHL1  H21C 5897   6.498   3.840   4.220  3.5499  0.2951 -1.6666
   64CHL1   C22 5898   6.261   3.895   4.331  0.0025 -0.4532  0.6546
   64CHL1  H22A 5899   6.150   3.902   4.331  0.0629  0.8531 -0.1135
   64CHL1  H22B 5900   6.292   3.790   4.312  1.6052  0.0434  0.3797
   64CHL1   C23 5901   6.304   3.931   4.472 -0.3570  0.1836 -0.0096
   64CHL1  H23A 5902   6.403   3.981   4.475 -0.7518  1.0773 -0.8622
   64CHL1  H23B 5903   6.234   4.008   4.511  0.6000  0.7215  0.6790
   64CHL1   C24 5904   6.303   3.810   4.567 -0.8514 -0.0964  1.2345
   64CHL1  H24A 5905   6.313   3.838   4.674  0.6175  0.5027  0.9653
   64CHL1  H24B 5906   6.205   3.761   4.551 -1.4481  0.5817  2.7283
   64CHL1   C25 5907   6.417   3.702   4.538  0.5074  0.4838  0.1426
   64CHL1   H25 5908   6.419   3.682   4.428  2.0478  2.8299 -0.3448
   64CHL1   C26 5909   6.551   3.747   4.588 -0.6411  0.2683 -0.6786
   64CHL1  H26A 5910   6.596   3.822   4.519  1.3933 -1.4775 -1.3717
   64CHL1  H26B 5911   6.542   3.783   4.692 -0.7238  1.0990 -0.9659
   64CHL1  H26C 5912   6.628   3.667   4.588  0.6104  1.4258 -1.3040
   64CHL1   C27 5913   6.381   3.561   4.598 -0.4269  0.1041 -0.7805
   64CHL1  H27A 5914   6.358   3.581   4.704 -0.3377  1.2267 -0.9619
   64CHL1  H27B 5915   6.289   3.520   4.550 -0.9660  0.3770 -0.0016
   64CHL1  H27C 5916   6.466   3.491   4.586  0.3131  0.0452  3.3987
   65CHL1    C3 5917   4.532   2.689   3.436  0.3154 -0.3116 -0.2772
   65CHL1    H3 5918   4.571   2.585   3.431  0.9136 -0.1839  1.2736
   65CHL1    O3 5919   4.477   2.728   3.315 -0.3163 -0.3082 -0.3340
   65CHL1   H3' 5920   4.538   2.696   3.249 -2.1951 -0.6627 -1.9643
   65CHL1    C4 5921   4.424   2.709   3.551 -0.3823 -0.0009  0.4053
   65CHL1   H4A 5922   4.399   2.817   3.555 -2.5970 -0.4968  1.6760
   65CHL1   H4B 5923   4.327   2.660   3.525  0.3264 -1.3080  0.1222
   65CHL1    C5 5924   4.472   2.677   3.689 -0.3897 -0.4098 -0.1122
   65CHL1    C6 5925   4.423   2.574   3.760 -0.0097 -0.4333 -0.1261
   65CHL1    H6 5926   4.341   2.514   3.718  0.9788 -1.6288 -0.3801
   65CHL1    C7 5927   4.463   2.538   3.894  0.1000 -0.6365  0.6304
   65CHL1   H7A 5928   4.373   2.521   3.957  0.4174  1.2703  1.6571
   65CHL1   H7B 5929   4.530   2.449   3.893  1.3851  0.3021  0.2934
   65CHL1    C8 5930   4.539   2.655   3.966  0.5028  0.0809  0.9360
   65CHL1    H8 5931   4.464   2.731   3.996 -1.6906 -0.5881 -2.3620
   65CHL1   C14 5932   4.599   2.595   4.085  0.5630 -0.4853 -0.2162
   65CHL1   H14 5933   4.671   2.515   4.059  2.7935  1.1107  0.6890
   65CHL1   C15 5934   4.502   2.529   4.189 -0.7548 -0.7478  0.1192
   65CHL1  H15A 5935   4.423   2.605   4.209  0.6528  0.6976  0.3270
   65CHL1  H15B 5936   4.457   2.432   4.159  0.2472 -1.7514  1.6841
   65CHL1   C16 5937   4.594   2.501   4.307  0.5645 -1.1105 -0.4201
   65CHL1  H16A 5938   4.543   2.538   4.398  1.8244 -3.0662  1.1654
   65CHL1  H16B 5939   4.614   2.393   4.326  1.4761 -0.6153  1.6816
   65CHL1   C17 5940   4.729   2.582   4.285 -0.0089 -0.5453  0.4067
   65CHL1   H17 5941   4.799   2.512   4.234 -1.0275 -0.4523 -1.1712
   65CHL1   C13 5942   4.693   2.685   4.169 -0.0737  0.2387 -0.0113
   65CHL1   C18 5943   4.609   2.804   4.235  0.1446  0.3547 -0.1018
   65CHL1  H18A 5944   4.669   2.867   4.304  0.0520  1.8960 -1.3675
   65CHL1  H18B 5945   4.568   2.876   4.161  0.6446 -0.2310 -0.9563
   65CHL1  H18C 5946   4.523   2.762   4.292 -1.2490 -0.6727 -2.7954
   65CHL1   C12 5947   4.802   2.724   4.073 -0.1635  0.9345  0.5007
   65CHL1  H12A 5948   4.875   2.788   4.128 -0.4831  2.4068 -0.7154
   65CHL1  H12B 5949   4.868   2.638   4.046 -1.7881 -0.4631  0.8338
   65CHL1   C11 5950   4.752   2.795   3.942  0.6292  0.0488 -0.1571
   65CHL1  H11A 5951   4.723   2.896   3.976  1.8180 -0.2073  1.7951
   65CHL1  H11B 5952   4.847   2.810   3.887  2.6065 -0.2422  2.9255
   65CHL1    C9 5953   4.648   2.714   3.866  0.2571  0.8543  0.5531
   65CHL1    H9 5954   4.696   2.618   3.838  0.4645  0.6772  1.5012
   65CHL1   C10 5955   4.592   2.767   3.733  0.1431 -0.0383 -0.3903
   65CHL1   C19 5956   4.535   2.908   3.758  0.0910  0.2959  0.1242
   65CHL1  H19A 5957   4.613   2.977   3.798  0.7995  0.6621 -1.7737
   65CHL1  H19B 5958   4.500   2.967   3.670 -0.1624  0.5895  0.4182
   65CHL1  H19C 5959   4.457   2.901   3.836  0.3702 -2.5365  0.2365
   65CHL1    C1 5960   4.702   2.757   3.615  0.3049 -0.3603  1.4223
   65CHL1   H1A 5961   4.773   2.840   3.635  0.7566 -0.5148  0.4964
   65CHL1   H1B 5962   4.760   2.662   3.621  1.5746  0.3156  0.3685
   65CHL1    C2 5963   4.652   2.785   3.466 -0.5232  0.1093  0.7406
   65CHL1   H2A 5964   4.728   2.757   3.391 -1.2645 -1.2331  0.4539
   65CHL1   H2B 5965   4.619   2.889   3.444 -0.6075 -0.6105 -3.2446
   65CHL1   C20 5966   4.794   2.632   4.418  0.4418  0.0639 -0.3925
   65CHL1   H20 5967   4.715   2.695   4.463 -1.6358 -0.9287 -2.4556
   65CHL1   C21 5968   4.922   2.708   4.383 -0.5302  0.1892  0.5145
   65CHL1  H21A 5969   4.994   2.660   4.312 -0.7372  1.6229 -0.7152
   65CHL1  H21B 5970   4.977   2.731   4.476  0.7434 -1.3904  0.1940
   65CHL1  H21C 5971   4.905   2.803   4.329  0.5202  0.0483 -0.0988
   65CHL1   C22 5972   4.832   2.518   4.514 -0.9321 -0.3863  0.5192
   65CHL1  H22A 5973   4.753   2.441   4.526 -0.6965 -0.9502 -1.3040
   65CHL1  H22B 5974   4.915   2.464   4.464 -2.2466 -0.8250 -1.2570
   65CHL1   C23 5975   4.891   2.561   4.650 -0.1881  0.0175 -0.6902
   65CHL1  H23A 5976   4.993   2.603   4.640  0.2827 -1.1121 -0.7837
   65CHL1  H23B 5977   4.827   2.640   4.694  3.8112  1.8601  2.3744
   65CHL1   C24 5978   4.899   2.442   4.746  0.3966  0.2367  0.4065
   65CHL1  H24A 5979   4.808   2.379   4.745  1.2466 -1.0629 -0.9714
   65CHL1  H24B 5980   4.984   2.379   4.712  0.8843 -0.0938  2.1166
   65CHL1   C25 5981   4.934   2.487   4.887  0.3095 -0.6837 -0.0887
   65CHL1   H25 5982   4.980   2.588   4.876 -1.5053  0.2956  0.9548
   65CHL1   C26 5983   4.810   2.497   4.965  0.1712 -0.5797 -0.3582
   65CHL1  H26A 5984   4.758   2.400   4.974 -0.0976 -0.3109  1.3707
   65CHL1  H26B 5985   4.835   2.528   5.069 -0.0881 -0.8877 -0.2044
   65CHL1  H26C 5986   4.744   2.574   4.918 -0.7398 -1.0674  0.0985
   65CHL1   C27 5987   5.036   2.391   4.955  0.4941 -0.2004  0.5859
   65CHL1  H27A 5988   5.056   2.432   5.056  2.4052 -3.3111  1.6175
   65CHL1  H27B 5989   5.001   2.285   4.960 -3.1641  0.8403  0.1113
   65CHL1  H27C 5990   5.130   2.402   4.897  0.1749  2.6684  0.4553
   66CHL1    C3 5991   1.166   4.576   3.155  0.4959  0.4156  0.1243
   66CHL1    H3 5992   1.276   4.560   3.146  0.6683  2.5522 -3.2299
   66CHL1    O3 5993   1.106   4.619   3.032  0.4882  0.1106  0.0913
   66CHL1   H3' 5994   1.117   4.552   2.965  1.2421 -0.1079  0.4262
   66CHL1    C4 5995   1.092   4.454   3.212  0.2443  0.6229  0.4456
   66CHL1   H4A 5996   0.983   4.472   3.202  0.3816  1.7328  0.8142
   66CHL1   H4B 5997   1.119   4.363   3.154  0.8105  1.6416 -0.9405
   66CHL1    C5 5998   1.113   4.432   3.361 -0.0396  0.8330  0.1615
   66CHL1    C6 5999   1.152   4.312   3.413 -0.5115 -0.8554 -0.1933
   66CHL1    H6 6000   1.170   4.224   3.349 -1.0588 -1.9300  1.0910
   66CHL1    C7 6001   1.187   4.280   3.560  0.3736  0.1387  0.0809
   66CHL1   H7A 6002   1.132   4.189   3.593  0.6915  0.3312  1.1888
   66CHL1   H7B 6003   1.297   4.273   3.579  0.7258  0.9110 -1.5478
   66CHL1    C8 6004   1.132   4.387   3.654 -0.3451  0.4875  0.0543
   66CHL1    H8 6005   1.023   4.369   3.644  0.0552 -1.5687 -1.2433
   66CHL1   C14 6006   1.173   4.372   3.796 -0.6905  0.3548 -0.6661
   66CHL1   H14 6007   1.282   4.397   3.802 -0.4172 -1.0076  2.7189
   66CHL1   C15 6008   1.153   4.235   3.854 -0.1219 -0.5796  0.1038
   66CHL1  H15A 6009   1.049   4.197   3.847 -0.0810 -1.2768  2.3703
   66CHL1  H15B 6010   1.225   4.165   3.806  1.5281 -0.1616  1.8394
   66CHL1   C16 6011   1.181   4.257   4.004  0.3526 -0.5164 -0.6212
   66CHL1  H16A 6012   1.093   4.226   4.064  2.3828 -1.4316  2.0705
   66CHL1  H16B 6013   1.272   4.204   4.037 -0.5946 -1.1699  1.0595
   66CHL1   C17 6014   1.195   4.411   4.026 -0.6593  0.4949 -0.2090
   66CHL1   H17 6015   1.300   4.443   4.007 -0.6551 -0.5091 -2.0741
   66CHL1   C13 6016   1.129   4.470   3.895  0.3585 -0.2625  0.4386
   66CHL1   C18 6017   0.979   4.467   3.907  0.4053  0.5779  0.3758
   66CHL1  H18A 6018   0.934   4.462   3.805 -0.4493 -1.8910  0.7961
   66CHL1  H18B 6019   0.949   4.375   3.961 -1.7841  1.8245  1.3803
   66CHL1  H18C 6020   0.937   4.552   3.964 -0.9131  0.0828  0.1717
   66CHL1   C12 6021   1.169   4.616   3.843  0.3022  0.0634 -0.1638
   66CHL1  H12A 6022   1.118   4.691   3.906  0.7099  1.2789 -1.2169
   66CHL1  H12B 6023   1.278   4.630   3.862  0.7232 -1.4045 -1.2731
   66CHL1   C11 6024   1.123   4.643   3.699  0.1844  1.1382 -0.3165
   66CHL1  H11A 6025   1.012   4.653   3.700 -0.0703 -1.0424  1.4736
   66CHL1  H11B 6026   1.159   4.741   3.660 -0.1924  0.7564 -1.6950
   66CHL1    C9 6027   1.165   4.525   3.600  0.4321  0.2116  0.5405
   66CHL1    H9 6028   1.274   4.534   3.580  0.4882 -1.5332 -0.0906
   66CHL1   C10 6029   1.105   4.549   3.452 -0.1160 -1.3777 -0.5865
   66CHL1   C19 6030   0.955   4.600   3.464 -1.0330 -0.1733 -0.9029
   66CHL1  H19A 6031   0.958   4.701   3.509 -0.1891 -1.3372  1.8817
   66CHL1  H19B 6032   0.908   4.598   3.363 -1.0617 -2.4209 -0.8988
   66CHL1  H19C 6033   0.893   4.528   3.521 -0.9746 -0.5386 -1.2954
   66CHL1    C1 6034   1.193   4.671   3.400  0.2581  0.0606  1.1308
   66CHL1   H1A 6035   1.169   4.754   3.470  0.5764  0.2727  0.9889
   66CHL1   H1B 6036   1.297   4.633   3.405 -0.5033 -2.3429  0.2101
   66CHL1    C2 6037   1.163   4.697   3.254  0.1328 -0.3222 -0.1948
   66CHL1   H2A 6038   1.236   4.767   3.208  1.0259  0.0074  1.6489
   66CHL1   H2B 6039   1.068   4.751   3.236  0.6514 -0.0086 -2.3321
   66CHL1   C20 6040   1.164   4.467   4.164  0.2041 -0.5542 -0.5589
   66CHL1   H20 6041   1.057   4.446   4.186  0.4459 -2.2939 -0.8812
   66CHL1   C21 6042   1.190   4.616   4.176 -0.0271 -0.0361 -0.0496
   66CHL1  H21A 6043   1.297   4.639   4.159 -0.5536  1.9293 -1.0991
   66CHL1  H21B 6044   1.142   4.649   4.270 -0.5392  3.0382 -1.2846
   66CHL1  H21C 6045   1.136   4.661   4.090  3.2026 -0.6566 -2.5869
   66CHL1   C22 6046   1.238   4.385   4.280  0.3021  0.6937 -0.4037
   66CHL1  H22A 6047   1.195   4.409   4.380 -0.3354 -1.2353 -0.1655
   66CHL1  H22B 6048   1.226   4.275   4.272 -1.9448  0.5687  2.8345
   66CHL1   C23 6049   1.392   4.406   4.290  0.1495  0.3060 -0.3016
   66CHL1  H23A 6050   1.453   4.362   4.208  1.4951  0.3911  0.6240
   66CHL1  H23B 6051   1.410   4.516   4.285 -0.5534  0.3780 -1.6337
   66CHL1   C24 6052   1.441   4.337   4.423  0.0381  0.1206  0.5683
   66CHL1  H24A 6053   1.356   4.287   4.473  0.3445 -1.2452 -0.2425
   66CHL1  H24B 6054   1.526   4.268   4.405 -0.1819 -0.2607  0.9925
   66CHL1   C25 6055   1.514   4.441   4.518  0.3868  0.8880  0.3400
   66CHL1   H25 6056   1.601   4.475   4.458  0.1645 -0.0773 -0.5667
   66CHL1   C26 6057   1.422   4.561   4.557  0.2817  0.3594 -0.4555
   66CHL1  H26A 6058   1.466   4.598   4.652 -1.9106  0.5582  0.5544
   66CHL1  H26B 6059   1.399   4.643   4.486 -0.7999  2.6348  2.3388
   66CHL1  H26C 6060   1.321   4.517   4.574  0.0634 -0.3006 -3.0321
   66CHL1   C27 6061   1.566   4.373   4.642  0.5132 -0.5109 -0.7615
   66CHL1  H27A 6062   1.643   4.296   4.623  1.1420 -0.1615  0.2829
   66CHL1  H27B 6063   1.488   4.333   4.711  0.6487 -0.1087 -0.3636
   66CHL1  H27C 6064   1.632   4.447   4.693  0.7151 -2.6099  2.3165
   67CHL1    C3 6065   1.243   1.378   3.500 -0.1900  0.6865  0.4976
   67CHL1    H3 6066   1.348   1.391   3.466 -0.4675 -1.3999 -1.3478
   67CHL1    O3 6067   1.153   1.346   3.388  0.5738  0.2388 -0.2893
   67CHL1   H3' 6068   1.086   1.415   3.387  1.4197  1.0642 -1.0222
   67CHL1    C4 6069   1.229   1.260   3.600  0.2397 -0.1599 -0.0722
   67CHL1   H4A 6070   1.120   1.242   3.615  0.2696 -1.1316 -0.9029
   67CHL1   H4B 6071   1.267   1.174   3.541 -0.2587 -1.2670  1.1724
   67CHL1    C5 6072   1.306   1.277   3.727 -0.2375  0.6231  0.4000
   67CHL1    C6 6073   1.403   1.189   3.759 -0.2145  0.1496 -0.5388
   67CHL1    H6 6074   1.432   1.101   3.700 -0.7392 -1.2689  1.2321
   67CHL1    C7 6075   1.470   1.195   3.895  0.4663 -0.3637  0.3892
   67CHL1   H7A 6076   1.456   1.103   3.956  2.3928 -1.4492 -0.7017
   67CHL1   H7B 6077   1.574   1.231   3.879 -0.3662  2.0761  0.0096
   67CHL1    C8 6078   1.410   1.308   3.989  0.2765 -0.1338 -0.4828
   67CHL1    H8 6079   1.311   1.267   4.021  1.0766 -0.6883  1.3818
   67CHL1   C14 6080   1.502   1.341   4.103  0.2832  0.2594 -0.3430
   67CHL1   H14 6081   1.596   1.391   4.071  0.4699 -0.4407 -0.9144
   67CHL1   C15 6082   1.543   1.227   4.192 -0.1838  0.6861 -0.5858
   67CHL1  H15A 6083   1.454   1.168   4.221  0.9279 -0.7417  0.0310
   67CHL1  H15B 6084   1.613   1.151   4.151 -1.4464 -0.3046 -0.9752
   67CHL1   C16 6085   1.611   1.290   4.318 -0.5255 -0.0619  0.1470
   67CHL1  H16A 6086   1.598   1.245   4.419 -0.6780  1.1873  0.7004
   67CHL1  H16B 6087   1.722   1.288   4.317 -0.4729  1.5206 -1.0039
   67CHL1   C17 6088   1.559   1.443   4.317 -0.2982  0.6736  0.4056
   67CHL1   H17 6089   1.640   1.503   4.272 -0.6001  1.1149  0.4398
   67CHL1   C13 6090   1.441   1.445   4.213 -0.0311  0.2499  0.1681
   67CHL1   C18 6091   1.314   1.394   4.291 -0.5416 -0.4163  0.4600
   67CHL1  H18A 6092   1.250   1.474   4.336 -0.1066  0.5518 -0.5964
   67CHL1  H18B 6093   1.251   1.327   4.229 -2.2785 -0.6287  2.3529
   67CHL1  H18C 6094   1.340   1.335   4.381 -3.5275  0.0836  1.7668
   67CHL1   C12 6095   1.408   1.574   4.142 -0.0801  0.4525 -0.3194
   67CHL1  H12A 6096   1.380   1.653   4.216  1.3828 -1.4097  2.3909
   67CHL1  H12B 6097   1.504   1.604   4.096  0.4362 -0.7548 -0.0507
   67CHL1   C11 6098   1.311   1.542   4.019  0.0571  0.2552  0.1544
   67CHL1  H11A 6099   1.218   1.497   4.061  0.9029 -2.3539 -0.5962
   67CHL1  H11B 6100   1.283   1.632   3.961  2.4727  1.2780  0.4742
   67CHL1    C9 6101   1.365   1.439   3.920  0.2362 -0.2478 -0.0180
   67CHL1    H9 6102   1.456   1.478   3.870 -1.3935  0.2800 -2.7710
   67CHL1   C10 6103   1.277   1.409   3.798  0.1623 -0.2867  0.2686
   67CHL1   C19 6104   1.129   1.392   3.846  0.0567 -0.4984  0.3638
   67CHL1  H19A 6105   1.063   1.387   3.757  1.1463  2.4790 -0.7396
   67CHL1  H19B 6106   1.113   1.311   3.921 -0.9475 -1.6542 -1.0497
   67CHL1  H19C 6107   1.099   1.488   3.894  1.1374 -0.1355  0.3417
   67CHL1    C1 6108   1.274   1.530   3.700  0.3573 -0.1688 -0.4619
   67CHL1   H1A 6109   1.209   1.608   3.745  1.3824  1.0167 -0.9623
   67CHL1   H1B 6110   1.380   1.560   3.682 -0.4261  1.9077 -2.0544
   67CHL1    C2 6111   1.202   1.507   3.564  0.4438  0.1347  0.2258
   67CHL1   H2A 6112   1.219   1.596   3.498 -0.1013  0.3937  0.4280
   67CHL1   H2B 6113   1.092   1.494   3.568  0.5349 -1.1144 -0.6543
   67CHL1   C20 6114   1.551   1.501   4.458  0.5402 -0.3702  0.0877
   67CHL1   H20 6115   1.468   1.443   4.504  0.1789 -0.3903 -0.5936
   67CHL1   C21 6116   1.490   1.646   4.456  0.1739  0.1369 -0.1209
   67CHL1  H21A 6117   1.530   1.696   4.366 -1.2632  0.9495 -0.3383
   67CHL1  H21B 6118   1.518   1.716   4.539 -0.1869  0.4569 -0.2672
   67CHL1  H21C 6119   1.380   1.631   4.454  0.1339 -0.1774  1.9841
   67CHL1   C22 6120   1.672   1.480   4.547  1.4555 -0.0196  0.3017
   67CHL1  H22A 6121   1.750   1.426   4.490  1.5549  1.6494 -1.2279
   67CHL1  H22B 6122   1.703   1.584   4.572  1.2217  0.0195  0.4374
   67CHL1   C23 6123   1.641   1.423   4.683 -0.2752  0.0061  0.3896
   67CHL1  H23A 6124   1.561   1.486   4.727 -2.1490 -0.4296 -2.2027
   67CHL1  H23B 6125   1.611   1.317   4.669  0.2395  0.2073 -2.7886
   67CHL1   C24 6126   1.764   1.429   4.774  0.5920  0.3387 -0.2281
   67CHL1  H24A 6127   1.847   1.363   4.739  1.3281  1.2402 -0.2247
   67CHL1  H24B 6128   1.810   1.530   4.777  0.5158  0.3691 -0.0881
   67CHL1   C25 6129   1.739   1.406   4.927  0.1150 -0.2873 -0.1666
   67CHL1   H25 6130   1.712   1.505   4.969 -0.4699 -0.1232 -0.8942
   67CHL1   C26 6131   1.629   1.297   4.956 -0.3537 -0.5014  0.2374
   67CHL1  H26A 6132   1.532   1.344   4.930  0.6461  1.3080 -0.4360
   67CHL1  H26B 6133   1.658   1.204   4.902  1.1983 -1.2604  2.2379
   67CHL1  H26C 6134   1.626   1.277   5.066 -0.1164  1.0567  0.5504
   67CHL1   C27 6135   1.873   1.361   4.998  0.2530 -0.4556  0.2836
   67CHL1  H27A 6136   1.943   1.447   4.999  1.1218 -1.1507  1.8286
   67CHL1  H27B 6137   1.858   1.331   5.103 -1.4458  0.1799  0.2571
   67CHL1  H27C 6138   1.913   1.268   4.954 -1.9944 -0.7525 -1.3209
   68CHL1    C3 6139   6.166   2.642   3.271  0.1517  1.3507  0.5464
   68CHL1    H3 6140   6.215   2.569   3.202 -0.1835  1.0861  0.5866
   68CHL1    O3 6141   6.084   2.715   3.189  0.6787  0.7308 -0.7011
   68CHL1   H3' 6142   6.132   2.744   3.111  0.4528 -0.5973 -1.3784
   68CHL1    C4 6143   6.075   2.575   3.373  0.1532  0.0139  0.2203
   68CHL1   H4A 6144   6.007   2.642   3.430  0.9192 -0.1887  1.3937
   68CHL1   H4B 6145   6.004   2.509   3.318  1.6928  0.1347 -2.0108
   68CHL1    C5 6146   6.163   2.481   3.456  0.0207  0.0812  0.5127
   68CHL1    C6 6147   6.148   2.350   3.471 -0.6047 -0.1154  0.7359
   68CHL1    H6 6148   6.070   2.304   3.410  0.7206 -0.9082 -0.4373
   68CHL1    C7 6149   6.231   2.260   3.553 -0.2442 -0.1223 -0.5925
   68CHL1   H7A 6150   6.172   2.177   3.599 -0.7634 -0.3315 -1.6018
   68CHL1   H7B 6151   6.298   2.211   3.479  0.8375  0.2505  0.1257
   68CHL1    C8 6152   6.306   2.337   3.663  0.3994 -0.1687  0.2103
   68CHL1    H8 6153   6.231   2.370   3.737  1.0641 -1.3206  1.4313
   68CHL1   C14 6154   6.409   2.258   3.732 -0.1348 -0.2656 -0.4856
   68CHL1   H14 6155   6.486   2.227   3.658  1.0956  0.3573  0.4916
   68CHL1   C15 6156   6.363   2.116   3.786  0.0735 -0.1302 -0.3584
   68CHL1  H15A 6157   6.271   2.126   3.848  0.9210 -2.6414  1.4754
   68CHL1  H15B 6158   6.332   2.047   3.705  1.2736  0.4631 -1.3592
   68CHL1   C16 6159   6.473   2.065   3.881 -0.2024 -0.0142 -0.4699
   68CHL1  H16A 6160   6.430   2.028   3.976  0.0672  0.7903 -0.0318
   68CHL1  H16B 6161   6.544   1.991   3.838  1.4649  1.7226 -0.8392
   68CHL1   C17 6162   6.563   2.192   3.907 -0.3435  0.5996 -0.0630
   68CHL1   H17 6163   6.648   2.181   3.837 -1.3687 -1.6429 -1.0603
   68CHL1   C13 6164   6.497   2.324   3.846  0.0160 -0.3754 -0.2208
   68CHL1   C18 6165   6.401   2.391   3.952 -0.7525  0.2164  0.2273
   68CHL1  H18A 6166   6.324   2.457   3.908 -0.5656  0.3263  0.0594
   68CHL1  H18B 6167   6.344   2.307   3.998 -1.7525  0.6103 -0.2907
   68CHL1  H18C 6168   6.461   2.451   4.025  1.0639  0.1614 -1.1413
   68CHL1   C12 6169   6.572   2.436   3.777 -0.1657  0.0426 -0.6421
   68CHL1  H12A 6170   6.618   2.494   3.860 -0.8520  0.6835 -0.6904
   68CHL1  H12B 6171   6.653   2.403   3.708  0.3425 -0.8485  0.3592
   68CHL1   C11 6172   6.485   2.523   3.690 -0.0608 -0.4845 -1.3291
   68CHL1  H11A 6173   6.427   2.588   3.759  0.1699 -1.5657 -0.0741
   68CHL1  H11B 6174   6.548   2.590   3.629  0.0649 -0.8588 -1.6165
   68CHL1    C9 6175   6.378   2.452   3.597 -1.3544 -0.5607  1.0836
   68CHL1    H9 6176   6.432   2.400   3.515 -0.2308  0.1707  1.3364
   68CHL1   C10 6177   6.282   2.553   3.530 -0.1432 -0.3169 -0.6279
   68CHL1   C19 6178   6.218   2.649   3.637  0.2301 -0.6630 -0.1596
   68CHL1  H19A 6179   6.185   2.580   3.718  0.6396 -1.0835 -0.3445
   68CHL1  H19B 6180   6.290   2.723   3.678  1.7161 -0.9802 -2.0307
   68CHL1  H19C 6181   6.128   2.706   3.607 -0.0562 -0.9290  0.1847
   68CHL1    C1 6182   6.357   2.642   3.427  0.3572 -0.0863  0.4143
   68CHL1   H1A 6183   6.417   2.716   3.485 -0.5897 -1.1460  2.9090
   68CHL1   H1B 6184   6.428   2.581   3.367 -1.2820 -3.5389  1.6963
   68CHL1    C2 6185   6.270   2.724   3.335 -0.1994 -0.3654  0.2632
   68CHL1   H2A 6186   6.330   2.770   3.254  1.1560  0.6521  1.7903
   68CHL1   H2B 6187   6.222   2.806   3.393  0.4608 -0.0365  0.3437
   68CHL1   C20 6188   6.624   2.202   4.049 -0.3765  0.0983 -0.0474
   68CHL1   H20 6189   6.543   2.236   4.117 -0.2740 -0.7394  0.5161
   68CHL1   C21 6190   6.744   2.303   4.043  0.0461  0.3209 -0.1453
   68CHL1  H21A 6191   6.697   2.399   4.013 -0.4035  0.8955  2.1534
   68CHL1  H21B 6192   6.824   2.279   3.969 -0.3293  1.6635 -1.0103
   68CHL1  H21C 6193   6.793   2.315   4.143 -1.7736  1.0608  0.6954
   68CHL1   C22 6194   6.686   2.069   4.105  0.0123 -0.4695  0.1465
   68CHL1  H22A 6195   6.612   1.986   4.106  1.4645 -1.8095 -0.6144
   68CHL1  H22B 6196   6.771   2.050   4.036 -0.7932 -1.6105 -0.5711
   68CHL1   C23 6197   6.739   2.081   4.251 -0.4304  0.0211  0.0934
   68CHL1  H23A 6198   6.833   2.140   4.250  0.3614 -1.2097 -0.1928
   68CHL1  H23B 6199   6.664   2.143   4.305 -0.0269  2.0814 -1.5890
   68CHL1   C24 6200   6.755   1.944   4.323 -0.4671 -0.9738 -0.0838
   68CHL1  H24A 6201   6.665   1.888   4.355 -1.6601 -0.3627 -2.1911
   68CHL1  H24B 6202   6.813   1.878   4.255  0.0301  0.3355 -0.9847
   68CHL1   C25 6203   6.850   1.955   4.445 -0.0188  0.1926  0.3094
   68CHL1   H25 6204   6.805   2.030   4.514 -0.4393 -0.1664  0.4285
   68CHL1   C26 6205   6.855   1.826   4.525  0.4943 -0.6853  0.3788
   68CHL1  H26A 6206   6.752   1.805   4.560  0.8046  2.3707  3.7902
   68CHL1  H26B 6207   6.901   1.735   4.482  3.2449  0.1623  1.2773
   68CHL1  H26C 6208   6.913   1.852   4.616  0.2842  2.4602 -0.2757
   68CHL1   C27 6209   6.996   2.009   4.418 -0.3444 -0.2049 -0.9808
   68CHL1  H27A 6210   7.046   1.946   4.341  0.5265  2.5597 -2.8307
   68CHL1  H27B 6211   7.001   2.113   4.378 -0.8156 -0.1298 -0.8495
   68CHL1  H27C 6212   7.059   2.005   4.510  0.9901 -1.9049 -1.9085
   69CHL1    C3 6213   1.740   1.096   3.556  0.0587 -0.3027  0.7594
   69CHL1    H3 6214   1.634   1.112   3.585 -0.0236  1.9047 -0.5485
   69CHL1    O3 6215   1.736   1.035   3.428  0.2334  0.2970  0.0058
   69CHL1   H3' 6216   1.825   1.006   3.408  0.0739 -1.1807  1.2641
   69CHL1    C4 6217   1.806   1.233   3.536 -0.2603  0.0814 -0.7224
   69CHL1   H4A 6218   1.897   1.219   3.472  0.8426 -0.6720  0.9425
   69CHL1   H4B 6219   1.736   1.294   3.475 -2.2898 -1.7582 -0.3388
   69CHL1    C5 6220   1.837   1.298   3.667 -0.2335 -0.4376 -0.1500
   69CHL1    C6 6221   1.799   1.420   3.702 -0.1376  0.2589 -0.0727
   69CHL1    H6 6222   1.753   1.484   3.625  0.0583 -0.6359 -0.9564
   69CHL1    C7 6223   1.833   1.494   3.830  0.3697  0.3017  0.0694
   69CHL1   H7A 6224   1.868   1.598   3.817  0.0510  0.5504  1.1114
   69CHL1   H7B 6225   1.742   1.505   3.894  1.3341  1.3875  1.3108
   69CHL1    C8 6226   1.933   1.418   3.923  0.0648  0.4610  0.2820
   69CHL1    H8 6227   2.036   1.439   3.885  0.2075 -2.2753 -1.1004
   69CHL1   C14 6228   1.920   1.474   4.066 -0.1371  0.7637  0.2045
   69CHL1   H14 6229   1.816   1.450   4.096  0.7726 -0.1660  2.9361
   69CHL1   C15 6230   1.932   1.628   4.101 -0.8344  0.3679  0.0024
   69CHL1  H15A 6231   2.009   1.680   4.039 -0.4703  0.0830  0.2116
   69CHL1  H15B 6232   1.836   1.680   4.080 -0.2501  1.8584  0.8507
   69CHL1   C16 6233   1.951   1.626   4.250  0.2439  0.4317 -0.3042
   69CHL1  H16A 6234   2.044   1.686   4.261  2.2109 -2.7201  2.1273
   69CHL1  H16B 6235   1.861   1.669   4.299 -0.5515 -1.4638 -0.0147
   69CHL1   C17 6236   1.977   1.482   4.291 -1.0715  0.1393 -0.3898
   69CHL1   H17 6237   1.877   1.437   4.307 -0.8733 -0.1605  0.0409
   69CHL1   C13 6238   2.019   1.400   4.162 -0.2152  0.0525 -0.9779
   69CHL1   C18 6239   2.167   1.439   4.124  0.3762  0.0798 -0.4457
   69CHL1  H18A 6240   2.191   1.417   4.018 -0.2408 -3.5419  0.0569
   69CHL1  H18B 6241   2.176   1.548   4.144 -0.3292  0.1247 -0.3752
   69CHL1  H18C 6242   2.238   1.391   4.195  0.0864  2.0332  1.2642
   69CHL1   C12 6243   1.991   1.241   4.162  0.5107 -0.5676  0.5168
   69CHL1  H12A 6244   2.069   1.188   4.222 -0.1652 -2.2598 -0.0457
   69CHL1  H12B 6245   1.888   1.221   4.197 -1.8186  3.0328 -3.4490
   69CHL1   C11 6246   1.999   1.177   4.016  0.1873 -0.1023  0.0816
   69CHL1  H11A 6247   2.106   1.178   3.984  0.9311  0.3806  2.3907
   69CHL1  H11B 6248   1.968   1.070   4.017  1.0022 -0.3817 -1.2703
   69CHL1    C9 6249   1.915   1.265   3.913 -0.2899  0.3681 -0.7264
   69CHL1    H9 6250   1.812   1.245   3.948 -0.3581  1.7510 -0.0747
   69CHL1   C10 6251   1.914   1.205   3.772 -0.9429  0.2971 -0.4436
   69CHL1   C19 6252   2.063   1.165   3.732  0.4112 -0.3437 -0.2372
   69CHL1  H19A 6253   2.078   1.058   3.755  0.5697  0.0017  1.3904
   69CHL1  H19B 6254   2.088   1.173   3.623  2.9933 -1.6967  0.1702
   69CHL1  H19C 6255   2.134   1.233   3.783 -2.5046  2.2111  0.7109
   69CHL1    C1 6256   1.827   1.074   3.785 -0.0352  0.0112 -0.9815
   69CHL1   H1A 6257   1.883   1.011   3.857 -1.1920 -0.8597 -0.8183
   69CHL1   H1B 6258   1.721   1.085   3.816 -0.2419 -3.0247 -0.3048
   69CHL1    C2 6259   1.823   1.005   3.646 -0.0505  0.0502 -0.0765
   69CHL1   H2A 6260   1.766   0.911   3.657  0.4140 -0.2333 -0.0739
   69CHL1   H2B 6261   1.919   0.979   3.596  0.4479  0.9196  0.4019
   69CHL1   C20 6262   2.057   1.474   4.421  0.4643  0.1662  0.1806
   69CHL1   H20 6263   2.164   1.482   4.390  0.3427 -1.6592 -0.8448
   69CHL1   C21 6264   2.028   1.338   4.491  0.5319 -0.3547 -0.2143
   69CHL1  H21A 6265   2.094   1.316   4.578  0.5271 -1.1608 -0.4097
   69CHL1  H21B 6266   2.034   1.256   4.416  0.1159 -0.3470 -0.2573
   69CHL1  H21C 6267   1.926   1.324   4.533  0.5134 -1.6180 -0.6315
   69CHL1   C22 6268   2.027   1.588   4.525 -0.5854  0.4087  0.2627
   69CHL1  H22A 6269   2.045   1.690   4.485 -1.3320  0.3771 -0.1633
   69CHL1  H22B 6270   1.921   1.576   4.555 -1.0248  2.5279 -0.3104
   69CHL1   C23 6271   2.121   1.571   4.645  0.4756  0.2699  0.6764
   69CHL1  H23A 6272   2.078   1.489   4.707 -0.3950 -0.0821 -0.3542
   69CHL1  H23B 6273   2.219   1.535   4.606 -1.1731 -1.9213 -1.8544
   69CHL1   C24 6274   2.143   1.698   4.734  0.6439 -0.8301  0.4514
   69CHL1  H24A 6275   2.151   1.786   4.666  1.3703  0.0571  1.6383
   69CHL1  H24B 6276   2.049   1.709   4.793 -0.5906 -2.4449 -1.1163
   69CHL1   C25 6277   2.259   1.684   4.831 -0.6289 -0.1209 -0.1768
   69CHL1   H25 6278   2.349   1.658   4.772  0.4048 -0.1466  1.3427
   69CHL1   C26 6279   2.294   1.819   4.890  0.2578 -0.4946  0.0942
   69CHL1  H26A 6280   2.386   1.809   4.951  1.1983 -1.0579 -1.3646
   69CHL1  H26B 6281   2.318   1.897   4.815 -0.7549 -1.6621 -1.5011
   69CHL1  H26C 6282   2.207   1.848   4.953 -0.3482 -0.8677 -0.5554
   69CHL1   C27 6283   2.245   1.578   4.937 -0.2724 -0.2379  0.3593
   69CHL1  H27A 6284   2.334   1.563   5.002  0.1935 -3.1442 -0.7901
   69CHL1  H27B 6285   2.158   1.598   5.005  0.0353  2.1242  0.1228
   69CHL1  H27C 6286   2.223   1.480   4.889 -0.0481 -0.4309  0.6477
   70CHL1    C3 6287   3.243   1.743   3.234  0.2707  0.7201 -0.6701
   70CHL1    H3 6288   3.229   1.852   3.254  1.9224  0.3463  3.5305
   70CHL1    O3 6289   3.256   1.711   3.097  0.1922 -0.1684  0.0494
   70CHL1   H3' 6290   3.261   1.615   3.092  1.7687 -0.0800 -1.2147
   70CHL1    C4 6291   3.367   1.694   3.307  0.1290 -0.5285  0.5831
   70CHL1   H4A 6292   3.389   1.586   3.292 -0.9045 -0.7488  0.5887
   70CHL1   H4B 6293   3.453   1.737   3.251 -1.1685 -1.0303 -1.9246
   70CHL1    C5 6294   3.359   1.723   3.453  0.0569 -0.3754  0.7309
   70CHL1    C6 6295   3.455   1.789   3.517  0.2054 -0.4459  0.7585
   70CHL1    H6 6296   3.529   1.835   3.449 -0.1168  0.5145  1.0308
   70CHL1    C7 6297   3.457   1.820   3.658  0.4086 -0.6644 -0.1187
   70CHL1   H7A 6298   3.562   1.798   3.686  1.0284 -0.2102 -1.9233
   70CHL1   H7B 6299   3.437   1.928   3.676 -3.2028 -1.3876  1.2190
   70CHL1    C8 6300   3.353   1.734   3.740  0.5369 -0.0441 -1.1987
   70CHL1    H8 6301   3.407   1.638   3.750 -0.8037 -0.8930 -1.8000
   70CHL1   C14 6302   3.323   1.791   3.878 -0.7960 -0.4073  0.0641
   70CHL1   H14 6303   3.264   1.885   3.872  0.8245  0.5389 -2.7887
   70CHL1   C15 6304   3.446   1.825   3.962  0.3761  0.5104  0.2465
   70CHL1  H15A 6305   3.526   1.747   3.958 -3.0887 -3.3873 -0.2531
   70CHL1  H15B 6306   3.496   1.919   3.930 -0.0964  1.2960  1.7587
   70CHL1   C16 6307   3.393   1.828   4.105  0.4125  0.4679 -0.0416
   70CHL1  H16A 6308   3.453   1.763   4.172  0.1648 -2.4064 -2.3968
   70CHL1  H16B 6309   3.390   1.934   4.138  2.3772  1.3967 -2.5054
   70CHL1   C17 6310   3.238   1.782   4.097  0.0670  0.4968 -0.6078
   70CHL1   H17 6311   3.189   1.878   4.070 -0.0424  0.3602 -0.9015
   70CHL1   C13 6312   3.233   1.701   3.963  0.4129 -0.1188 -0.3342
   70CHL1   C18 6313   3.291   1.563   3.993  0.5588 -0.0101 -0.6523
   70CHL1  H18A 6314   3.340   1.511   3.908  0.3004 -2.5115  0.6339
   70CHL1  H18B 6315   3.362   1.570   4.079 -0.3450 -0.7249  0.1780
   70CHL1  H18C 6316   3.214   1.490   4.024 -0.2858  0.3746 -1.8017
   70CHL1   C12 6317   3.103   1.692   3.890 -0.3132  0.1047  0.5486
   70CHL1  H12A 6318   3.027   1.629   3.940 -0.9161  1.9801  2.0664
   70CHL1  H12B 6319   3.066   1.795   3.872  1.3354  1.1275  2.5812
   70CHL1   C11 6320   3.125   1.637   3.751  0.3321 -0.1544 -0.1479
   70CHL1  H11A 6321   3.155   1.532   3.776  0.1301 -0.1811 -0.0167
   70CHL1  H11B 6322   3.027   1.626   3.702 -0.2727  0.9235  0.7802
   70CHL1    C9 6323   3.219   1.713   3.668 -0.4928 -0.7414  0.5574
   70CHL1    H9 6324   3.171   1.810   3.642  2.1590  0.7159  0.6936
   70CHL1   C10 6325   3.236   1.657   3.522  0.0602  0.3076 -0.4068
   70CHL1   C19 6326   3.254   1.492   3.528  0.0228  1.2501 -0.0705
   70CHL1  H19A 6327   3.349   1.467   3.580 -0.6692  2.7155  2.0085
   70CHL1  H19B 6328   3.163   1.450   3.575  1.4973 -0.6850  1.2087
   70CHL1  H19C 6329   3.268   1.441   3.430  0.1709 -1.3885  1.2407
   70CHL1    C1 6330   3.107   1.692   3.438  0.3717 -0.3381  0.2056
   70CHL1   H1A 6331   3.036   1.617   3.479  1.0704 -1.4516 -0.5620
   70CHL1   H1B 6332   3.066   1.793   3.458 -1.0113 -1.0679  1.2508
   70CHL1    C2 6333   3.125   1.669   3.286  0.3202  0.2167 -0.0199
   70CHL1   H2A 6334   3.042   1.703   3.221  1.5050  0.8328 -1.2549
   70CHL1   H2B 6335   3.137   1.559   3.270  1.3368 -0.0686  2.3954
   70CHL1   C20 6336   3.171   1.722   4.222 -0.2879 -0.0395 -0.4601
   70CHL1   H20 6337   3.159   1.612   4.213 -1.6383  0.1645 -1.4238
   70CHL1   C21 6338   3.029   1.781   4.213 -0.6675  0.1862  0.3026
   70CHL1  H21A 6339   2.976   1.754   4.119  0.3268  1.4820 -0.6673
   70CHL1  H21B 6340   3.025   1.892   4.222 -0.6531  0.2766 -0.6369
   70CHL1  H21C 6341   2.957   1.743   4.288 -0.0591 -0.9787  0.3191
   70CHL1   C22 6342   3.239   1.759   4.357 -0.3853 -0.2081 -0.1292
   70CHL1  H22A 6343   3.345   1.730   4.343 -0.3919  0.4409 -1.6347
   70CHL1  H22B 6344   3.232   1.869   4.365  0.1127 -0.2677  1.4471
   70CHL1   C23 6345   3.188   1.697   4.480 -0.3064  0.3670  0.0541
   70CHL1  H23A 6346   3.077   1.701   4.486 -0.4296  0.5097 -1.7626
   70CHL1  H23B 6347   3.220   1.591   4.495 -0.6284  0.1733 -0.5905
   70CHL1   C24 6348   3.222   1.769   4.610 -0.8527  0.0583  0.0358
   70CHL1  H24A 6349   3.329   1.752   4.636  0.0569  1.4009 -2.5128
   70CHL1  H24B 6350   3.209   1.879   4.606 -1.7838  0.2509  3.9201
   70CHL1   C25 6351   3.145   1.709   4.734 -0.5278  0.5092  0.1830
   70CHL1   H25 6352   3.039   1.728   4.706  0.1008  0.7810 -2.2840
   70CHL1   C26 6353   3.163   1.558   4.755 -0.6177 -0.1558  0.0290
   70CHL1  H26A 6354   3.147   1.500   4.662  2.4240 -0.7051 -0.2680
   70CHL1  H26B 6355   3.268   1.534   4.782  0.0291  1.1088 -1.2135
   70CHL1  H26C 6356   3.096   1.523   4.836  1.2567  1.2382  2.3166
   70CHL1   C27 6357   3.182   1.780   4.865 -0.2002  0.6158 -0.0196
   70CHL1  H27A 6358   3.132   1.734   4.953  1.8546  2.8798  2.4887
   70CHL1  H27B 6359   3.292   1.775   4.878  0.1136  0.4936 -2.2778
   70CHL1  H27C 6360   3.148   1.885   4.853  0.2778  0.7171 -0.5213
   71CHL1    C3 6361   4.311   2.275   3.231  0.1934 -0.6454  0.5039
   71CHL1    H3 6362   4.416   2.311   3.239 -0.0532 -0.1844  1.7905
   71CHL1    O3 6363   4.270   2.305   3.096  0.1169 -0.0842  0.2499
   71CHL1   H3' 6364   4.313   2.236   3.046  1.6346  0.6427  0.5038
   71CHL1    C4 6365   4.306   2.125   3.260 -0.0112  0.4652  0.1300
   71CHL1   H4A 6366   4.199   2.096   3.253 -0.3015  1.1968  1.2720
   71CHL1   H4B 6367   4.370   2.063   3.194  2.2258  0.1143  2.4891
   71CHL1    C5 6368   4.330   2.082   3.404  0.1109 -0.2847 -0.5675
   71CHL1    C6 6369   4.427   1.992   3.440  0.2978  0.1317  0.3366
   71CHL1    H6 6370   4.485   1.943   3.361 -2.1249 -0.8957 -0.9329
   71CHL1    C7 6371   4.469   1.957   3.578  0.5939  0.1631 -0.3177
   71CHL1   H7A 6372   4.476   1.846   3.590 -1.8683 -0.0503 -0.5244
   71CHL1   H7B 6373   4.572   1.996   3.593  1.2042 -0.4703 -2.4827
   71CHL1    C8 6374   4.363   2.011   3.677 -0.1316  0.0473 -0.1671
   71CHL1    H8 6375   4.265   1.960   3.670 -1.3597  2.2650 -0.1536
   71CHL1   C14 6376   4.427   2.000   3.821 -0.0440 -0.2255 -0.1618
   71CHL1   H14 6377   4.514   2.068   3.831 -0.9521  1.5831 -3.2065
   71CHL1   C15 6378   4.468   1.861   3.875  0.0742 -0.0870  0.4211
   71CHL1  H15A 6379   4.383   1.790   3.858  1.3596 -1.5289 -0.2179
   71CHL1  H15B 6380   4.557   1.827   3.819 -0.1268  1.4256 -0.8816
   71CHL1   C16 6381   4.481   1.886   4.030  0.8167  0.4036 -0.1005
   71CHL1  H16A 6382   4.455   1.798   4.092 -1.7324  1.6413  0.7201
   71CHL1  H16B 6383   4.591   1.892   4.047  1.0874 -1.4799 -0.9795
   71CHL1   C17 6384   4.412   2.025   4.057  0.3364  0.0753  0.2660
   71CHL1   H17 6385   4.491   2.103   4.066  2.8043 -1.8264 -2.7795
   71CHL1   C13 6386   4.333   2.055   3.931  0.6462  0.8410  0.4760
   71CHL1   C18 6387   4.202   1.963   3.934 -0.3912  0.5983  0.0827
   71CHL1  H18A 6388   4.226   1.857   3.957 -2.4132  0.2547  0.8267
   71CHL1  H18B 6389   4.126   1.995   4.008  0.3371  0.0120  1.1075
   71CHL1  H18C 6390   4.151   1.961   3.836 -1.8404  0.4851  0.8200
   71CHL1   C12 6391   4.309   2.201   3.905  0.4483  0.5145  0.9473
   71CHL1  H12A 6392   4.237   2.242   3.979 -0.0343  0.3985  0.5456
   71CHL1  H12B 6393   4.401   2.261   3.923  0.5941  0.8790 -0.8358
   71CHL1   C11 6394   4.252   2.228   3.766  0.3977  0.4047  0.1287
   71CHL1  H11A 6395   4.151   2.184   3.764  1.0616 -1.2433  1.0230
   71CHL1  H11B 6396   4.227   2.335   3.749 -1.5845  0.2525  1.7969
   71CHL1    C9 6397   4.322   2.153   3.650 -0.1291 -0.6763 -0.1870
   71CHL1    H9 6398   4.417   2.210   3.642  0.4609 -1.6908 -0.6083
   71CHL1   C10 6399   4.259   2.179   3.508  0.4834 -0.0415  0.3440
   71CHL1   C19 6400   4.112   2.127   3.515  0.5272 -0.0963  1.1428
   71CHL1  H19A 6401   4.049   2.178   3.591 -0.1433 -2.2365  2.1000
   71CHL1  H19B 6402   4.063   2.166   3.423 -0.2627  1.2557  2.1093
   71CHL1  H19C 6403   4.102   2.017   3.519  0.3863 -0.1129  0.5084
   71CHL1    C1 6404   4.267   2.322   3.479  0.3371  0.2221  1.2548
   71CHL1   H1A 6405   4.216   2.401   3.537  1.1417  1.6839  0.0349
   71CHL1   H1B 6406   4.375   2.346   3.492  0.9914 -1.7550 -0.0117
   71CHL1    C2 6407   4.226   2.356   3.329 -0.0080  0.0845 -0.6815
   71CHL1   H2A 6408   4.237   2.465   3.309  0.7403 -0.0580 -1.0756
   71CHL1   H2B 6409   4.116   2.342   3.320 -0.3592  2.6717 -1.1667
   71CHL1   C20 6410   4.325   2.031   4.193 -0.0020  0.1231  0.0291
   71CHL1   H20 6411   4.240   2.102   4.177 -2.1608 -2.4443 -0.7123
   71CHL1   C21 6412   4.403   2.093   4.309  0.3664  0.3582  0.2778
   71CHL1  H21A 6413   4.361   2.059   4.406 -2.0416  2.6426  0.1584
   71CHL1  H21B 6414   4.394   2.204   4.297  2.1843  0.4573 -0.6705
   71CHL1  H21C 6415   4.506   2.053   4.296  0.2701 -0.0211  0.6843
   71CHL1   C22 6416   4.272   1.889   4.243  0.0297  0.3581  0.6507
   71CHL1  H22A 6417   4.246   1.827   4.154  0.6090 -0.8776  1.3065
   71CHL1  H22B 6418   4.359   1.839   4.293  0.9118  0.1005 -1.0820
   71CHL1   C23 6419   4.168   1.885   4.351  0.0433  0.4227  0.6328
   71CHL1  H23A 6420   4.207   1.918   4.450 -1.1939  4.5063 -0.0574
   71CHL1  H23B 6421   4.093   1.961   4.321  0.7029  0.6621 -0.4517
   71CHL1   C24 6422   4.105   1.747   4.370 -0.7116  0.1506  0.3003
   71CHL1  H24A 6423   4.012   1.751   4.431 -1.4126 -1.1663 -0.6152
   71CHL1  H24B 6424   4.073   1.711   4.269  2.1819 -0.2835 -0.5453
   71CHL1   C25 6425   4.208   1.646   4.432 -0.1526  0.0756  0.2830
   71CHL1   H25 6426   4.303   1.661   4.377 -0.7669  1.0768 -0.5415
   71CHL1   C26 6427   4.247   1.676   4.580 -0.0604 -0.4020  0.7412
   71CHL1  H26A 6428   4.306   1.770   4.586  0.8364 -0.8912 -0.0408
   71CHL1  H26B 6429   4.150   1.681   4.634 -1.8477 -2.2857 -1.9801
   71CHL1  H26C 6430   4.312   1.601   4.630 -0.0672  1.2058  3.3148
   71CHL1   C27 6431   4.158   1.503   4.434 -0.5774 -0.1101  0.7560
   71CHL1  H27A 6432   4.069   1.492   4.499 -0.4882  2.5476  1.4429
   71CHL1  H27B 6433   4.118   1.472   4.335 -1.0093 -0.1912  0.9537
   71CHL1  H27C 6434   4.240   1.431   4.453 -0.1516 -0.4553 -1.9354
   72CHL1    C3 6435   4.584   5.609   3.355  0.1680  0.1323  0.9224
   72CHL1    H3 6436   4.529   5.513   3.355  0.2309  0.0295 -1.6506
   72CHL1    O3 6437   4.594   5.645   3.215 -0.1803 -0.3182 -0.0905
   72CHL1   H3' 6438   4.689   5.660   3.205  0.0116  0.9761  2.7047
   72CHL1    C4 6439   4.488   5.709   3.422 -0.5110 -0.1484 -0.3064
   72CHL1   H4A 6440   4.528   5.811   3.400  0.4105 -0.6757 -1.1447
   72CHL1   H4B 6441   4.393   5.696   3.367 -0.8728 -0.4875  0.3939
   72CHL1    C5 6442   4.464   5.670   3.562 -0.0508 -0.0283 -0.0230
   72CHL1    C6 6443   4.342   5.642   3.611  0.5859  0.1601 -1.2868
   72CHL1    H6 6444   4.258   5.662   3.543 -0.3456  1.2007  0.1129
   72CHL1    C7 6445   4.312   5.628   3.763 -0.0410  0.3501  0.3169
   72CHL1   H7A 6446   4.227   5.688   3.803 -1.2154 -1.7555  1.1689
   72CHL1   H7B 6447   4.276   5.525   3.783  0.2782  0.7908  3.6801
   72CHL1    C8 6448   4.437   5.662   3.851 -0.5993  0.2344 -0.1284
   72CHL1    H8 6449   4.457   5.771   3.866 -1.5420  0.5980 -1.3360
   72CHL1   C14 6450   4.419   5.594   3.987  0.7814  0.4173 -0.3198
   72CHL1   H14 6451   4.422   5.486   3.964  1.4450  0.3565  0.0214
   72CHL1   C15 6452   4.291   5.622   4.073 -0.0898  0.6171  1.2268
   72CHL1  H15A 6453   4.280   5.733   4.071 -0.5708  0.5630  0.3203
   72CHL1  H15B 6454   4.191   5.581   4.046 -0.1327  0.7944  1.1129
   72CHL1   C16 6455   4.328   5.572   4.211  0.2816 -0.4549 -0.8483
   72CHL1  H16A 6456   4.296   5.656   4.276 -1.9378 -1.0112 -1.1358
   72CHL1  H16B 6457   4.265   5.484   4.237  0.4024 -0.4005 -0.3674
   72CHL1   C17 6458   4.477   5.548   4.218 -1.0217 -0.3273  0.0586
   72CHL1   H17 6459   4.505   5.442   4.198  0.8829  0.0364  0.5583
   72CHL1   C13 6460   4.530   5.623   4.091  0.1543  0.0823 -0.0614
   72CHL1   C18 6461   4.544   5.773   4.134  0.7753 -0.2675 -0.0956
   72CHL1  H18A 6462   4.443   5.811   4.162 -0.2306 -2.9532  0.2209
   72CHL1  H18B 6463   4.627   5.778   4.208  0.3816 -2.9720  0.6283
   72CHL1  H18C 6464   4.571   5.835   4.046 -0.1446  0.3469  0.0406
   72CHL1   C12 6465   4.667   5.572   4.034 -0.6461 -0.0330  0.3955
   72CHL1  H12A 6466   4.752   5.601   4.099  0.5928  0.2213 -1.2553
   72CHL1  H12B 6467   4.670   5.461   4.040 -2.5654 -0.0483  1.7999
   72CHL1   C11 6468   4.685   5.628   3.891 -0.0016 -0.5571 -0.3901
   72CHL1  H11A 6469   4.689   5.739   3.900 -1.6215 -0.6657  4.0936
   72CHL1  H11B 6470   4.784   5.599   3.849 -0.0671 -0.8258 -0.3544
   72CHL1    C9 6471   4.568   5.616   3.787 -1.3165  0.0021  0.2024
   72CHL1    H9 6472   4.554   5.506   3.778 -0.2082 -0.1067 -0.3511
   72CHL1   C10 6473   4.594   5.672   3.645  0.2714  0.4849 -0.1272
   72CHL1   C19 6474   4.645   5.809   3.648 -0.2427 -0.3211 -0.1358
   72CHL1  H19A 6475   4.569   5.877   3.693  0.1540 -0.2345  0.4189
   72CHL1  H19B 6476   4.741   5.816   3.703  0.5509  0.1905 -1.5459
   72CHL1  H19C 6477   4.676   5.842   3.547  2.8973 -0.3989  0.7151
   72CHL1    C1 6478   4.709   5.583   3.573 -0.2701 -0.2722  0.3482
   72CHL1   H1A 6479   4.810   5.582   3.619  0.5828 -1.3330 -1.4393
   72CHL1   H1B 6480   4.674   5.478   3.583 -1.7815  0.2954  1.3662
   72CHL1    C2 6481   4.719   5.616   3.419 -0.8920  0.4439  0.5288
   72CHL1   H2A 6482   4.788   5.548   3.365  0.2971  2.4583 -0.6073
   72CHL1   H2B 6483   4.754   5.719   3.401 -1.8235  0.4469 -1.5778
   72CHL1   C20 6484   4.534   5.566   4.363 -0.5641  0.2044 -0.5641
   72CHL1   H20 6485   4.484   5.658   4.400 -3.7776 -1.4248 -0.4956
   72CHL1   C21 6486   4.686   5.555   4.382  0.0098  0.7158  0.3236
   72CHL1  H21A 6487   4.754   5.620   4.322  0.6215  1.7358  2.0675
   72CHL1  H21B 6488   4.717   5.449   4.363  0.1939  0.6395  1.0492
   72CHL1  H21C 6489   4.715   5.579   4.486  2.0394  0.1294 -0.0632
   72CHL1   C22 6490   4.471   5.467   4.467  0.5431  0.7793 -0.2044
   72CHL1  H22A 6491   4.361   5.472   4.478  0.5804 -1.0561  1.8582
   72CHL1  H22B 6492   4.502   5.366   4.434  1.4173  1.0058 -0.1153
   72CHL1   C23 6493   4.509   5.493   4.620  0.3017  0.3211 -0.7177
   72CHL1  H23A 6494   4.617   5.468   4.617  0.8615  2.6720 -2.2837
   72CHL1  H23B 6495   4.491   5.602   4.627 -1.4328 -0.0203  0.8284
   72CHL1   C24 6496   4.443   5.411   4.729 -0.1366 -0.0638  0.6860
   72CHL1  H24A 6497   4.335   5.434   4.741 -0.7252 -2.8909  1.6612
   72CHL1  H24B 6498   4.447   5.305   4.697  0.6403 -0.5476  2.2809
   72CHL1   C25 6499   4.513   5.424   4.862  0.6809 -0.6877 -0.8140
   72CHL1   H25 6500   4.621   5.398   4.867  0.8554  0.0862 -0.2877
   72CHL1   C26 6501   4.494   5.571   4.905 -0.6417  0.1678 -0.1337
   72CHL1  H26A 6502   4.554   5.630   4.833  0.5280 -3.2188 -2.1722
   72CHL1  H26B 6503   4.386   5.598   4.897 -0.1924  2.1284  0.0361
   72CHL1  H26C 6504   4.526   5.588   5.010 -0.8611  0.9872 -0.1931
   72CHL1   C27 6505   4.450   5.333   4.966 -0.0569 -0.2356  0.9019
   72CHL1  H27A 6506   4.494   5.232   4.951  0.3518  0.2523 -1.7005
   72CHL1  H27B 6507   4.474   5.361   5.071  0.1707 -1.7639  1.2821
   72CHL1  H27C 6508   4.341   5.349   4.976 -0.0777  0.9833 -0.7404
   73CHL1    C3 6509   5.570   6.790   3.475 -0.2547 -0.4555 -0.5662
   73CHL1    H3 6510   5.492   6.793   3.396 -0.1858  1.2683 -0.6134
   73CHL1    O3 6511   5.679   6.712   3.417  0.9100 -0.3704 -0.2084
   73CHL1   H3' 6512   5.637   6.626   3.411 -1.8254  0.5964  2.2515
   73CHL1    C4 6513   5.626   6.934   3.496 -0.4010  0.8004 -0.1568
   73CHL1   H4A 6514   5.716   6.925   3.561 -1.2438  1.2577  1.1067
   73CHL1   H4B 6515   5.667   6.968   3.399  0.9934  0.1336  0.1681
   73CHL1    C5 6516   5.526   7.027   3.554  1.1050  0.3782  0.5159
   73CHL1    C6 6517   5.488   7.144   3.503 -0.1402 -0.3683  0.0779
   73CHL1    H6 6518   5.540   7.168   3.410 -0.7146 -2.8253 -0.9386
   73CHL1    C7 6519   5.398   7.241   3.569  0.3022  0.0359 -0.9037
   73CHL1   H7A 6520   5.441   7.343   3.558  1.5388 -0.4539 -0.8153
   73CHL1   H7B 6521   5.309   7.248   3.503 -0.9493 -0.2872  0.6994
   73CHL1    C8 6522   5.359   7.209   3.715 -1.0304  0.7910 -0.7793
   73CHL1    H8 6523   5.439   7.233   3.787  0.2748 -1.2789 -1.4380
   73CHL1   C14 6524   5.235   7.283   3.745  0.6428 -0.1792 -0.0098
   73CHL1   H14 6525   5.162   7.244   3.671  0.0172  0.5237  0.2192
   73CHL1   C15 6526   5.217   7.427   3.722 -0.3954  0.5324  0.5323
   73CHL1  H15A 6527   5.301   7.488   3.762  1.9279 -0.6123 -2.2113
   73CHL1  H15B 6528   5.221   7.442   3.612  0.2263 -3.4533 -0.1532
   73CHL1   C16 6529   5.092   7.465   3.799 -0.5319  0.3352 -0.2432
   73CHL1  H16A 6530   5.123   7.550   3.863 -0.6387 -0.9279  1.5636
   73CHL1  H16B 6531   5.013   7.492   3.727 -0.6276 -1.5502 -0.9118
   73CHL1   C17 6532   5.043   7.335   3.874 -0.3263  0.4492  0.7107
   73CHL1   H17 6533   4.978   7.283   3.801  1.3475 -0.2128 -0.3651
   73CHL1   C13 6534   5.168   7.255   3.882 -0.0035 -0.6544 -0.6634
   73CHL1   C18 6535   5.254   7.318   3.993 -0.2486 -0.5228 -0.3016
   73CHL1  H18A 6536   5.260   7.426   4.017  0.1651 -0.6795  0.3023
   73CHL1  H18B 6537   5.219   7.268   4.086 -0.1525  0.8941  0.5309
   73CHL1  H18C 6538   5.359   7.282   3.988  0.2655  0.7755  0.6598
   73CHL1   C12 6539   5.144   7.105   3.896  0.1306 -0.4964  0.0118
   73CHL1  H12A 6540   5.110   7.087   4.001  0.1727 -0.9925 -0.0578
   73CHL1  H12B 6541   5.060   7.073   3.831  0.1539 -0.2040 -0.1636
   73CHL1   C11 6542   5.273   7.028   3.869 -0.2202 -0.2462  0.0503
   73CHL1  H11A 6543   5.348   7.054   3.947 -3.0826 -1.4325  3.4919
   73CHL1  H11B 6544   5.257   6.919   3.885  2.5249 -0.8715 -0.8686
   73CHL1    C9 6545   5.332   7.059   3.730 -0.2506  0.0475 -0.6655
   73CHL1    H9 6546   5.256   7.037   3.651 -0.9134  1.8993 -0.5907
   73CHL1   C10 6547   5.460   6.973   3.687  0.7536  0.0962  0.3346
   73CHL1   C19 6548   5.568   6.980   3.796  0.7138  0.2248  0.3290
   73CHL1  H19A 6549   5.665   6.940   3.762  1.3676 -1.1194  3.4556
   73CHL1  H19B 6550   5.581   7.074   3.854  0.7359 -0.8735  2.1743
   73CHL1  H19C 6551   5.531   6.907   3.872 -0.0502  0.4489  0.1825
   73CHL1    C1 6552   5.412   6.828   3.665 -0.5632 -0.3132  0.1365
   73CHL1   H1A 6553   5.405   6.794   3.770  0.2657 -1.3891 -0.1465
   73CHL1   H1B 6554   5.317   6.819   3.608 -0.1072  1.3700 -0.9609
   73CHL1    C2 6555   5.516   6.731   3.600  0.0194  0.1588  0.2219
   73CHL1   H2A 6556   5.463   6.637   3.577 -0.4610  0.1505  1.3008
   73CHL1   H2B 6557   5.602   6.722   3.670 -0.6879 -0.3836  1.0413
   73CHL1   C20 6558   4.968   7.383   3.992  0.4984  0.1599  0.0220
   73CHL1   H20 6559   5.021   7.464   4.046 -0.7166  0.9694  0.0204
   73CHL1   C21 6560   4.942   7.272   4.098  0.0986 -0.6474  0.9778
   73CHL1  H21A 6561   4.906   7.189   4.033  1.4350  0.2535 -0.9854
   73CHL1  H21B 6562   4.858   7.299   4.165 -0.6812  0.9584 -0.5849
   73CHL1  H21C 6563   5.033   7.246   4.157  2.2101  2.3496 -0.6884
   73CHL1   C22 6564   4.833   7.456   3.965 -0.4012 -0.2672 -0.2632
   73CHL1  H22A 6565   4.835   7.515   3.871 -0.9071 -0.3035 -0.3015
   73CHL1  H22B 6566   4.759   7.374   3.950 -1.1491  0.3098  0.2220
   73CHL1   C23 6567   4.794   7.564   4.073  0.2751 -0.0722 -0.6642
   73CHL1  H23A 6568   4.819   7.514   4.169  0.1745  0.3368 -0.4193
   73CHL1  H23B 6569   4.845   7.662   4.061 -0.4570  0.3624 -0.2813
   73CHL1   C24 6570   4.646   7.582   4.069 -0.2801  0.5368  0.0164
   73CHL1  H24A 6571   4.631   7.641   3.975 -1.1739 -1.4817 -1.1706
   73CHL1  H24B 6572   4.596   7.485   4.047 -0.2766  0.8146 -1.3348
   73CHL1   C25 6573   4.585   7.644   4.197  0.6039  0.2479 -0.5222
   73CHL1   H25 6574   4.659   7.711   4.245  1.5192 -1.9047  1.2496
   73CHL1   C26 6575   4.460   7.725   4.163  0.0711  0.4967  0.5733
   73CHL1  H26A 6576   4.408   7.762   4.254 -0.5272 -1.2742  0.9807
   73CHL1  H26B 6577   4.473   7.811   4.094 -2.7954 -0.3966 -1.2349
   73CHL1  H26C 6578   4.387   7.656   4.116  0.6992  0.6499 -0.6718
   73CHL1   C27 6579   4.550   7.531   4.304 -0.0478 -0.3033 -0.4175
   73CHL1  H27A 6580   4.640   7.481   4.343  0.2235 -0.1369 -0.8227
   73CHL1  H27B 6581   4.486   7.571   4.386 -0.2648 -2.0319  0.2806
   73CHL1  H27C 6582   4.503   7.451   4.243 -0.1017 -1.5615  1.2190
   74CHL1    C3 6583   3.330   0.325   3.478  0.1625  0.0588  0.3409
   74CHL1    H3 6584   3.221   0.344   3.486  0.2213  0.4193  0.2799
   74CHL1    O3 6585   3.353   0.374   3.345  0.6282 -0.2612 -0.6546
   74CHL1   H3' 6586   3.446   0.357   3.324  0.0291 -2.4810 -1.8266
   74CHL1    C4 6587   3.399   0.420   3.573 -0.8348  0.3344  0.3587
   74CHL1   H4A 6588   3.507   0.432   3.548 -0.4087  0.2768  2.0455
   74CHL1   H4B 6589   3.355   0.522   3.564 -3.8224 -1.0360 -2.9641
   74CHL1    C5 6590   3.385   0.364   3.712 -0.6746 -0.7691 -0.7310
   74CHL1    C6 6591   3.325   0.445   3.800 -0.0578 -0.4621 -0.2246
   74CHL1    H6 6592   3.297   0.549   3.779 -2.2548 -1.3063 -1.8828
   74CHL1    C7 6593   3.285   0.403   3.939 -0.2834  0.2708 -0.3608
   74CHL1   H7A 6594   3.304   0.492   4.003  1.4401 -0.5962  0.3822
   74CHL1   H7B 6595   3.175   0.386   3.938 -0.1756 -0.9689  1.8436
   74CHL1    C8 6596   3.359   0.276   3.989  0.1163 -0.6053 -0.3342
   74CHL1    H8 6597   3.464   0.300   4.016  0.2065 -2.1052  0.7977
   74CHL1   C14 6598   3.285   0.232   4.123 -1.1258  0.1818  0.6434
   74CHL1   H14 6599   3.186   0.208   4.077  0.2609 -0.1014 -2.4614
   74CHL1   C15 6600   3.247   0.321   4.244 -0.1823  0.2412 -0.2025
   74CHL1  H15A 6601   3.332   0.389   4.265 -0.2394  0.0637  0.6572
   74CHL1  H15B 6602   3.163   0.383   4.206 -0.9675 -0.7448 -0.1011
   74CHL1   C16 6603   3.228   0.215   4.358  0.0876  0.5525  0.1739
   74CHL1  H16A 6604   3.317   0.231   4.423 -0.0933  0.9952  0.3128
   74CHL1  H16B 6605   3.138   0.227   4.421  0.3826  3.3000  0.1893
   74CHL1   C17 6606   3.230   0.074   4.289  0.7101 -1.1351 -1.1321
   74CHL1   H17 6607   3.131   0.059   4.241  0.6603  3.0080 -2.7255
   74CHL1   C13 6608   3.327   0.091   4.176  0.1212  0.3786 -0.2246
   74CHL1   C18 6609   3.475   0.092   4.223  0.1509 -0.4818  0.3948
   74CHL1  H18A 6610   3.539   0.136   4.143  0.5760  3.1920  2.5382
   74CHL1  H18B 6611   3.500   0.167   4.301  2.4343 -1.4753  0.6806
   74CHL1  H18C 6612   3.516  -0.008   4.246  1.2988 -0.6581 -2.0612
   74CHL1   C12 6613   3.306  -0.011   4.062 -0.4586  1.1553 -0.3510
   74CHL1  H12A 6614   3.349  -0.104   4.105 -1.3497  1.7044  1.9215
   74CHL1  H12B 6615   3.198  -0.030   4.041 -0.1040 -0.0692 -1.1635
   74CHL1   C11 6616   3.381   0.022   3.930 -0.2159  0.2564 -0.0996
   74CHL1  H11A 6617   3.490   0.018   3.953 -0.2028  2.0341  0.3873
   74CHL1  H11B 6618   3.365  -0.055   3.853 -2.4081  0.8580 -0.2996
   74CHL1    C9 6619   3.345   0.169   3.877 -0.4509  0.3358 -0.1176
   74CHL1    H9 6620   3.239   0.159   3.846 -0.4987 -1.7520  0.5710
   74CHL1   C10 6621   3.410   0.215   3.748 -0.1827 -0.2365  1.0637
   74CHL1   C19 6622   3.561   0.201   3.757 -0.1546  0.3156 -0.0871
   74CHL1  H19A 6623   3.614   0.242   3.668 -0.1214 -1.6881 -1.0410
   74CHL1  H19B 6624   3.611   0.242   3.847  2.2937  0.4851 -1.4453
   74CHL1  H19C 6625   3.584   0.093   3.765 -2.4616 -0.1016  2.3325
   74CHL1    C1 6626   3.343   0.128   3.627  0.3771  0.0894 -0.8948
   74CHL1   H1A 6627   3.395   0.030   3.631 -0.9278 -0.6738 -1.8905
   74CHL1   H1B 6628   3.235   0.133   3.650  0.8287 -1.0322  1.9078
   74CHL1    C2 6629   3.376   0.180   3.485  0.8613 -0.2207  0.4777
   74CHL1   H2A 6630   3.312   0.130   3.409  0.1997  1.4738 -0.1376
   74CHL1   H2B 6631   3.486   0.173   3.471  0.6157 -0.8982 -1.3779
   74CHL1   C20 6632   3.255  -0.042   4.388 -0.3859 -0.2260  0.2378
   74CHL1   H20 6633   3.295  -0.131   4.333 -4.4180 -0.8015 -2.1487
   74CHL1   C21 6634   3.124  -0.090   4.446 -0.0107  0.2707  0.6162
   74CHL1  H21A 6635   3.057  -0.120   4.362  1.3367 -1.8957  0.2391
   74CHL1  H21B 6636   3.068  -0.011   4.501 -2.0300 -2.4016  2.6860
   74CHL1  H21C 6637   3.137  -0.186   4.500 -1.0550  0.4803  1.2758
   74CHL1   C22 6638   3.358  -0.007   4.507  0.5380 -0.1651  0.5165
   74CHL1  H22A 6639   3.452   0.045   4.478  0.1128  0.6611  0.5937
   74CHL1  H22B 6640   3.309   0.059   4.582  1.0143  1.7631 -0.7930
   74CHL1   C23 6641   3.396  -0.146   4.572  0.2598 -0.1138  0.1531
   74CHL1  H23A 6642   3.302  -0.185   4.617 -0.4804 -0.3520 -1.5119
   74CHL1  H23B 6643   3.433  -0.225   4.503 -2.0294 -0.0354 -1.3004
   74CHL1   C24 6644   3.494  -0.129   4.687  0.3103 -0.8156  0.4707
   74CHL1  H24A 6645   3.588  -0.090   4.642 -0.7177 -0.1791 -1.2608
   74CHL1  H24B 6646   3.446  -0.060   4.760 -1.3049 -3.5187  2.1306
   74CHL1   C25 6647   3.521  -0.260   4.771  0.6213  0.1909 -0.9703
   74CHL1   H25 6648   3.425  -0.292   4.816 -0.5957  2.4797 -1.7392
   74CHL1   C26 6649   3.595  -0.375   4.706  0.4644 -0.0847  0.1405
   74CHL1  H26A 6650   3.554  -0.399   4.606 -1.1670  1.7424  0.3093
   74CHL1  H26B 6651   3.700  -0.347   4.687  0.1698 -0.5197 -2.4535
   74CHL1  H26C 6652   3.576  -0.464   4.771 -1.1667  1.0042  1.2541
   74CHL1   C27 6653   3.594  -0.212   4.900 -0.4930  0.5528 -0.5739
   74CHL1  H27A 6654   3.636  -0.298   4.958 -1.5591  1.2670  1.3709
   74CHL1  H27B 6655   3.677  -0.144   4.873  0.3658 -1.2594 -2.7858
   74CHL1  H27C 6656   3.525  -0.156   4.966 -0.3430  0.9733 -0.7721
   75CHL1    C3 6657   4.519   4.249   3.311 -0.0257  0.7137  0.2013
   75CHL1    H3 6658   4.630   4.257   3.308 -0.1512  2.9420 -2.2387
   75CHL1    O3 6659   4.481   4.208   3.179  0.2081  0.5120 -0.0440
   75CHL1   H3' 6660   4.399   4.254   3.162  0.3162  0.6930 -0.0734
   75CHL1    C4 6661   4.475   4.152   3.422  0.0534 -0.3168 -0.2617
   75CHL1   H4A 6662   4.368   4.127   3.403 -0.1318  0.3144 -0.0832
   75CHL1   H4B 6663   4.536   4.061   3.409 -0.1617 -0.3467 -1.1453
   75CHL1    C5 6664   4.514   4.203   3.559 -0.0709  0.2808 -0.8961
   75CHL1    C6 6665   4.608   4.129   3.629  0.1059 -0.1659 -0.3026
   75CHL1    H6 6666   4.645   4.032   3.593 -0.7094 -0.8256  0.5800
   75CHL1    C7 6667   4.655   4.168   3.771 -0.3833  0.4682  0.1923
   75CHL1   H7A 6668   4.650   4.080   3.839  0.2913  1.4010  1.4926
   75CHL1   H7B 6669   4.765   4.187   3.763 -0.2428 -0.2329  0.3473
   75CHL1    C8 6670   4.565   4.283   3.826  0.0154 -0.4759  0.3291
   75CHL1    H8 6671   4.469   4.239   3.857  0.1946 -1.8822 -0.9659
   75CHL1   C14 6672   4.639   4.338   3.947  0.1416 -0.0339 -0.1296
   75CHL1   H14 6673   4.730   4.387   3.907  0.3957 -1.3214 -1.2078
   75CHL1   C15 6674   4.688   4.239   4.052 -0.0861  0.6649 -0.0020
   75CHL1  H15A 6675   4.616   4.158   4.075  0.6048  0.3867  1.2476
   75CHL1  H15B 6676   4.782   4.190   4.018  0.3021  0.8884  0.7392
   75CHL1   C16 6677   4.703   4.318   4.180 -0.3259  0.4876 -0.0997
   75CHL1  H16A 6678   4.640   4.265   4.254  1.1704  1.6249  2.1051
   75CHL1  H16B 6679   4.803   4.321   4.230  1.6720 -1.1434 -3.6130
   75CHL1   C17 6680   4.659   4.460   4.143  0.2055  0.1596  0.0950
   75CHL1   H17 6681   4.752   4.503   4.101  0.6412 -0.1884  0.6905
   75CHL1   C13 6682   4.562   4.440   4.026  0.0756 -0.4961  0.0647
   75CHL1   C18 6683   4.419   4.387   4.064 -0.0393 -0.5900  0.0346
   75CHL1  H18A 6684   4.425   4.287   4.113 -2.8815 -1.1716 -0.6686
   75CHL1  H18B 6685   4.383   4.452   4.147  1.6340 -1.5606  1.6101
   75CHL1  H18C 6686   4.351   4.397   3.977  1.5694  2.3522 -1.0303
   75CHL1   C12 6687   4.545   4.562   3.928 -0.5357  0.6504 -0.3998
   75CHL1  H12A 6688   4.481   4.641   3.974 -0.2690  0.7983 -0.2833
   75CHL1  H12B 6689   4.648   4.602   3.915 -0.5255  2.0189  2.8754
   75CHL1   C11 6690   4.483   4.529   3.791 -0.5324 -0.0621 -0.1112
   75CHL1  H11A 6691   4.374   4.515   3.807 -0.4008  0.4490  1.3409
   75CHL1  H11B 6692   4.478   4.622   3.732 -2.8134  0.5838  0.9836
   75CHL1    C9 6693   4.538   4.398   3.723 -0.2234  0.3026 -0.5345
   75CHL1    H9 6694   4.638   4.432   3.687  0.9480 -0.9683  1.3418
   75CHL1   C10 6695   4.465   4.352   3.594 -0.2118  0.6696  0.3545
   75CHL1   C19 6696   4.313   4.359   3.612 -0.1470 -0.2752 -0.8252
   75CHL1  H19A 6697   4.282   4.309   3.706  1.1986  0.1441 -0.1381
   75CHL1  H19B 6698   4.262   4.457   3.620 -1.5704 -1.0503  0.0416
   75CHL1  H19C 6699   4.262   4.304   3.530  0.5520  0.6681 -1.9271
   75CHL1    C1 6700   4.505   4.445   3.469 -0.0434 -0.9616  0.4332
   75CHL1   H1A 6701   4.440   4.535   3.481 -0.0043 -0.9311  0.4167
   75CHL1   H1B 6702   4.611   4.479   3.463 -0.5223  0.4134 -1.0571
   75CHL1    C2 6703   4.460   4.388   3.340 -0.0595  0.0607  0.2076
   75CHL1   H2A 6704   4.496   4.460   3.263  1.9099  1.5615  2.4131
   75CHL1   H2B 6705   4.349   4.382   3.342  0.0167 -1.7563  1.5957
   75CHL1   C20 6706   4.612   4.555   4.259 -0.3655  0.4708  0.1383
   75CHL1   H20 6707   4.556   4.640   4.216 -2.6398 -1.1461 -0.2819
   75CHL1   C21 6708   4.751   4.600   4.315 -0.6493  0.3587  0.7807
   75CHL1  H21A 6709   4.728   4.655   4.409 -1.2372 -0.5321  1.1739
   75CHL1  H21B 6710   4.802   4.669   4.245 -0.5269 -0.1952  0.3190
   75CHL1  H21C 6711   4.823   4.516   4.330 -1.3330 -0.8517 -2.1616
   75CHL1   C22 6712   4.526   4.491   4.370  0.2891  0.1594  0.2196
   75CHL1  H22A 6713   4.431   4.454   4.328 -0.0021  2.2491 -1.0993
   75CHL1  H22B 6714   4.586   4.406   4.407 -0.3667 -0.6418 -0.5303
   75CHL1   C23 6715   4.494   4.584   4.487  0.1651  0.2839 -0.5854
   75CHL1  H23A 6716   4.580   4.608   4.554 -0.9104  3.0276 -0.0773
   75CHL1  H23B 6717   4.461   4.682   4.447  0.7077  0.9915  0.6530
   75CHL1   C24 6718   4.372   4.532   4.570  0.8851  0.4534  0.2263
   75CHL1  H24A 6719   4.292   4.509   4.496  1.4158  1.3897 -0.6788
   75CHL1  H24B 6720   4.400   4.437   4.619 -0.0856  1.1762  2.2703
   75CHL1   C25 6721   4.328   4.627   4.679 -0.2740  0.8554  0.4951
   75CHL1   H25 6722   4.306   4.728   4.639  3.3004  2.1038  1.3926
   75CHL1   C26 6723   4.205   4.576   4.753 -0.2697 -0.7401 -0.2044
   75CHL1  H26A 6724   4.244   4.495   4.818  1.2246  0.1083  0.0004
   75CHL1  H26B 6725   4.161   4.650   4.822  1.5976  0.2726 -0.0476
   75CHL1  H26C 6726   4.131   4.538   4.678  1.0237  0.5101 -2.2161
   75CHL1   C27 6727   4.444   4.643   4.778 -1.1261 -0.0660 -0.8035
   75CHL1  H27A 6728   4.511   4.722   4.739 -1.5631  1.0386  0.6069
   75CHL1  H27B 6729   4.409   4.665   4.881  3.3417  2.1191  0.4980
   75CHL1  H27C 6730   4.500   4.547   4.777  0.2272  0.6973 -0.4404
   76CHL1    C3 6731   2.349   0.073   3.407 -0.0889 -0.0864 -0.1352
   76CHL1    H3 6732   2.420   0.007   3.462 -0.7580 -1.0184 -0.3601
   76CHL1    O3 6733   2.401   0.130   3.287 -0.3553 -0.0123  0.4170
   76CHL1   H3' 6734   2.471   0.187   3.320 -0.8387  1.0131 -0.2593
   76CHL1    C4 6735   2.220  -0.001   3.366  0.4774  0.3473 -0.1950
   76CHL1   H4A 6736   2.150   0.073   3.323  1.3392  1.3399  0.0709
   76CHL1   H4B 6737   2.250  -0.078   3.291  2.4361  0.3212  0.5402
   76CHL1    C5 6738   2.153  -0.075   3.484 -0.0762 -0.3492  0.6620
   76CHL1    C6 6739   2.131  -0.205   3.483 -0.1935  0.4437 -0.4690
   76CHL1    H6 6740   2.149  -0.268   3.395 -0.1627 -0.8665  0.4523
   76CHL1    C7 6741   2.070  -0.289   3.590 -0.2006  0.5149 -0.1309
   76CHL1   H7A 6742   2.015  -0.381   3.561  1.7485 -1.3086  1.5541
   76CHL1   H7B 6743   2.155  -0.339   3.641  0.7790  3.1124  0.9798
   76CHL1    C8 6744   2.006  -0.200   3.694  0.3020 -0.7674  0.1160
   76CHL1    H8 6745   1.908  -0.158   3.663  1.0917  0.0760 -1.2917
   76CHL1   C14 6746   1.977  -0.281   3.822 -0.5177 -0.2435  0.9955
   76CHL1   H14 6747   2.082  -0.300   3.854 -0.2539  0.4182  0.5474
   76CHL1   C15 6748   1.915  -0.418   3.804  0.3506 -0.1154 -0.1321
   76CHL1  H15A 6749   1.826  -0.404   3.739  1.1331  1.4370 -0.9230
   76CHL1  H15B 6750   1.973  -0.504   3.766 -0.0696 -0.1010 -0.8231
   76CHL1   C16 6751   1.854  -0.450   3.947 -0.1127 -0.1113 -0.8427
   76CHL1  H16A 6752   1.743  -0.455   3.943 -0.1310 -0.4018 -0.0109
   76CHL1  H16B 6753   1.910  -0.535   3.992  0.8826  1.0305  0.1539
   76CHL1   C17 6754   1.880  -0.320   4.033 -0.4401 -0.5220  0.0349
   76CHL1   H17 6755   1.977  -0.342   4.083 -0.7191 -1.4589  0.1815
   76CHL1   C13 6756   1.898  -0.206   3.936 -0.2418  0.0832  0.0425
   76CHL1   C18 6757   1.746  -0.155   3.901  0.0006  0.0074  0.5461
   76CHL1  H18A 6758   1.671  -0.237   3.896 -1.6334  1.4735  0.1086
   76CHL1  H18B 6759   1.712  -0.073   3.967 -1.8755  1.3512 -1.9444
   76CHL1  H18C 6760   1.737  -0.113   3.799 -1.9234  1.4772  1.2719
   76CHL1   C12 6761   1.986  -0.088   3.978 -0.6398 -0.0364 -0.5361
   76CHL1  H12A 6762   1.944  -0.028   4.062 -1.7946 -1.2167 -0.2268
   76CHL1  H12B 6763   2.081  -0.132   4.016 -0.9358 -0.3947 -0.1899
   76CHL1   C11 6764   2.021   0.009   3.859  0.3741 -0.4718  0.8132
   76CHL1  H11A 6765   1.926   0.059   3.831  0.0969 -1.5869 -0.3465
   76CHL1  H11B 6766   2.102   0.078   3.893 -0.4227  1.0401 -0.2657
   76CHL1    C9 6767   2.079  -0.065   3.728  0.1941  0.3077  0.1062
   76CHL1    H9 6768   2.176  -0.094   3.775  0.0241  1.7328  1.4274
   76CHL1   C10 6769   2.114   0.015   3.600  0.5673 -1.6457 -1.2019
   76CHL1   C19 6770   1.989   0.100   3.561 -0.1446 -0.0402 -0.7638
   76CHL1  H19A 6771   1.970   0.166   3.648  0.5533  0.6386 -1.1162
   76CHL1  H19B 6772   2.000   0.169   3.475 -3.1866 -0.6029 -1.7225
   76CHL1  H19C 6773   1.903   0.032   3.547  0.4712 -1.1342  0.5025
   76CHL1    C1 6774   2.238   0.112   3.636  1.1044  1.0341  0.0065
   76CHL1   H1A 6775   2.201   0.194   3.701 -1.7645 -1.1674  1.3935
   76CHL1   H1B 6776   2.307   0.041   3.688 -2.6778 -3.4567 -0.4170
   76CHL1    C2 6777   2.309   0.178   3.515  0.7480  0.0050 -0.0106
   76CHL1   H2A 6778   2.401   0.226   3.557  0.2207  2.6287 -1.6346
   76CHL1   H2B 6779   2.232   0.252   3.485  1.3626  0.6133 -0.1171
   76CHL1   C20 6780   1.776  -0.304   4.147  0.1790  0.6020  0.2494
   76CHL1   H20 6781   1.674  -0.297   4.103  0.7140  0.5714 -1.0540
   76CHL1   C21 6782   1.798  -0.179   4.234  0.0680  0.3272  0.0766
   76CHL1  H21A 6783   1.744  -0.179   4.332 -0.0575 -1.7445  0.0594
   76CHL1  H21B 6784   1.779  -0.087   4.175  0.4632  1.3935  1.5492
   76CHL1  H21C 6785   1.907  -0.190   4.254 -0.2112 -0.2711  1.4204
   76CHL1   C22 6786   1.777  -0.434   4.238 -0.0233 -0.6757  0.4808
   76CHL1  H22A 6787   1.688  -0.424   4.305  0.4290  1.5412  0.8350
   76CHL1  H22B 6788   1.762  -0.532   4.189  1.6572 -0.3279 -0.8103
   76CHL1   C23 6789   1.896  -0.454   4.338  0.3588 -0.2948 -0.0345
   76CHL1  H23A 6790   1.986  -0.478   4.277  0.0314 -1.1249 -0.2124
   76CHL1  H23B 6791   1.909  -0.356   4.387  2.8753 -0.3553 -0.4597
   76CHL1   C24 6792   1.869  -0.568   4.428 -0.0031  0.2506 -0.0546
   76CHL1  H24A 6793   1.781  -0.545   4.491 -2.3483 -3.1462 -1.7869
   76CHL1  H24B 6794   1.854  -0.660   4.369  1.3041  1.0065 -1.6515
   76CHL1   C25 6795   1.996  -0.600   4.520 -0.0737  0.3092 -0.4969
   76CHL1   H25 6796   2.070  -0.619   4.439 -1.0304 -0.6681 -1.1743
   76CHL1   C26 6797   2.057  -0.481   4.599 -0.6217  0.1905 -0.6698
   76CHL1  H26A 6798   2.080  -0.409   4.518 -0.0581 -2.1365 -2.7178
   76CHL1  H26B 6799   1.987  -0.425   4.665  0.5030  0.6896  0.1163
   76CHL1  H26C 6800   2.147  -0.497   4.662  0.0394  1.1710 -1.3422
   76CHL1   C27 6801   1.963  -0.716   4.617 -0.2170 -0.5654  0.7036
   76CHL1  H27A 6802   1.877  -0.682   4.679 -1.7217  1.3389 -2.1897
   76CHL1  H27B 6803   1.934  -0.804   4.554 -0.4783  1.3062 -1.9804
   76CHL1  H27C 6804   2.050  -0.740   4.681  0.5756  0.3858  0.0173
   77SOPE     N 6805   0.853   0.319   6.992 -0.0441 -0.4542  0.1928
   77SOPE   HN1 6806   0.851   0.410   7.041  1.7578  0.9542 -2.1539
   77SOPE   HN2 6807   0.905   0.321   6.902  0.8099 -0.9037  0.6649
   77SOPE   HN3 6808   0.754   0.296   6.966  0.1491  0.1946 -1.2174
   77SOPE   C12 6809   0.926   0.216   7.080  0.1442  0.5241  0.1835
   77SOPE  H12A 6810   0.878   0.227   7.180 -0.9384 -1.3140 -0.0871
   77SOPE  H12B 6811   1.028   0.255   7.096 -0.5854  2.9757 -0.6706
   77SOPE   C11 6812   0.904   0.071   7.022 -0.1291  0.0418  0.3571
   77SOPE  H11A 6813   0.987   0.009   7.061 -0.8927 -1.3659 -0.1854
   77SOPE  H11B 6814   0.897   0.085   6.912  0.2469 -1.7703  0.0781
   77SOPE     P 6815   0.748  -0.132   7.058 -0.2326 -0.1095  0.1858
   77SOPE   O13 6816   0.607  -0.148   7.096 -0.6737  0.2112 -0.5202
   77SOPE   O14 6817   0.851  -0.198   7.138  0.0547 -0.2613  0.1727
   77SOPE   O12 6818   0.783   0.017   7.069 -0.1703 -0.3486  0.3141
   77SOPE   O11 6819   0.763  -0.176   6.905  0.3121  0.3308 -0.1928
   77SOPE    C1 6820   0.704  -0.105   6.804  0.7047  0.4393  0.5750
   77SOPE    HA 6821   0.735   0.001   6.811  2.9482 -0.1888  0.8810
   77SOPE    HB 6822   0.594  -0.107   6.819  0.3565 -0.9692 -1.6474
   77SOPE    C2 6823   0.743  -0.154   6.657  0.4856  0.2390 -0.5652
   77SOPE    HS 6824   0.701  -0.257   6.658 -0.0123  0.4204  1.0393
   77SOPE   O21 6825   0.889  -0.166   6.631  0.4210  0.2277  0.3433
   77SOPE   C21 6826   0.968  -0.064   6.662  0.2575 -0.1565 -0.3409
   77SOPE   O22 6827   0.929   0.050   6.686 -0.1897  0.6021  0.2043
   77SOPE   C22 6828   1.117  -0.109   6.659  0.5428 -0.0807  0.3953
   77SOPE   H2R 6829   1.134  -0.155   6.560  1.3712 -1.0651  0.9781
   77SOPE   H2S 6830   1.131  -0.182   6.741  0.7179 -0.8242 -0.2927
   77SOPE    C3 6831   0.665  -0.079   6.549 -0.1651 -0.1137 -0.7585
   77SOPE    HX 6832   0.688   0.030   6.544  1.3068 -0.3902 -0.3945
   77SOPE    HY 6833   0.554  -0.083   6.559 -0.3627  1.3074 -1.9725
   77SOPE   O31 6834   0.696  -0.128   6.423 -0.4418  0.3104 -0.1949
   77SOPE   C31 6835   0.640  -0.247   6.378 -0.8490 -0.1658  0.5428
   77SOPE   O32 6836   0.559  -0.309   6.438 -0.0771  1.0317 -0.2351
   77SOPE   C32 6837   0.713  -0.293   6.250 -0.0027 -0.8214 -0.5123
   77SOPE   H2X 6838   0.654  -0.381   6.218 -1.0895 -0.5762  0.7572
   77SOPE   H2Y 6839   0.817  -0.318   6.281  0.7833  1.8162 -0.7514
   77SOPE   C23 6840   1.206  -0.001   6.686  0.1007 -0.3168 -0.1671
   77SOPE   H3R 6841   1.191   0.040   6.788  0.9657  1.4887 -0.7232
   77SOPE   H3S 6842   1.189   0.076   6.607 -2.8532 -0.6718  0.0098
   77SOPE   C24 6843   1.355  -0.049   6.678  0.8010 -0.1071 -0.4826
   77SOPE   H4R 6844   1.379  -0.093   6.777  0.8969  0.5709 -0.1933
   77SOPE   H4S 6845   1.368  -0.130   6.603  2.0693  0.2335 -0.6595
   77SOPE   C25 6846   1.459   0.057   6.659 -0.1475  0.3459  0.9662
   77SOPE   H5R 6847   1.453   0.118   6.751 -1.3277  3.3637 -0.9604
   77SOPE   H5S 6848   1.559   0.008   6.658 -0.3734 -0.2456  3.0653
   77SOPE   C26 6849   1.448   0.144   6.538  0.0055  0.4779  0.1964
   77SOPE   H6R 6850   1.352   0.200   6.531  0.4170  1.1974  0.2622
   77SOPE   H6S 6851   1.534   0.214   6.545 -0.0544  0.8833 -2.1408
   77SOPE   C27 6852   1.448   0.051   6.417  0.3847 -0.3177  0.5814
   77SOPE   H7R 6853   1.506  -0.042   6.436 -0.6623 -0.9515  0.7359
   77SOPE   H7S 6854   1.347   0.008   6.406  0.3326  0.2657 -1.8357
   77SOPE   C28 6855   1.492   0.108   6.285  0.0311 -0.3439  0.2492
   77SOPE   H8R 6856   1.481   0.032   6.203  2.1230  2.2827 -2.6890
   77SOPE   H8S 6857   1.412   0.183   6.265  0.2325  0.5017  2.4049
   77SOPE   C29 6858   1.628   0.191   6.271  0.2037 -0.0332  0.1807
   77SOPE   H91 6859   1.628   0.298   6.300  2.2839 -0.3124  1.3991
   77SOPE  C210 6860   1.740   0.155   6.208  0.3499  0.4818 -0.1357
   77SOPE  H101 6861   1.825   0.224   6.200  0.4207  0.3379 -0.6798
   77SOPE  C211 6862   1.755   0.017   6.136  0.2089  0.7100  0.2665
   77SOPE  H11R 6863   1.720  -0.071   6.195 -0.2670 -0.2382 -1.3621
   77SOPE  H11S 6864   1.865   0.014   6.120  0.1174  1.6358 -0.6643
   77SOPE  C212 6865   1.694  -0.003   5.998  0.4088  0.0215 -0.1294
   77SOPE  H12R 6866   1.587  -0.020   6.021  0.0279  0.8830 -1.1759
   77SOPE  H12S 6867   1.732  -0.098   5.956 -0.4451 -0.3430 -0.0999
   77SOPE  C213 6868   1.722   0.110   5.903  0.8197 -0.0438  0.8457
   77SOPE  H13R 6869   1.832   0.126   5.895  1.0041 -1.1303  0.9678
   77SOPE  H13S 6870   1.673   0.204   5.933 -1.7142  0.1100 -3.0881
   77SOPE  C214 6871   1.656   0.080   5.764 -0.0850  0.1660  0.1719
   77SOPE  H14R 6872   1.670  -0.027   5.736  1.8841  0.8322 -1.6701
   77SOPE  H14S 6873   1.708   0.136   5.683  1.0045  0.0357  0.7675
   77SOPE  C215 6874   1.506   0.118   5.756 -0.8995  0.2017 -0.0145
   77SOPE  H15R 6875   1.488   0.226   5.774 -1.6912 -0.0056  0.4492
   77SOPE  H15S 6876   1.440   0.064   5.826 -2.2813  0.1681 -1.2906
   77SOPE  C216 6877   1.444   0.091   5.619 -0.9030  0.1218 -0.2348
   77SOPE  H16R 6878   1.380   0.003   5.639  0.2307 -0.6435  0.1099
   77SOPE  H16S 6879   1.521   0.061   5.544 -0.6068  1.8734 -0.6851
   77SOPE  C217 6880   1.365   0.207   5.570 -0.5589 -0.8329  0.6353
   77SOPE  H17R 6881   1.440   0.287   5.556 -0.6086 -0.9229 -0.2297
   77SOPE  H17S 6882   1.297   0.250   5.646  1.3628  0.1644  1.8535
   77SOPE  C218 6883   1.291   0.189   5.438 -0.4762  0.3933 -0.0048
   77SOPE  H18R 6884   1.215   0.109   5.451  0.0235 -0.4203 -1.8548
   77SOPE  H18S 6885   1.358   0.146   5.361 -0.0076 -2.9089  2.0306
   77SOPE  H18T 6886   1.245   0.281   5.395  0.8783  1.6944  1.1995
   77SOPE   C33 6887   0.730  -0.191   6.133 -0.2757  0.5997 -0.2505
   77SOPE   H3X 6888   0.796  -0.238   6.057  0.5050 -1.0226  1.3335
   77SOPE   H3Y 6889   0.792  -0.108   6.172  1.7374 -1.0372  0.2505
   77SOPE   C34 6890   0.595  -0.164   6.058 -0.4820  0.5664  0.2703
   77SOPE   H4X 6891   0.516  -0.161   6.136 -1.1849  1.6577 -0.4685
   77SOPE   H4Y 6892   0.588  -0.248   5.986  0.2132  0.7732 -0.0483
   77SOPE   C35 6893   0.593  -0.026   5.986  0.2092  0.1692 -0.0946
   77SOPE   H5X 6894   0.657  -0.020   5.895  1.7877  1.4309  1.0457
   77SOPE   H5Y 6895   0.639   0.046   6.057  1.0306  0.3888 -0.8432
   77SOPE   C36 6896   0.451   0.015   5.952 -0.1971 -0.1396  0.2290
   77SOPE   H6X 6897   0.408   0.009   6.054 -0.2711 -2.1549  0.1140
   77SOPE   H6Y 6898   0.391  -0.045   5.880  0.5867  0.2182 -0.7601
   77SOPE   C37 6899   0.441   0.164   5.903  0.3057  0.0950  0.2532
   77SOPE   H7X 6900   0.504   0.239   5.956  1.4710 -1.9043  1.8071
   77SOPE   H7Y 6901   0.338   0.198   5.928  1.2483  3.0122  0.5353
   77SOPE   C38 6902   0.464   0.176   5.752  0.3297  0.6668 -0.0590
   77SOPE   H8X 6903   0.418   0.090   5.699 -2.1606  2.4825 -1.0408
   77SOPE   H8Y 6904   0.571   0.183   5.724  0.4859 -0.6497  0.1413
   77SOPE   C39 6905   0.398   0.292   5.686  0.1137 -0.1739  0.4136
   77SOPE   H9X 6906   0.460   0.382   5.706  2.1707 -1.3858 -0.2023
   77SOPE   H9Y 6907   0.302   0.305   5.741  0.8698  1.2270  1.4652
   77SOPE  C310 6908   0.365   0.277   5.536  0.2804 -0.4544  0.0796
   77SOPE  H10X 6909   0.302   0.188   5.517 -0.5467  0.1662 -0.1247
   77SOPE  H10Y 6910   0.455   0.271   5.471 -0.1911  1.2337 -0.7814
   77SOPE  C311 6911   0.296   0.408   5.491  0.3555 -0.6231  0.0888
   77SOPE  H11X 6912   0.362   0.494   5.518  0.7427  0.1451 -2.9244
   77SOPE  H11Y 6913   0.197   0.428   5.538  1.0447  2.2564  0.5035
   77SOPE  C312 6914   0.278   0.417   5.335 -0.8266  0.0925  0.1625
   77SOPE  H12X 6915   0.189   0.475   5.303 -0.2642  0.0158 -1.6732
   77SOPE  H12Y 6916   0.262   0.317   5.289 -1.1608  1.3077 -2.5051
   77SOPE  C313 6917   0.401   0.478   5.267 -0.1556  0.4088  0.0584
   77SOPE  H13X 6918   0.484   0.413   5.301 -0.6288 -0.5213 -0.5252
   77SOPE  H13Y 6919   0.421   0.585   5.288  1.0387  0.5783 -1.7605
   77SOPE  C314 6920   0.393   0.466   5.113  0.3408 -0.1542  0.0183
   77SOPE  H14X 6921   0.319   0.536   5.068  1.6458  0.3632 -1.4351
   77SOPE  H14Y 6922   0.347   0.372   5.075  0.1201  0.0749 -0.2907
   77SOPE  C315 6923   0.519   0.497   5.041 -0.7584 -0.1785  0.8910
   77SOPE  H15X 6924   0.592   0.420   5.075 -0.1554  0.5313  1.2378
   77SOPE  H15Y 6925   0.554   0.592   5.087 -1.1969  0.7241 -0.5862
   77SOPE  C316 6926   0.518   0.507   4.886  1.0257 -0.0431 -0.1077
   77SOPE  H16X 6927   0.489   0.412   4.836  0.4010 -0.2718  0.6653
   77SOPE  H16Y 6928   0.618   0.537   4.849  1.6963 -2.3352 -0.2942
   77SOPE  C317 6929   0.420   0.607   4.820 -0.4828  0.2369 -0.7332
   77SOPE  H17X 6930   0.453   0.704   4.865  2.5153 -1.3525  0.8269
   77SOPE  H17Y 6931   0.321   0.581   4.862  0.7472 -0.6972  1.8408
   77SOPE  C318 6932   0.427   0.621   4.660  0.2147  0.4278 -0.3134
   77SOPE  H18X 6933   0.458   0.524   4.615  1.5693 -0.6793  2.7109
   77SOPE  H18Y 6934   0.510   0.692   4.640  0.3095 -0.0948 -1.9156
   77SOPE  H18Z 6935   0.329   0.658   4.623 -0.2298  1.5377  1.8242
   78SOPE     N 6936   0.200   5.675   7.029 -0.2095  0.1379  0.3587
   78SOPE   HN1 6937   0.148   5.672   7.119  0.3813 -0.8516  0.6863
   78SOPE   HN2 6938   0.296   5.635   7.032 -0.6021 -0.9884 -0.9790
   78SOPE   HN3 6939   0.221   5.776   7.017  0.2254  0.2022  1.5801
   78SOPE   C12 6940   0.125   5.645   6.902 -0.1811 -0.1406 -0.5474
   78SOPE  H12A 6941   0.035   5.710   6.907 -0.5949 -0.8109  1.7304
   78SOPE  H12B 6942   0.096   5.537   6.903  0.3194 -0.2804  0.7227
   78SOPE   C11 6943   0.218   5.668   6.780  0.0378 -0.4417 -0.1806
   78SOPE  H11A 6944   0.227   5.778   6.768  3.4414 -0.8255 -2.7024
   78SOPE  H11B 6945   0.167   5.634   6.688  0.4022 -1.2733 -0.0867
   78SOPE     P 6946   0.384   5.473   6.744 -0.0629  0.0925  0.3724
   78SOPE   O13 6947   0.280   5.374   6.787  0.1661  0.9114 -0.0529
   78SOPE   O14 6948   0.526   5.448   6.788 -0.0645  0.0312  0.0422
   78SOPE   O12 6949   0.350   5.622   6.788 -0.1408 -0.4743  0.6093
   78SOPE   O11 6950   0.376   5.490   6.592 -0.2228  0.4875 -0.0046
   78SOPE    C1 6951   0.463   5.584   6.526  0.7183  0.6088  0.2352
   78SOPE    HA 6952   0.511   5.524   6.446 -0.0977 -0.7285  0.7029
   78SOPE    HB 6953   0.549   5.611   6.589  1.3405  1.6243 -1.0042
   78SOPE    C2 6954   0.405   5.711   6.472  0.1515  0.0113  0.3809
   78SOPE    HS 6955   0.393   5.776   6.561 -0.2819 -1.1187  1.1652
   78SOPE   O21 6956   0.274   5.685   6.414 -0.0951  0.3265  0.0034
   78SOPE   C21 6957   0.194   5.788   6.412  0.3561  0.0121  0.3270
   78SOPE   O22 6958   0.208   5.891   6.477  0.4960  0.0990 -0.2723
   78SOPE   C22 6959   0.070   5.748   6.334 -0.0697  0.8892 -0.8342
   78SOPE   H2R 6960  -0.004   5.819   6.376 -0.9908  0.5430 -1.8254
   78SOPE   H2S 6961   0.043   5.645   6.364  3.8164  0.1975  0.9730
   78SOPE    C3 6962   0.496   5.778   6.364 -0.2201 -0.0646  0.1057
   78SOPE    HX 6963   0.592   5.775   6.419  0.6242 -1.2107 -1.3437
   78SOPE    HY 6964   0.458   5.880   6.341  0.4053 -0.1131 -1.1834
   78SOPE   O31 6965   0.500   5.692   6.247 -0.1046  0.1927 -0.2953
   78SOPE   C31 6966   0.439   5.732   6.132 -0.4378  0.3368 -0.6027
   78SOPE   O32 6967   0.394   5.844   6.119  0.4362  0.1601 -0.4133
   78SOPE   C32 6968   0.443   5.624   6.029 -0.4263  0.0151  0.3719
   78SOPE   H2X 6969   0.366   5.548   6.055  0.9262 -2.1531 -1.6161
   78SOPE   H2Y 6970   0.537   5.565   6.030 -0.2473  0.1351 -2.6941
   78SOPE   C23 6971   0.089   5.770   6.181 -0.0532 -0.0816 -0.0631
   78SOPE   H3R 6972   0.161   5.692   6.149 -0.1027  0.3560 -1.2877
   78SOPE   H3S 6973   0.129   5.872   6.164  0.2114 -0.4392 -1.7181
   78SOPE   C24 6974  -0.038   5.772   6.102 -0.8671 -0.0075 -0.0852
   78SOPE   H4R 6975  -0.084   5.671   6.097 -1.0546  0.0682  0.1163
   78SOPE   H4S 6976  -0.113   5.836   6.153  0.1148 -0.1060  1.5459
   78SOPE   C25 6977  -0.005   5.833   5.969 -0.0156 -0.6860 -0.2804
   78SOPE   H5R 6978  -0.107   5.862   5.935  0.3087 -0.8790 -1.4354
   78SOPE   H5S 6979   0.061   5.922   5.973 -1.1735  0.1744  0.5368
   78SOPE   C26 6980   0.045   5.717   5.883  0.4662  0.2668  0.0133
   78SOPE   H6R 6981   0.136   5.662   5.912  0.3343 -2.2729 -3.6848
   78SOPE   H6S 6982  -0.035   5.640   5.878  0.2168  0.6035 -2.3858
   78SOPE   C27 6983   0.074   5.743   5.735 -0.2365 -0.1180 -0.2559
   78SOPE   H7R 6984   0.174   5.791   5.727 -0.1523 -0.1354  0.6030
   78SOPE   H7S 6985   0.094   5.644   5.688 -3.0308 -0.6120 -0.5575
   78SOPE   C28 6986  -0.034   5.828   5.659  0.0686 -0.4587 -0.4867
   78SOPE   H8R 6987  -0.134   5.779   5.660 -0.7628  1.1192  1.1530
   78SOPE   H8S 6988  -0.039   5.929   5.706  2.6825 -1.1028  1.3712
   78SOPE   C29 6989   0.003   5.839   5.513 -0.4957  0.3790 -1.4723
   78SOPE   H91 6990   0.044   5.938   5.488  1.3042 -0.4951 -2.1545
   78SOPE  C210 6991  -0.003   5.737   5.423  0.2926  0.3618 -0.1606
   78SOPE  H101 6992   0.021   5.751   5.316 -0.3829  0.5228 -0.2970
   78SOPE  C211 6993  -0.067   5.598   5.452 -0.3083  0.2671  0.2179
   78SOPE  H11R 6994  -0.154   5.619   5.517 -1.4243 -0.8883 -0.8495
   78SOPE  H11S 6995  -0.005   5.529   5.513 -1.9893 -1.4307  0.0826
   78SOPE  C212 6996  -0.106   5.524   5.327  0.6212 -0.2952  0.3432
   78SOPE  H12R 6997  -0.173   5.591   5.268  0.8943  1.2676  1.7358
   78SOPE  H12S 6998  -0.167   5.433   5.346 -0.7212  0.7948  1.4872
   78SOPE  C213 6999   0.014   5.480   5.244  0.3910  0.2065  0.0194
   78SOPE  H13R 7000   0.090   5.422   5.300  0.7024  0.0242 -0.5819
   78SOPE  H13S 7001   0.058   5.573   5.201 -0.9585  1.4723  1.2533
   78SOPE  C214 7002  -0.030   5.385   5.132  0.0252 -0.3396  0.4129
   78SOPE  H14R 7003  -0.125   5.414   5.083  1.2669 -0.8736 -2.5362
   78SOPE  H14S 7004  -0.047   5.284   5.176 -3.8734  0.7538  1.7524
   78SOPE  C215 7005   0.068   5.365   5.020 -0.3658 -0.1793  0.3929
   78SOPE  H15R 7006   0.169   5.343   5.060  0.0908 -0.4324 -0.8510
   78SOPE  H15S 7007   0.083   5.450   4.949  1.6560 -0.1868  0.7464
   78SOPE  C216 7008   0.031   5.246   4.925 -0.1772  0.9074  0.5473
   78SOPE  H16R 7009  -0.068   5.265   4.879 -1.2466 -1.4244  1.7153
   78SOPE  H16S 7010   0.015   5.163   4.997 -0.4906  0.4850 -0.0057
   78SOPE  C217 7011   0.142   5.220   4.818  0.4312  0.6827 -0.1778
   78SOPE  H17R 7012   0.243   5.218   4.864  0.4515  2.1544 -0.1174
   78SOPE  H17S 7013   0.134   5.297   4.739 -2.6910  1.7546  1.0179
   78SOPE  C218 7014   0.125   5.084   4.750 -0.2461 -0.3024  0.4771
   78SOPE  H18R 7015   0.145   4.995   4.814  1.6142 -1.8183 -2.0149
   78SOPE  H18S 7016   0.189   5.076   4.660 -1.6414 -1.9056 -0.4274
   78SOPE  H18T 7017   0.020   5.076   4.715  0.1705  1.0282 -1.1870
   78SOPE   C33 7018   0.430   5.685   5.882  0.0713 -0.5190 -0.3365
   78SOPE   H3X 7019   0.512   5.759   5.868  0.3810 -0.8857 -0.4977
   78SOPE   H3Y 7020   0.330   5.731   5.874  0.6277  0.4004 -2.7107
   78SOPE   C34 7021   0.424   5.576   5.770 -0.2385 -0.4427 -0.0510
   78SOPE   H4X 7022   0.322   5.533   5.773  0.0436 -1.1032  0.2913
   78SOPE   H4Y 7023   0.497   5.497   5.796  0.4570  0.1603 -0.1340
   78SOPE   C35 7024   0.472   5.625   5.632  0.0093 -0.0590 -0.1251
   78SOPE   H5X 7025   0.578   5.656   5.646  0.0755 -0.7993  1.1823
   78SOPE   H5Y 7026   0.424   5.719   5.598  1.1909  0.9825  0.9582
   78SOPE   C36 7027   0.459   5.518   5.525  0.4394  0.0712  0.9424
   78SOPE   H6X 7028   0.358   5.473   5.516  0.5429  0.0091 -0.0578
   78SOPE   H6Y 7029   0.539   5.441   5.522 -1.0285 -1.5439 -1.8484
   78SOPE   C37 7030   0.464   5.581   5.380 -0.7278  0.3972  0.6231
   78SOPE   H7X 7031   0.491   5.500   5.309 -0.0735 -1.0291  2.4210
   78SOPE   H7Y 7032   0.553   5.648   5.386  0.2400 -0.8519  0.6361
   78SOPE   C38 7033   0.334   5.646   5.333 -0.1677  0.4253  0.0850
   78SOPE   H8X 7034   0.292   5.712   5.411 -1.7594  1.2632 -1.3948
   78SOPE   H8Y 7035   0.269   5.556   5.325  0.0589  0.0309  2.2029
   78SOPE   C39 7036   0.347   5.724   5.201  0.4502  0.3491  0.2447
   78SOPE   H9X 7037   0.401   5.817   5.230  1.9430 -1.0451  2.2301
   78SOPE   H9Y 7038   0.248   5.752   5.159 -0.0500 -3.3293 -1.4350
   78SOPE  C310 7039   0.426   5.655   5.082  0.6654 -0.4969 -0.7480
   78SOPE  H10X 7040   0.524   5.622   5.124  1.7048  1.4692 -1.5123
   78SOPE  H10Y 7041   0.458   5.736   5.014  0.9151  0.2965  0.2880
   78SOPE  C311 7042   0.367   5.536   5.021  0.3284 -0.2355 -0.6077
   78SOPE  H11X 7043   0.274   5.564   4.966  0.0796 -0.5908 -0.3695
   78SOPE  H11Y 7044   0.342   5.467   5.104  0.2583  1.3532  0.7643
   78SOPE  C312 7045   0.464   5.457   4.936 -0.4889  0.1490  0.8886
   78SOPE  H12X 7046   0.418   5.357   4.921  0.9022 -1.0095  3.6511
   78SOPE  H12Y 7047   0.547   5.426   5.003 -2.5292 -3.1998  2.1370
   78SOPE  C313 7048   0.512   5.524   4.808  0.5070  0.5122 -0.7396
   78SOPE  H13X 7049   0.557   5.622   4.835 -0.6086  0.9934 -0.5377
   78SOPE  H13Y 7050   0.418   5.550   4.755 -0.3959 -0.1104  0.4902
   78SOPE  C314 7051   0.598   5.456   4.708 -1.0255  0.1628  0.1135
   78SOPE  H14X 7052   0.624   5.519   4.621 -0.8491 -0.9254 -0.6381
   78SOPE  H14Y 7053   0.545   5.366   4.670  0.6720 -0.9476  0.2504
   78SOPE  C315 7054   0.736   5.426   4.770 -0.0099 -0.3748 -0.1691
   78SOPE  H15X 7055   0.723   5.347   4.847 -0.2448  0.1816  0.3729
   78SOPE  H15Y 7056   0.765   5.515   4.829 -1.7996  0.0093  0.2010
   78SOPE  C316 7057   0.842   5.381   4.668  0.2071 -0.7501 -0.1091
   78SOPE  H16X 7058   0.848   5.457   4.588  1.1792  0.4760  1.0815
   78SOPE  H16Y 7059   0.818   5.284   4.619  0.9056 -1.4509  0.8922
   78SOPE  C317 7060   0.981   5.370   4.730 -0.0205 -0.6133 -0.0149
   78SOPE  H17X 7061   1.002   5.475   4.759 -1.5208 -0.9378  2.5339
   78SOPE  H17Y 7062   1.056   5.349   4.651  0.0592  4.0424 -1.4833
   78SOPE  C318 7063   0.988   5.277   4.847  0.0633  0.4496 -0.2029
   78SOPE  H18X 7064   1.090   5.283   4.891 -0.2969  3.9973  0.4137
   78SOPE  H18Y 7065   0.970   5.171   4.818  0.4473  0.0485  0.9530
   78SOPE  H18Z 7066   0.917   5.289   4.931 -1.4183  2.0789 -1.6247
   79SOPE     N 7067   2.745   2.782   7.303 -0.3608 -0.4046 -0.1379
   79SOPE   HN1 7068   2.796   2.692   7.295  0.7230 -0.0747  2.2708
   79SOPE   HN2 7069   2.646   2.779   7.335 -1.3952 -0.5078 -3.0499
   79SOPE   HN3 7070   2.734   2.811   7.203 -0.3200 -1.4896 -0.4706
   79SOPE   C12 7071   2.832   2.884   7.378  0.2412  0.3824  0.0256
   79SOPE  H12A 7072   2.886   2.825   7.457 -0.4796 -0.3461 -0.0138
   79SOPE  H12B 7073   2.773   2.972   7.411 -0.4846 -0.0024 -0.2315
   79SOPE   C11 7074   2.934   2.940   7.278  0.6531  0.4522 -0.6245
   79SOPE  H11A 7075   2.986   2.860   7.222  0.1470  0.0563 -0.5329
   79SOPE  H11B 7076   3.006   2.997   7.341  1.4560 -1.3649  0.1631
   79SOPE     P 7077   2.963   3.102   7.085 -0.1263  0.0022  0.1239
   79SOPE   O13 7078   3.053   3.006   7.022 -0.1071 -0.6381 -0.1873
   79SOPE   O14 7079   3.026   3.222   7.141  0.5497  0.3528  0.4766
   79SOPE   O12 7080   2.875   3.035   7.195 -0.3704 -0.0727 -0.7539
   79SOPE   O11 7081   2.855   3.146   6.973  0.7584  0.0365 -0.4227
   79SOPE    C1 7082   2.769   3.047   6.909 -0.7762 -0.1798 -0.1254
   79SOPE    HA 7083   2.665   3.077   6.934 -0.5168  0.7225 -0.0880
   79SOPE    HB 7084   2.784   2.940   6.933 -0.2210 -1.1282 -4.0227
   79SOPE    C2 7085   2.803   3.055   6.757 -0.1177  0.6013  0.2177
   79SOPE    HS 7086   2.913   3.040   6.754 -0.3186 -0.7506 -1.0759
   79SOPE   O21 7087   2.769   3.189   6.718  0.6354  0.0018  1.3152
   79SOPE   C21 7088   2.837   3.247   6.615  0.0154  0.0324  0.4817
   79SOPE   O22 7089   2.935   3.191   6.563 -0.3830 -0.0542  0.4125
   79SOPE   C22 7090   2.766   3.372   6.566  0.4156 -0.5647  0.2334
   79SOPE   H2R 7091   2.834   3.459   6.583  0.4485 -0.3934 -0.7146
   79SOPE   H2S 7092   2.672   3.393   6.621 -0.2095 -1.9299 -0.2839
   79SOPE    C3 7093   2.717   2.951   6.678 -0.0707 -0.1626  0.2933
   79SOPE    HX 7094   2.612   2.963   6.712 -0.1886 -0.3378 -0.0144
   79SOPE    HY 7095   2.761   2.854   6.710  2.4520  1.3376  1.7794
   79SOPE   O31 7096   2.724   2.959   6.536  0.5177  0.3765 -0.5963
   79SOPE   C31 7097   2.830   2.906   6.480 -0.3897  0.2624  0.1509
   79SOPE   O32 7098   2.925   2.853   6.531 -0.1499 -0.0239 -0.3234
   79SOPE   C32 7099   2.810   2.900   6.321 -0.4445 -0.0787 -0.1042
   79SOPE   H2X 7100   2.706   2.928   6.291  0.9578  3.3059 -2.5039
   79SOPE   H2Y 7101   2.831   2.792   6.306  0.6551 -0.0148  0.9049
   79SOPE   C23 7102   2.713   3.370   6.421  0.0905 -0.9707 -0.1239
   79SOPE   H3R 7103   2.786   3.354   6.339  0.6517  1.3223 -0.1651
   79SOPE   H3S 7104   2.673   3.473   6.411  0.9351 -0.4310  1.5726
   79SOPE   C24 7105   2.594   3.276   6.395  0.2111 -0.1921  0.1830
   79SOPE   H4R 7106   2.624   3.172   6.369  0.7060 -0.6293  2.2584
   79SOPE   H4S 7107   2.535   3.274   6.490 -0.6679  2.3063 -0.2251
   79SOPE   C25 7108   2.507   3.340   6.284  0.0027 -0.5616 -1.4734
   79SOPE   H5R 7109   2.407   3.293   6.284  0.6914 -2.1916 -3.4397
   79SOPE   H5S 7110   2.491   3.448   6.305  2.0282 -0.1105 -1.9652
   79SOPE   C26 7111   2.567   3.314   6.136 -0.1965  0.0077 -0.6240
   79SOPE   H6R 7112   2.668   3.360   6.134  0.0104 -0.3491  0.5683
   79SOPE   H6S 7113   2.564   3.204   6.122  0.6975 -0.3573  1.6287
   79SOPE   C27 7114   2.480   3.372   6.027  0.0776  0.1584 -0.6038
   79SOPE   H7R 7115   2.386   3.315   6.019 -0.2911  0.8595 -1.4809
   79SOPE   H7S 7116   2.454   3.476   6.056 -1.5404 -1.1731  3.4144
   79SOPE   C28 7117   2.540   3.356   5.887  1.2153 -0.6932  0.2006
   79SOPE   H8R 7118   2.578   3.254   5.866 -0.5936 -1.1921 -0.9328
   79SOPE   H8S 7119   2.462   3.357   5.808  1.1924 -0.9012  0.2187
   79SOPE   C29 7120   2.654   3.454   5.858  0.2635 -0.0854  0.3307
   79SOPE   H91 7121   2.746   3.414   5.903 -0.1236 -0.6749  0.6108
   79SOPE  C210 7122   2.659   3.557   5.772 -0.8458  0.0377  0.1719
   79SOPE  H101 7123   2.753   3.612   5.759 -0.5096 -0.0753  1.9657
   79SOPE  C211 7124   2.535   3.602   5.696  0.3663  0.5957  0.5522
   79SOPE  H11R 7125   2.461   3.616   5.778 -0.0490  0.4256  0.2111
   79SOPE  H11S 7126   2.501   3.514   5.638  2.4209 -0.8339  1.4042
   79SOPE  C212 7127   2.566   3.714   5.603 -0.2383  0.0425 -0.5419
   79SOPE  H12R 7128   2.650   3.699   5.531 -0.0076  2.7682 -0.9341
   79SOPE  H12S 7129   2.607   3.796   5.665  0.9217 -2.3962  2.1672
   79SOPE  C213 7130   2.454   3.774   5.516  0.1475 -0.1026  0.0624
   79SOPE  H13R 7131   2.478   3.874   5.474 -0.1898 -0.3045 -0.6290
   79SOPE  H13S 7132   2.369   3.784   5.587  1.0110  0.0940  1.1014
   79SOPE  C214 7133   2.411   3.671   5.407 -0.5816  0.9504 -0.2365
   79SOPE  H14R 7134   2.359   3.585   5.453 -1.3411  1.1626 -0.6764
   79SOPE  H14S 7135   2.503   3.634   5.358 -1.3780  0.5711 -1.5008
   79SOPE  C215 7136   2.329   3.733   5.295  0.2736  0.0058 -0.8164
   79SOPE  H15R 7137   2.368   3.831   5.260 -2.1732  2.0846  1.7362
   79SOPE  H15S 7138   2.230   3.750   5.344  0.7806 -1.7264  0.8964
   79SOPE  C216 7139   2.309   3.644   5.173 -0.3381 -0.5402  0.1517
   79SOPE  H16R 7140   2.275   3.546   5.212 -1.1363  0.7413  2.9409
   79SOPE  H16S 7141   2.407   3.627   5.123 -0.4439  0.4533 -0.4288
   79SOPE  C217 7142   2.221   3.697   5.058 -0.0198  0.2220 -0.1880
   79SOPE  H17R 7143   2.197   3.626   4.975 -0.8956 -1.2297  1.2399
   79SOPE  H17S 7144   2.272   3.785   5.014  0.8698 -0.5595 -0.7640
   79SOPE  C218 7145   2.083   3.746   5.112  0.0587 -0.0043  0.6864
   79SOPE  H18R 7146   2.080   3.808   5.204 -0.4383  0.0923  0.6078
   79SOPE  H18S 7147   2.017   3.658   5.125 -1.0267  0.5317 -0.8974
   79SOPE  H18T 7148   2.054   3.800   5.019  1.3504  0.0000  0.2639
   79SOPE   C33 7149   2.898   2.995   6.234  1.0494  0.3207 -0.0763
   79SOPE   H3X 7150   3.006   2.967   6.244  1.1139  1.1748  2.0863
   79SOPE   H3Y 7151   2.900   3.095   6.281 -2.8438  0.5413 -0.0882
   79SOPE   C34 7152   2.869   2.986   6.086 -0.1241  1.2572 -0.4437
   79SOPE   H4X 7153   2.761   3.001   6.061 -0.4332 -0.1039 -0.0008
   79SOPE   H4Y 7154   2.894   2.887   6.044 -2.5369  0.3771  0.0423
   79SOPE   C35 7155   2.931   3.098   6.007 -0.2552  0.4422 -0.0203
   79SOPE   H5X 7156   3.042   3.101   6.018  0.0846 -2.0938 -1.8300
   79SOPE   H5Y 7157   2.895   3.197   6.041 -1.1395 -0.3191  1.3948
   79SOPE   C36 7158   2.903   3.083   5.857  0.0555 -0.2412  0.5680
   79SOPE   H6X 7159   2.793   3.081   5.837 -0.1171  1.7528  1.1370
   79SOPE   H6Y 7160   2.955   2.996   5.812  0.2472 -0.3835  1.0585
   79SOPE   C37 7161   2.958   3.206   5.778  0.0278 -0.1621  0.0701
   79SOPE   H7X 7162   3.069   3.210   5.789  0.0134 -1.4490  0.9304
   79SOPE   H7Y 7163   2.914   3.296   5.825 -1.1492 -1.8198  2.3324
   79SOPE   C38 7164   2.914   3.207   5.631 -0.8290  0.4013  0.4433
   79SOPE   H8X 7165   2.819   3.260   5.607  0.1435  1.0356 -2.4482
   79SOPE   H8Y 7166   2.890   3.100   5.611  0.2461  0.2477 -0.1020
   79SOPE   C39 7167   3.028   3.252   5.537  0.4654  0.6224 -0.7478
   79SOPE   H9X 7168   3.090   3.160   5.533  0.3652  0.5996 -2.2514
   79SOPE   H9Y 7169   3.081   3.346   5.563  0.2654  1.2086 -2.3862
   79SOPE  C310 7170   2.987   3.275   5.389 -0.3752 -0.8844 -0.4202
   79SOPE  H10X 7171   2.905   3.349   5.377  0.3025 -0.1628 -0.7069
   79SOPE  H10Y 7172   2.952   3.178   5.348 -1.6565  0.5054 -2.8543
   79SOPE  C311 7173   3.104   3.328   5.306 -0.6399 -0.7333  0.3255
   79SOPE  H11X 7174   3.189   3.257   5.314 -1.1349 -1.7498 -2.4133
   79SOPE  H11Y 7175   3.147   3.423   5.345  1.7907 -1.5400 -0.1626
   79SOPE  C312 7176   3.092   3.353   5.151  0.4873  0.3103 -0.6174
   79SOPE  H12X 7177   2.994   3.402   5.132  0.6251  0.4206 -1.0703
   79SOPE  H12Y 7178   3.085   3.256   5.096  2.0196 -0.5491  0.6332
   79SOPE  C313 7179   3.213   3.434   5.089  0.3430 -0.5127  0.6107
   79SOPE  H13X 7180   3.304   3.371   5.086  0.3776 -0.4138 -0.8403
   79SOPE  H13Y 7181   3.245   3.517   5.157  3.1663 -0.5242 -0.5604
   79SOPE  C314 7182   3.167   3.485   4.948  0.3414  0.1382 -0.7612
   79SOPE  H14X 7183   3.089   3.555   4.983  0.4768  0.1158 -0.4039
   79SOPE  H14Y 7184   3.119   3.399   4.897 -0.4510 -0.6970  1.2815
   79SOPE  C315 7185   3.277   3.558   4.882 -0.7312 -0.3587 -0.7299
   79SOPE  H15X 7186   3.364   3.490   4.874 -0.7506 -1.0875  3.0900
   79SOPE  H15Y 7187   3.327   3.630   4.949  0.0665  0.9826 -2.6830
   79SOPE  C316 7188   3.251   3.620   4.744 -0.2333 -0.0368  0.0081
   79SOPE  H16X 7189   3.206   3.549   4.671 -1.8891  0.3445  0.6015
   79SOPE  H16Y 7190   3.354   3.640   4.710  0.8604 -3.7854  0.5583
   79SOPE  C317 7191   3.162   3.746   4.744 -0.3071 -0.4595  0.2871
   79SOPE  H17X 7192   3.076   3.738   4.813 -0.3474  2.8904  0.8225
   79SOPE  H17Y 7193   3.112   3.764   4.647 -0.4938  1.2228  0.6569
   79SOPE  C318 7194   3.228   3.884   4.782  0.2162 -1.2380 -0.4531
   79SOPE  H18X 7195   3.330   3.893   4.737  1.0234  0.7788  1.5989
   79SOPE  H18Y 7196   3.231   3.882   4.893  1.0967 -0.2747 -0.4395
   79SOPE  H18Z 7197   3.168   3.972   4.751  1.1097  0.3318  1.9845
   80SOPE     N 7198   0.092   5.190   6.870 -0.2108 -0.1022  0.4331
   80SOPE   HN1 7199   0.147   5.252   6.807  0.5536 -0.9130  0.2752
   80SOPE   HN2 7200  -0.007   5.185   6.841 -0.7162 -0.1046  2.0397
   80SOPE   HN3 7201   0.083   5.248   6.956  0.4221  0.0524  0.4009
   80SOPE   C12 7202   0.154   5.061   6.900 -0.2212  0.3252  0.1142
   80SOPE  H12A 7203   0.263   5.080   6.915 -0.5233  0.9610  1.7125
   80SOPE  H12B 7204   0.148   4.998   6.809  1.2595 -0.6058  0.6103
   80SOPE   C11 7205   0.094   4.997   7.026 -1.0862 -0.4289  0.4157
   80SOPE  H11A 7206   0.127   5.074   7.099  0.0476  0.5504 -1.0690
   80SOPE  H11B 7207   0.137   4.901   7.061 -1.4776 -0.4550  0.8376
   80SOPE     P 7208  -0.127   4.873   6.978  0.1550 -0.1250  0.0068
   80SOPE   O13 7209  -0.241   4.915   6.900  0.5779 -0.1687  0.2957
   80SOPE   O14 7210  -0.166   4.803   7.100  0.0136  0.3550 -0.1230
   80SOPE   O12 7211  -0.051   5.000   7.020  0.2375  0.3795 -0.1191
   80SOPE   O11 7212  -0.027   4.786   6.895 -0.2845 -0.1347 -0.1665
   80SOPE    C1 7213  -0.035   4.805   6.749  0.0263  0.3231 -0.5368
   80SOPE    HA 7214   0.062   4.789   6.698 -0.2834  0.8559 -1.3241
   80SOPE    HB 7215  -0.064   4.910   6.726 -2.2072 -0.1964 -0.2835
   80SOPE    C2 7216  -0.138   4.714   6.682 -0.4627 -0.5688 -0.3438
   80SOPE    HS 7217  -0.238   4.729   6.729 -0.6360  2.5403 -1.4979
   80SOPE   O21 7218  -0.096   4.579   6.706  0.2198  0.4635  0.0788
   80SOPE   C21 7219  -0.184   4.482   6.726 -0.5190  0.7003  0.4852
   80SOPE   O22 7220  -0.302   4.494   6.730  0.4113  0.0878 -0.6326
   80SOPE   C22 7221  -0.109   4.352   6.759  0.3683  0.6898 -0.1885
   80SOPE   H2R 7222  -0.101   4.339   6.869 -1.4269 -1.8847 -0.2804
   80SOPE   H2S 7223  -0.003   4.359   6.728  1.5214  0.7891  3.3554
   80SOPE    C3 7224  -0.146   4.743   6.531 -0.3032  0.1616  0.3281
   80SOPE    HX 7225  -0.046   4.722   6.489 -0.4772 -0.0024 -0.0075
   80SOPE    HY 7226  -0.160   4.853   6.518 -1.1243 -0.1495 -1.8949
   80SOPE   O31 7227  -0.242   4.658   6.463 -0.1728  0.0646 -0.4346
   80SOPE   C31 7228  -0.373   4.672   6.485  0.3421 -0.8401  0.4804
   80SOPE   O32 7229  -0.425   4.758   6.556 -0.5124  0.4209 -0.2494
   80SOPE   C32 7230  -0.451   4.573   6.401  0.0751  0.0897  0.4572
   80SOPE   H2X 7231  -0.437   4.467   6.433  0.5644 -0.2255 -0.7342
   80SOPE   H2Y 7232  -0.397   4.578   6.304 -0.2044  0.5779  0.3237
   80SOPE   C23 7233  -0.181   4.222   6.705  0.5121  0.6416 -0.7730
   80SOPE   H3R 7234  -0.272   4.185   6.757  0.9542  0.7147  0.0709
   80SOPE   H3S 7235  -0.119   4.133   6.729 -0.9129  0.0334  0.8850
   80SOPE   C24 7236  -0.216   4.225   6.559 -0.0851 -0.5619  0.4523
   80SOPE   H4R 7237  -0.299   4.298   6.547 -0.1456 -0.5736  0.7900
   80SOPE   H4S 7238  -0.128   4.263   6.503 -1.1753 -0.0156 -0.9626
   80SOPE   C25 7239  -0.250   4.088   6.488 -0.5696 -0.3766 -0.8112
   80SOPE   H5R 7240  -0.165   4.017   6.487 -0.9227 -0.8558  0.7307
   80SOPE   H5S 7241  -0.338   4.034   6.529 -0.4763 -1.6576 -2.1759
   80SOPE   C26 7242  -0.264   4.131   6.348  1.0744 -0.0132  0.5248
   80SOPE   H6R 7243  -0.301   4.049   6.282  1.7358 -0.2556  0.4482
   80SOPE   H6S 7244  -0.336   4.214   6.336  1.1116  0.3045  2.2631
   80SOPE   C27 7245  -0.136   4.151   6.268  0.8398 -0.2970 -0.6385
   80SOPE   H7R 7246  -0.072   4.227   6.319 -2.5145  1.1329  1.8266
   80SOPE   H7S 7247  -0.070   4.062   6.273 -1.5042 -2.0910  0.3196
   80SOPE   C28 7248  -0.157   4.190   6.118 -0.1218  0.0592 -0.3826
   80SOPE   H8R 7249  -0.056   4.198   6.071  1.0436  2.3292  2.2081
   80SOPE   H8S 7250  -0.202   4.106   6.061 -1.2765 -0.9782  1.9395
   80SOPE   C29 7251  -0.231   4.318   6.102 -0.0632 -0.3970 -0.0593
   80SOPE   H91 7252  -0.187   4.401   6.159 -1.6216  2.0651 -2.2361
   80SOPE  C210 7253  -0.322   4.352   6.004  0.5744 -0.4851 -0.1469
   80SOPE  H101 7254  -0.367   4.451   6.016  0.2295 -0.9009  2.3782
   80SOPE  C211 7255  -0.386   4.278   5.895 -0.0093 -0.0515 -0.4765
   80SOPE  H11R 7256  -0.495   4.300   5.888 -0.0588 -0.7855 -3.0189
   80SOPE  H11S 7257  -0.369   4.171   5.920 -2.4210 -0.5438 -0.6051
   80SOPE  C212 7258  -0.316   4.303   5.760  0.6270  0.1406 -0.3521
   80SOPE  H12R 7259  -0.329   4.218   5.690  1.8016  0.1049 -0.5372
   80SOPE  H12S 7260  -0.209   4.330   5.768  0.5932  0.0484  0.4867
   80SOPE  C213 7261  -0.377   4.414   5.678  0.0518 -0.3868  0.8290
   80SOPE  H13R 7262  -0.348   4.510   5.725  2.1450 -0.1751 -0.7522
   80SOPE  H13S 7263  -0.488   4.408   5.678  0.0471 -0.3423 -0.0285
   80SOPE  C214 7264  -0.322   4.399   5.535  0.4596 -0.8528  0.1279
   80SOPE  H14R 7265  -0.365   4.306   5.493 -1.6911  0.1131  0.0696
   80SOPE  H14S 7266  -0.212   4.395   5.552  0.6185 -1.3564 -0.9273
   80SOPE  C215 7267  -0.363   4.512   5.442  0.4942  0.6158 -0.0097
   80SOPE  H15R 7268  -0.348   4.608   5.496 -1.7290  1.1575 -0.2573
   80SOPE  H15S 7269  -0.471   4.516   5.416  1.1193 -0.9992 -3.3298
   80SOPE  C216 7270  -0.294   4.527   5.304 -0.6303 -0.1123  0.0187
   80SOPE  H16R 7271  -0.314   4.433   5.248 -2.4147 -0.7240  1.5597
   80SOPE  H16S 7272  -0.184   4.541   5.313 -0.6154  0.0935 -0.4731
   80SOPE  C217 7273  -0.353   4.642   5.216  0.4924  0.6473 -0.4969
   80SOPE  H17R 7274  -0.329   4.738   5.266  0.5393  0.4747 -0.1794
   80SOPE  H17S 7275  -0.462   4.628   5.231 -0.2649  4.9704 -0.9243
   80SOPE  C218 7276  -0.322   4.629   5.067 -0.3014 -0.1292 -0.6048
   80SOPE  H18R 7277  -0.217   4.629   5.032 -1.0030  3.3093 -3.1894
   80SOPE  H18S 7278  -0.383   4.702   5.009  0.9666  0.2815 -1.4540
   80SOPE  H18T 7279  -0.358   4.532   5.024 -0.8450 -0.0266 -0.4000
   80SOPE   C33 7280  -0.598   4.611   6.399  0.2582 -0.1488  0.8704
   80SOPE   H3X 7281  -0.608   4.722   6.401 -1.6729 -0.2637 -0.0019
   80SOPE   H3Y 7282  -0.656   4.575   6.487  2.4363 -1.8812  1.6816
   80SOPE   C34 7283  -0.666   4.563   6.272 -0.4444  0.0483  0.3338
   80SOPE   H4X 7284  -0.773   4.590   6.284 -0.1045  1.6566  0.0309
   80SOPE   H4Y 7285  -0.651   4.453   6.269  2.5901  0.3620 -0.0690
   80SOPE   C35 7286  -0.621   4.626   6.132 -0.7012  0.3369 -0.4315
   80SOPE   H5X 7287  -0.513   4.597   6.129 -1.2629 -2.1761  0.8522
   80SOPE   H5Y 7288  -0.637   4.736   6.124  1.8026  0.6589 -2.1835
   80SOPE   C36 7289  -0.681   4.559   6.010  0.3902 -0.0098 -0.4199
   80SOPE   H6X 7290  -0.790   4.575   5.995 -0.0493 -0.6279  1.7264
   80SOPE   H6Y 7291  -0.666   4.451   6.029  0.2754 -0.1307 -0.9976
   80SOPE   C37 7292  -0.616   4.595   5.880  0.0555 -0.3098  0.0773
   80SOPE   H7X 7293  -0.510   4.564   5.870  0.8165  2.5064 -1.8697
   80SOPE   H7Y 7294  -0.611   4.706   5.881  0.9953 -0.3453  0.5708
   80SOPE   C38 7295  -0.702   4.550   5.756 -0.0443 -0.6359  0.3362
   80SOPE   H8X 7296  -0.808   4.576   5.777  0.3760  3.0691 -1.3142
   80SOPE   H8Y 7297  -0.688   4.440   5.754  1.5334 -0.5269  2.2239
   80SOPE   C39 7298  -0.659   4.629   5.630  0.0154 -0.3526 -0.1522
   80SOPE   H9X 7299  -0.549   4.615   5.626  0.2787  0.4776  2.3127
   80SOPE   H9Y 7300  -0.677   4.738   5.640  0.4528 -0.4239  2.1096
   80SOPE  C310 7301  -0.719   4.578   5.496 -0.1164 -0.4956  0.0909
   80SOPE  H10X 7302  -0.829   4.571   5.507  0.0299 -0.0250  2.2088
   80SOPE  H10Y 7303  -0.673   4.479   5.475  2.0819  0.0252  2.0084
   80SOPE  C311 7304  -0.703   4.671   5.376 -0.3460 -0.3392 -0.5358
   80SOPE  H11X 7305  -0.596   4.699   5.374 -0.4351 -0.0109 -0.9373
   80SOPE  H11Y 7306  -0.761   4.765   5.390  1.0005  0.2074  1.9331
   80SOPE  C312 7307  -0.753   4.593   5.253 -0.2964  0.6117  0.3245
   80SOPE  H12X 7308  -0.863   4.574   5.250 -0.4655  1.3615  1.3577
   80SOPE  H12Y 7309  -0.704   4.495   5.271 -2.6953 -0.3654  2.2210
   80SOPE  C313 7310  -0.706   4.639   5.110 -0.7201 -0.2776 -0.2708
   80SOPE  H13X 7311  -0.655   4.551   5.065 -0.8502 -0.0548 -0.8594
   80SOPE  H13Y 7312  -0.647   4.733   5.118  0.0069 -0.8484  1.8931
   80SOPE  C314 7313  -0.832   4.682   5.028  0.5217  0.7975 -0.5255
   80SOPE  H14X 7314  -0.903   4.740   5.091 -1.7959  0.4578 -2.6499
   80SOPE  H14Y 7315  -0.883   4.589   4.996  1.0057 -0.6329  2.4519
   80SOPE  C315 7316  -0.790   4.765   4.914  0.2880 -0.8007  0.3841
   80SOPE  H15X 7317  -0.706   4.720   4.856  1.0245  0.5400  0.3763
   80SOPE  H15Y 7318  -0.739   4.854   4.957 -0.9804 -0.3840  1.0911
   80SOPE  C316 7319  -0.894   4.833   4.818  0.3802  0.2594 -0.1669
   80SOPE  H16X 7320  -0.844   4.878   4.729 -0.8398 -2.1636 -2.2116
   80SOPE  H16Y 7321  -0.949   4.916   4.866 -1.0574  0.9416 -2.7657
   80SOPE  C317 7322  -0.996   4.726   4.773 -0.2766  0.2443 -0.4110
   80SOPE  H17X 7323  -1.039   4.670   4.858 -2.0992 -0.5898 -1.8116
   80SOPE  H17Y 7324  -0.941   4.648   4.717  4.3178  3.4674 -1.0280
   80SOPE  C318 7325  -1.112   4.778   4.687 -0.3233 -0.4092 -0.0645
   80SOPE  H18X 7326  -1.066   4.819   4.595 -1.7119 -1.4508 -1.2725
   80SOPE  H18Y 7327  -1.178   4.852   4.738 -2.1639 -2.4262  0.6760
   80SOPE  H18Z 7328  -1.180   4.695   4.656 -0.1512 -0.9335  0.9164
   81SOPE     N 7329   5.522   1.531   7.252 -0.1333  0.3159 -0.0229
   81SOPE   HN1 7330   5.498   1.608   7.187 -0.5678 -0.1751 -0.4598
   81SOPE   HN2 7331   5.442   1.470   7.280  1.6048 -1.4879  1.3448
   81SOPE   HN3 7332   5.552   1.580   7.338 -1.3295 -0.5219  0.9195
   81SOPE   C12 7333   5.625   1.450   7.183 -0.0493 -0.4122  0.0128
   81SOPE  H12A 7334   5.582   1.418   7.086  0.7251  0.0010 -0.4829
   81SOPE  H12B 7335   5.640   1.356   7.240 -1.2760 -0.6621 -0.0539
   81SOPE   C11 7336   5.752   1.528   7.135 -0.3223  0.2003 -0.3069
   81SOPE  H11A 7337   5.715   1.598   7.057 -1.2726  1.9373  1.6106
   81SOPE  H11B 7338   5.819   1.452   7.091 -0.7893  1.0803 -2.6528
   81SOPE     P 7339   5.956   1.653   7.233  0.2388  0.2477  0.1990
   81SOPE   O13 7340   6.017   1.632   7.366 -0.2284  0.3103  0.5593
   81SOPE   O14 7341   5.955   1.796   7.190  0.1929 -0.0732 -0.0736
   81SOPE   O12 7342   5.810   1.601   7.242  0.3847 -0.6220  0.3936
   81SOPE   O11 7343   6.020   1.570   7.120 -0.1650 -0.2169  0.2183
   81SOPE    C1 7344   6.158   1.542   7.113 -0.0924 -0.7986  0.1568
   81SOPE    HA 7345   6.188   1.462   7.184  2.8625  1.8215  2.1342
   81SOPE    HB 7346   6.216   1.631   7.145 -3.8168  1.4098  1.4582
   81SOPE    C2 7347   6.208   1.498   6.969  0.1123 -0.2473 -0.0799
   81SOPE    HS 7348   6.313   1.466   6.990  0.9258  1.5587 -1.1306
   81SOPE   O21 7349   6.200   1.602   6.875  0.6565  0.1693 -0.6267
   81SOPE   C21 7350   6.295   1.693   6.872  0.3517  0.0239  0.2946
   81SOPE   O22 7351   6.390   1.695   6.946 -0.3175 -0.2507 -0.0971
   81SOPE   C22 7352   6.268   1.797   6.764  0.5916 -0.3333  0.0407
   81SOPE   H2R 7353   6.162   1.831   6.771  0.8452  1.1327 -2.1980
   81SOPE   H2S 7354   6.289   1.746   6.668 -1.1576 -2.5126  0.7186
   81SOPE    C3 7355   6.138   1.368   6.928  0.8505 -0.2329 -0.5025
   81SOPE    HX 7356   6.036   1.395   6.894  1.6060  1.0065 -1.9593
   81SOPE    HY 7357   6.125   1.290   7.006 -1.0485 -1.5503 -2.0526
   81SOPE   O31 7358   6.216   1.303   6.828  0.9791  0.2667  0.1312
   81SOPE   C31 7359   6.168   1.305   6.708  0.1765  0.7338  0.3901
   81SOPE   O32 7360   6.062   1.350   6.667 -0.0595  0.1861  0.0891
   81SOPE   C32 7361   6.266   1.238   6.616 -0.4136  0.6689  0.5302
   81SOPE   H2X 7362   6.289   1.136   6.653  2.3264  0.1718 -2.1350
   81SOPE   H2Y 7363   6.361   1.295   6.629  1.0280 -1.2061 -1.2071
   81SOPE   C23 7364   6.372   1.912   6.769 -0.1459  0.2410 -0.1097
   81SOPE   H3R 7365   6.476   1.876   6.784  0.3070  1.4007 -0.3393
   81SOPE   H3S 7366   6.358   1.982   6.855 -2.1311 -0.9711  0.6035
   81SOPE   C24 7367   6.367   1.994   6.637  1.0850  0.3175 -0.6282
   81SOPE   H4R 7368   6.316   1.938   6.557  2.7820 -1.0337 -0.8262
   81SOPE   H4S 7369   6.319   2.090   6.666 -0.3161 -0.4835 -0.1893
   81SOPE   C25 7370   6.503   2.024   6.583  0.3798 -0.0630  0.0919
   81SOPE   H5R 7371   6.497   2.127   6.542 -0.7372  0.0636  0.5427
   81SOPE   H5S 7372   6.590   2.025   6.652  1.3740 -1.0805 -1.1007
   81SOPE   C26 7373   6.542   1.915   6.474  0.2209 -0.0662  0.0372
   81SOPE   H6R 7374   6.649   1.891   6.493  0.5152  1.1808  0.0809
   81SOPE   H6S 7375   6.491   1.817   6.486  1.3082 -0.4771  1.6656
   81SOPE   C27 7376   6.534   1.956   6.322 -0.1031 -0.1118  0.0405
   81SOPE   H7R 7377   6.558   1.861   6.269  3.9732 -0.4215  2.0701
   81SOPE   H7S 7378   6.430   1.984   6.293  0.3908  0.7749 -0.9649
   81SOPE   C28 7379   6.629   2.072   6.283  0.0586  0.0121  0.0345
   81SOPE   H8R 7380   6.569   2.124   6.204 -1.0925 -1.3557 -0.0257
   81SOPE   H8S 7381   6.655   2.131   6.373 -0.6551 -0.6526  0.6805
   81SOPE   C29 7382   6.755   2.032   6.208 -0.3819  0.6293  0.7522
   81SOPE   H91 7383   6.850   2.056   6.258  0.9112 -2.4413  0.0176
   81SOPE  C210 7384   6.765   1.968   6.085  0.2538  0.1905  0.3216
   81SOPE  H101 7385   6.864   1.955   6.038 -0.6547 -1.3244 -1.3107
   81SOPE  C211 7386   6.658   1.934   5.991 -0.2896  0.3709 -0.1366
   81SOPE  H11R 7387   6.562   1.959   6.042 -0.5981  1.1539 -1.0743
   81SOPE  H11S 7388   6.661   1.824   5.980 -1.0856  0.0443  2.2385
   81SOPE  C212 7389   6.651   1.996   5.848  0.2761  0.6626  0.6000
   81SOPE  H12R 7390   6.669   2.105   5.847  2.1218  0.3749  0.1274
   81SOPE  H12S 7391   6.549   1.980   5.806  1.1759  0.7555 -1.7447
   81SOPE  C213 7392   6.751   1.928   5.756 -0.5851 -0.7945 -0.5306
   81SOPE  H13R 7393   6.745   1.819   5.776  1.7529 -1.3762 -2.5505
   81SOPE  H13S 7394   6.851   1.955   5.797 -0.6895 -1.0989 -0.0731
   81SOPE  C214 7395   6.752   1.982   5.614 -0.5209  0.0447  0.1857
   81SOPE  H14R 7396   6.755   2.091   5.593 -1.8456 -0.3435 -2.5443
   81SOPE  H14S 7397   6.660   1.936   5.570  0.1911 -1.4826  0.2259
   81SOPE  C215 7398   6.875   1.920   5.535  0.0252 -0.3625 -0.6749
   81SOPE  H15R 7399   6.874   1.809   5.531  1.5973 -0.3685 -2.2598
   81SOPE  H15S 7400   6.959   1.951   5.601 -1.5419 -0.9363  1.7074
   81SOPE  C216 7401   6.884   1.964   5.386 -0.7151  0.2601  0.2585
   81SOPE  H16R 7402   6.863   2.072   5.373 -1.1591 -0.1563 -3.8207
   81SOPE  H16S 7403   6.814   1.904   5.324 -0.1639 -0.6201  0.4738
   81SOPE  C217 7404   7.019   1.943   5.323 -0.1226  0.4459  0.2888
   81SOPE  H17R 7405   7.096   2.011   5.366  1.4669 -0.3687 -1.1349
   81SOPE  H17S 7406   7.011   1.977   5.218  1.6278  0.1939  0.0488
   81SOPE  C218 7407   7.059   1.795   5.320  0.4544 -0.3002  0.0657
   81SOPE  H18R 7408   7.004   1.730   5.391 -3.0918  0.1175 -2.0502
   81SOPE  H18S 7409   7.168   1.792   5.345  0.8014 -1.1859 -1.4310
   81SOPE  H18T 7410   7.064   1.764   5.214  2.5066  3.8640 -1.3009
   81SOPE   C33 7411   6.246   1.235   6.463  0.3651 -0.8280 -0.3289
   81SOPE   H3X 7412   6.238   1.336   6.417 -1.2877 -1.5191 -1.6609
   81SOPE   H3Y 7413   6.146   1.192   6.441  0.0164  0.7861 -2.1715
   81SOPE   C34 7414   6.373   1.182   6.404 -0.7046 -0.1257 -0.3549
   81SOPE   H4X 7415   6.411   1.102   6.471 -1.3961 -0.8005 -0.7518
   81SOPE   H4Y 7416   6.438   1.270   6.423 -2.7338  0.9452  2.4550
   81SOPE   C35 7417   6.385   1.142   6.256 -0.0043 -0.4489  0.2264
   81SOPE   H5X 7418   6.301   1.072   6.233 -1.2769  1.3632 -0.9923
   81SOPE   H5Y 7419   6.487   1.116   6.222 -0.4761  1.4587 -3.1582
   81SOPE   C36 7420   6.365   1.261   6.148 -0.3127 -0.0340  0.1400
   81SOPE   H6X 7421   6.433   1.344   6.179  0.0243  0.0508 -0.8176
   81SOPE   H6Y 7422   6.265   1.306   6.168 -0.4740 -0.4846  0.3601
   81SOPE   C37 7423   6.379   1.225   6.001 -0.7745 -0.1397  0.1831
   81SOPE   H7X 7424   6.480   1.181   5.986 -1.0580 -0.2836 -1.4238
   81SOPE   H7Y 7425   6.371   1.313   5.935  1.3313 -1.4781 -2.0209
   81SOPE   C38 7426   6.276   1.120   5.959 -0.3407 -0.1804  0.1775
   81SOPE   H8X 7427   6.177   1.152   5.996 -0.3267  0.9181 -0.6735
   81SOPE   H8Y 7428   6.311   1.026   6.007  2.6529 -0.2421 -1.8167
   81SOPE   C39 7429   6.269   1.100   5.803 -0.8081  0.1643  0.0930
   81SOPE   H9X 7430   6.235   1.197   5.762 -0.1904  0.9586  1.4080
   81SOPE   H9Y 7431   6.196   1.017   5.788  0.0337 -0.3317 -1.4421
   81SOPE  C310 7432   6.405   1.063   5.735 -0.3041  0.5082  0.2546
   81SOPE  H10X 7433   6.424   0.968   5.789 -3.7467  0.3735  1.4812
   81SOPE  H10Y 7434   6.479   1.143   5.758  0.8644 -0.5084  0.1472
   81SOPE  C311 7435   6.403   1.035   5.581  0.5841 -0.1315 -0.5066
   81SOPE  H11X 7436   6.389   1.130   5.526  0.9152 -0.0930 -0.5286
   81SOPE  H11Y 7437   6.319   0.969   5.552  2.1215 -0.4765 -4.8105
   81SOPE  C312 7438   6.525   0.970   5.519 -0.2947  0.0667  0.0539
   81SOPE  H12X 7439   6.522   1.002   5.413 -1.2700  1.6773  0.5285
   81SOPE  H12Y 7440   6.528   0.860   5.535 -3.1303 -1.2873 -6.0225
   81SOPE  C313 7441   6.646   1.021   5.593  0.2283 -0.7311  0.2095
   81SOPE  H13X 7442   6.658   0.972   5.693 -0.5629 -0.0178  0.6675
   81SOPE  H13Y 7443   6.638   1.129   5.618  3.2035 -0.1083 -1.1225
   81SOPE  C314 7444   6.779   1.008   5.526  0.4389 -0.3784  0.1121
   81SOPE  H14X 7445   6.851   1.024   5.610  1.5769  1.0774 -1.0838
   81SOPE  H14Y 7446   6.793   1.095   5.459  1.8866 -0.6025  0.0893
   81SOPE  C315 7447   6.796   0.887   5.437 -0.1692 -0.1100  0.1586
   81SOPE  H15X 7448   6.734   0.888   5.345 -2.4140 -2.0657  1.5276
   81SOPE  H15Y 7449   6.766   0.795   5.493 -0.1084 -1.1005 -1.3795
   81SOPE  C316 7450   6.945   0.853   5.405  0.8207  0.4379 -1.1569
   81SOPE  H16X 7451   6.988   0.846   5.507  0.6986  2.7484 -0.8728
   81SOPE  H16Y 7452   7.004   0.937   5.363  1.2779  0.6162 -0.1808
   81SOPE  C317 7453   6.976   0.740   5.307  1.1789  0.7714  0.3273
   81SOPE  H17X 7454   6.903   0.656   5.319  2.4372 -0.1189  2.1378
   81SOPE  H17Y 7455   7.074   0.691   5.328  1.2958  0.8394 -0.0463
   81SOPE  C318 7456   6.968   0.781   5.161 -0.2773 -0.0425 -0.1858
   81SOPE  H18X 7457   7.044   0.858   5.135 -0.4105  0.8454  1.8826
   81SOPE  H18Y 7458   6.876   0.839   5.141  1.1517  2.4800  0.0553
   81SOPE  H18Z 7459   6.978   0.693   5.094 -1.0767 -0.9890  0.9079
   82SOPE     N 7460   1.049   1.333   7.485 -0.5336  0.8333 -0.2761
   82SOPE   HN1 7461   1.043   1.325   7.382 -0.8112 -2.2175 -0.1139
   82SOPE   HN2 7462   1.055   1.240   7.531 -2.7545  0.2915 -0.9533
   82SOPE   HN3 7463   0.959   1.371   7.522 -1.2092  0.9631 -1.9813
   82SOPE   C12 7464   1.153   1.433   7.527 -0.6108 -0.3171  0.8005
   82SOPE  H12A 7465   1.249   1.377   7.528  0.2331  1.0049 -0.8694
   82SOPE  H12B 7466   1.124   1.481   7.623  3.0162  2.4809  0.6980
   82SOPE   C11 7467   1.155   1.548   7.424 -0.0264 -0.3401  0.1423
   82SOPE  H11A 7468   1.052   1.586   7.405  0.3637  1.3882  1.2976
   82SOPE  H11B 7469   1.186   1.502   7.328 -0.6364 -1.2564  0.3656
   82SOPE     P 7470   1.217   1.757   7.572 -0.1938  0.2684  0.1074
   82SOPE   O13 7471   1.321   1.748   7.675 -0.1420  0.3250  0.3561
   82SOPE   O14 7472   1.078   1.757   7.616  0.0734 -0.1785  0.4019
   82SOPE   O12 7473   1.249   1.655   7.451 -0.0032 -0.1796  0.8653
   82SOPE   O11 7474   1.253   1.895   7.488  0.3022 -0.3310  0.0238
   82SOPE    C1 7475   1.133   1.972   7.437  1.1594  0.3628 -0.3615
   82SOPE    HA 7476   1.155   2.080   7.422 -2.0196  0.6869 -4.2098
   82SOPE    HB 7477   1.051   1.976   7.511  3.6046  0.5376  2.5557
   82SOPE    C2 7478   1.069   1.914   7.313 -0.0595  0.5142 -0.3180
   82SOPE    HS 7479   1.071   1.804   7.330 -0.7637  0.3890 -0.9879
   82SOPE   O21 7480   1.148   1.952   7.201 -0.0713 -0.3212 -0.3279
   82SOPE   C21 7481   1.145   1.867   7.102 -0.1669  0.1704  0.4107
   82SOPE   O22 7482   1.083   1.763   7.102 -0.2339  0.2628 -0.8369
   82SOPE   C22 7483   1.213   1.931   6.979 -0.4070 -0.2331  1.1387
   82SOPE   H2R 7484   1.300   1.864   6.961 -0.6126 -0.9239  2.6133
   82SOPE   H2S 7485   1.244   2.035   7.006 -0.4905 -0.2112  1.1494
   82SOPE    C3 7486   0.930   1.968   7.296  0.5335  0.4291 -0.0322
   82SOPE    HX 7487   0.940   2.078   7.289  4.2406  0.1933 -0.4479
   82SOPE    HY 7488   0.871   1.934   7.383  0.1184 -0.6652 -0.7157
   82SOPE   O31 7489   0.865   1.926   7.174 -0.3518 -0.4572  0.0240
   82SOPE   C31 7490   0.792   1.819   7.182 -0.0774 -0.0446 -0.6323
   82SOPE   O32 7491   0.760   1.759   7.288  0.0051 -0.4278 -0.2584
   82SOPE   C32 7492   0.752   1.785   7.038 -0.2194 -0.1485 -0.8204
   82SOPE   H2X 7493   0.840   1.758   6.976 -0.1031 -1.4509 -0.1197
   82SOPE   H2Y 7494   0.707   1.877   6.994  2.6955  1.7666 -0.1475
   82SOPE   C23 7495   1.100   1.937   6.867 -0.0784  0.3003 -0.0538
   82SOPE   H3R 7496   1.015   1.998   6.904  0.3123  1.3402 -0.8286
   82SOPE   H3S 7497   1.061   1.833   6.866 -0.6912  0.5210  0.5261
   82SOPE   C24 7498   1.148   1.986   6.728  0.5339 -0.4390 -0.5484
   82SOPE   H4R 7499   1.244   1.937   6.702  0.1547 -1.1836 -0.5622
   82SOPE   H4S 7500   1.086   1.933   6.652 -0.7096  0.4397 -0.1741
   82SOPE   C25 7501   1.146   2.132   6.710 -0.0755 -0.9093 -0.1110
   82SOPE   H5R 7502   1.045   2.176   6.724  0.3558  0.0142  0.2039
   82SOPE   H5S 7503   1.208   2.174   6.792 -1.5406 -1.0294  1.0944
   82SOPE   C26 7504   1.197   2.200   6.584  0.1983  0.6056 -0.7814
   82SOPE   H6R 7505   1.129   2.171   6.501 -1.3617 -0.3480  0.7661
   82SOPE   H6S 7506   1.208   2.309   6.602 -1.0796  0.6790 -0.3331
   82SOPE   C27 7507   1.332   2.139   6.550 -0.2610  0.8043 -0.0838
   82SOPE   H7R 7508   1.384   2.125   6.647  1.4804  0.6043 -0.9904
   82SOPE   H7S 7509   1.310   2.037   6.512  0.9520  0.0580  1.1276
   82SOPE   C28 7510   1.408   2.222   6.444 -0.0086 -0.2554 -0.2788
   82SOPE   H8R 7511   1.339   2.256   6.364 -2.4140  0.5919  2.0045
   82SOPE   H8S 7512   1.465   2.309   6.483 -4.0334  1.5227  2.2069
   82SOPE   C29 7513   1.520   2.131   6.391 -0.3679 -0.0561 -0.8477
   82SOPE   H91 7514   1.583   2.078   6.463 -0.4477  0.8175 -0.1093
   82SOPE  C210 7515   1.544   2.098   6.262 -0.0828 -0.2855 -0.8543
   82SOPE  H101 7516   1.635   2.037   6.253  0.6482  0.3889  1.2804
   82SOPE  C211 7517   1.481   2.143   6.133 -0.5611  0.1790  0.0363
   82SOPE  H11R 7518   1.421   2.235   6.148 -1.2922 -0.2771 -0.0050
   82SOPE  H11S 7519   1.416   2.062   6.094  1.1717 -2.0782  1.5856
   82SOPE  C212 7520   1.592   2.176   6.031 -0.2473  0.3288  0.2353
   82SOPE  H12R 7521   1.654   2.086   6.013 -2.5185 -0.8832 -2.2663
   82SOPE  H12S 7522   1.659   2.257   6.068  1.3787  1.0848 -3.8744
   82SOPE  C213 7523   1.534   2.219   5.890  0.2425  0.2626  0.0245
   82SOPE  H13R 7524   1.511   2.327   5.906 -1.9894 -0.2662  0.7716
   82SOPE  H13S 7525   1.440   2.162   5.884 -0.3974  1.0518  1.8396
   82SOPE  C214 7526   1.638   2.198   5.782  0.1585 -0.2211  0.0540
   82SOPE  H14R 7527   1.736   2.231   5.821  0.7572 -3.5558  1.6845
   82SOPE  H14S 7528   1.611   2.266   5.697 -0.3321  1.3061  1.3804
   82SOPE  C215 7529   1.666   2.056   5.734  0.8072 -0.0651 -0.3867
   82SOPE  H15R 7530   1.587   2.017   5.667 -0.5197  0.4561  0.8384
   82SOPE  H15S 7531   1.673   1.989   5.822 -0.6146 -1.0719 -1.0047
   82SOPE  C216 7532   1.808   2.055   5.667 -0.7534  0.4193  0.8739
   82SOPE  H16R 7533   1.849   1.952   5.672 -0.9934  0.3771  2.2795
   82SOPE  H16S 7534   1.877   2.112   5.733 -0.6480  1.1360  0.1640
   82SOPE  C217 7535   1.820   2.121   5.528  0.3571 -0.1920  0.0398
   82SOPE  H17R 7536   1.927   2.143   5.514 -0.3078  1.7577 -2.7111
   82SOPE  H17S 7537   1.772   2.220   5.542  0.6382 -0.2594  1.7709
   82SOPE  C218 7538   1.766   2.048   5.412 -0.0949  0.1439  0.0282
   82SOPE  H18R 7539   1.840   1.966   5.403  0.9913  0.5769  3.5027
   82SOPE  H18S 7540   1.790   2.116   5.327  2.2188 -0.2278  0.3336
   82SOPE  H18T 7541   1.663   2.007   5.418 -0.8015  1.9330  0.9178
   82SOPE   C33 7542   0.649   1.674   7.017  0.3152 -0.4807 -0.7305
   82SOPE   H3X 7543   0.561   1.684   7.084  1.6149  0.3799  0.9305
   82SOPE   H3Y 7544   0.693   1.580   7.056 -1.4767 -1.0409  0.0523
   82SOPE   C34 7545   0.598   1.666   6.875 -0.4670 -0.1735 -0.3885
   82SOPE   H4X 7546   0.546   1.761   6.848  0.1230  0.3569  0.2907
   82SOPE   H4Y 7547   0.525   1.583   6.883 -0.0475 -0.3745  2.0810
   82SOPE   C35 7548   0.717   1.660   6.772  0.5266  0.6421  0.5235
   82SOPE   H5X 7549   0.776   1.569   6.794  0.2905  0.8386  2.0873
   82SOPE   H5Y 7550   0.783   1.750   6.771  1.0676  0.2490 -0.3629
   82SOPE   C36 7551   0.661   1.650   6.632 -0.2820 -0.3963  0.1006
   82SOPE   H6X 7552   0.603   1.743   6.613 -1.9594 -0.8674  2.5030
   82SOPE   H6Y 7553   0.577   1.578   6.632 -0.6964  0.0675  0.8571
   82SOPE   C37 7554   0.759   1.613   6.519 -0.2874 -0.1891  0.7014
   82SOPE   H7X 7555   0.811   1.516   6.535 -1.7028 -1.3297 -1.1909
   82SOPE   H7Y 7556   0.839   1.690   6.512  0.7531 -1.3649 -1.0201
   82SOPE   C38 7557   0.709   1.581   6.370  0.0934  0.0508  0.2594
   82SOPE   H8X 7558   0.647   1.663   6.330 -1.4123 -1.7477 -1.3009
   82SOPE   H8Y 7559   0.646   1.491   6.385 -0.3056  0.5955  2.1248
   82SOPE   C39 7560   0.821   1.561   6.271 -0.1777  0.5855 -0.2195
   82SOPE   H9X 7561   0.870   1.466   6.303 -0.2111  0.2444 -1.1434
   82SOPE   H9Y 7562   0.899   1.638   6.289  0.3155  0.2755 -0.9381
   82SOPE  C310 7563   0.787   1.551   6.124  0.2433  0.1482  0.9466
   82SOPE  H10X 7564   0.724   1.638   6.095  0.0051 -0.7954 -1.6380
   82SOPE  H10Y 7565   0.727   1.461   6.098 -0.9174  0.9618  0.7068
   82SOPE  C311 7566   0.906   1.527   6.027 -0.6605  0.0295  0.1774
   82SOPE  H11X 7567   0.961   1.438   6.064  2.6779  1.8022 -0.1291
   82SOPE  H11Y 7568   0.975   1.614   6.033 -0.5721  0.4148 -3.8209
   82SOPE  C312 7569   0.848   1.492   5.893  0.1107 -0.1039 -0.5722
   82SOPE  H12X 7570   0.787   1.575   5.854  0.0675  1.0904  1.8387
   82SOPE  H12Y 7571   0.772   1.412   5.894  1.7145 -1.7010 -0.7678
   82SOPE  C313 7572   0.956   1.443   5.796 -0.7705  0.1058 -0.6973
   82SOPE  H13X 7573   1.010   1.356   5.840  0.7258  0.8247 -1.0294
   82SOPE  H13Y 7574   1.041   1.514   5.806  1.0220 -2.1129  0.8501
   82SOPE  C314 7575   0.901   1.432   5.656  0.1540  0.0950  0.5402
   82SOPE  H14X 7576   0.852   1.518   5.605 -0.7079 -0.7224 -0.0325
   82SOPE  H14Y 7577   0.822   1.354   5.652  0.9878 -0.6946 -1.2224
   82SOPE  C315 7578   1.012   1.383   5.560  0.3166  0.2909 -0.0408
   82SOPE  H15X 7579   0.964   1.353   5.465 -0.4557  0.7014  0.2040
   82SOPE  H15Y 7580   1.043   1.285   5.601 -0.5580 -0.3025 -0.7577
   82SOPE  C316 7581   1.109   1.494   5.512 -0.6659  0.2509 -0.2933
   82SOPE  H16X 7582   1.192   1.450   5.452 -0.1434  2.7487 -1.5331
   82SOPE  H16Y 7583   1.154   1.552   5.596 -0.2596  0.1799 -0.4621
   82SOPE  C317 7584   1.052   1.601   5.425 -0.9881 -0.1505  0.5567
   82SOPE  H17X 7585   1.138   1.668   5.405 -0.2578 -0.8785  1.1807
   82SOPE  H17Y 7586   0.983   1.658   5.492 -0.1211 -0.7018  1.9631
   82SOPE  C318 7587   0.986   1.559   5.294  0.2499 -0.3665  0.4067
   82SOPE  H18X 7588   0.950   1.643   5.231 -2.3982 -1.8577 -0.1960
   82SOPE  H18Y 7589   0.896   1.501   5.323 -1.2574  2.0176  0.7317
   82SOPE  H18Z 7590   1.053   1.491   5.237  0.7585 -1.4045  2.1601
   83SOPE     N 7591   4.407   5.298   2.817 -0.4752 -0.2156 -0.1845
   83SOPE   HN1 7592   4.489   5.241   2.788  1.6217  3.0855 -1.4853
   83SOPE   HN2 7593   4.428   5.357   2.900 -2.7524  2.9071 -1.6107
   83SOPE   HN3 7594   4.317   5.250   2.836  0.8535 -2.3678  0.9067
   83SOPE   C12 7595   4.400   5.386   2.690  0.9072 -0.2709  0.0615
   83SOPE  H12A 7596   4.293   5.414   2.679  0.9256 -0.1846  0.1051
   83SOPE  H12B 7597   4.444   5.328   2.605 -0.9585 -0.6343 -0.7120
   83SOPE   C11 7598   4.479   5.515   2.709 -0.4057  0.3012 -0.4900
   83SOPE  H11A 7599   4.428   5.583   2.780  0.3541  0.7444 -0.3508
   83SOPE  H11B 7600   4.481   5.561   2.608 -0.1664 -0.4362 -0.8286
   83SOPE     P 7601   4.743   5.520   2.678  0.1638 -0.4335  0.0131
   83SOPE   O13 7602   4.784   5.661   2.698  0.6976 -0.0335 -0.2400
   83SOPE   O14 7603   4.719   5.486   2.539 -0.9769 -0.0091 -0.0034
   83SOPE   O12 7604   4.609   5.485   2.763  0.0844  0.6533  0.3063
   83SOPE   O11 7605   4.863   5.429   2.738  0.0918 -0.0494 -0.4241
   83SOPE    C1 7606   4.842   5.344   2.846 -0.0555  0.2703 -0.5639
   83SOPE    HA 7607   4.918   5.262   2.843  0.1900  0.5371 -2.6554
   83SOPE    HB 7608   4.745   5.293   2.829  0.6849 -1.2749 -0.3440
   83SOPE    C2 7609   4.844   5.417   2.984 -0.0609 -1.0008 -0.6277
   83SOPE    HS 7610   4.758   5.487   2.974  0.8165  0.5718  1.9527
   83SOPE   O21 7611   4.967   5.488   3.008 -0.8928 -0.3069  0.0057
   83SOPE   C21 7612   4.949   5.614   3.052  0.3027 -0.6908 -0.3072
   83SOPE   O22 7613   4.842   5.656   3.092  0.5152  0.4011  0.5826
   83SOPE   C22 7614   5.077   5.691   3.059  0.2977  0.6619 -0.7320
   83SOPE   H2R 7615   5.061   5.796   3.027 -1.1538  1.0775  1.1212
   83SOPE   H2S 7616   5.153   5.643   2.994  0.4070  0.7883 -0.6991
   83SOPE    C3 7617   4.804   5.321   3.100  0.0213 -0.2242  0.0902
   83SOPE    HX 7618   4.798   5.387   3.190 -0.1983  0.4124 -0.3865
   83SOPE    HY 7619   4.886   5.248   3.117 -1.3101 -1.5434  1.0938
   83SOPE   O31 7620   4.677   5.254   3.070 -0.3384 -0.2826  0.1375
   83SOPE   C31 7621   4.615   5.221   3.181  0.4311  0.1893 -0.7583
   83SOPE   O32 7622   4.649   5.241   3.294  0.0387 -0.9589  0.0460
   83SOPE   C32 7623   4.485   5.143   3.159  0.1060 -0.5678  0.0136
   83SOPE   H2X 7624   4.518   5.043   3.123 -1.7502 -2.0545  2.1745
   83SOPE   H2Y 7625   4.427   5.202   3.084  0.0548  0.6715  0.9950
   83SOPE   C23 7626   5.139   5.685   3.201 -1.6312 -0.5580 -0.8902
   83SOPE   H3R 7627   5.242   5.717   3.176 -1.4264  0.8063  1.4460
   83SOPE   H3S 7628   5.141   5.581   3.239 -1.2989 -0.8422 -1.6760
   83SOPE   C24 7629   5.072   5.770   3.308 -0.1323  0.9512  0.3196
   83SOPE   H4R 7630   5.079   5.879   3.290  2.1448  1.2638  2.5079
   83SOPE   H4S 7631   4.966   5.740   3.322 -0.3162  0.1502 -2.2230
   83SOPE   C25 7632   5.149   5.754   3.443  0.1804 -0.6990  0.4730
   83SOPE   H5R 7633   5.162   5.645   3.460 -2.8003 -1.4016 -1.0586
   83SOPE   H5S 7634   5.247   5.805   3.427  0.3555 -1.3798 -0.7327
   83SOPE   C26 7635   5.075   5.811   3.561 -0.5449 -0.5142 -0.4571
   83SOPE   H6R 7636   5.062   5.921   3.551 -1.6565 -0.5997 -0.1441
   83SOPE   H6S 7637   4.973   5.768   3.569 -1.7606  1.8779 -1.9024
   83SOPE   C27 7638   5.156   5.781   3.688 -0.2102  0.5288  0.6047
   83SOPE   H7R 7639   5.160   5.670   3.683 -1.0462  0.5467 -1.8743
   83SOPE   H7S 7640   5.250   5.840   3.678 -0.3775  0.7834  0.5422
   83SOPE   C28 7641   5.091   5.827   3.813 -0.3864  0.3144 -0.0391
   83SOPE   H8R 7642   5.069   5.935   3.808 -1.3452  0.1123 -0.5036
   83SOPE   H8S 7643   4.990   5.781   3.819  0.4162 -1.3479  2.9984
   83SOPE   C29 7644   5.184   5.780   3.928 -0.9626 -0.0268 -0.4110
   83SOPE   H91 7645   5.223   5.677   3.921 -1.4426 -0.1748 -0.9799
   83SOPE  C210 7646   5.217   5.855   4.031 -0.3069 -0.1153  0.2612
   83SOPE  H101 7647   5.298   5.825   4.100  0.3710  1.0522 -0.0145
   83SOPE  C211 7648   5.167   5.995   4.049  0.2828 -0.0452  0.3866
   83SOPE  H11R 7649   5.085   6.025   3.981  1.2778  3.2650  0.4757
   83SOPE  H11S 7650   5.255   6.057   4.021  1.6840 -2.8429 -1.8849
   83SOPE  C212 7651   5.137   6.045   4.193  0.5751 -0.4306 -0.0857
   83SOPE  H12R 7652   5.090   6.146   4.187  0.1090 -0.7375 -2.2251
   83SOPE  H12S 7653   5.235   6.060   4.244  1.4897  2.2425 -2.3826
   83SOPE  C213 7654   5.045   5.947   4.268 -0.6242 -1.3134  0.2677
   83SOPE  H13R 7655   5.096   5.848   4.271  0.7326 -0.7689 -2.3772
   83SOPE  H13S 7656   4.950   5.949   4.212 -0.0934  2.5886 -0.7651
   83SOPE  C214 7657   5.021   5.985   4.413  0.4082  0.3905 -0.4222
   83SOPE  H14R 7658   4.985   6.087   4.436  0.5647 -0.1613  2.8935
   83SOPE  H14S 7659   5.123   5.983   4.457  0.6961 -1.4555 -1.0861
   83SOPE  C215 7660   4.929   5.892   4.487 -0.1772  0.1326  0.3713
   83SOPE  H15R 7661   4.959   5.785   4.496  1.6170  0.5373 -0.4638
   83SOPE  H15S 7662   4.826   5.905   4.447 -0.1665  2.0298  0.8700
   83SOPE  C216 7663   4.911   5.938   4.626 -0.0685  0.6922  0.0476
   83SOPE  H16R 7664   4.921   6.049   4.627  2.0699  0.5370  0.2409
   83SOPE  H16S 7665   5.001   5.918   4.687 -1.1530  0.2465  1.5788
   83SOPE  C217 7666   4.775   5.881   4.678  0.4083  0.1341 -0.3521
   83SOPE  H17R 7667   4.771   5.774   4.709 -1.3135  0.9648  2.6821
   83SOPE  H17S 7668   4.693   5.890   4.604 -2.7869  0.1215  2.9272
   83SOPE  C218 7669   4.735   5.965   4.799  0.0174  0.4074  0.2390
   83SOPE  H18R 7670   4.810   5.944   4.878  0.2483 -1.8369 -0.5080
   83SOPE  H18S 7671   4.635   5.929   4.833 -0.3936  0.6457 -0.7022
   83SOPE  H18T 7672   4.722   6.074   4.782 -3.0978  0.6868  3.2239
   83SOPE   C33 7673   4.405   5.136   3.290  0.0652 -0.2239  0.7323
   83SOPE   H3X 7674   4.476   5.107   3.370 -0.3430  2.1300  2.0387
   83SOPE   H3Y 7675   4.328   5.057   3.297 -0.5490  0.3989  1.1001
   83SOPE   C34 7676   4.340   5.266   3.332 -0.4339  0.0527  0.3550
   83SOPE   H4X 7677   4.280   5.300   3.245 -0.2925  1.6504  0.8613
   83SOPE   H4Y 7678   4.412   5.346   3.357  1.6788 -0.9557 -2.0232
   83SOPE   C35 7679   4.264   5.244   3.455  0.1600  0.0867  0.1662
   83SOPE   H5X 7680   4.204   5.151   3.452  1.5922 -0.8442 -1.8805
   83SOPE   H5Y 7681   4.186   5.321   3.472  0.3529  0.2077  0.5350
   83SOPE   C36 7682   4.342   5.243   3.593  0.3130 -0.2000 -0.2950
   83SOPE   H6X 7683   4.397   5.340   3.598  1.3547 -0.7515 -0.7990
   83SOPE   H6Y 7684   4.421   5.165   3.583 -0.0854 -0.4675 -1.4707
   83SOPE   C37 7685   4.258   5.214   3.721 -0.1245  0.2823  0.9143
   83SOPE   H7X 7686   4.195   5.125   3.701 -0.4690  0.9548 -1.2925
   83SOPE   H7Y 7687   4.200   5.307   3.738  0.2088  0.5830  0.4529
   83SOPE   C38 7688   4.334   5.186   3.853  0.9369  0.5214  0.2860
   83SOPE   H8X 7689   4.424   5.251   3.863 -0.5246  2.8222 -0.5045
   83SOPE   H8Y 7690   4.370   5.081   3.848  0.6772  0.4777 -3.6155
   83SOPE   C39 7691   4.242   5.213   3.977 -0.3073 -0.2079 -0.4399
   83SOPE   H9X 7692   4.148   5.154   3.982 -0.3984  0.0195  0.7762
   83SOPE   H9Y 7693   4.203   5.317   3.970  1.2255  0.3006 -2.4058
   83SOPE  C310 7694   4.307   5.202   4.119  0.2831  0.1429 -0.3399
   83SOPE  H10X 7695   4.357   5.300   4.133  1.2995 -0.2744 -0.9489
   83SOPE  H10Y 7696   4.387   5.124   4.119 -0.2567 -0.4256 -0.9261
   83SOPE  C311 7697   4.205   5.182   4.234  0.0845 -0.1567 -0.3691
   83SOPE  H11X 7698   4.145   5.096   4.196 -0.3045 -1.6790  3.3322
   83SOPE  H11Y 7699   4.139   5.270   4.250  0.9306  0.0071  2.8990
   83SOPE  C312 7700   4.276   5.156   4.367  0.0564  0.1157  0.4981
   83SOPE  H12X 7701   4.336   5.243   4.402  1.5668  0.0916 -1.7905
   83SOPE  H12Y 7702   4.351   5.077   4.344  1.8459  1.1675  2.3592
   83SOPE  C313 7703   4.193   5.097   4.482  0.2305 -0.4064 -0.2230
   83SOPE  H13X 7704   4.271   5.074   4.558  0.4377 -0.2808 -0.3977
   83SOPE  H13Y 7705   4.141   5.002   4.454  1.6303 -1.5369  0.8782
   83SOPE  C314 7706   4.106   5.197   4.558  0.5042 -0.7791  0.1424
   83SOPE  H14X 7707   4.032   5.236   4.485  0.8730 -3.7062 -1.9802
   83SOPE  H14Y 7708   4.179   5.274   4.592  0.9017 -1.6328  1.2874
   83SOPE  C315 7709   4.056   5.147   4.694  0.8577 -0.2051  0.2293
   83SOPE  H15X 7710   4.125   5.073   4.739  0.8393 -0.0677  0.4866
   83SOPE  H15Y 7711   3.961   5.089   4.688  0.3981  0.4620  0.7492
   83SOPE  C316 7712   4.042   5.264   4.795 -0.8663  0.0187  0.2953
   83SOPE  H16X 7713   4.145   5.304   4.798 -0.1007 -1.9234  1.8697
   83SOPE  H16Y 7714   4.021   5.222   4.895  0.6966  0.9900  1.0606
   83SOPE  C317 7715   3.941   5.377   4.767 -0.1258 -0.2889 -0.6181
   83SOPE  H17X 7716   3.838   5.338   4.754 -0.1570 -0.7732  0.8822
   83SOPE  H17Y 7717   3.977   5.432   4.677  0.8561  1.5388  0.8278
   83SOPE  C318 7718   3.950   5.484   4.875  0.7528  0.3548 -0.5945
   83SOPE  H18X 7719   3.889   5.574   4.850  2.1302  1.1190 -1.2850
   83SOPE  H18Y 7720   4.055   5.517   4.882  0.9943 -0.7195  1.2972
   83SOPE  H18Z 7721   3.913   5.442   4.971 -0.0328 -0.2721 -1.1552
   84SOPE     N 7722   2.739   5.372   2.958 -0.3432 -0.6322  0.5981
   84SOPE   HN1 7723   2.763   5.389   3.057 -0.1157  0.1988  0.4046
   84SOPE   HN2 7724   2.686   5.457   2.931 -0.6940 -0.5628  1.4893
   84SOPE   HN3 7725   2.677   5.289   2.943  1.3562 -1.7377 -0.6886
   84SOPE   C12 7726   2.862   5.353   2.884  0.4397 -0.7008  0.3001
   84SOPE  H12A 7727   2.944   5.339   2.957  0.9590 -1.5839 -0.4310
   84SOPE  H12B 7728   2.870   5.441   2.817 -1.9887 -2.4455 -2.5017
   84SOPE   C11 7729   2.857   5.233   2.787  0.8556 -0.1951 -0.4036
   84SOPE  H11A 7730   2.785   5.260   2.707  0.9366  1.3086 -0.0023
   84SOPE  H11B 7731   2.813   5.141   2.830 -2.1830  0.3952 -1.9771
   84SOPE     P 7732   3.037   5.070   2.686 -0.1081 -0.5051  0.1473
   84SOPE   O13 7733   3.188   5.063   2.692  0.1202  0.1548  0.2753
   84SOPE   O14 7734   2.987   5.030   2.551  0.2405 -0.1201 -0.1596
   84SOPE   O12 7735   2.987   5.220   2.723  0.2466  0.4987  0.1586
   84SOPE   O11 7736   2.975   4.989   2.800  0.2000 -0.8698 -0.5016
   84SOPE    C1 7737   3.023   4.992   2.934  0.1884 -0.0765 -0.9323
   84SOPE    HA 7738   2.955   5.051   2.999  1.8752  0.4104  0.4403
   84SOPE    HB 7739   3.121   5.044   2.931 -0.0787  0.3961 -1.9674
   84SOPE    C2 7740   3.047   4.852   2.995 -0.3354 -0.0968  0.2940
   84SOPE    HS 7741   3.094   4.804   2.906 -1.2285  1.3977 -1.0306
   84SOPE   O21 7742   2.917   4.799   3.041 -0.0249  0.4349 -0.6646
   84SOPE   C21 7743   2.913   4.668   3.068 -0.1897 -0.1410 -0.9630
   84SOPE   O22 7744   2.998   4.585   3.057 -0.8235  0.3819 -0.1741
   84SOPE   C22 7745   2.773   4.634   3.113 -1.0716 -0.8411  0.3878
   84SOPE   H2R 7746   2.737   4.577   3.025 -1.1177  0.7130 -0.6447
   84SOPE   H2S 7747   2.719   4.731   3.123  0.3363  0.0380 -0.1716
   84SOPE    C3 7748   3.161   4.841   3.098  0.3586 -0.7854  0.6860
   84SOPE    HX 7749   3.251   4.870   3.041  1.1496 -2.9117  0.7905
   84SOPE    HY 7750   3.167   4.733   3.121  1.0195 -0.3975  2.5101
   84SOPE   O31 7751   3.152   4.913   3.222  0.0169 -0.0260  0.0174
   84SOPE   C31 7752   3.269   4.908   3.282  0.3495  0.1255 -1.0244
   84SOPE   O32 7753   3.369   4.863   3.239 -1.1075 -0.3718  0.2168
   84SOPE   C32 7754   3.256   4.971   3.424 -0.0703  0.1421 -0.4215
   84SOPE   H2X 7755   3.148   4.975   3.448 -0.2660  1.1405 -1.4149
   84SOPE   H2Y 7756   3.297   5.073   3.405  0.2858  0.1140  0.1626
   84SOPE   C23 7757   2.770   4.565   3.245 -0.5194  1.2525 -0.3939
   84SOPE   H3R 7758   2.843   4.619   3.310  0.2080 -0.3605  0.1730
   84SOPE   H3S 7759   2.800   4.460   3.229 -2.3965  0.4375  1.0118
   84SOPE   C24 7760   2.625   4.552   3.311 -0.8261 -0.2487  0.1401
   84SOPE   H4R 7761   2.618   4.647   3.368 -2.0676 -1.2314  1.7009
   84SOPE   H4S 7762   2.544   4.541   3.236 -0.2378 -1.5548 -0.3405
   84SOPE   C25 7763   2.606   4.441   3.421  0.3410 -0.4179  0.4132
   84SOPE   H5R 7764   2.497   4.444   3.439  0.0481 -0.3953 -1.2170
   84SOPE   H5S 7765   2.638   4.345   3.374  2.8397 -0.0019  1.0870
   84SOPE   C26 7766   2.685   4.462   3.549 -0.4471  0.1662  0.4139
   84SOPE   H6R 7767   2.786   4.493   3.516  0.3429 -2.4214  0.1653
   84SOPE   H6S 7768   2.641   4.551   3.599 -0.5692  1.0389 -1.1901
   84SOPE   C27 7769   2.680   4.345   3.643 -0.2367  0.0739  0.0834
   84SOPE   H7R 7770   2.578   4.318   3.678  0.5036  0.6997  3.0158
   84SOPE   H7S 7771   2.713   4.253   3.590 -1.5896 -2.1090  2.7802
   84SOPE   C28 7772   2.767   4.364   3.771  0.1071 -0.2141  0.2861
   84SOPE   H8R 7773   2.803   4.263   3.798  2.2612 -0.1015 -1.9059
   84SOPE   H8S 7774   2.854   4.419   3.731  0.2874 -0.7081  0.0009
   84SOPE   C29 7775   2.706   4.436   3.887 -0.0260  0.3647  0.2609
   84SOPE   H91 7776   2.697   4.545   3.875 -0.4436  0.3214  0.1769
   84SOPE  C210 7777   2.628   4.388   3.982  0.9864  0.4447 -0.3878
   84SOPE  H101 7778   2.598   4.461   4.058  2.0073 -1.8998  2.5022
   84SOPE  C211 7779   2.587   4.245   4.016 -0.0137  0.8135 -0.3710
   84SOPE  H11R 7780   2.586   4.189   3.919  0.3968  0.5917 -0.2506
   84SOPE  H11S 7781   2.485   4.232   4.058  0.1543 -2.0753 -0.6120
   84SOPE  C212 7782   2.685   4.169   4.105  0.2006 -0.2172  0.2745
   84SOPE  H12R 7783   2.678   4.212   4.207  1.1645  1.1760 -0.2260
   84SOPE  H12S 7784   2.787   4.181   4.063 -0.5930  0.3612 -1.5740
   84SOPE  C213 7785   2.656   4.019   4.107 -0.0269  0.0189 -0.0608
   84SOPE  H13R 7786   2.664   3.972   4.007 -0.9858 -0.5869  0.1321
   84SOPE  H13S 7787   2.547   4.012   4.129 -0.2725  2.5284 -0.1268
   84SOPE  C214 7788   2.728   3.946   4.219  0.1593 -0.0076  0.0225
   84SOPE  H14R 7789   2.836   3.970   4.216  0.0819  0.4771  0.9097
   84SOPE  H14S 7790   2.710   3.836   4.211  0.0553  0.1334 -2.6337
   84SOPE  C215 7791   2.677   3.972   4.362 -0.6036 -0.1387  0.1002
   84SOPE  H15R 7792   2.570   3.944   4.372 -0.3725 -2.1039 -2.0397
   84SOPE  H15S 7793   2.673   4.081   4.387 -1.5796  0.3859 -2.1059
   84SOPE  C216 7794   2.756   3.907   4.472 -0.0206  0.7130  0.8970
   84SOPE  H16R 7795   2.862   3.940   4.462  0.6746 -1.7567 -0.7014
   84SOPE  H16S 7796   2.761   3.798   4.451  0.0402  0.8507  0.1789
   84SOPE  C217 7797   2.699   3.913   4.618 -0.3678 -0.3881 -0.2437
   84SOPE  H17R 7798   2.599   3.865   4.616 -0.6880  0.0208  2.2144
   84SOPE  H17S 7799   2.675   4.015   4.655  0.5736  0.3290 -1.5184
   84SOPE  C218 7800   2.781   3.833   4.718  0.2748 -0.0344 -0.0989
   84SOPE  H18R 7801   2.753   3.843   4.825 -0.7518  0.9468 -0.4314
   84SOPE  H18S 7802   2.885   3.871   4.713  0.4434 -0.4310  0.3957
   84SOPE  H18T 7803   2.793   3.728   4.684  2.2069  0.6222 -1.5864
   84SOPE   C33 7804   3.333   4.910   3.541  0.2429  0.1965 -0.1720
   84SOPE   H3X 7805   3.363   4.992   3.609 -0.8363  0.4685 -0.0036
   84SOPE   H3Y 7806   3.428   4.858   3.519  0.5114  0.7619 -0.3559
   84SOPE   C34 7807   3.236   4.819   3.623 -0.3468  0.6354 -0.4726
   84SOPE   H4X 7808   3.298   4.767   3.700 -0.4522 -1.6023 -1.8187
   84SOPE   H4Y 7809   3.207   4.743   3.548  0.3969 -0.4570  0.3219
   84SOPE   C35 7810   3.109   4.870   3.686 -0.0427 -0.5889 -0.3681
   84SOPE   H5X 7811   3.068   4.779   3.735  0.2430 -0.0451  0.9023
   84SOPE   H5Y 7812   3.032   4.896   3.610 -1.0949 -1.2049  0.4443
   84SOPE   C36 7813   3.127   4.991   3.782 -0.7575 -0.3725  0.2461
   84SOPE   H6X 7814   3.194   5.070   3.742  0.9993 -2.3544 -0.8865
   84SOPE   H6Y 7815   3.187   4.947   3.865  2.1265 -0.1143 -1.5712
   84SOPE   C37 7816   3.005   5.046   3.843  0.7148 -0.2307  0.1998
   84SOPE   H7X 7817   2.956   5.125   3.782 -0.5391 -0.8516  0.3856
   84SOPE   H7Y 7818   3.032   5.085   3.944 -2.8077  1.2737  0.6962
   84SOPE   C38 7819   2.894   4.947   3.877 -1.1095  1.0746  0.4989
   84SOPE   H8X 7820   2.936   4.857   3.928  1.7630  1.1314 -1.5426
   84SOPE   H8Y 7821   2.850   4.921   3.778 -1.8381  1.3336  0.7446
   84SOPE   C39 7822   2.779   5.005   3.960  0.4319  0.4573 -0.1902
   84SOPE   H9X 7823   2.687   4.944   3.954 -0.4343  1.8626 -1.7442
   84SOPE   H9Y 7824   2.753   5.106   3.922  1.1271  0.0824 -1.7524
   84SOPE  C310 7825   2.805   5.002   4.115  0.1675  0.2311  0.1573
   84SOPE  H10X 7826   2.742   5.072   4.174 -0.8219  0.5410 -1.2172
   84SOPE  H10Y 7827   2.906   5.049   4.113  0.2733  0.0123 -1.2136
   84SOPE  C311 7828   2.805   4.869   4.179  0.2692 -0.2942 -0.3541
   84SOPE  H11X 7829   2.892   4.811   4.141  1.0959  0.4756  0.3303
   84SOPE  H11Y 7830   2.722   4.804   4.141  0.0450  0.0365 -0.4347
   84SOPE  C312 7831   2.806   4.880   4.333  0.1976  0.0038  0.3066
   84SOPE  H12X 7832   2.725   4.954   4.353  0.2541  0.0281  0.4463
   84SOPE  H12Y 7833   2.903   4.931   4.354 -0.0731  0.2620  0.9425
   84SOPE  C313 7834   2.795   4.749   4.412 -0.3757 -0.4764  0.7962
   84SOPE  H13X 7835   2.759   4.771   4.515 -0.4973  0.7039  0.5121
   84SOPE  H13Y 7836   2.896   4.703   4.417 -0.4880 -0.5830  2.6419
   84SOPE  C314 7837   2.702   4.644   4.346  0.8793 -0.0897 -0.0977
   84SOPE  H14X 7838   2.750   4.595   4.258 -1.8553 -0.2235 -1.6166
   84SOPE  H14Y 7839   2.611   4.694   4.307  0.4262  0.3626  1.4858
   84SOPE  C315 7840   2.639   4.533   4.437 -0.2050 -0.2977 -0.3230
   84SOPE  H15X 7841   2.583   4.578   4.522 -0.4115 -1.0462 -0.0518
   84SOPE  H15Y 7842   2.720   4.468   4.476 -0.1963 -0.3358 -0.4039
   84SOPE  C316 7843   2.541   4.439   4.371  0.7917 -0.1575  0.0153
   84SOPE  H16X 7844   2.578   4.403   4.273  0.4671  1.0600 -0.5790
   84SOPE  H16Y 7845   2.457   4.512   4.371  2.3011  1.8823  3.8281
   84SOPE  C317 7846   2.496   4.324   4.463  0.6098  0.1188  0.9349
   84SOPE  H17X 7847   2.459   4.371   4.557  2.2806  1.0782  1.1539
   84SOPE  H17Y 7848   2.580   4.256   4.491  1.1881  0.2816 -0.3303
   84SOPE  C318 7849   2.383   4.248   4.396 -0.0544 -0.3259  0.3412
   84SOPE  H18X 7850   2.309   4.324   4.362  1.6398  1.6842  0.9586
   84SOPE  H18Y 7851   2.338   4.176   4.467 -2.0957  1.0390  0.5200
   84SOPE  H18Z 7852   2.424   4.201   4.304  1.6338  0.8495  0.4424
   85SOPE     N 7853   0.484   5.955   2.831  0.3921 -0.8875 -0.0561
   85SOPE   HN1 7854   0.471   6.036   2.895 -0.8297 -1.5057  0.5265
   85SOPE   HN2 7855   0.549   5.981   2.755  1.7807 -1.2018  0.9761
   85SOPE   HN3 7856   0.388   5.952   2.792  0.7201 -0.3323 -0.9182
   85SOPE   C12 7857   0.509   5.827   2.902  0.2389 -0.9620 -0.8721
   85SOPE  H12A 7858   0.499   5.742   2.831 -1.2765 -0.2251 -1.5970
   85SOPE  H12B 7859   0.444   5.823   2.992  2.9748 -2.5507  1.1988
   85SOPE   C11 7860   0.649   5.807   2.958  0.0055 -0.0175  0.4290
   85SOPE  H11A 7861   0.668   5.699   2.977 -1.2135 -0.2415  0.4223
   85SOPE  H11B 7862   0.674   5.852   3.056 -0.6550 -0.3723  0.7599
   85SOPE     P 7863   0.884   5.795   2.822  0.0283 -0.4478  0.3275
   85SOPE   O13 7864   0.999   5.876   2.873  0.3690  0.0247 -0.4047
   85SOPE   O14 7865   0.883   5.771   2.674 -0.0967  0.2008  0.0341
   85SOPE   O12 7866   0.750   5.857   2.865 -0.5008 -0.1608  0.1834
   85SOPE   O11 7867   0.888   5.657   2.897  0.7672  0.0247  0.1485
   85SOPE    C1 7868   0.930   5.650   3.031 -0.6385  0.5795  0.1325
   85SOPE    HA 7869   0.881   5.567   3.087 -1.3793  1.3011  0.5884
   85SOPE    HB 7870   0.914   5.738   3.098  1.5356 -1.3352  3.4779
   85SOPE    C2 7871   1.080   5.620   3.048  0.6393  0.4923  0.3626
   85SOPE    HS 7872   1.129   5.689   2.975 -0.1452  2.3965  1.5498
   85SOPE   O21 7873   1.107   5.483   3.021  0.2970  0.6732 -0.0533
   85SOPE   C21 7874   1.225   5.432   3.001 -1.2117  0.4872  0.4177
   85SOPE   O22 7875   1.322   5.503   2.975  0.5365 -0.2050  0.0715
   85SOPE   C22 7876   1.233   5.279   3.027 -0.2596  0.2769 -0.4794
   85SOPE   H2R 7877   1.338   5.245   3.018 -0.1831  0.0514  1.0416
   85SOPE   H2S 7878   1.173   5.233   2.945 -0.3257 -2.6556  1.1017
   85SOPE    C3 7879   1.139   5.673   3.179  0.2383 -0.2469  0.9759
   85SOPE    HX 7880   1.117   5.782   3.184 -2.8282 -0.7405 -0.0957
   85SOPE    HY 7881   1.250   5.668   3.177  0.1856 -1.3931 -0.5472
   85SOPE   O31 7882   1.086   5.618   3.292 -0.2962 -0.4779  0.1394
   85SOPE   C31 7883   1.164   5.532   3.351  0.2939 -0.2673 -0.0043
   85SOPE   O32 7884   1.281   5.506   3.324 -0.6461 -0.0352 -0.3408
   85SOPE   C32 7885   1.082   5.464   3.450 -0.6171  0.0796  0.1234
   85SOPE   H2X 7886   1.123   5.362   3.464 -2.5189 -0.7271  0.1791
   85SOPE   H2Y 7887   0.981   5.460   3.403  0.2366  0.6817 -1.8534
   85SOPE   C23 7888   1.175   5.237   3.165 -0.4006 -0.7571  0.4585
   85SOPE   H3R 7889   1.073   5.280   3.176 -1.1049 -2.2366 -0.0534
   85SOPE   H3S 7890   1.244   5.284   3.239  1.7574 -2.9417 -0.0433
   85SOPE   C24 7891   1.192   5.087   3.187 -0.0391  0.9920  0.3240
   85SOPE   H4R 7892   1.133   5.038   3.107 -1.8496 -0.2770  2.3165
   85SOPE   H4S 7893   1.299   5.059   3.183 -0.5670 -1.4136  1.2789
   85SOPE   C25 7894   1.140   5.049   3.329  0.6056  0.4514 -0.5712
   85SOPE   H5R 7895   1.063   5.123   3.361  2.1189  1.2464  1.3950
   85SOPE   H5S 7896   1.094   4.947   3.325  1.3898  0.1019 -0.7638
   85SOPE   C26 7897   1.240   5.054   3.446 -0.9456  0.0516 -0.0645
   85SOPE   H6R 7898   1.311   4.975   3.413 -0.8902  0.4638 -0.9611
   85SOPE   H6S 7899   1.287   5.154   3.431 -2.5109  1.1810  2.1051
   85SOPE   C27 7900   1.175   5.036   3.584 -0.5976 -0.3112 -0.6194
   85SOPE   H7R 7901   1.116   5.125   3.614 -0.9122 -0.3690 -1.0572
   85SOPE   H7S 7902   1.112   4.945   3.575  0.2261 -0.7383 -2.6314
   85SOPE   C28 7903   1.269   5.004   3.702  0.3952 -0.3787 -0.8605
   85SOPE   H8R 7904   1.194   4.956   3.768  1.8570 -1.1852  0.2763
   85SOPE   H8S 7905   1.337   4.920   3.676 -0.4301 -0.5885 -2.4993
   85SOPE   C29 7906   1.326   5.113   3.793  0.0834  0.2211 -0.7656
   85SOPE   H91 7907   1.349   5.202   3.732  1.8507  0.9739  0.9009
   85SOPE  C210 7908   1.347   5.098   3.925  0.6473  0.6722 -0.8261
   85SOPE  H101 7909   1.387   5.183   3.984  0.1050  0.4256 -0.0918
   85SOPE  C211 7910   1.326   4.969   4.008 -0.9078 -0.6963  0.6088
   85SOPE  H11R 7911   1.430   4.936   4.030 -0.8420 -1.3988 -0.6977
   85SOPE  H11S 7912   1.274   4.888   3.952 -0.2759 -0.0305 -1.0039
   85SOPE  C212 7913   1.241   4.985   4.131  0.4851 -0.1292  0.1546
   85SOPE  H12R 7914   1.228   4.889   4.185 -1.0227 -0.8645 -1.3847
   85SOPE  H12S 7915   1.143   5.022   4.091  0.4054 -1.8367 -1.3708
   85SOPE  C213 7916   1.302   5.083   4.234  0.1109  0.7717  0.5064
   85SOPE  H13R 7917   1.313   5.184   4.191  1.9783 -0.0452 -1.0373
   85SOPE  H13S 7918   1.400   5.057   4.280  0.7168  0.2981 -1.0001
   85SOPE  C214 7919   1.209   5.087   4.353 -0.3343  0.2105 -0.3562
   85SOPE  H14R 7920   1.103   5.086   4.318 -0.0017  0.6614 -1.4115
   85SOPE  H14S 7921   1.228   5.182   4.408  0.3473 -1.2344  2.0660
   85SOPE  C215 7922   1.232   4.983   4.466 -0.4404 -0.7128 -0.4372
   85SOPE  H15R 7923   1.339   4.988   4.496 -0.9480 -2.4068  1.9163
   85SOPE  H15S 7924   1.216   4.889   4.409  0.8666 -1.4625  0.3746
   85SOPE  C216 7925   1.139   5.001   4.584 -0.5079 -0.0871 -0.0846
   85SOPE  H16R 7926   1.039   5.020   4.539 -0.0931 -0.4081 -1.1771
   85SOPE  H16S 7927   1.164   5.085   4.651 -0.3971  0.7790 -1.1889
   85SOPE  C217 7928   1.137   4.875   4.675 -0.6552 -0.1525 -0.3872
   85SOPE  H17R 7929   1.057   4.890   4.750 -0.9199 -0.2252 -0.6577
   85SOPE  H17S 7930   1.242   4.860   4.711 -0.9159 -2.3031 -0.4198
   85SOPE  C218 7931   1.098   4.741   4.608 -0.2235 -0.1100 -0.3341
   85SOPE  H18R 7932   1.011   4.766   4.543 -0.2644  1.3288  0.2311
   85SOPE  H18S 7933   1.081   4.657   4.678 -1.3047  0.2759 -0.1179
   85SOPE  H18T 7934   1.185   4.697   4.553  0.6951  0.9601  0.2132
   85SOPE   C33 7935   1.079   5.539   3.581  0.4086 -0.4815 -0.6153
   85SOPE   H3X 7936   0.998   5.613   3.600  2.7979  2.1227  0.1504
   85SOPE   H3Y 7937   1.176   5.589   3.602  1.1919 -0.6083 -3.5698
   85SOPE   C34 7938   1.073   5.428   3.692  0.4645 -0.0473 -0.7867
   85SOPE   H4X 7939   1.171   5.376   3.697  0.9090  0.6870 -1.6232
   85SOPE   H4Y 7940   0.995   5.355   3.662  0.5968  0.6529 -3.0199
   85SOPE   C35 7941   1.029   5.491   3.831  0.2625 -0.1802  0.1015
   85SOPE   H5X 7942   0.923   5.524   3.825 -0.6815 -3.0269 -0.7090
   85SOPE   H5Y 7943   1.092   5.579   3.853  0.7961 -0.3054 -0.8856
   85SOPE   C36 7944   1.052   5.388   3.940 -0.1982  0.0049 -0.8438
   85SOPE   H6X 7945   1.151   5.412   3.987 -0.7922  0.1083  0.4080
   85SOPE   H6Y 7946   1.053   5.288   3.892 -1.9479  0.7749 -2.5961
   85SOPE   C37 7947   0.937   5.383   4.047 -0.8058 -0.3938  0.0011
   85SOPE   H7X 7948   0.842   5.344   4.004  0.2873 -1.4108 -1.6197
   85SOPE   H7Y 7949   0.915   5.487   4.077  1.0999  0.1617 -0.3798
   85SOPE   C38 7950   0.974   5.319   4.176  0.1625 -0.6022 -0.6609
   85SOPE   H8X 7951   1.080   5.285   4.186  0.3875  0.3554  0.3899
   85SOPE   H8Y 7952   0.903   5.234   4.179  0.5549 -0.9054  0.5888
   85SOPE   C39 7953   0.963   5.428   4.287 -0.5361 -0.5678 -0.3538
   85SOPE   H9X 7954   0.961   5.366   4.380 -0.5992 -1.0131 -0.6500
   85SOPE   H9Y 7955   0.863   5.476   4.287 -0.3546 -0.1718  0.2653
   85SOPE  C310 7956   1.072   5.525   4.279  0.0880 -0.0273 -0.2842
   85SOPE  H10X 7957   1.070   5.588   4.188  0.9540  2.5244  1.3553
   85SOPE  H10Y 7958   1.166   5.467   4.265  0.4703  0.7317 -0.8746
   85SOPE  C311 7959   1.077   5.603   4.411  0.1295  0.6677 -0.2518
   85SOPE  H11X 7960   1.042   5.535   4.491 -0.3019  1.1592 -0.0181
   85SOPE  H11Y 7961   0.994   5.677   4.407  0.7490  1.3541 -0.8729
   85SOPE  C312 7962   1.211   5.670   4.447 -0.7264 -0.1859  0.4543
   85SOPE  H12X 7963   1.204   5.716   4.548 -2.7491 -0.3679  0.4289
   85SOPE  H12Y 7964   1.247   5.742   4.370  1.6063 -1.4780  0.2274
   85SOPE  C313 7965   1.324   5.566   4.455  0.3505 -0.8218 -0.0715
   85SOPE  H13X 7966   1.418   5.624   4.466 -0.5658  1.1610 -2.0008
   85SOPE  H13Y 7967   1.343   5.523   4.354 -0.6342  3.4517 -2.3094
   85SOPE  C314 7968   1.304   5.460   4.562  0.2462  0.1618 -0.4476
   85SOPE  H14X 7969   1.215   5.393   4.552 -0.1122  0.2647  1.6591
   85SOPE  H14Y 7970   1.281   5.512   4.657 -1.7005 -0.3980 -0.5711
   85SOPE  C315 7971   1.432   5.380   4.579  0.0909  0.5059 -0.5274
   85SOPE  H15X 7972   1.508   5.459   4.596 -0.0959  0.8545 -1.2975
   85SOPE  H15Y 7973   1.455   5.320   4.488 -1.2929 -1.7866  0.5543
   85SOPE  C316 7974   1.434   5.298   4.704  0.0296 -0.1407 -0.6597
   85SOPE  H16X 7975   1.373   5.207   4.683 -0.3745  0.1589 -0.7884
   85SOPE  H16Y 7976   1.386   5.346   4.792  0.8454 -0.5947  0.0441
   85SOPE  C317 7977   1.569   5.254   4.747 -0.2332 -0.2911 -0.2572
   85SOPE  H17X 7978   1.617   5.186   4.674  1.6363 -0.8404  1.3929
   85SOPE  H17Y 7979   1.558   5.195   4.841 -1.3177  1.5848  0.8600
   85SOPE  C318 7980   1.667   5.368   4.779  0.7047  0.7324 -0.2246
   85SOPE  H18X 7981   1.762   5.317   4.808  1.0915  2.5665  1.9686
   85SOPE  H18Y 7982   1.621   5.429   4.859 -0.0401  2.1625 -1.6833
   85SOPE  H18Z 7983   1.675   5.441   4.696  1.5224 -1.1852 -1.9206
   86SOPE     N 7984   2.039   1.685   2.755  0.1756 -0.1632 -0.2696
   86SOPE   HN1 7985   2.042   1.618   2.835  1.5259  1.5813  1.2411
   86SOPE   HN2 7986   2.054   1.779   2.797  1.3879 -0.7914  0.7812
   86SOPE   HN3 7987   1.945   1.691   2.712  0.1601  3.0826 -0.0771
   86SOPE   C12 7988   2.142   1.650   2.655 -0.4636 -0.2403 -0.2084
   86SOPE  H12A 7989   2.104   1.690   2.559 -0.9826 -0.2174  0.0015
   86SOPE  H12B 7990   2.145   1.540   2.642 -0.7912 -0.2935  0.1426
   86SOPE   C11 7991   2.276   1.702   2.702  0.2465 -0.6716 -0.1484
   86SOPE  H11A 7992   2.350   1.672   2.624  0.4488 -1.3190  0.2887
   86SOPE  H11B 7993   2.320   1.672   2.799  1.4447 -1.5379 -0.9249
   86SOPE     P 7994   2.367   1.942   2.647 -0.5806  0.4345 -0.2418
   86SOPE   O13 7995   2.312   1.977   2.514  0.2933  0.3259  0.3296
   86SOPE   O14 7996   2.495   1.859   2.644  0.0251 -0.1291  0.0525
   86SOPE   O12 7997   2.263   1.847   2.713 -1.3671  0.0215 -0.1948
   86SOPE   O11 7998   2.379   2.070   2.740  0.5380 -0.5375 -0.0159
   86SOPE    C1 7999   2.271   2.114   2.820  0.2336  0.5094 -0.0479
   86SOPE    HA 8000   2.261   2.049   2.909 -0.2811  0.5601 -0.0710
   86SOPE    HB 8001   2.181   2.118   2.756  0.9504 -0.5586 -1.1715
   86SOPE    C2 8002   2.297   2.256   2.874  0.1324  0.2006 -0.2835
   86SOPE    HS 8003   2.307   2.329   2.791 -0.8224  1.0997  0.3709
   86SOPE   O21 8004   2.417   2.262   2.956  0.2863  0.0142 -0.9153
   86SOPE   C21 8005   2.468   2.376   2.983 -0.4335 -0.5236 -0.0432
   86SOPE   O22 8006   2.436   2.480   2.921 -0.3474  0.5310 -0.4257
   86SOPE   C22 8007   2.567   2.379   3.093 -0.4217  1.0090 -0.4834
   86SOPE   H2R 8008   2.639   2.301   3.062 -1.8941 -1.6090  2.1355
   86SOPE   H2S 8009   2.522   2.353   3.191 -1.1436 -0.2738 -1.1280
   86SOPE    C3 8010   2.167   2.305   2.949 -0.1046 -0.6255  0.3132
   86SOPE    HX 8011   2.148   2.226   3.025  1.1996  0.1878  1.5487
   86SOPE    HY 8012   2.079   2.301   2.881 -1.8032 -0.7886  2.4272
   86SOPE   O31 8013   2.178   2.430   3.023 -0.0848 -0.4315 -0.2408
   86SOPE   C31 8014   2.155   2.539   2.952  0.0435  0.1861  0.0577
   86SOPE   O32 8015   2.142   2.531   2.833 -1.0896  0.2629 -0.6737
   86SOPE   C32 8016   2.131   2.660   3.035  0.5367 -1.1052 -0.1040
   86SOPE   H2X 8017   2.131   2.742   2.960 -1.6577 -2.4531 -1.7101
   86SOPE   H2Y 8018   2.219   2.668   3.101 -0.0033 -0.7178  0.5727
   86SOPE   C23 8019   2.641   2.512   3.099 -0.5899 -0.0701 -0.6063
   86SOPE   H3R 8020   2.584   2.598   3.138  3.3845  1.4077  2.6842
   86SOPE   H3S 8021   2.676   2.534   2.996  0.3284  0.4707 -0.1901
   86SOPE   C24 8022   2.769   2.515   3.188 -0.8403  0.3383 -0.0318
   86SOPE   H4R 8023   2.848   2.439   3.172 -1.7187 -0.5791 -0.1752
   86SOPE   H4S 8024   2.817   2.614   3.180 -0.3506  0.0955 -0.1715
   86SOPE   C25 8025   2.745   2.514   3.342 -0.1556 -0.5351  0.2105
   86SOPE   H5R 8026   2.678   2.597   3.375 -1.2383 -0.5555 -1.7743
   86SOPE   H5S 8027   2.688   2.425   3.378  2.1917 -0.9771  3.2774
   86SOPE   C26 8028   2.875   2.511   3.425 -0.0690  0.1190  0.6443
   86SOPE   H6R 8029   2.935   2.423   3.395  0.7426  0.2025  1.9719
   86SOPE   H6S 8030   2.932   2.604   3.407  0.7179 -0.3138  0.8707
   86SOPE   C27 8031   2.871   2.521   3.576 -0.1259 -0.7671 -0.4708
   86SOPE   H7R 8032   2.798   2.604   3.595  0.2490 -0.4557 -0.3793
   86SOPE   H7S 8033   2.826   2.430   3.620 -1.6027  0.0794 -0.1612
   86SOPE   C28 8034   3.005   2.531   3.642 -0.1584 -0.9883 -0.5314
   86SOPE   H8R 8035   3.070   2.449   3.605 -1.0127 -1.9830  0.1023
   86SOPE   H8S 8036   3.056   2.628   3.626  0.4755 -0.6293  2.9997
   86SOPE   C29 8037   2.996   2.499   3.787 -0.0218 -0.1680  0.3328
   86SOPE   H91 8038   2.959   2.402   3.824  0.1447  0.8314  3.4010
   86SOPE  C210 8039   3.031   2.575   3.890  0.2996  0.8390  0.5436
   86SOPE  H101 8040   3.029   2.533   3.991  3.6714 -3.5045 -0.8735
   86SOPE  C211 8041   3.075   2.720   3.886 -0.1004  0.0146  0.3326
   86SOPE  H11R 8042   3.047   2.767   3.789  0.8073 -2.1985 -1.0850
   86SOPE  H11S 8043   3.186   2.729   3.891 -0.1397  0.7426  0.0336
   86SOPE  C212 8044   3.014   2.797   4.002  0.4299 -0.5101  0.0940
   86SOPE  H12R 8045   3.024   2.757   4.105 -1.3247  0.1181  0.5529
   86SOPE  H12S 8046   2.903   2.801   3.991  0.4509 -0.8920 -0.2523
   86SOPE  C213 8047   3.075   2.932   4.003 -0.1418 -0.1630 -0.4598
   86SOPE  H13R 8048   3.061   2.981   3.904  0.0036 -0.3993 -0.5978
   86SOPE  H13S 8049   3.184   2.943   4.024 -0.1774  0.0869 -0.4034
   86SOPE  C214 8050   3.001   3.017   4.110  0.4397 -0.0898 -0.1741
   86SOPE  H14R 8051   3.007   2.965   4.208  4.7252  1.4584  0.5973
   86SOPE  H14S 8052   2.893   3.030   4.088 -0.2974 -5.1203 -0.6611
   86SOPE  C215 8053   3.062   3.159   4.138 -0.2953  0.0915 -0.4578
   86SOPE  H15R 8054   2.984   3.237   4.147  0.9653  1.3182  0.3884
   86SOPE  H15S 8055   3.125   3.183   4.049  3.3647 -2.2820  1.2289
   86SOPE  C216 8056   3.149   3.186   4.266 -0.5630 -0.2128  0.6789
   86SOPE  H16R 8057   3.085   3.166   4.354 -1.9305  2.8962  0.5359
   86SOPE  H16S 8058   3.173   3.295   4.267 -1.6780  0.0754 -0.6689
   86SOPE  C217 8059   3.273   3.097   4.273 -0.5062 -0.6037 -0.1474
   86SOPE  H17R 8060   3.356   3.135   4.210  2.1107 -3.7454  1.1369
   86SOPE  H17S 8061   3.233   3.004   4.229 -2.0393  0.0853 -0.2600
   86SOPE  C218 8062   3.329   3.062   4.410  0.3429 -0.7843  0.3001
   86SOPE  H18R 8063   3.258   2.996   4.464 -1.4618  1.5423  0.9648
   86SOPE  H18S 8064   3.333   3.159   4.465  1.4899 -0.2426 -0.6954
   86SOPE  H18T 8065   3.432   3.019   4.408  0.3994 -0.6202 -0.4372
   86SOPE   C33 8066   1.994   2.668   3.115  0.9427 -0.4015 -0.1793
   86SOPE   H3X 8067   1.979   2.569   3.163  1.5115  0.1228  1.1316
   86SOPE   H3Y 8068   1.911   2.670   3.041 -1.4105  1.6855  2.3100
   86SOPE   C34 8069   1.983   2.782   3.211  0.3834 -0.3289  0.5105
   86SOPE   H4X 8070   2.027   2.868   3.156 -0.4541  0.6206  1.2942
   86SOPE   H4Y 8071   2.050   2.748   3.293 -0.1794 -1.9852  0.3104
   86SOPE   C35 8072   1.840   2.816   3.247  0.1291  0.6645 -0.0999
   86SOPE   H5X 8073   1.793   2.739   3.312 -1.2694  1.8605  0.3638
   86SOPE   H5Y 8074   1.789   2.827   3.148 -0.0373  0.1306 -0.0771
   86SOPE   C36 8075   1.826   2.949   3.318 -0.0350  0.2007  0.2205
   86SOPE   H6X 8076   1.722   2.957   3.355  0.1593 -1.8565  1.3393
   86SOPE   H6Y 8077   1.832   3.031   3.243  1.8070 -1.7545 -1.9177
   86SOPE   C37 8078   1.922   2.970   3.433 -0.2414  0.3248 -0.2927
   86SOPE   H7X 8079   1.902   3.067   3.483 -1.3750 -0.4708  0.8815
   86SOPE   H7Y 8080   2.027   2.964   3.396  0.3329  1.0849  1.1232
   86SOPE   C38 8081   1.895   2.874   3.555 -0.2494 -0.3211  0.4001
   86SOPE   H8X 8082   1.915   2.770   3.520 -0.4206  0.0662 -0.9296
   86SOPE   H8Y 8083   1.788   2.871   3.586 -0.5481  3.7631  0.2961
   86SOPE   C39 8084   1.979   2.921   3.675 -0.6400 -0.2012  0.9615
   86SOPE   H9X 8085   1.958   3.029   3.688  0.2531  0.0550  0.2913
   86SOPE   H9Y 8086   2.085   2.896   3.657 -1.1427 -2.6191  0.9287
   86SOPE  C310 8087   1.937   2.860   3.807  0.1379  0.6060  1.2723
   86SOPE  H10X 8088   1.951   2.750   3.809  3.3737  0.9122  0.8576
   86SOPE  H10Y 8089   1.837   2.888   3.846 -0.4967  0.1367  0.0007
   86SOPE  C311 8090   2.028   2.915   3.918 -0.4371 -0.3814 -0.1940
   86SOPE  H11X 8091   1.997   3.021   3.928 -0.9818 -0.2815 -2.4364
   86SOPE  H11Y 8092   2.134   2.910   3.884 -0.6313  0.2279 -0.9113
   86SOPE  C312 8093   2.004   2.840   4.050 -0.8033 -0.3820 -0.5958
   86SOPE  H12X 8094   1.989   2.731   4.034 -0.6434 -0.2480 -1.7899
   86SOPE  H12Y 8095   1.913   2.878   4.101 -0.8762 -0.3028 -0.7845
   86SOPE  C313 8096   2.135   2.856   4.132 -0.3546  0.2106 -0.3602
   86SOPE  H13X 8097   2.136   2.960   4.172  0.7168  0.0035  0.1742
   86SOPE  H13Y 8098   2.219   2.847   4.060  1.1433 -1.8359  1.4932
   86SOPE  C314 8099   2.143   2.763   4.253 -0.0865  0.2550 -0.1830
   86SOPE  H14X 8100   2.250   2.741   4.270  0.2553  0.3318 -2.0054
   86SOPE  H14Y 8101   2.091   2.666   4.236 -1.6946  0.9355  0.6465
   86SOPE  C315 8102   2.105   2.836   4.385  0.8882 -0.3288 -0.2379
   86SOPE  H15X 8103   1.995   2.853   4.389  0.5821 -2.1854  0.6511
   86SOPE  H15Y 8104   2.163   2.930   4.390  0.4611 -0.1369  1.8365
   86SOPE  C316 8105   2.159   2.754   4.510  0.0060  0.0474 -0.0240
   86SOPE  H16X 8106   2.252   2.700   4.480 -0.8904 -0.2440 -2.4893
   86SOPE  H16Y 8107   2.079   2.682   4.536 -0.7033 -0.0376 -2.2445
   86SOPE  C317 8108   2.192   2.849   4.629  0.1496  0.8067  0.3662
   86SOPE  H17X 8109   2.259   2.923   4.580 -0.4452  0.8312 -0.4345
   86SOPE  H17Y 8110   2.256   2.789   4.696 -1.6380 -2.7420 -0.8695
   86SOPE  C318 8111   2.078   2.918   4.713  0.2899  0.6181  0.4127
   86SOPE  H18X 8112   2.006   2.836   4.735  0.0690  0.8178  0.4341
   86SOPE  H18Y 8113   2.031   2.997   4.651 -0.4600 -0.7557 -0.8579
   86SOPE  H18Z 8114   2.132   2.952   4.804  3.1644 -1.1566 -0.4776
   87SOPE     N 8115   4.166   0.935   2.772  0.6184  0.1715  0.0211
   87SOPE   HN1 8116   4.092   0.892   2.831  1.5345 -1.6306 -0.1012
   87SOPE   HN2 8117   4.250   0.877   2.754  0.1895 -0.4031 -0.1336
   87SOPE   HN3 8118   4.200   1.027   2.807 -0.3926 -0.3342  2.5460
   87SOPE   C12 8119   4.095   0.970   2.646 -0.2534  0.3777  0.9046
   87SOPE  H12A 8120   4.063   0.875   2.597 -0.4296  1.9401 -2.2707
   87SOPE  H12B 8121   4.168   1.018   2.577 -2.1146  0.8157 -0.8667
   87SOPE   C11 8122   3.976   1.058   2.670 -0.1331 -0.0431 -0.1614
   87SOPE  H11A 8123   3.929   1.029   2.767 -1.3199 -4.5352 -1.8257
   87SOPE  H11B 8124   3.897   1.046   2.593 -0.1863  0.8372 -0.2552
   87SOPE     P 8125   4.072   1.266   2.798  0.0517 -0.1984  0.0802
   87SOPE   O13 8126   4.106   1.406   2.757 -0.3922  0.0742 -0.6632
   87SOPE   O14 8127   4.186   1.182   2.838  0.0235  0.0105  0.7849
   87SOPE   O12 8128   4.017   1.194   2.670  0.1085  0.8620  0.6827
   87SOPE   O11 8129   3.957   1.261   2.898  0.5527 -0.3578  0.0643
   87SOPE    C1 8130   3.832   1.320   2.870  0.4143  0.4096  0.2068
   87SOPE    HA 8131   3.779   1.256   2.796  0.1186  0.9005 -0.0114
   87SOPE    HB 8132   3.846   1.422   2.828  2.3696 -0.4343 -1.3494
   87SOPE    C2 8133   3.740   1.323   2.997 -0.1781  0.5675 -0.5273
   87SOPE    HS 8134   3.637   1.317   2.956 -0.3737  1.3822 -0.1833
   87SOPE   O21 8135   3.775   1.446   3.070  0.4644 -0.0039  0.2249
   87SOPE   C21 8136   3.676   1.490   3.152 -0.8172 -0.4038 -0.2869
   87SOPE   O22 8137   3.569   1.442   3.163  0.0587  0.1657  0.0820
   87SOPE   C22 8138   3.741   1.596   3.243  0.4504 -0.0503 -0.2364
   87SOPE   H2R 8139   3.673   1.633   3.323  1.3986 -1.6094  1.3734
   87SOPE   H2S 8140   3.774   1.679   3.177  2.1506 -0.2744  0.2879
   87SOPE    C3 8141   3.779   1.202   3.091 -0.5201  0.8822  0.2323
   87SOPE    HX 8142   3.883   1.215   3.127 -0.4432 -1.4291  1.0063
   87SOPE    HY 8143   3.777   1.103   3.039  0.0553  0.0050  1.8348
   87SOPE   O31 8144   3.694   1.199   3.207  0.4701 -0.1630  0.4336
   87SOPE   C31 8145   3.579   1.139   3.190 -0.4920 -0.1634 -0.0278
   87SOPE   O32 8146   3.534   1.111   3.079  0.1885  0.5113  0.8734
   87SOPE   C32 8147   3.510   1.101   3.321 -0.4369 -0.5448 -0.3805
   87SOPE   H2X 8148   3.538   0.995   3.340  2.3491  0.4685  1.8445
   87SOPE   H2Y 8149   3.403   1.103   3.291  0.2284  0.5013 -2.9711
   87SOPE   C23 8150   3.864   1.553   3.317 -0.0632  1.2767 -1.2129
   87SOPE   H3R 8151   3.946   1.628   3.322  0.4091  0.7183  0.6689
   87SOPE   H3S 8152   3.917   1.478   3.255 -0.7026 -1.1991  1.0413
   87SOPE   C24 8153   3.841   1.482   3.455  0.0831 -0.2272 -0.1275
   87SOPE   H4R 8154   3.756   1.413   3.434  1.2777 -1.4522 -1.2036
   87SOPE   H4S 8155   3.927   1.416   3.478  1.6137  1.8754  0.4069
   87SOPE   C25 8156   3.802   1.576   3.577  0.0618 -0.2248  1.0421
   87SOPE   H5R 8157   3.882   1.653   3.583  0.3179 -0.5135  1.4087
   87SOPE   H5S 8158   3.700   1.619   3.568 -0.9107 -2.3060  1.2814
   87SOPE   C26 8159   3.812   1.507   3.715  0.2464 -0.1285 -0.7674
   87SOPE   H6R 8160   3.731   1.430   3.716  0.2183 -0.1114  0.5423
   87SOPE   H6S 8161   3.915   1.467   3.729 -0.6738 -2.0366  1.3349
   87SOPE   C27 8162   3.785   1.611   3.828  0.2958 -0.7215  0.2190
   87SOPE   H7R 8163   3.844   1.699   3.794  1.1384 -0.9956  0.9230
   87SOPE   H7S 8164   3.679   1.644   3.835 -0.1251 -1.9846  0.0281
   87SOPE   C28 8165   3.846   1.559   3.965 -0.2826 -0.8849  0.0331
   87SOPE   H8R 8166   3.923   1.480   3.950 -1.2292 -1.7999 -0.0891
   87SOPE   H8S 8167   3.888   1.652   4.010 -1.4841  0.0794 -0.7876
   87SOPE   C29 8168   3.746   1.494   4.055  0.2616  0.3083  0.3241
   87SOPE   H91 8169   3.701   1.413   3.996 -0.2390  0.2120  0.8232
   87SOPE  C210 8170   3.732   1.513   4.190  0.3596 -0.5314  0.0323
   87SOPE  H101 8171   3.648   1.462   4.240  1.4696 -1.8436  0.6189
   87SOPE  C211 8172   3.806   1.624   4.263  0.2926 -0.4996  0.2310
   87SOPE  H11R 8173   3.845   1.699   4.191 -3.2984 -1.9888 -3.7087
   87SOPE  H11S 8174   3.891   1.581   4.320  1.3439  1.6226  0.3724
   87SOPE  C212 8175   3.723   1.701   4.365 -0.7247  1.1002 -0.2134
   87SOPE  H12R 8176   3.628   1.742   4.325  1.0518  2.6735 -3.1774
   87SOPE  H12S 8177   3.785   1.784   4.407 -0.6517  1.1908 -0.5000
   87SOPE  C213 8178   3.695   1.624   4.499 -0.6588 -0.5123  0.8160
   87SOPE  H13R 8179   3.797   1.606   4.539 -0.1545  3.1427  1.5485
   87SOPE  H13S 8180   3.653   1.523   4.480  1.4878 -1.2739 -0.1850
   87SOPE  C214 8181   3.615   1.707   4.596 -0.2671 -0.0973 -0.7189
   87SOPE  H14R 8182   3.514   1.718   4.551 -1.0451 -3.0923  0.0617
   87SOPE  H14S 8183   3.656   1.811   4.592 -1.0097  0.1829 -1.4682
   87SOPE  C215 8184   3.606   1.644   4.734 -0.0925 -0.0224 -0.3744
   87SOPE  H15R 8185   3.693   1.582   4.766  1.1587  1.1532 -1.3961
   87SOPE  H15S 8186   3.518   1.579   4.715 -0.6584  1.2286 -2.4057
   87SOPE  C216 8187   3.572   1.745   4.838  0.1244 -0.6680 -0.6295
   87SOPE  H16R 8188   3.486   1.800   4.794 -1.6114 -2.5110  0.2616
   87SOPE  H16S 8189   3.654   1.820   4.840  1.3420 -1.9703 -0.1032
   87SOPE  C217 8190   3.548   1.688   4.977 -0.3059  0.3852 -0.0497
   87SOPE  H17R 8191   3.467   1.616   4.957 -0.6609  0.9777 -0.8071
   87SOPE  H17S 8192   3.510   1.772   5.040 -1.2353 -1.0868  1.4273
   87SOPE  C218 8193   3.670   1.624   5.054 -0.8671 -0.4308 -0.3673
   87SOPE  H18R 8194   3.691   1.525   5.009  1.6063  0.7346 -1.9915
   87SOPE  H18S 8195   3.647   1.606   5.161  1.6893  1.5265  0.6168
   87SOPE  H18T 8196   3.763   1.678   5.026 -0.6683 -0.1234  0.8404
   87SOPE   C33 8197   3.540   1.188   3.453  0.2521 -0.2861 -0.7147
   87SOPE   H3X 8198   3.533   1.298   3.441 -0.3913 -0.3545 -1.0159
   87SOPE   H3Y 8199   3.636   1.160   3.501  1.0458  0.4413 -1.8216
   87SOPE   C34 8200   3.433   1.164   3.569  0.1579 -0.4187 -0.2741
   87SOPE   H4X 8201   3.423   1.054   3.582 -0.6945 -0.2856  0.3022
   87SOPE   H4Y 8202   3.338   1.212   3.536 -0.0315  1.8349  3.0166
   87SOPE   C35 8203   3.483   1.212   3.707 -0.1229 -0.0082 -0.5520
   87SOPE   H5X 8204   3.504   1.321   3.703  2.0070 -0.1753  2.5577
   87SOPE   H5Y 8205   3.583   1.170   3.728  0.1635  0.1327 -1.5816
   87SOPE   C36 8206   3.389   1.184   3.831 -0.0062 -0.0028  0.0069
   87SOPE   H6X 8207   3.350   1.080   3.829 -0.5951  0.2060 -1.9547
   87SOPE   H6Y 8208   3.300   1.249   3.818  0.0873  0.2806  0.7744
   87SOPE   C37 8209   3.456   1.216   3.967 -0.0284  0.6809 -0.0143
   87SOPE   H7X 8210   3.490   1.322   3.966 -3.3879  1.8740  0.8407
   87SOPE   H7Y 8211   3.535   1.139   3.982  0.0428  0.8392  0.4418
   87SOPE   C38 8212   3.348   1.192   4.074 -0.0146 -0.0783 -0.1384
   87SOPE   H8X 8213   3.312   1.087   4.069  1.6408 -0.6851  0.2972
   87SOPE   H8Y 8214   3.259   1.259   4.063  0.1320  0.4224  1.4231
   87SOPE   C39 8215   3.410   1.223   4.215  0.3949 -0.0231 -0.3934
   87SOPE   H9X 8216   3.449   1.326   4.223  3.5623 -1.2472  1.9855
   87SOPE   H9Y 8217   3.493   1.150   4.219 -0.4447 -0.9840  0.1241
   87SOPE  C310 8218   3.329   1.181   4.328  0.7208  0.2198  0.0120
   87SOPE  H10X 8219   3.295   1.077   4.313 -4.1199  1.7793 -1.4484
   87SOPE  H10Y 8220   3.240   1.248   4.327  0.6358  0.1354  0.9620
   87SOPE  C311 8221   3.396   1.206   4.462  0.7396 -1.2313  0.6239
   87SOPE  H11X 8222   3.458   1.298   4.460 -1.6024  0.5670  2.6562
   87SOPE  H11Y 8223   3.452   1.114   4.486  1.8202 -0.0826  2.7934
   87SOPE  C312 8224   3.300   1.230   4.578 -0.3761 -0.0928 -0.8829
   87SOPE  H12X 8225   3.228   1.145   4.578 -0.4539 -0.0275 -1.7427
   87SOPE  H12Y 8226   3.258   1.332   4.571 -0.2038  0.2778  1.9866
   87SOPE  C313 8227   3.380   1.218   4.710 -0.6092  0.3518  0.2916
   87SOPE  H13X 8228   3.447   1.307   4.714 -2.0173  1.4245  0.8386
   87SOPE  H13Y 8229   3.446   1.129   4.721 -0.2355  0.8474  2.5828
   87SOPE  C314 8230   3.291   1.212   4.834  0.1427 -0.5379  0.0422
   87SOPE  H14X 8231   3.223   1.125   4.821  0.5396 -0.4726 -3.4464
   87SOPE  H14Y 8232   3.243   1.312   4.843  0.0067 -0.7568  2.4982
   87SOPE  C315 8233   3.372   1.188   4.961 -0.2987 -0.0444  0.1345
   87SOPE  H15X 8234   3.449   1.109   4.947  0.6265  0.6983  0.8882
   87SOPE  H15Y 8235   3.296   1.169   5.040 -1.6731  3.0595 -0.2666
   87SOPE  C316 8236   3.462   1.310   5.010  0.0156  0.5851  0.7963
   87SOPE  H16X 8237   3.395   1.396   5.031 -1.3441  0.0136 -1.0176
   87SOPE  H16Y 8238   3.535   1.333   4.930 -2.1263 -1.7711 -2.0494
   87SOPE  C317 8239   3.532   1.284   5.146 -0.4392  0.2646  0.1084
   87SOPE  H17X 8240   3.447   1.268   5.215  0.5531 -0.4694  1.1971
   87SOPE  H17Y 8241   3.585   1.376   5.179 -2.6397  1.5289  0.2955
   87SOPE  C318 8242   3.627   1.162   5.152  0.2741  0.1164 -0.8224
   87SOPE  H18X 8243   3.707   1.178   5.076  1.1884  1.8208  0.4262
   87SOPE  H18Y 8244   3.580   1.063   5.133  0.4038 -0.1935  0.3938
   87SOPE  H18Z 8245   3.681   1.164   5.249  0.2625  1.3883 -0.8342
   88SOPE     N 8246   4.496   1.228   2.678  0.3429  0.1247 -0.2107
   88SOPE   HN1 8247   4.516   1.134   2.637 -1.4751 -1.5124  2.3516
   88SOPE   HN2 8248   4.405   1.241   2.630  1.1081 -0.9743 -2.0608
   88SOPE   HN3 8249   4.571   1.293   2.648  1.2141 -0.8362 -0.1722
   88SOPE   C12 8250   4.495   1.217   2.827 -0.1619  1.0054  1.1371
   88SOPE  H12A 8251   4.597   1.179   2.852  0.6230  1.3196 -1.3872
   88SOPE  H12B 8252   4.420   1.141   2.856 -1.7235  1.1678 -2.0693
   88SOPE   C11 8253   4.466   1.362   2.893 -0.0959  0.4936  0.7737
   88SOPE  H11A 8254   4.496   1.353   3.000  4.1199  1.5785 -0.1483
   88SOPE  H11B 8255   4.356   1.374   2.880 -0.1660 -1.0882 -0.3664
   88SOPE     P 8256   4.598   1.589   2.868 -0.3356 -0.2485  0.3717
   88SOPE   O13 8257   4.489   1.684   2.879 -0.6091  0.0324 -0.6708
   88SOPE   O14 8258   4.709   1.612   2.771  0.9199  0.3410 -0.0932
   88SOPE   O12 8259   4.531   1.460   2.817  0.3193 -0.1573 -0.2977
   88SOPE   O11 8260   4.654   1.561   3.018  0.3116 -0.1727  0.3207
   88SOPE    C1 8261   4.782   1.510   3.041  0.2163 -0.4279 -0.0022
   88SOPE    HA 8262   4.852   1.596   3.058  0.3482 -0.0533 -2.1131
   88SOPE    HB 8263   4.826   1.453   2.957  0.6654 -0.6582  0.3835
   88SOPE    C2 8264   4.792   1.429   3.165 -0.0895  0.8186  0.6018
   88SOPE    HS 8265   4.715   1.349   3.160 -0.6417  1.3659  0.2559
   88SOPE   O21 8266   4.761   1.512   3.277  0.1046  0.6127 -0.0286
   88SOPE   C21 8267   4.679   1.454   3.366 -0.7356  0.4759 -0.1409
   88SOPE   O22 8268   4.610   1.353   3.356  0.0880 -0.3987 -0.3189
   88SOPE   C22 8269   4.666   1.547   3.481  0.0910 -0.3530 -0.2351
   88SOPE   H2R 8270   4.557   1.550   3.503 -0.4567 -0.5673 -2.6459
   88SOPE   H2S 8271   4.695   1.648   3.446  0.1966 -0.7689 -1.3838
   88SOPE    C3 8272   4.934   1.362   3.186 -0.1561  0.0934 -0.8381
   88SOPE    HX 8273   5.009   1.441   3.207  3.2244 -3.3849  1.6129
   88SOPE    HY 8274   4.964   1.308   3.093  2.2281 -0.8367  0.3800
   88SOPE   O31 8275   4.944   1.263   3.297 -0.3389  0.5961  0.5467
   88SOPE   C31 8276   4.885   1.141   3.286 -0.0973 -0.4383 -0.5256
   88SOPE   O32 8277   4.822   1.103   3.190  0.3511 -0.1864 -0.5305
   88SOPE   C32 8278   4.905   1.068   3.423  0.4565  0.1988  0.3569
   88SOPE   H2X 8279   4.980   0.987   3.420 -2.9175 -3.3291  2.2272
   88SOPE   H2Y 8280   4.808   1.015   3.434  0.4684 -0.3366 -1.6508
   88SOPE   C23 8281   4.755   1.506   3.599 -0.0530  0.2539 -0.1328
   88SOPE   H3R 8282   4.862   1.505   3.571 -0.6123 -0.8077 -2.4325
   88SOPE   H3S 8283   4.732   1.406   3.640 -1.0250  0.6329  0.2887
   88SOPE   C24 8284   4.740   1.607   3.713 -0.7068 -0.4441 -0.4160
   88SOPE   H4R 8285   4.787   1.704   3.684 -0.4932 -0.4759 -0.1876
   88SOPE   H4S 8286   4.632   1.623   3.733 -0.1232  2.2752  1.0890
   88SOPE   C25 8287   4.815   1.567   3.839 -0.4220 -0.6145  0.4552
   88SOPE   H5R 8288   4.768   1.472   3.873 -0.2350 -0.4309  1.2541
   88SOPE   H5S 8289   4.925   1.571   3.825 -0.2742 -0.3378  1.5514
   88SOPE   C26 8290   4.778   1.666   3.948  0.2575 -0.0398  0.2814
   88SOPE   H6R 8291   4.791   1.767   3.905 -0.8092 -0.5303 -1.2482
   88SOPE   H6S 8292   4.671   1.644   3.969  0.0491  0.1311 -0.5761
   88SOPE   C27 8293   4.855   1.650   4.082  0.0733 -0.6765 -0.1495
   88SOPE   H7R 8294   4.824   1.551   4.124  0.5113 -1.2833 -1.2173
   88SOPE   H7S 8295   4.962   1.650   4.054  0.3851  0.2343  0.9792
   88SOPE   C28 8296   4.829   1.762   4.184  0.6688  0.1149  0.2157
   88SOPE   H8R 8297   4.836   1.864   4.143 -0.9355  1.2216  2.4460
   88SOPE   H8S 8298   4.720   1.754   4.208  0.0355  0.0382 -2.3868
   88SOPE   C29 8299   4.917   1.735   4.301  0.0104  1.3011 -0.4529
   88SOPE   H91 8300   5.022   1.746   4.272  0.0002 -0.0193 -1.0510
   88SOPE  C210 8301   4.876   1.672   4.419  0.1732  0.0337  0.0021
   88SOPE  H101 8302   4.947   1.662   4.503  0.7688 -0.2711 -0.5315
   88SOPE  C211 8303   4.738   1.632   4.453  0.2947 -0.4104 -0.3382
   88SOPE  H11R 8304   4.658   1.660   4.382 -1.2023  0.4146  1.6009
   88SOPE  H11S 8305   4.706   1.677   4.550  0.1559  3.6138 -2.0594
   88SOPE  C212 8306   4.727   1.480   4.487  0.2254  0.6432 -0.2584
   88SOPE  H12R 8307   4.800   1.455   4.567 -0.5011  0.0592  0.2317
   88SOPE  H12S 8308   4.764   1.427   4.396 -0.8482  0.6719 -0.7311
   88SOPE  C213 8309   4.592   1.433   4.535 -0.4184 -0.2303  0.5130
   88SOPE  H13R 8310   4.513   1.473   4.467  0.8410  0.1604 -0.7773
   88SOPE  H13S 8311   4.576   1.466   4.640 -1.7025  0.6810  0.0598
   88SOPE  C214 8312   4.577   1.273   4.528  0.7926 -0.1888  0.3026
   88SOPE  H14R 8313   4.648   1.226   4.600 -0.0056 -1.3322  0.3729
   88SOPE  H14S 8314   4.613   1.225   4.434 -2.1308 -2.0084  0.0094
   88SOPE  C215 8315   4.441   1.219   4.564  0.3283 -0.2740 -0.3162
   88SOPE  H15R 8316   4.374   1.256   4.483  1.8833  0.1185 -1.4927
   88SOPE  H15S 8317   4.408   1.259   4.662  0.3169 -1.8478  0.3480
   88SOPE  C216 8318   4.442   1.065   4.554  0.2260 -0.3095 -0.0221
   88SOPE  H16R 8319   4.526   1.033   4.620  0.7320  0.1266 -0.4361
   88SOPE  H16S 8320   4.480   1.048   4.451  3.2556 -0.1618  0.9554
   88SOPE  C217 8321   4.316   1.000   4.607  0.1090  0.0268  0.5709
   88SOPE  H17R 8322   4.284   1.038   4.706  0.8911  1.1671  0.4045
   88SOPE  H17S 8323   4.340   0.892   4.621 -1.1164 -0.4163 -0.4629
   88SOPE  C218 8324   4.203   1.001   4.501 -0.7824  0.2575 -0.2647
   88SOPE  H18R 8325   4.178   1.108   4.484  0.1337  0.3711 -0.9396
   88SOPE  H18S 8326   4.112   0.950   4.540 -0.9876 -0.8149 -2.0159
   88SOPE  H18T 8327   4.236   0.954   4.406 -1.0567 -1.1765  0.3269
   88SOPE   C33 8328   4.925   1.164   3.544  1.0643 -0.2371  0.6228
   88SOPE   H3X 8329   4.826   1.215   3.553 -0.1760 -2.5917  1.3754
   88SOPE   H3Y 8330   4.999   1.242   3.516  1.6386 -1.1933 -0.5979
   88SOPE   C34 8331   4.965   1.081   3.666 -0.9531 -0.2558  0.0984
   88SOPE   H4X 8332   5.074   1.059   3.665 -0.7731  0.5072  1.1393
   88SOPE   H4Y 8333   4.925   0.979   3.685  3.1444 -1.7358  1.6903
   88SOPE   C35 8334   4.949   1.170   3.799 -0.2197  0.1029  0.6424
   88SOPE   H5X 8335   4.846   1.158   3.838 -0.9423 -1.9116 -1.6464
   88SOPE   H5Y 8336   4.971   1.276   3.774  0.8461  0.0065  1.0978
   88SOPE   C36 8337   5.054   1.137   3.913  0.0142  0.7699  0.6551
   88SOPE   H6X 8338   5.014   1.206   3.991  0.0209 -0.3386  1.6786
   88SOPE   H6Y 8339   5.154   1.168   3.876  0.3606  1.1189  1.8285
   88SOPE   C37 8340   5.044   0.996   3.970  0.2834 -0.4494  0.4856
   88SOPE   H7X 8341   5.056   0.918   3.891 -1.0014  0.3388 -0.5285
   88SOPE   H7Y 8342   4.937   0.970   3.988 -0.2677 -0.3291 -2.2131
   88SOPE   C38 8343   5.139   0.977   4.078  0.2731  0.4251  0.4044
   88SOPE   H8X 8344   5.135   1.061   4.150 -1.3949  0.6252  0.1056
   88SOPE   H8Y 8345   5.243   0.989   4.041  0.2717  0.9815  0.5633
   88SOPE   C39 8346   5.129   0.845   4.159 -0.0668 -0.1427  0.1544
   88SOPE   H9X 8347   5.156   0.762   4.090  0.2013 -0.0705  0.1686
   88SOPE   H9Y 8348   5.026   0.833   4.197 -0.1201 -1.0212 -0.2496
   88SOPE  C310 8349   5.222   0.846   4.277 -0.9352 -0.8062 -0.2814
   88SOPE  H10X 8350   5.184   0.910   4.359 -1.9249 -2.3694  0.5336
   88SOPE  H10Y 8351   5.323   0.886   4.253  0.6485 -3.5997  1.2332
   88SOPE  C311 8352   5.259   0.705   4.327  0.0451 -0.5576  0.5576
   88SOPE  H11X 8353   5.331   0.712   4.411 -0.9210 -1.9969  1.5476
   88SOPE  H11Y 8354   5.296   0.639   4.246  0.3320 -1.2066  1.2103
   88SOPE  C312 8355   5.132   0.653   4.396 -0.1848  0.1619 -0.0990
   88SOPE  H12X 8356   5.043   0.680   4.335  0.0938 -1.4894 -1.3006
   88SOPE  H12Y 8357   5.119   0.713   4.489 -0.0187 -0.7883  0.5487
   88SOPE  C313 8358   5.118   0.503   4.426 -0.3221  0.0691 -0.7592
   88SOPE  H13X 8359   5.199   0.477   4.497  0.3429  3.2959 -0.1782
   88SOPE  H13Y 8360   5.134   0.443   4.335 -1.0097 -2.8060  0.8806
   88SOPE  C314 8361   4.978   0.470   4.472  0.1505 -0.0378  0.5497
   88SOPE  H14X 8362   4.898   0.491   4.398 -1.5837 -1.4369  1.9530
   88SOPE  H14Y 8363   4.953   0.538   4.556 -0.8272  0.9085 -0.4764
   88SOPE  C315 8364   4.949   0.326   4.518 -0.4456  0.4411  0.0617
   88SOPE  H15X 8365   5.037   0.263   4.544 -0.4203 -0.1428 -1.3570
   88SOPE  H15Y 8366   4.896   0.273   4.436 -0.4406 -2.2766  1.6831
   88SOPE  C316 8367   4.862   0.323   4.642  0.6828  0.3783 -0.4199
   88SOPE  H16X 8368   4.768   0.382   4.638  0.8827  0.8980  1.4466
   88SOPE  H16Y 8369   4.910   0.373   4.729 -0.6786 -0.5416  0.9098
   88SOPE  C317 8370   4.821   0.180   4.682  0.5301  0.4595  0.1327
   88SOPE  H17X 8371   4.908   0.121   4.718  0.3261  0.6369  0.9436
   88SOPE  H17Y 8372   4.787   0.131   4.588 -2.3712  0.7785  0.9099
   88SOPE  C318 8373   4.724   0.176   4.794  0.1560  0.4651 -0.0058
   88SOPE  H18X 8374   4.772   0.184   4.894  0.5907  1.7748 -0.3086
   88SOPE  H18Y 8375   4.679   0.074   4.797  0.0528  0.5065  3.1563
   88SOPE  H18Z 8376   4.643   0.251   4.788 -0.8596 -0.6299 -0.5100
   89SAPC     N 8377   1.242   4.100   7.487 -0.2112 -0.2638 -0.5815
   89SAPC   C12 8378   1.292   4.214   7.395  0.3386  0.2507 -0.3515
   89SAPC  H12A 8379   1.364   4.277   7.445 -1.5823  1.9989  0.3200
   89SAPC  H12B 8380   1.207   4.277   7.375  0.0943  0.5050  1.4077
   89SAPC   C13 8381   1.125   4.030   7.428  0.5296 -0.3368  0.4123
   89SAPC  H13A 8382   1.046   4.102   7.440 -0.0073 -0.9180  0.4500
   89SAPC  H13B 8383   1.136   4.005   7.323 -0.0690 -3.3433  0.9616
   89SAPC  H13C 8384   1.084   3.952   7.491 -0.4753  0.0877  0.3102
   89SAPC   C14 8385   1.346   3.994   7.487  0.5792 -0.3960 -0.0814
   89SAPC  H14A 8386   1.328   3.921   7.565  0.7988  2.0202  2.3734
   89SAPC  H14B 8387   1.370   3.954   7.389  2.8052 -1.2406  0.7420
   89SAPC  H14C 8388   1.439   4.043   7.511 -0.2556  0.2993  1.9417
   89SAPC   C15 8389   1.207   4.134   7.628 -0.4350 -0.3190  0.2506
   89SAPC  H15A 8390   1.223   4.042   7.683  0.5523 -0.8400 -0.8524
   89SAPC  H15B 8391   1.281   4.206   7.660  0.8787 -1.7407  0.5454
   89SAPC  H15C 8392   1.104   4.165   7.640 -0.2440  0.9416 -1.1603
   89SAPC   C11 8393   1.338   4.180   7.252 -0.6734  0.5932  0.2136
   89SAPC  H11A 8394   1.310   4.271   7.196 -3.1979  0.8288  1.7071
   89SAPC  H11B 8395   1.273   4.094   7.222  1.9476 -2.3264  2.2818
   89SAPC     P 8396   1.584   4.263   7.224  0.3360  0.2611  0.2258
   89SAPC   O13 8397   1.551   4.371   7.312 -0.3667  0.1018  0.2912
   89SAPC   O14 8398   1.723   4.211   7.228 -0.3467 -0.0437  0.0786
   89SAPC   O12 8399   1.482   4.149   7.259  0.3954 -0.5210 -0.3325
   89SAPC   O11 8400   1.543   4.303   7.079 -0.2044 -0.0072  0.1446
   89SAPC    C1 8401   1.514   4.207   6.976 -0.2293  0.3369  0.1816
   89SAPC    HA 8402   1.453   4.120   7.006 -0.5661  0.0695 -1.1863
   89SAPC    HB 8403   1.456   4.263   6.898  2.0495  3.2395  0.3868
   89SAPC    C2 8404   1.639   4.160   6.915  0.0433  0.8117 -0.2198
   89SAPC    HS 8405   1.698   4.111   6.995  1.2578  0.0783 -1.5337
   89SAPC   O21 8406   1.725   4.267   6.870  0.1325 -0.0319  0.8985
   89SAPC   C21 8407   1.853   4.238   6.842  0.1120 -0.1258 -0.5512
   89SAPC   O22 8408   1.905   4.132   6.845 -0.1520 -0.6614  0.0538
   89SAPC   C22 8409   1.912   4.371   6.810 -0.7885  0.5340  0.5756
   89SAPC   H2R 8410   1.834   4.435   6.763 -0.8206 -0.6418 -1.0444
   89SAPC   H2S 8411   1.937   4.420   6.907  0.2376  0.4826  0.3514
   89SAPC    C3 8412   1.605   4.067   6.793  0.4089  0.0966 -0.7249
   89SAPC    HX 8413   1.530   3.988   6.815 -1.3433  2.3880  2.2527
   89SAPC    HY 8414   1.696   4.014   6.756 -0.0483 -0.6640 -0.7722
   89SAPC   O31 8415   1.543   4.147   6.686 -0.0011 -0.4159 -0.1271
   89SAPC   C31 8416   1.600   4.160   6.578 -0.2142  0.2097  0.5094
   89SAPC   O32 8417   1.715   4.120   6.556 -0.0962 -0.0581 -0.1094
   89SAPC   C32 8418   1.515   4.248   6.483  0.1298  0.0408  0.9114
   89SAPC   H2X 8419   1.458   4.328   6.536 -1.7223 -0.8432  0.3476
   89SAPC   H2Y 8420   1.446   4.171   6.441  0.2856 -1.5485  3.3712
   89SAPC   C23 8421   2.042   4.362   6.729  0.4730 -0.9167 -0.2542
   89SAPC   H3R 8422   2.111   4.278   6.751  2.2639  0.8318  1.1910
   89SAPC   H3S 8423   2.100   4.457   6.730  3.2146 -2.4776 -0.6387
   89SAPC   C24 8424   1.995   4.363   6.586  0.2188 -0.0811 -0.1477
   89SAPC   H4R 8425   1.932   4.450   6.557  1.6620  1.9499  2.4213
   89SAPC   H4S 8426   1.934   4.271   6.573  1.3104 -0.8937  0.2997
   89SAPC   C25 8427   2.119   4.360   6.492  0.3723  0.4973 -0.3545
   89SAPC   H5R 8428   2.210   4.335   6.549 -0.2548 -2.4963 -0.4698
   89SAPC   C26 8429   2.112   4.368   6.356 -0.1309  0.6957 -0.4234
   89SAPC   H6R 8430   2.203   4.338   6.302 -1.4798 -3.0945 -0.9141
   89SAPC   C27 8431   1.985   4.392   6.278 -0.0912  0.2319  0.3554
   89SAPC   H7R 8432   1.903   4.346   6.339  0.6122 -3.8065 -1.3829
   89SAPC   H7S 8433   1.987   4.319   6.193 -0.8207 -1.5448  1.7880
   89SAPC   C28 8434   1.970   4.539   6.250  0.0376  0.5762  0.7035
   89SAPC   H8R 8435   1.978   4.606   6.337  2.8647  1.9059 -0.4428
   89SAPC   C29 8436   1.952   4.593   6.125 -0.2776  0.3379  0.0666
   89SAPC   H9R 8437   1.937   4.701   6.117 -0.1209  0.3626  0.1000
   89SAPC  C210 8438   1.944   4.531   5.989  1.1579 -0.9157  1.3326
   89SAPC  H10R 8439   1.865   4.574   5.924  2.1920 -2.3094 -0.9841
   89SAPC  H10S 8440   1.907   4.427   5.998  0.7163 -0.7702  1.2227
   89SAPC  C211 8441   2.078   4.540   5.927 -0.3579 -0.1770  0.4606
   89SAPC  H11R 8442   2.165   4.525   5.993 -0.5375 -0.4555  0.6364
   89SAPC  C212 8443   2.099   4.542   5.790 -0.1535  0.5214 -0.3154
   89SAPC  H12R 8444   2.202   4.552   5.754  0.2668  1.6478  1.1010
   89SAPC  C213 8445   1.994   4.539   5.686  0.8362  0.2750  0.4566
   89SAPC  H13R 8446   2.025   4.619   5.615  1.2008  0.7625  1.1564
   89SAPC  H13S 8447   1.900   4.567   5.738  0.9445 -0.2055  0.9228
   89SAPC  C214 8448   1.977   4.409   5.605  0.1480  0.2990 -0.2939
   89SAPC  H14R 8449   1.955   4.322   5.669  0.3588  1.8163  1.9380
   89SAPC  C215 8450   1.973   4.397   5.467  0.2341 -0.4318  0.4782
   89SAPC  H15R 8451   1.955   4.297   5.425 -0.2919  0.2887 -1.0934
   89SAPC  C216 8452   2.013   4.491   5.350  0.7803 -0.3080 -0.1890
   89SAPC  H16R 8453   2.105   4.449   5.304  1.7504 -2.7486  3.4848
   89SAPC  H16S 8454   2.037   4.589   5.396 -3.1827  1.1924 -0.9476
   89SAPC  C217 8455   1.893   4.522   5.263  0.5829 -0.4711 -0.0689
   89SAPC  H17R 8456   1.916   4.610   5.200 -0.8231 -0.0191  0.0099
   89SAPC  H17S 8457   1.803   4.549   5.321 -0.7042 -1.2067 -1.6413
   89SAPC  C218 8458   1.849   4.407   5.170 -0.4358 -0.9839  0.4412
   89SAPC  H18R 8459   1.811   4.320   5.228 -2.0848 -0.0935  0.7562
   89SAPC  H18S 8460   1.945   4.382   5.120 -1.8746 -1.3378 -2.3593
   89SAPC  C219 8461   1.751   4.437   5.054 -0.5245  0.2847  0.1048
   89SAPC  H19R 8462   1.650   4.458   5.094 -0.4152 -1.0950  1.1588
   89SAPC  H19S 8463   1.755   4.347   4.990  1.2583  1.1134 -1.0559
   89SAPC  C220 8464   1.791   4.557   4.967 -0.1283 -0.5639  0.2656
   89SAPC  H20R 8465   1.899   4.558   4.942  0.0356  1.4631  0.8231
   89SAPC  H20S 8466   1.782   4.648   5.030 -0.2949 -1.3702  1.4469
   89SAPC  H20T 8467   1.741   4.575   4.869 -1.5794 -0.4367  1.0122
   89SAPC   C33 8468   1.604   4.316   6.371  0.1322  0.3443  0.4656
   89SAPC   H3X 8469   1.672   4.234   6.339  1.4343 -0.2055  4.0974
   89SAPC   H3Y 8470   1.665   4.398   6.413  2.1497 -0.8708  0.0261
   89SAPC   C34 8471   1.529   4.363   6.245 -0.3673  0.2387  0.3549
   89SAPC   H4X 8472   1.601   4.386   6.163 -1.8517 -0.3737 -1.1838
   89SAPC   H4Y 8473   1.484   4.457   6.284  0.5119 -0.1197  2.3565
   89SAPC   C35 8474   1.424   4.263   6.190  0.2172  0.7139  0.0741
   89SAPC   H5X 8475   1.332   4.269   6.251  1.5623  1.3772  2.1322
   89SAPC   H5Y 8476   1.468   4.161   6.197  0.2666  0.8104  1.5238
   89SAPC   C36 8477   1.382   4.293   6.047  0.2466  0.0470 -0.1927
   89SAPC   H6X 8478   1.357   4.399   6.024  0.2184 -0.4442 -2.7678
   89SAPC   H6Y 8479   1.292   4.240   6.009  0.7249 -0.4885 -0.5978
   89SAPC   C37 8480   1.498   4.262   5.949 -0.3236  0.4037  0.4884
   89SAPC   H7X 8481   1.526   4.155   5.955  1.4540  0.8155  0.0577
   89SAPC   H7Y 8482   1.587   4.326   5.964  0.4103 -0.6188  0.5586
   89SAPC   C38 8483   1.470   4.290   5.803 -0.1512 -0.3117  0.2567
   89SAPC   H8X 8484   1.433   4.395   5.798  1.8943  0.3967 -2.0979
   89SAPC   H8Y 8485   1.391   4.226   5.758  1.0114 -0.5735 -1.5337
   89SAPC   C39 8486   1.601   4.291   5.723 -0.0439  0.5349 -0.0457
   89SAPC   H9X 8487   1.649   4.191   5.729  1.0045  0.8105 -2.4349
   89SAPC   H9Y 8488   1.676   4.359   5.767  0.9935 -0.6041 -0.0079
   89SAPC  C310 8489   1.584   4.328   5.571  0.3275  0.5094  0.7468
   89SAPC  H10X 8490   1.677   4.299   5.517 -0.1002  2.3218 -1.1167
   89SAPC  H10Y 8491   1.558   4.435   5.553 -1.5384 -0.0637 -0.2150
   89SAPC  C311 8492   1.484   4.239   5.501  0.7148 -0.0546  0.6492
   89SAPC  H11X 8493   1.383   4.276   5.528  1.8670  1.4182  3.3304
   89SAPC  H11Y 8494   1.493   4.132   5.528 -0.7633 -0.7421 -1.3913
   89SAPC  C312 8495   1.495   4.260   5.350  0.6678  0.5346 -0.1501
   89SAPC  H12X 8496   1.593   4.220   5.316  0.2770 -1.1426  0.6014
   89SAPC  H12Y 8497   1.494   4.365   5.314  2.7641  0.6407 -0.0156
   89SAPC  C313 8498   1.403   4.169   5.269  0.5863  0.3716 -0.0772
   89SAPC  H13X 8499   1.407   4.066   5.309  2.7046  0.0705 -0.9192
   89SAPC  H13Y 8500   1.442   4.165   5.165  1.0456  4.0678 -0.1833
   89SAPC  C314 8501   1.260   4.224   5.269  0.2848  0.9144  0.6153
   89SAPC  H14X 8502   1.205   4.211   5.365 -0.7752 -1.4637 -0.2490
   89SAPC  H14Y 8503   1.200   4.167   5.196 -3.3727  2.5541  2.1231
   89SAPC  C315 8504   1.247   4.367   5.226  0.1607 -0.2259 -0.4313
   89SAPC  H15X 8505   1.296   4.444   5.290  0.3643  0.9032 -1.9021
   89SAPC  H15Y 8506   1.138   4.387   5.235  0.0718 -0.6211 -0.6374
   89SAPC  C316 8507   1.294   4.394   5.077 -0.1287 -0.3170 -0.3582
   89SAPC  H16X 8508   1.236   4.318   5.020 -0.9923 -0.9584  1.2795
   89SAPC  H16Y 8509   1.401   4.367   5.072  0.2945  0.8137  1.5279
   89SAPC  C317 8510   1.272   4.537   5.034  0.1941  0.6279  0.5923
   89SAPC  H17X 8511   1.164   4.564   5.032  0.1968  0.6243 -0.2228
   89SAPC  H17Y 8512   1.294   4.540   4.925 -0.9271 -0.9021  0.3030
   89SAPC  C318 8513   1.349   4.642   5.110 -0.3648 -0.0610 -0.2668
   89SAPC  H18X 8514   1.334   4.635   5.220 -1.7523  2.9368 -0.1687
   89SAPC  H18Y 8515   1.311   4.744   5.090  0.6798  0.7926  1.8505
   89SAPC  H18Z 8516   1.457   4.636   5.085 -0.4418 -1.2535 -0.3690
   90SAPC     N 8517   1.106   0.887   7.941  0.2023 -0.1829 -0.5992
   90SAPC   C12 8518   1.188   0.939   7.834 -0.3218 -0.0705  0.0079
   90SAPC  H12A 8519   1.286   0.933   7.878 -0.4571 -1.0961  0.1903
   90SAPC  H12B 8520   1.175   1.044   7.810  1.8212  0.7753  2.1847
   90SAPC   C13 8521   1.137   0.960   8.071 -0.0308  0.1639 -0.1614
   90SAPC  H13A 8522   1.240   0.953   8.103  0.8932 -2.0018 -3.1783
   90SAPC  H13B 8523   1.115   1.064   8.055 -1.5748  0.0329  0.8529
   90SAPC  H13C 8524   1.082   0.910   8.150  1.5235 -1.2770  0.0717
   90SAPC   C14 8525   0.959   0.893   7.917 -0.0418 -0.2042 -0.2706
   90SAPC  H14A 8526   0.907   0.852   8.003  0.1295 -0.3683 -0.2430
   90SAPC  H14B 8527   0.937   0.995   7.892  0.5971 -0.2362 -1.0160
   90SAPC  H14C 8528   0.922   0.839   7.831  1.1725  0.0903 -0.9992
   90SAPC   C15 8529   1.142   0.744   7.975 -0.6913  0.0452  0.1022
   90SAPC  H15A 8530   1.244   0.730   8.006  0.3989  1.3576 -2.5276
   90SAPC  H15B 8531   1.073   0.694   8.042  0.4812 -3.1658 -0.8600
   90SAPC  H15C 8532   1.136   0.699   7.877  0.9064  1.9253 -0.9279
   90SAPC   C11 8533   1.188   0.870   7.693  0.0510 -0.2521  0.2011
   90SAPC  H11A 8534   1.240   0.773   7.705  1.0055  0.3619  1.3214
   90SAPC  H11B 8535   1.248   0.918   7.613 -1.4304  0.8356 -0.3201
   90SAPC     P 8536   0.990   0.975   7.549  0.5078  0.0126 -0.2108
   90SAPC   O13 8537   0.861   0.928   7.498 -0.2391 -0.4764 -0.2404
   90SAPC   O14 8538   0.983   1.102   7.625  0.3361  0.1249  0.4577
   90SAPC   O12 8539   1.054   0.863   7.640 -0.3841  0.1038 -0.1251
   90SAPC   O11 8540   1.098   0.989   7.432  0.0377  0.0272 -0.1497
   90SAPC    C1 8541   1.127   0.873   7.354 -0.3407 -0.0496  0.3080
   90SAPC    HA 8542   1.226   0.826   7.375 -0.8497 -0.9088  0.8233
   90SAPC    HB 8543   1.050   0.794   7.361  0.0602 -0.6177 -1.2508
   90SAPC    C2 8544   1.125   0.909   7.204 -0.6425  0.3465  0.3022
   90SAPC    HS 8545   1.132   0.809   7.156 -1.4150  0.3666  0.1507
   90SAPC   O21 8546   1.232   0.996   7.175 -0.3433  0.4415 -0.1200
   90SAPC   C21 8547   1.338   0.940   7.115  0.4514 -0.4775  0.7573
   90SAPC   O22 8548   1.344   0.826   7.086 -1.0693 -0.1833  0.5477
   90SAPC   C22 8549   1.444   1.054   7.092 -0.0588 -0.6858  0.5977
   90SAPC   H2R 8550   1.438   1.127   7.175  2.3501  1.2750 -0.7793
   90SAPC   H2S 8551   1.544   1.009   7.113  0.0013  0.3928  2.8364
   90SAPC    C3 8552   0.982   0.962   7.166  0.6117 -0.6083  0.1470
   90SAPC    HX 8553   0.957   1.055   7.222 -1.2722 -0.7623 -0.3973
   90SAPC    HY 8554   0.905   0.891   7.200  0.3001 -1.8757 -2.9001
   90SAPC   O31 8555   0.969   0.976   7.018 -0.0789  0.0324 -0.4312
   90SAPC   C31 8556   1.007   1.094   6.973 -0.1397  0.3202  0.1387
   90SAPC   O32 8557   1.036   1.191   7.043 -0.3351  0.3967  0.1705
   90SAPC   C32 8558   0.979   1.093   6.818  0.0129  0.0922  0.0938
   90SAPC   H2X 8559   0.881   1.042   6.808  1.2705 -2.5474  0.4862
   90SAPC   H2Y 8560   1.042   1.015   6.771 -0.3812  0.1139 -0.4871
   90SAPC   C23 8561   1.432   1.126   6.954  0.3505  0.2382 -0.3745
   90SAPC   H3R 8562   1.468   1.231   6.961 -1.1887  0.9934 -2.6670
   90SAPC   H3S 8563   1.324   1.133   6.930  0.4526  1.1605 -0.5834
   90SAPC   C24 8564   1.520   1.062   6.841  0.7788  0.5200  0.4240
   90SAPC   H4R 8565   1.627   1.061   6.870  1.2814  0.1300 -1.3331
   90SAPC   H4S 8566   1.521   1.123   6.749 -1.2256 -0.0217  0.0017
   90SAPC   C25 8567   1.476   0.918   6.800 -0.4717 -0.5433  0.2787
   90SAPC   H5R 8568   1.517   0.847   6.872  1.6332  0.6222  0.3144
   90SAPC   C26 8569   1.425   0.887   6.682  0.5949 -0.1665  0.1380
   90SAPC   H6R 8570   1.403   0.782   6.658 -0.6119  0.0767  0.0945
   90SAPC   C27 8571   1.402   0.985   6.567 -0.2431 -0.4776  0.1911
   90SAPC   H7R 8572   1.356   1.080   6.603 -1.0677 -1.3348  1.4716
   90SAPC   H7S 8573   1.318   0.946   6.507  0.6348 -2.4812  0.1940
   90SAPC   C28 8574   1.529   1.029   6.487  0.2339  0.0814 -0.0539
   90SAPC   H8R 8575   1.606   1.084   6.542  0.5350  2.0698 -2.2844
   90SAPC   C29 8576   1.550   1.018   6.356 -0.1899  0.6370  0.9752
   90SAPC   H9R 8577   1.649   1.051   6.321  1.0137 -3.1728  0.3546
   90SAPC  C210 8578   1.458   0.962   6.245  0.5954 -0.2838  0.1152
   90SAPC  H10R 8579   1.369   0.905   6.280  0.7876 -0.3822  0.4525
   90SAPC  H10S 8580   1.528   0.906   6.180  0.6012 -1.6187  1.2322
   90SAPC  C211 8581   1.404   1.076   6.162  0.4772 -0.5245 -0.8127
   90SAPC  H11R 8582   1.360   1.153   6.227  0.7914  0.4923 -1.7725
   90SAPC  C212 8583   1.397   1.093   6.030  0.2962 -0.7705 -0.9999
   90SAPC  H12R 8584   1.355   1.191   6.000  0.5820  0.7244  2.8552
   90SAPC  C213 8585   1.459   1.010   5.917  0.2763 -0.5757 -1.0165
   90SAPC  H13R 8586   1.500   0.913   5.952 -2.2874 -1.1740  0.6460
   90SAPC  H13S 8587   1.545   1.062   5.871  0.0181  2.1506  1.2927
   90SAPC  C214 8588   1.363   0.971   5.813  0.3045 -0.4358 -0.4427
   90SAPC  H14R 8589   1.328   0.870   5.838  0.4046 -0.0391  1.4548
   90SAPC  C215 8590   1.347   1.039   5.697  0.5424 -0.3386  0.4995
   90SAPC  H15R 8591   1.267   1.001   5.632 -0.2923 -0.7446  1.7173
   90SAPC  C216 8592   1.417   1.165   5.650  0.6004  0.3429  0.4262
   90SAPC  H16R 8593   1.443   1.231   5.736  1.0962 -0.1301  0.6512
   90SAPC  H16S 8594   1.345   1.209   5.579 -0.1899 -0.3410  0.7853
   90SAPC  C217 8595   1.536   1.131   5.560 -0.0451 -0.7289 -0.6371
   90SAPC  H17R 8596   1.619   1.072   5.606  0.1427 -1.1778 -1.5392
   90SAPC  H17S 8597   1.573   1.234   5.544 -0.9461 -0.3654 -0.4417
   90SAPC  C218 8598   1.499   1.064   5.426  0.4587  0.0611 -0.2266
   90SAPC  H18R 8599   1.468   1.131   5.344 -0.2966 -0.8731 -0.7227
   90SAPC  H18S 8600   1.420   0.990   5.450 -0.0675  1.6086  3.7406
   90SAPC  C219 8601   1.619   0.986   5.369  0.4936  0.3831 -0.4631
   90SAPC  H19R 8602   1.656   0.907   5.439  1.1590  1.0570 -0.0334
   90SAPC  H19S 8603   1.696   1.066   5.368 -1.6880  2.5810 -1.0653
   90SAPC  C220 8604   1.577   0.935   5.232  0.0991 -0.2849 -0.2816
   90SAPC  H20R 8605   1.670   0.894   5.186 -0.3149 -1.7824  0.1411
   90SAPC  H20S 8606   1.548   1.019   5.166  1.2682  0.0722 -0.3611
   90SAPC  H20T 8607   1.494   0.862   5.240  0.6621 -0.9354 -0.2677
   90SAPC   C33 8608   0.969   1.229   6.746 -0.2288  0.0265 -0.7043
   90SAPC   H3X 8609   1.067   1.280   6.739 -1.3214  2.1560 -1.0152
   90SAPC   H3Y 8610   0.914   1.296   6.815 -1.0733  0.1269 -1.4586
   90SAPC   C34 8611   0.891   1.205   6.609  0.4235  0.0843  0.6715
   90SAPC   H4X 8612   0.868   1.303   6.563  1.2600 -0.3026 -0.6260
   90SAPC   H4Y 8613   0.796   1.149   6.627  0.0966  0.3202 -0.2863
   90SAPC   C35 8614   0.966   1.113   6.506  0.6392  0.6093  0.6923
   90SAPC   H5X 8615   0.979   1.015   6.557  2.5263 -0.5679 -1.8901
   90SAPC   H5Y 8616   1.060   1.154   6.466  0.0880  0.1248 -1.1759
   90SAPC   C36 8617   0.876   1.087   6.381  0.2699 -0.3268  0.0709
   90SAPC   H6X 8618   0.825   1.182   6.355  0.7806 -0.6321 -2.2846
   90SAPC   H6Y 8619   0.788   1.021   6.394 -1.1209  0.7253 -3.0543
   90SAPC   C37 8620   0.974   1.026   6.273  0.5980 -0.6701  0.0699
   90SAPC   H7X 8621   1.032   0.940   6.312  2.0068 -0.5554 -1.6285
   90SAPC   H7Y 8622   1.039   1.113   6.249 -3.1752  2.2081 -0.6038
   90SAPC   C38 8623   0.901   0.988   6.148  0.5960 -0.9999 -0.1986
   90SAPC   H8X 8624   0.811   0.926   6.165 -1.3243  1.7786  0.5132
   90SAPC   H8Y 8625   0.975   0.945   6.077  3.3171  0.8175  1.3668
   90SAPC   C39 8626   0.839   1.119   6.079 -0.0725  0.5261  0.3055
   90SAPC   H9X 8627   0.912   1.202   6.064 -1.1307  1.3217 -0.5837
   90SAPC   H9Y 8628   0.757   1.159   6.143  1.6004  1.7970  1.7652
   90SAPC  C310 8629   0.776   1.075   5.948 -0.1700 -0.7024 -0.2722
   90SAPC  H10X 8630   0.702   1.149   5.913  0.4231 -0.4371 -0.9756
   90SAPC  H10Y 8631   0.734   0.972   5.959  0.0416 -0.9472 -1.6269
   90SAPC  C311 8632   0.881   1.059   5.835  0.1268 -0.0968 -0.0422
   90SAPC  H11X 8633   0.965   0.993   5.865 -0.3948 -0.3303  0.9429
   90SAPC  H11Y 8634   0.923   1.159   5.812 -0.4605  0.3015  0.5850
   90SAPC  C312 8635   0.824   1.003   5.709  0.4800  0.2584  0.3746
   90SAPC  H12X 8636   0.752   1.072   5.661 -1.3537  0.5604  3.2918
   90SAPC  H12Y 8637   0.767   0.909   5.724 -0.9222  1.1322  0.7211
   90SAPC  C313 8638   0.929   0.980   5.605  0.1035 -0.0533  0.8305
   90SAPC  H13X 8639   0.997   0.895   5.623  0.0379 -0.3213 -0.1513
   90SAPC  H13Y 8640   1.001   1.064   5.602 -1.2667  1.1938  1.3166
   90SAPC  C314 8641   0.859   0.949   5.465  0.0310 -0.3869  0.4313
   90SAPC  H14X 8642   0.791   1.033   5.440  2.1092  1.8284  1.8610
   90SAPC  H14Y 8643   0.811   0.848   5.471  1.2656 -0.9158  4.1542
   90SAPC  C315 8644   0.966   0.931   5.345 -0.2595 -0.1329 -0.5494
   90SAPC  H15X 8645   0.908   0.892   5.258 -0.3490 -1.3775  0.0514
   90SAPC  H15Y 8646   1.036   0.852   5.378  0.4307  0.3066 -0.9200
   90SAPC  C316 8647   1.042   1.057   5.324 -0.3572  0.7594  0.0026
   90SAPC  H16X 8648   1.095   1.090   5.416 -1.6550  0.7558  0.7700
   90SAPC  H16Y 8649   0.957   1.122   5.294 -1.4183 -0.3128  0.5967
   90SAPC  C317 8650   1.144   1.037   5.210  0.3383 -0.3422 -0.0683
   90SAPC  H17X 8651   1.107   0.957   5.143  0.3103 -0.3721 -0.0172
   90SAPC  H17Y 8652   1.238   1.002   5.259  1.6276  1.1974 -1.3206
   90SAPC  C318 8653   1.176   1.166   5.134  0.9393  0.5380 -0.1731
   90SAPC  H18X 8654   1.220   1.248   5.194  1.4018  0.4103 -0.3369
   90SAPC  H18Y 8655   1.078   1.207   5.100  0.8153 -1.1420 -1.9957
   90SAPC  H18Z 8656   1.241   1.138   5.048 -0.8176  0.0573 -1.4139
   91SAPC     N 8657   5.469   0.941   7.333  0.2529  0.5397  0.7409
   91SAPC   C12 8658   5.540   0.823   7.274 -0.1721  0.0154  0.2630
   91SAPC  H12A 8659   5.606   0.779   7.348  1.0822  0.8133 -0.3490
   91SAPC  H12B 8660   5.609   0.860   7.200 -0.2557  1.3158  0.8087
   91SAPC   C13 8661   5.412   1.027   7.221  0.3829  0.6057  0.2890
   91SAPC  H13A 8662   5.489   1.069   7.158  0.2589 -0.5461 -0.6632
   91SAPC  H13B 8663   5.347   0.964   7.162 -0.0293  0.1653  1.1954
   91SAPC  H13C 8664   5.352   1.107   7.260 -0.5552  0.6272 -1.1386
   91SAPC   C14 8665   5.355   0.888   7.413  0.1385  0.2460 -0.3481
   91SAPC  H14A 8666   5.293   0.828   7.347  1.2886 -0.3589 -0.9052
   91SAPC  H14B 8667   5.379   0.816   7.489 -2.4590 -3.3290 -2.5875
   91SAPC  H14C 8668   5.304   0.973   7.456 -2.3609 -0.8766 -0.8635
   91SAPC   C15 8669   5.561   1.025   7.417  0.1293 -0.1970  0.7380
   91SAPC  H15A 8670   5.496   1.106   7.446  0.2837  0.2648 -0.1545
   91SAPC  H15B 8671   5.579   0.983   7.515 -0.2258  2.6229  2.1093
   91SAPC  H15C 8672   5.646   1.063   7.363  0.4359  0.3154  1.5732
   91SAPC   C11 8673   5.467   0.707   7.211 -0.0729 -0.7114  0.5545
   91SAPC  H11A 8674   5.428   0.645   7.295  1.5334 -1.8453  0.5090
   91SAPC  H11B 8675   5.551   0.653   7.162  1.5582  0.6359  1.7463
   91SAPC     P 8676   5.227   0.704   7.114 -0.0675 -0.0781  0.6660
   91SAPC   O13 8677   5.180   0.677   7.246 -0.2753 -0.5891 -0.0100
   91SAPC   O14 8678   5.148   0.803   7.040 -0.1424 -0.0303 -0.6633
   91SAPC   O12 8679   5.372   0.745   7.109  0.0711 -0.0773 -0.0302
   91SAPC   O11 8680   5.225   0.566   7.030  0.5016 -0.3086 -0.1027
   91SAPC    C1 8681   5.325   0.521   6.945  0.2329  0.1729 -0.0413
   91SAPC    HA 8682   5.412   0.591   6.947  0.2515  0.1572 -0.2692
   91SAPC    HB 8683   5.363   0.425   6.985 -1.3690 -0.3400  0.2839
   91SAPC    C2 8684   5.270   0.486   6.806 -0.4687  0.0137 -0.6290
   91SAPC    HS 8685   5.341   0.428   6.744 -2.4613 -2.2712 -0.9263
   91SAPC   O21 8686   5.220   0.605   6.748  0.2237  0.5388  0.6246
   91SAPC   C21 8687   5.308   0.684   6.687 -0.5877  0.4908 -0.2424
   91SAPC   O22 8688   5.429   0.655   6.670  0.6595  0.1660 -0.8385
   91SAPC   C22 8689   5.241   0.814   6.643  1.2558  1.4286 -0.4589
   91SAPC   H2R 8690   5.136   0.784   6.621  1.9535  0.9920 -3.7618
   91SAPC   H2S 8691   5.251   0.888   6.724  1.1987  0.4791  0.4347
   91SAPC    C3 8692   5.139   0.399   6.819  0.6331 -0.4814  0.4379
   91SAPC    HX 8693   5.061   0.457   6.871 -1.1959 -0.6521 -1.9734
   91SAPC    HY 8694   5.155   0.309   6.882 -2.1717  0.3333  2.4759
   91SAPC   O31 8695   5.098   0.362   6.687 -0.3036 -0.2878 -0.5764
   91SAPC   C31 8696   5.174   0.259   6.638 -0.9929 -0.1508  0.0525
   91SAPC   O32 8697   5.254   0.191   6.703 -0.1466 -1.0629 -0.3106
   91SAPC   C32 8698   5.130   0.233   6.491 -0.0109 -0.2904 -0.2698
   91SAPC   H2X 8699   5.152   0.331   6.445  1.1108 -0.5109 -0.2399
   91SAPC   H2Y 8700   5.019   0.226   6.489 -0.4772  3.3622 -5.4733
   91SAPC   C23 8701   5.317   0.865   6.511 -0.1682 -0.5439 -1.3170
   91SAPC   H3R 8702   5.342   0.779   6.446 -1.4284 -1.3378 -0.7851
   91SAPC   H3S 8703   5.416   0.901   6.545 -0.5261 -0.1424 -0.6707
   91SAPC   C24 8704   5.243   0.981   6.441  0.5344  0.5248  0.0249
   91SAPC   H4R 8705   5.214   1.061   6.512 -1.3882  2.2828 -2.5363
   91SAPC   H4S 8706   5.152   0.933   6.400 -0.5826  1.3481  1.4436
   91SAPC   C25 8707   5.314   1.044   6.326  0.8526 -0.2021  0.1227
   91SAPC   H5R 8708   5.359   1.143   6.342  2.1860 -0.0998 -3.3022
   91SAPC   C26 8709   5.325   0.996   6.200  0.6171  0.3165  0.4731
   91SAPC   H6R 8710   5.395   1.045   6.130  1.3120  0.2117  1.0762
   91SAPC   C27 8711   5.269   0.868   6.151  0.7122 -0.2709 -0.3437
   91SAPC   H7R 8712   5.172   0.896   6.105 -1.1385  0.7086  3.7377
   91SAPC   H7S 8713   5.227   0.798   6.226 -2.0708  0.7419 -0.8437
   91SAPC   C28 8714   5.365   0.788   6.068  0.1269 -1.0767  0.4473
   91SAPC   H8R 8715   5.467   0.799   6.108 -0.7253 -0.4956  2.6109
   91SAPC   C29 8716   5.361   0.745   5.940  0.7240  0.0500 -0.3063
   91SAPC   H9R 8717   5.455   0.704   5.902  2.3513  0.9070  2.5201
   91SAPC  C210 8718   5.240   0.766   5.853 -0.0424  0.2913 -0.2606
   91SAPC  H10R 8719   5.147   0.751   5.913 -0.9706 -1.9945 -2.1285
   91SAPC  H10S 8720   5.231   0.682   5.782 -1.1187  1.6643 -1.8267
   91SAPC  C211 8721   5.240   0.899   5.779 -0.6450 -0.2773  0.0195
   91SAPC  H11R 8722   5.213   0.973   5.856 -1.4321 -2.5081  1.9984
   91SAPC  C212 8723   5.271   0.917   5.651 -0.0914 -0.0788 -0.3226
   91SAPC  H12R 8724   5.272   1.020   5.612  0.8071  0.0701  0.0812
   91SAPC  C213 8725   5.314   0.811   5.556 -0.4232 -0.2418  0.1110
   91SAPC  H13R 8726   5.349   0.719   5.606 -2.5127 -2.0342 -1.5333
   91SAPC  H13S 8727   5.404   0.846   5.501 -0.1566  1.4567  1.5370
   91SAPC  C214 8728   5.211   0.762   5.462  0.0875  0.7246  0.0311
   91SAPC  H14R 8729   5.109   0.802   5.466 -0.4740 -0.7464  1.2378
   91SAPC  C215 8730   5.237   0.687   5.354 -0.8170  1.0864  0.2591
   91SAPC  H15R 8731   5.152   0.662   5.288 -0.9112 -2.2848  1.4551
   91SAPC  C216 8732   5.356   0.612   5.300  1.1596 -0.2691 -0.1812
   91SAPC  H16R 8733   5.340   0.504   5.318  1.8685 -0.2255  0.7949
   91SAPC  H16S 8734   5.448   0.642   5.355 -0.7797  2.0535  2.1057
   91SAPC  C217 8735   5.386   0.625   5.152 -0.2382 -0.3779 -0.7453
   91SAPC  H17R 8736   5.307   0.572   5.095 -2.1260  0.9731  0.4858
   91SAPC  H17S 8737   5.486   0.592   5.116  0.4342 -0.2413  0.9197
   91SAPC  C218 8738   5.372   0.770   5.097  0.1221  0.8797  0.3816
   91SAPC  H18R 8739   5.448   0.836   5.143 -1.6269  1.3508  2.7969
   91SAPC  H18S 8740   5.273   0.804   5.135 -0.2861  0.9041 -0.6777
   91SAPC  C219 8741   5.369   0.772   4.945 -0.6924  0.0317  0.3292
   91SAPC  H19R 8742   5.311   0.858   4.906 -0.8507 -0.0603  0.3596
   91SAPC  H19S 8743   5.306   0.686   4.914  1.7719 -1.7679 -0.0276
   91SAPC  C220 8744   5.502   0.756   4.866  0.8027  0.1526 -0.1114
   91SAPC  H20R 8745   5.556   0.852   4.880 -0.5675  0.8929  0.3814
   91SAPC  H20S 8746   5.472   0.733   4.762 -0.9245  0.5226  0.2730
   91SAPC  H20T 8747   5.566   0.680   4.914  1.5211  0.6051 -0.3410
   91SAPC   C33 8748   5.195   0.118   6.417 -0.8873 -0.0045  0.6770
   91SAPC   H3X 8749   5.195   0.026   6.479  1.4407  1.4187  2.9791
   91SAPC   H3Y 8750   5.299   0.147   6.392 -0.5066 -0.6685  1.4443
   91SAPC   C34 8751   5.123   0.085   6.278 -0.1123 -0.7530 -0.9809
   91SAPC   H4X 8752   5.017   0.057   6.299  0.7683 -2.8386  1.1264
   91SAPC   H4Y 8753   5.164  -0.007   6.231  2.1002  0.4852 -1.6375
   91SAPC   C35 8754   5.113   0.205   6.183  0.4337  0.2604  0.2224
   91SAPC   H5X 8755   5.215   0.247   6.173  0.5190  0.5654  1.9644
   91SAPC   H5Y 8756   5.043   0.276   6.233 -1.8498  0.8469 -3.4104
   91SAPC   C36 8757   5.049   0.178   6.042 -0.1468 -0.3209  0.1866
   91SAPC   H6X 8758   5.084   0.258   5.973  1.8146  0.4308  1.9606
   91SAPC   H6Y 8759   4.939   0.168   6.052  0.1029 -1.5175  2.2822
   91SAPC   C37 8760   5.105   0.052   5.972  0.7258 -0.3621 -0.0254
   91SAPC   H7X 8761   5.082  -0.031   6.043 -1.4265 -0.7472 -1.1022
   91SAPC   H7Y 8762   5.215   0.053   5.960  0.6514  0.9513 -0.6945
   91SAPC   C38 8763   5.029   0.020   5.842  0.2164  0.1216  0.1616
   91SAPC   H8X 8764   5.002   0.103   5.774  1.7863 -0.8758 -1.8000
   91SAPC   H8Y 8765   4.933  -0.035   5.856  1.2595 -1.9474 -0.4006
   91SAPC   C39 8766   5.125  -0.076   5.770  0.5288  0.3640 -0.1166
   91SAPC   H9X 8767   5.159  -0.162   5.831 -0.0423 -0.5272 -1.0295
   91SAPC   H9Y 8768   5.214  -0.019   5.737 -1.6195  3.8902 -0.3297
   91SAPC  C310 8769   5.059  -0.135   5.642 -0.2961  0.7818 -0.3454
   91SAPC  H10X 8770   5.040  -0.047   5.578  1.3793  1.8189  0.5182
   91SAPC  H10Y 8771   4.965  -0.185   5.673 -0.5020  0.7774 -0.9711
   91SAPC  C311 8772   5.156  -0.234   5.566 -0.1858  0.2174 -0.7590
   91SAPC  H11X 8773   5.189  -0.313   5.637 -0.2036  1.0844  0.2375
   91SAPC  H11Y 8774   5.252  -0.186   5.537  1.2691 -0.3466  2.6842
   91SAPC  C312 8775   5.094  -0.303   5.447 -0.1578 -0.0307  0.0316
   91SAPC  H12X 8776   5.175  -0.367   5.407  1.5050 -0.9572  4.3776
   91SAPC  H12Y 8777   5.066  -0.235   5.363  1.3286 -1.4485 -1.6912
   91SAPC  C313 8778   4.995  -0.406   5.490  0.1328 -1.1559  0.1867
   91SAPC  H13X 8779   4.914  -0.346   5.536  1.0954  2.6056 -2.5503
   91SAPC  H13Y 8780   5.028  -0.492   5.554  0.3408 -3.0174 -2.2872
   91SAPC  C314 8781   4.926  -0.473   5.378 -0.1884 -0.1614 -0.1852
   91SAPC  H14X 8782   4.870  -0.397   5.318  0.1637  1.5369  1.5221
   91SAPC  H14Y 8783   4.846  -0.534   5.425 -0.1955  0.7656  1.0450
   91SAPC  C315 8784   5.003  -0.564   5.289  0.2899  0.1138  0.5939
   91SAPC  H15X 8785   5.057  -0.640   5.349 -0.7169 -0.0382  1.3377
   91SAPC  H15Y 8786   5.077  -0.511   5.226 -0.5819  1.2133  0.4554
   91SAPC  C316 8787   4.905  -0.648   5.196 -0.5214 -0.4096 -0.1213
   91SAPC  H16X 8788   4.813  -0.668   5.255  0.4150  0.1840  1.6020
   91SAPC  H16Y 8789   4.950  -0.750   5.186 -1.9368 -0.9702 -1.2184
   91SAPC  C317 8790   4.876  -0.596   5.060 -0.1215 -0.0127 -0.5885
   91SAPC  H17X 8791   4.786  -0.648   5.020  0.3325 -1.2376 -0.0630
   91SAPC  H17Y 8792   4.955  -0.626   4.988 -0.5477  0.9188 -1.4703
   91SAPC  C318 8793   4.855  -0.442   5.046 -0.4451  0.0235 -0.3183
   91SAPC  H18X 8794   4.785  -0.405   5.123 -0.6189 -0.8288 -0.0624
   91SAPC  H18Y 8795   4.802  -0.425   4.950 -3.0172  2.6538  1.3994
   91SAPC  H18Z 8796   4.946  -0.379   5.057 -0.4354  0.0656 -0.6167
   92SAPC     N 8797   4.678   4.688   7.309  0.7650  0.4605  0.6636
   92SAPC   C12 8798   4.559   4.613   7.315  0.6856 -0.1987  0.4989
   92SAPC  H12A 8799   4.539   4.596   7.420  0.1302  0.9234  0.5981
   92SAPC  H12B 8800   4.580   4.520   7.266 -2.1448 -0.0785 -1.1933
   92SAPC   C13 8801   4.661   4.816   7.391 -0.5591  0.0399  0.1851
   92SAPC  H13A 8802   4.565   4.855   7.358 -0.7413 -1.1488 -0.7513
   92SAPC  H13B 8803   4.649   4.805   7.498  0.2113  0.5212  0.3252
   92SAPC  H13C 8804   4.747   4.874   7.362  2.6337 -3.5808  1.4847
   92SAPC   C14 8805   4.789   4.605   7.350  0.8453  0.1102  0.3560
   92SAPC  H14A 8806   4.882   4.660   7.344  1.0466 -0.3895 -4.4451
   92SAPC  H14B 8807   4.772   4.566   7.450 -0.8656 -1.9742 -0.6752
   92SAPC  H14C 8808   4.792   4.524   7.279 -2.9130  2.2229 -2.6220
   92SAPC   C15 8809   4.704   4.725   7.167 -0.7748  0.5765  0.2081
   92SAPC  H15A 8810   4.630   4.777   7.108 -0.0281  2.8643  1.1749
   92SAPC  H15B 8811   4.795   4.783   7.159 -1.6781  2.3221  1.8826
   92SAPC  H15C 8812   4.729   4.635   7.113  1.1335  0.6748  0.8580
   92SAPC   C11 8813   4.422   4.661   7.252  0.1639 -0.3843 -0.0409
   92SAPC  H11A 8814   4.347   4.592   7.297  1.1608 -1.6394 -0.2241
   92SAPC  H11B 8815   4.426   4.634   7.144 -0.8543 -0.7684  0.0041
   92SAPC     P 8816   4.274   4.858   7.359 -0.3463  0.0733  0.0689
   92SAPC   O13 8817   4.161   4.770   7.363 -0.0597  0.2045 -0.4860
   92SAPC   O14 8818   4.324   4.902   7.489  0.7659 -0.3115  0.0163
   92SAPC   O12 8819   4.398   4.798   7.276  0.4041  0.2921 -0.5318
   92SAPC   O11 8820   4.241   4.978   7.267 -0.1894 -0.8567  0.1163
   92SAPC    C1 8821   4.314   5.091   7.230 -0.1534 -0.3528  0.8318
   92SAPC    HA 8822   4.266   5.188   7.258 -1.6791 -0.9301  0.3029
   92SAPC    HB 8823   4.410   5.099   7.285 -0.3103 -0.6137  1.1483
   92SAPC    C2 8824   4.349   5.084   7.076  0.2987  0.1982  0.0003
   92SAPC    HS 8825   4.415   5.169   7.046 -1.6772  1.0737 -2.1513
   92SAPC   O21 8826   4.234   5.105   6.999  0.4617 -0.0646  0.0612
   92SAPC   C21 8827   4.189   5.227   6.976 -0.1280  0.6730  0.2497
   92SAPC   O22 8828   4.236   5.330   7.022  0.1131 -0.0678 -0.8796
   92SAPC   C22 8829   4.059   5.207   6.897  0.2384 -0.7127  0.3835
   92SAPC   H2R 8830   4.062   5.125   6.823 -1.8244 -0.6943  0.2183
   92SAPC   H2S 8831   3.982   5.178   6.972  0.5381 -2.7268 -0.0515
   92SAPC    C3 8832   4.422   4.953   7.038 -0.2551  0.1031  1.0141
   92SAPC    HX 8833   4.349   4.869   7.033 -0.7090  0.4916  0.9865
   92SAPC    HY 8834   4.508   4.936   7.106  1.3005  1.5730 -0.4890
   92SAPC   O31 8835   4.482   4.976   6.904 -0.1407  0.1699 -0.2552
   92SAPC   C31 8836   4.405   4.942   6.794  0.6567 -0.1130 -0.6367
   92SAPC   O32 8837   4.289   4.918   6.799  0.2595 -0.4288 -0.1320
   92SAPC   C32 8838   4.492   4.938   6.676 -0.3179 -0.1527  0.4123
   92SAPC   H2X 8839   4.557   5.028   6.673 -0.2306 -0.2187  0.3465
   92SAPC   H2Y 8840   4.426   4.952   6.588  1.1275  2.2381 -0.3810
   92SAPC   C23 8841   4.012   5.351   6.843 -0.3008  0.6920 -0.2279
   92SAPC   H3R 8842   4.042   5.429   6.916 -1.9643  1.8071 -0.6558
   92SAPC   H3S 8843   3.901   5.341   6.844 -0.2627  0.2642  0.7724
   92SAPC   C24 8844   4.065   5.400   6.707  0.0643 -0.2750 -0.3557
   92SAPC   H4R 8845   4.000   5.476   6.659 -1.1768 -0.6950  0.5905
   92SAPC   H4S 8846   4.080   5.312   6.641  0.9187  0.3745 -1.0458
   92SAPC   C25 8847   4.206   5.442   6.728 -0.2431 -0.1495 -0.0002
   92SAPC   H5R 8848   4.219   5.518   6.806  0.5205 -1.3601  1.0869
   92SAPC   C26 8849   4.316   5.377   6.689  0.4063 -0.3773  0.3167
   92SAPC   H6R 8850   4.409   5.417   6.732  0.8860 -0.7061 -0.3769
   92SAPC   C27 8851   4.326   5.256   6.597 -1.2785  0.1355  0.2970
   92SAPC   H7R 8852   4.268   5.171   6.639  0.8198 -0.4832  2.1604
   92SAPC   H7S 8853   4.432   5.226   6.593 -1.5795 -1.0011  0.5785
   92SAPC   C28 8854   4.285   5.294   6.451 -0.1386 -0.2598 -0.2608
   92SAPC   H8R 8855   4.228   5.387   6.441 -1.8903 -1.3156 -0.5344
   92SAPC   C29 8856   4.322   5.234   6.337  0.6199 -0.4215 -1.6357
   92SAPC   H9R 8857   4.288   5.271   6.239 -0.7865 -1.7158 -1.6835
   92SAPC  C210 8858   4.404   5.104   6.330 -0.0275 -0.5749 -0.1116
   92SAPC  H10R 8859   4.448   5.066   6.425  2.0088  1.5189 -0.1220
   92SAPC  H10S 8860   4.506   5.135   6.300 -0.2826  1.3670  0.8367
   92SAPC  C211 8861   4.362   4.992   6.235  0.7775  0.9695 -0.0848
   92SAPC  H11R 8862   4.325   4.907   6.295  2.2865  0.5062  0.2289
   92SAPC  C212 8863   4.348   4.991   6.100  1.5051 -0.2750 -0.2096
   92SAPC  H12R 8864   4.313   4.903   6.044 -0.2726 -0.7350  1.5192
   92SAPC  C213 8865   4.378   5.103   6.004 -0.0048  0.4856 -0.3588
   92SAPC  H13R 8866   4.478   5.101   5.957 -0.2849  0.5585 -0.9768
   92SAPC  H13S 8867   4.382   5.197   6.063  3.5049 -0.3401  0.9411
   92SAPC  C214 8868   4.275   5.134   5.899  0.3483 -0.8920  0.0735
   92SAPC  H14R 8869   4.172   5.125   5.937 -0.1842 -0.5350 -1.2273
   92SAPC  C215 8870   4.295   5.189   5.780  1.2752  0.0582  1.2331
   92SAPC  H15R 8871   4.213   5.200   5.708  0.3239  0.3920  2.3426
   92SAPC  C216 8872   4.429   5.220   5.720  0.6094 -0.7107  0.3651
   92SAPC  H16R 8873   4.480   5.126   5.689  0.5005 -0.5970 -0.1850
   92SAPC  H16S 8874   4.490   5.272   5.797  1.2268 -0.3713 -0.3375
   92SAPC  C217 8875   4.426   5.313   5.595  0.3304 -0.1920  0.3768
   92SAPC  H17R 8876   4.416   5.422   5.614  0.6105 -0.4329  2.0587
   92SAPC  H17S 8877   4.338   5.295   5.529 -0.4786  0.8817  1.1299
   92SAPC  C218 8878   4.551   5.293   5.504  0.2294  0.3144  0.2013
   92SAPC  H18R 8879   4.567   5.186   5.475 -0.9905  0.2156 -0.1701
   92SAPC  H18S 8880   4.645   5.323   5.555  0.3407 -1.6242  1.2589
   92SAPC  C219 8881   4.547   5.358   5.369  0.2835  0.7089  0.5960
   92SAPC  H19R 8882   4.509   5.461   5.388 -0.4644 -0.0323  3.5698
   92SAPC  H19S 8883   4.461   5.325   5.307  0.5804  0.8624  0.0917
   92SAPC  C220 8884   4.677   5.355   5.286 -0.4103 -0.2219 -0.4185
   92SAPC  H20R 8885   4.677   5.428   5.203 -0.3130 -0.8009 -0.9347
   92SAPC  H20S 8886   4.703   5.252   5.255 -0.2343  0.0734 -1.2669
   92SAPC  H20T 8887   4.760   5.390   5.351 -0.7028  1.9814 -1.1458
   92SAPC   C33 8888   4.565   4.802   6.674 -0.0398  0.0197 -0.0363
   92SAPC   H3X 8889   4.494   4.719   6.651  0.7911 -0.4340 -1.0965
   92SAPC   H3Y 8890   4.606   4.779   6.774  0.9801  0.3745 -0.3577
   92SAPC   C34 8891   4.678   4.780   6.567  0.2694  0.3623 -0.2127
   92SAPC   H4X 8892   4.724   4.680   6.578  0.4208  0.5014  0.4830
   92SAPC   H4Y 8893   4.762   4.851   6.583 -0.1102  0.8506 -0.3478
   92SAPC   C35 8894   4.621   4.787   6.420 -0.5300  0.6736  0.0436
   92SAPC   H5X 8895   4.559   4.878   6.408 -1.2610  0.4462  1.7760
   92SAPC   H5Y 8896   4.555   4.698   6.405 -1.2192  1.0653  0.6987
   92SAPC   C36 8897   4.728   4.782   6.307 -0.1146 -0.3841 -1.0626
   92SAPC   H6X 8898   4.678   4.753   6.212  0.1716 -1.5990 -0.8596
   92SAPC   H6Y 8899   4.797   4.704   6.345 -0.5159  0.2062  0.9920
   92SAPC   C37 8900   4.789   4.919   6.278  0.1532 -0.0109  0.5480
   92SAPC   H7X 8901   4.900   4.922   6.276  0.1558 -0.1714 -1.4758
   92SAPC   H7Y 8902   4.765   4.987   6.363 -1.1150  0.4049 -0.1124
   92SAPC   C38 8903   4.734   4.990   6.147 -0.5933 -0.2472 -0.5915
   92SAPC   H8X 8904   4.779   5.090   6.161 -1.9145  0.2076  0.5696
   92SAPC   H8Y 8905   4.625   5.008   6.158 -0.3322  0.6058  0.7620
   92SAPC   C39 8906   4.774   4.925   6.011  0.5844 -0.8060 -0.1838
   92SAPC   H9X 8907   4.693   4.852   5.992  0.2908 -0.1771 -1.4692
   92SAPC   H9Y 8908   4.859   4.856   6.028 -0.5868 -1.7759  2.2201
   92SAPC  C310 8909   4.792   5.026   5.895 -0.2278 -0.6105  0.2741
   92SAPC  H10X 8910   4.881   5.086   5.923  0.4805 -1.7998  0.6613
   92SAPC  H10Y 8911   4.702   5.088   5.875 -0.1499 -0.8376 -0.8444
   92SAPC  C311 8912   4.819   4.939   5.768  0.2042  0.1533  0.6147
   92SAPC  H11X 8913   4.723   4.884   5.755 -0.1872  0.4650  2.0335
   92SAPC  H11Y 8914   4.896   4.860   5.777 -0.4788 -0.6751 -0.5652
   92SAPC  C312 8915   4.847   5.030   5.642 -0.3673 -0.6511  0.5547
   92SAPC  H12X 8916   4.922   5.108   5.668 -0.8355 -0.2772  0.7982
   92SAPC  H12Y 8917   4.758   5.092   5.620  1.5655  2.5244  0.9924
   92SAPC  C313 8918   4.899   4.949   5.524 -0.4022  0.1300  0.0750
   92SAPC  H13X 8919   4.808   4.892   5.494 -0.6536 -0.1966  1.3803
   92SAPC  H13Y 8920   4.974   4.874   5.558 -1.4389 -0.7335  0.5409
   92SAPC  C314 8921   4.936   5.038   5.402 -0.8767  0.3429 -0.6495
   92SAPC  H14X 8922   4.854   5.111   5.385 -1.7805 -0.3736  0.5207
   92SAPC  H14Y 8923   4.952   4.972   5.314 -2.1172 -0.7955 -0.0541
   92SAPC  C315 8924   5.073   5.115   5.412 -0.1181  0.3796 -0.1267
   92SAPC  H15X 8925   5.142   5.040   5.456  0.0504  0.0841 -0.8820
   92SAPC  H15Y 8926   5.069   5.194   5.490 -0.5874  1.0241 -0.7909
   92SAPC  C316 8927   5.120   5.175   5.279 -0.5472 -0.8882 -1.0222
   92SAPC  H16X 8928   5.231   5.177   5.281 -0.5001 -0.7069  2.8697
   92SAPC  H16Y 8929   5.075   5.276   5.268  0.2383 -0.4883 -0.5840
   92SAPC  C317 8930   5.087   5.095   5.152 -0.5799  0.7489  0.2041
   92SAPC  H17X 8931   4.980   5.079   5.127 -0.1239  0.6772 -1.8884
   92SAPC  H17Y 8932   5.145   5.000   5.162 -0.9955  0.6549  2.0704
   92SAPC  C318 8933   5.125   5.172   5.022  0.5253 -0.1345 -0.1168
   92SAPC  H18X 8934   5.227   5.211   5.044 -0.0748  2.4096 -1.4843
   92SAPC  H18Y 8935   5.062   5.255   4.984 -0.4904 -1.4619 -1.4608
   92SAPC  H18Z 8936   5.144   5.101   4.939 -0.3732 -0.9035  0.3243
   93SAPC     N 8937   5.395   0.169   7.346 -0.3030 -0.9214  0.5832
   93SAPC   C12 8938   5.372   0.078   7.224 -0.5731  0.4947 -0.8499
   93SAPC  H12A 8939   5.264   0.081   7.222 -0.6564  0.8037  1.4945
   93SAPC  H12B 8940   5.408  -0.023   7.236  0.4566  0.8839 -0.4712
   93SAPC   C13 8941   5.353   0.311   7.310  0.6936  0.6602  0.7564
   93SAPC  H13A 8942   5.417   0.345   7.230  3.4595  0.2696  2.6472
   93SAPC  H13B 8943   5.252   0.312   7.272  1.3552 -3.8200 -1.8007
   93SAPC  H13C 8944   5.356   0.375   7.397  0.3661  2.8768 -0.7809
   93SAPC   C14 8945   5.325   0.133   7.464 -0.4456  0.1821 -0.1115
   93SAPC  H14A 8946   5.365   0.045   7.512  0.7929  1.2689  0.9127
   93SAPC  H14B 8947   5.313   0.215   7.533  0.4904 -1.4989  2.1375
   93SAPC  H14C 8948   5.225   0.096   7.444 -0.2773 -0.1123 -0.4211
   93SAPC   C15 8949   5.540   0.169   7.384  0.0204 -0.0933 -0.2144
   93SAPC  H15A 8950   5.569   0.259   7.437 -1.0195 -1.8191  3.6187
   93SAPC  H15B 8951   5.565   0.085   7.447 -1.1335 -0.5847 -0.3837
   93SAPC  H15C 8952   5.608   0.165   7.301 -1.6944 -0.9111 -1.6500
   93SAPC   C11 8953   5.430   0.133   7.091  0.3249 -0.0493 -0.3627
   93SAPC  H11A 8954   5.390   0.236   7.079  1.3797  0.2719 -1.3316
   93SAPC  H11B 8955   5.390   0.062   7.014 -1.6818 -0.1520  0.7064
   93SAPC     P 8956   5.652   0.026   7.021 -0.0549  0.5345 -0.2128
   93SAPC   O13 8957   5.792   0.067   7.008 -0.2980 -0.2697  0.4944
   93SAPC   O14 8958   5.626  -0.099   7.097  0.2014 -0.0769  0.1334
   93SAPC   O12 8959   5.574   0.144   7.092 -0.4687  0.6159 -0.2371
   93SAPC   O11 8960   5.589   0.008   6.877  0.0384 -0.1568  0.3736
   93SAPC    C1 8961   5.570   0.113   6.786  0.4834 -0.2299  0.1526
   93SAPC    HA 8962   5.482   0.172   6.819  0.2520  1.0942 -2.5254
   93SAPC    HB 8963   5.655   0.185   6.786 -0.5039  0.9948  1.6538
   93SAPC    C2 8964   5.571   0.062   6.641  0.4893 -0.4711 -0.2820
   93SAPC    HS 8965   5.673   0.020   6.636  1.1189  1.0875 -1.0624
   93SAPC   O21 8966   5.533   0.173   6.556 -0.0232 -0.5001  0.0657
   93SAPC   C21 8967   5.624   0.208   6.473  0.0827  0.4131 -0.1248
   93SAPC   O22 8968   5.734   0.160   6.467 -0.4077  0.0531 -0.0089
   93SAPC   C22 8969   5.575   0.313   6.369 -0.4161 -0.0219 -0.6486
   93SAPC   H2R 8970   5.467   0.291   6.356 -0.2380 -1.5660  0.1811
   93SAPC   H2S 8971   5.588   0.410   6.422  0.2347  0.2087 -1.2004
   93SAPC    C3 8972   5.476  -0.054   6.609  0.4652 -0.0011  0.4932
   93SAPC    HX 8973   5.375  -0.015   6.630 -0.5552 -1.0118 -2.0825
   93SAPC    HY 8974   5.495  -0.147   6.668  1.6607  0.0366  0.2008
   93SAPC   O31 8975   5.484  -0.082   6.469  0.2433 -0.0175  0.0148
   93SAPC   C31 8976   5.598  -0.147   6.442 -0.2030  0.2314 -0.1318
   93SAPC   O32 8977   5.686  -0.175   6.519 -0.0553 -0.4835  0.1350
   93SAPC   C32 8978   5.615  -0.169   6.287  0.8053  0.3031 -0.3342
   93SAPC   H2X 8979   5.600  -0.279   6.281  0.5695  0.1258  2.2084
   93SAPC   H2Y 8980   5.722  -0.156   6.261  0.7809  1.2998  0.0272
   93SAPC   C23 8981   5.657   0.312   6.229  0.7869  0.2323  0.1065
   93SAPC   H3R 8982   5.632   0.224   6.166 -0.4027  0.8553 -0.3300
   93SAPC   H3S 8983   5.765   0.320   6.254  0.5787  0.0568  1.1131
   93SAPC   C24 8984   5.619   0.432   6.141 -0.0973  0.5286 -0.3702
   93SAPC   H4R 8985   5.690   0.436   6.055  2.3492 -1.8579  1.3990
   93SAPC   H4S 8986   5.628   0.527   6.197 -1.8642  0.0215  0.8722
   93SAPC   C25 8987   5.470   0.418   6.098  0.5184 -0.3867 -0.1069
   93SAPC   H5R 8988   5.394   0.454   6.168 -0.1577 -0.4372 -0.7946
   93SAPC   C26 8989   5.431   0.371   5.979  0.8933 -0.1356 -0.5344
   93SAPC   H6R 8990   5.323   0.381   5.960  0.6539  0.2943  0.8915
   93SAPC   C27 8991   5.518   0.314   5.879  1.0361 -0.5543 -0.0492
   93SAPC   H7R 8992   5.455   0.239   5.826  1.2388  0.3364 -1.6367
   93SAPC   H7S 8993   5.605   0.275   5.936  0.7601  0.3665  1.0216
   93SAPC   C28 8994   5.574   0.403   5.774  0.0188 -0.7817  0.5100
   93SAPC   H8R 8995   5.682   0.424   5.778  0.2263 -1.7862  0.4312
   93SAPC   C29 8996   5.514   0.450   5.662  0.1653 -0.2747 -0.0531
   93SAPC   H9R 8997   5.571   0.508   5.589 -0.8536 -0.9839 -1.4504
   93SAPC  C210 8998   5.374   0.421   5.626  0.0791  0.5016  0.5874
   93SAPC  H10R 8999   5.359   0.470   5.527  1.2759 -1.7285 -0.7756
   93SAPC  H10S 9000   5.313   0.472   5.703 -1.7389 -2.8431  1.5587
   93SAPC  C211 9001   5.330   0.268   5.616 -0.1911 -0.1363  0.0750
   93SAPC  H11R 9002   5.410   0.193   5.617 -0.1074 -0.0498 -0.0391
   93SAPC  C212 9003   5.211   0.226   5.583 -0.8614 -0.2867  0.3817
   93SAPC  H12R 9004   5.187   0.120   5.601 -0.1523 -0.7478 -1.2662
   93SAPC  C213 9005   5.091   0.304   5.559  0.3906 -0.1745 -0.9737
   93SAPC  H13R 9006   5.130   0.388   5.499  2.0580  0.8483  1.3827
   93SAPC  H13S 9007   5.048   0.348   5.652  1.9832  0.9380 -0.7343
   93SAPC  C214 9008   4.983   0.233   5.477 -0.5266 -0.2959 -0.1289
   93SAPC  H14R 9009   4.894   0.190   5.527 -0.8987  0.4372 -0.1312
   93SAPC  C215 9010   4.959   0.216   5.341 -1.0580 -0.0259 -0.1453
   93SAPC  H15R 9011   4.879   0.147   5.310 -1.2866  0.3994 -0.5193
   93SAPC  C216 9012   5.052   0.267   5.232  0.0275 -0.2386  0.4172
   93SAPC  H16R 9013   5.156   0.290   5.264 -0.7658  3.1380  0.9126
   93SAPC  H16S 9014   5.021   0.365   5.191  1.7914  1.0310  1.9225
   93SAPC  C217 9015   5.064   0.176   5.109  0.0123 -0.2371 -0.1205
   93SAPC  H17R 9016   5.132   0.230   5.039 -0.4768 -0.0149 -0.4287
   93SAPC  H17S 9017   4.972   0.161   5.048 -0.0963  0.9606 -0.2811
   93SAPC  C218 9018   5.128   0.041   5.142 -0.4707  0.4225 -0.1472
   93SAPC  H18R 9019   5.140  -0.015   5.047  1.1891  1.8391 -0.8189
   93SAPC  H18S 9020   5.043   0.001   5.202 -1.3370  1.9848 -0.2759
   93SAPC  C219 9021   5.267   0.049   5.212  0.0347 -0.2494 -0.3403
   93SAPC  H19R 9022   5.297  -0.056   5.234 -2.6224 -0.7355  1.3927
   93SAPC  H19S 9023   5.259   0.107   5.307 -1.0120 -0.3902 -0.3365
   93SAPC  C220 9024   5.383   0.110   5.138  0.0812 -0.1618 -0.5235
   93SAPC  H20R 9025   5.372   0.221   5.134  1.5789  0.1143  1.2298
   93SAPC  H20S 9026   5.398   0.060   5.040 -2.4304 -0.5762 -0.7576
   93SAPC  H20T 9027   5.483   0.100   5.186  1.7772  3.2642 -2.9235
   93SAPC   C33 9028   5.524  -0.098   6.191 -0.2242  0.0866 -0.0207
   93SAPC   H3X 9029   5.514   0.009   6.217  0.4269  0.4354 -1.1631
   93SAPC   H3Y 9030   5.417  -0.129   6.195  0.1939 -1.3064  1.3754
   93SAPC   C34 9031   5.573  -0.118   6.047 -0.9162 -0.3741  0.7665
   93SAPC   H4X 9032   5.605  -0.222   6.028  1.3028  0.3327  0.4041
   93SAPC   H4Y 9033   5.657  -0.049   6.025 -2.2410  0.7990 -0.9109
   93SAPC   C35 9034   5.473  -0.065   5.942  0.2615  0.3149 -0.5133
   93SAPC   H5X 9035   5.449   0.036   5.981  1.0386 -0.2213  1.4651
   93SAPC   H5Y 9036   5.385  -0.133   5.949  0.3231  0.3334  0.6454
   93SAPC   C36 9037   5.526  -0.056   5.799 -0.7543 -0.6651 -0.2204
   93SAPC   H6X 9038   5.625  -0.006   5.787 -1.3427 -0.0853 -3.2317
   93SAPC   H6Y 9039   5.465   0.010   5.735 -0.1926  1.6906  1.5113
   93SAPC   C37 9040   5.538  -0.199   5.745 -0.5176  0.1153  0.1418
   93SAPC   H7X 9041   5.441  -0.245   5.719  0.4377 -2.1557  0.3723
   93SAPC   H7Y 9042   5.580  -0.268   5.821 -1.4344  1.6376  2.1033
   93SAPC   C38 9043   5.622  -0.194   5.616  0.1974 -0.0468 -0.6152
   93SAPC   H8X 9044   5.723  -0.169   5.653 -0.6915 -0.0610  2.0828
   93SAPC   H8Y 9045   5.577  -0.121   5.546  0.0915 -1.5313 -2.1571
   93SAPC   C39 9046   5.610  -0.330   5.543  0.3232  0.0760  1.0285
   93SAPC   H9X 9047   5.505  -0.343   5.508  0.6342 -0.0897  0.1216
   93SAPC   H9Y 9048   5.636  -0.414   5.610 -0.0203 -1.8870 -1.1453
   93SAPC  C310 9049   5.702  -0.343   5.418  0.0509 -0.7784 -0.1041
   93SAPC  H10X 9050   5.803  -0.332   5.463 -0.1621 -1.5593  0.5683
   93SAPC  H10Y 9051   5.703  -0.259   5.345  1.7098  1.8816  2.7223
   93SAPC  C311 9052   5.685  -0.483   5.348 -0.0873 -0.2607 -0.4225
   93SAPC  H11X 9053   5.653  -0.562   5.419  1.3725  0.4066  1.0393
   93SAPC  H11Y 9054   5.783  -0.516   5.306  0.6182  0.5748  0.5094
   93SAPC  C312 9055   5.562  -0.484   5.248 -0.6738  0.4841 -0.0363
   93SAPC  H12X 9056   5.582  -0.430   5.153  0.1969 -0.0363 -0.1534
   93SAPC  H12Y 9057   5.482  -0.415   5.285 -0.4695 -0.1425  1.6701
   93SAPC  C313 9058   5.500  -0.618   5.229 -0.2226  0.4623  0.4226
   93SAPC  H13X 9059   5.443  -0.647   5.320  3.0048 -0.3017  2.3686
   93SAPC  H13Y 9060   5.587  -0.683   5.206 -0.0552  0.2323  1.6599
   93SAPC  C314 9061   5.404  -0.627   5.109  0.1052  0.3700 -0.3686
   93SAPC  H14X 9062   5.446  -0.579   5.018  0.2450  0.1363 -0.4279
   93SAPC  H14Y 9063   5.314  -0.568   5.138 -0.1575 -0.5371  0.7042
   93SAPC  C315 9064   5.371  -0.772   5.069 -0.6177  0.5352  0.4304
   93SAPC  H15X 9065   5.280  -0.773   5.005  0.0092 -1.3712 -0.5124
   93SAPC  H15Y 9066   5.347  -0.819   5.166  1.1605 -1.0504  0.1616
   93SAPC  C316 9067   5.493  -0.847   5.011  0.6545  0.6242 -0.5709
   93SAPC  H16X 9068   5.587  -0.822   5.066  1.9059  0.3011 -2.4432
   93SAPC  H16Y 9069   5.526  -0.800   4.916  1.1709  1.3521 -0.0450
   93SAPC  C317 9070   5.467  -0.996   4.995 -0.0509  0.0510 -0.8565
   93SAPC  H17X 9071   5.449  -1.032   5.098 -2.0585  1.9559 -0.4640
   93SAPC  H17Y 9072   5.558  -1.044   4.953 -0.8828 -1.9220 -0.4715
   93SAPC  C318 9073   5.343  -1.047   4.910 -0.7771 -0.0542  0.3523
   93SAPC  H18X 9074   5.371  -1.039   4.803  1.5575  2.8053  1.0427
   93SAPC  H18Y 9075   5.249  -0.998   4.944 -0.2328  1.6631 -0.5052
   93SAPC  H18Z 9076   5.329  -1.157   4.919 -0.4061 -0.8345 -5.2516
   94SAPC     N 9077   4.006   4.526   7.185 -0.4053  0.2957  0.8248
   94SAPC   C12 9078   3.891   4.612   7.244 -0.5180 -0.2026  0.5691
   94SAPC  H12A 9079   3.942   4.686   7.304 -0.4520 -0.0517  0.3269
   94SAPC  H12B 9080   3.834   4.549   7.311  0.4314 -1.0276  0.6385
   94SAPC   C13 9081   4.087   4.623   7.107  0.6699 -0.3399 -1.1008
   94SAPC  H13A 9082   4.020   4.684   7.050  0.4361  0.1316 -0.3435
   94SAPC  H13B 9083   4.144   4.692   7.168  0.0897 -0.6383 -0.2073
   94SAPC  H13C 9084   4.163   4.573   7.049  0.4955  0.9212 -2.4506
   94SAPC   C14 9085   4.085   4.457   7.297 -0.3433 -0.5765  0.0407
   94SAPC  H14A 9086   4.135   4.532   7.358 -0.3023  0.6395 -1.4389
   94SAPC  H14B 9087   4.020   4.391   7.353 -2.5249 -0.0856 -1.7617
   94SAPC  H14C 9088   4.160   4.398   7.247  1.0859 -0.3580  1.8033
   94SAPC   C15 9089   3.955   4.425   7.089 -0.1728  0.3379  0.7595
   94SAPC  H15A 9090   4.032   4.371   7.035 -0.5632  1.5925 -1.1520
   94SAPC  H15B 9091   3.898   4.345   7.135  1.7533 -1.8984 -0.5070
   94SAPC  H15C 9092   3.899   4.481   7.016  0.9671  0.5547  0.0147
   94SAPC   C11 9093   3.788   4.666   7.145  0.6445  0.1919 -0.3621
   94SAPC  H11A 9094   3.843   4.709   7.059  1.5485 -0.8183 -0.3106
   94SAPC  H11B 9095   3.739   4.740   7.212  2.2298 -1.6520  3.1270
   94SAPC     P 9096   3.649   4.550   6.957  0.2714 -0.6280 -0.1171
   94SAPC   O13 9097   3.542   4.451   6.948  0.1432  0.2778 -0.8015
   94SAPC   O14 9098   3.620   4.689   6.912  0.4643 -0.4376 -0.0783
   94SAPC   O12 9099   3.704   4.555   7.111  0.3930  0.0338 -0.1418
   94SAPC   O11 9100   3.763   4.495   6.863 -0.2779  0.3411 -0.3186
   94SAPC    C1 9101   3.833   4.593   6.779 -0.2942  0.7629  0.0787
   94SAPC    HA 9102   3.768   4.638   6.701 -1.4060 -0.3785  0.2998
   94SAPC    HB 9103   3.865   4.678   6.843 -0.3429 -0.6887  2.1288
   94SAPC    C2 9104   3.968   4.541   6.709  0.0221  0.2889  0.4164
   94SAPC    HS 9105   4.042   4.529   6.790 -0.3488  3.1090  1.2812
   94SAPC   O21 9106   4.018   4.642   6.622  0.1931 -0.2799  0.4158
   94SAPC   C21 9107   4.148   4.648   6.595 -0.1371 -0.2187 -0.2925
   94SAPC   O22 9108   4.231   4.570   6.639 -0.1456  0.6455 -0.4263
   94SAPC   C22 9109   4.170   4.771   6.505  0.1872 -0.2290 -0.0934
   94SAPC   H2R 9110   4.277   4.801   6.513  0.5136 -0.6937 -2.1480
   94SAPC   H2S 9111   4.149   4.739   6.401 -1.8741 -0.0604  0.2293
   94SAPC    C3 9112   3.945   4.400   6.639 -0.3963 -0.3110 -1.1644
   94SAPC    HX 9113   3.874   4.412   6.554 -0.5430 -1.9607 -1.3032
   94SAPC    HY 9114   3.890   4.339   6.713  0.0116 -0.4364 -0.9664
   94SAPC   O31 9115   4.064   4.343   6.583  0.6607  0.7319  0.1657
   94SAPC   C31 9116   4.136   4.267   6.668  0.6067 -0.4871 -0.4936
   94SAPC   O32 9117   4.115   4.268   6.788  0.3295 -0.2981 -0.4369
   94SAPC   C32 9118   4.258   4.197   6.599 -0.4428 -0.2961 -0.5638
   94SAPC   H2X 9119   4.230   4.105   6.544 -0.8714 -1.5271  1.5621
   94SAPC   H2Y 9120   4.327   4.167   6.682 -1.1204 -0.3610 -0.0151
   94SAPC   C23 9121   4.086   4.895   6.545  0.1806 -0.5131  0.4672
   94SAPC   H3R 9122   4.153   4.972   6.588 -1.9479  1.9965 -0.4433
   94SAPC   H3S 9123   4.011   4.875   6.625  0.2110  0.0846  0.6505
   94SAPC   C24 9124   4.021   4.957   6.419 -0.0102 -0.1311 -0.2878
   94SAPC   H4R 9125   4.089   4.947   6.332 -0.3661  0.7958 -0.6812
   94SAPC   H4S 9126   4.008   5.066   6.434  1.9222  0.0185  0.5958
   94SAPC   C25 9127   3.883   4.895   6.391  0.7399  1.5042  0.3141
   94SAPC   H5R 9128   3.807   4.922   6.466  0.0164  0.2011  0.0736
   94SAPC   C26 9129   3.846   4.831   6.276 -0.0763 -0.2874 -0.1740
   94SAPC   H6R 9130   3.744   4.791   6.277 -1.1327  2.1299  2.2628
   94SAPC   C27 9131   3.930   4.789   6.164 -0.3433 -0.3046  0.3000
   94SAPC   H7R 9132   4.037   4.815   6.176  0.0104 -0.9794 -1.1107
   94SAPC   H7S 9133   3.912   4.861   6.082  3.2501  1.9186  1.2551
   94SAPC   C28 9134   3.926   4.642   6.121  0.7231  0.7903  0.4497
   94SAPC   H8R 9135   3.919   4.569   6.203 -1.4773 -0.4068 -0.7163
   94SAPC   C29 9136   3.942   4.598   5.994  0.0179 -0.3426  0.0888
   94SAPC   H9R 9137   3.931   4.490   5.974 -1.4832  0.3115 -3.4373
   94SAPC  C210 9138   3.958   4.680   5.867  0.5682  0.2601 -0.8104
   94SAPC  H10R 9139   4.004   4.611   5.793 -0.7071 -0.0007 -1.3878
   94SAPC  H10S 9140   4.027   4.767   5.872 -0.3671  1.0114 -0.6839
   94SAPC  C211 9141   3.818   4.720   5.832 -0.6237 -0.9875 -0.7638
   94SAPC  H11R 9142   3.772   4.764   5.922 -0.2460  1.3581 -1.6529
   94SAPC  C212 9143   3.743   4.696   5.720 -0.1873  0.2427 -1.0542
   94SAPC  H12R 9144   3.643   4.742   5.717 -0.1049  0.6888  1.2460
   94SAPC  C213 9145   3.773   4.610   5.598 -0.1228  0.4487 -0.8450
   94SAPC  H13R 9146   3.675   4.588   5.551  0.8612  1.3957 -3.5831
   94SAPC  H13S 9147   3.822   4.520   5.640 -1.4670  0.8322  1.7062
   94SAPC  C214 9148   3.883   4.655   5.508 -0.2872 -0.4258  0.3732
   94SAPC  H14R 9149   3.977   4.686   5.556 -1.1703  0.8302  1.3775
   94SAPC  C215 9150   3.868   4.671   5.371 -0.4892  1.2342 -0.4069
   94SAPC  H15R 9151   3.955   4.716   5.321  0.1373 -1.6237 -2.1605
   94SAPC  C216 9152   3.748   4.654   5.280  0.3302  0.2495 -0.0500
   94SAPC  H16R 9153   3.726   4.755   5.238 -1.1603 -0.2922 -0.6298
   94SAPC  H16S 9154   3.664   4.641   5.351 -0.5288  0.0825 -1.0718
   94SAPC  C217 9155   3.752   4.546   5.173 -0.1669  0.3757 -0.1880
   94SAPC  H17R 9156   3.758   4.450   5.228  1.2867 -0.7377 -2.1407
   94SAPC  H17S 9157   3.841   4.548   5.106  0.0531 -0.6481  0.0615
   94SAPC  C218 9158   3.635   4.553   5.073 -0.1854 -0.2779  0.3555
   94SAPC  H18R 9159   3.643   4.649   5.017 -0.7341 -0.3713  0.1093
   94SAPC  H18S 9160   3.547   4.546   5.141  0.9471 -2.7011  1.7090
   94SAPC  C219 9161   3.616   4.427   4.983  0.3883 -0.3417  0.0012
   94SAPC  H19R 9162   3.701   4.414   4.914  1.0990 -1.5026  1.0569
   94SAPC  H19S 9163   3.524   4.437   4.921  0.0987 -0.3033  0.4275
   94SAPC  C220 9164   3.589   4.292   5.044  0.1254  0.4063 -0.6476
   94SAPC  H20R 9165   3.678   4.252   5.097 -0.3254  1.5939  1.1106
   94SAPC  H20S 9166   3.572   4.216   4.965 -1.2049  1.3289 -1.2933
   94SAPC  H20T 9167   3.511   4.300   5.123  0.6849 -0.7464  0.0358
   94SAPC   C33 9168   4.338   4.278   6.496 -0.5780  0.7770  0.2302
   94SAPC   H3X 9169   4.428   4.216   6.474 -2.5068 -2.0263 -0.1744
   94SAPC   H3Y 9170   4.374   4.376   6.536  1.8859  0.1360 -0.2294
   94SAPC   C34 9171   4.266   4.292   6.361  1.2316  0.0310  0.7692
   94SAPC   H4X 9172   4.175   4.352   6.383  1.3101 -0.4413  2.5394
   94SAPC   H4Y 9173   4.234   4.190   6.330 -0.8393  0.6225  0.8089
   94SAPC   C35 9174   4.340   4.355   6.245  0.0717  0.3993  0.3061
   94SAPC   H5X 9175   4.282   4.342   6.152  0.2461 -2.3114  0.4910
   94SAPC   H5Y 9176   4.438   4.302   6.236 -0.4433 -0.7449  1.2179
   94SAPC   C36 9177   4.379   4.505   6.264  0.2407  0.1352 -0.2424
   94SAPC   H6X 9178   4.458   4.505   6.342  0.9637  1.3844 -0.9383
   94SAPC   H6Y 9179   4.282   4.551   6.296  0.2120 -0.1339  0.0717
   94SAPC   C37 9180   4.444   4.575   6.141  0.6715  0.0808  0.5541
   94SAPC   H7X 9181   4.535   4.517   6.113 -0.0271 -0.4738 -0.6402
   94SAPC   H7Y 9182   4.472   4.676   6.176  0.9902 -0.6596  2.6078
   94SAPC   C38 9183   4.353   4.581   6.016  0.0688  0.0542  0.5964
   94SAPC   H8X 9184   4.261   4.629   6.054  0.3682 -0.1330  1.5815
   94SAPC   H8Y 9185   4.331   4.479   5.976 -0.5887  0.6461 -0.5973
   94SAPC   C39 9186   4.418   4.656   5.902  0.3872 -0.3012  0.2262
   94SAPC   H9X 9187   4.507   4.597   5.873  0.0374 -1.4521  1.3933
   94SAPC   H9Y 9188   4.459   4.748   5.950  1.2045 -1.7887  2.5089
   94SAPC  C310 9189   4.330   4.693   5.782  0.0887 -0.2416 -1.5733
   94SAPC  H10X 9190   4.270   4.781   5.816 -0.0387 -0.8290 -0.2080
   94SAPC  H10Y 9191   4.261   4.614   5.745 -0.2735 -0.7060  0.0256
   94SAPC  C311 9192   4.401   4.750   5.657  0.1087 -0.8146  0.6039
   94SAPC  H11X 9193   4.470   4.675   5.612 -0.5486 -0.4740 -1.0400
   94SAPC  H11Y 9194   4.454   4.843   5.684 -2.5588  1.5780 -1.7038
   94SAPC  C312 9195   4.285   4.786   5.563  0.3419 -0.1738 -0.2696
   94SAPC  H12X 9196   4.192   4.804   5.620  0.3424 -2.1928  0.4520
   94SAPC  H12Y 9197   4.267   4.699   5.497 -0.0331  2.2434 -3.5605
   94SAPC  C313 9198   4.324   4.905   5.467 -0.1444 -0.3957  0.3134
   94SAPC  H13X 9199   4.372   4.991   5.519  2.1234 -1.3626 -0.0536
   94SAPC  H13Y 9200   4.231   4.943   5.419  1.2594  1.6874 -0.9396
   94SAPC  C314 9201   4.410   4.869   5.354 -0.0441  0.1689  0.7511
   94SAPC  H14X 9202   4.361   4.780   5.308  0.1727 -0.0558  0.9532
   94SAPC  H14Y 9203   4.501   4.820   5.394  0.1197  1.3277  1.8425
   94SAPC  C315 9204   4.438   4.974   5.243 -0.3476  0.3019  0.5632
   94SAPC  H15X 9205   4.481   4.918   5.157  0.5112  0.3817  0.9269
   94SAPC  H15Y 9206   4.517   5.042   5.282  0.2505 -0.8925  1.5168
   94SAPC  C316 9207   4.324   5.046   5.173  0.1542  0.0773 -0.3612
   94SAPC  H16X 9208   4.373   5.107   5.094  3.1331 -1.4424  0.1762
   94SAPC  H16Y 9209   4.268   5.110   5.244 -0.3823 -0.6964 -0.0757
   94SAPC  C317 9210   4.215   4.960   5.106 -0.0108 -0.1233 -0.2026
   94SAPC  H17X 9211   4.145   5.034   5.062 -0.2136  0.0462  0.3888
   94SAPC  H17Y 9212   4.158   4.891   5.172 -1.6408  0.4655 -0.9471
   94SAPC  C318 9213   4.266   4.872   4.992  0.5564  0.1882  0.4190
   94SAPC  H18X 9214   4.334   4.789   5.020 -0.4729 -1.2434 -1.0869
   94SAPC  H18Y 9215   4.316   4.930   4.911 -0.9671 -0.4336 -1.0124
   94SAPC  H18Z 9216   4.172   4.833   4.946 -1.4739  2.0487  2.7346
   95SAPC     N 9217   6.176   1.928   2.112 -0.5682  0.3776 -0.1247
   95SAPC   C12 9218   6.283   1.958   2.217  0.3856  0.2759 -0.6142
   95SAPC  H12A 9219   6.289   2.063   2.239  1.2774  0.3288 -1.0873
   95SAPC  H12B 9220   6.383   1.924   2.197  0.6375  0.8072 -0.2784
   95SAPC   C13 9221   6.187   1.784   2.068 -0.2496 -0.8330  0.4030
   95SAPC  H13A 9222   6.157   1.710   2.141  0.8252 -1.8198 -0.1228
   95SAPC  H13B 9223   6.127   1.771   1.980  1.0983 -1.7308 -0.4222
   95SAPC  H13C 9224   6.288   1.763   2.034  0.2953  1.4281  0.4374
   95SAPC   C14 9225   6.043   1.966   2.157  0.1800 -0.0410  0.3532
   95SAPC  H14A 9226   6.039   2.056   2.216  0.3324 -0.2563  0.6998
   95SAPC  H14B 9227   5.985   2.004   2.074  2.3453  1.5165 -0.5313
   95SAPC  H14C 9228   5.988   1.890   2.212  1.0638 -0.2765  0.9375
   95SAPC   C15 9229   6.217   2.011   1.988 -0.6219  0.0223 -0.5743
   95SAPC  H15A 9230   6.325   2.018   1.978 -0.5708 -0.1980 -0.1978
   95SAPC  H15B 9231   6.169   1.979   1.898 -0.3815  0.8421 -1.0088
   95SAPC  H15C 9232   6.180   2.112   2.000 -0.1521  0.2111 -0.6592
   95SAPC   C11 9233   6.252   1.909   2.364 -0.0147  0.7921  0.6918
   95SAPC  H11A 9234   6.343   1.911   2.427  1.3999  1.6405 -1.3065
   95SAPC  H11B 9235   6.207   1.807   2.357 -1.9278  1.6406 -0.0891
   95SAPC     P 9236   6.196   2.149   2.468 -0.4777 -0.6228 -0.3817
   95SAPC   O13 9237   6.337   2.178   2.438  0.1914 -0.2374 -0.0861
   95SAPC   O14 9238   6.097   2.240   2.405  0.3173  0.1494  0.0071
   95SAPC   O12 9239   6.161   1.999   2.429  0.4160 -0.3713 -0.4550
   95SAPC   O11 9240   6.176   2.147   2.618  0.0904 -0.0055 -0.9028
   95SAPC    C1 9241   6.231   2.042   2.698 -0.0953 -0.0435  0.4050
   95SAPC    HA 9242   6.173   1.949   2.678 -1.3335  0.7116  0.3954
   95SAPC    HB 9243   6.337   2.011   2.685 -0.4362 -1.2320  0.2431
   95SAPC    C2 9244   6.204   2.076   2.840 -0.4702 -0.1569  0.0722
   95SAPC    HS 9245   6.097   2.100   2.860 -0.7679 -0.2463 -1.3112
   95SAPC   O21 9246   6.300   2.180   2.868  0.1350  0.1816 -0.4575
   95SAPC   C21 9247   6.263   2.268   2.965  0.2118  0.2532  1.3399
   95SAPC   O22 9248   6.151   2.271   3.012  0.5020 -0.0067  0.1374
   95SAPC   C22 9249   6.382   2.351   3.004  0.0127  0.1939 -0.8211
   95SAPC   H2R 9250   6.451   2.322   2.922  1.7738 -0.1895  0.7278
   95SAPC   H2S 9251   6.339   2.451   2.981 -2.6226 -0.8371 -0.7785
   95SAPC    C3 9252   6.238   1.958   2.934  0.9066  0.4407  0.1546
   95SAPC    HX 9253   6.335   1.913   2.905  1.1480  0.7429  0.4873
   95SAPC    HY 9254   6.167   1.874   2.920  0.7783 -0.3121  4.1898
   95SAPC   O31 9255   6.246   2.001   3.070  0.0226 -0.4334 -0.8363
   95SAPC   C31 9256   6.263   1.897   3.156  0.4855 -0.7090 -0.2157
   95SAPC   O32 9257   6.270   1.779   3.122  0.5896 -0.1010 -0.0257
   95SAPC   C32 9258   6.261   1.950   3.307 -0.2643 -0.2477  0.5057
   95SAPC   H2X 9259   6.154   1.938   3.335 -1.1801  2.1045 -1.5869
   95SAPC   H2Y 9260   6.283   2.057   3.291  0.0242 -0.2985  0.5543
   95SAPC   C23 9261   6.426   2.316   3.152  0.2839 -0.0782  0.4581
   95SAPC   H3R 9262   6.347   2.258   3.204  0.7854  0.1326  1.4748
   95SAPC   H3S 9263   6.448   2.406   3.214 -1.9129  0.1603  0.9769
   95SAPC   C24 9264   6.556   2.235   3.157  0.1835  0.9140 -0.0766
   95SAPC   H4R 9265   6.619   2.271   3.073  1.3197 -2.7209 -0.9662
   95SAPC   H4S 9266   6.518   2.137   3.121  2.0809  0.0676  0.0911
   95SAPC   C25 9267   6.610   2.215   3.297 -0.2548  0.4056 -0.5414
   95SAPC   H5R 9268   6.560   2.130   3.346 -1.7763  0.9126 -1.1732
   95SAPC   C26 9269   6.707   2.291   3.356  0.2503  0.2598  0.2159
   95SAPC   H6R 9270   6.758   2.245   3.441  0.9927  1.2578  0.3320
   95SAPC   C27 9271   6.785   2.408   3.298  0.0666  0.0220 -0.2448
   95SAPC   H7R 9272   6.732   2.505   3.312 -0.5875  0.0012 -2.3358
   95SAPC   H7S 9273   6.796   2.406   3.188  1.7579 -0.4897 -0.0907
   95SAPC   C28 9274   6.923   2.425   3.359 -0.5755 -0.1063  0.4471
   95SAPC   H8R 9275   6.930   2.518   3.417 -1.3564 -0.2769  0.8273
   95SAPC   C29 9276   7.035   2.343   3.354  0.5385  0.0305 -0.1257
   95SAPC   H9R 9277   7.130   2.380   3.395  0.3743  1.1808 -0.7558
   95SAPC  C210 9278   7.036   2.218   3.274 -0.6104  0.5963  0.0560
   95SAPC  H10R 9279   7.005   2.251   3.172 -2.3918 -2.3639 -0.4570
   95SAPC  H10S 9280   6.959   2.146   3.309  1.4469 -0.4952  2.6489
   95SAPC  C211 9281   7.169   2.149   3.244 -0.2688 -0.2285 -0.1052
   95SAPC  H11R 9282   7.195   2.129   3.139  2.9249  1.5022  0.2398
   95SAPC  C212 9283   7.259   2.114   3.339 -0.2356 -0.1003  0.7492
   95SAPC  H12R 9284   7.363   2.089   3.314 -1.5887 -3.2567 -2.5130
   95SAPC  C213 9285   7.239   2.128   3.488 -0.3708 -0.5102 -0.1025
   95SAPC  H13R 9286   7.295   2.045   3.536  0.2783 -0.3866 -0.6309
   95SAPC  H13S 9287   7.131   2.127   3.516 -0.4800 -1.2869 -0.5039
   95SAPC  C214 9288   7.303   2.251   3.547  0.5350 -0.0667  0.5887
   95SAPC  H14R 9289   7.393   2.284   3.493  2.0402 -4.5219 -0.0648
   95SAPC  C215 9290   7.240   2.333   3.633 -0.1260 -0.1468  0.2039
   95SAPC  H15R 9291   7.286   2.426   3.668  0.5974 -0.1774 -0.6339
   95SAPC  C216 9292   7.098   2.312   3.692 -0.5149 -0.1497  0.4870
   95SAPC  H16R 9293   7.053   2.212   3.679 -1.8610 -0.0911  3.6893
   95SAPC  H16S 9294   7.029   2.385   3.645  0.9604  0.8782 -0.1882
   95SAPC  C217 9295   7.121   2.339   3.843 -0.2121  0.0033 -0.3605
   95SAPC  H17R 9296   7.029   2.330   3.905 -0.7415  0.6901 -1.0246
   95SAPC  H17S 9297   7.145   2.448   3.840 -1.1959  0.2986  1.1346
   95SAPC  C218 9298   7.243   2.273   3.914 -0.4350 -0.1036 -1.3125
   95SAPC  H18R 9299   7.259   2.322   4.012 -2.4581 -1.7028 -0.0763
   95SAPC  H18S 9300   7.337   2.289   3.858 -0.9934 -1.3441 -2.7035
   95SAPC  C219 9301   7.252   2.121   3.930  0.2868  0.2191  0.1373
   95SAPC  H19R 9302   7.357   2.089   3.949 -0.5302 -3.2432 -0.3825
   95SAPC  H19S 9303   7.244   2.075   3.829  3.8039 -1.1540  0.3366
   95SAPC  C220 9304   7.155   2.052   4.022  0.6472  0.6774 -0.9857
   95SAPC  H20R 9305   7.151   1.943   4.000 -1.4516  0.5643 -0.3267
   95SAPC  H20S 9306   7.057   2.105   4.011 -0.3310 -1.0971 -1.2206
   95SAPC  H20T 9307   7.186   2.065   4.128  0.5973  0.9757 -1.0063
   95SAPC   C33 9308   6.365   1.886   3.398  0.0885 -0.0674  0.3909
   95SAPC   H3X 9309   6.378   1.959   3.481 -2.5048  1.3333 -0.2963
   95SAPC   H3Y 9310   6.464   1.870   3.351  1.2877 -1.7352  3.2488
   95SAPC   C34 9311   6.310   1.753   3.455 -0.0450  0.0335 -0.5750
   95SAPC   H4X 9312   6.314   1.676   3.375 -0.0041 -0.7096  0.1243
   95SAPC   H4Y 9313   6.207   1.783   3.483  0.0807  0.2877 -0.3827
   95SAPC   C35 9314   6.376   1.714   3.584  0.6194 -0.1144 -0.0895
   95SAPC   H5X 9315   6.396   1.796   3.655 -0.0210  0.0562 -0.0954
   95SAPC   H5Y 9316   6.474   1.667   3.564 -0.0887 -1.8272  0.2121
   95SAPC   C36 9317   6.301   1.609   3.662 -0.4782 -0.2844  0.4723
   95SAPC   H6X 9318   6.304   1.526   3.588 -0.7890  1.2395 -1.3392
   95SAPC   H6Y 9319   6.194   1.628   3.684 -1.0703 -0.8097 -1.6937
   95SAPC   C37 9320   6.365   1.559   3.795  0.3938  0.3980  0.5492
   95SAPC   H7X 9321   6.373   1.646   3.862  0.7348  0.7683  0.0283
   95SAPC   H7Y 9322   6.469   1.528   3.772  0.0269 -2.1215  1.8730
   95SAPC   C38 9323   6.285   1.450   3.873 -0.3290 -0.1448 -0.0370
   95SAPC   H8X 9324   6.250   1.364   3.812 -0.6923 -1.6051  2.1110
   95SAPC   H8Y 9325   6.193   1.494   3.917  0.4465  1.5070  0.0390
   95SAPC   C39 9326   6.371   1.398   3.989 -0.3621 -0.2895  0.4434
   95SAPC   H9X 9327   6.475   1.414   3.953 -0.4817  0.4028  0.4042
   95SAPC   H9Y 9328   6.347   1.293   4.019  0.0873 -0.1306  1.4047
   95SAPC  C310 9329   6.357   1.486   4.119 -0.3601 -0.0396  0.6912
   95SAPC  H10X 9330   6.251   1.483   4.152 -0.4618  0.8811  0.4810
   95SAPC  H10Y 9331   6.385   1.590   4.091  1.3098 -0.9016 -1.1122
   95SAPC  C311 9332   6.447   1.435   4.232  0.0142  0.2322  0.3541
   95SAPC  H11X 9333   6.552   1.440   4.197  0.3536 -1.5519  0.9881
   95SAPC  H11Y 9334   6.421   1.330   4.259 -3.5804  0.6855 -0.8058
   95SAPC  C312 9335   6.444   1.500   4.367 -0.1274  0.2926  0.8996
   95SAPC  H12X 9336   6.339   1.494   4.402 -1.0651  0.0418 -1.7281
   95SAPC  H12Y 9337   6.466   1.609   4.365 -0.8852  0.4507 -0.2323
   95SAPC  C313 9338   6.543   1.429   4.460 -0.3824 -0.1396 -0.2945
   95SAPC  H13X 9339   6.644   1.435   4.413 -0.9611 -1.0854 -1.7276
   95SAPC  H13Y 9340   6.504   1.326   4.475 -0.5648  0.1311  1.1931
   95SAPC  C314 9341   6.552   1.495   4.596  0.5846 -0.3519  0.5187
   95SAPC  H14X 9342   6.557   1.605   4.586 -0.8731 -0.3861 -0.9517
   95SAPC  H14Y 9343   6.647   1.464   4.646 -0.5206 -1.1977  2.1775
   95SAPC  C315 9344   6.428   1.464   4.689  0.1353  0.6650  0.1261
   95SAPC  H15X 9345   6.339   1.470   4.624  0.4508  0.1975 -0.3587
   95SAPC  H15Y 9346   6.417   1.546   4.763 -0.4228  1.1194 -0.4587
   95SAPC  C316 9347   6.445   1.334   4.774 -0.2446  0.1290  0.9457
   95SAPC  H16X 9348   6.535   1.345   4.838  0.0247 -0.2954  0.6508
   95SAPC  H16Y 9349   6.464   1.243   4.712 -0.8674  1.7125 -1.6873
   95SAPC  C317 9350   6.326   1.311   4.863 -0.2402  0.8103  0.4589
   95SAPC  H17X 9351   6.238   1.274   4.806  0.6045  2.2879 -1.9382
   95SAPC  H17Y 9352   6.299   1.414   4.899 -1.3986  0.7972 -0.3117
   95SAPC  C318 9353   6.358   1.220   4.989  0.5407  0.6065  0.3380
   95SAPC  H18X 9354   6.268   1.192   5.048  1.5779  0.0644  1.6969
   95SAPC  H18Y 9355   6.431   1.267   5.058 -0.3539  1.6386  0.5956
   95SAPC  H18Z 9356   6.406   1.127   4.952 -0.4978 -0.7729  2.2763
   96SAPC     N 9357   6.799   4.264   2.132 -0.1087 -0.5518  0.2878
   96SAPC   C12 9358   6.936   4.296   2.189 -0.8342 -0.0175 -0.1943
   96SAPC  H12A 9359   7.006   4.289   2.107 -1.2689  0.8966 -0.6587
   96SAPC  H12B 9360   6.962   4.224   2.265 -2.2847  0.3237  0.6624
   96SAPC   C13 9361   6.821   4.143   2.036 -0.0771  0.2919  0.3086
   96SAPC  H13A 9362   6.726   4.109   1.997  0.0317  0.6509 -0.2980
   96SAPC  H13B 9363   6.881   4.170   1.950 -1.2203 -1.0132 -0.9526
   96SAPC  H13C 9364   6.870   4.057   2.079 -0.0483 -1.3541 -2.7321
   96SAPC   C14 9365   6.707   4.224   2.239  0.3020  0.2147 -0.3406
   96SAPC  H14A 9366   6.705   4.295   2.321 -1.2878 -0.4000  0.1870
   96SAPC  H14B 9367   6.607   4.201   2.206  1.2213 -1.0475 -2.4689
   96SAPC  H14C 9368   6.748   4.143   2.298  1.9538  2.2381  1.4760
   96SAPC   C15 9369   6.741   4.369   2.056  0.9498  0.2101  0.7022
   96SAPC  H15A 9370   6.731   4.466   2.102 -0.8943  1.1134 -1.3850
   96SAPC  H15B 9371   6.784   4.383   1.958 -0.8641  0.7657 -0.0734
   96SAPC  H15C 9372   6.639   4.336   2.041  0.6910  0.0673  2.5947
   96SAPC   C11 9373   6.948   4.433   2.262 -0.6498 -0.3891 -0.0503
   96SAPC  H11A 9374   6.915   4.522   2.204  1.6534  1.8434  1.8474
   96SAPC  H11B 9375   7.057   4.448   2.269 -0.4463 -2.0496  1.0095
   96SAPC     P 9376   6.945   4.353   2.502 -0.1074 -0.1534 -0.1223
   96SAPC   O13 9377   6.920   4.212   2.462  0.3243 -0.1078  0.5399
   96SAPC   O14 9378   7.083   4.382   2.540  0.4624 -0.2707  0.4040
   96SAPC   O12 9379   6.879   4.442   2.390 -0.0492  0.5454  0.2162
   96SAPC   O11 9380   6.850   4.393   2.620  0.4282 -0.9959  0.4091
   96SAPC    C1 9381   6.725   4.310   2.624  0.3617 -0.7777 -1.0613
   96SAPC    HA 9382   6.667   4.302   2.529 -1.6994  0.5639 -0.0056
   96SAPC    HB 9383   6.746   4.206   2.656 -0.8969 -0.0977  2.3957
   96SAPC    C2 9384   6.609   4.357   2.727  0.6632  0.7799 -0.3720
   96SAPC    HS 9385   6.586   4.462   2.698  0.5852  0.4834 -1.4442
   96SAPC   O21 9386   6.669   4.340   2.862  0.1129 -0.4236  0.2196
   96SAPC   C21 9387   6.627   4.418   2.954  0.2579 -0.6722 -0.0159
   96SAPC   O22 9388   6.534   4.503   2.940 -0.0185  0.4486 -0.1571
   96SAPC   C22 9389   6.696   4.384   3.084 -0.0211  0.0475 -0.8700
   96SAPC   H2R 9390   6.683   4.275   3.103 -1.7665  0.2784 -0.5558
   96SAPC   H2S 9391   6.804   4.399   3.065  0.2453 -2.2256 -1.4954
   96SAPC    C3 9392   6.485   4.256   2.706 -0.5215  0.2577  0.2281
   96SAPC    HX 9393   6.456   4.244   2.599  0.5649 -3.0626  0.1954
   96SAPC    HY 9394   6.403   4.296   2.769  1.6212  3.7302  1.0714
   96SAPC   O31 9395   6.535   4.125   2.740  0.1193  0.3042  0.1489
   96SAPC   C31 9396   6.513   4.078   2.859  0.1767 -0.7779 -0.4538
   96SAPC   O32 9397   6.457   4.139   2.948 -0.1533  0.3395 -0.7793
   96SAPC   C32 9398   6.587   3.941   2.881 -0.0548 -0.2725  0.0665
   96SAPC   H2X 9399   6.685   3.950   2.831 -1.1720 -1.5665 -2.5784
   96SAPC   H2Y 9400   6.518   3.869   2.831 -1.7665  0.1330  1.7040
   96SAPC   C23 9401   6.641   4.470   3.208 -0.0686 -0.1636  0.9275
   96SAPC   H3R 9402   6.676   4.428   3.304  0.9180 -0.3720  0.4890
   96SAPC   H3S 9403   6.530   4.470   3.211 -0.1196  2.5725  1.3738
   96SAPC   C24 9404   6.696   4.616   3.206 -0.4974  0.4755 -0.1987
   96SAPC   H4R 9405   6.628   4.682   3.148  0.9531  0.8978 -1.5151
   96SAPC   H4S 9406   6.786   4.604   3.141 -0.4896  0.4000 -0.1741
   96SAPC   C25 9407   6.721   4.669   3.346  0.4010  0.2366  1.1847
   96SAPC   H5R 9408   6.631   4.700   3.399 -0.3035 -1.1832  0.8756
   96SAPC   C26 9409   6.839   4.691   3.404  0.2028 -0.1418  0.2920
   96SAPC   H6R 9410   6.842   4.737   3.504 -0.7114 -0.3918  0.4489
   96SAPC   C27 9411   6.971   4.662   3.347 -0.2511  0.0138  1.3371
   96SAPC   H7R 9412   6.954   4.564   3.297  3.4866  0.3209 -0.9947
   96SAPC   H7S 9413   7.041   4.646   3.432  1.7938  1.7832  0.1064
   96SAPC   C28 9414   7.028   4.764   3.244  0.2892  0.4444 -0.9949
   96SAPC   H8R 9415   7.026   4.719   3.143  0.0713 -1.4438 -0.1978
   96SAPC   C29 9416   7.077   4.888   3.266  0.2568  0.4985  0.3337
   96SAPC   H9R 9417   7.110   4.945   3.178  0.7130  0.1307  0.2594
   96SAPC  C210 9418   7.083   4.949   3.400  0.1089  0.0495  0.9952
   96SAPC  H10R 9419   7.113   4.874   3.476  0.6494  0.5686  1.2985
   96SAPC  H10S 9420   6.979   4.968   3.433  0.1983  2.9050 -0.1182
   96SAPC  C211 9421   7.168   5.076   3.407  0.8680 -0.1354 -0.4301
   96SAPC  H11R 9422   7.139   5.147   3.327 -0.4154 -0.7509 -0.5365
   96SAPC  C212 9423   7.264   5.103   3.489 -0.2590 -0.6774  0.4333
   96SAPC  H12R 9424   7.322   5.194   3.469  1.9895 -2.1925 -0.3138
   96SAPC  C213 9425   7.320   5.023   3.604 -0.3973  0.0442 -0.4657
   96SAPC  H13R 9426   7.237   5.029   3.679 -0.2080 -0.2979 -0.2272
   96SAPC  H13S 9427   7.390   5.097   3.648  0.9726 -1.2138 -0.4600
   96SAPC  C214 9428   7.391   4.892   3.575 -1.3018  0.2109 -0.4360
   96SAPC  H14R 9429   7.311   4.821   3.548 -0.6328 -0.2122 -1.3185
   96SAPC  C215 9430   7.521   4.857   3.577 -0.8295 -0.3324 -0.2159
   96SAPC  H15R 9431   7.545   4.751   3.561  1.4495 -0.0394  0.8726
   96SAPC  C216 9432   7.628   4.956   3.593 -0.1392  0.4927  0.1548
   96SAPC  H16R 9433   7.596   5.063   3.589  1.3555  1.0534  1.6286
   96SAPC  H16S 9434   7.709   4.935   3.520  0.6193 -4.1084  2.0059
   96SAPC  C217 9435   7.706   4.939   3.728 -0.0485 -0.9988  1.0678
   96SAPC  H17R 9436   7.796   5.004   3.723 -0.7178 -0.1251 -2.0234
   96SAPC  H17S 9437   7.744   4.838   3.754  2.0723 -0.4723  0.2372
   96SAPC  C218 9438   7.619   4.977   3.849  0.6742 -0.1308  0.0499
   96SAPC  H18R 9439   7.525   4.919   3.860  0.1187  0.8845  0.7556
   96SAPC  H18S 9440   7.576   5.079   3.843 -3.7198 -1.7779 -0.3908
   96SAPC  C219 9441   7.690   4.973   3.987  0.2875  0.6218  0.2706
   96SAPC  H19R 9442   7.607   5.001   4.056 -1.1667 -2.9363  0.1538
   96SAPC  H19S 9443   7.767   5.049   4.009  1.5977 -1.4640  3.7292
   96SAPC  C220 9444   7.757   4.840   4.024 -0.4026 -0.2805 -0.5429
   96SAPC  H20R 9445   7.850   4.838   3.962  0.0248  1.0809  0.0121
   96SAPC  H20S 9446   7.698   4.749   4.001 -0.0099 -1.1793  1.6665
   96SAPC  H20T 9447   7.788   4.837   4.131  0.7593  1.9130 -0.7446
   96SAPC   C33 9448   6.602   3.911   3.029 -0.1898  0.5485 -0.1227
   96SAPC   H3X 9449   6.506   3.928   3.082  1.4667 -0.2552  3.3887
   96SAPC   H3Y 9450   6.677   3.978   3.076 -1.9592  1.1076  2.0683
   96SAPC   C34 9451   6.664   3.774   3.070 -0.1457  0.8247  0.2046
   96SAPC   H4X 9452   6.773   3.785   3.051 -0.0969 -0.2979 -0.2027
   96SAPC   H4Y 9453   6.622   3.690   3.011 -2.3271  2.0850 -0.1817
   96SAPC   C35 9454   6.636   3.743   3.217  0.9057  0.0090 -0.3368
   96SAPC   H5X 9455   6.705   3.659   3.240  2.0112  0.7808 -0.7403
   96SAPC   H5Y 9456   6.531   3.712   3.237  1.5385 -1.3731  0.9927
   96SAPC   C36 9457   6.689   3.849   3.315 -0.0992 -0.4066 -0.0382
   96SAPC   H6X 9458   6.644   3.948   3.291  0.5958  0.0400  0.4462
   96SAPC   H6Y 9459   6.793   3.871   3.283 -0.2367  0.2050 -0.0801
   96SAPC   C37 9460   6.659   3.829   3.465  0.3916  0.0723 -0.0924
   96SAPC   H7X 9461   6.554   3.793   3.472  0.2548 -0.4283 -3.2480
   96SAPC   H7Y 9462   6.675   3.923   3.521 -0.4327  0.3165 -0.2540
   96SAPC   C38 9463   6.749   3.715   3.533  0.4440 -0.6170 -0.0007
   96SAPC   H8X 9464   6.855   3.737   3.510  0.5306 -0.4371  0.5655
   96SAPC   H8Y 9465   6.712   3.619   3.490  1.6481 -1.0731 -0.0485
   96SAPC   C39 9466   6.742   3.702   3.679  0.5225  0.7021 -1.3316
   96SAPC   H9X 9467   6.803   3.614   3.710 -1.1417  0.9094  3.3240
   96SAPC   H9Y 9468   6.638   3.680   3.712 -0.7418  2.6930 -3.6400
   96SAPC  C310 9469   6.809   3.819   3.764  0.3917  0.3068  0.0805
   96SAPC  H10X 9470   6.742   3.907   3.752 -1.5853 -1.0814  0.4099
   96SAPC  H10Y 9471   6.910   3.839   3.723  0.9724  1.1108  1.7959
   96SAPC  C311 9472   6.822   3.794   3.914  0.1388  0.0335  0.1382
   96SAPC  H11X 9473   6.840   3.888   3.971 -0.4298 -0.6081  1.4324
   96SAPC  H11Y 9474   6.911   3.730   3.933 -1.1671 -1.4432  1.6728
   96SAPC  C312 9475   6.709   3.722   3.981 -0.6866  0.9391 -0.0242
   96SAPC  H12X 9476   6.713   3.615   3.952 -0.1825  0.2027  2.5161
   96SAPC  H12Y 9477   6.615   3.776   3.955 -2.2800 -1.2279  0.8619
   96SAPC  C313 9478   6.730   3.726   4.133 -0.2961  0.1553  0.0424
   96SAPC  H13X 9479   6.638   3.686   4.181  0.2667 -1.4506 -0.1525
   96SAPC  H13Y 9480   6.730   3.831   4.169 -3.0807  0.5000 -0.6938
   96SAPC  C314 9481   6.844   3.644   4.188 -0.4424  0.8203 -0.5225
   96SAPC  H14X 9482   6.942   3.683   4.152  0.9562 -0.5715  1.4932
   96SAPC  H14Y 9483   6.833   3.539   4.155 -0.7937  0.2621  1.2424
   96SAPC  C315 9484   6.848   3.649   4.344  0.5380  0.5234 -0.3829
   96SAPC  H15X 9485   6.749   3.631   4.393  0.7849 -3.4644 -1.0201
   96SAPC  H15Y 9486   6.886   3.745   4.386  0.1601  1.4225 -2.0143
   96SAPC  C316 9487   6.923   3.532   4.409  0.3743  0.3846  0.3429
   96SAPC  H16X 9488   7.032   3.545   4.395  0.5245 -0.1113  0.9506
   96SAPC  H16Y 9489   6.891   3.448   4.344  1.1618 -0.4832  1.0396
   96SAPC  C317 9490   6.894   3.507   4.555 -0.2629 -0.7103  0.1853
   96SAPC  H17X 9491   6.944   3.412   4.583 -1.7601 -1.2910  0.9995
   96SAPC  H17Y 9492   6.784   3.493   4.565 -1.3514  3.4731 -2.8926
   96SAPC  C318 9493   6.960   3.607   4.653  0.2580 -0.3957  0.1347
   96SAPC  H18X 9494   6.889   3.693   4.658 -0.4576 -1.0298  2.7833
   96SAPC  H18Y 9495   7.055   3.649   4.615  1.1898 -0.7470  1.9325
   96SAPC  H18Z 9496   6.979   3.568   4.756 -2.0276 -0.3194  0.6486
   97SAPC     N 9497   5.527   2.264   2.765 -0.6127 -0.5485 -0.1678
   97SAPC   C12 9498   5.591   2.180   2.874 -0.5000  0.4502  0.5508
   97SAPC  H12A 9499   5.558   2.217   2.970  2.4760  2.1019  1.0671
   97SAPC  H12B 9500   5.698   2.195   2.876  0.1301 -3.1893  0.3349
   97SAPC   C13 9501   5.379   2.276   2.774 -0.2879  0.1811 -0.0979
   97SAPC  H13A 9502   5.339   2.336   2.693 -2.0242 -0.9619 -0.1339
   97SAPC  H13B 9503   5.338   2.177   2.764 -2.0226  0.4732  2.8950
   97SAPC  H13C 9504   5.342   2.322   2.864 -0.2375  1.6548 -0.7916
   97SAPC   C14 9505   5.583   2.409   2.770 -0.6113  1.2049  0.0775
   97SAPC  H14A 9506   5.690   2.398   2.761 -0.5772 -0.3453  1.6892
   97SAPC  H14B 9507   5.544   2.467   2.688 -1.0273 -0.5872 -1.0497
   97SAPC  H14C 9508   5.571   2.460   2.865  0.2945  3.7764 -1.1114
   97SAPC   C15 9509   5.558   2.201   2.639 -0.1525  0.5758 -0.0400
   97SAPC  H15A 9510   5.660   2.224   2.612  0.9707 -1.4717  2.0331
   97SAPC  H15B 9511   5.558   2.096   2.665 -2.6339  0.4622 -0.2977
   97SAPC  H15C 9512   5.476   2.221   2.573 -0.1378  1.8337  0.3020
   97SAPC   C11 9513   5.595   2.022   2.876  0.0290 -0.5126 -0.3712
   97SAPC  H11A 9514   5.487   1.996   2.863  0.1756 -1.1834 -0.2864
   97SAPC  H11B 9515   5.630   2.000   2.979  0.3075  1.5503  0.0039
   97SAPC     P 9516   5.833   1.972   2.790 -0.3840  0.1915 -0.0070
   97SAPC   O13 9517   5.894   1.901   2.678  0.0851  0.0119  0.0218
   97SAPC   O14 9518   5.866   2.112   2.807 -0.0393 -0.3710 -0.3559
   97SAPC   O12 9519   5.678   1.969   2.769 -0.2918  0.7548  0.1618
   97SAPC   O11 9520   5.867   1.898   2.932  0.1523 -0.7005 -0.1121
   97SAPC    C1 9521   5.804   1.775   2.960  0.3064 -0.2910  0.3770
   97SAPC    HA 9522   5.701   1.779   2.921  0.6081  2.8498 -0.4407
   97SAPC    HB 9523   5.854   1.689   2.912  1.3563 -0.6577  2.0120
   97SAPC    C2 9524   5.788   1.757   3.116  0.6398  0.1731  0.6868
   97SAPC    HS 9525   5.715   1.675   3.131  1.5111 -0.8680 -0.5423
   97SAPC   O21 9526   5.733   1.881   3.163  0.2306 -0.4359 -0.0974
   97SAPC   C21 9527   5.655   1.865   3.266 -0.3955  0.4714 -0.4907
   97SAPC   O22 9528   5.620   1.758   3.312 -0.1897 -0.3280 -0.1436
   97SAPC   C22 9529   5.613   2.004   3.308 -0.7083 -0.3140 -0.2805
   97SAPC   H2R 9530   5.704   2.067   3.298  1.2569 -2.9726 -0.0097
   97SAPC   H2S 9531   5.542   2.031   3.226  0.1417 -0.0277 -0.9392
   97SAPC    C3 9532   5.932   1.734   3.173 -0.5730  0.2907  0.6037
   97SAPC    HX 9533   5.992   1.823   3.149  1.1072 -0.6416  1.2066
   97SAPC    HY 9534   5.981   1.649   3.121 -1.1873  0.6726 -0.6408
   97SAPC   O31 9535   5.916   1.698   3.310  0.4027  0.2154  0.2487
   97SAPC   C31 9536   5.861   1.577   3.328  0.1290 -0.1310 -0.4581
   97SAPC   O32 9537   5.843   1.494   3.246 -0.6042 -0.1393  0.8176
   97SAPC   C32 9538   5.821   1.565   3.475 -0.0783 -0.1522  0.0368
   97SAPC   H2X 9539   5.727   1.623   3.470 -0.4774 -0.8139 -0.2172
   97SAPC   H2Y 9540   5.907   1.614   3.527  0.0065  0.1093 -0.3471
   97SAPC   C23 9541   5.540   2.027   3.442  0.2445 -0.4381 -0.0275
   97SAPC   H3R 9542   5.456   1.958   3.463 -1.6330  1.5308 -0.6564
   97SAPC   H3S 9543   5.509   2.133   3.432 -0.6021 -0.7858 -1.2403
   97SAPC   C24 9544   5.634   2.033   3.565 -0.0731 -0.1857  1.0871
   97SAPC   H4R 9545   5.688   2.129   3.552 -2.4720  0.9817 -1.3211
   97SAPC   H4S 9546   5.707   1.952   3.546  1.8412  1.4924  1.0330
   97SAPC   C25 9547   5.567   2.024   3.699  0.1553  0.6197 -0.4605
   97SAPC   H5R 9548   5.474   2.082   3.708 -0.8042 -1.0165  0.5883
   97SAPC   C26 9549   5.623   1.953   3.803 -0.0808 -0.1867  0.1482
   97SAPC   H6R 9550   5.570   1.956   3.900  0.0201  1.9882  0.1750
   97SAPC   C27 9551   5.750   1.875   3.807 -0.1516 -0.0823  0.2104
   97SAPC   H7R 9552   5.833   1.946   3.785 -1.6614  0.7589 -3.7686
   97SAPC   H7S 9553   5.751   1.799   3.726 -3.1337 -1.2658  1.1474
   97SAPC   C28 9554   5.763   1.805   3.932  0.6794  0.1606 -0.1516
   97SAPC   H8R 9555   5.673   1.750   3.962  1.1824 -0.4146  0.3416
   97SAPC   C29 9556   5.877   1.801   4.009  0.6466  0.0762  0.4436
   97SAPC   H9R 9557   5.869   1.758   4.111 -0.3643  0.1243  0.4008
   97SAPC  C210 9558   6.009   1.858   3.979  0.3197  0.2227  0.8924
   97SAPC  H10R 9559   6.011   1.962   4.018  0.5872  0.2634  0.7715
   97SAPC  H10S 9560   6.027   1.871   3.870  0.0663  0.5011  0.8810
   97SAPC  C211 9561   6.123   1.796   4.047 -0.7440 -0.4288  0.0213
   97SAPC  H11R 9562   6.186   1.745   3.973  0.0857 -0.6036  0.8427
   97SAPC  C212 9563   6.167   1.810   4.178 -0.1542  0.4329  0.1438
   97SAPC  H12R 9564   6.260   1.758   4.207  0.5920  1.9524  0.5611
   97SAPC  C213 9565   6.104   1.893   4.292 -0.1158  0.0667  0.4548
   97SAPC  H13R 9566   6.128   1.848   4.391  0.1947 -0.9715 -0.0789
   97SAPC  H13S 9567   5.994   1.897   4.276  0.1157 -0.1185 -1.3693
   97SAPC  C214 9568   6.161   2.035   4.296 -0.0029  0.0210 -0.0286
   97SAPC  H14R 9569   6.096   2.109   4.247  1.1886  1.3373  0.2882
   97SAPC  C215 9570   6.272   2.083   4.358  0.5781  0.0569 -0.2996
   97SAPC  H15R 9571   6.279   2.193   4.357  0.9723  0.0323 -1.5041
   97SAPC  C216 9572   6.367   1.997   4.445  0.4180  0.2371 -0.3646
   97SAPC  H16R 9573   6.475   2.016   4.432  1.4070 -4.1131  0.0291
   97SAPC  H16S 9574   6.357   1.891   4.413 -0.6790 -0.8063  3.0201
   97SAPC  C217 9575   6.320   1.995   4.589 -0.0514  0.0470  0.2768
   97SAPC  H17R 9576   6.211   1.975   4.598 -0.4420  1.8120 -0.2901
   97SAPC  H17S 9577   6.334   2.095   4.635  2.2044 -0.5231  0.9695
   97SAPC  C218 9578   6.386   1.883   4.683  0.2178  0.0927  0.4503
   97SAPC  H18R 9579   6.360   1.791   4.626 -1.3828  0.7335  0.0722
   97SAPC  H18S 9580   6.343   1.885   4.786 -2.0884 -2.2716 -0.3474
   97SAPC  C219 9581   6.535   1.906   4.700 -0.2401  0.6888 -0.2075
   97SAPC  H19R 9582   6.542   2.013   4.727 -1.3646  1.1056 -1.4674
   97SAPC  H19S 9583   6.592   1.894   4.606  0.7703  1.5499  0.2766
   97SAPC  C220 9584   6.588   1.822   4.812  0.0621 -0.6356 -0.6519
   97SAPC  H20R 9585   6.528   1.838   4.904 -1.8647 -0.7238 -1.8322
   97SAPC  H20S 9586   6.695   1.846   4.830 -0.2278 -0.2095  0.5860
   97SAPC  H20T 9587   6.580   1.713   4.794 -3.1260 -0.7224  0.6250
   97SAPC   C33 9588   5.787   1.423   3.523 -0.0484 -0.1266 -0.1873
   97SAPC   H3X 9589   5.877   1.358   3.516  0.6122  0.6352  0.9720
   97SAPC   H3Y 9590   5.716   1.371   3.455  0.1709 -0.5278 -0.1148
   97SAPC   C34 9591   5.730   1.414   3.665 -0.2249  0.1394 -0.5424
   97SAPC   H4X 9592   5.679   1.316   3.664  0.6927 -0.4660  2.2536
   97SAPC   H4Y 9593   5.648   1.488   3.683 -0.2054  0.1867 -0.6489
   97SAPC   C35 9594   5.838   1.409   3.778 -0.3705 -0.0734 -0.3567
   97SAPC   H5X 9595   5.920   1.483   3.765 -3.1465  2.9001 -2.8722
   97SAPC   H5Y 9596   5.882   1.308   3.784  1.4322  0.7440  1.2079
   97SAPC   C36 9597   5.757   1.436   3.908 -0.3547 -0.9561  0.0370
   97SAPC   H6X 9598   5.674   1.362   3.904 -0.4947 -0.7542 -1.8902
   97SAPC   H6Y 9599   5.713   1.535   3.887 -0.6301 -1.0442  0.1934
   97SAPC   C37 9600   5.835   1.440   4.035  0.2123 -0.4750 -0.2785
   97SAPC   H7X 9601   5.914   1.518   4.039  0.4777 -0.7350 -0.4118
   97SAPC   H7Y 9602   5.876   1.344   4.073 -1.6059 -0.7258  1.2001
   97SAPC   C38 9603   5.741   1.468   4.153 -0.3001 -0.0556 -0.0024
   97SAPC   H8X 9604   5.658   1.393   4.149 -1.3422  1.0291  0.5878
   97SAPC   H8Y 9605   5.691   1.567   4.150 -0.4041 -0.0182  1.7489
   97SAPC   C39 9606   5.800   1.453   4.295  0.6022  0.1849  0.5551
   97SAPC   H9X 9607   5.871   1.367   4.300 -1.5446 -1.9030 -1.8143
   97SAPC   H9Y 9608   5.713   1.423   4.357 -0.0136  1.4686  0.3337
   97SAPC  C310 9609   5.860   1.576   4.362 -0.2448  0.2961 -0.1182
   97SAPC  H10X 9610   5.773   1.638   4.396 -0.1654  0.7314 -0.6936
   97SAPC  H10Y 9611   5.916   1.638   4.288  0.0907  0.2346  0.0824
   97SAPC  C311 9612   5.942   1.532   4.490  0.7337  0.1269  0.0229
   97SAPC  H11X 9613   6.051   1.524   4.471  0.8720 -0.0476  0.8729
   97SAPC  H11Y 9614   5.895   1.437   4.520  0.0300 -0.0607 -1.5516
   97SAPC  C312 9615   5.913   1.624   4.607  0.0988  0.1658 -0.3090
   97SAPC  H12X 9616   5.806   1.653   4.613  0.7595  2.8840 -0.1441
   97SAPC  H12Y 9617   5.956   1.723   4.580  0.2103 -0.1659 -1.3749
   97SAPC  C313 9618   5.963   1.564   4.743  0.5058  0.3456 -0.9700
   97SAPC  H13X 9619   6.062   1.520   4.720  0.1270 -0.2847 -1.4398
   97SAPC  H13Y 9620   5.889   1.489   4.776  0.1933  0.7723 -0.6831
   97SAPC  C314 9621   5.989   1.668   4.854  0.0598 -0.0084 -0.5726
   97SAPC  H14X 9622   6.036   1.753   4.801 -1.9548  0.2901 -2.0369
   97SAPC  H14Y 9623   6.048   1.625   4.937  1.2649  0.3526 -1.2139
   97SAPC  C315 9624   5.863   1.715   4.923  0.3301 -0.4562 -0.3515
   97SAPC  H15X 9625   5.810   1.620   4.946 -0.9752 -0.3428 -2.6222
   97SAPC  H15Y 9626   5.793   1.747   4.843 -1.2061 -1.8599  0.3461
   97SAPC  C316 9627   5.890   1.816   5.036 -0.3548 -0.5602 -0.0441
   97SAPC  H16X 9628   5.903   1.917   4.992 -4.0124  0.3924  0.7395
   97SAPC  H16Y 9629   5.993   1.797   5.074  0.3902  2.3261 -0.3737
   97SAPC  C317 9630   5.791   1.830   5.145  0.3356 -0.1868  0.3636
   97SAPC  H17X 9631   5.780   1.725   5.177 -0.3546 -0.3014 -0.2315
   97SAPC  H17Y 9632   5.696   1.867   5.101  1.3030  0.9447 -0.8849
   97SAPC  C318 9633   5.826   1.925   5.259 -0.6033  0.4312 -0.2258
   97SAPC  H18X 9634   5.914   1.882   5.312 -0.6887 -1.3553 -1.4432
   97SAPC  H18Y 9635   5.753   1.925   5.342 -0.1444 -0.9927  0.2200
   97SAPC  H18Z 9636   5.851   2.031   5.236 -1.0085  0.5625 -0.0550
   98SAPC     N 9637   2.942   2.993   2.075 -0.7143  0.1172 -0.2438
   98SAPC   C12 9638   2.890   2.927   2.197 -0.2035 -0.1740 -0.0427
   98SAPC  H12A 9639   2.977   2.871   2.231  0.3482  2.3273  3.2004
   98SAPC  H12B 9640   2.806   2.864   2.172  0.7086 -0.7243 -1.8808
   98SAPC   C13 9641   2.829   3.054   2.006  0.5924 -0.2313  0.2300
   98SAPC  H13A 9642   2.815   3.159   2.025 -1.0380 -0.0490 -1.6839
   98SAPC  H13B 9643   2.843   3.059   1.899 -0.6800  1.0042  0.0928
   98SAPC  H13C 9644   2.740   2.996   2.025 -1.1749  2.3178  0.2390
   98SAPC   C14 9645   3.047   3.100   2.113 -0.5013  0.0911 -0.1122
   98SAPC  H14A 9646   3.008   3.182   2.171  2.1079  1.3739 -0.0356
   98SAPC  H14B 9647   3.120   3.054   2.179 -0.5623 -1.9509 -1.3699
   98SAPC  H14C 9648   3.101   3.142   2.029  0.3689  0.3508  0.5652
   98SAPC   C15 9649   3.007   2.895   1.977 -0.3039  0.4975  0.1860
   98SAPC  H15A 9650   3.066   2.943   1.900 -0.9182  1.4779  0.3105
   98SAPC  H15B 9651   3.066   2.822   2.030 -0.4480  0.0806 -0.2289
   98SAPC  H15C 9652   2.933   2.842   1.920  0.5698  1.7985 -2.2929
   98SAPC   C11 9653   2.853   3.024   2.309  0.9649 -0.3664  0.3686
   98SAPC  H11A 9654   2.808   3.119   2.274  0.2185 -0.8651 -0.0658
   98SAPC  H11B 9655   2.935   3.059   2.374 -0.3321 -0.9308  2.4230
   98SAPC     P 9656   2.781   2.864   2.508  0.5742  0.5911 -0.5199
   98SAPC   O13 9657   2.654   2.830   2.570  0.8287  0.2980 -0.0446
   98SAPC   O14 9658   2.862   2.742   2.484 -0.8568  0.6178 -0.5659
   98SAPC   O12 9659   2.749   2.952   2.377  0.2936 -0.5965 -0.4421
   98SAPC   O11 9660   2.853   2.963   2.607 -0.1317 -0.0961 -0.3017
   98SAPC    C1 9661   2.867   2.933   2.748 -0.1512  0.5788 -0.3687
   98SAPC    HA 9662   2.862   2.824   2.769  0.3854  0.6999  0.4189
   98SAPC    HB 9663   2.971   2.965   2.773 -0.5275  2.5215 -1.1431
   98SAPC    C2 9664   2.754   2.999   2.836 -0.2800 -0.6127  0.4415
   98SAPC    HS 9665   2.659   2.941   2.826 -0.7188 -0.0936  1.4280
   98SAPC   O21 9666   2.736   3.142   2.788 -0.9142  0.4592  0.5385
   98SAPC   C21 9667   2.616   3.186   2.798 -0.4218 -0.0917 -0.0448
   98SAPC   O22 9668   2.516   3.128   2.831  0.0191  0.5158 -0.0525
   98SAPC   C22 9669   2.617   3.337   2.763  0.1489 -0.1692  0.1439
   98SAPC   H2R 9670   2.699   3.387   2.818 -0.2934  0.0216  0.6328
   98SAPC   H2S 9671   2.644   3.356   2.656  1.8153  0.6410  0.6727
   98SAPC    C3 9672   2.800   2.991   2.989  0.4648  0.4100  0.5095
   98SAPC    HX 9673   2.893   3.051   2.999  1.6408 -0.8697 -1.8679
   98SAPC    HY 9674   2.828   2.889   3.022 -0.6043  0.4738  1.6793
   98SAPC   O31 9675   2.694   3.035   3.071  0.9459 -0.2520  0.3439
   98SAPC   C31 9676   2.583   2.961   3.089 -0.4389  0.6218 -0.8156
   98SAPC   O32 9677   2.560   2.854   3.037 -0.0535 -1.0602  0.2687
   98SAPC   C32 9678   2.487   3.032   3.191 -0.2926  0.5993  0.1235
   98SAPC   H2X 9679   2.424   3.106   3.136 -2.4547 -1.1573  0.0753
   98SAPC   H2Y 9680   2.547   3.090   3.264  0.3576  0.8160 -0.5746
   98SAPC   C23 9681   2.480   3.405   2.775  0.1200 -0.1322  0.2914
   98SAPC   H3R 9682   2.397   3.337   2.744 -0.0566  1.4948 -3.2735
   98SAPC   H3S 9683   2.482   3.496   2.711  1.0545 -2.4108 -3.1282
   98SAPC   C24 9684   2.455   3.441   2.921  0.1510  0.3942  0.3503
   98SAPC   H4R 9685   2.444   3.347   2.979  1.7967 -0.1317 -0.1547
   98SAPC   H4S 9686   2.352   3.484   2.915  0.4378  1.3307  1.6776
   98SAPC   C25 9687   2.547   3.555   2.976 -0.1453  0.1616 -0.4472
   98SAPC   H5R 9688   2.583   3.621   2.896 -0.1300  0.9328  0.1845
   98SAPC   C26 9689   2.579   3.578   3.110 -0.1609  0.3234 -0.1760
   98SAPC   H6R 9690   2.614   3.675   3.147 -1.1544  0.6603 -0.0996
   98SAPC   C27 9691   2.527   3.503   3.225 -0.0965 -0.1465 -0.4028
   98SAPC   H7R 9692   2.463   3.422   3.186 -0.0525  0.4158 -1.6850
   98SAPC   H7S 9693   2.454   3.563   3.283  0.1216 -0.6708  0.4307
   98SAPC   C28 9694   2.632   3.451   3.322 -0.4458 -0.3961  0.2663
   98SAPC   H8R 9695   2.688   3.358   3.304 -0.4604 -0.5415  0.9521
   98SAPC   C29 9696   2.658   3.507   3.441 -0.4506 -0.3516 -0.3074
   98SAPC   H9R 9697   2.740   3.460   3.498 -0.4556 -0.4673 -0.3965
   98SAPC  C210 9698   2.589   3.627   3.500 -0.2218 -0.0469  0.7710
   98SAPC  H10R 9699   2.606   3.620   3.610  0.3149  0.9501  0.7666
   98SAPC  H10S 9700   2.482   3.630   3.471  0.2214 -1.6817 -1.1879
   98SAPC  C211 9701   2.651   3.750   3.448  0.2234  0.6638 -0.1038
   98SAPC  H11R 9702   2.685   3.748   3.344  1.4968 -1.6413  0.2928
   98SAPC  C212 9703   2.674   3.862   3.519 -0.5478  0.1715  0.6476
   98SAPC  H12R 9704   2.736   3.939   3.470  0.2512 -2.3447 -2.6668
   98SAPC  C213 9705   2.641   3.890   3.661  0.0913 -0.7177 -0.1122
   98SAPC  H13R 9706   2.541   3.846   3.683 -0.0946 -0.9281 -1.3287
   98SAPC  H13S 9707   2.628   4.000   3.676 -0.0656 -0.7834  0.2682
   98SAPC  C214 9708   2.748   3.833   3.754 -0.2006 -0.5645 -0.5841
   98SAPC  H14R 9709   2.842   3.888   3.738 -0.5954  0.0996 -0.6609
   98SAPC  C215 9710   2.741   3.756   3.863 -0.3155  0.0706  0.6720
   98SAPC  H15R 9711   2.834   3.723   3.912 -0.0619  0.2843  0.3337
   98SAPC  C216 9712   2.619   3.679   3.908 -0.6251  0.3496  0.0253
   98SAPC  H16R 9713   2.566   3.635   3.820  0.4043  0.5601 -0.7187
   98SAPC  H16S 9714   2.559   3.742   3.978 -1.0423  0.9473 -0.8471
   98SAPC  C217 9715   2.662   3.552   3.993 -0.0266 -0.2240 -0.0480
   98SAPC  H17R 9716   2.738   3.489   3.942  0.6157 -1.0405  1.8343
   98SAPC  H17S 9717   2.582   3.477   4.012  1.3552 -2.1634 -1.4903
   98SAPC  C218 9718   2.716   3.596   4.131  0.2550  0.4141 -0.5749
   98SAPC  H18R 9719   2.635   3.640   4.193 -2.6134 -2.8464 -1.6727
   98SAPC  H18S 9720   2.800   3.668   4.125  1.2864 -0.7862 -0.9662
   98SAPC  C219 9721   2.759   3.464   4.203 -0.4868 -0.1541  0.2175
   98SAPC  H19R 9722   2.844   3.428   4.142 -0.4623  1.1341 -0.5341
   98SAPC  H19S 9723   2.675   3.392   4.200  0.5457 -1.3771 -0.5108
   98SAPC  C220 9724   2.814   3.486   4.350 -0.8124  0.1405 -0.3905
   98SAPC  H20R 9725   2.855   3.393   4.396  2.4907  2.6642  2.2741
   98SAPC  H20S 9726   2.744   3.548   4.409 -1.8849 -0.7304 -0.7163
   98SAPC  H20T 9727   2.906   3.545   4.333 -0.8510 -0.0298 -1.2461
   98SAPC   C33 9728   2.391   2.943   3.269  0.1921 -0.1217  0.6880
   98SAPC   H3X 9729   2.360   2.860   3.202  1.0333  0.8665 -1.0205
   98SAPC   H3Y 9730   2.299   2.994   3.304 -1.5131 -1.3418 -1.7558
   98SAPC   C34 9731   2.446   2.890   3.403  0.7787  0.4469 -0.3375
   98SAPC   H4X 9732   2.494   2.970   3.463 -3.5408  2.7587  0.4256
   98SAPC   H4Y 9733   2.530   2.823   3.371 -0.0280  0.5577 -2.9453
   98SAPC   C35 9734   2.337   2.820   3.485  0.0929  0.4004  0.1571
   98SAPC   H5X 9735   2.316   2.714   3.456 -0.6954  0.1987  1.4137
   98SAPC   H5Y 9736   2.244   2.880   3.480  0.6302  1.2573  0.2511
   98SAPC   C36 9737   2.377   2.818   3.632 -0.0884  0.3770 -0.1845
   98SAPC   H6X 9738   2.287   2.799   3.695  1.0516 -0.7105  1.1820
   98SAPC   H6Y 9739   2.408   2.919   3.666  1.4888 -0.9287  2.6622
   98SAPC   C37 9740   2.485   2.717   3.673 -0.2850 -0.0856 -0.4316
   98SAPC   H7X 9741   2.554   2.707   3.587  1.7598 -0.9472  1.2235
   98SAPC   H7Y 9742   2.428   2.622   3.685 -0.8033  0.3947  1.1640
   98SAPC   C38 9743   2.571   2.757   3.792  0.0203  0.3473 -0.4590
   98SAPC   H8X 9744   2.664   2.814   3.771 -0.5177  1.2140 -0.5528
   98SAPC   H8Y 9745   2.615   2.664   3.833 -2.3195 -1.9918 -2.8239
   98SAPC   C39 9746   2.501   2.837   3.901 -0.2929  0.2696 -0.3192
   98SAPC   H9X 9747   2.426   2.772   3.951 -0.6340  1.3496  0.6129
   98SAPC   H9Y 9748   2.453   2.927   3.859  1.0690 -0.1656 -3.0215
   98SAPC  C310 9749   2.592   2.884   4.008 -0.1162 -0.2640 -0.3754
   98SAPC  H10X 9750   2.642   2.973   3.965 -0.7025  0.0737 -0.3755
   98SAPC  H10Y 9751   2.666   2.805   4.031 -1.1444 -0.8634  1.0034
   98SAPC  C311 9752   2.521   2.933   4.142 -0.3048  1.0792 -0.1856
   98SAPC  H11X 9753   2.462   2.846   4.178 -2.0040  2.0720 -0.4506
   98SAPC  H11Y 9754   2.451   3.017   4.124  0.8745  1.9160 -1.0089
   98SAPC  C312 9755   2.627   2.979   4.248  0.1557  0.0098  0.0669
   98SAPC  H12X 9756   2.671   3.077   4.218 -2.8802  1.4822  0.0830
   98SAPC  H12Y 9757   2.707   2.902   4.253  0.4804  0.3226 -0.1873
   98SAPC  C313 9758   2.569   3.005   4.388 -0.3828 -0.5436  0.0765
   98SAPC  H13X 9759   2.531   2.912   4.436 -1.5141 -0.8822 -1.3894
   98SAPC  H13Y 9760   2.475   3.058   4.362 -0.7917 -1.2614  0.0645
   98SAPC  C314 9761   2.662   3.088   4.478  0.2188 -0.4084  0.1946
   98SAPC  H14X 9762   2.618   3.126   4.573 -0.7941 -1.2453  0.0862
   98SAPC  H14Y 9763   2.682   3.173   4.409 -0.7082 -1.7026 -1.7630
   98SAPC  C315 9764   2.798   3.019   4.517  0.4853  0.3814  0.0008
   98SAPC  H15X 9765   2.853   3.006   4.421 -0.1453  1.6716 -0.5550
   98SAPC  H15Y 9766   2.782   2.923   4.571  0.8575 -0.7281 -1.7618
   98SAPC  C316 9767   2.877   3.103   4.622  0.8549  0.4476  0.4847
   98SAPC  H16X 9768   2.817   3.130   4.712  1.1561  3.2149 -0.0429
   98SAPC  H16Y 9769   2.892   3.202   4.573 -3.7073  0.0236 -2.3939
   98SAPC  C317 9770   3.018   3.045   4.667  0.0126  0.1691  0.0358
   98SAPC  H17X 9771   3.073   3.007   4.578  0.3321  0.2107  0.2139
   98SAPC  H17Y 9772   3.002   2.971   4.748  3.3361 -0.3785  0.3433
   98SAPC  C318 9773   3.100   3.151   4.738  0.2309  0.4732 -0.0903
   98SAPC  H18X 9774   3.137   3.223   4.662  0.0978  1.4798  0.7747
   98SAPC  H18Y 9775   3.183   3.105   4.796 -0.6442 -0.0808  0.7594
   98SAPC  H18Z 9776   3.024   3.196   4.805 -0.1814  2.0722 -1.5702
   99SAPC     N 9777   0.219   4.860   2.540  0.2637 -0.1415 -0.7489
   99SAPC   C12 9778   0.195   5.006   2.588 -1.2837  0.2668  0.0660
   99SAPC  H12A 9779   0.237   5.025   2.685  1.3045  0.0371 -0.9479
   99SAPC  H12B 9780   0.090   5.034   2.595 -0.8839  1.4358  2.1943
   99SAPC   C13 9781   0.104   4.822   2.456  0.7542 -0.3359  0.0995
   99SAPC  H13A 9782   0.015   4.779   2.500  1.0660 -1.1640 -0.0608
   99SAPC  H13B 9783   0.069   4.902   2.392  0.4849  0.6111  1.3816
   99SAPC  H13C 9784   0.129   4.760   2.372  0.4660 -0.0860 -0.1748
   99SAPC   C14 9785   0.355   4.829   2.488  0.3782 -0.2015  0.2312
   99SAPC  H14A 9786   0.365   4.876   2.391 -1.1557 -2.6417 -1.2538
   99SAPC  H14B 9787   0.434   4.859   2.555 -0.1480 -0.8911  1.1913
   99SAPC  H14C 9788   0.374   4.723   2.478  0.4629 -0.2081  0.4584
   99SAPC   C15 9789   0.207   4.777   2.661  0.5189  0.4251 -0.0628
   99SAPC  H15A 9790   0.260   4.808   2.750 -2.6799  1.7575  1.5375
   99SAPC  H15B 9791   0.105   4.760   2.692  1.0944  0.3609  1.9490
   99SAPC  H15C 9792   0.244   4.679   2.639  3.0307  0.9800  1.3220
   99SAPC   C11 9793   0.258   5.107   2.492  0.4792 -0.2779  0.6690
   99SAPC  H11A 9794   0.368   5.121   2.505  0.5259  1.3991 -1.0703
   99SAPC  H11B 9795   0.215   5.199   2.538 -1.8556 -1.9086  1.9558
   99SAPC     P 9796   0.078   5.142   2.316  0.1959 -0.2731  0.1211
   99SAPC   O13 9797   0.095   5.283   2.270  0.1661  0.1564  0.3685
   99SAPC   O14 9798   0.002   5.053   2.230 -0.1829  0.1724  0.0701
   99SAPC   O12 9799   0.229   5.087   2.351  0.1865  0.2543  0.3551
   99SAPC   O11 9800   0.001   5.157   2.447  0.1896  0.2624  0.2793
   99SAPC    C1 9801  -0.129   5.113   2.464  0.3207  0.3746  0.2108
   99SAPC    HA 9802  -0.198   5.180   2.409 -0.2078  1.5350  2.1942
   99SAPC    HB 9803  -0.143   5.012   2.420  1.3416  0.4819 -0.3863
   99SAPC    C2 9804  -0.181   5.121   2.610  0.1231  0.2106  0.3395
   99SAPC    HS 9805  -0.196   5.230   2.623 -1.2873  0.2586 -1.2649
   99SAPC   O21 9806  -0.077   5.073   2.701 -0.3932  0.1492  0.3782
   99SAPC   C21 9807  -0.090   5.119   2.823 -0.1907 -0.4330  0.5654
   99SAPC   O22 9808  -0.156   5.217   2.850 -0.0537  0.5941  0.8431
   99SAPC   C22 9809  -0.031   5.015   2.917  0.1216  0.2643 -0.1868
   99SAPC   H2R 9810  -0.031   4.918   2.863 -2.5922 -0.1434  0.4338
   99SAPC   H2S 9811   0.067   5.064   2.938 -0.1293  0.4857  0.4880
   99SAPC    C3 9812  -0.320   5.041   2.639 -0.3366 -0.5427 -0.5297
   99SAPC    HX 9813  -0.306   4.935   2.609 -0.7793 -1.0533  0.9932
   99SAPC    HY 9814  -0.392   5.073   2.561  0.9852 -1.9416 -2.4265
   99SAPC   O31 9815  -0.376   5.036   2.774  0.3291  0.2585 -0.5407
   99SAPC   C31 9816  -0.435   5.134   2.832  0.2146 -0.6284  0.6230
   99SAPC   O32 9817  -0.446   5.248   2.792 -0.3301  0.5622  0.0988
   99SAPC   C32 9818  -0.511   5.094   2.964  0.3509  0.1601  0.9285
   99SAPC   H2X 9819  -0.450   5.020   3.022  0.5983 -0.2347  0.1724
   99SAPC   H2Y 9820  -0.599   5.036   2.930  1.1003  0.1626 -1.1680
   99SAPC   C23 9821  -0.114   4.984   3.045  0.5007 -0.2994  0.0324
   99SAPC   H3R 9822  -0.057   4.911   3.105 -1.7555 -0.3714  2.2767
   99SAPC   H3S 9823  -0.210   4.945   3.005  0.8503  0.7665 -1.9671
   99SAPC   C24 9824  -0.127   5.095   3.146  0.7791 -0.1177 -0.4420
   99SAPC   H4R 9825  -0.181   5.183   3.105  0.2742 -1.5027 -2.9604
   99SAPC   H4S 9826  -0.026   5.117   3.184 -0.5183  1.5247  2.3780
   99SAPC   C25 9827  -0.204   5.032   3.259 -0.2195  0.3206 -0.1836
   99SAPC   H5R 9828  -0.226   4.925   3.247 -0.2299  0.0206  2.0809
   99SAPC   C26 9829  -0.239   5.095   3.372  0.3498  0.3948 -0.4539
   99SAPC   H6R 9830  -0.291   5.038   3.450  0.1802  0.5693 -0.4397
   99SAPC   C27 9831  -0.208   5.236   3.401 -0.8738 -0.8158  0.0760
   99SAPC   H7R 9832  -0.296   5.280   3.453 -0.7297  1.0122 -1.1187
   99SAPC   H7S 9833  -0.189   5.291   3.306  2.2790 -1.3986  0.2746
   99SAPC   C28 9834  -0.085   5.261   3.490 -0.3655  0.0430  0.8569
   99SAPC   H8R 9835   0.005   5.300   3.441 -1.2802  1.3365  0.1607
   99SAPC   C29 9836  -0.077   5.224   3.620  0.0206  0.2142  0.3745
   99SAPC   H9R 9837   0.020   5.229   3.671  0.1769 -0.5609  0.1599
   99SAPC  C210 9838  -0.184   5.174   3.704 -0.3085 -0.0066 -0.3168
   99SAPC  H10R 9839  -0.136   5.094   3.765 -1.0676 -1.3913 -1.4465
   99SAPC  H10S 9840  -0.264   5.121   3.648 -0.8895  0.7371 -0.1896
   99SAPC  C211 9841  -0.228   5.286   3.791 -0.0062 -0.3467  0.6600
   99SAPC  H11R 9842  -0.272   5.379   3.754 -0.3604 -0.0138  1.8929
   99SAPC  C212 9843  -0.233   5.267   3.923  0.5876 -0.3929 -0.5466
   99SAPC  H12R 9844  -0.261   5.353   3.986 -0.9459 -0.9194 -0.4531
   99SAPC  C213 9845  -0.201   5.145   4.001  0.5658 -0.0596  0.0888
   99SAPC  H13R 9846  -0.202   5.173   4.109 -0.5899 -1.5323  0.5004
   99SAPC  H13S 9847  -0.094   5.120   3.987  0.7998  0.3411  1.0729
   99SAPC  C214 9848  -0.283   5.016   3.979  0.0489 -0.3680 -0.1266
   99SAPC  H14R 9849  -0.350   5.015   3.892  0.6750  2.3184 -0.7192
   99SAPC  C215 9850  -0.278   4.913   4.067  1.5176 -0.2248 -0.4605
   99SAPC  H15R 9851  -0.354   4.836   4.050  0.0521  0.8984  0.7184
   99SAPC  C216 9852  -0.196   4.900   4.191  0.2594  0.9053 -0.6097
   99SAPC  H16R 9853  -0.133   4.987   4.217  1.2284 -0.4973  2.1281
   99SAPC  H16S 9854  -0.115   4.827   4.173  0.4803  1.2602 -1.0638
   99SAPC  C217 9855  -0.281   4.840   4.307 -0.5597 -0.0924  0.2530
   99SAPC  H17R 9856  -0.333   4.749   4.272 -0.7685  0.4173 -0.8246
   99SAPC  H17S 9857  -0.356   4.921   4.325  0.4106  0.7242  0.7530
   99SAPC  C218 9858  -0.209   4.819   4.439  0.1019 -0.0065  0.2879
   99SAPC  H18R 9859  -0.290   4.816   4.514 -0.6745 -0.1846 -0.5455
   99SAPC  H18S 9860  -0.143   4.907   4.459  0.0225  0.7851 -2.5160
   99SAPC  C219 9861  -0.133   4.687   4.455  0.3938 -0.5983 -0.2305
   99SAPC  H19R 9862  -0.056   4.672   4.376  0.2990  0.1403 -0.4706
   99SAPC  H19S 9863  -0.214   4.619   4.422 -2.2159  1.8490  0.7872
   99SAPC  C220 9864  -0.082   4.653   4.599  0.1630 -0.2293  0.2741
   99SAPC  H20R 9865  -0.066   4.544   4.614  2.4824  0.3533  2.9794
   99SAPC  H20S 9866  -0.156   4.697   4.669 -0.6624  1.2883 -1.4700
   99SAPC  H20T 9867   0.019   4.696   4.616  0.6056  0.0618 -2.6350
   99SAPC   C33 9868  -0.554   5.206   3.060 -0.3487  0.3371 -0.0770
   99SAPC   H3X 9869  -0.585   5.298   3.005 -0.0419  0.9391  0.7493
   99SAPC   H3Y 9870  -0.466   5.248   3.113  2.6042 -0.7453 -3.6822
   99SAPC   C34 9871  -0.668   5.157   3.145 -0.9247 -0.2200 -0.0400
   99SAPC   H4X 9872  -0.638   5.064   3.199  0.3496  0.1009 -0.1659
   99SAPC   H4Y 9873  -0.743   5.107   3.080  0.0864 -0.3866 -1.1091
   99SAPC   C35 9874  -0.729   5.274   3.228 -0.3848 -0.7943  0.7819
   99SAPC   H5X 9875  -0.837   5.256   3.247 -1.1685  0.3809 -2.0142
   99SAPC   H5Y 9876  -0.721   5.367   3.167 -1.1627 -1.1071  0.1866
   99SAPC   C36 9877  -0.666   5.290   3.360 -0.3701  0.0650  0.4119
   99SAPC   H6X 9878  -0.670   5.399   3.382  0.1527 -0.1782  1.8196
   99SAPC   H6Y 9879  -0.559   5.260   3.350 -0.7756 -0.9472 -1.2838
   99SAPC   C37 9880  -0.734   5.228   3.480 -0.1495 -0.2000 -0.5141
   99SAPC   H7X 9881  -0.730   5.117   3.470  0.0479 -0.1729 -0.7526
   99SAPC   H7Y 9882  -0.837   5.264   3.494  0.0156 -0.9190  3.8571
   99SAPC   C38 9883  -0.659   5.266   3.610 -0.4091 -0.7683  1.0104
   99SAPC   H8X 9884  -0.642   5.376   3.610  2.7005 -1.0773  3.5654
   99SAPC   H8Y 9885  -0.558   5.220   3.601 -0.0761 -0.0055  0.7618
   99SAPC   C39 9886  -0.727   5.227   3.736 -0.7846 -0.2710 -0.3753
   99SAPC   H9X 9887  -0.740   5.117   3.745  2.0347 -0.5889  0.9180
   99SAPC   H9Y 9888  -0.829   5.270   3.752 -1.1268 -1.4036  0.6599
   99SAPC  C310 9889  -0.648   5.248   3.865  0.5633 -0.4150 -0.5224
   99SAPC  H10X 9890  -0.655   5.354   3.899  1.4374 -0.4846 -0.1128
   99SAPC  H10Y 9891  -0.542   5.228   3.838  1.6011  0.2571  2.6309
   99SAPC  C311 9892  -0.678   5.151   3.975  0.6060 -0.6368 -0.1251
   99SAPC  H11X 9893  -0.644   5.050   3.943 -0.2329 -1.0278  0.2030
   99SAPC  H11Y 9894  -0.783   5.136   4.005  0.8480 -0.5251  0.8029
   99SAPC  C312 9895  -0.602   5.187   4.103  0.8979 -0.1894 -0.2896
   99SAPC  H12X 9896  -0.640   5.285   4.139 -0.9745  0.1346 -2.9015
   99SAPC  H12Y 9897  -0.494   5.201   4.081  1.2974 -2.7314 -0.2481
   99SAPC  C313 9898  -0.612   5.081   4.205  0.1042 -0.0519 -0.6830
   99SAPC  H13X 9899  -0.539   5.100   4.286 -0.5019 -1.0809  0.1203
   99SAPC  H13Y 9900  -0.579   4.984   4.162  0.9343 -0.5586  1.0235
   99SAPC  C314 9901  -0.753   5.076   4.262  0.7990  0.8375 -0.7083
   99SAPC  H14X 9902  -0.824   5.043   4.183  1.5096  3.5364 -2.6010
   99SAPC  H14Y 9903  -0.783   5.182   4.277  1.6880  1.0206 -0.1856
   99SAPC  C315 9904  -0.768   4.989   4.394  1.2776  0.2738 -0.0152
   99SAPC  H15X 9905  -0.703   4.899   4.402  2.9454  1.3751 -0.4981
   99SAPC  H15Y 9906  -0.871   4.948   4.400  1.5311 -0.4076 -0.2113
   99SAPC  C316 9907  -0.735   5.072   4.511  0.1698 -0.2309 -1.0050
   99SAPC  H16X 9908  -0.648   5.137   4.489  0.5490  0.4480  2.0622
   99SAPC  H16Y 9909  -0.709   5.016   4.603  0.1233  0.5555 -0.5077
   99SAPC  C317 9910  -0.857   5.157   4.562  0.8443  0.0601 -0.2995
   99SAPC  H17X 9911  -0.951   5.100   4.544  1.1964 -0.6003 -0.0603
   99SAPC  H17Y 9912  -0.877   5.251   4.506  0.0940 -0.1181 -0.3497
   99SAPC  C318 9913  -0.840   5.192   4.708  0.2270 -0.1992 -0.0058
   99SAPC  H18X 9914  -0.904   5.279   4.735  0.7107 -0.0593  0.7330
   99SAPC  H18Y 9915  -0.737   5.228   4.725 -0.2481  1.6279 -0.7153
   99SAPC  H18Z 9916  -0.875   5.111   4.774  1.0299 -0.9705 -0.5125
  100SAPC     N 9917   4.944   6.827   2.146  0.3191 -0.0638 -0.0994
  100SAPC   C12 9918   4.938   6.780   2.292 -0.4182  0.5550  0.6250
  100SAPC  H12A 9919   4.995   6.844   2.358  0.5424 -0.4987  0.8572
  100SAPC  H12B 9920   4.996   6.689   2.293 -0.8402  0.2616 -0.2874
  100SAPC   C13 9921   4.909   6.714   2.058 -0.6678  0.4722  0.0953
  100SAPC  H13A 9922   4.806   6.686   2.073 -0.5575 -1.2607 -1.9677
  100SAPC  H13B 9923   4.919   6.739   1.953 -2.9123  0.0561 -0.2631
  100SAPC  H13C 9924   4.969   6.625   2.071  0.7061  1.4991  1.1711
  100SAPC   C14 9925   4.855   6.938   2.121  1.0337 -0.1873  1.0840
  100SAPC  H14A 9926   4.871   6.974   2.020  1.1153  0.2910  1.2679
  100SAPC  H14B 9927   4.748   6.923   2.128  0.7310  0.5548 -1.0205
  100SAPC  H14C 9928   4.877   7.027   2.177  0.7081 -0.8104  2.2211
  100SAPC   C15 9929   5.082   6.881   2.115  0.1108  0.0287 -0.8999
  100SAPC  H15A 9930   5.159   6.816   2.153  0.1429  1.3505  1.5497
  100SAPC  H15B 9931   5.094   6.895   2.009  0.6100 -1.5179 -1.0653
  100SAPC  H15C 9932   5.110   6.978   2.155  1.8052 -0.8892  0.2524
  100SAPC   C11 9933   4.800   6.746   2.354 -0.3330 -0.1253 -0.7230
  100SAPC  H11A 9934   4.759   6.662   2.294  1.4942 -1.4064 -0.2799
  100SAPC  H11B 9935   4.728   6.830   2.360  0.5601  0.5617  2.5880
  100SAPC     P 9936   4.795   6.780   2.615  0.1638 -0.0378 -0.4018
  100SAPC   O13 9937   4.862   6.910   2.591  0.1069  0.2198 -0.1927
  100SAPC   O14 9938   4.645   6.775   2.635 -0.2467 -0.2188  0.1563
  100SAPC   O12 9939   4.822   6.691   2.485 -0.0051  0.1349  0.5242
  100SAPC   O11 9940   4.860   6.692   2.731  0.1682  0.3437  0.3526
  100SAPC    C1 9941   5.002   6.709   2.757  0.4886  0.3012 -0.1447
  100SAPC    HA 9942   5.066   6.678   2.672  2.1182 -1.0032  1.4652
  100SAPC    HB 9943   5.019   6.818   2.766  1.6738  0.1341 -0.2381
  100SAPC    C2 9944   5.044   6.624   2.882  0.2496 -0.7004  0.5546
  100SAPC    HS 9945   5.154   6.639   2.895  0.3386 -1.4035  0.6228
  100SAPC   O21 9946   4.996   6.492   2.872 -0.0540 -0.2076  0.5249
  100SAPC   C21 9947   5.058   6.402   2.939  0.2458  0.9041 -0.1348
  100SAPC   O22 9948   5.148   6.415   3.024  0.3144 -0.2785  0.5618
  100SAPC   C22 9949   4.999   6.259   2.902 -0.4831  0.0816 -0.0179
  100SAPC   H2R 9950   4.897   6.267   2.860 -0.4498 -2.0958 -0.6162
  100SAPC   H2S 9951   5.073   6.227   2.825 -0.0100  0.1070  0.4135
  100SAPC    C3 9952   4.983   6.697   3.007  0.0003  0.6096  0.8987
  100SAPC    HX 9953   4.873   6.697   2.993  0.2289 -2.4854 -2.0525
  100SAPC    HY 9954   5.023   6.800   2.993  0.6451  0.3935  1.1135
  100SAPC   O31 9955   5.031   6.631   3.125 -0.3630  0.3214  0.0533
  100SAPC   C31 9956   4.960   6.643   3.245 -0.3374 -0.1180  0.7099
  100SAPC   O32 9957   4.852   6.698   3.247 -0.0533 -0.2827 -0.4862
  100SAPC   C32 9958   5.040   6.592   3.361 -0.4548  0.5812  0.0647
  100SAPC   H2X 9959   5.143   6.627   3.337 -1.4021  2.7289 -1.1558
  100SAPC   H2Y 9960   5.046   6.481   3.358  1.8855  0.6700 -0.2307
  100SAPC   C23 9961   5.006   6.150   3.011  0.0128 -0.2161  0.2900
  100SAPC   H3R 9962   5.103   6.145   3.064  1.2207  1.1239 -1.6673
  100SAPC   H3S 9963   5.005   6.056   2.952  3.3485 -0.0501 -0.2270
  100SAPC   C24 9964   4.888   6.161   3.117 -0.3925  0.4336  0.3827
  100SAPC   H4R 9965   4.792   6.146   3.063 -1.0487 -1.0275  1.8782
  100SAPC   H4S 9966   4.883   6.261   3.166  1.3653  1.1826 -0.8478
  100SAPC   C25 9967   4.880   6.059   3.231 -0.1969 -0.4021 -0.2392
  100SAPC   H5R 9968   4.884   5.955   3.195  0.8482 -1.1847  1.9998
  100SAPC   C26 9969   4.862   6.077   3.364  0.9687  0.1225  0.2857
  100SAPC   H6R 9970   4.849   5.986   3.424  2.1922 -1.0183 -1.1125
  100SAPC   C27 9971   4.845   6.203   3.444 -0.2094  0.7392 -0.5174
  100SAPC   H7R 9972   4.871   6.295   3.388 -0.6750  2.0050  1.2491
  100SAPC   H7S 9973   4.909   6.195   3.535 -3.7540 -1.2114  2.0737
  100SAPC   C28 9974   4.710   6.230   3.486 -0.0274  0.2839 -0.3330
  100SAPC   H8R 9975   4.640   6.229   3.400  0.2884 -0.2009 -0.5880
  100SAPC   C29 9976   4.656   6.248   3.608  0.5998  0.7305 -0.3532
  100SAPC   H9R 9977   4.551   6.279   3.617  0.2223 -0.8459  1.1571
  100SAPC  C210 9978   4.730   6.248   3.732 -0.1329 -0.8390 -0.2493
  100SAPC  H10R 9979   4.687   6.330   3.792  1.1791  0.8408 -1.5040
  100SAPC  H10S 9980   4.837   6.275   3.724 -0.1666 -0.7979 -0.5627
  100SAPC  C211 9981   4.723   6.115   3.794  0.2750  0.2880  0.4177
  100SAPC  H11R 9982   4.740   6.031   3.725  0.0872 -0.1280  0.8714
  100SAPC  C212 9983   4.729   6.098   3.928  0.3790  0.4886  0.0383
  100SAPC  H12R 9984   4.699   6.005   3.978 -1.5792  1.7407  1.3233
  100SAPC  C213 9985   4.733   6.195   4.040 -0.3381 -0.6758 -0.0179
  100SAPC  H13R 9986   4.739   6.137   4.134 -0.3594 -0.0666  0.3698
  100SAPC  H13S 9987   4.633   6.242   4.025  0.3206  0.6418 -0.5440
  100SAPC  C214 9988   4.848   6.297   4.044  0.2193  0.2162 -0.8084
  100SAPC  H14R 9989   4.922   6.283   3.964  1.5004  2.2181 -0.0678
  100SAPC  C215 9990   4.864   6.396   4.136  0.0264 -0.4550  0.6788
  100SAPC  H15R 9991   4.955   6.458   4.133 -0.8907  0.8882 -0.0923
  100SAPC  C216 9992   4.770   6.431   4.249  0.0927  0.7610  0.5173
  100SAPC  H16R 9993   4.689   6.359   4.272  1.7954 -0.6585  2.5797
  100SAPC  H16S 9994   4.719   6.526   4.223  1.9202  1.3336 -1.2701
  100SAPC  C217 9995   4.852   6.441   4.376 -0.6826 -0.7349 -0.3080
  100SAPC  H17R 9996   4.922   6.527   4.382 -0.5609 -0.8844  0.5821
  100SAPC  H17S 9997   4.919   6.357   4.403 -1.3379 -0.6870  1.6586
  100SAPC  C218 9998   4.772   6.474   4.503 -0.1691  0.0424 -0.3158
  100SAPC  H18R 9999   4.695   6.548   4.472  1.1853  1.3586 -0.6594
  100SAPC  H18S10000   4.842   6.516   4.578  0.0167  0.5186 -0.7495
  100SAPC  C21910001   4.692   6.370   4.562 -0.1593  0.5453 -0.9541
  100SAPC  H19R10002   4.744   6.274   4.581  0.7939  0.9068 -1.6867
  100SAPC  H19S10003   4.611   6.349   4.489 -1.5295  1.7877  0.1382
  100SAPC  C22010004   4.620   6.411   4.694 -0.2405  0.0347  0.1945
  100SAPC  H20R10005   4.518   6.367   4.694 -0.9759  1.4021 -3.0460
  100SAPC  H20S10006   4.597   6.519   4.710  0.4393  0.2171  0.0051
  100SAPC  H20T10007   4.680   6.376   4.780  0.5643  3.8200  1.3780
  100SAPC   C3310008   5.010   6.641   3.509 -0.6598 -0.7806  0.5210
  100SAPC   H3X10009   5.060   6.740   3.514 -2.5866  0.4198 -1.8500
  100SAPC   H3Y10010   5.054   6.573   3.585 -2.3665 -0.5253  1.7767
  100SAPC   C3410011   4.860   6.655   3.537  0.6666 -0.5501  0.4663
  100SAPC   H4X10012   4.806   6.561   3.513  0.6523 -0.7623  1.2848
  100SAPC   H4Y10013   4.813   6.716   3.457  1.3555 -1.7434 -0.9035
  100SAPC   C3510014   4.837   6.697   3.685  1.2559  0.2236  0.3205
  100SAPC   H5X10015   4.885   6.628   3.757  1.7532  0.7306  0.4826
  100SAPC   H5Y10016   4.727   6.692   3.698  1.1148  1.6272 -0.1517
  100SAPC   C3610017   4.890   6.837   3.715  0.5508 -0.0902  0.3534
  100SAPC   H6X10018   4.846   6.915   3.650  0.0569  1.1589  2.0966
  100SAPC   H6Y10019   4.998   6.852   3.696  0.7570  0.9682  2.1399
  100SAPC   C3710020   4.843   6.878   3.859  0.5323 -0.1617  0.2901
  100SAPC   H7X10021   4.741   6.845   3.889  0.8482  0.0539  1.6581
  100SAPC   H7Y10022   4.835   6.989   3.870  0.4962 -0.2374  1.0579
  100SAPC   C3810023   4.932   6.829   3.964  0.2355  0.0143 -0.5185
  100SAPC   H8X10024   5.037   6.848   3.935  0.3402 -1.0030 -0.8582
  100SAPC   H8Y10025   4.928   6.718   3.974  0.2571  0.0588  0.0336
  100SAPC   C3910026   4.925   6.890   4.106 -0.0021 -0.2861  0.8753
  100SAPC   H9X10027   4.832   6.859   4.157  0.0643 -1.4517  0.3053
  100SAPC   H9Y10028   4.922   7.001   4.099  0.5761 -0.3578 -1.2617
  100SAPC  C31010029   5.049   6.858   4.187  0.7677 -0.2356  0.1935
  100SAPC  H10X10030   5.124   6.905   4.120  1.9967 -0.2358  1.5199
  100SAPC  H10Y10031   5.068   6.748   4.183 -0.0888 -0.4926  2.1808
  100SAPC  C31110032   5.065   6.907   4.328 -0.0647  0.0066  0.1757
  100SAPC  H11X10033   4.979   6.867   4.387 -0.0457 -1.1023 -0.5164
  100SAPC  H11Y10034   5.071   7.018   4.323 -1.2336  0.0482 -0.8628
  100SAPC  C31210035   5.199   6.868   4.389  0.4077  0.4589 -0.0477
  100SAPC  H12X10036   5.217   6.759   4.391  0.7670  0.5217  0.1549
  100SAPC  H12Y10037   5.184   6.896   4.495 -1.4647 -0.2017 -0.1028
  100SAPC  C31310038   5.321   6.947   4.343 -0.2260 -0.2624 -0.2913
  100SAPC  H13X10039   5.299   7.054   4.320  2.6468  0.2947 -0.9467
  100SAPC  H13Y10040   5.359   6.910   4.245  1.1638 -2.1230  0.8681
  100SAPC  C31410041   5.439   6.938   4.434  0.1871 -0.0222  0.1649
  100SAPC  H14X10042   5.525   6.978   4.376  0.3186  0.2685  0.5535
  100SAPC  H14Y10043   5.451   6.830   4.454  0.8745  0.4684  2.8096
  100SAPC  C31510044   5.427   7.017   4.566 -0.4236  0.6131  1.2241
  100SAPC  H15X10045   5.355   6.960   4.627 -1.3410 -1.0901 -1.3074
  100SAPC  H15Y10046   5.391   7.118   4.538 -3.1991 -0.6262 -0.0805
  100SAPC  C31610047   5.563   7.023   4.636 -0.2546 -0.0054 -0.0375
  100SAPC  H16X10048   5.641   7.036   4.557  1.1273  1.3521  1.4826
  100SAPC  H16Y10049   5.588   6.930   4.690  1.0188 -0.9166 -2.0578
  100SAPC  C31710050   5.567   7.139   4.735 -0.7108  0.6568  0.0331
  100SAPC  H17X10051   5.488   7.131   4.813 -0.3073  2.9181  0.7541
  100SAPC  H17Y10052   5.550   7.227   4.669 -0.1338 -0.2920 -1.4413
  100SAPC  C31810053   5.705   7.148   4.797 -0.4625  0.5783  0.4236
  100SAPC  H18X10054   5.717   7.050   4.849  2.9418  2.6714  4.1172
  100SAPC  H18Y10055   5.721   7.235   4.864  2.4930 -1.3774  2.5519
  100SAPC  H18Z10056   5.782   7.157   4.718  0.1749 -1.7544  0.6785
  101OSM      N10057   1.864   4.981   7.349 -0.0318 -0.5168  0.2535
  101OSM    C1510058   1.900   5.124   7.339 -0.6048  0.4073 -0.6522
  101OSM   H15A10059   1.891   5.168   7.437  0.2103 -1.4899  0.3291
  101OSM   H15B10060   1.818   5.175   7.291 -0.3904  0.1232 -1.3264
  101OSM   H15C10061   2.001   5.138   7.303  0.7387 -2.5363  1.5859
  101OSM    C1410062   1.972   4.886   7.394 -0.0067 -0.8650 -0.5320
  101OSM   H14A10063   1.999   4.892   7.499 -1.0812  0.8714 -0.3107
  101OSM   H14B10064   2.058   4.901   7.331  0.5770  0.1982  0.4790
  101OSM   H14C10065   1.938   4.788   7.366 -0.1713 -0.4805 -1.7053
  101OSM    C1310066   1.736   4.975   7.436  0.2808  0.0580 -0.0171
  101OSM   H13A10067   1.762   5.012   7.534 -1.4262 -1.4433  1.0764
  101OSM   H13B10068   1.699   4.874   7.441 -0.7091  0.2289 -2.4491
  101OSM   H13C10069   1.667   5.038   7.382  1.4520 -1.0355 -2.9532
  101OSM    C1210070   1.815   4.938   7.210 -0.1684 -0.7955 -0.0111
  101OSM   H12A10071   1.727   4.997   7.189 -1.1877 -2.2473  0.0303
  101OSM   H12B10072   1.773   4.841   7.228 -0.7301 -0.1294  2.7213
  101OSM    C1110073   1.921   4.928   7.094  0.5984  0.3248 -0.2673
  101OSM   H11A10074   1.961   5.030   7.074 -0.4116  1.0019  1.0210
  101OSM   H11B10075   1.862   4.905   7.002  0.5605  2.0742 -0.7214
  101OSM      P10076   2.004   4.684   7.095  0.4804  0.1771  0.1719
  101OSM    O1310077   2.129   4.605   7.111 -0.1927 -0.0242  0.5263
  101OSM    O1410078   1.886   4.632   7.164  0.3006  0.0133 -0.8784
  101OSM    O1110079   1.964   4.701   6.944 -0.2476 -0.0504 -0.0991
  101OSM    O1210080   2.026   4.836   7.127 -1.1468  0.1629 -0.2490
  101OSM    C1S10081   2.066   4.770   6.858  0.3075  0.2607  0.1629
  101OSM    H1S10082   2.155   4.704   6.863 -0.0752 -0.1742  2.7467
  101OSM    H1T10083   2.100   4.869   6.894 -1.2898  0.0451  2.5033
  101OSM     NF10084   2.137   4.847   6.632 -0.0856  0.6962  0.3232
  101OSM    HNF10085   2.149   4.946   6.628  0.5899  0.5797 -0.9811
  101OSM    C2S10086   2.030   4.782   6.700  0.3940  0.8595 -0.9970
  101OSM    H2S10087   2.010   4.678   6.668 -1.7486 -0.0625  2.6946
  101OSM    C3S10088   1.899   4.861   6.688  0.5633 -0.5355  0.3235
  101OSM    H3S10089   1.900   4.963   6.732 -1.6791  0.1122 -0.9432
  101OSM     O310090   1.786   4.795   6.748 -0.3867 -0.3200  0.5022
  101OSM    HO310091   1.817   4.756   6.830 -0.1821 -2.5575 -0.5508
  101OSM    C4S10092   1.852   4.888   6.543  0.0644 -0.2261  0.5490
  101OSM    H4S10093   1.874   4.807   6.472  2.1125  1.6278 -1.0483
  101OSM    C5S10094   1.831   5.011   6.489  0.2789  0.1246 -0.1194
  101OSM    H5S10095   1.859   5.099   6.548  2.0254 -1.2041  1.1516
  101OSM    C6S10096   1.802   5.035   6.342  0.1156  0.1804 -0.2619
  101OSM    H6S10097   1.890   5.023   6.276 -0.5038 -0.8389 -0.9158
  101OSM    H6T10098   1.758   5.137   6.328  0.5578  0.4767  0.4420
  101OSM    C7S10099   1.707   4.936   6.280 -0.0668 -0.1098 -0.2760
  101OSM    H7S10100   1.603   4.964   6.308 -0.2619 -1.6033  0.6419
  101OSM    H7T10101   1.724   4.833   6.318  2.7853  1.0404  1.9775
  101OSM    C8S10102   1.722   4.923   6.131 -0.5728 -0.2299 -0.7712
  101OSM    H8S10103   1.831   4.912   6.112 -0.3311  0.0481  0.3849
  101OSM    H8T10104   1.677   5.014   6.086 -2.0984 -1.1016 -1.0662
  101OSM    C9S10105   1.651   4.800   6.080 -0.1936  0.1734 -0.2071
  101OSM    H9S10106   1.561   4.787   6.143  2.2954 -0.2848  3.6402
  101OSM    H9T10107   1.709   4.705   6.089 -1.6205 -0.6705  0.4671
  101OSM   C10S10108   1.631   4.805   5.929 -0.7458 -0.3332  0.4009
  101OSM   H10S10109   1.728   4.825   5.878 -0.9575  1.2128  0.5666
  101OSM   H10T10110   1.580   4.901   5.906  1.0744  0.2074 -1.8267
  101OSM   C11S10111   1.561   4.688   5.855 -0.4054  0.0381 -0.0023
  101OSM   H11S10112   1.460   4.680   5.902 -1.2193  1.2684 -1.4842
  101OSM   H11T10113   1.619   4.594   5.864 -1.3038 -0.5890 -0.5284
  101OSM   C12S10114   1.542   4.702   5.697  0.5096 -0.1843  0.0184
  101OSM   H12S10115   1.483   4.793   5.673  0.8670  0.6159  1.9286
  101OSM   H12T10116   1.476   4.622   5.657  0.3109  0.9527 -2.0815
  101OSM   C13S10117   1.674   4.714   5.624  0.0049 -0.1289  0.3917
  101OSM   H13S10118   1.733   4.620   5.633 -1.1355 -0.7727  1.5032
  101OSM   H13T10119   1.742   4.795   5.661 -1.0429  0.1070  1.9161
  101OSM   C14S10120   1.672   4.740   5.473 -0.3358 -0.1711  0.0927
  101OSM   H14S10121   1.634   4.650   5.420  1.0801 -0.0616 -1.2219
  101OSM   H14T10122   1.776   4.767   5.445 -0.2678  0.3696  0.8324
  101OSM   C15S10123   1.593   4.869   5.448 -0.5206  0.2927  0.1259
  101OSM   H15S10124   1.603   4.945   5.528  1.6854  0.7797 -0.5158
  101OSM   H15T10125   1.485   4.844   5.438 -0.5794  1.0028 -1.4101
  101OSM   C16S10126   1.614   4.911   5.299 -0.6092 -0.6838  0.7439
  101OSM   H16S10127   1.641   4.824   5.234  2.1772 -0.1683  1.0571
  101OSM   H16T10128   1.705   4.975   5.306  1.0057 -2.9855  2.1938
  101OSM   C17S10129   1.500   4.987   5.232 -0.4989  0.3360  0.3804
  101OSM   H17S10130   1.480   5.082   5.284  0.1841 -0.8592  2.9865
  101OSM   H17T10131   1.404   4.933   5.242 -0.3850  0.4400  2.5112
  101OSM   C18S10132   1.520   5.015   5.083  0.7150 -0.2288 -0.1553
  101OSM   H18S10133   1.505   4.922   5.025 -1.7602  0.4660 -0.7770
  101OSM   H18T10134   1.619   5.060   5.060  0.0101  1.9882  0.8410
  101OSM   H18U10135   1.450   5.090   5.040  2.2390 -0.2504 -2.8462
  101OSM    C1F10136   2.236   4.762   6.607  0.4701  0.6533 -0.7878
  101OSM     OF10137   2.239   4.647   6.657  0.3732  0.3746  0.3495
  101OSM    C2F10138   2.356   4.813   6.529  0.1432  0.5363 -0.1836
  101OSM    H2F10139   2.439   4.752   6.569 -1.5689 -0.8376  1.4591
  101OSM    H2G10140   2.376   4.921   6.545  0.7408  0.9117 -2.9529
  101OSM    C3F10141   2.343   4.788   6.374 -0.8178  0.0344  0.1240
  101OSM    H3F10142   2.289   4.692   6.358  0.5318 -0.8738  0.8642
  101OSM    H3G10143   2.444   4.780   6.330 -0.8077  2.4734 -0.4137
  101OSM    C4F10144   2.259   4.905   6.313 -0.1197  1.3847  0.2006
  101OSM    H4F10145   2.295   5.005   6.343  1.2080  0.7093  0.9549
  101OSM    H4G10146   2.156   4.911   6.355  0.3030  1.1528  1.3175
  101OSM    C5F10147   2.255   4.898   6.160  1.0499 -0.0682 -0.0952
  101OSM    H5F10148   2.206   4.807   6.120  0.3257 -0.1076  0.8324
  101OSM    H5G10149   2.359   4.895   6.122  0.1288 -1.5757 -2.8298
  101OSM    C6F10150   2.198   5.025   6.096  0.0773  0.4312  0.4538
  101OSM    H6F10151   2.241   5.117   6.142 -2.1411  1.6296  0.2823
  101OSM    H6G10152   2.088   5.016   6.095  0.1595 -1.6299 -2.0148
  101OSM    C7F10153   2.238   5.034   5.948 -0.1072 -0.6638 -0.2170
  101OSM    H7F10154   2.345   5.034   5.920 -0.8352  2.9471 -4.0329
  101OSM    H7G10155   2.205   5.122   5.888  3.2611  0.1192 -1.1474
  101OSM    C8F10156   2.186   4.918   5.857 -0.6600  0.7653  0.2487
  101OSM    H8F10157   2.224   4.818   5.885 -0.1391  0.1714 -2.3295
  101OSM    H8G10158   2.242   4.933   5.763  1.9275  0.8851  1.7371
  101OSM    C9F10159   2.045   4.915   5.833  0.4487 -0.0632  0.2555
  101OSM    H9F10160   1.998   4.826   5.880  1.2666 -0.2258  0.7807
  101OSM   C10F10161   1.977   4.990   5.744 -0.3802 -0.6021  0.6673
  101OSM   H10F10162   1.868   4.986   5.733 -0.4024  2.4351 -1.3085
  101OSM   C11F10163   2.027   5.102   5.655 -0.1771 -0.7217 -0.3344
  101OSM   H11F10164   2.126   5.131   5.697  0.6065 -1.6186 -1.5072
  101OSM   H11G10165   1.967   5.194   5.673  0.3066 -0.5776  0.6330
  101OSM   C12F10166   2.033   5.077   5.501  0.1434 -0.2407 -0.6188
  101OSM   H12F10167   2.064   5.168   5.447 -0.5247  1.1016  1.1558
  101OSM   H12G10168   1.931   5.074   5.458  0.0911 -0.0630 -0.5105
  101OSM   C13F10169   2.106   4.949   5.472  0.5760  0.0608 -0.3490
  101OSM   H13F10170   2.065   4.869   5.537  1.1004  2.0326  2.6103
  101OSM   H13G10171   2.212   4.967   5.499  0.8133 -3.0450  1.1711
  101OSM   C14F10172   2.098   4.905   5.329  0.7299 -0.2985  0.2857
  101OSM   H14F10173   2.095   4.996   5.265  1.1037 -1.5332 -1.5693
  101OSM   H14G10174   1.999   4.857   5.313  0.8432 -0.1342 -1.0588
  101OSM   C15F10175   2.199   4.808   5.273  0.3721 -0.1252 -0.1183
  101OSM   H15F10176   2.206   4.721   5.342  0.4485 -0.1180 -0.1156
  101OSM   H15G10177   2.299   4.857   5.280 -1.1804  3.2201  0.5556
  101OSM   C16F10178   2.182   4.768   5.123  0.6533 -0.6572 -0.7753
  101OSM   H16F10179   2.213   4.855   5.060  1.8438 -0.0361  0.6233
  101OSM   H16G10180   2.074   4.757   5.097  0.1818 -0.9989  1.2084
  101OSM   C17F10181   2.275   4.648   5.088  0.1159  0.6054  0.1292
  101OSM   H17F10182   2.238   4.549   5.123  0.9192  0.6602  1.1774
  101OSM   H17G10183   2.372   4.671   5.138 -0.5504 -0.2860  1.9172
  101OSM   C18F10184   2.287   4.625   4.943 -0.0344  0.3190  0.9403
  101OSM   H18F10185   2.353   4.541   4.912  0.7457  1.0465  0.5921
  101OSM   H18G10186   2.332   4.714   4.894  1.0980 -0.8921 -0.2998
  101OSM   H18H10187   2.187   4.611   4.897 -0.2859  2.6004  0.6606
  102OSM      N10188   3.063   4.882   6.972 -0.7062 -0.1875 -0.4307
  102OSM    C1510189   3.191   4.801   7.002  0.7015 -0.3585 -0.4534
  102OSM   H15A10190   3.146   4.707   6.972  1.6691 -0.1877 -2.6544
  102OSM   H15B10191   3.211   4.817   7.106 -2.2903  0.9666  0.0354
  102OSM   H15C10192   3.277   4.808   6.937  0.5946  0.6286 -0.5002
  102OSM    C1410193   2.946   4.831   7.050 -0.2817  0.2985 -0.4710
  102OSM   H14A10194   2.852   4.884   7.039 -0.0282  0.7173 -0.6431
  102OSM   H14B10195   2.968   4.830   7.156 -0.3028 -1.3051 -0.4622
  102OSM   H14C10196   2.931   4.727   7.024 -1.2033  0.4304 -0.5005
  102OSM    C1310197   3.087   5.028   7.000 -0.1128 -0.2048  0.1472
  102OSM   H13A10198   3.119   5.046   7.101  1.7907 -0.8671 -0.2953
  102OSM   H13B10199   2.987   5.069   6.988 -0.9204 -2.1601 -0.1022
  102OSM   H13C10200   3.156   5.082   6.936  0.8326 -1.3873  0.1437
  102OSM    C1210201   3.045   4.868   6.822 -0.4533 -0.2037 -0.2576
  102OSM   H12A10202   3.139   4.890   6.775 -1.3064  1.8920 -1.1227
  102OSM   H12B10203   2.983   4.950   6.789  0.3063  0.5917  0.2531
  102OSM    C1110204   2.995   4.725   6.774  0.1147  0.0359 -0.1551
  102OSM   H11A10205   2.984   4.724   6.664 -0.1336 -1.7600 -0.1316
  102OSM   H11B10206   2.890   4.722   6.809  0.6960 -2.8643  1.7521
  102OSM      P10207   3.003   4.472   6.841 -0.1136 -0.1312 -0.0045
  102OSM    O1310208   3.089   4.394   6.928  0.0207 -0.5845 -0.0976
  102OSM    O1410209   2.872   4.503   6.902 -0.1569 -0.2819  0.2739
  102OSM    O1110210   2.981   4.400   6.707 -0.1234  0.1947  0.0834
  102OSM    O1210211   3.077   4.609   6.807 -0.5454 -0.3100  0.0677
  102OSM    C1S10212   2.882   4.436   6.621  0.9293 -0.8668 -0.0075
  102OSM    H1S10213   2.894   4.539   6.582 -2.7462  0.0164  0.8117
  102OSM    H1T10214   2.781   4.425   6.665  0.3027  0.1669 -1.1619
  102OSM     NF10215   2.777   4.379   6.397 -0.1283 -0.7244  0.4514
  102OSM    HNF10216   2.707   4.312   6.373 -0.4103 -0.4229  0.4227
  102OSM    C2S10217   2.878   4.342   6.502 -0.0794  0.6362  0.5978
  102OSM    H2S10218   2.972   4.358   6.445 -0.5516 -0.3197 -0.5040
  102OSM    C3S10219   2.880   4.189   6.537 -0.1645  0.1070 -0.0739
  102OSM    H3S10220   2.790   4.160   6.595 -0.0968  0.0627  0.0086
  102OSM     O310221   2.984   4.155   6.626  0.1197  0.8802 -0.4844
  102OSM    HO310222   3.009   4.234   6.675 -1.2923  0.4127  1.1009
  102OSM    C4S10223   2.885   4.093   6.427 -0.3125 -0.1289  1.0254
  102OSM    H4S10224   2.794   4.033   6.413 -0.5534  0.7345 -1.7040
  102OSM    C5S10225   2.992   4.050   6.345 -0.4339 -0.0019 -0.2010
  102OSM    H5S10226   3.095   4.088   6.357  0.0766 -0.9320 -1.4154
  102OSM    C6S10227   2.979   3.942   6.234  0.5266  0.1945  0.1259
  102OSM    H6S10228   2.884   3.887   6.248  0.6022 -0.2977 -1.1596
  102OSM    H6T10229   3.059   3.865   6.242  0.1935 -0.1774 -0.0745
  102OSM    C7S10230   2.986   4.003   6.094 -0.1690 -0.1577 -0.4860
  102OSM    H7S10231   2.963   3.920   6.024 -0.7757 -0.5353  0.1450
  102OSM    H7T10232   3.092   4.032   6.074 -0.6957  0.9344 -1.7519
  102OSM    C8S10233   2.879   4.107   6.068 -0.4903  0.1868 -0.2975
  102OSM    H8S10234   2.923   4.206   6.094  0.5577 -0.2932 -0.2032
  102OSM    H8T10235   2.797   4.071   6.134 -0.1593 -1.5202 -0.7713
  102OSM    C9S10236   2.838   4.110   5.919  0.2335 -0.0767 -0.3023
  102OSM    H9S10237   2.764   4.028   5.907 -0.6911  0.6615  0.1496
  102OSM    H9T10238   2.927   4.078   5.861 -0.9451 -0.2900 -2.0666
  102OSM   C10S10239   2.776   4.247   5.876 -0.5525  0.3805 -0.5760
  102OSM   H10S10240   2.850   4.329   5.895 -1.0084  1.0707 -1.6609
  102OSM   H10T10241   2.678   4.271   5.923 -0.6376  0.3680 -0.7483
  102OSM   C11S10242   2.749   4.242   5.722 -0.0240  0.3970 -0.4667
  102OSM   H11S10243   2.675   4.325   5.718  0.6529  1.0251 -0.2743
  102OSM   H11T10244   2.704   4.142   5.704  1.3682 -0.2813 -0.3130
  102OSM   C12S10245   2.870   4.262   5.639  0.4977  0.5941  0.6544
  102OSM   H12S10246   2.902   4.162   5.603 -0.8153  0.5619 -0.5001
  102OSM   H12T10247   2.955   4.302   5.699  1.1160  1.2531 -0.6343
  102OSM   C13S10248   2.838   4.355   5.523  0.1274  0.2843  0.1539
  102OSM   H13S10249   2.796   4.451   5.559  0.2600  1.3020 -2.2138
  102OSM   H13T10250   2.761   4.311   5.456 -0.0268  1.8044 -0.6973
  102OSM   C14S10251   2.952   4.376   5.435 -0.7277 -1.5786 -0.5267
  102OSM   H14S10252   2.918   4.450   5.360 -0.0467 -0.7015  0.0055
  102OSM   H14T10253   2.986   4.286   5.379  1.9359  0.2031 -2.0137
  102OSM   C15S10254   3.056   4.463   5.501  0.1060 -0.7986 -0.4406
  102OSM   H15S10255   3.106   4.403   5.580 -2.1763 -1.3866  0.6223
  102OSM   H15T10256   3.010   4.552   5.547  2.4461  0.2424  0.0197
  102OSM   C16S10257   3.157   4.512   5.399 -0.0051  0.1985  0.1178
  102OSM   H16S10258   3.113   4.578   5.321 -2.8175 -0.8716  0.6913
  102OSM   H16T10259   3.208   4.429   5.346  0.2927  0.3022  0.2421
  102OSM   C17S10260   3.274   4.585   5.477  0.2524 -0.7378  0.1301
  102OSM   H17S10261   3.314   4.517   5.555 -0.2061  1.3657  2.3153
  102OSM   H17T10262   3.232   4.678   5.522 -0.0628  0.9718 -3.3867
  102OSM   C18S10263   3.384   4.625   5.388 -0.1277  0.1367 -0.2329
  102OSM   H18S10264   3.461   4.677   5.448  0.0306 -1.1367  0.7032
  102OSM   H18T10265   3.345   4.695   5.311 -0.5686  1.5115  1.2062
  102OSM   H18U10266   3.422   4.529   5.346 -0.2470  1.3757 -3.4911
  102OSM    C1F10267   2.782   4.498   6.327 -0.1837  0.6468  0.4804
  102OSM     OF10268   2.855   4.587   6.359 -0.1151 -0.4942  0.2237
  102OSM    C2F10269   2.684   4.517   6.207  0.0985  0.3842 -0.4451
  102OSM    H2F10270   2.599   4.578   6.244 -0.9248 -1.4101  0.3077
  102OSM    H2G10271   2.664   4.417   6.162  0.9760  0.3751 -0.8541
  102OSM    C3F10272   2.748   4.604   6.092  0.2165 -0.2685  0.2969
  102OSM    H3F10273   2.839   4.552   6.057 -0.9427 -1.5725 -0.9187
  102OSM    H3G10274   2.776   4.701   6.138 -0.0141  0.7034 -1.5211
  102OSM    C4F10275   2.651   4.625   5.972  0.4934 -0.0756  0.8107
  102OSM    H4F10276   2.562   4.682   6.007 -1.9071 -2.8225 -0.4263
  102OSM    H4G10277   2.624   4.522   5.942 -0.8499  0.1419  1.1876
  102OSM    C5F10278   2.729   4.681   5.852  0.1637 -0.1492  0.2722
  102OSM    H5F10279   2.830   4.637   5.841 -0.4972 -1.5843 -0.2732
  102OSM    H5G10280   2.739   4.791   5.870 -0.3561 -0.1931  0.8660
  102OSM    C6F10281   2.654   4.669   5.720 -0.0065  0.2240  0.5322
  102OSM    H6F10282   2.631   4.564   5.692  1.0284 -0.0832  0.8049
  102OSM    H6G10283   2.723   4.697   5.637 -0.4388 -0.7556 -0.1814
  102OSM    C7F10284   2.528   4.747   5.708 -0.5800  0.3913 -0.2003
  102OSM    H7F10285   2.531   4.837   5.772  2.9095 -0.5215  1.1648
  102OSM    H7G10286   2.443   4.684   5.742 -0.5965  0.4051 -0.2163
  102OSM    C8F10287   2.497   4.798   5.567  0.3549 -0.3092 -0.1069
  102OSM    H8F10288   2.591   4.846   5.532 -0.2008  1.7861  1.0886
  102OSM    H8G10289   2.416   4.873   5.584  0.9368  0.5825 -1.1733
  102OSM    C9F10290   2.458   4.703   5.460 -0.5927 -0.1159  0.4022
  102OSM    H9F10291   2.354   4.667   5.465 -0.8943  0.8171  1.1542
  102OSM   C10F10292   2.538   4.656   5.359  0.0593  0.0921 -0.8456
  102OSM   H10F10293   2.498   4.590   5.280 -1.5659 -1.7706  1.3804
  102OSM   C11F10294   2.682   4.689   5.340 -0.0114  0.1959  0.0922
  102OSM   H11F10295   2.749   4.624   5.400  0.3550  1.6487  1.3148
  102OSM   H11G10296   2.706   4.793   5.371 -0.7796 -0.0955  1.7914
  102OSM   C12F10297   2.734   4.686   5.191 -0.3787 -0.3152 -0.0458
  102OSM   H12F10298   2.836   4.729   5.199 -1.1639  1.7393 -0.6928
  102OSM   H12G10299   2.657   4.747   5.140  0.3031 -1.1392 -2.1923
  102OSM   C13F10300   2.724   4.548   5.120  0.2206 -0.3039 -1.1959
  102OSM   H13F10301   2.621   4.509   5.134  0.3635 -0.0869  0.6723
  102OSM   H13G10302   2.800   4.495   5.181 -1.0183  0.1020  0.7909
  102OSM   C14F10303   2.761   4.570   4.969 -0.2029 -0.4693 -0.3143
  102OSM   H14F10304   2.863   4.614   4.970 -0.5151  0.2631 -0.1964
  102OSM   H14G10305   2.687   4.645   4.933  0.0714  1.5440  2.9090
  102OSM   C15F10306   2.755   4.451   4.867  0.3472 -0.0005  0.5214
  102OSM   H15F10307   2.767   4.489   4.764  1.9377  1.8951  1.3284
  102OSM   H15G10308   2.650   4.416   4.875 -0.0230  1.2257  1.3586
  102OSM   C16F10309   2.858   4.337   4.903 -0.6718 -0.1466 -0.0233
  102OSM   H16F10310   2.842   4.303   5.007  1.8776 -1.4478  0.0185
  102OSM   H16G10311   2.960   4.380   4.909 -0.7230 -0.0126 -0.1235
  102OSM   C17F10312   2.866   4.209   4.821 -0.3670  0.0485  0.9567
  102OSM   H17F10313   2.771   4.151   4.821  0.7387 -1.8341  1.2425
  102OSM   H17G10314   2.938   4.140   4.869 -0.1674  1.7092  3.1970
  102OSM   C18F10315   2.913   4.232   4.680 -0.9929 -0.5622  0.4784
  102OSM   H18F10316   2.857   4.316   4.634 -0.4916  0.7535  2.1673
  102OSM   H18G10317   2.890   4.142   4.619 -2.8834 -1.1436  1.9663
  102OSM   H18H10318   3.023   4.248   4.681 -1.3524  2.4107  1.8197
  103OSM      N10319   1.198   2.990   7.675  0.0694  0.3175 -0.3922
  103OSM    C1510320   1.094   3.067   7.743 -0.0442  0.3481 -0.2490
  103OSM   H15A10321   1.034   3.108   7.662 -0.7692  2.9146  1.4799
  103OSM   H15B10322   1.127   3.147   7.807 -0.2661 -0.5457  1.0088
  103OSM   H15C10323   1.035   3.011   7.814  0.6424 -1.8257 -1.3234
  103OSM    C1410324   1.285   2.918   7.771 -0.0781 -0.4703  0.0454
  103OSM   H14A10325   1.328   2.997   7.830 -0.3203 -0.9649  0.8965
  103OSM   H14B10326   1.367   2.866   7.724  1.2058  0.3943  1.2665
  103OSM   H14C10327   1.222   2.852   7.829  0.0138 -0.5691  0.0327
  103OSM    C1310328   1.120   2.880   7.599 -0.4843 -0.1991 -0.7271
  103OSM   H13A10329   1.094   2.810   7.677 -1.6387  2.7929  1.7717
  103OSM   H13B10330   1.181   2.834   7.523  1.4999  0.4213  0.4262
  103OSM   H13C10331   1.034   2.927   7.553 -0.2098 -0.4786 -1.5429
  103OSM    C1210332   1.271   3.068   7.561 -0.2440  0.4033  0.2197
  103OSM   H12A10333   1.314   2.993   7.498 -1.9584  0.3586 -0.9676
  103OSM   H12B10334   1.362   3.109   7.602  2.9086 -1.9754 -3.7357
  103OSM    C1110335   1.196   3.170   7.479 -0.0311 -0.0399 -0.7401
  103OSM   H11A10336   1.260   3.222   7.405  1.2372 -2.6082 -1.5667
  103OSM   H11B10337   1.156   3.254   7.540 -0.9571  0.4697 -2.0156
  103OSM      P10338   0.977   3.184   7.334  0.0002 -0.2450 -0.2671
  103OSM    O1310339   0.875   3.087   7.279 -0.1531  0.0612 -0.1788
  103OSM    O1410340   0.914   3.293   7.417  0.0019  0.4093  0.4590
  103OSM    O1110341   1.055   3.251   7.212 -0.4265  0.3527 -0.5383
  103OSM    O1210342   1.086   3.110   7.414 -0.1198  0.1252  0.1270
  103OSM    C1S10343   1.132   3.162   7.135 -0.5388  0.3643 -0.0425
  103OSM    H1S10344   1.060   3.084   7.100 -0.0958 -1.1135  2.1730
  103OSM    H1T10345   1.208   3.112   7.198 -0.1860  0.7777 -0.1325
  103OSM     NF10346   1.214   3.151   6.892  0.3810 -0.7245 -0.7079
  103OSM    HNF10347   1.296   3.096   6.880  1.0542 -0.1615  1.0687
  103OSM    C2S10348   1.193   3.241   7.008  0.2191 -0.4566 -0.3116
  103OSM    H2S10349   1.123   3.325   6.993 -0.8497 -1.1745  0.5416
  103OSM    C3S10350   1.324   3.304   7.058 -0.2147 -0.3440  0.1591
  103OSM    H3S10351   1.396   3.224   7.086 -1.5318 -1.5111  0.3279
  103OSM     O310352   1.311   3.370   7.184  0.3808  0.0305  0.1696
  103OSM    HO310353   1.218   3.365   7.205  0.1360  1.5960 -0.4679
  103OSM    C4S10354   1.398   3.395   6.957  0.2312  0.1017 -0.1389
  103OSM    H4S10355   1.486   3.347   6.912  0.2292 -1.4932  1.4333
  103OSM    C5S10356   1.371   3.521   6.945  0.9023  0.0283 -1.0240
  103OSM    H5S10357   1.293   3.570   7.005  0.5777 -0.4370 -1.0624
  103OSM    C6S10358   1.442   3.621   6.862 -0.2545 -0.8386  0.4558
  103OSM    H6S10359   1.550   3.601   6.876  0.3149  0.6622 -1.3586
  103OSM    H6T10360   1.423   3.723   6.901 -0.5789 -1.1170  1.0436
  103OSM    C7S10361   1.404   3.622   6.714  0.2052 -0.6583  0.2861
  103OSM    H7S10362   1.315   3.684   6.692  1.3377  1.2277  0.7706
  103OSM    H7T10363   1.388   3.523   6.665  1.9167 -0.0901 -1.5768
  103OSM    C8S10364   1.514   3.695   6.633 -0.3917  0.4501  0.3675
  103OSM    H8S10365   1.611   3.650   6.665  0.6358  1.1524 -1.5772
  103OSM    H8T10366   1.529   3.802   6.656  0.1322  0.8146 -1.4901
  103OSM    C9S10367   1.487   3.678   6.483  0.0511 -0.2899 -0.0686
  103OSM    H9S10368   1.377   3.686   6.470  0.2320  1.3893 -0.8778
  103OSM    H9T10369   1.512   3.576   6.448 -0.5456 -0.2810 -0.5326
  103OSM   C10S10370   1.553   3.790   6.403  0.3882 -0.4070 -0.5669
  103OSM   H10S10371   1.656   3.795   6.444 -0.3461 -0.8470  1.4311
  103OSM   H10T10372   1.497   3.881   6.433  1.5819  0.9239 -2.2311
  103OSM   C11S10373   1.559   3.768   6.254 -0.3913  0.6107 -0.8115
  103OSM   H11S10374   1.633   3.687   6.237 -1.1724 -0.8349  1.9958
  103OSM   H11T10375   1.592   3.860   6.201 -2.1816 -0.0848 -3.2970
  103OSM   C12S10376   1.430   3.721   6.187 -0.0697  0.0079 -0.1809
  103OSM   H12S10377   1.365   3.809   6.171  1.9729  1.2864 -2.0308
  103OSM   H12T10378   1.376   3.649   6.251 -2.0457  1.9587  0.4814
  103OSM   C13S10379   1.444   3.665   6.044  0.0072  0.7362 -0.7525
  103OSM   H13S10380   1.348   3.617   6.018  0.3318 -0.0267 -0.5743
  103OSM   H13T10381   1.526   3.589   6.046 -0.5997  0.0928  0.5463
  103OSM   C14S10382   1.465   3.782   5.943 -0.5562  0.4083  0.3381
  103OSM   H14S10383   1.562   3.829   5.967 -0.1359 -0.7526  0.9951
  103OSM   H14T10384   1.384   3.857   5.952 -1.7113 -0.9140  1.5160
  103OSM   C15S10385   1.467   3.727   5.795 -0.6578  0.2046 -0.1170
  103OSM   H15S10386   1.371   3.680   5.767  0.1577 -1.5161 -0.1338
  103OSM   H15T10387   1.549   3.652   5.787 -1.7644 -1.1231  0.5558
  103OSM   C16S10388   1.495   3.837   5.691  0.4359  0.0078  0.3206
  103OSM   H16S10389   1.595   3.882   5.713  1.8976 -3.3524  1.1020
  103OSM   H16T10390   1.417   3.917   5.698  0.4120  0.0448 -0.3708
  103OSM   C17S10391   1.491   3.796   5.544  0.5959  0.4375  0.2653
  103OSM   H17S10392   1.565   3.713   5.539 -1.5158 -1.5377  0.0358
  103OSM   H17T10393   1.523   3.875   5.474  1.1946  0.1344  0.1885
  103OSM   C18S10394   1.355   3.752   5.497 -0.4908  0.0144 -0.0633
  103OSM   H18S10395   1.349   3.711   5.394 -2.0237  3.1696 -1.3601
  103OSM   H18T10396   1.289   3.841   5.490  0.5532  0.9853  1.6176
  103OSM   H18U10397   1.305   3.679   5.563  0.4948 -0.7561 -0.1396
  103OSM    C1F10398   1.107   3.122   6.818 -0.0609  0.0905 -0.0334
  103OSM     OF10399   1.001   3.161   6.856 -0.0983 -0.1942  0.5217
  103OSM    C2F10400   1.130   3.051   6.690 -0.6164  0.1570 -0.3714
  103OSM    H2F10401   1.046   2.981   6.675 -2.7794  1.9595  2.3450
  103OSM    H2G10402   1.218   2.984   6.703 -1.2396 -0.8075 -0.9942
  103OSM    C3F10403   1.140   3.151   6.573  0.6275 -0.2604  0.3718
  103OSM    H3F10404   1.225   3.220   6.588  1.8241 -1.0696 -2.0699
  103OSM    H3G10405   1.042   3.201   6.556  2.1662  3.1771  0.8546
  103OSM    C4F10406   1.178   3.079   6.440  0.0379 -0.1323 -1.0094
  103OSM    H4F10407   1.264   3.014   6.467 -0.8591 -0.9732 -0.0887
  103OSM    H4G10408   1.209   3.162   6.373 -1.4696  1.7207  0.4735
  103OSM    C5F10409   1.067   2.997   6.368  0.1546  0.0754 -0.0598
  103OSM    H5F10410   0.977   3.061   6.360  0.5185  0.4608 -1.3217
  103OSM    H5G10411   1.040   2.909   6.430 -2.4329  0.5261 -0.4681
  103OSM    C6F10412   1.110   2.966   6.227  0.5265 -0.6841  0.3269
  103OSM    H6F10413   1.192   2.891   6.222  0.6502 -0.5437  0.2460
  103OSM    H6G10414   1.145   3.056   6.172 -2.1328  1.2246  1.5378
  103OSM    C7F10415   1.003   2.930   6.122  0.3928 -0.5014 -0.4644
  103OSM    H7F10416   0.940   3.019   6.101  1.6800  0.2880 -1.0679
  103OSM    H7G10417   0.943   2.847   6.165 -2.5342  2.6070  2.0129
  103OSM    C8F10418   1.069   2.894   5.989  0.0579  0.3208  0.0314
  103OSM    H8F10419   1.128   2.801   6.005  1.5997  0.8341 -2.2073
  103OSM    H8G10420   1.133   2.981   5.966  0.4329 -0.0151 -0.2088
  103OSM    C9F10421   0.958   2.859   5.886 -0.1190  0.2827 -0.0884
  103OSM    H9F10422   0.875   2.792   5.913 -0.1861  0.9640  1.4949
  103OSM   C10F10423   0.955   2.904   5.762  0.0435  0.1992  0.1034
  103OSM   H10F10424   0.872   2.870   5.700  1.8345 -2.3231 -1.0757
  103OSM   C11F10425   1.043   2.996   5.685  0.3456  0.1879 -0.6833
  103OSM   H11F10426   1.149   2.987   5.720  0.9642 -0.0911 -2.5295
  103OSM   H11G10427   1.028   3.102   5.714  1.1776  0.4125 -1.0289
  103OSM   C12F10428   1.068   2.989   5.536  0.3001 -0.7053 -0.2147
  103OSM   H12F10429   1.068   2.884   5.500  4.7588 -0.8992 -0.2779
  103OSM   H12G10430   1.168   3.034   5.515  0.0140 -0.3214 -0.7794
  103OSM   C13F10431   0.953   3.044   5.455 -0.0070 -0.5100  0.2432
  103OSM   H13F10432   0.938   3.150   5.483 -1.2177 -0.4329 -0.5745
  103OSM   H13G10433   0.857   2.992   5.475 -0.4480  0.2254  0.0788
  103OSM   C14F10434   0.983   3.040   5.300 -1.0707  0.2054 -1.1757
  103OSM   H14F10435   0.922   2.954   5.264 -0.1016 -1.2668  0.5075
  103OSM   H14G10436   1.088   3.012   5.276  0.7714  3.9248  1.5618
  103OSM   C15F10437   0.954   3.170   5.226  0.2906  0.1943 -0.9997
  103OSM   H15F10438   0.999   3.257   5.279  0.4594 -0.6316  0.2755
  103OSM   H15G10439   0.844   3.177   5.233  0.0273 -1.4092 -2.7550
  103OSM   C16F10440   0.987   3.171   5.078 -0.2393 -0.1880 -0.6039
  103OSM   H16F10441   0.921   3.095   5.032 -2.1485  0.3295  1.0955
  103OSM   H16G10442   1.096   3.154   5.062 -0.3577  0.9614 -3.0128
  103OSM   C17F10443   0.951   3.309   5.012 -0.2485 -0.0561  0.5506
  103OSM   H17F10444   1.012   3.385   5.065  1.1884  0.4399 -1.6523
  103OSM   H17G10445   0.842   3.326   5.022 -0.5682 -1.6347  0.0088
  103OSM   C18F10446   1.000   3.304   4.866  0.0639 -0.2281  0.3895
  103OSM   H18F10447   1.108   3.327   4.861  0.0215 -0.0660  0.2176
  103OSM   H18G10448   0.960   3.389   4.806 -0.6734 -0.7720  0.0829
  103OSM   H18H10449   0.984   3.214   4.803 -0.2366 -0.4657  0.7961
  104OSM      N10450   1.514   0.219   7.396 -1.0085  0.4524 -0.4203
  104OSM    C1510451   1.552   0.073   7.374  0.2788 -0.1293 -0.2093
  104OSM   H15A10452   1.481   0.001   7.412 -0.2260  1.0229  1.0649
  104OSM   H15B10453   1.652   0.055   7.411  0.2002  1.5514  0.8819
  104OSM   H15C10454   1.547   0.055   7.267  2.4618 -1.3996 -0.1813
  104OSM    C1410455   1.380   0.235   7.342  0.1598  0.3375 -0.2345
  104OSM   H14A10456   1.318   0.315   7.379 -2.3901 -1.2818 -0.7989
  104OSM   H14B10457   1.336   0.137   7.337  2.0065 -0.6244  1.2678
  104OSM   H14C10458   1.401   0.248   7.236 -0.7618 -3.0298 -0.9559
  104OSM    C1310459   1.517   0.248   7.549  0.1078  0.2855 -0.9089
  104OSM   H13A10460   1.612   0.228   7.596  0.5332 -0.6525 -2.0933
  104OSM   H13B10461   1.445   0.179   7.591  2.6059 -3.4374 -2.1432
  104OSM   H13C10462   1.486   0.350   7.565 -0.4008 -0.1816  1.4871
  104OSM    C1210463   1.621   0.307   7.331  0.7683  0.5013  0.0637
  104OSM   H12A10464   1.709   0.307   7.393 -0.6221  2.9462  2.2453
  104OSM   H12B10465   1.595   0.412   7.327  1.5901  0.7004 -4.0075
  104OSM    C1110466   1.668   0.274   7.187 -0.3335  0.3119  0.3486
  104OSM   H11A10467   1.721   0.364   7.148  0.6922 -0.6671 -0.5647
  104OSM   H11B10468   1.583   0.269   7.115  0.0703  0.1232 -0.1198
  104OSM      P10469   1.901   0.155   7.222  0.3750  0.2024 -0.0263
  104OSM    O1310470   1.916   0.246   7.334  0.1000 -0.5673  0.0794
  104OSM    O1410471   1.939   0.016   7.238  0.2495 -0.0660 -0.0145
  104OSM    O1110472   1.982   0.224   7.107  0.0283  0.2936  0.0520
  104OSM    O1210473   1.753   0.161   7.170 -0.6999  0.0789  0.2172
  104OSM    C1S10474   1.995   0.161   6.978 -0.3587  1.0326 -0.2274
  104OSM    H1S10475   2.016   0.052   6.983 -0.7435  0.9666 -0.0118
  104OSM    H1T10476   2.092   0.200   6.939 -0.1333  0.3024 -0.4329
  104OSM     NF10477   1.890   0.091   6.764  0.1637 -0.1304 -0.3791
  104OSM    HNF10478   1.903   0.138   6.677  0.9272 -0.3013 -0.3607
  104OSM    C2S10479   1.880   0.185   6.878  0.4436  0.2180 -0.4708
  104OSM    H2S10480   1.782   0.166   6.926  0.4643  0.6030 -0.2717
  104OSM    C3S10481   1.890   0.341   6.838  0.3594 -0.2871 -0.3182
  104OSM    H3S10482   1.982   0.355   6.778  0.7645 -1.7527 -0.0783
  104OSM     O310483   1.912   0.429   6.949 -0.5427  0.7798 -0.4332
  104OSM    HO310484   1.928   0.367   7.020  1.4787  0.6163 -0.9792
  104OSM    C4S10485   1.784   0.398   6.742 -0.2482  0.7455 -0.0887
  104OSM    H4S10486   1.805   0.383   6.635  3.0743  1.1247  0.3959
  104OSM    C5S10487   1.669   0.460   6.778 -0.4701 -0.5208  0.2314
  104OSM    H5S10488   1.646   0.468   6.885 -0.0330 -0.2379  0.3079
  104OSM    C6S10489   1.565   0.512   6.683 -0.4389  0.0882  0.0807
  104OSM    H6S10490   1.550   0.619   6.711  1.4329 -0.1021  2.0481
  104OSM    H6T10491   1.469   0.461   6.703 -1.1807  0.8794 -1.3015
  104OSM    C7S10492   1.608   0.510   6.535 -0.4422  0.0268  0.2550
  104OSM    H7S10493   1.636   0.406   6.509 -0.9524 -0.4999  1.7038
  104OSM    H7T10494   1.695   0.578   6.529 -0.2279  0.0196  2.4903
  104OSM    C8S10495   1.508   0.560   6.438 -0.2475  0.5920 -0.2742
  104OSM    H8S10496   1.455   0.645   6.484  1.0979  0.0388  2.5061
  104OSM    H8T10497   1.440   0.474   6.421  1.5884 -0.6553 -1.7585
  104OSM    C9S10498   1.559   0.582   6.302 -0.1825 -0.5272  0.0705
  104OSM    H9S10499   1.626   0.496   6.278 -0.1894 -0.5084 -0.0167
  104OSM    H9T10500   1.617   0.677   6.304 -0.8252 -0.0900 -1.2878
  104OSM   C10S10501   1.446   0.583   6.205  0.3026 -0.1863 -0.4471
  104OSM   H10S10502   1.485   0.650   6.126  2.1799  0.8710  1.2699
  104OSM   H10T10503   1.358   0.637   6.246  0.4197 -1.0614  1.0305
  104OSM   C11S10504   1.400   0.461   6.136  0.3226 -0.5126  0.4433
  104OSM   H11S10505   1.345   0.388   6.200  0.7752  1.0227  2.7117
  104OSM   H11T10506   1.492   0.415   6.094  0.6876 -0.8038  1.5154
  104OSM   C12S10507   1.313   0.491   6.010 -0.5032 -0.6292 -0.5568
  104OSM   H12S10508   1.237   0.566   6.042  1.4644  1.1190  0.3169
  104OSM   H12T10509   1.257   0.402   5.975 -0.9890 -0.4904 -0.1334
  104OSM   C13S10510   1.379   0.552   5.888  0.3219 -0.7191  0.2895
  104OSM   H13S10511   1.472   0.493   5.876 -1.2375 -3.0261 -1.2473
  104OSM   H13T10512   1.419   0.651   5.922 -1.9100 -0.0352  1.0838
  104OSM   C14S10513   1.277   0.561   5.771 -0.1623  0.1034  0.8155
  104OSM   H14S10514   1.191   0.626   5.800  0.7106  1.2767  0.8664
  104OSM   H14T10515   1.250   0.462   5.729  0.4474  1.0808 -2.1213
  104OSM   C15S10516   1.340   0.635   5.650  0.3773 -0.2828 -0.5983
  104OSM   H15S10517   1.412   0.561   5.608  1.2254 -0.7572  1.5435
  104OSM   H15T10518   1.393   0.728   5.678 -0.9971 -0.0408  1.3975
  104OSM   C16S10519   1.229   0.678   5.553  0.7993  0.2826 -0.9151
  104OSM   H16S10520   1.178   0.771   5.587  0.3480  0.5180 -2.1996
  104OSM   H16T10521   1.143   0.607   5.555 -0.5444  1.8481  0.8568
  104OSM   C17S10522   1.291   0.686   5.418 -0.0130  0.2726 -0.9682
  104OSM   H17S10523   1.390   0.735   5.430  1.5164 -2.4692 -1.5121
  104OSM   H17T10524   1.217   0.744   5.359 -1.8761 -1.0724 -0.0735
  104OSM   C18S10525   1.319   0.545   5.361 -0.0803 -0.3537  0.0615
  104OSM   H18S10526   1.220   0.493   5.363 -0.0237 -0.4622  1.9779
  104OSM   H18T10527   1.389   0.484   5.423  0.7851 -0.0572 -0.6153
  104OSM   H18U10528   1.361   0.543   5.258  0.1670 -0.6879  0.1658
  104OSM    C1F10529   1.872  -0.044   6.782  0.1781  0.4464 -0.3272
  104OSM     OF10530   1.826  -0.085   6.891  0.4980  0.5474  0.3322
  104OSM    C2F10531   1.906  -0.144   6.670  0.3159 -0.3584 -0.0073
  104OSM    H2F10532   1.939  -0.234   6.726  0.4834 -0.5374 -0.3909
  104OSM    H2G10533   1.998  -0.109   6.619  0.3415  1.7104  1.3342
  104OSM    C3F10534   1.796  -0.159   6.565  0.5812 -0.7193 -0.2745
  104OSM    H3F10535   1.784  -0.060   6.516 -0.8869 -1.0019 -0.5214
  104OSM    H3G10536   1.698  -0.184   6.611  0.9555  0.8002  1.4815
  104OSM    C4F10537   1.808  -0.268   6.461  0.6037 -0.3320 -0.1557
  104OSM    H4F10538   1.710  -0.280   6.410 -0.4636 -0.0819  1.7269
  104OSM    H4G10539   1.833  -0.365   6.508  0.6488 -0.8010 -1.1194
  104OSM    C5F10540   1.916  -0.229   6.364  0.0696 -0.4695  0.1873
  104OSM    H5F10541   2.015  -0.215   6.413 -0.5116  0.5555  1.1091
  104OSM    H5G10542   1.885  -0.132   6.321 -1.2449  0.4151  2.8993
  104OSM    C6F10543   1.931  -0.329   6.251  0.4176  0.1689  0.3681
  104OSM    H6F10544   1.829  -0.370   6.235  0.5335  0.6056 -1.7949
  104OSM    H6G10545   2.004  -0.409   6.276 -3.1448 -2.9416  1.7067
  104OSM    C7F10546   1.991  -0.275   6.119 -0.3388  0.4372 -0.1054
  104OSM    H7F10547   2.101  -0.256   6.121 -0.4095  0.8744 -0.3070
  104OSM    H7G10548   1.949  -0.177   6.087 -0.3596  0.7866  0.9620
  104OSM    C8F10549   1.969  -0.364   5.995  0.0916  0.1512  0.3369
  104OSM    H8F10550   2.006  -0.324   5.898 -1.1214 -1.4973 -0.8545
  104OSM    H8G10551   1.859  -0.359   5.978  0.5878  0.1218 -4.2217
  104OSM    C9F10552   2.011  -0.506   6.002 -0.4389  0.2985  0.3725
  104OSM    H9F10553   1.945  -0.565   6.067  0.5665 -0.3537  0.8207
  104OSM   C10F10554   2.108  -0.566   5.933  0.1822  0.7307 -0.0228
  104OSM   H10F10555   2.122  -0.674   5.944 -1.4862 -0.0706 -3.8829
  104OSM   C11F10556   2.209  -0.519   5.834  0.0471 -0.1243  0.6427
  104OSM   H11F10557   2.208  -0.408   5.837 -3.6865  0.0112 -0.1288
  104OSM   H11G10558   2.170  -0.555   5.737  1.4556  0.3453 -0.1231
  104OSM   C12F10559   2.351  -0.569   5.860 -0.1494 -0.2254  0.1070
  104OSM   H12F10560   2.348  -0.670   5.906 -0.9184 -1.0537 -1.6634
  104OSM   H12G10561   2.407  -0.501   5.928  0.0338 -0.9500  0.6960
  104OSM   C13F10562   2.437  -0.586   5.736  0.0768 -0.2170 -0.2783
  104OSM   H13F10563   2.535  -0.629   5.765  0.0819  2.3582  4.4881
  104OSM   H13G10564   2.443  -0.481   5.699 -2.2091  0.4770  1.0766
  104OSM   C14F10565   2.369  -0.671   5.628  0.0884  0.3804 -0.3245
  104OSM   H14F10566   2.288  -0.622   5.570 -0.8135  2.3999  2.4264
  104OSM   H14G10567   2.324  -0.757   5.682 -0.9049 -0.0037 -1.7151
  104OSM   C15F10568   2.474  -0.715   5.527 -0.5693 -0.1437 -0.1178
  104OSM   H15F10569   2.544  -0.789   5.572 -1.8930 -2.3393 -1.4568
  104OSM   H15G10570   2.534  -0.624   5.505  0.3233 -0.4395  1.0121
  104OSM   C16F10571   2.422  -0.771   5.394  0.4351  0.0198 -0.3527
  104OSM   H16F10572   2.355  -0.694   5.349 -0.3715  0.5446  1.6454
  104OSM   H16G10573   2.351  -0.852   5.418 -0.0372  0.7214  0.6764
  104OSM   C17F10574   2.523  -0.812   5.292  0.7764 -0.1035 -0.1943
  104OSM   H17F10575   2.612  -0.859   5.338  0.9113  0.1444 -0.1988
  104OSM   H17G10576   2.560  -0.727   5.231  2.3653 -0.8979 -0.3788
  104OSM   C18F10577   2.461  -0.919   5.195  0.2247  0.0834  0.1839
  104OSM   H18F10578   2.518  -0.930   5.101 -2.7794  0.0628 -1.7628
  104OSM   H18G10579   2.355  -0.888   5.183  0.1973 -0.0371  0.1258
  104OSM   H18H10580   2.472  -1.019   5.242 -0.0411  0.4776  1.1186
  105OSM      N10581   3.297   5.913   7.426 -0.3054  0.3661 -0.2750
  105OSM    C1510582   3.391   5.844   7.521 -0.1472  0.5440 -0.4723
  105OSM   H15A10583   3.461   5.792   7.456 -0.1031 -1.5841  1.1513
  105OSM   H15B10584   3.341   5.774   7.586 -2.1414  1.0771 -1.3419
  105OSM   H15C10585   3.451   5.912   7.579 -0.5002  0.1574  0.3617
  105OSM    C1410586   3.165   5.933   7.496  0.1858  0.2396 -0.1237
  105OSM   H14A10587   3.138   5.842   7.548 -0.5589 -0.1660 -1.1943
  105OSM   H14B10588   3.096   5.965   7.420 -0.9155 -0.3154  0.6120
  105OSM   H14C10589   3.169   6.004   7.577 -0.6809 -0.9373  0.9902
  105OSM    C1310590   3.352   6.045   7.377 -0.1653  0.2400  0.3054
  105OSM   H13A10591   3.300   6.067   7.285  1.9915  1.1892 -0.7667
  105OSM   H13B10592   3.456   6.044   7.346 -0.0261 -0.1866  0.7727
  105OSM   H13C10593   3.336   6.132   7.439  1.2576  0.9026 -0.1994
  105OSM    C1210594   3.273   5.824   7.312  0.4941 -0.0202  0.4186
  105OSM   H12A10595   3.202   5.747   7.339 -0.2864  0.9000  1.0304
  105OSM   H12B10596   3.361   5.767   7.285  0.1340 -0.4942  0.2239
  105OSM    C1110597   3.217   5.891   7.184 -0.1434 -0.6914  0.6184
  105OSM   H11A10598   3.203   5.812   7.107  1.2859  0.8075 -1.2769
  105OSM   H11B10599   3.284   5.963   7.132 -0.5887 -0.1297  0.8116
  105OSM      P10600   3.045   6.089   7.159 -0.2238 -0.0826 -0.3301
  105OSM    O1310601   2.905   6.114   7.197  0.0270  0.2578  0.5109
  105OSM    O1410602   3.147   6.185   7.203 -0.2073  0.5638  0.0077
  105OSM    O1110603   3.049   6.077   6.999 -1.0344  0.0725  0.4578
  105OSM    O1210604   3.092   5.941   7.205 -0.1683  0.2728 -0.2709
  105OSM    C1S10605   2.996   5.962   6.930 -0.0221  0.0430  0.3026
  105OSM    H1S10606   2.893   5.936   6.962  0.4170 -0.6844  1.1834
  105OSM    H1T10607   3.041   5.862   6.950 -0.2957  0.2507  2.0970
  105OSM     NF10608   2.929   5.880   6.717 -0.3354 -0.4430 -0.0069
  105OSM    HNF10609   2.989   5.809   6.681 -1.4920 -1.2054 -0.4761
  105OSM    C2S10610   2.981   5.996   6.776 -1.3097  0.2550  0.0975
  105OSM    H2S10611   2.905   6.075   6.763 -0.2576  1.3407  0.3932
  105OSM    C3S10612   3.119   6.041   6.710  0.5796 -0.1810  0.1382
  105OSM    H3S10613   3.203   5.971   6.727  2.4313  2.0254  0.5244
  105OSM     O310614   3.161   6.167   6.766 -0.3186  0.1733  0.7381
  105OSM    HO310615   3.133   6.161   6.857 -0.6147  1.3346  0.7357
  105OSM    C4S10616   3.108   6.059   6.559 -0.3968 -0.4589  0.1827
  105OSM    H4S10617   3.174   5.987   6.510 -0.1063 -2.4155  3.2078
  105OSM    C5S10618   3.042   6.152   6.488 -0.0534 -0.2433  0.6355
  105OSM    H5S10619   2.988   6.229   6.546 -0.5644 -1.6436  2.1072
  105OSM    C6S10620   3.037   6.168   6.342 -0.1696 -0.1767  0.5033
  105OSM    H6S10621   3.069   6.271   6.317 -1.3093  0.3355  1.1046
  105OSM    H6T10622   2.931   6.163   6.312  0.4424  0.8086 -2.0444
  105OSM    C7S10623   3.105   6.064   6.247 -0.1224 -0.2904 -0.0890
  105OSM    H7S10624   3.056   5.966   6.265  0.5457 -0.4087  1.2269
  105OSM    H7T10625   3.212   6.042   6.271 -0.0115  0.3314 -0.0007
  105OSM    C8S10626   3.096   6.100   6.097 -0.3403  0.6258 -0.0228
  105OSM    H8S10627   3.169   6.183   6.082 -0.5103  0.7024 -0.4241
  105OSM    H8T10628   2.996   6.124   6.057 -0.8185  0.9105  1.2834
  105OSM    C9S10629   3.147   5.990   6.004  0.6355  0.1862  0.7114
  105OSM    H9S10630   3.104   5.892   6.033  1.6605 -0.8278 -1.0117
  105OSM    H9T10631   3.257   5.985   6.013  0.4563 -1.9332  2.3358
  105OSM   C10S10632   3.124   6.035   5.857 -0.3254  0.4576 -0.1163
  105OSM   H10S10633   3.169   6.137   5.858  1.0592 -0.1241  1.4915
  105OSM   H10T10634   3.014   6.044   5.840 -0.5787  1.4269  1.7002
  105OSM   C11S10635   3.200   5.952   5.751  0.1657 -0.3818  0.0250
  105OSM   H11S10636   3.174   5.846   5.773  0.4011 -1.0817 -2.6541
  105OSM   H11T10637   3.308   5.966   5.770  0.0782  0.1349  0.1572
  105OSM   C12S10638   3.167   5.989   5.604 -0.3349  0.2835  0.5858
  105OSM   H12S10639   3.200   6.093   5.583  3.1779 -0.0362  3.4013
  105OSM   H12T10640   3.056   5.988   5.597 -0.6904  4.6270  2.3730
  105OSM   C13S10641   3.238   5.890   5.497  0.0778 -0.0762 -0.3043
  105OSM   H13S10642   3.239   5.784   5.531  0.1477 -0.2624 -0.8871
  105OSM   H13T10643   3.342   5.928   5.487  0.7037 -1.5033  0.4870
  105OSM   C14S10644   3.158   5.908   5.366  0.3584 -0.3765  0.1225
  105OSM   H14S10645   3.170   6.011   5.328 -2.1722  0.7940  2.1423
  105OSM   H14T10646   3.052   5.906   5.400 -0.3702  2.0519 -1.7321
  105OSM   C15S10647   3.191   5.802   5.253  0.0820 -0.0940  0.3448
  105OSM   H15S10648   3.167   5.702   5.294 -1.2023  0.8753  2.0853
  105OSM   H15T10649   3.301   5.815   5.238  0.3547 -0.6736  1.6346
  105OSM   C16S10650   3.096   5.820   5.122 -0.3795 -0.1845  0.2790
  105OSM   H16S10651   3.126   5.911   5.066  0.3366  0.5208  1.7512
  105OSM   H16T10652   3.000   5.832   5.175 -0.6882 -2.1766  0.2643
  105OSM   C17S10653   3.089   5.693   5.038  0.3591 -0.1723 -0.4736
  105OSM   H17S10654   3.073   5.601   5.098 -1.0464  0.2140 -0.2290
  105OSM   H17T10655   3.180   5.679   4.976  0.5526  2.7306 -0.9633
  105OSM   C18S10656   2.976   5.714   4.940 -0.4116  0.1328  0.1845
  105OSM   H18S10657   2.989   5.806   4.878  0.2779 -0.3012 -0.3173
  105OSM   H18T10658   2.879   5.732   4.991  0.2232 -0.9322  1.8316
  105OSM   H18U10659   2.960   5.620   4.883 -0.9454 -0.8513  1.8687
  105OSM    C1F10660   2.802   5.840   6.723  0.2875  0.2127  0.4083
  105OSM     OF10661   2.729   5.901   6.803  0.0857 -0.2253  0.7105
  105OSM    C2F10662   2.760   5.710   6.638  0.4181 -0.8986 -0.7913
  105OSM    H2F10663   2.663   5.736   6.590 -0.6577 -0.1476  1.5808
  105OSM    H2G10664   2.748   5.624   6.707 -0.5483 -0.5479 -0.5022
  105OSM    C3F10665   2.865   5.687   6.524  0.3524  0.0971  0.2296
  105OSM    H3F10666   2.959   5.642   6.561  0.6094 -0.5628 -1.1970
  105OSM    H3G10667   2.890   5.778   6.466  2.1092 -1.1416 -1.0475
  105OSM    C4F10668   2.801   5.583   6.426  0.2644 -0.9164  0.1602
  105OSM    H4F10669   2.710   5.624   6.378 -1.1805 -2.0500  1.8123
  105OSM    H4G10670   2.770   5.496   6.488  1.6210 -1.6058 -0.0912
  105OSM    C5F10671   2.898   5.546   6.317 -0.1509 -0.2115  0.7396
  105OSM    H5F10672   2.997   5.518   6.360  1.5072 -1.4892 -3.4339
  105OSM    H5G10673   2.902   5.627   6.241 -1.3731 -1.2929 -0.5230
  105OSM    C6F10674   2.860   5.419   6.238 -0.8455  0.1661  0.4102
  105OSM    H6F10675   2.783   5.438   6.160  1.6253 -0.6126 -2.3778
  105OSM    H6G10676   2.825   5.349   6.317  1.4439 -1.2052  0.3010
  105OSM    C7F10677   2.976   5.343   6.173  0.8867  0.3295  0.0543
  105OSM    H7F10678   2.962   5.234   6.159 -0.3006  0.0897  2.4546
  105OSM    H7G10679   3.059   5.351   6.247 -0.4829 -0.3621  1.7494
  105OSM    C8F10680   3.011   5.416   6.047 -0.3100  0.0728  0.2422
  105OSM    H8F10681   3.010   5.522   6.079 -4.0704  0.0553  0.6074
  105OSM    H8G10682   2.921   5.408   5.982  0.6685 -1.0615 -1.0427
  105OSM    C9F10683   3.142   5.381   5.985  0.4050  0.3969  0.0116
  105OSM    H9F10684   3.230   5.367   6.049 -0.4037 -1.5584  0.7677
  105OSM   C10F10685   3.157   5.368   5.848  0.0845 -0.1028 -0.5971
  105OSM   H10F10686   3.258   5.350   5.808 -0.7840  0.8793 -3.4275
  105OSM   C11F10687   3.058   5.382   5.739  0.4639 -0.6992  0.3625
  105OSM   H11F10688   2.955   5.350   5.768 -0.5358  1.5761 -0.4306
  105OSM   H11G10689   3.070   5.320   5.647 -1.6808 -0.6572 -0.0049
  105OSM   C12F10690   3.037   5.528   5.687  0.3139 -0.3449 -0.5393
  105OSM   H12F10691   3.129   5.561   5.633  0.4986  0.0523  0.0085
  105OSM   H12G10692   3.024   5.603   5.768  0.7274  0.0674 -0.8439
  105OSM   C13F10693   2.920   5.533   5.590  1.0323  0.2394 -0.3657
  105OSM   H13F10694   2.828   5.570   5.639  0.7717 -1.4167  0.4512
  105OSM   H13G10695   2.897   5.431   5.553 -0.2574  1.1823 -2.3355
  105OSM   C14F10696   2.950   5.605   5.468  0.2746 -0.1778 -0.1079
  105OSM   H14F10697   3.050   5.577   5.428 -0.0508 -0.8198 -0.4785
  105OSM   H14G10698   2.960   5.710   5.503 -3.0825 -0.0464  0.7601
  105OSM   C15F10699   2.844   5.593   5.357 -1.0495 -0.1159 -1.1339
  105OSM   H15F10700   2.843   5.491   5.312  0.6826 -0.5100 -0.3439
  105OSM   H15G10701   2.859   5.670   5.279  1.7151  1.2538  0.6137
  105OSM   C16F10702   2.700   5.602   5.425  0.4646  0.2201  0.1678
  105OSM   H16F10703   2.698   5.704   5.469  3.0393  0.0093  0.9120
  105OSM   H16G10704   2.688   5.531   5.509  3.1161 -0.3312  0.1851
  105OSM   C17F10705   2.587   5.588   5.323 -0.1851 -0.1520 -0.9562
  105OSM   H17F10706   2.591   5.484   5.285 -1.4390 -0.8059  0.5832
  105OSM   H17G10707   2.589   5.660   5.239  1.2344  0.4317 -0.4417
  105OSM   C18F10708   2.446   5.599   5.393  1.0577  0.3161  0.5513
  105OSM   H18F10709   2.392   5.691   5.363  0.3221 -0.4090 -0.4093
  105OSM   H18G10710   2.462   5.598   5.503  1.2942  0.1628  0.5156
  105OSM   H18H10711   2.387   5.510   5.361  0.4758  1.5867 -2.1915
  106OSM      N10712   2.075   3.015   7.360  1.4956  0.4396  0.4608
  106OSM    C1510713   2.128   2.874   7.368  0.5123 -0.1295  0.0167
  106OSM   H15A10714   2.177   2.851   7.462  1.7758 -1.8997 -1.0275
  106OSM   H15B10715   2.201   2.855   7.291 -1.5954 -1.3498 -1.8096
  106OSM   H15C10716   2.044   2.808   7.350 -0.4807  2.0031 -4.3486
  106OSM    C1410717   1.967   3.038   7.465 -0.0617 -0.2721 -0.7169
  106OSM   H14A10718   1.875   2.983   7.453  0.7928 -2.5228  1.9800
  106OSM   H14B10719   1.931   3.140   7.457  1.1410  0.1080 -1.7166
  106OSM   H14C10720   2.010   3.021   7.562  0.6816 -1.5714 -1.2505
  106OSM    C1310721   2.187   3.111   7.377  0.2774 -0.2243  0.0316
  106OSM   H13A10722   2.261   3.101   7.299 -0.7471  1.5483 -1.2482
  106OSM   H13B10723   2.230   3.093   7.475 -1.0749 -2.7446  0.2494
  106OSM   H13C10724   2.152   3.213   7.384 -0.2539 -0.4579  1.1561
  106OSM    C1210725   2.006   3.024   7.223 -0.1331  0.8948 -0.1274
  106OSM   H12A10726   1.971   3.123   7.197 -1.4647 -0.1044 -2.5170
  106OSM   H12B10727   1.915   2.966   7.224  1.0191 -1.0269  0.5009
  106OSM    C1110728   2.077   2.968   7.093  0.3603 -0.0728  0.3423
  106OSM   H11A10729   2.170   3.024   7.070 -0.6235  0.2902 -3.4132
  106OSM   H11B10730   2.015   2.984   7.002  0.7923 -1.6516 -0.2605
  106OSM      P10731   1.991   2.720   7.091  0.3689 -0.1110  0.1974
  106OSM    O1310732   2.056   2.604   7.147  0.6051  0.1830 -0.0802
  106OSM    O1410733   1.865   2.769   7.152 -0.2345  0.6581 -0.0196
  106OSM    O1110734   1.965   2.689   6.936 -0.5767  0.0777 -0.0483
  106OSM    O1210735   2.105   2.829   7.097  0.4782 -0.7491  0.0686
  106OSM    C1S10736   2.077   2.685   6.848 -0.7287 -0.3975  0.5244
  106OSM    H1S10737   2.130   2.592   6.878  0.3899 -0.1561 -0.6420
  106OSM    H1T10738   2.146   2.771   6.858 -0.9437 -0.1078 -0.4207
  106OSM     NF10739   2.167   2.669   6.617  0.2856 -0.1330  0.0788
  106OSM    HNF10740   2.198   2.756   6.579 -0.8980  1.2075  1.9789
  106OSM    C2S10741   2.041   2.668   6.693  0.0530 -0.4825  0.4243
  106OSM    H2S10742   1.990   2.572   6.671 -0.1950  0.1749 -2.2156
  106OSM    C3S10743   1.939   2.781   6.650  0.5350  0.2579 -0.7028
  106OSM    H3S10744   1.997   2.875   6.645 -1.2823  1.5918  1.0669
  106OSM     O310745   1.832   2.805   6.749  0.3129  0.2436 -0.2399
  106OSM    HO310746   1.866   2.754   6.823  0.6600 -0.9498 -1.2038
  106OSM    C4S10747   1.882   2.759   6.515  0.2239 -0.1657 -0.4608
  106OSM    H4S10748   1.827   2.666   6.494 -0.4788 -0.0430  0.7720
  106OSM    C5S10749   1.874   2.859   6.422  0.1782  0.0812  0.1278
  106OSM    H5S10750   1.913   2.960   6.442 -1.1106  0.4777  0.7821
  106OSM    C6S10751   1.821   2.840   6.284  0.4336 -0.6439 -0.1834
  106OSM    H6S10752   1.713   2.866   6.288  0.8668  1.5314 -1.5386
  106OSM    H6T10753   1.830   2.731   6.264  0.1808 -0.8910  0.9677
  106OSM    C7S10754   1.873   2.916   6.169 -0.7545  0.0218  0.1867
  106OSM    H7S10755   1.980   2.888   6.162 -1.1800 -1.5996 -0.2001
  106OSM    H7T10756   1.859   3.026   6.178 -0.3630  0.0622  0.3230
  106OSM    C8S10757   1.820   2.875   6.032  0.4405 -0.5215  1.2084
  106OSM    H8S10758   1.719   2.920   6.021  0.2030 -1.4419 -0.8594
  106OSM    H8T10759   1.792   2.768   6.026 -1.5839  0.0460 -0.6545
  106OSM    C9S10760   1.917   2.918   5.920  0.0790  0.4362 -0.2177
  106OSM    H9S10761   2.011   2.859   5.915 -0.7762 -0.9037 -1.3894
  106OSM    H9T10762   1.935   3.026   5.935 -1.5828  0.8170 -0.7988
  106OSM   C10S10763   1.858   2.874   5.784 -0.8911  0.4306  0.4321
  106OSM   H10S10764   1.757   2.921   5.784 -0.3798  1.5555  1.2188
  106OSM   H10T10765   1.832   2.766   5.783  0.2052  0.1498  0.9036
  106OSM   C11S10766   1.950   2.907   5.670  0.0585 -0.7721 -0.2298
  106OSM   H11S10767   2.053   2.880   5.703 -0.3380 -1.3296  0.5832
  106OSM   H11T10768   1.953   3.016   5.646 -0.1689 -0.8202 -0.4820
  106OSM   C12S10769   1.928   2.834   5.542 -0.0142  0.2467 -0.3779
  106OSM   H12S10770   1.820   2.846   5.519 -0.6805  1.9442  3.0393
  106OSM   H12T10771   1.946   2.726   5.560 -1.4287  0.1870  0.8749
  106OSM   C13S10772   2.018   2.891   5.436 -0.3692 -0.0076  0.5537
  106OSM   H13S10773   2.125   2.907   5.457  0.1304  0.2245 -1.8292
  106OSM   H13T10774   1.972   2.986   5.399  2.2060  1.3707  0.7042
  106OSM   C14S10775   2.021   2.790   5.318  0.4801 -0.4608  0.8056
  106OSM   H14S10776   1.925   2.734   5.311 -1.1058  2.0061  1.5796
  106OSM   H14T10777   2.107   2.721   5.336  1.2055 -0.0529 -0.8947
  106OSM   C15S10778   2.061   2.859   5.184  0.5479  0.4558  0.2510
  106OSM   H15S10779   2.140   2.933   5.213 -1.2357  1.5853  2.5493
  106OSM   H15T10780   1.980   2.921   5.139 -1.5309 -1.8406  0.6672
  106OSM   C16S10781   2.095   2.762   5.071  0.0384  0.2625  1.0792
  106OSM   H16S10782   2.183   2.704   5.107  0.5746  0.9335  0.8696
  106OSM   H16T10783   2.121   2.813   4.976  1.0995  0.4328  1.4529
  106OSM   C17S10784   1.981   2.659   5.031 -0.4089 -0.7213 -0.1773
  106OSM   H17S10785   1.892   2.718   5.002 -0.7166  0.3784  2.7169
  106OSM   H17T10786   1.955   2.600   5.122  1.2515 -0.1767  0.6812
  106OSM   C18S10787   2.029   2.570   4.911 -0.0230 -0.2612  0.5812
  106OSM   H18S10788   2.102   2.495   4.947 -1.2336 -2.8045 -1.8602
  106OSM   H18T10789   2.073   2.637   4.834  1.3992 -0.6985  0.9925
  106OSM   H18U10790   1.944   2.519   4.861  0.5536  0.2763 -1.0385
  106OSM    C1F10791   2.251   2.573   6.618  0.5371  0.3723  0.0724
  106OSM     OF10792   2.226   2.465   6.671  0.8947 -0.2675 -0.4273
  106OSM    C2F10793   2.388   2.603   6.555 -0.0939  0.2530  0.0733
  106OSM    H2F10794   2.460   2.561   6.628  1.8624  2.0862 -0.7124
  106OSM    H2G10795   2.406   2.712   6.565  0.3782  0.1547  0.3170
  106OSM    C3F10796   2.402   2.548   6.410 -0.0690 -0.4112  0.3455
  106OSM    H3F10797   2.306   2.559   6.356 -0.7480 -1.2467  1.3343
  106OSM    H3G10798   2.422   2.439   6.406 -0.4858 -0.4711 -0.1721
  106OSM    C4F10799   2.504   2.637   6.341 -0.2196  0.1274 -1.0221
  106OSM    H4F10800   2.604   2.594   6.365 -0.6463 -0.9109 -1.0298
  106OSM    H4G10801   2.498   2.746   6.359  0.4435  0.5700 -3.2290
  106OSM    C5F10802   2.492   2.606   6.191  0.0147 -0.0133  0.3998
  106OSM    H5F10803   2.393   2.641   6.155 -0.4375 -0.7774  0.8896
  106OSM    H5G10804   2.481   2.498   6.167 -0.0110  0.2152 -0.6628
  106OSM    C6F10805   2.606   2.662   6.107 -0.2820  0.1463 -0.8730
  106OSM    H6F10806   2.701   2.624   6.149 -0.8175 -2.1669 -1.6285
  106OSM    H6G10807   2.609   2.772   6.122 -1.6295  0.0998 -0.0484
  106OSM    C7F10808   2.605   2.620   5.960  0.0072 -0.9248  0.5812
  106OSM    H7F10809   2.497   2.604   5.939 -0.1012 -1.0022  1.1952
  106OSM    H7G10810   2.651   2.518   5.955  0.0039 -0.8757 -0.8220
  106OSM    C8F10811   2.662   2.730   5.864  0.8677  0.5536 -0.2562
  106OSM    H8F10812   2.765   2.759   5.894  1.2344  0.0695 -0.9960
  106OSM    H8G10813   2.604   2.823   5.844  0.7850  0.3888 -0.8249
  106OSM    C9F10814   2.671   2.664   5.724 -0.1458  0.5214 -0.0861
  106OSM    H9F10815   2.721   2.566   5.731 -0.5030  0.4029  0.9744
  106OSM   C10F10816   2.634   2.715   5.606  0.4218 -0.1754  0.2832
  106OSM   H10F10817   2.651   2.650   5.519  1.5498  1.1293 -0.4993
  106OSM   C11F10818   2.580   2.854   5.579  0.6479  0.0986 -0.1675
  106OSM   H11F10819   2.612   2.939   5.643 -0.1702 -0.2651  0.7563
  106OSM   H11G10820   2.469   2.863   5.585  0.6326  1.2992 -1.4687
  106OSM   C12F10821   2.612   2.894   5.433  0.3829 -0.4096 -0.1694
  106OSM   H12F10822   2.720   2.904   5.409 -0.1488  1.6248 -1.9788
  106OSM   H12G10823   2.570   2.996   5.415 -2.5544 -1.7850 -1.7752
  106OSM   C13F10824   2.541   2.804   5.331  1.4872 -0.0656  0.8116
  106OSM   H13F10825   2.438   2.793   5.369  1.3825 -0.6874  0.3605
  106OSM   H13G10826   2.592   2.708   5.306  2.0575  0.9101 -2.2741
  106OSM   C14F10827   2.525   2.879   5.203  0.2242 -0.1326  0.5493
  106OSM   H14F10828   2.620   2.922   5.164 -0.3896  1.1107  0.3674
  106OSM   H14G10829   2.455   2.965   5.209 -0.9007 -1.0627  1.2210
  106OSM   C15F10830   2.488   2.780   5.089 -0.6010  0.0264 -0.3693
  106OSM   H15F10831   2.384   2.743   5.100  0.2231 -1.6265  4.6430
  106OSM   H15G10832   2.563   2.698   5.092  1.2488  1.4781 -3.0950
  106OSM   C16F10833   2.493   2.856   4.957  0.3107  0.4612  0.6706
  106OSM   H16F10834   2.551   2.951   4.955  1.5359 -0.2727 -0.8424
  106OSM   H16G10835   2.391   2.884   4.925  0.3673 -0.7129 -0.6298
  106OSM   C17F10836   2.553   2.760   4.852  0.3160 -0.2940 -0.0662
  106OSM   H17F10837   2.507   2.659   4.854  1.0250 -0.6766  3.0519
  106OSM   H17G10838   2.655   2.739   4.892  0.7984 -0.1609 -1.1714
  106OSM   C18F10839   2.572   2.818   4.715  0.2389 -0.2180  0.2851
  106OSM   H18F10840   2.591   2.927   4.721 -3.0877  0.3903  1.7593
  106OSM   H18G10841   2.476   2.827   4.660  1.6711  1.6472 -2.1367
  106OSM   H18H10842   2.652   2.768   4.657  0.3753  0.4106 -0.0772
  107OSM      N10843   4.325   2.068   7.363  0.1603  0.1184 -0.0929
  107OSM    C1510844   4.305   2.090   7.507 -0.0930  0.6353  0.6488
  107OSM   H15A10845   4.404   2.084   7.549  0.6206 -0.1438 -1.0522
  107OSM   H15B10846   4.236   2.021   7.553 -0.1378  0.7073  0.6894
  107OSM   H15C10847   4.268   2.189   7.530  1.1548  1.1965  0.3519
  107OSM    C1410848   4.185   2.075   7.295  0.0025  0.1918 -0.6160
  107OSM   H14A10849   4.144   2.175   7.295  0.7751  0.6886  3.1570
  107OSM   H14B10850   4.116   2.008   7.344 -0.9450  2.6908  1.7262
  107OSM   H14C10851   4.191   2.051   7.190 -0.3954  2.1743 -1.1328
  107OSM    C1310852   4.403   2.175   7.299  0.0617  0.2144 -0.0877
  107OSM   H13A10853   4.343   2.263   7.319 -1.6303 -1.2304  1.5381
  107OSM   H13B10854   4.420   2.164   7.193  3.5849 -0.6446  0.4387
  107OSM   H13C10855   4.499   2.191   7.345 -0.2727  2.4302 -0.0706
  107OSM    C1210856   4.379   1.929   7.332  0.5926 -0.1049 -0.1470
  107OSM   H12A10857   4.486   1.938   7.345  0.3619  3.3876  0.0237
  107OSM   H12B10858   4.371   1.910   7.226  2.0779 -0.2298 -0.2662
  107OSM    C1110859   4.322   1.813   7.418 -0.1952 -0.4744 -0.0012
  107OSM   H11A10860   4.334   1.828   7.527  1.1780 -2.3751  0.1591
  107OSM   H11B10861   4.382   1.724   7.390  2.5255  1.4118 -0.6566
  107OSM      P10862   4.151   1.704   7.257 -0.0395 -0.2371  0.2655
  107OSM    O1310863   4.205   1.567   7.274 -0.1863 -0.1666  0.3100
  107OSM    O1410864   4.004   1.730   7.227 -0.5472  0.8604  0.3614
  107OSM    O1110865   4.231   1.767   7.135 -0.3786  0.2483 -0.5553
  107OSM    O1210866   4.192   1.792   7.376 -0.2467 -0.1005  0.1219
  107OSM    C1S10867   4.249   1.684   7.023  0.1179 -0.1153  0.5922
  107OSM    H1S10868   4.174   1.603   7.018  2.4143 -2.3716  0.7752
  107OSM    H1T10869   4.348   1.635   7.026 -0.3554 -1.0509  1.6804
  107OSM     NF10870   4.243   1.648   6.787  0.4470 -0.4394  0.5129
  107OSM    HNF10871   4.325   1.648   6.730  0.3639  3.1163  0.1606
  107OSM    C2S10872   4.228   1.752   6.886  0.0464  0.1805 -0.2102
  107OSM    H2S10873   4.127   1.797   6.875 -0.3341 -0.7518 -0.7426
  107OSM    C3S10874   4.332   1.863   6.869  0.0791 -0.2553  1.1848
  107OSM    H3S10875   4.430   1.816   6.887  0.0869  0.0507  1.9830
  107OSM     O310876   4.317   1.965   6.967 -0.4139 -0.0832 -0.2873
  107OSM    HO310877   4.253   1.927   7.027  0.4071 -1.9874 -0.5476
  107OSM    C4S10878   4.339   1.927   6.734 -0.6314 -0.3133  0.9281
  107OSM    H4S10879   4.432   1.896   6.683 -1.5209 -0.3513 -0.7571
  107OSM    C5S10880   4.237   1.989   6.667 -0.5590 -0.4573 -0.8522
  107OSM    H5S10881   4.137   1.992   6.711  0.0887 -0.5976  0.7074
  107OSM    C6S10882   4.237   2.055   6.530  0.5886 -0.2489  0.0671
  107OSM    H6S10883   4.232   2.166   6.537 -0.8297 -0.2504 -0.6358
  107OSM    H6T10884   4.149   2.032   6.467 -0.7965  0.4874  1.6664
  107OSM    C7S10885   4.357   2.013   6.442  0.1462 -0.6397  0.2111
  107OSM    H7S10886   4.344   1.907   6.411 -0.6383  0.1706 -2.5325
  107OSM    H7T10887   4.453   2.011   6.497  0.5928 -0.2726 -0.5465
  107OSM    C8S10888   4.367   2.100   6.317 -0.0680  0.1609  0.1732
  107OSM    H8S10889   4.393   2.205   6.343 -0.1777 -0.0605  1.2148
  107OSM    H8T10890   4.264   2.115   6.278 -0.0157 -0.8332 -0.3874
  107OSM    C9S10891   4.470   2.048   6.213  0.1683  0.2691  0.4651
  107OSM    H9S10892   4.451   1.940   6.192  0.3375  0.5127 -1.1095
  107OSM    H9T10893   4.574   2.063   6.250  0.2002 -0.5070  0.7192
  107OSM   C10S10894   4.458   2.134   6.085  0.8613  1.0807 -0.6170
  107OSM   H10S10895   4.477   2.235   6.128 -0.8005  1.0043  0.4136
  107OSM   H10T10896   4.354   2.135   6.047  1.6033 -0.5030 -2.8701
  107OSM   C11S10897   4.549   2.093   5.970 -0.2828  0.4386 -0.5140
  107OSM   H11S10898   4.548   1.982   5.962  0.4205  0.3949 -0.0745
  107OSM   H11T10899   4.653   2.121   5.998  0.3054 -2.0437  0.0167
  107OSM   C12S10900   4.523   2.154   5.829 -0.2174  0.6514  0.6126
  107OSM   H12S10901   4.536   2.265   5.826 -2.1342  0.8811 -1.4904
  107OSM   H12T10902   4.417   2.141   5.801 -0.9758  0.9035  3.0899
  107OSM   C13S10903   4.602   2.084   5.713  0.1307 -0.1401  0.7637
  107OSM   H13S10904   4.595   1.973   5.719  2.0356 -0.2450  2.3725
  107OSM   H13T10905   4.707   2.109   5.739  0.6559  0.0809 -1.4081
  107OSM   C14S10906   4.578   2.140   5.570 -0.6716 -0.1743 -0.3818
  107OSM   H14S10907   4.607   2.246   5.586  0.6655 -0.8856  2.6223
  107OSM   H14T10908   4.472   2.131   5.539 -0.5436  1.1840 -1.2792
  107OSM   C15S10909   4.674   2.075   5.466  0.8391  0.3254 -0.0066
  107OSM   H15S10910   4.643   1.969   5.454 -3.4719  1.4730 -0.5868
  107OSM   H15T10911   4.778   2.075   5.507  1.9511  0.2772 -2.6252
  107OSM   C16S10912   4.660   2.151   5.340  0.1023  0.2816  0.0721
  107OSM   H16S10913   4.697   2.255   5.352  0.2456  0.1346  0.9335
  107OSM   H16T10914   4.554   2.160   5.308 -0.2495 -0.0547  1.1224
  107OSM   C17S10915   4.746   2.093   5.227  0.4931  0.0156 -0.1714
  107OSM   H17S10916   4.702   2.105   5.125 -0.2909 -0.4511  0.1037
  107OSM   H17T10917   4.760   1.983   5.234 -1.7941 -0.2865  0.1687
  107OSM   C18S10918   4.886   2.162   5.220  0.1909  0.7220  0.0132
  107OSM   H18S10919   4.951   2.108   5.149 -1.8647  0.2001 -1.5613
  107OSM   H18T10920   4.940   2.155   5.317  2.9136 -0.3435 -1.4839
  107OSM   H18U10921   4.889   2.263   5.175  0.6049  0.2674 -1.0045
  107OSM    C1F10922   4.135   1.573   6.756 -0.3785  0.3233 -0.5453
  107OSM     OF10923   4.037   1.570   6.833  0.6313 -0.3181  0.5752
  107OSM    C2F10924   4.150   1.484   6.640 -0.2124 -0.0579 -0.1909
  107OSM    H2F10925   4.101   1.388   6.668  1.4115 -0.6478  0.7634
  107OSM    H2G10926   4.256   1.458   6.620  0.1131  1.3322 -0.3809
  107OSM    C3F10927   4.062   1.540   6.524 -0.0243  0.0635 -0.4638
  107OSM    H3F10928   3.961   1.568   6.562  0.4796  1.1246  0.1413
  107OSM    H3G10929   4.054   1.455   6.453 -0.3319  0.8012 -1.3320
  107OSM    C4F10930   4.133   1.652   6.459 -0.4324  0.2731 -0.1128
  107OSM    H4F10931   4.241   1.626   6.467 -0.8031 -1.2468  0.2477
  107OSM    H4G10932   4.117   1.746   6.517  2.1876  0.3208  0.6789
  107OSM    C5F10933   4.093   1.672   6.316 -0.2432 -0.0744  0.3995
  107OSM    H5F10934   3.983   1.655   6.321  0.2100 -3.0386  2.2554
  107OSM    H5G10935   4.139   1.591   6.255  0.0953  1.2452 -1.1784
  107OSM    C6F10936   4.126   1.807   6.242 -0.8838  0.1605  0.1977
  107OSM    H6F10937   4.234   1.832   6.243 -1.1481  1.4325 -0.9356
  107OSM    H6G10938   4.072   1.892   6.288 -1.0469  0.6694 -0.9091
  107OSM    C7F10939   4.082   1.788   6.095 -0.1903 -0.2071 -0.0823
  107OSM    H7F10940   3.982   1.741   6.095 -0.9271  1.0715 -3.2590
  107OSM    H7G10941   4.150   1.720   6.039 -0.8663 -1.3187  0.4330
  107OSM    C8F10942   4.073   1.925   6.020 -0.1893 -0.1330 -0.6952
  107OSM    H8F10943   4.176   1.964   6.010  0.4509 -1.9775 -1.9686
  107OSM    H8G10944   4.009   1.991   6.083 -1.4715 -0.9093 -1.1345
  107OSM    C9F10945   4.011   1.914   5.881 -0.3021  0.5369  0.6549
  107OSM    H9F10946   3.909   1.874   5.890  0.5758 -1.5737  1.7281
  107OSM   C10F10947   4.055   1.946   5.756 -0.0114  0.4877  0.5532
  107OSM   H10F10948   3.994   1.928   5.666  1.7651  1.2267 -0.8603
  107OSM   C11F10949   4.202   1.983   5.738 -0.0906 -0.4165  0.1158
  107OSM   H11F10950   4.260   1.994   5.832 -1.7725  1.6136  1.0133
  107OSM   H11G10951   4.202   2.085   5.695 -1.3446 -0.7493 -0.7454
  107OSM   C12F10952   4.282   1.898   5.644 -0.4667  0.6890 -0.1277
  107OSM   H12F10953   4.301   1.791   5.670 -1.3244 -0.2560 -2.9630
  107OSM   H12G10954   4.377   1.952   5.630 -0.5660  0.8516 -0.1667
  107OSM   C13F10955   4.214   1.882   5.507  0.0519  0.1644  0.2204
  107OSM   H13F10956   4.160   1.978   5.495  0.8733  0.5220 -0.8344
  107OSM   H13G10957   4.152   1.791   5.497  1.5517 -1.0474  1.4523
  107OSM   C14F10958   4.309   1.877   5.386  0.1227  0.0683 -0.9157
  107OSM   H14F10959   4.396   1.823   5.430  1.3687  0.4617 -2.7504
  107OSM   H14G10960   4.354   1.976   5.363  1.0743 -0.4038 -1.1349
  107OSM   C15F10961   4.255   1.807   5.261 -0.0525  0.1012 -0.6507
  107OSM   H15F10962   4.161   1.863   5.241  0.9639  2.1367  0.0374
  107OSM   H15G10963   4.227   1.701   5.281 -0.8098  0.6009  1.1673
  107OSM   C16F10964   4.351   1.820   5.143 -0.2829 -0.1520  0.1959
  107OSM   H16F10965   4.431   1.743   5.155  0.5635  0.4342 -1.4261
  107OSM   H16G10966   4.410   1.914   5.140 -1.5241  0.6658  0.6270
  107OSM   C17F10967   4.285   1.803   5.005  0.1735 -0.5644  0.9492
  107OSM   H17F10968   4.360   1.798   4.923 -0.6461 -0.0270  0.1445
  107OSM   H17G10969   4.225   1.895   4.988  0.3070 -0.6717 -0.2259
  107OSM   C18F10970   4.192   1.678   5.005  0.0776 -0.0903  0.3960
  107OSM   H18F10971   4.117   1.693   5.085  2.0004 -0.9852  2.4869
  107OSM   H18G10972   4.245   1.586   5.036  1.8799  0.8519  0.2701
  107OSM   H18H10973   4.147   1.659   4.906 -1.0255 -1.1233  1.0746
  108OSM      N10974   6.597   3.624   7.163  0.7608 -0.3312 -0.6307
  108OSM    C1510975   6.447   3.620   7.139  0.3334  0.1264 -0.4677
  108OSM   H15A10976   6.428   3.600   7.035  0.7923 -2.3289 -0.1493
  108OSM   H15B10977   6.386   3.707   7.161  0.1271 -0.4748  1.5939
  108OSM   H15C10978   6.395   3.539   7.189  0.0796  1.1682  1.0269
  108OSM    C1410979   6.667   3.698   7.063  0.3959 -0.6627 -0.1982
  108OSM   H14A10980   6.632   3.800   7.064  0.2444 -0.6814  2.2447
  108OSM   H14B10981   6.652   3.662   6.962 -0.8789  0.3147 -0.3942
  108OSM   H14C10982   6.774   3.704   7.076  0.5380  1.7531 -1.8326
  108OSM    C1310983   6.609   3.693   7.301 -0.1235 -0.1568 -0.1200
  108OSM   H13A10984   6.711   3.672   7.330 -0.2392 -1.3717 -0.5631
  108OSM   H13B10985   6.540   3.645   7.369 -2.9285  2.4189 -0.9218
  108OSM   H13C10986   6.598   3.801   7.295  0.8157  0.0468  1.2156
  108OSM    C1210987   6.648   3.482   7.171  0.2581 -0.0042 -0.0236
  108OSM   H12A10988   6.755   3.478   7.159  0.0756  0.0855 -2.0258
  108OSM   H12B10989   6.618   3.425   7.084  2.3588 -0.8279 -0.2691
  108OSM    C1110990   6.601   3.393   7.297  0.8188  0.1167  0.8258
  108OSM   H11A10991   6.599   3.451   7.392 -3.4138  1.0502  0.3726
  108OSM   H11B10992   6.671   3.307   7.295 -0.4282 -0.9531 -1.1815
  108OSM      P10993   6.435   3.211   7.189  0.0037  0.2901  0.6232
  108OSM    O1310994   6.465   3.096   7.276 -0.2794 -0.4287 -0.9836
  108OSM    O1410995   6.288   3.221   7.153  0.3908 -0.2724 -0.3737
  108OSM    O1110996   6.542   3.223   7.070  0.2157 -0.1911 -0.4898
  108OSM    O1210997   6.467   3.349   7.264  0.4275  0.0784 -0.2996
  108OSM    C1S10998   6.503   3.278   6.941 -0.8514  0.4423  0.6521
  108OSM    H1S10999   6.467   3.383   6.948 -1.9349  0.0461  1.3290
  108OSM    H1T11000   6.420   3.215   6.904 -0.4768 -0.7345  1.7415
  108OSM     NF11001   6.581   3.345   6.721  0.2832  0.2892  0.0091
  108OSM    HNF11002   6.546   3.285   6.650  0.9156 -0.3191  0.1981
  108OSM    C2S11003   6.610   3.276   6.841 -0.6350  0.8640 -0.5577
  108OSM    H2S11004   6.697   3.335   6.879 -0.2180  0.7678 -1.3489
  108OSM    C3S11005   6.653   3.125   6.815  0.7730  0.7940 -0.4080
  108OSM    H3S11006   6.568   3.057   6.793  0.2502  1.7560 -1.4639
  108OSM     O311007   6.709   3.069   6.932  0.1234 -0.1193  0.3221
  108OSM    HO311008   6.674   3.130   6.998  1.4901  0.2177  0.7763
  108OSM    C4S11009   6.755   3.110   6.706 -0.1527 -0.5163 -0.2143
  108OSM    H4S11010   6.824   3.196   6.715 -1.1435  0.2901 -0.1771
  108OSM    C5S11011   6.765   3.012   6.616 -0.5529  0.2321  0.8888
  108OSM    H5S11012   6.692   2.930   6.629  0.6265 -0.9247  0.4097
  108OSM    C6S11013   6.862   2.998   6.502 -0.7557 -0.3397  0.0525
  108OSM    H6S11014   6.805   2.969   6.411 -0.8163  0.2724 -0.1093
  108OSM    H6T11015   6.934   2.915   6.516  0.6254  0.6071 -0.9952
  108OSM    C7S11016   6.964   3.108   6.459  0.3020  0.5494  0.2044
  108OSM    H7S11017   7.027   3.145   6.543 -0.6006 -0.0925  1.2035
  108OSM    H7T11018   6.904   3.195   6.425  1.8254  1.3999 -0.4160
  108OSM    C8S11019   7.047   3.062   6.334 -0.6836  0.2497  0.1326
  108OSM    H8S11020   7.125   2.985   6.350 -2.7391 -2.2611 -1.2591
  108OSM    H8T11021   7.103   3.156   6.312 -1.2516  0.9074  1.3841
  108OSM    C9S11022   6.969   3.038   6.207 -0.4865 -0.5775 -0.3713
  108OSM    H9S11023   6.884   3.108   6.209 -0.2494 -0.2837 -0.5298
  108OSM    H9T11024   6.923   2.937   6.214  0.3083 -0.9389 -0.2213
  108OSM   C10S11025   7.056   3.035   6.075 -0.2905 -0.0011  0.3430
  108OSM   H10S11026   7.128   2.951   6.066  0.1098  0.5940 -3.6779
  108OSM   H10T11027   7.114   3.129   6.058  1.7061 -0.8787  1.7527
  108OSM   C11S11028   6.956   3.022   5.959  0.4035  0.5090  0.8340
  108OSM   H11S11029   6.885   3.107   5.953 -1.6496 -1.1817  0.1509
  108OSM   H11T11030   6.905   2.924   5.964  2.0911 -0.4485  0.2992
  108OSM   C12S11031   7.041   3.022   5.828  0.3510 -0.3989  0.5512
  108OSM   H12S11032   7.122   2.947   5.834  0.1192 -0.6053  1.1697
  108OSM   H12T11033   7.088   3.123   5.831 -0.0802 -0.1918  0.4531
  108OSM   C13S11034   6.955   2.995   5.700  0.7122 -0.2505 -0.3862
  108OSM   H13S11035   6.872   3.069   5.697 -0.8435 -1.8880  0.2815
  108OSM   H13T11036   6.908   2.896   5.721 -2.7796  1.5108  0.9438
  108OSM   C14S11037   7.035   3.006   5.568  0.6111  0.7044  0.3268
  108OSM   H14S11038   7.111   2.924   5.572 -0.5160 -0.4395 -0.7684
  108OSM   H14T11039   7.096   3.099   5.566  0.9022  0.4995 -0.9310
  108OSM   C15S11040   6.950   2.981   5.447  0.2017  0.0162  0.0257
  108OSM   H15S11041   6.888   3.072   5.432  1.0431  0.4183 -1.1934
  108OSM   H15T11042   6.877   2.900   5.465 -2.1071  1.4000 -2.4413
  108OSM   C16S11043   7.028   2.944   5.314  0.2155 -0.2467 -0.4104
  108OSM   H16S11044   7.053   2.837   5.334  0.8496 -0.0704 -0.2368
  108OSM   H16T11045   7.122   3.001   5.298 -1.0485  1.9605 -0.2649
  108OSM   C17S11046   6.941   2.971   5.198  0.5555 -0.1855  1.2095
  108OSM   H17S11047   6.929   3.081   5.189 -0.7834 -0.4450 -0.5747
  108OSM   H17T11048   6.843   2.922   5.215 -0.7802  1.3137 -1.4512
  108OSM   C18S11049   6.989   2.914   5.063 -0.5984  0.8902 -0.2796
  108OSM   H18S11050   6.983   2.804   5.073 -0.6180  0.8835 -0.3559
  108OSM   H18T11051   7.093   2.950   5.045 -0.5743 -0.2997 -3.0245
  108OSM   H18U11052   6.918   2.943   4.982 -1.3827 -0.6826 -0.1880
  108OSM    C1F11053   6.567   3.482   6.715  0.2142  0.2165 -0.0998
  108OSM     OF11054   6.614   3.547   6.801  0.3347  0.1981 -0.3311
  108OSM    C2F11055   6.502   3.541   6.591  0.2912  0.1044 -0.0007
  108OSM    H2F11056   6.401   3.583   6.612  0.2239  0.1539 -0.4262
  108OSM    H2G11057   6.487   3.464   6.512 -2.1020 -0.8072  1.2288
  108OSM    C3F11058   6.596   3.647   6.529 -0.4962 -0.1721 -0.3453
  108OSM    H3F11059   6.682   3.591   6.487 -0.0159 -0.6502  1.2101
  108OSM    H3G11060   6.631   3.732   6.592  0.9671 -0.8227 -0.2412
  108OSM    C4F11061   6.536   3.716   6.402  0.1592 -0.2476 -0.3587
  108OSM    H4F11062   6.617   3.776   6.354 -0.5656  1.4581  0.4559
  108OSM    H4G11063   6.442   3.770   6.427  0.5477  0.4556 -0.3875
  108OSM    C5F11064   6.510   3.625   6.287 -0.2311  0.3174 -0.1440
  108OSM    H5F11065   6.441   3.553   6.337  1.0783 -1.2215 -0.4586
  108OSM    H5G11066   6.594   3.567   6.243 -1.8619 -1.1384 -1.5193
  108OSM    C6F11067   6.433   3.692   6.177 -0.0280 -0.0635 -0.6761
  108OSM    H6F11068   6.358   3.764   6.217 -0.3286 -0.0680 -1.2223
  108OSM    H6G11069   6.376   3.616   6.120  0.2441 -1.1561  0.4739
  108OSM    C7F11070   6.530   3.757   6.082  0.1273  0.0630  0.3688
  108OSM    H7F11071   6.629   3.707   6.078  1.4126  2.5006 -2.2671
  108OSM    H7G11072   6.556   3.849   6.138  1.7564 -0.6496  0.8431
  108OSM    C8F11073   6.463   3.792   5.952 -0.4690  0.0076 -0.0062
  108OSM    H8F11074   6.522   3.873   5.904  0.2029 -0.8719 -0.6874
  108OSM    H8G11075   6.363   3.837   5.971 -0.8721 -0.3695 -1.1930
  108OSM    C9F11076   6.465   3.671   5.863 -0.2225 -1.0468  0.9508
  108OSM    H9F11077   6.394   3.595   5.899  0.1543 -2.3414 -0.8772
  108OSM   C10F11078   6.513   3.660   5.738 -0.3499  0.1482  0.2616
  108OSM   H10F11079   6.519   3.560   5.692  0.5352  0.3179 -0.0036
  108OSM   C11F11080   6.605   3.760   5.671  0.2892 -0.0887 -1.1122
  108OSM   H11F11081   6.680   3.716   5.602  2.2569  1.2255  0.0720
  108OSM   H11G11082   6.670   3.811   5.746 -0.0981 -1.1614 -0.0107
  108OSM   C12F11083   6.520   3.856   5.591 -0.2817 -0.5150 -0.5222
  108OSM   H12F11084   6.584   3.941   5.559 -0.6865 -0.1522 -0.3678
  108OSM   H12G11085   6.437   3.901   5.649 -1.0686 -1.9240 -0.5224
  108OSM   C13F11086   6.463   3.790   5.470  0.1700 -0.0960 -0.1459
  108OSM   H13F11087   6.382   3.727   5.512  1.3783  0.8478  4.0247
  108OSM   H13G11088   6.540   3.718   5.434 -0.3662 -0.6042 -0.2952
  108OSM   C14F11089   6.412   3.879   5.360 -1.1577 -0.6562 -0.0667
  108OSM   H14F11090   6.479   3.966   5.346 -1.0933 -0.7882 -0.5639
  108OSM   H14G11091   6.324   3.935   5.400 -1.5122 -0.2954 -1.3227
  108OSM   C15F11092   6.362   3.818   5.234 -0.1253 -0.2458  0.6602
  108OSM   H15F11093   6.335   3.897   5.160 -2.0924 -1.1575  0.3522
  108OSM   H15G11094   6.266   3.765   5.248  0.1782 -1.0856 -0.3586
  108OSM   C16F11095   6.459   3.723   5.154  0.3624  0.7832  0.3012
  108OSM   H16F11096   6.400   3.691   5.065  2.8179 -0.7280 -0.8876
  108OSM   H16G11097   6.492   3.635   5.215  2.5241  1.1623 -0.2565
  108OSM   C17F11098   6.592   3.790   5.118 -0.4199 -0.5839 -0.1164
  108OSM   H17F11099   6.672   3.798   5.194 -0.8097 -0.1534  0.2597
  108OSM   H17G11100   6.580   3.889   5.069  0.9782 -0.9818 -1.3325
  108OSM   C18F11101   6.669   3.706   5.015  0.2763 -0.1090  0.5627
  108OSM   H18F11102   6.754   3.758   4.967 -0.0228  1.5988  1.7995
  108OSM   H18G11103   6.598   3.679   4.933 -0.0259  1.5460  0.2461
  108OSM   H18H11104   6.698   3.614   5.070  1.2046 -0.7849 -1.0029
  109OSM      N11105   2.688   3.482   6.999  0.6383 -0.1067 -1.2236
  109OSM    C1511106   2.833   3.469   7.031 -0.5128 -0.1273  0.3389
  109OSM   H15A11107   2.860   3.558   7.085  0.3930 -0.1973  0.0142
  109OSM   H15B11108   2.891   3.457   6.941  0.6401 -0.7103  1.1377
  109OSM   H15C11109   2.859   3.381   7.088  1.1507 -0.0788 -0.2951
  109OSM    C1411110   2.616   3.486   7.135  0.1227 -0.2415  0.8124
  109OSM   H14A11111   2.640   3.397   7.192  1.4037  0.1977  1.0107
  109OSM   H14B11112   2.510   3.478   7.118  0.0171 -0.6784  1.6324
  109OSM   H14C11113   2.644   3.572   7.195  0.4137  0.4880 -0.3475
  109OSM    C1311114   2.664   3.611   6.928  0.6592  0.4030 -0.4829
  109OSM   H13A11115   2.704   3.616   6.827 -3.0718 -3.0369 -2.4373
  109OSM   H13B11116   2.699   3.694   6.988 -0.9906 -0.0543  1.1838
  109OSM   H13C11117   2.556   3.621   6.921  0.6356  1.0192  0.6007
  109OSM    C1211118   2.644   3.363   6.910  0.2621 -0.1632 -0.2125
  109OSM   H12A11119   2.645   3.283   6.983 -2.0578 -0.8457 -0.8581
  109OSM   H12B11120   2.721   3.345   6.837  0.9923  0.8154  0.2864
  109OSM    C1111121   2.510   3.367   6.840 -0.3566 -0.3835  0.4069
  109OSM   H11A11122   2.497   3.280   6.773 -2.1000 -0.2006  0.4546
  109OSM   H11B11123   2.512   3.455   6.771  1.0013 -0.2113  0.6317
  109OSM      P11124   2.355   3.243   7.007  0.1415  0.1295 -0.6098
  109OSM    O1311125   2.459   3.135   7.010  0.0176  0.1918 -0.6807
  109OSM    O1411126   2.304   3.295   7.135  0.4461 -0.3751  0.1746
  109OSM    O1111127   2.230   3.201   6.918  0.4488  0.9500  0.3466
  109OSM    O1211128   2.399   3.366   6.925 -0.0954 -0.0839 -0.1853
  109OSM    C1S11129   2.237   3.196   6.779 -0.6630 -0.9886  0.0719
  109OSM    H1S11130   2.320   3.126   6.752  2.3739  1.8593  1.3453
  109OSM    H1T11131   2.248   3.295   6.731  1.6027 -0.6475  1.1446
  109OSM     NF11132   2.129   3.097   6.579 -0.1350  0.4003 -0.2502
  109OSM    HNF11133   2.089   3.164   6.517 -2.4392 -0.3974  0.2991
  109OSM    C2S11134   2.109   3.132   6.721 -0.5072  0.4105 -0.7452
  109OSM    H2S11135   2.096   3.036   6.776  1.0524  1.5979  1.8913
  109OSM    C3S11136   1.981   3.223   6.742  0.5184  0.4399 -0.4298
  109OSM    H3S11137   2.004   3.315   6.684  0.6980 -0.1657 -1.3536
  109OSM     O311138   1.962   3.262   6.880  0.5276  0.2464 -0.2119
  109OSM    HO311139   2.046   3.252   6.926 -0.2927  0.6648  1.4242
  109OSM    C4S11140   1.846   3.168   6.699  0.1152 -0.2959 -0.1288
  109OSM    H4S11141   1.829   3.062   6.725 -1.5184 -0.4083 -1.4884
  109OSM    C5S11142   1.754   3.216   6.615  0.5630  0.2214 -0.3942
  109OSM    H5S11143   1.774   3.307   6.556 -0.0432  0.9644  0.5184
  109OSM    C6S11144   1.634   3.138   6.566  0.5269  0.2202  0.4057
  109OSM    H6S11145   1.543   3.175   6.618  0.1374 -0.2760  0.0858
  109OSM    H6T11146   1.631   3.031   6.595 -1.7130  0.5888  1.7707
  109OSM    C7S11147   1.603   3.151   6.416 -0.3692  0.6223  0.0144
  109OSM    H7S11148   1.513   3.087   6.401 -1.2936  2.3007 -2.0831
  109OSM    H7T11149   1.681   3.108   6.350  0.0893  0.7499  0.4655
  109OSM    C8S11150   1.569   3.301   6.371  0.2021 -0.1423 -0.0180
  109OSM    H8S11151   1.650   3.364   6.330 -1.6116  0.3327 -3.2169
  109OSM    H8T11152   1.537   3.350   6.465  3.8014  1.1457  0.6683
  109OSM    C9S11153   1.453   3.300   6.271 -0.2000  0.7850  0.8590
  109OSM    H9S11154   1.436   3.410   6.260 -0.0909  0.8841  1.6192
  109OSM    H9T11155   1.362   3.247   6.307 -1.5972  1.3150 -1.6530
  109OSM   C10S11156   1.487   3.234   6.139 -0.0796  0.4396  0.4050
  109OSM   H10S11157   1.499   3.124   6.148  1.9333  0.6605  0.7813
  109OSM   H10T11158   1.581   3.274   6.095  0.2834 -2.7998 -2.1076
  109OSM   C11S11159   1.378   3.267   6.039 -0.1928  0.6866  0.2958
  109OSM   H11S11160   1.352   3.372   6.065 -2.9278  0.5212 -1.4106
  109OSM   H11T11161   1.292   3.201   6.059  0.0122  0.1131 -0.6523
  109OSM   C12S11162   1.432   3.268   5.897 -0.0847 -0.0492  0.6859
  109OSM   H12S11163   1.487   3.179   5.859 -0.1833  0.3265 -0.3903
  109OSM   H12T11164   1.484   3.366   5.890 -3.4008  1.7278 -1.8065
  109OSM   C13S11165   1.319   3.296   5.798 -0.6638 -0.0419  0.0194
  109OSM   H13S11166   1.258   3.382   5.833 -0.0970 -0.3207  1.7620
  109OSM   H13T11167   1.260   3.202   5.795  0.3053 -0.6501 -1.6858
  109OSM   C14S11168   1.377   3.312   5.654 -0.6099  0.3674 -0.5473
  109OSM   H14S11169   1.418   3.214   5.621  0.0622  0.9713 -1.5808
  109OSM   H14T11170   1.459   3.386   5.642  3.9151 -3.5925  2.2650
  109OSM   C15S11171   1.268   3.344   5.551 -0.4805 -0.1830  0.8172
  109OSM   H15S11172   1.213   3.432   5.591 -0.8911 -0.2728  0.4577
  109OSM   H15T11173   1.200   3.257   5.537 -0.0846 -0.0912 -2.4305
  109OSM   C16S11174   1.330   3.388   5.415 -0.2141  0.0923 -0.4623
  109OSM   H16S11175   1.375   3.296   5.372  0.0969  0.9284 -1.9978
  109OSM   H16T11176   1.408   3.463   5.439  0.5859  0.1338 -2.8614
  109OSM   C17S11177   1.239   3.461   5.319  0.1355  0.5453  0.4371
  109OSM   H17S11178   1.203   3.558   5.358  1.9913  0.2224  3.2039
  109OSM   H17T11179   1.145   3.401   5.311 -1.6003  3.1348  0.0444
  109OSM   C18S11180   1.308   3.471   5.182  0.1909  0.2028  0.0347
  109OSM   H18S11181   1.240   3.510   5.102  1.5896  1.7930 -0.4264
  109OSM   H18T11182   1.335   3.370   5.143  0.2687  0.4504 -0.5711
  109OSM   H18U11183   1.394   3.539   5.194  0.5193 -0.6040  2.9675
  109OSM    C1F11184   2.216   3.006   6.544 -0.2466 -1.0291 -0.2138
  109OSM     OF11185   2.267   2.934   6.630 -0.0548  0.3873 -0.0300
  109OSM    C2F11186   2.267   3.022   6.404  0.1002  0.1456 -0.2260
  109OSM    H2F11187   2.374   3.053   6.413 -0.2788  2.5550 -2.7386
  109OSM    H2G11188   2.218   3.113   6.363  1.1874  1.3556  1.0437
  109OSM    C3F11189   2.256   2.903   6.308  0.1721 -0.4221 -0.2019
  109OSM    H3F11190   2.145   2.898   6.301  0.0131  2.6502 -1.3324
  109OSM    H3G11191   2.286   2.813   6.365 -1.6665 -1.7702 -1.2793
  109OSM    C4F11192   2.316   2.909   6.165  0.3882  0.0081 -0.2664
  109OSM    H4F11193   2.287   2.813   6.116 -1.7114  0.5300 -0.1045
  109OSM    H4G11194   2.427   2.908   6.177  0.2817 -1.9575  0.9270
  109OSM    C5F11195   2.274   3.018   6.059 -0.2950  0.4152 -0.5637
  109OSM    H5F11196   2.307   3.118   6.095  0.7213 -0.0287 -0.2168
  109OSM    H5G11197   2.163   3.014   6.053 -0.4737  0.0111  1.8666
  109OSM    C6F11198   2.318   2.992   5.915  0.3183  0.3103  0.6528
  109OSM    H6F11199   2.289   2.888   5.890 -0.2369  0.7816 -0.7844
  109OSM    H6G11200   2.428   3.000   5.902 -0.0731  0.9473 -3.7065
  109OSM    C7F11201   2.268   3.099   5.821 -0.0773 -0.2067  0.2979
  109OSM    H7F11202   2.308   3.201   5.841  0.2095  0.2465 -2.2050
  109OSM    H7G11203   2.157   3.107   5.828 -0.1952 -1.3425 -0.0648
  109OSM    C8F11204   2.308   3.070   5.671  0.5522  0.3259 -0.0191
  109OSM    H8F11205   2.261   2.972   5.650 -0.1452  0.5805  0.3047
  109OSM    H8G11206   2.418   3.059   5.674  0.3597 -1.9619  1.2550
  109OSM    C9F11207   2.238   3.162   5.571 -0.3480  0.5462 -0.3862
  109OSM    H9F11208   2.129   3.166   5.583 -0.1677 -0.9268  2.8952
  109OSM   C10F11209   2.295   3.259   5.494 -0.3859  0.1094  0.3815
  109OSM   H10F11210   2.227   3.322   5.437 -1.8843 -0.7130  1.2074
  109OSM   C11F11211   2.444   3.276   5.468  0.8427  0.1132 -0.1089
  109OSM   H11F11212   2.510   3.209   5.528  0.5806  0.4340  0.5487
  109OSM   H11G11213   2.479   3.378   5.494 -0.7538 -0.0220  3.0893
  109OSM   C12F11214   2.486   3.257   5.319  0.3165  0.9146  0.2400
  109OSM   H12F11215   2.429   3.331   5.259  1.3103  0.2381 -1.6413
  109OSM   H12G11216   2.447   3.163   5.274 -2.8830  1.3326  1.9034
  109OSM   C13F11217   2.635   3.269   5.293 -0.1029  0.7379  0.0779
  109OSM   H13F11218   2.697   3.193   5.345  0.8298  2.1940  1.2058
  109OSM   H13G11219   2.658   3.363   5.350  1.0011  0.4526  0.1269
  109OSM   C14F11220   2.679   3.278   5.147  0.6187  0.7829 -0.2691
  109OSM   H14F11221   2.651   3.183   5.097  0.4798 -0.1904  1.5642
  109OSM   H14G11222   2.789   3.287   5.133  0.4660  2.2425 -0.7032
  109OSM   C15F11223   2.619   3.405   5.079 -0.2080 -0.8521 -0.1280
  109OSM   H15F11224   2.685   3.483   5.125  0.5231 -1.5395  0.0068
  109OSM   H15G11225   2.515   3.438   5.099  0.0885 -0.7223  1.3273
  109OSM   C16F11226   2.634   3.398   4.922  0.3254  0.0437 -1.1299
  109OSM   H16F11227   2.576   3.309   4.889 -2.0811  1.4330 -0.8059
  109OSM   H16G11228   2.743   3.386   4.904  0.3771 -0.9391 -0.2685
  109OSM   C17F11229   2.571   3.510   4.851  0.5616  0.2779  0.1269
  109OSM   H17F11230   2.608   3.603   4.898  0.7682 -0.5241  1.6172
  109OSM   H17G11231   2.462   3.495   4.866  0.6143  0.2249  0.4683
  109OSM   C18F11232   2.619   3.503   4.705  0.8348 -0.3033  0.1187
  109OSM   H18F11233   2.551   3.567   4.644  2.0967 -1.2688 -2.4352
  109OSM   H18G11234   2.585   3.406   4.663 -0.3984  0.6876 -1.2722
  109OSM   H18H11235   2.723   3.528   4.677  0.3859  2.1106  0.3634
  110OSM      N11236   5.570   2.182   6.863 -0.5454  0.2673  0.4481
  110OSM    C1511237   5.549   2.128   6.724  0.3933 -0.0674 -0.2885
  110OSM   H15A11238   5.493   2.035   6.721 -0.3628  0.2824  1.4776
  110OSM   H15B11239   5.650   2.114   6.691  0.6173  0.9230 -0.0621
  110OSM   H15C11240   5.493   2.202   6.669 -0.3657 -0.6005 -0.2472
  110OSM    C1411241   5.642   2.317   6.837  0.2410 -0.1790 -0.2412
  110OSM   H14A11242   5.736   2.308   6.784 -0.4926 -2.7535 -1.2407
  110OSM   H14B11243   5.658   2.355   6.937  2.2140 -1.9189  0.1716
  110OSM   H14C11244   5.576   2.380   6.779  0.3811  0.0313 -0.1720
  110OSM    C1311245   5.440   2.197   6.940  0.3987  0.0578  0.0211
  110OSM   H13A11246   5.372   2.115   6.926 -0.7824  1.0132  0.0474
  110OSM   H13B11247   5.391   2.281   6.893  1.9190  0.6673 -0.5707
  110OSM   H13C11248   5.457   2.212   7.045  2.3938 -1.1112 -0.0773
  110OSM    C1211249   5.663   2.092   6.932 -0.3705 -0.6827  0.0189
  110OSM   H12A11250   5.706   2.145   7.016  1.4311 -1.3867 -0.3989
  110OSM   H12B11251   5.748   2.060   6.874  0.7173  1.9561  0.0460
  110OSM    C1111252   5.607   1.961   6.996  0.6480 -0.2874 -0.5225
  110OSM   H11A11253   5.544   1.989   7.084  2.9216  1.6628  0.6111
  110OSM   H11B11254   5.697   1.910   7.039  0.5402  1.7381  2.4200
  110OSM      P11255   5.435   1.776   6.942  0.2028  0.0036  0.5790
  110OSM    O1311256   5.462   1.731   7.085  0.1055 -0.2480 -0.3449
  110OSM    O1411257   5.298   1.818   6.913  0.7848 -0.5916 -0.2755
  110OSM    O1111258   5.468   1.663   6.849 -0.1908 -0.2299  0.3998
  110OSM    O1211259   5.546   1.882   6.893  0.0204  0.1174 -0.6861
  110OSM    C1S11260   5.478   1.660   6.706  0.4010 -0.1994  1.2632
  110OSM    H1S11261   5.391   1.711   6.660  1.0355  0.5918  0.9200
  110OSM    H1T11262   5.465   1.554   6.676 -0.2217  0.2684 -0.1869
  110OSM     NF11263   5.597   1.708   6.505  0.2573 -0.2672 -0.1018
  110OSM    HNF11264   5.635   1.625   6.465 -0.4820 -1.0835  0.8262
  110OSM    C2S11265   5.612   1.716   6.645  0.5695 -0.1763  0.1259
  110OSM    H2S11266   5.613   1.824   6.670 -0.6678  0.0921 -0.8677
  110OSM    C3S11267   5.734   1.651   6.712 -0.0769 -0.2415 -0.1099
  110OSM    H3S11268   5.725   1.541   6.724  1.0075 -0.5087 -1.4566
  110OSM     O311269   5.759   1.708   6.841 -0.9691 -0.3597 -0.4021
  110OSM    HO311270   5.697   1.780   6.852  0.1302  0.3522  1.7507
  110OSM    C4S11271   5.856   1.680   6.632 -0.2186  0.7123 -1.1904
  110OSM    H4S11272   5.894   1.580   6.605 -0.9108  0.4271 -1.1218
  110OSM    C5S11273   5.909   1.800   6.589 -0.0555  0.2913  0.2250
  110OSM    H5S11274   5.857   1.895   6.610 -0.2282  0.6330 -1.6112
  110OSM    C6S11275   6.025   1.804   6.497 -0.5987  0.5777  0.2453
  110OSM    H6S11276   6.098   1.880   6.533  2.1261 -1.6720 -0.1889
  110OSM    H6T11277   5.995   1.827   6.393 -1.9833 -1.4932  0.1409
  110OSM    C7S11278   6.103   1.669   6.476  0.3755  0.1089  0.0896
  110OSM    H7S11279   6.036   1.590   6.436  0.3675  1.0644 -1.8950
  110OSM    H7T11280   6.134   1.613   6.567  1.2841 -0.1657 -0.3820
  110OSM    C8S11281   6.223   1.678   6.379 -0.5552 -0.4837  0.1095
  110OSM    H8S11282   6.310   1.626   6.425 -2.8010 -2.9324  1.8227
  110OSM    H8T11283   6.239   1.787   6.369 -3.5819  0.2057  1.7186
  110OSM    C9S11284   6.192   1.619   6.246  0.1853  0.0506  0.2774
  110OSM    H9S11285   6.093   1.662   6.219 -0.5889 -0.9858  1.3766
  110OSM    H9T11286   6.184   1.509   6.259 -2.3003 -0.1157 -1.8046
  110OSM   C10S11287   6.298   1.645   6.135  0.6344 -0.2522 -0.0174
  110OSM   H10S11288   6.372   1.564   6.154  0.1879 -0.4976  0.7156
  110OSM   H10T11289   6.354   1.740   6.135 -0.1689  0.2294  0.0108
  110OSM   C11S11290   6.241   1.624   5.988 -0.5224 -0.3930  0.3075
  110OSM   H11S11291   6.154   1.691   5.968 -0.0193  0.9770  2.3770
  110OSM   H11T11292   6.186   1.528   5.979 -3.0292  0.9272  0.5934
  110OSM   C12S11293   6.355   1.640   5.886  0.4945  0.2739  0.3537
  110OSM   H12S11294   6.441   1.576   5.916 -0.7810 -1.5484  0.3017
  110OSM   H12T11295   6.390   1.745   5.877 -0.2395  0.4571 -0.4874
  110OSM   C13S11296   6.323   1.596   5.746  0.8694 -0.3776  0.0914
  110OSM   H13S11297   6.242   1.660   5.705 -0.7366 -2.2108  0.2918
  110OSM   H13T11298   6.292   1.490   5.749 -0.0274 -0.1352 -0.3972
  110OSM   C14S11299   6.439   1.614   5.649  0.0005  0.5980 -0.1353
  110OSM   H14S11300   6.527   1.567   5.698 -0.4181  0.6556  0.6871
  110OSM   H14T11301   6.457   1.724   5.654 -0.1444  0.5731  1.2563
  110OSM   C15S11302   6.404   1.578   5.509  0.4483 -0.1511  0.1619
  110OSM   H15S11303   6.328   1.650   5.472  1.2547  0.0433 -1.1648
  110OSM   H15T11304   6.363   1.475   5.500  2.1769 -0.7995 -0.7392
  110OSM   C16S11305   6.520   1.579   5.407  0.0034  0.7352  0.9654
  110OSM   H16S11306   6.617   1.555   5.454  1.0707  0.8208 -1.0852
  110OSM   H16T11307   6.526   1.679   5.359 -1.0594  0.1957 -0.3796
  110OSM   C17S11308   6.506   1.472   5.298 -0.2127 -0.9883 -0.4590
  110OSM   H17S11309   6.402   1.480   5.260 -0.7456 -0.7118  1.0179
  110OSM   H17T11310   6.510   1.365   5.328  1.5088 -1.1118 -1.0223
  110OSM   C18S11311   6.594   1.503   5.181  0.0274  0.5089  0.5627
  110OSM   H18S11312   6.701   1.498   5.211  0.4424  0.0564 -0.8973
  110OSM   H18T11313   6.577   1.606   5.145 -0.4411  0.2680  0.0737
  110OSM   H18U11314   6.570   1.437   5.094 -1.7803  3.2955 -1.2029
  110OSM    C1F11315   5.530   1.811   6.444  0.6877  0.0564  0.8174
  110OSM     OF11316   5.486   1.910   6.501 -0.4882  0.3446 -0.3021
  110OSM    C2F11317   5.502   1.795   6.300  0.0020 -0.8103  0.0523
  110OSM    H2F11318   5.442   1.706   6.272 -3.8047  1.4496  0.2898
  110OSM    H2G11319   5.594   1.781   6.240 -1.2999 -1.3039 -1.9161
  110OSM    C3F11320   5.436   1.926   6.239  0.5254  0.5689  0.0075
  110OSM    H3F11321   5.491   2.009   6.287 -1.5696  1.7159  0.5488
  110OSM    H3G11322   5.331   1.919   6.273  0.1673 -1.9265 -1.3511
  110OSM    C4F11323   5.448   1.955   6.090 -0.4632 -0.2450  0.0570
  110OSM    H4F11324   5.413   1.881   6.015  1.1810  2.1621 -3.3419
  110OSM    H4G11325   5.558   1.954   6.076 -0.2795  0.6538  1.3176
  110OSM    C5F11326   5.385   2.089   6.056 -0.5304 -0.6255  0.2033
  110OSM    H5F11327   5.417   2.171   6.123 -3.4137 -0.3085  1.3087
  110OSM    H5G11328   5.274   2.086   6.061 -0.6193  0.2591 -0.8289
  110OSM    C6F11329   5.403   2.136   5.910  0.1158 -0.4756 -0.2163
  110OSM    H6F11330   5.372   2.053   5.842  0.0052 -1.0987  0.5810
  110OSM    H6G11331   5.512   2.146   5.891 -0.1199 -0.0241 -1.4159
  110OSM    C7F11332   5.325   2.258   5.872  0.4920 -0.1546 -0.5315
  110OSM    H7F11333   5.332   2.326   5.960 -0.9322  1.6218 -1.7069
  110OSM    H7G11334   5.220   2.223   5.867  0.7036 -1.1281  1.2900
  110OSM    C8F11335   5.381   2.329   5.746  0.0379  0.1441 -0.8753
  110OSM    H8F11336   5.482   2.368   5.774  0.5006 -0.0233 -2.2612
  110OSM    H8G11337   5.313   2.415   5.731  0.4046  1.0251  1.8517
  110OSM    C9F11338   5.383   2.236   5.623  0.0456 -0.3672 -0.0856
  110OSM    H9F11339   5.284   2.223   5.577 -1.4166  0.1644  2.6867
  110OSM   C10F11340   5.495   2.186   5.564 -0.5587  0.1883 -0.0977
  110OSM   H10F11341   5.486   2.138   5.465 -2.8585  0.0113  0.1485
  110OSM   C11F11342   5.639   2.190   5.610 -0.1515 -0.0529 -0.1662
  110OSM   H11F11343   5.700   2.101   5.583  1.2990  0.6614  0.5700
  110OSM   H11G11344   5.665   2.204   5.718  1.5620 -2.9416 -0.1061
  110OSM   C12F11345   5.709   2.310   5.535 -0.0140 -0.6129  0.1570
  110OSM   H12F11346   5.809   2.324   5.582 -1.3437  0.5354  2.8711
  110OSM   H12G11347   5.664   2.409   5.557  1.6542 -0.1240  1.6084
  110OSM   C13F11348   5.739   2.288   5.381  0.3670 -0.1072 -0.2905
  110OSM   H13F11349   5.647   2.296   5.319  0.5032  0.2400 -0.4487
  110OSM   H13G11350   5.787   2.189   5.367  0.2002 -0.1727 -0.3996
  110OSM   C14F11351   5.843   2.387   5.338  0.5744  0.0372  0.1293
  110OSM   H14F11352   5.942   2.380   5.389  0.9958 -1.0500 -0.7792
  110OSM   H14G11353   5.806   2.491   5.348 -0.1020 -0.2981  1.2786
  110OSM   C15F11354   5.868   2.348   5.189  0.0842  0.1663  0.1894
  110OSM   H15F11355   5.769   2.357   5.139  0.1217  5.3150  0.4855
  110OSM   H15G11356   5.902   2.243   5.179 -3.0426 -0.9307 -0.1430
  110OSM   C16F11357   5.971   2.434   5.114  0.0382 -0.2049  0.7513
  110OSM   H16F11358   5.950   2.542   5.130  0.5041 -0.1059  0.7021
  110OSM   H16G11359   5.970   2.420   5.004 -1.5477  1.6526  0.4851
  110OSM   C17F11360   6.113   2.404   5.162  0.4738 -0.5608  0.1239
  110OSM   H17F11361   6.097   2.386   5.271 -1.2095 -2.0086 -0.3225
  110OSM   H17G11362   6.174   2.496   5.147 -1.4105  0.3643 -2.6467
  110OSM   C18F11363   6.202   2.291   5.107 -0.3787  0.1603  0.2339
  110OSM   H18F11364   6.167   2.189   5.134 -1.3244  0.7913  1.4829
  110OSM   H18G11365   6.312   2.301   5.115 -0.3838  2.2357 -1.4259
  110OSM   H18H11366   6.184   2.296   4.997 -1.9923  0.7923  0.4962
  111OSM      N11367   3.830   6.198   7.436  0.6359 -0.1011 -0.3777
  111OSM    C1511368   3.709   6.226   7.523 -0.2768 -0.0932  0.3835
  111OSM   H15A11369   3.669   6.323   7.496 -2.0078 -1.5430 -2.8654
  111OSM   H15B11370   3.739   6.225   7.626  0.6699  1.6055  0.1592
  111OSM   H15C11371   3.637   6.146   7.513  1.2943 -1.4172 -0.9556
  111OSM    C1411372   3.930   6.298   7.463 -0.3073 -0.8974 -0.7269
  111OSM   H14A11373   3.909   6.402   7.444 -0.9023 -0.9496 -0.3732
  111OSM   H14B11374   4.010   6.273   7.395  0.3228 -1.6660  0.2561
  111OSM   H14C11375   3.976   6.296   7.561  3.1501  1.5983 -2.1065
  111OSM    C1311376   3.878   6.066   7.466  0.0308  0.3235  0.4524
  111OSM   H13A11377   3.969   6.053   7.409 -0.7977 -0.9280 -0.6632
  111OSM   H13B11378   3.806   5.992   7.434  1.4241 -1.2516  0.8656
  111OSM   H13C11379   3.900   6.050   7.570 -1.2765 -2.4605  0.3920
  111OSM    C1211380   3.786   6.203   7.293 -1.1654 -0.1054  0.4226
  111OSM   H12A11381   3.711   6.278   7.276 -0.2869  0.9024  0.8972
  111OSM   H12B11382   3.747   6.106   7.265 -0.2173 -0.2305 -0.5536
  111OSM    C1111383   3.900   6.212   7.180  0.0449  0.3528 -0.6384
  111OSM   H11A11384   3.951   6.310   7.186  2.8963 -1.0783  0.5566
  111OSM   H11B11385   3.863   6.207   7.076 -0.3067 -1.3352 -0.4748
  111OSM      P11386   4.141   6.105   7.130 -0.2215  0.6853  0.0854
  111OSM    O1311387   4.237   6.194   7.197 -0.4971  0.0599  0.3003
  111OSM    O1411388   4.171   5.958   7.122  0.1203 -0.9025 -0.1402
  111OSM    O1111389   4.116   6.156   6.987 -0.0223  0.1595  0.0690
  111OSM    O1211390   3.998   6.109   7.204 -0.0579 -0.3337  0.6181
  111OSM    C1S11391   4.107   6.296   6.949  0.9120 -0.2275  0.5673
  111OSM    H1S11392   4.203   6.347   6.968  0.5067  1.3724 -1.3055
  111OSM    H1T11393   4.031   6.356   7.003  0.7219 -1.2040  1.4174
  111OSM     NF11394   4.071   6.454   6.754  0.2994  0.0891 -0.1420
  111OSM    HNF11395   3.979   6.491   6.747 -0.0581 -0.5564  0.9423
  111OSM    C2S11396   4.070   6.315   6.799 -0.0079 -0.5802 -0.2976
  111OSM    H2S11397   4.160   6.275   6.748  1.6475  0.0070  2.0573
  111OSM    C3S11398   3.939   6.236   6.757 -0.2236  0.3211  0.2175
  111OSM    H3S11399   3.853   6.295   6.796 -1.7708 -3.1929  2.5795
  111OSM     O311400   3.926   6.099   6.797  0.0882 -0.1029  0.0418
  111OSM    HO311401   3.997   6.088   6.861 -1.0667 -3.1673  0.9910
  111OSM    C4S11402   3.926   6.249   6.605 -0.0071 -0.4245  0.0980
  111OSM    H4S11403   3.881   6.344   6.573 -1.4530 -0.6365  1.3773
  111OSM    C5S11404   3.944   6.149   6.513 -0.2560 -0.3678  0.0076
  111OSM    H5S11405   3.976   6.050   6.548 -0.3247 -0.4800 -0.2442
  111OSM    C6S11406   3.929   6.165   6.363  0.4434 -0.2724 -0.4095
  111OSM    H6S11407   4.028   6.150   6.314  1.2711 -0.9257  1.3743
  111OSM    H6T11408   3.906   6.273   6.351 -0.5914  0.2370  4.2078
  111OSM    C7S11409   3.835   6.073   6.293  0.1927 -0.0732 -0.2137
  111OSM    H7S11410   3.741   6.060   6.351  0.4575 -1.6638 -0.0952
  111OSM    H7T11411   3.880   5.971   6.298  1.7307  0.5551 -0.7834
  111OSM    C8S11412   3.808   6.119   6.144  0.2776 -0.9202 -0.8312
  111OSM    H8S11413   3.906   6.145   6.101  0.6356 -1.3972 -0.3172
  111OSM    H8T11414   3.758   6.218   6.148  1.9478 -0.0308 -1.1753
  111OSM    C9S11415   3.725   6.021   6.063  0.1029  0.4421  0.0143
  111OSM    H9S11416   3.629   6.013   6.117  1.8244  0.2521  3.2752
  111OSM    H9T11417   3.776   5.924   6.080  0.7216  0.7823  0.1476
  111OSM   C10S11418   3.726   6.055   5.920 -0.1629  0.5509  0.2381
  111OSM   H10S11419   3.832   6.051   5.888  0.1077  2.4817  0.7830
  111OSM   H10T11420   3.688   6.157   5.896 -0.0039  0.5128 -0.1788
  111OSM   C11S11421   3.635   5.969   5.828  0.1283 -0.4377 -0.2868
  111OSM   H11S11422   3.530   5.980   5.863  0.0263 -0.7119 -0.5047
  111OSM   H11T11423   3.660   5.861   5.838 -1.5922 -1.1654 -2.8100
  111OSM   C12S11424   3.625   6.026   5.683 -0.6331  0.4260 -0.4711
  111OSM   H12S11425   3.576   6.126   5.690 -2.1467 -0.3864  2.1165
  111OSM   H12T11426   3.550   5.963   5.630  0.3231  1.5479 -3.3314
  111OSM   C13S11427   3.762   6.010   5.611 -0.7958  0.7102 -0.3171
  111OSM   H13S11428   3.793   5.904   5.612 -1.0468  0.6206 -1.2697
  111OSM   H13T11429   3.835   6.081   5.657  1.3006  0.6006 -3.1696
  111OSM   C14S11430   3.764   6.058   5.467  0.3848 -0.7729 -0.4236
  111OSM   H14S11431   3.727   6.163   5.458  1.1761 -0.3593  0.9009
  111OSM   H14T11432   3.692   5.993   5.413 -0.7071  2.2617 -2.9851
  111OSM   C15S11433   3.900   6.046   5.398 -0.1778 -0.8232  0.4357
  111OSM   H15S11434   3.947   5.946   5.411  3.0893  0.6161  0.8841
  111OSM   H15T11435   3.968   6.114   5.454  1.4992 -1.8341 -0.2737
  111OSM   C16S11436   3.893   6.089   5.249 -1.1672 -0.2505  0.3629
  111OSM   H16S11437   3.826   6.020   5.193 -1.7036  1.3880 -1.1127
  111OSM   H16T11438   3.994   6.054   5.219 -1.4413 -0.8091  0.0877
  111OSM   C17S11439   3.853   6.233   5.211  0.0260 -0.1850 -0.4325
  111OSM   H17S11440   3.927   6.300   5.260 -0.6904 -0.2783  0.8446
  111OSM   H17T11441   3.760   6.242   5.272 -0.1199 -1.7125 -0.3870
  111OSM   C18S11442   3.826   6.273   5.063  0.1304 -0.6203 -0.6046
  111OSM   H18S11443   3.817   6.383   5.055  0.2878 -0.6639 -1.5510
  111OSM   H18T11444   3.733   6.228   5.022 -0.3733  0.6419 -0.8989
  111OSM   H18U11445   3.910   6.240   4.998 -0.6945 -0.2592 -1.8956
  111OSM    C1F11446   4.174   6.535   6.771 -0.1234  0.4634  0.5938
  111OSM     OF11447   4.283   6.493   6.809  1.0637 -0.1329 -0.0911
  111OSM    C2F11448   4.146   6.679   6.742  0.6518  0.2568 -0.3951
  111OSM    H2F11449   4.157   6.741   6.835  1.8387 -1.7770  0.9054
  111OSM    H2G11450   4.042   6.688   6.704 -0.2553 -1.2847  1.5348
  111OSM    C3F11451   4.240   6.737   6.638 -0.4276 -0.5415 -0.3498
  111OSM    H3F11452   4.331   6.752   6.700  1.0734 -0.7583 -2.3914
  111OSM    H3G11453   4.206   6.838   6.608  1.2054  0.5685  1.2998
  111OSM    C4F11454   4.261   6.651   6.515  0.5673  0.3420 -0.6539
  111OSM    H4F11455   4.310   6.559   6.552  0.6288  0.2005 -1.0842
  111OSM    H4G11456   4.327   6.699   6.440 -1.4607  2.9677 -0.9308
  111OSM    C5F11457   4.129   6.609   6.446 -0.1838  0.1849  0.2171
  111OSM    H5F11458   4.084   6.703   6.409 -0.5928 -0.0639  0.0679
  111OSM    H5G11459   4.061   6.559   6.518 -3.1374 -0.9664 -3.0843
  111OSM    C6F11460   4.164   6.500   6.335 -0.7541  0.0542  0.4721
  111OSM    H6F11461   4.175   6.398   6.376 -2.3800 -1.4528 -2.5020
  111OSM    H6G11462   4.256   6.532   6.280 -0.6997 -0.7039  0.1174
  111OSM    C7F11463   4.050   6.481   6.226  0.3137 -0.2921 -0.1478
  111OSM    H7F11464   4.037   6.579   6.175  1.3072 -0.3662 -0.5487
  111OSM    H7G11465   3.953   6.455   6.275  0.7208 -1.3355  0.1248
  111OSM    C8F11466   4.080   6.393   6.112 -0.3958 -0.3873  0.4241
  111OSM    H8F11467   3.979   6.387   6.066 -1.1540  0.9060  1.8112
  111OSM    H8G11468   4.100   6.292   6.153 -2.9314 -0.3147  2.0802
  111OSM    C9F11469   4.189   6.441   6.016  0.1715 -0.7191 -0.3143
  111OSM    H9F11470   4.256   6.523   6.046  0.5605 -0.6660 -1.2936
  111OSM   C10F11471   4.203   6.385   5.894 -0.3828  0.2361  1.0907
  111OSM   H10F11472   4.276   6.429   5.825  1.7965 -3.3423  0.8582
  111OSM   C11F11473   4.127   6.269   5.830 -0.0625  0.6799 -1.2007
  111OSM   H11F11474   4.059   6.227   5.908  1.8489  0.7621  0.6099
  111OSM   H11G11475   4.197   6.190   5.796 -1.4874 -1.2654  0.1354
  111OSM   C12F11476   4.042   6.323   5.705  0.1766 -0.2403 -0.3251
  111OSM   H12F11477   3.997   6.232   5.660  2.6405 -1.6807 -0.1050
  111OSM   H12G11478   4.121   6.347   5.630  0.5817 -3.2337 -1.0118
  111OSM   C13F11479   3.946   6.437   5.735  0.5769 -0.1656  0.1704
  111OSM   H13F11480   3.989   6.514   5.802 -1.5290 -0.4838  1.9950
  111OSM   H13G11481   3.851   6.400   5.780  0.6560 -1.6136 -0.7821
  111OSM   C14F11482   3.895   6.498   5.598 -0.2457  0.4165 -0.3748
  111OSM   H14F11483   3.841   6.417   5.544 -1.4037  0.4541  0.6653
  111OSM   H14G11484   3.992   6.508   5.544  0.2678 -3.9746 -0.6659
  111OSM   C15F11485   3.817   6.632   5.602 -0.7219 -0.2016  0.0876
  111OSM   H15F11486   3.897   6.709   5.606 -0.4147 -0.5843  2.6167
  111OSM   H15G11487   3.757   6.645   5.695 -0.6495  3.8054 -0.2311
  111OSM   C16F11488   3.732   6.654   5.470  0.4382 -0.0677  0.4200
  111OSM   H16F11489   3.666   6.743   5.480 -1.3883 -1.0850 -1.7361
  111OSM   H16G11490   3.666   6.564   5.466  1.0859 -0.4848 -1.4146
  111OSM   C17F11491   3.815   6.663   5.345  0.5560 -0.2579 -0.4755
  111OSM   H17F11492   3.759   6.664   5.250  0.0943 -2.5691 -0.2964
  111OSM   H17G11493   3.886   6.577   5.344  0.2328 -0.5500  0.3250
  111OSM   C18F11494   3.882   6.799   5.330 -0.2352 -0.2107 -0.2827
  111OSM   H18F11495   3.808   6.879   5.307  0.8040  1.3782  1.6028
  111OSM   H18G11496   3.962   6.795   5.254  1.2936 -1.5147  1.3161
  111OSM   H18H11497   3.937   6.837   5.418 -0.7586  1.1236 -0.5025
  112OSM      N11498   2.586   2.123   7.405 -0.7417 -0.0845  0.2199
  112OSM    C1511499   2.614   2.248   7.486  0.0658  0.2005  0.0311
  112OSM   H15A11500   2.662   2.222   7.579 -0.5013 -2.7886 -0.4378
  112OSM   H15B11501   2.515   2.277   7.517 -1.8958 -3.8588 -1.7941
  112OSM   H15C11502   2.655   2.327   7.424 -3.9580 -0.0976 -3.3865
  112OSM    C1411503   2.713   2.044   7.389  0.2086 -0.3425  0.3016
  112OSM   H14A11504   2.691   1.966   7.318 -0.9422  1.3939 -1.3425
  112OSM   H14B11505   2.752   1.984   7.470 -0.5620 -0.8267  0.3261
  112OSM   H14C11506   2.793   2.096   7.337  0.3834 -1.4442 -0.5882
  112OSM    C1311507   2.501   2.041   7.493  0.2871  0.6771  0.5047
  112OSM   H13A11508   2.549   2.017   7.587 -0.4792  1.3923  1.1016
  112OSM   H13B11509   2.482   1.948   7.442 -0.9447  1.3844 -0.3628
  112OSM   H13C11510   2.400   2.079   7.495 -0.6452 -1.4669 -1.6481
  112OSM    C1211511   2.521   2.164   7.272 -0.1595 -0.3051  0.1957
  112OSM   H12A11512   2.443   2.236   7.291  0.2923 -0.1106  1.4068
  112OSM   H12B11513   2.481   2.079   7.221  2.6577 -0.9362 -1.1591
  112OSM    C1111514   2.618   2.232   7.170  0.0048  0.2490 -0.0273
  112OSM   H11A11515   2.556   2.255   7.081 -0.0138 -0.2588 -0.1488
  112OSM   H11B11516   2.692   2.162   7.127 -0.3861  0.1699 -0.5850
  112OSM      P11517   2.827   2.380   7.215  0.1550  0.1268  0.2352
  112OSM    O1311518   2.844   2.522   7.258 -0.4056  0.1948 -0.0912
  112OSM    O1411519   2.906   2.283   7.293 -0.0482  0.1317 -0.1956
  112OSM    O1111520   2.873   2.368   7.064  0.2408 -0.1199  0.4803
  112OSM    O1211521   2.676   2.348   7.224  0.2602  0.0195  0.4328
  112OSM    C1S11522   2.998   2.419   7.022 -0.5969 -0.2168  0.3194
  112OSM    H1S11523   3.083   2.369   7.073 -0.0358  0.5290  0.1353
  112OSM    H1T11524   3.007   2.528   7.041  3.0896 -0.0698 -1.4640
  112OSM     NF11525   3.131   2.440   6.808 -0.3484 -0.9509  0.1232
  112OSM    HNF11526   3.135   2.531   6.768 -1.1556 -0.7567  0.4713
  112OSM    C2S11527   3.008   2.398   6.867  0.0114 -0.3599 -0.0371
  112OSM    H2S11528   3.004   2.287   6.857 -1.8918 -0.3142  0.0006
  112OSM    C3S11529   2.889   2.463   6.793  0.7610 -0.2638 -0.0363
  112OSM    H3S11530   2.897   2.573   6.799  0.6908 -0.1098 -2.0551
  112OSM     O311531   2.756   2.418   6.838  0.0919  0.1233  0.9500
  112OSM    HO311532   2.779   2.349   6.900  0.7069 -1.0538 -0.5288
  112OSM    C4S11533   2.890   2.424   6.641  0.9371  0.2085 -0.2736
  112OSM    H4S11534   2.881   2.317   6.620  2.1600  0.2744 -1.2731
  112OSM    C5S11535   2.910   2.508   6.539  0.0078 -0.4016  0.6199
  112OSM    H5S11536   2.927   2.616   6.554 -1.5555 -0.0821  0.3393
  112OSM    C6S11537   2.896   2.471   6.393 -0.3954  0.0183  0.1672
  112OSM    H6S11538   2.815   2.533   6.349  1.8265  0.9302 -3.0851
  112OSM    H6T11539   2.868   2.364   6.381 -3.0367  0.7152 -0.4183
  112OSM    C7S11540   3.027   2.507   6.329  0.1368 -0.2583  0.3402
  112OSM    H7S11541   3.109   2.450   6.378  0.4265  0.9950  1.3847
  112OSM    H7T11542   3.049   2.610   6.366  1.0020 -0.6398  0.9474
  112OSM    C8S11543   3.012   2.507   6.178 -0.2427  0.2274  0.0753
  112OSM    H8S11544   2.920   2.563   6.155  0.6379  1.4383 -0.6294
  112OSM    H8T11545   3.007   2.405   6.135  2.9787 -0.9211  2.0402
  112OSM    C9S11546   3.124   2.585   6.107 -0.4444  0.2977  0.6301
  112OSM    H9S11547   3.224   2.548   6.140  0.0352  2.1935  1.4489
  112OSM    H9T11548   3.124   2.691   6.141 -3.0235  1.1163 -1.5455
  112OSM   C10S11549   3.106   2.581   5.953 -0.5664  0.2114  0.0574
  112OSM   H10S11550   3.017   2.637   5.916  1.1949  2.9942 -0.2763
  112OSM   H10T11551   3.075   2.479   5.922 -0.9651  0.1200  0.7341
  112OSM   C11S11552   3.220   2.630   5.869  0.9498 -0.4727 -0.0481
  112OSM   H11S11553   3.309   2.573   5.905 -0.0121 -1.2969  1.1210
  112OSM   H11T11554   3.243   2.738   5.888 -2.0360 -0.0258  1.6548
  112OSM   C12S11555   3.224   2.617   5.708 -0.1669  0.1696 -0.7994
  112OSM   H12S11556   3.164   2.524   5.694 -0.4145 -0.0862  1.5828
  112OSM   H12T11557   3.330   2.618   5.673 -0.1953  0.8709 -0.8865
  112OSM   C13S11558   3.157   2.738   5.637 -0.2403  0.2490 -0.3121
  112OSM   H13S11559   3.243   2.807   5.624  1.6443 -1.8754  0.3566
  112OSM   H13T11560   3.087   2.791   5.706 -0.8932  0.8151 -1.3676
  112OSM   C14S11561   3.092   2.699   5.507  0.2125 -0.3525 -0.3248
  112OSM   H14S11562   2.999   2.644   5.530  0.3017  0.3343  1.9608
  112OSM   H14T11563   3.159   2.651   5.432  0.4354  0.0202 -0.3704
  112OSM   C15S11564   3.045   2.831   5.440  0.1142  0.5013 -0.7517
  112OSM   H15S11565   3.116   2.916   5.455 -0.1315  0.4910  0.6700
  112OSM   H15T11566   2.949   2.864   5.484  0.0279 -0.6298 -0.0544
  112OSM   C16S11567   3.006   2.806   5.294 -0.1726  0.4239  0.5348
  112OSM   H16S11568   2.918   2.739   5.289 -1.0401  1.5883 -0.7409
  112OSM   H16T11569   3.081   2.753   5.231 -0.8380  1.0532 -0.8199
  112OSM   C17S11570   2.982   2.938   5.224  0.1083  0.2306  0.5448
  112OSM   H17S11571   3.057   3.018   5.243 -1.5064  1.9616  0.0064
  112OSM   H17T11572   2.884   2.977   5.259  0.0717 -0.4751  1.2547
  112OSM   C18S11573   2.972   2.920   5.076 -0.0091  0.2266  0.6599
  112OSM   H18S11574   2.930   3.003   5.015  0.4145 -1.3489 -1.9328
  112OSM   H18T11575   2.907   2.831   5.064  1.0656 -0.5485  0.4997
  112OSM   H18U11576   3.067   2.896   5.024  0.1056  0.4032  0.7849
  112OSM    C1F11577   3.247   2.384   6.832  0.1602  0.3504 -0.5415
  112OSM     OF11578   3.274   2.322   6.931  0.3329  0.7725  0.1299
  112OSM    C2F11579   3.359   2.436   6.749 -0.2807  1.1026  0.0886
  112OSM    H2F11580   3.454   2.423   6.805 -0.7975 -1.1071  0.5241
  112OSM    H2G11581   3.351   2.546   6.737 -1.0070  1.1813  1.1210
  112OSM    C3F11582   3.362   2.378   6.604  0.0520  0.5506  0.3321
  112OSM    H3F11583   3.258   2.396   6.567 -0.3071  0.3500  1.2198
  112OSM    H3G11584   3.376   2.268   6.608 -0.2498  0.5140  0.4542
  112OSM    C4F11585   3.456   2.462   6.519  0.0188  0.7376  0.5167
  112OSM    H4F11586   3.557   2.475   6.564 -0.0337  0.8581  0.6020
  112OSM    H4G11587   3.400   2.558   6.516 -0.8167  0.2964  1.2777
  112OSM    C5F11588   3.452   2.418   6.370 -0.9432 -0.3659  0.6422
  112OSM    H5F11589   3.501   2.500   6.312 -0.3920 -1.3955 -0.4001
  112OSM    H5G11590   3.350   2.401   6.328 -0.4784  0.6718 -1.0185
  112OSM    C6F11591   3.551   2.295   6.332  0.5356 -0.6813 -0.2264
  112OSM    H6F11592   3.529   2.256   6.231  0.8618 -2.3028  0.3001
  112OSM    H6G11593   3.550   2.227   6.419  0.7530  0.4753  0.7116
  112OSM    C7F11594   3.701   2.334   6.317 -0.6185  0.1247  0.0798
  112OSM    H7F11595   3.729   2.367   6.420  0.8567 -0.3971 -0.1379
  112OSM    H7G11596   3.708   2.425   6.254 -1.4763 -0.6244 -1.1284
  112OSM    C8F11597   3.789   2.226   6.250  0.5761  0.6359  0.2852
  112OSM    H8F11598   3.747   2.209   6.149  0.4431 -1.3702  0.6422
  112OSM    H8G11599   3.784   2.137   6.317 -1.0089  0.4137 -0.0990
  112OSM    C9F11600   3.932   2.266   6.227  0.1085 -1.3000 -0.2325
  112OSM    H9F11601   4.005   2.214   6.291 -0.5632 -2.7382 -0.6034
  112OSM   C10F11602   3.977   2.330   6.116  0.2260  0.4438  0.3299
  112OSM   H10F11603   4.085   2.347   6.104 -0.0265  1.2497 -0.9278
  112OSM   C11F11604   3.900   2.383   5.992  0.6563 -0.6010  0.0441
  112OSM   H11F11605   3.946   2.474   5.949 -3.1410  2.0776  1.1506
  112OSM   H11G11606   3.797   2.410   6.022  0.0163 -3.0140  0.2162
  112OSM   C12F11607   3.883   2.278   5.875 -0.4526 -0.2305  0.1653
  112OSM   H12F11608   3.837   2.179   5.897  0.7407 -1.5613 -2.8377
  112OSM   H12G11609   3.985   2.248   5.844 -0.0627  0.3276  0.8692
  112OSM   C13F11610   3.812   2.329   5.746  0.5839  0.3779 -0.5873
  112OSM   H13F11611   3.867   2.417   5.706  1.2839  1.1342  1.9026
  112OSM   H13G11612   3.712   2.363   5.782  2.0311  4.0210  0.4218
  112OSM   C14F11613   3.798   2.214   5.643  0.3691 -0.0615  0.7926
  112OSM   H14F11614   3.724   2.135   5.670 -0.7145  0.6071 -0.1321
  112OSM   H14G11615   3.898   2.167   5.628 -0.3705 -1.7268  0.8520
  112OSM   C15F11616   3.744   2.255   5.500  0.7962  0.3517 -0.2299
  112OSM   H15F11617   3.816   2.313   5.438 -2.1854  3.4380 -1.1588
  112OSM   H15G11618   3.656   2.324   5.507  0.2388 -0.2822 -0.8808
  112OSM   C16F11619   3.704   2.126   5.419  0.2387 -0.4587  0.3291
  112OSM   H16F11620   3.680   2.158   5.315  0.1157  2.4320  1.1500
  112OSM   H16G11621   3.611   2.079   5.456 -1.7870  1.7414 -1.6302
  112OSM   C17F11622   3.804   2.005   5.410  0.7129 -0.0410  0.2947
  112OSM   H17F11623   3.834   1.955   5.505  1.3189 -1.1639 -0.4615
  112OSM   H17G11624   3.902   2.025   5.361  1.9039 -0.6149  2.2965
  112OSM   C18F11625   3.735   1.909   5.315 -0.4959 -0.2208  0.6296
  112OSM   H18F11626   3.660   1.958   5.250 -0.8883 -1.2562  0.2867
  112OSM   H18G11627   3.681   1.821   5.355  0.1212 -1.5513 -1.3134
  112OSM   H18H11628   3.808   1.854   5.251 -1.0812 -0.5776  0.2617
  113OSM      N11629   4.118   3.668   7.279  0.1723  0.3348  0.6387
  113OSM    C1511630   4.116   3.668   7.426 -0.5370 -0.5286 -0.3079
  113OSM   H15A11631   4.151   3.578   7.475  1.0552 -0.0043 -0.4226
  113OSM   H15B11632   4.011   3.686   7.447  0.1556  2.8350  0.8760
  113OSM   H15C11633   4.175   3.751   7.461 -2.3443  0.4556  0.5473
  113OSM    C1411634   4.046   3.801   7.232  0.2281 -0.0443  0.0142
  113OSM   H14A11635   4.030   3.815   7.126  0.1413  0.7562  0.1272
  113OSM   H14B11636   4.105   3.889   7.255 -1.2151  0.8591  0.3970
  113OSM   H14C11637   3.955   3.815   7.289 -0.4787 -0.6672 -0.9260
  113OSM    C1311638   4.256   3.685   7.227 -0.5181  0.6050 -0.1460
  113OSM   H13A11639   4.297   3.585   7.241 -1.5236  0.2808  0.6062
  113OSM   H13B11640   4.314   3.757   7.283 -1.0538 -0.8305  2.4145
  113OSM   H13C11641   4.254   3.713   7.123  1.2582 -0.0369 -0.3916
  113OSM    C1211642   4.042   3.554   7.217  0.1394 -0.1399 -0.0920
  113OSM   H12A11643   4.065   3.572   7.113 -0.6483  1.0702 -0.0779
  113OSM   H12B11644   3.941   3.580   7.247  1.4434  1.4707  3.5175
  113OSM    C1111645   4.072   3.407   7.254  0.3122 -0.0031  0.0739
  113OSM   H11A11646   3.996   3.339   7.210 -1.4804  0.2718  2.5141
  113OSM   H11B11647   4.060   3.377   7.360  1.4185 -2.4506 -0.4081
  113OSM      P11648   4.250   3.257   7.121  0.1302 -0.1682 -0.0279
  113OSM    O1311649   4.393   3.237   7.143 -0.5514 -0.5188  0.2749
  113OSM    O1411650   4.157   3.143   7.139  0.0471  0.0558  0.5093
  113OSM    O1111651   4.225   3.316   6.972 -0.0682 -0.4153 -0.2120
  113OSM    O1211652   4.207   3.380   7.213 -0.4676 -0.6854  0.6677
  113OSM    C1S11653   4.314   3.284   6.863  0.0932 -0.0834  0.2582
  113OSM    H1S11654   4.282   3.189   6.814  0.0185  0.1902 -0.2351
  113OSM    H1T11655   4.420   3.267   6.892 -0.2576  0.7395  2.1205
  113OSM     NF11656   4.375   3.342   6.626 -0.5942 -0.3165 -0.2780
  113OSM    HNF11657   4.468   3.375   6.610 -0.5382  1.6057  3.0428
  113OSM    C2S11658   4.313   3.393   6.750 -0.3159  0.1875 -0.0077
  113OSM    H2S11659   4.207   3.419   6.729  0.1403  1.1277 -1.2929
  113OSM    C3S11660   4.376   3.527   6.799 -1.1253  0.3940 -0.5547
  113OSM    H3S11661   4.479   3.493   6.827 -1.2666 -0.7074 -1.2934
  113OSM     O311662   4.312   3.575   6.925 -0.5754  0.4028 -0.3108
  113OSM    HO311663   4.272   3.497   6.966  1.1901 -0.2530  0.2429
  113OSM    C4S11664   4.390   3.628   6.693  0.2218 -0.3162 -0.1403
  113OSM    H4S11665   4.491   3.627   6.651 -0.2627  0.9658 -1.4147
  113OSM    C5S11666   4.296   3.715   6.647  0.0375 -0.4785  0.2766
  113OSM    H5S11667   4.195   3.702   6.689  0.0501  0.0691  0.4847
  113OSM    C6S11668   4.318   3.829   6.547  0.1176 -0.4132 -0.0863
  113OSM    H6S11669   4.313   3.920   6.610 -0.3812 -2.7787  3.6280
  113OSM    H6T11670   4.230   3.819   6.480 -0.5384 -2.1739  0.9594
  113OSM    C7S11671   4.443   3.815   6.456  0.4596 -0.0459 -0.0314
  113OSM    H7S11672   4.430   3.727   6.389  1.7471  1.0547 -1.8356
  113OSM    H7T11673   4.529   3.808   6.525  1.0016 -1.7622 -0.8418
  113OSM    C8S11674   4.477   3.931   6.358 -0.7926 -0.0024  0.7235
  113OSM    H8S11675   4.521   4.021   6.405 -1.1511 -0.3019  1.6583
  113OSM    H8T11676   4.375   3.953   6.318  0.3984  3.1055 -0.8652
  113OSM    C9S11677   4.561   3.879   6.238 -0.0265  1.6638 -0.2816
  113OSM    H9S11678   4.505   3.796   6.191  1.0420  1.1405 -0.6441
  113OSM    H9T11679   4.654   3.830   6.273 -0.7867  0.8183  0.6283
  113OSM   C10S11680   4.603   3.982   6.131  0.0440 -0.5047 -1.3318
  113OSM   H10S11681   4.686   3.950   6.066  2.3064  0.2719  1.0167
  113OSM   H10T11682   4.643   4.074   6.177 -2.6118  0.7853 -1.3731
  113OSM   C11S11683   4.482   4.016   6.037  0.1238 -0.2960 -0.1979
  113OSM   H11S11684   4.395   4.034   6.103  2.6438  1.8702  2.8298
  113OSM   H11T11685   4.468   3.933   5.964  1.1804  1.5056 -2.6110
  113OSM   C12S11686   4.505   4.141   5.955 -0.0898 -0.1804 -0.2310
  113OSM   H12S11687   4.590   4.113   5.889  1.2961 -0.2172  1.4898
  113OSM   H12T11688   4.543   4.215   6.029 -0.2648 -2.1448  1.9374
  113OSM   C13S11689   4.388   4.191   5.865  0.4149  1.0826  0.0782
  113OSM   H13S11690   4.328   4.266   5.921 -1.0817  0.0660 -0.1136
  113OSM   H13T11691   4.313   4.113   5.845 -1.2009  2.2991  1.1260
  113OSM   C14S11692   4.441   4.258   5.735  0.6151 -0.0209 -0.9775
  113OSM   H14S11693   4.514   4.191   5.684  1.7043 -0.8082  1.4481
  113OSM   H14T11694   4.490   4.355   5.758 -1.1564  0.0963  3.2590
  113OSM   C15S11695   4.331   4.297   5.636 -0.0304 -0.7822 -0.6204
  113OSM   H15S11696   4.266   4.376   5.678  2.4406  0.6957  0.7010
  113OSM   H15T11697   4.272   4.206   5.612  0.9528 -1.7171  0.3874
  113OSM   C16S11698   4.386   4.368   5.506  0.5861 -0.2611 -0.0043
  113OSM   H16S11699   4.493   4.338   5.512  0.7425  0.4964  1.3234
  113OSM   H16T11700   4.379   4.478   5.518  3.2018 -0.2087  1.7855
  113OSM   C17S11701   4.311   4.316   5.378  0.0737  0.2014  0.5651
  113OSM   H17S11702   4.299   4.205   5.381 -1.6308  0.2741 -1.2740
  113OSM   H17T11703   4.382   4.344   5.298  0.6002  0.0788  0.9856
  113OSM   C18S11704   4.177   4.396   5.366 -1.0225  0.1134 -0.7621
  113OSM   H18S11705   4.125   4.364   5.273 -1.6748  1.5628 -0.9083
  113OSM   H18T11706   4.206   4.503   5.361  1.0017 -0.4156 -1.2939
  113OSM   H18U11707   4.106   4.378   5.450 -1.6020 -0.2564 -1.3187
  113OSM    C1F11708   4.330   3.240   6.562  0.8203 -0.7581 -0.1714
  113OSM     OF11709   4.218   3.193   6.578 -0.1610 -0.3949 -0.0895
  113OSM    C2F11710   4.423   3.185   6.465 -0.5290 -0.6996 -0.3683
  113OSM    H2F11711   4.518   3.159   6.516 -1.1365 -0.8805  0.7037
  113OSM    H2G11712   4.439   3.262   6.386 -1.3153 -0.7244 -0.5662
  113OSM    C3F11713   4.376   3.053   6.411 -0.1373  0.1694 -0.1638
  113OSM    H3F11714   4.295   3.079   6.339 -1.0452 -0.8698  0.4363
  113OSM    H3G11715   4.322   2.988   6.483 -1.1604  1.0209 -0.1359
  113OSM    C4F11716   4.472   2.969   6.326  0.0032  0.4203  0.0420
  113OSM    H4F11717   4.414   2.905   6.257  1.5235  0.9119 -1.7732
  113OSM    H4G11718   4.536   2.918   6.402 -1.2928  1.6290  2.0485
  113OSM    C5F11719   4.568   3.044   6.237 -0.0830  0.8352 -0.0462
  113OSM    H5F11720   4.652   2.981   6.200 -0.3881  0.3430  0.0981
  113OSM    H5G11721   4.616   3.122   6.301  0.2255  0.5839  0.0325
  113OSM    C6F11722   4.510   3.102   6.113  0.0120 -1.1850  0.0171
  113OSM    H6F11723   4.570   3.186   6.071 -0.2152 -1.0561 -0.0511
  113OSM    H6G11724   4.411   3.147   6.139  0.4132 -0.1861 -0.1183
  113OSM    C7F11725   4.470   3.010   5.995  0.4567  0.4468 -0.5956
  113OSM    H7F11726   4.392   2.939   6.029 -0.1742  0.8023 -1.2714
  113OSM    H7G11727   4.560   2.954   5.962  0.7310 -0.4310  1.5123
  113OSM    C8F11728   4.407   3.095   5.884  0.5496  0.3905  0.6184
  113OSM    H8F11729   4.313   3.140   5.924  0.0307  0.7365 -0.9352
  113OSM    H8G11730   4.370   3.028   5.804  0.0988 -0.7608  1.7580
  113OSM    C9F11731   4.495   3.208   5.828  0.5701 -0.2892 -0.0993
  113OSM    H9F11732   4.465   3.311   5.855 -1.5727 -0.3437 -2.0045
  113OSM   C10F11733   4.589   3.191   5.739 -0.0257 -0.2161 -0.0668
  113OSM   H10F11734   4.644   3.281   5.707  0.9978 -1.1315 -0.9409
  113OSM   C11F11735   4.627   3.068   5.675 -0.1630  0.0883 -0.0298
  113OSM   H11F11736   4.555   2.986   5.699 -1.1624  0.6182 -1.1445
  113OSM   H11G11737   4.723   3.043   5.725  0.5313 -0.0379 -1.4053
  113OSM   C12F11738   4.643   3.066   5.521 -0.0696 -0.3899 -0.3783
  113OSM   H12F11739   4.703   2.974   5.501  0.0335  0.0601 -2.2679
  113OSM   H12G11740   4.697   3.159   5.494  1.8897 -1.7503 -1.4666
  113OSM   C13F11741   4.515   3.057   5.436 -0.4417 -0.0130 -0.0028
  113OSM   H13F11742   4.538   3.065   5.327  0.5494  0.4222  0.2189
  113OSM   H13G11743   4.449   3.146   5.450 -1.6856 -0.5248 -2.1335
  113OSM   C14F11744   4.450   2.918   5.453  0.6567  0.1230 -0.3596
  113OSM   H14F11745   4.351   2.921   5.402  0.5658  0.2376 -0.1787
  113OSM   H14G11746   4.432   2.902   5.562 -0.3287  2.7659 -0.0526
  113OSM   C15F11747   4.522   2.791   5.390  0.4823 -0.7776 -0.1571
  113OSM   H15F11748   4.457   2.703   5.409  1.0636 -1.0494  0.6156
  113OSM   H15G11749   4.617   2.785   5.448  0.5056 -0.0696 -0.1174
  113OSM   C16F11750   4.570   2.793   5.235 -0.5677 -0.3996 -0.1516
  113OSM   H16F11751   4.623   2.700   5.205 -1.2328 -0.1406 -2.2315
  113OSM   H16G11752   4.635   2.882   5.224 -0.2958 -0.6347 -0.4396
  113OSM   C17F11753   4.466   2.830   5.127  0.6860 -0.1086  0.2310
  113OSM   H17F11754   4.512   2.859   5.030  0.8989  0.4833  0.4995
  113OSM   H17G11755   4.419   2.920   5.172  4.3399  1.4856  1.2604
  113OSM   C18F11756   4.368   2.728   5.090  0.2362  0.3574 -0.3598
  113OSM   H18F11757   4.315   2.697   5.182  1.4641 -0.1846  0.1831
  113OSM   H18G11758   4.424   2.642   5.046  0.6556  0.7494 -0.6043
  113OSM   H18H11759   4.293   2.761   5.014  0.4944 -0.9207 -1.1927
  114OSM      N11760   6.626   1.786   7.301 -0.5509 -0.7590  0.1506
  114OSM    C1511761   6.595   1.717   7.427 -0.1961 -0.0528 -0.2452
  114OSM   H15A11762   6.557   1.618   7.409 -0.9560  0.2843 -0.5259
  114OSM   H15B11763   6.506   1.766   7.463  0.9900  0.4841  2.1821
  114OSM   H15C11764   6.670   1.726   7.504  1.3577  2.8056 -1.9170
  114OSM    C1411765   6.736   1.713   7.228 -0.1953 -0.2497 -0.1036
  114OSM   H14A11766   6.697   1.615   7.204 -0.2375 -0.0573 -0.8357
  114OSM   H14B11767   6.829   1.693   7.279 -0.2396 -0.8134 -0.2300
  114OSM   H14C11768   6.751   1.757   7.131 -1.5475 -0.7285 -0.5559
  114OSM    C1311769   6.496   1.784   7.226  0.4743  0.0993 -0.5043
  114OSM   H13A11770   6.413   1.818   7.286  0.7727 -3.0968  1.9760
  114OSM   H13B11771   6.451   1.688   7.208 -0.3003  0.5475 -1.0073
  114OSM   H13C11772   6.511   1.836   7.132 -1.6397 -0.7854 -1.3846
  114OSM    C1211773   6.666   1.930   7.336 -0.2301  0.3529  0.3441
  114OSM   H12A11774   6.751   1.910   7.400 -1.6724  0.1334  2.3014
  114OSM   H12B11775   6.578   1.977   7.378 -1.4571 -0.7016 -0.9082
  114OSM    C1111776   6.705   2.020   7.216  0.1172 -1.0872  0.4678
  114OSM   H11A11777   6.787   1.966   7.162 -0.7061 -0.9574 -0.9659
  114OSM   H11B11778   6.764   2.107   7.250 -2.0761  0.3830  0.6556
  114OSM      P11779   6.492   2.177   7.168  0.0754 -0.0970  0.3617
  114OSM    O1311780   6.356   2.121   7.164  0.1274 -0.2428  0.7531
  114OSM    O1411781   6.532   2.258   7.283 -0.1860  0.5711  0.1054
  114OSM    O1111782   6.505   2.274   7.043 -0.0099 -0.0278  0.1607
  114OSM    O1211783   6.591   2.055   7.133 -0.0306  0.1102  0.0723
  114OSM    C1S11784   6.620   2.287   6.964  0.2216 -0.0801 -0.0229
  114OSM    H1S11785   6.696   2.206   6.972  0.4093  0.0534 -0.4334
  114OSM    H1T11786   6.675   2.376   7.000  0.5053  0.8491 -2.5600
  114OSM     NF11787   6.702   2.322   6.735  0.0664  0.2735 -0.7054
  114OSM    HNF11788   6.705   2.416   6.700  0.7537 -0.0532 -1.5673
  114OSM    C2S11789   6.587   2.294   6.816 -1.1508 -0.2251 -0.3560
  114OSM    H2S11790   6.553   2.192   6.789  0.4127 -0.8270 -0.1662
  114OSM    C3S11791   6.464   2.385   6.784  0.2359 -0.5087 -0.1053
  114OSM    H3S11792   6.491   2.486   6.820  0.0563 -1.1372  1.9211
  114OSM     O311793   6.346   2.351   6.860  0.2455  0.2162  0.0922
  114OSM    HO311794   6.394   2.318   6.936  0.2613 -0.0661 -0.0390
  114OSM    C4S11795   6.430   2.407   6.635 -0.0224  0.1261 -0.2950
  114OSM    H4S11796   6.488   2.487   6.586  1.5104 -0.5027  0.4286
  114OSM    C5S11797   6.321   2.359   6.573  0.1090 -0.7944  0.6897
  114OSM    H5S11798   6.250   2.296   6.628 -0.2936  1.2892  2.6720
  114OSM    C6S11799   6.303   2.393   6.434  0.2453 -0.6276 -0.0605
  114OSM    H6S11800   6.367   2.479   6.403  2.1659 -1.2880  1.8467
  114OSM    H6T11801   6.198   2.423   6.413  0.2481 -0.4428  0.1904
  114OSM    C7S11802   6.330   2.281   6.328 -0.1158  0.5230 -0.6853
  114OSM    H7S11803   6.291   2.188   6.375  2.3537  0.2256  0.9702
  114OSM    H7T11804   6.440   2.274   6.323 -0.1407 -1.1035  0.3989
  114OSM    C8S11805   6.265   2.302   6.188 -0.0967  0.0940  0.1072
  114OSM    H8S11806   6.280   2.408   6.157 -0.7177 -0.2779 -1.5736
  114OSM    H8T11807   6.156   2.283   6.199  0.0817 -0.7085  0.5831
  114OSM    C9S11808   6.319   2.221   6.069 -0.0547  0.7081 -1.0471
  114OSM    H9S11809   6.326   2.113   6.097  2.1835  0.4586 -2.3016
  114OSM    H9T11810   6.428   2.242   6.069  0.0100  0.5922  1.1385
  114OSM   C10S11811   6.246   2.251   5.936 -0.5132 -0.8555 -0.6025
  114OSM   H10S11812   6.237   2.361   5.924  0.9649 -0.8521 -1.9839
  114OSM   H10T11813   6.145   2.204   5.936  0.1142 -2.5585  2.8942
  114OSM   C11S11814   6.313   2.187   5.815  0.6388  0.3279  0.1896
  114OSM   H11S11815   6.372   2.096   5.834  2.2489  1.5309  1.2055
  114OSM   H11T11816   6.383   2.265   5.778 -0.4064  1.0893 -0.2359
  114OSM   C12S11817   6.224   2.177   5.683 -0.4229  0.4169  0.8698
  114OSM   H12S11818   6.209   2.279   5.640 -2.0193  0.2876  1.0459
  114OSM   H12T11819   6.124   2.140   5.717 -0.6074 -0.8775 -0.9259
  114OSM   C13S11820   6.275   2.093   5.569  0.4068 -0.7129 -0.6824
  114OSM   H13S11821   6.307   2.001   5.623  0.7365 -0.2481 -0.0689
  114OSM   H13T11822   6.369   2.132   5.525  0.6331 -0.6809 -0.1817
  114OSM   C14S11823   6.166   2.062   5.463 -0.4926  0.1726  0.1303
  114OSM   H14S11824   6.139   2.160   5.417 -1.8176 -1.4967 -2.9294
  114OSM   H14T11825   6.077   2.024   5.519 -0.4130 -0.4266 -0.1454
  114OSM   C15S11826   6.210   1.956   5.363 -0.4183  0.1830 -0.6092
  114OSM   H15S11827   6.128   1.936   5.291  0.6224 -1.2961 -1.4468
  114OSM   H15T11828   6.218   1.854   5.405 -3.4020 -0.1242 -0.6247
  114OSM   C16S11829   6.345   1.994   5.288  0.2056  0.1856 -0.0632
  114OSM   H16S11830   6.432   1.995   5.357  1.4175  0.4911 -1.5499
  114OSM   H16T11831   6.339   2.103   5.270  1.4636  0.5228  1.3840
  114OSM   C17S11832   6.381   1.909   5.165 -0.0859  0.5580 -0.6449
  114OSM   H17S11833   6.397   1.804   5.195  0.4575  0.2014 -2.0749
  114OSM   H17T11834   6.479   1.943   5.125  0.7937 -0.3949  0.6333
  114OSM   C18S11835   6.272   1.920   5.064  0.3694  0.7681 -0.0264
  114OSM   H18S11836   6.174   1.921   5.116  1.0989  1.2449  1.3911
  114OSM   H18T11837   6.280   1.825   5.007 -0.6383  1.1061 -0.7627
  114OSM   H18U11838   6.271   2.004   4.991 -2.5017 -1.4469 -2.8360
  114OSM    C1F11839   6.815   2.248   6.738 -0.7441  0.4515  0.2164
  114OSM     OF11840   6.823   2.136   6.785 -0.2895 -1.0814 -0.5427
  114OSM    C2F11841   6.936   2.321   6.690  0.5857  0.0745 -0.3394
  114OSM    H2F11842   6.993   2.371   6.771  0.5678 -2.6294  1.4565
  114OSM    H2G11843   6.898   2.388   6.609 -1.6236 -0.5585  0.1043
  114OSM    C3F11844   7.035   2.236   6.614  0.0605 -0.2074 -0.4027
  114OSM    H3F11845   6.973   2.186   6.536  1.1103  0.5847 -1.7742
  114OSM    H3G11846   7.078   2.163   6.686  1.8484  0.4832 -0.7103
  114OSM    C4F11847   7.143   2.314   6.540  0.1196 -0.4511 -0.5370
  114OSM    H4F11848   7.202   2.375   6.612  0.4749 -0.6698 -0.6358
  114OSM    H4G11849   7.091   2.391   6.480 -1.8639 -0.6010  0.8973
  114OSM    C5F11850   7.231   2.224   6.450 -0.1244  0.1197 -0.0367
  114OSM    H5F11851   7.276   2.137   6.503  1.4153  0.7704 -0.2223
  114OSM    H5G11852   7.318   2.288   6.425 -0.1902  1.0258  1.9037
  114OSM    C6F11853   7.167   2.162   6.323 -0.2754 -0.0741 -0.1026
  114OSM    H6F11854   7.093   2.081   6.344  0.9500 -1.6329 -1.5390
  114OSM    H6G11855   7.248   2.118   6.261 -0.9441  0.0801 -1.1056
  114OSM    C7F11856   7.088   2.257   6.231  0.3959 -0.8608  0.1561
  114OSM    H7F11857   7.127   2.358   6.256 -0.0758 -0.8069  0.7126
  114OSM    H7G11858   6.981   2.259   6.261  0.6216 -1.9732  1.0936
  114OSM    C8F11859   7.095   2.218   6.081 -0.1932  0.3007  0.2462
  114OSM    H8F11860   7.016   2.283   6.036  1.9539  1.6790 -1.7108
  114OSM    H8G11861   7.065   2.113   6.063 -0.6363  0.6819 -1.3627
  114OSM    C9F11862   7.232   2.245   6.008  0.4184  0.5100  0.6526
  114OSM    H9F11863   7.314   2.259   6.080  0.3867 -1.4313  1.1241
  114OSM   C10F11864   7.248   2.246   5.875 -1.0858  0.3015  0.5858
  114OSM   H10F11865   7.346   2.260   5.827 -2.6920  2.0318 -2.4713
  114OSM   C11F11866   7.140   2.214   5.781  0.2456  0.1655 -0.0805
  114OSM   H11F11867   7.066   2.298   5.779 -0.8648 -0.7593  0.9367
  114OSM   H11G11868   7.090   2.119   5.808  2.5027 -1.2529 -0.6844
  114OSM   C12F11869   7.177   2.191   5.636  0.2243  0.1900  0.3460
  114OSM   H12F11870   7.083   2.162   5.585 -0.3951  0.5377  1.2654
  114OSM   H12G11871   7.244   2.104   5.622 -1.1425 -0.7165 -0.8294
  114OSM   C13F11872   7.240   2.304   5.558  0.5385  0.4530  0.1363
  114OSM   H13F11873   7.342   2.329   5.594  0.4486 -2.5210  2.9062
  114OSM   H13G11874   7.183   2.394   5.589  0.6620  0.8027 -0.6283
  114OSM   C14F11875   7.249   2.290   5.402  0.1096 -0.9838 -0.8589
  114OSM   H14F11876   7.232   2.390   5.357  0.9339 -0.2312  0.4472
  114OSM   H14G11877   7.170   2.225   5.357  0.3161 -0.3302 -2.2215
  114OSM   C15F11878   7.380   2.239   5.352 -0.5118  0.0643  0.7364
  114OSM   H15F11879   7.393   2.137   5.393 -2.5268 -0.5703 -0.1023
  114OSM   H15G11880   7.450   2.319   5.384 -0.3036  0.3245 -0.3321
  114OSM   C16F11881   7.380   2.242   5.199  0.3259  0.5300 -0.4795
  114OSM   H16F11882   7.352   2.340   5.155  1.2962  1.2776  0.5179
  114OSM   H16G11883   7.312   2.171   5.148 -0.1408  0.3941  0.3211
  114OSM   C17F11884   7.522   2.205   5.144  0.5051 -0.0562 -0.0350
  114OSM   H17F11885   7.560   2.105   5.173  0.8067  0.3534  1.0298
  114OSM   H17G11886   7.586   2.274   5.204 -1.6700  0.5391  1.7177
  114OSM   C18F11887   7.530   2.242   5.000  0.0382 -1.1462  0.3137
  114OSM   H18F11888   7.527   2.353   4.989  2.7040 -1.0910 -0.6778
  114OSM   H18G11889   7.447   2.190   4.947 -0.1421 -1.3482  0.7929
  114OSM   H18H11890   7.623   2.200   4.957 -1.1056 -2.7666 -0.6902
  115OSM      N11891   2.755   5.710   7.354  0.0333 -0.2417 -0.0548
  115OSM    C1511892   2.625   5.783   7.327 -0.1706  0.1375  0.5804
  115OSM   H15A11893   2.552   5.730   7.387 -3.1976  3.3343  0.0507
  115OSM   H15B11894   2.585   5.776   7.227 -2.8736  0.4769  1.5520
  115OSM   H15C11895   2.632   5.890   7.340  1.2453 -0.1892  3.2266
  115OSM    C1411896   2.809   5.757   7.485  0.2741  0.8658  0.3222
  115OSM   H14A11897   2.726   5.738   7.551 -1.2374 -1.8910 -2.1174
  115OSM   H14B11898   2.833   5.861   7.500  1.0966  0.6366  0.6602
  115OSM   H14C11899   2.900   5.709   7.518  0.3996 -0.0928 -1.3019
  115OSM    C1311900   2.720   5.566   7.368 -0.2200  0.6098  0.9091
  115OSM   H13A11901   2.716   5.523   7.269 -2.5636 -0.0513  1.2414
  115OSM   H13B11902   2.629   5.542   7.420  0.0018 -0.8633  0.6632
  115OSM   H13C11903   2.799   5.504   7.409  0.6517 -0.3419 -1.9523
  115OSM    C1211904   2.853   5.737   7.244  0.8085  0.6442  0.0385
  115OSM   H12A11905   2.951   5.716   7.283  1.7979  2.4432 -1.3415
  115OSM   H12B11906   2.852   5.842   7.221 -1.1749  0.1312 -2.6796
  115OSM    C1111907   2.846   5.652   7.116 -0.0812 -0.3100 -0.1105
  115OSM   H11A11908   2.913   5.706   7.046 -0.1295  1.3682  1.0817
  115OSM   H11B11909   2.745   5.654   7.069 -1.0797 -1.1982  1.8447
  115OSM      P11910   3.045   5.497   7.156 -0.3077 -0.1874  0.0111
  115OSM    O1311911   3.096   5.574   7.271  0.5594  0.1522 -0.6701
  115OSM    O1411912   3.070   5.355   7.146  0.0332  0.5805  0.2569
  115OSM    O1111913   3.116   5.549   7.026  0.4894  0.2224  0.9797
  115OSM    O1211914   2.892   5.518   7.136 -0.5577 -0.1792  0.0930
  115OSM    C1S11915   3.257   5.546   7.001  0.6599 -0.9163 -0.8980
  115OSM    H1S11916   3.301   5.466   7.064  2.6759  1.2154  0.5931
  115OSM    H1T11917   3.311   5.634   7.044  0.7549 -1.8212  0.9508
  115OSM     NF11918   3.431   5.489   6.843 -0.0983  0.2109  0.1543
  115OSM    HNF11919   3.484   5.572   6.825 -0.7016  0.8461  1.1663
  115OSM    C2S11920   3.289   5.525   6.856  0.4431 -0.1268  0.3096
  115OSM    H2S11921   3.233   5.432   6.835  0.2828 -0.0917  0.5756
  115OSM    C3S11922   3.237   5.643   6.776 -0.1095 -0.2130  0.2489
  115OSM    H3S11923   3.284   5.733   6.821 -0.2939 -0.7402  1.5320
  115OSM     O311924   3.105   5.670   6.800 -0.4138 -0.5803  0.6162
  115OSM    HO311925   3.084   5.608   6.870  0.1811 -2.5362 -0.8251
  115OSM    C4S11926   3.277   5.644   6.634 -0.6687 -0.2018  0.1411
  115OSM    H4S11927   3.356   5.717   6.614  0.0731 -0.4968  1.8634
  115OSM    C5S11928   3.234   5.583   6.522 -0.1003  0.3189 -0.7134
  115OSM    H5S11929   3.164   5.499   6.531  0.2948  0.1302  0.8098
  115OSM    C6S11930   3.290   5.617   6.388  0.5034 -0.3453  0.0500
  115OSM    H6S11931   3.212   5.622   6.309  1.5725 -0.5708 -1.0534
  115OSM    H6T11932   3.361   5.536   6.360 -0.0367 -1.0988  0.7962
  115OSM    C7S11933   3.362   5.754   6.366 -0.6677  0.1110  0.0489
  115OSM    H7S11934   3.465   5.739   6.405 -1.0893 -0.0124  1.1493
  115OSM    H7T11935   3.321   5.835   6.429  1.7377  0.7684  0.8639
  115OSM    C8S11936   3.358   5.796   6.217 -0.3195 -0.1953 -0.3517
  115OSM    H8S11937   3.384   5.903   6.207  1.2298 -0.4247  0.7823
  115OSM    H8T11938   3.256   5.784   6.176 -0.5803 -0.9948  0.4999
  115OSM    C9S11939   3.452   5.709   6.134  0.0822  0.9328  1.2061
  115OSM    H9S11940   3.462   5.609   6.181 -0.7932 -0.5973 -1.6163
  115OSM    H9T11941   3.552   5.758   6.138 -0.1648  1.6165 -0.3311
  115OSM   C10S11942   3.428   5.683   5.980  0.0807  0.2843 -0.2425
  115OSM   H10S11943   3.431   5.782   5.929 -3.2899  1.2022  1.0825
  115OSM   H10T11944   3.328   5.642   5.957  0.5493 -0.8255 -0.3685
  115OSM   C11S11945   3.517   5.578   5.914  0.1219  0.0094 -0.2329
  115OSM   H11S11946   3.525   5.475   5.955 -1.0286 -0.9983 -2.3673
  115OSM   H11T11947   3.622   5.614   5.904 -0.0952  0.5538 -0.5916
  115OSM   C12S11948   3.478   5.565   5.759  0.2332  0.2067  0.0862
  115OSM   H12S11949   3.494   5.666   5.717  0.4092 -0.1662 -0.7697
  115OSM   H12T11950   3.369   5.556   5.739  0.3972 -0.7806 -0.4305
  115OSM   C13S11951   3.566   5.461   5.697 -0.4388  0.5623  0.3393
  115OSM   H13S11952   3.531   5.358   5.723 -0.1823 -0.3486 -2.6136
  115OSM   H13T11953   3.675   5.474   5.717  0.3842 -2.9515 -1.1137
  115OSM   C14S11954   3.553   5.463   5.546  0.3286  0.3272  0.0478
  115OSM   H14S11955   3.447   5.471   5.514  0.4562  1.9711 -0.0957
  115OSM   H14T11956   3.594   5.367   5.509  2.7030  1.2757  0.0602
  115OSM   C15S11957   3.621   5.584   5.475  1.0711  0.3545  0.7374
  115OSM   H15S11958   3.731   5.583   5.489  1.0029  2.4667  1.7993
  115OSM   H15T11959   3.582   5.678   5.519  1.2405 -0.5854  3.0135
  115OSM   C16S11960   3.580   5.590   5.327  0.6911 -0.1246  0.3360
  115OSM   H16S11961   3.470   5.598   5.317  0.9592  0.5402 -3.2003
  115OSM   H16T11962   3.609   5.496   5.276 -3.2411 -1.6825  0.6656
  115OSM   C17S11963   3.645   5.715   5.264  0.1635 -0.0152  0.3581
  115OSM   H17S11964   3.754   5.727   5.284  0.1903 -1.1396  0.9068
  115OSM   H17T11965   3.586   5.804   5.296 -0.5617 -0.1585 -0.5370
  115OSM   C18S11966   3.621   5.717   5.102 -0.2612 -0.7025 -0.2801
  115OSM   H18S11967   3.514   5.691   5.087 -0.9292  0.1859  2.3310
  115OSM   H18T11968   3.699   5.647   5.064 -0.0852 -0.5094 -0.2787
  115OSM   H18U11969   3.650   5.809   5.047  1.1903 -1.5541 -1.0076
  115OSM    C1F11970   3.485   5.373   6.858  0.5439  0.4357 -0.2822
  115OSM     OF11971   3.419   5.284   6.909 -0.5471 -0.1882 -0.9290
  115OSM    C2F11972   3.626   5.355   6.829  1.2372  0.0217 -0.3441
  115OSM    H2F11973   3.687   5.331   6.919 -1.5608 -0.3822  1.5608
  115OSM    H2G11974   3.651   5.456   6.791  1.4073  0.6819  1.4291
  115OSM    C3F11975   3.649   5.260   6.712 -0.2372  0.1519 -0.6919
  115OSM    H3F11976   3.606   5.161   6.740  0.5307 -0.0672 -0.2628
  115OSM    H3G11977   3.756   5.230   6.706  0.0078  0.2456  1.8401
  115OSM    C4F11978   3.587   5.302   6.580  0.3557 -0.4886 -1.1537
  115OSM    H4F11979   3.623   5.406   6.563  0.3065  0.2469  2.5337
  115OSM    H4G11980   3.477   5.302   6.594  0.2085  0.7303 -2.1332
  115OSM    C5F11981   3.636   5.211   6.469  0.8812 -0.1206 -0.5514
  115OSM    H5F11982   3.629   5.104   6.496 -1.1117  0.2272  0.5323
  115OSM    H5G11983   3.742   5.222   6.440  0.9601 -0.8910 -0.5594
  115OSM    C6F11984   3.552   5.216   6.340 -0.0891 -0.4286 -0.6822
  115OSM    H6F11985   3.574   5.313   6.291 -1.3703  1.8313  2.8172
  115OSM    H6G11986   3.444   5.219   6.368 -0.5365  0.0364 -2.3447
  115OSM    C7F11987   3.572   5.092   6.257 -0.3806  0.6642  0.0904
  115OSM    H7F11988   3.554   4.992   6.302  0.4880 -0.5561 -2.1133
  115OSM    H7G11989   3.679   5.096   6.229 -0.7424  0.4911 -1.4168
  115OSM    C8F11990   3.492   5.087   6.124  0.5994  0.1986  0.2769
  115OSM    H8F11991   3.540   5.162   6.058 -0.1907 -1.0833 -1.8352
  115OSM    H8G11992   3.393   5.124   6.159  0.4660 -0.3692  0.5056
  115OSM    C9F11993   3.481   4.955   6.067 -0.1068 -0.1074  0.5942
  115OSM    H9F11994   3.476   4.875   6.143  0.2062 -0.0115  0.7158
  115OSM   C10F11995   3.514   4.918   5.942 -0.2359  0.0700 -0.7591
  115OSM   H10F11996   3.500   4.813   5.910 -0.1581  0.2555 -1.4255
  115OSM   C11F11997   3.535   5.012   5.820 -0.1105  0.0595  0.6473
  115OSM   H11F11998   3.640   5.014   5.783  0.5217  1.2331  2.3659
  115OSM   H11G11999   3.531   5.117   5.854 -0.9632 -0.0493  0.9032
  115OSM   C12F12000   3.432   4.985   5.715 -0.4381  0.4587  0.1532
  115OSM   H12F12001   3.336   5.031   5.746 -1.5703 -0.2214 -2.0929
  115OSM   H12G12002   3.411   4.879   5.690 -3.3404  1.0335 -0.2772
  115OSM   C13F12003   3.474   5.052   5.577  0.9908 -0.0885  0.8672
  115OSM   H13F12004   3.564   5.001   5.538  0.5624 -0.2246  0.0286
  115OSM   H13G12005   3.505   5.158   5.590 -2.3595  0.8666  2.1245
  115OSM   C14F12006   3.361   5.047   5.476 -0.5775  0.6446 -0.0689
  115OSM   H14F12007   3.299   5.130   5.516  0.0808  0.9459  0.3409
  115OSM   H14G12008   3.301   4.954   5.484  0.0207  0.3441  1.1251
  115OSM   C15F12009   3.409   5.078   5.331  0.2355 -0.0530  0.2063
  115OSM   H15F12010   3.473   4.995   5.295 -0.6157 -0.7720  0.3051
  115OSM   H15G12011   3.464   5.174   5.331 -1.3628  0.9095 -0.1093
  115OSM   C16F12012   3.294   5.090   5.234  0.6959 -0.7424  0.0905
  115OSM   H16F12013   3.219   5.172   5.239  1.4526  0.1286 -1.5696
  115OSM   H16G12014   3.239   4.994   5.231  0.3329 -0.5286 -1.7777
  115OSM   C17F12015   3.352   5.096   5.086 -0.5837  0.1183  0.3238
  115OSM   H17F12016   3.261   5.089   5.024 -2.0489 -0.7296  2.4624
  115OSM   H17G12017   3.430   5.018   5.074 -0.6071 -0.2827  2.4196
  115OSM   C18F12018   3.418   5.228   5.064 -0.3355  0.2014  0.5059
  115OSM   H18F12019   3.338   5.302   5.087 -0.0212  1.2273 -1.4272
  115OSM   H18G12020   3.441   5.240   4.956 -1.3383 -0.5565  0.1841
  115OSM   H18H12021   3.510   5.244   5.123  0.7199 -0.7039 -0.8234
  116OSM      N12022   0.622   2.129   7.881  0.2334 -0.9748  0.5749
  116OSM    C1512023   0.486   2.188   7.911 -0.0211 -0.5970  0.3597
  116OSM   H15A12024   0.449   2.153   8.006 -0.8693  0.4137  0.4206
  116OSM   H15B12025   0.411   2.155   7.840  0.8465  0.9108 -1.3446
  116OSM   H15C12026   0.480   2.296   7.906 -2.3825 -0.6399  0.9004
  116OSM    C1412027   0.719   2.175   7.977  0.2930  0.2841  0.2178
  116OSM   H14A12028   0.689   2.153   8.078 -0.4642  1.9115  0.3671
  116OSM   H14B12029   0.723   2.282   7.965 -0.0687  0.0037 -3.8690
  116OSM   H14C12030   0.816   2.130   7.962  0.5917  1.3722 -1.4010
  116OSM    C1312031   0.622   1.975   7.892  0.8006 -0.0739 -0.3684
  116OSM   H13A12032   0.587   1.933   7.985 -1.7418 -0.0745 -1.2608
  116OSM   H13B12033   0.711   1.919   7.867  0.7175 -1.1445  1.5683
  116OSM   H13C12034   0.556   1.944   7.813  1.9660  0.3690 -1.5656
  116OSM    C1212035   0.655   2.158   7.740 -0.2780 -0.8015  0.6274
  116OSM   H12A12036   0.752   2.113   7.724  1.2506  2.2287  0.7408
  116OSM   H12B12037   0.666   2.264   7.721 -1.1159 -0.6655  0.8547
  116OSM    C1112038   0.581   2.091   7.613  0.8645  0.1156  0.8027
  116OSM   H11A12039   0.606   1.983   7.614  2.8773  0.5305  0.3824
  116OSM   H11B12040   0.625   2.124   7.516 -2.2786  1.0435 -0.4334
  116OSM      P12041   0.332   2.012   7.618  0.0522  0.2348  0.2721
  116OSM    O1312042   0.362   1.917   7.726 -0.1638  0.7441 -0.1779
  116OSM    O1412043   0.197   2.072   7.623 -0.1064  0.3850 -0.0873
  116OSM    O1112044   0.357   1.947   7.480  0.4214 -0.1727  0.4847
  116OSM    O1212045   0.439   2.122   7.626 -0.1308  0.0133 -0.0076
  116OSM    C1S12046   0.357   2.034   7.359 -0.2760 -0.0924 -0.3004
  116OSM    H1S12047   0.446   2.101   7.354 -1.1022  0.9832 -1.3059
  116OSM    H1T12048   0.271   2.104   7.362 -0.3471 -0.1969  0.1522
  116OSM     NF12049   0.375   2.044   7.111 -0.0025 -0.2339 -0.0451
  116OSM    HNF12050   0.297   2.090   7.070  1.3587  2.1382 -0.1578
  116OSM    C2S12051   0.353   1.956   7.228  0.1044  0.0226  1.1662
  116OSM    H2S12052   0.438   1.886   7.241  0.2124  0.0947  0.8648
  116OSM    C3S12053   0.217   1.878   7.224  0.1236  0.1644 -0.0423
  116OSM    H3S12054   0.140   1.947   7.262  0.1193  0.7192 -1.0389
  116OSM     O312055   0.207   1.767   7.313  0.0727 -0.0247 -0.4937
  116OSM    HO312056   0.297   1.746   7.341 -0.3988 -1.5758 -0.0863
  116OSM    C4S12057   0.178   1.840   7.083 -0.0893  0.2096 -0.0434
  116OSM    H4S12058   0.125   1.919   7.027  2.4069  2.4110  0.4656
  116OSM    C5S12059   0.218   1.720   7.032 -0.0800  0.6196 -0.1018
  116OSM    H5S12060   0.272   1.647   7.095 -0.9978  0.5390  0.6034
  116OSM    C6S12061   0.188   1.674   6.895  0.2378  0.1994 -0.3412
  116OSM    H6S12062   0.094   1.617   6.890 -0.4206  1.2289 -0.0098
  116OSM    H6T12063   0.259   1.591   6.871  1.5449  1.6596 -1.8634
  116OSM    C7S12064   0.177   1.784   6.787 -0.2163  0.4698 -0.0013
  116OSM    H7S12065   0.275   1.835   6.778 -1.2383  2.7213  1.0509
  116OSM    H7T12066   0.090   1.852   6.799  0.2276  1.2866 -1.3318
  116OSM    C8S12067   0.161   1.720   6.649  0.7533 -0.2666 -0.1437
  116OSM    H8S12068   0.065   1.664   6.654  2.2794 -2.9556  0.7454
  116OSM    H8T12069   0.238   1.643   6.627  0.7647 -0.1605 -0.4828
  116OSM    C9S12070   0.171   1.825   6.542 -0.2575 -0.7242  0.8917
  116OSM    H9S12071   0.256   1.894   6.557  0.7289 -1.7793  0.2635
  116OSM    H9T12072   0.081   1.890   6.555  2.3992  3.2782  0.8325
  116OSM   C10S12073   0.184   1.781   6.396  0.3040 -0.4592 -0.4590
  116OSM   H10S12074   0.130   1.860   6.341 -3.5732 -1.5296  1.4249
  116OSM   H10T12075   0.124   1.688   6.383 -0.7213  0.1620 -0.2482
  116OSM   C11S12076   0.329   1.770   6.341  0.6015  0.1588 -0.2311
  116OSM   H11S12077   0.378   1.679   6.383  2.2085  2.1307  2.5201
  116OSM   H11T12078   0.385   1.853   6.388 -0.0075 -0.3984  1.5503
  116OSM   C12S12079   0.323   1.761   6.192 -0.2761  0.4490 -0.0727
  116OSM   H12S12080   0.255   1.840   6.153 -0.3502  0.3690 -0.1031
  116OSM   H12T12081   0.292   1.661   6.157 -0.4022 -0.2851  2.0371
  116OSM   C13S12082   0.463   1.793   6.129  0.7491  0.4548 -0.0929
  116OSM   H13S12083   0.535   1.720   6.172 -2.4269 -1.8614  1.7962
  116OSM   H13T12084   0.492   1.898   6.147 -1.0879  1.1924 -1.1864
  116OSM   C14S12085   0.461   1.767   5.983 -0.4989  0.5660 -0.3722
  116OSM   H14S12086   0.423   1.668   5.949 -3.9171  1.0822  1.5333
  116OSM   H14T12087   0.569   1.766   5.956 -0.6274 -3.5118 -1.4345
  116OSM   C15S12088   0.380   1.866   5.901  0.1826 -0.7610 -0.1763
  116OSM   H15S12089   0.422   1.968   5.909 -1.3904 -0.0997  0.0473
  116OSM   H15T12090   0.276   1.867   5.940  0.4964 -1.9841  0.7476
  116OSM   C16S12091   0.382   1.829   5.750 -0.0561 -0.0572  0.1283
  116OSM   H16S12092   0.305   1.895   5.704 -1.1286 -0.7822  0.8436
  116OSM   H16T12093   0.340   1.729   5.727 -1.3582  0.6489 -0.7066
  116OSM   C17S12094   0.524   1.860   5.695 -0.1167  0.2942  0.3699
  116OSM   H17S12095   0.597   1.786   5.734 -0.2573  0.2092  0.4678
  116OSM   H17T12096   0.561   1.961   5.723  1.8125 -0.4088  0.5253
  116OSM   C18S12097   0.533   1.849   5.541  0.6667  0.2710  0.4064
  116OSM   H18S12098   0.463   1.922   5.495 -0.1498 -0.0283  1.1536
  116OSM   H18T12099   0.505   1.745   5.511  0.8484  0.3756 -0.1288
  116OSM   H18U12100   0.638   1.848   5.507  1.1285 -1.3021  1.7068
  116OSM    C1F12101   0.499   2.084   7.082 -0.8638  0.1519  0.2235
  116OSM     OF12102   0.591   2.098   7.172  0.3313  0.0054  0.2469
  116OSM    C2F12103   0.528   2.096   6.940  0.0628  0.3504  0.1714
  116OSM    H2F12104   0.439   2.123   6.879 -0.2305  0.2705  0.5602
  116OSM    H2G12105   0.562   1.995   6.911  0.1010  0.1817  0.7871
  116OSM    C3F12106   0.650   2.184   6.907 -0.6956  0.1575  0.2220
  116OSM    H3F12107   0.732   2.140   6.968 -1.7420 -0.9815  0.8627
  116OSM    H3G12108   0.638   2.285   6.952  3.3362  0.8018  0.2122
  116OSM    C4F12109   0.676   2.193   6.752 -0.2475 -0.0131  0.4907
  116OSM    H4F12110   0.733   2.288   6.750  0.4090 -0.2965  2.5753
  116OSM    H4G12111   0.582   2.197   6.693  0.6608 -1.0133 -1.0965
  116OSM    C5F12112   0.761   2.082   6.685  0.0705 -0.0721 -0.0101
  116OSM    H5F12113   0.699   1.990   6.698 -0.2890  0.2762  0.7939
  116OSM    H5G12114   0.855   2.072   6.742  0.3687  0.6327 -0.3703
  116OSM    C6F12115   0.799   2.104   6.533  0.0906  0.2238 -0.9901
  116OSM    H6F12116   0.909   2.120   6.535  0.3659 -1.6059  1.0364
  116OSM    H6G12117   0.749   2.192   6.485 -2.6008 -0.4548  0.3855
  116OSM    C7F12118   0.765   1.981   6.447  0.4623 -0.2218  0.1776
  116OSM    H7F12119   0.654   1.979   6.440  0.3896  1.3725  0.3760
  116OSM    H7G12120   0.785   1.887   6.503  0.3593 -0.4402 -0.1560
  116OSM    C8F12121   0.825   1.988   6.305 -0.3601 -0.6467  0.3436
  116OSM    H8F12122   0.811   1.886   6.264  1.9605  0.5034 -3.8727
  116OSM    H8G12123   0.934   2.005   6.318 -0.1177 -1.1377 -0.9117
  116OSM    C9F12124   0.794   2.103   6.211 -0.3036 -0.1144 -0.0705
  116OSM    H9F12125   0.778   2.198   6.264  1.3104  1.8749 -2.8686
  116OSM   C10F12126   0.780   2.101   6.076 -0.1775  0.7201  0.6024
  116OSM   H10F12127   0.758   2.186   6.009  2.6771  0.9763 -0.1608
  116OSM   C11F12128   0.805   1.985   5.987  0.0547  0.2458 -0.2458
  116OSM   H11F12129   0.714   1.974   5.924 -0.0668  1.0813 -0.2303
  116OSM   H11G12130   0.835   1.892   6.039  1.8578 -0.2838 -2.1267
  116OSM   C12F12131   0.913   2.008   5.884 -0.7602  0.5373  0.1618
  116OSM   H12F12132   1.015   1.991   5.923 -0.9699 -0.1647  0.4118
  116OSM   H12G12133   0.914   2.112   5.843  0.8018  1.0677  1.4385
  116OSM   C13F12134   0.899   1.914   5.762 -0.1894 -0.8597 -0.2260
  116OSM   H13F12135   0.798   1.911   5.716 -0.5546 -1.9786  0.6089
  116OSM   H13G12136   0.919   1.808   5.790 -1.8886 -1.1233  0.0873
  116OSM   C14F12137   0.980   1.954   5.642 -0.5446  0.2051 -0.4406
  116OSM   H14F12138   0.956   2.056   5.604  0.8950  1.2621  1.2533
  116OSM   H14G12139   0.957   1.885   5.559  3.0611 -0.1732 -1.2783
  116OSM   C15F12140   1.130   1.962   5.668  0.1269 -0.5341 -0.4569
  116OSM   H15F12141   1.173   1.873   5.719 -0.5307 -1.2766 -1.1603
  116OSM   H15G12142   1.142   2.055   5.727  1.3110 -0.1100 -1.3408
  116OSM   C16F12143   1.207   1.973   5.537  0.5404  0.2080  0.6494
  116OSM   H16F12144   1.143   2.028   5.464 -0.6283  1.0990  2.2713
  116OSM   H16G12145   1.212   1.869   5.499 -3.3684 -0.4452  1.5154
  116OSM   C17F12146   1.339   2.044   5.542 -0.0215  0.3188  0.0664
  116OSM   H17F12147   1.393   2.009   5.451  0.5207  1.1900  0.0390
  116OSM   H17G12148   1.391   1.994   5.626 -1.7090 -1.8472 -0.1014
  116OSM   C18F12149   1.332   2.189   5.560  0.0046 -0.1271 -0.0518
  116OSM   H18F12150   1.435   2.227   5.546  0.2966 -0.8068  0.1905
  116OSM   H18G12151   1.292   2.211   5.661  2.2606  2.2548  0.4294
  116OSM   H18H12152   1.276   2.227   5.472 -0.5977 -1.3856 -0.2441
  117OSM      N12153   3.553   0.198   7.249 -0.7788  0.5388 -0.2125
  117OSM    C1512154   3.458   0.141   7.148  0.2945 -0.5983  0.4017
  117OSM   H15A12155   3.372   0.206   7.149  0.7585  0.0152  0.7414
  117OSM   H15B12156   3.403   0.054   7.179  0.5480 -1.0002 -0.2472
  117OSM   H15C12157   3.498   0.126   7.049  1.0366  3.6772 -0.1330
  117OSM    C1412158   3.467   0.221   7.369 -0.3426  0.0474  0.0760
  117OSM   H14A12159   3.380   0.282   7.351  0.0499  0.8392  0.8008
  117OSM   H14B12160   3.519   0.268   7.452 -2.4046  1.9994  0.3526
  117OSM   H14C12161   3.430   0.124   7.399  0.0487  0.1980  1.0863
  117OSM    C1312162   3.666   0.104   7.288  0.1640 -0.3822  0.1522
  117OSM   H13A12163   3.624   0.006   7.303 -1.6528  0.2523 -0.5656
  117OSM   H13B12164   3.705   0.142   7.382 -0.8380  0.2147  0.3442
  117OSM   H13C12165   3.748   0.098   7.219  0.2004 -0.4954  0.2047
  117OSM    C1212166   3.605   0.334   7.196 -0.1902 -0.1848 -0.4090
  117OSM   H12A12167   3.630   0.390   7.284  0.1259  0.7924 -1.1030
  117OSM   H12B12168   3.529   0.397   7.152 -0.2504 -0.6817 -1.0393
  117OSM    C1112169   3.730   0.341   7.108 -0.6567 -0.2334 -0.3849
  117OSM   H11A12170   3.730   0.449   7.080 -2.2790 -0.2782 -0.6784
  117OSM   H11B12171   3.711   0.287   7.013  1.9466  0.6406 -1.4955
  117OSM      P12172   3.910   0.378   7.288 -0.1820 -0.0820 -0.2057
  117OSM    O1312173   3.817   0.445   7.374 -0.1899  0.1146 -0.3792
  117OSM    O1412174   4.020   0.293   7.350  0.4472 -0.7184  0.4949
  117OSM    O1112175   3.974   0.492   7.205 -0.1677 -0.4628  0.2680
  117OSM    O1212176   3.845   0.290   7.177  0.4733  0.3718 -0.1601
  117OSM    C1S12177   4.058   0.487   7.092  0.3160 -0.6567 -0.2413
  117OSM    H1S12178   4.086   0.382   7.068  0.3429 -0.7977  0.3890
  117OSM    H1T12179   4.141   0.555   7.123 -1.6217  0.6944  2.3662
  117OSM     NF12180   4.073   0.539   6.842 -0.3855 -0.0522  0.4469
  117OSM    HNF12181   4.128   0.619   6.819 -1.2842  0.6199  0.5504
  117OSM    C2S12182   3.995   0.551   6.963  0.3798 -1.0048 -0.0820
  117OSM    H2S12183   3.902   0.497   6.937  0.0880  0.4923 -2.5010
  117OSM    C3S12184   3.953   0.698   6.992  0.1271  0.1367  0.2163
  117OSM    H3S12185   4.046   0.755   7.014 -0.6278  0.7965  1.9113
  117OSM     O312186   3.875   0.725   7.111  0.2647  0.1636 -0.3239
  117OSM    HO312187   3.885   0.643   7.160  0.7662  0.6611  0.4299
  117OSM    C4S12188   3.894   0.759   6.866  0.0249 -0.1731 -0.8832
  117OSM    H4S12189   3.973   0.791   6.796  1.7439  0.0136  1.0493
  117OSM    C5S12190   3.768   0.773   6.818 -0.5400 -0.2571  0.4979
  117OSM    H5S12191   3.681   0.739   6.876 -1.2277 -0.0393 -0.3844
  117OSM    C6S12192   3.739   0.839   6.681 -0.1729  0.3857 -0.2694
  117OSM    H6S12193   3.690   0.936   6.706  1.5054  0.8240  1.6144
  117OSM    H6T12194   3.672   0.777   6.618 -0.5711 -0.4079  0.9002
  117OSM    C7S12195   3.859   0.866   6.583 -0.0343 -0.3339  0.0856
  117OSM    H7S12196   3.937   0.787   6.583  0.3953  0.0319 -1.9217
  117OSM    H7T12197   3.913   0.956   6.618  0.6128 -0.1623 -1.2915
  117OSM    C8S12198   3.810   0.886   6.443  0.3121 -0.6995 -1.4656
  117OSM    H8S12199   3.735   0.968   6.442  0.6578 -0.0369  3.2759
  117OSM    H8T12200   3.755   0.795   6.408 -1.8886  0.2063 -0.5698
  117OSM    C9S12201   3.924   0.922   6.348  0.3411 -0.4792 -1.2746
  117OSM    H9S12202   4.007   0.848   6.344  0.6777 -0.0509 -2.6082
  117OSM    H9T12203   3.970   1.013   6.391  0.5502 -0.5860 -1.2716
  117OSM   C10S12204   3.879   0.939   6.204 -0.5841 -0.1549  0.9153
  117OSM   H10S12205   3.799   1.015   6.214 -2.9946 -2.3341 -0.7124
  117OSM   H10T12206   3.840   0.842   6.168  2.0178 -0.9693  0.0204
  117OSM   C11S12207   3.985   0.975   6.093 -0.4926 -0.1204 -0.2480
  117OSM   H11S12208   4.077   0.914   6.108 -1.0742 -0.8276  0.5382
  117OSM   H11T12209   4.023   1.079   6.094  2.0264 -0.8353 -3.1933
  117OSM   C12S12210   3.934   0.948   5.951  1.1035  0.3483  0.9497
  117OSM   H12S12211   3.832   0.988   5.934  0.7881 -0.6898  0.2903
  117OSM   H12T12212   3.929   0.838   5.936 -0.3929  0.7773 -2.8265
  117OSM   C13S12213   4.036   0.981   5.836 -0.2377  0.1907 -0.1630
  117OSM   H13S12214   4.129   0.924   5.860 -0.3231  0.5668  1.1790
  117OSM   H13T12215   4.055   1.089   5.853 -1.7677  0.5288 -0.4905
  117OSM   C14S12216   3.966   0.956   5.704 -0.0610  0.4537  0.4508
  117OSM   H14S12217   3.856   0.970   5.715  0.0290  1.1636  0.4384
  117OSM   H14T12218   3.968   0.847   5.682 -1.6560  0.8262 -1.9570
  117OSM   C15S12219   4.024   1.020   5.576 -0.4124  0.2760  0.1008
  117OSM   H15S12220   4.135   1.014   5.575 -0.4755 -1.4340  0.2868
  117OSM   H15T12221   3.985   1.124   5.584 -0.5530  0.5651 -3.1658
  117OSM   C16S12222   3.969   0.961   5.441  0.2963 -0.1245 -0.3834
  117OSM   H16S12223   3.859   0.961   5.450  0.3230 -0.1234 -0.0549
  117OSM   H16T12224   4.001   0.856   5.423 -0.4550 -0.4058 -0.1027
  117OSM   C17S12225   4.027   1.023   5.304  0.8447  0.1520 -0.7718
  117OSM   H17S12226   4.138   1.015   5.297  0.8094 -0.6738 -0.4412
  117OSM   H17T12227   4.003   1.130   5.322  2.3544  0.5788 -1.1180
  117OSM   C18S12228   3.963   0.974   5.180  0.0204 -0.0345  0.6884
  117OSM   H18S12229   3.854   0.961   5.194 -0.5621  2.5590 -0.6323
  117OSM   H18T12230   4.012   0.878   5.156  0.6409 -0.0997  2.1509
  117OSM   H18U12231   3.975   1.044   5.094 -0.7240 -2.2991 -1.3603
  117OSM    C1F12232   4.109   0.421   6.794  0.5877 -0.6759  0.2635
  117OSM     OF12233   4.066   0.316   6.843  0.1574 -0.5471  0.5541
  117OSM    C2F12234   4.194   0.429   6.668  0.4841 -0.1259  0.2631
  117OSM    H2F12235   4.292   0.474   6.696  0.0550  0.1174  1.4359
  117OSM    H2G12236   4.138   0.495   6.598  0.2382 -1.1500 -0.5231
  117OSM    C3F12237   4.226   0.294   6.604  0.6160 -0.0100 -0.1374
  117OSM    H3F12238   4.133   0.254   6.558  0.1452  0.9213 -0.0234
  117OSM    H3G12239   4.279   0.221   6.670  0.4167 -0.2605 -0.2525
  117OSM    C4F12240   4.322   0.319   6.486 -0.0431 -0.6335  0.0468
  117OSM    H4F12241   4.419   0.335   6.537 -1.8798  1.6286  3.1434
  117OSM    H4G12242   4.293   0.406   6.422 -0.3272  0.1502  1.2218
  117OSM    C5F12243   4.324   0.205   6.389  0.2691  0.6591 -0.2758
  117OSM    H5F12244   4.356   0.116   6.446 -1.1058  2.1488  3.0757
  117OSM    H5G12245   4.413   0.212   6.323  2.4008 -0.0685  2.3366
  117OSM    C6F12246   4.197   0.172   6.306 -0.0270  0.5267  0.5833
  117OSM    H6F12247   4.110   0.160   6.374 -1.0105 -0.2415 -0.7683
  117OSM    H6G12248   4.210   0.074   6.256  0.4383  1.5082 -1.2848
  117OSM    C7F12249   4.176   0.271   6.191 -0.0763 -0.0362 -0.1229
  117OSM    H7F12250   4.271   0.292   6.137  0.3760 -1.1217  0.2299
  117OSM    H7G12251   4.151   0.366   6.243  0.5564  1.0821 -1.7711
  117OSM    C8F12252   4.067   0.235   6.087  0.0940  0.2701 -0.3951
  117OSM    H8F12253   4.055   0.328   6.026  1.3114  0.1497 -0.8406
  117OSM    H8G12254   3.976   0.224   6.150  1.4507  0.5714  1.7173
  117OSM    C9F12255   4.093   0.125   5.988  0.0096  0.5208  0.1684
  117OSM    H9F12256   4.082   0.025   6.033  0.2220 -0.1786 -1.2998
  117OSM   C10F12257   4.090   0.122   5.855 -0.5951  1.0354 -1.4098
  117OSM   H10F12258   4.127   0.027   5.815 -1.5342 -0.8382  1.8080
  117OSM   C11F12259   4.092   0.243   5.765  0.5091 -0.1724 -0.0718
  117OSM   H11F12260   4.191   0.248   5.716 -0.3255 -1.4587 -2.0184
  117OSM   H11G12261   4.088   0.338   5.822  0.0625 -0.1272 -0.1704
  117OSM   C12F12262   3.990   0.231   5.647 -0.2499 -0.1754 -0.3350
  117OSM   H12F12263   3.891   0.211   5.694 -0.6506  1.4856 -0.4141
  117OSM   H12G12264   4.020   0.152   5.575 -3.8308 -0.2444 -1.9719
  117OSM   C13F12265   3.984   0.351   5.561  0.2330 -0.1054  0.4099
  117OSM   H13F12266   4.072   0.419   5.564 -0.7775  1.2342  2.7427
  117OSM   H13G12267   3.905   0.416   5.605 -0.1483 -1.4806  1.8355
  117OSM   C14F12268   3.950   0.323   5.416  0.1054  0.2846  0.3582
  117OSM   H14F12269   3.841   0.298   5.416  0.0357  0.3405 -1.9855
  117OSM   H14G12270   3.989   0.235   5.361 -0.8159 -0.2515  0.5432
  117OSM   C15F12271   3.988   0.443   5.325  0.2810  0.0647  0.0212
  117OSM   H15F12272   4.098   0.449   5.334  0.2610 -0.9847  1.3105
  117OSM   H15G12273   3.939   0.534   5.368 -1.2064 -1.1930  1.0910
  117OSM   C16F12274   3.927   0.418   5.184 -0.0689 -0.3699  0.5350
  117OSM   H16F12275   3.940   0.504   5.114 -1.8994  0.8894  1.6371
  117OSM   H16G12276   3.818   0.402   5.192 -0.1849  0.7916  1.6874
  117OSM   C17F12277   3.989   0.305   5.109  0.0622  0.1058  0.6136
  117OSM   H17F12278   3.946   0.207   5.139 -0.6032 -0.2553 -1.3486
  117OSM   H17G12279   4.098   0.309   5.130 -0.1296  0.1268  1.6453
  117OSM   C18F12280   3.959   0.323   4.962  0.0022 -0.3819  0.8245
  117OSM   H18F12281   3.980   0.234   4.899 -0.0755  0.3141 -0.2137
  117OSM   H18G12282   4.021   0.411   4.933 -0.1519 -0.0868  1.3777
  117OSM   H18H12283   3.853   0.348   4.943  0.4376 -0.3539 -2.1431
  118OSM      N12284   6.267   4.677   6.930  0.2903  0.0203  0.0628
  118OSM    C1512285   6.275   4.749   6.809  0.1876 -0.2499  0.1019
  118OSM   H15A12286   6.338   4.836   6.823  0.9590 -0.6201 -0.9151
  118OSM   H15B12287   6.180   4.787   6.774  1.3904  1.0398 -1.9758
  118OSM   H15C12288   6.320   4.691   6.730 -0.9112  0.3876 -1.0445
  118OSM    C1412289   6.190   4.549   6.910  0.3385  0.1012  0.0330
  118OSM   H14A12290   6.083   4.564   6.910  0.4347  0.8369  0.7555
  118OSM   H14B12291   6.205   4.476   6.988 -4.9123 -1.7013 -0.2359
  118OSM   H14C12292   6.211   4.500   6.816  1.1617  0.4239  0.0433
  118OSM    C1312293   6.406   4.627   6.964 -0.2711 -0.1924 -0.1648
  118OSM   H13A12294   6.407   4.561   7.050  1.7471 -1.6324 -1.2175
  118OSM   H13B12295   6.478   4.705   6.984 -0.5500  0.2412 -0.8179
  118OSM   H13C12296   6.432   4.572   6.875 -2.5236 -1.7684  0.0490
  118OSM    C1212297   6.201   4.758   7.039 -0.4365 -0.0775 -0.2718
  118OSM   H12A12298   6.268   4.832   7.079 -2.4888  0.7532  1.7660
  118OSM   H12B12299   6.185   4.693   7.123 -1.0296  2.6387  1.8334
  118OSM    C1112300   6.063   4.829   7.011  0.0672  0.3410 -0.2373
  118OSM   H11A12301   6.071   4.881   6.913  0.3924 -1.3318 -1.1336
  118OSM   H11B12302   6.048   4.916   7.079 -3.6203  0.5504 -1.1056
  118OSM      P12303   5.878   4.700   7.110 -0.1997  0.2356 -0.3118
  118OSM    O1312304   5.961   4.614   7.200  0.0913 -0.2202 -0.0212
  118OSM    O1412305   5.821   4.822   7.165 -0.7893 -0.2595 -0.3721
  118OSM    O1112306   5.757   4.614   7.056  0.1957  0.3202  0.1890
  118OSM    O1212307   5.961   4.733   6.994  0.2757 -0.2779 -0.7062
  118OSM    C1S12308   5.672   4.677   6.957  0.0924 -0.2044 -0.6619
  118OSM    H1S12309   5.665   4.787   6.968 -1.0051 -0.2303 -1.0013
  118OSM    H1T12310   5.568   4.639   6.972  0.2680 -0.0469  1.2815
  118OSM     NF12311   5.621   4.721   6.718 -0.6072  0.2564  0.1849
  118OSM    HNF12312   5.562   4.667   6.659 -2.4815 -0.0076  2.1771
  118OSM    C2S12313   5.708   4.646   6.806 -0.3845  0.7518 -0.1706
  118OSM    H2S12314   5.815   4.671   6.792  0.0438 -1.7358 -2.1018
  118OSM    C3S12315   5.697   4.494   6.782 -0.3406  1.0370 -0.0296
  118OSM    H3S12316   5.603   4.447   6.817 -0.1626  0.3355 -0.4793
  118OSM     O312317   5.801   4.428   6.853  0.4154  0.3131 -0.2597
  118OSM    HO312318   5.819   4.481   6.931 -1.0227  1.9956 -1.0133
  118OSM    C4S12319   5.719   4.468   6.631  0.3578 -0.2826  0.4938
  118OSM    H4S12320   5.817   4.516   6.615  0.4601 -0.7759 -0.4799
  118OSM    C5S12321   5.639   4.407   6.537 -0.6858 -0.2278  0.7741
  118OSM    H5S12322   5.551   4.351   6.572 -2.1502  1.6842  0.2711
  118OSM    C6S12323   5.673   4.393   6.393  0.1724 -0.1566  0.7571
  118OSM    H6S12324   5.589   4.422   6.327 -0.3737  0.2539  1.6133
  118OSM    H6T12325   5.686   4.286   6.365 -0.4512 -0.1540  0.4268
  118OSM    C7S12326   5.805   4.456   6.333 -0.1052  0.9610 -0.4642
  118OSM    H7S12327   5.888   4.443   6.406 -2.1874  1.3087  2.1080
  118OSM    H7T12328   5.788   4.561   6.303  0.0393  1.1095 -0.0303
  118OSM    C8S12329   5.854   4.376   6.206 -0.2760  0.3348 -0.4682
  118OSM    H8S12330   5.838   4.267   6.220 -2.0200  0.6563  0.2914
  118OSM    H8T12331   5.957   4.408   6.179 -0.5014 -0.2634 -2.1430
  118OSM    C9S12332   5.770   4.433   6.084  0.3364 -0.1275 -0.0459
  118OSM    H9S12333   5.778   4.543   6.074  0.5395 -0.0017  1.3764
  118OSM    H9T12334   5.666   4.406   6.111  0.2887  1.7021  1.8162
  118OSM   C10S12335   5.806   4.384   5.943 -0.1459  0.5884 -0.2172
  118OSM   H10S12336   5.789   4.275   5.948 -0.5967  0.7101  3.4385
  118OSM   H10T12337   5.912   4.394   5.914  0.4317 -1.5503  0.9453
  118OSM   C11S12338   5.712   4.436   5.835 -0.8645 -0.8712  0.0073
  118OSM   H11S12339   5.709   4.546   5.832  0.6840 -0.7634  0.8999
  118OSM   H11T12340   5.609   4.397   5.847 -0.9632 -1.3020 -1.9125
  118OSM   C12S12341   5.771   4.387   5.704 -0.3701 -0.1807 -0.1633
  118OSM   H12S12342   5.779   4.276   5.709 -0.4230 -0.2164 -0.7678
  118OSM   H12T12343   5.868   4.436   5.680  1.4919 -2.7913  1.5325
  118OSM   C13S12344   5.680   4.429   5.590  0.5903  0.8387 -0.2677
  118OSM   H13S12345   5.662   4.539   5.585  0.2998  0.7469 -3.5904
  118OSM   H13T12346   5.584   4.374   5.603  1.8509 -1.6017 -0.8265
  118OSM   C14S12347   5.739   4.385   5.450  0.0696 -0.7345  0.5458
  118OSM   H14S12348   5.741   4.274   5.448  1.0532 -0.7237  0.7195
  118OSM   H14T12349   5.847   4.406   5.462  0.4930 -2.8648  0.9931
  118OSM   C15S12350   5.671   4.444   5.334  0.3168 -0.5298  0.4751
  118OSM   H15S12351   5.690   4.553   5.324 -0.2872 -0.5396 -1.0583
  118OSM   H15T12352   5.562   4.423   5.344 -0.3076  1.5503 -1.1335
  118OSM   C16S12353   5.709   4.382   5.200  0.5692 -0.7589  0.3861
  118OSM   H16S12354   5.698   4.272   5.201 -1.4546 -0.7448 -3.1776
  118OSM   H16T12355   5.816   4.410   5.184  0.7119 -1.8681 -0.7244
  118OSM   C17S12356   5.637   4.445   5.083  1.0229 -0.0076  0.2747
  118OSM   H17S12357   5.665   4.551   5.068  1.4386 -0.1267  0.2002
  118OSM   H17T12358   5.527   4.449   5.099  0.8843  1.9430 -0.9113
  118OSM   C18S12359   5.672   4.367   4.957 -0.1494 -0.2148 -0.1632
  118OSM   H18S12360   5.782   4.369   4.943 -0.2157  1.8026 -0.6435
  118OSM   H18T12361   5.627   4.417   4.868  0.7578  0.1928 -0.3955
  118OSM   H18U12362   5.643   4.261   4.976 -0.2588 -0.2847 -0.6971
  118OSM    C1F12363   5.609   4.856   6.713 -0.3331  0.7641  0.5427
  118OSM     OF12364   5.694   4.923   6.770 -0.1979 -0.3391  0.0724
  118OSM    C2F12365   5.500   4.919   6.637 -0.0552  0.4484 -0.0815
  118OSM    H2F12366   5.468   4.854   6.553  0.5411  0.4546 -0.3144
  118OSM    H2G12367   5.543   5.010   6.589  0.3818  0.1563 -0.2482
  118OSM    C3F12368   5.375   4.944   6.724 -0.0927 -0.3134  0.7639
  118OSM    H3F12369   5.407   5.004   6.813  0.5800  1.3383 -0.5260
  118OSM    H3G12370   5.334   4.847   6.759 -2.4988  0.2904 -0.2027
  118OSM    C4F12371   5.269   5.026   6.649  0.0415  0.1231 -0.3944
  118OSM    H4F12372   5.254   4.979   6.550 -3.4496  1.4805 -0.6698
  118OSM    H4G12373   5.306   5.126   6.616 -2.7111  0.4141 -2.9714
  118OSM    C5F12374   5.136   5.040   6.716  0.0044  0.1224 -0.0617
  118OSM    H5F12375   5.136   5.127   6.786 -1.3590 -1.0868  1.5275
  118OSM    H5G12376   5.117   4.948   6.776 -1.5756  0.1742 -0.4392
  118OSM    C6F12377   5.021   5.073   6.612 -0.2123  0.3928 -0.1441
  118OSM    H6F12378   4.943   4.994   6.611  0.2574 -0.3936  4.1959
  118OSM    H6G12379   5.061   5.074   6.509 -0.1168 -1.2207 -0.1435
  118OSM    C7F12380   4.950   5.202   6.637 -0.5650  0.3656 -0.4221
  118OSM    H7F12381   5.035   5.274   6.645 -0.5576  0.2392  0.7814
  118OSM    H7G12382   4.896   5.206   6.734 -1.4676  3.8228 -0.8984
  118OSM    C8F12383   4.845   5.248   6.533  0.0688 -0.4961  0.2932
  118OSM    H8F12384   4.755   5.184   6.538  1.7038 -2.9296  0.0207
  118OSM    H8G12385   4.889   5.240   6.431 -1.0696  2.6243 -0.5596
  118OSM    C9F12386   4.812   5.395   6.554 -0.4265  0.6221  1.1575
  118OSM    H9F12387   4.856   5.435   6.646  1.0706 -1.7661  1.5730
  118OSM   C10F12388   4.722   5.468   6.487 -0.8311  0.5400 -0.1424
  118OSM   H10F12389   4.718   5.578   6.498 -2.6626  0.4300  0.7628
  118OSM   C11F12390   4.642   5.415   6.367 -0.1397 -0.0627  0.2498
  118OSM   H11F12391   4.551   5.477   6.352  0.8447  1.8236  1.5613
  118OSM   H11G12392   4.615   5.307   6.374 -0.5294 -0.0292 -0.7081
  118OSM   C12F12393   4.721   5.449   6.237 -0.2946 -0.1400  0.1791
  118OSM   H12F12394   4.820   5.398   6.235 -1.1791 -1.8971 -0.9272
  118OSM   H12G12395   4.737   5.558   6.223 -0.2889 -0.0362  0.9159
  118OSM   C13F12396   4.647   5.411   6.112 -0.0732  0.7647  0.5512
  118OSM   H13F12397   4.552   5.469   6.112  1.5891  3.6704  2.5038
  118OSM   H13G12398   4.630   5.302   6.097  1.0115  0.6910 -0.2915
  118OSM   C14F12399   4.716   5.475   5.990 -0.4768 -0.7699  0.5073
  118OSM   H14F12400   4.746   5.580   6.012 -0.1314 -1.0242  1.3080
  118OSM   H14G12401   4.650   5.472   5.901 -0.6815 -0.0697  0.6295
  118OSM   C15F12402   4.843   5.412   5.939 -0.3038  0.2743 -0.1685
  118OSM   H15F12403   4.822   5.305   5.917 -1.2264  0.2827  0.6299
  118OSM   H15G12404   4.927   5.410   6.011 -0.7929 -0.6826  0.3919
  118OSM   C16F12405   4.890   5.475   5.806  0.1445 -0.0309  0.4742
  118OSM   H16F12406   4.904   5.583   5.827 -4.2161  0.7591  0.3299
  118OSM   H16G12407   4.806   5.471   5.733  0.9826  2.1442 -0.6848
  118OSM   C17F12408   5.019   5.417   5.747 -0.0042  0.7584  0.3655
  118OSM   H17F12409   5.006   5.307   5.751 -2.4731  1.0037  0.6239
  118OSM   H17G12410   5.102   5.432   5.819  1.9796  0.4630 -1.7354
  118OSM   C18F12411   5.050   5.463   5.607 -0.6037 -0.4710  0.6166
  118OSM   H18F12412   5.140   5.411   5.568  0.4358 -0.3145  2.6651
  118OSM   H18G12413   5.064   5.573   5.607  1.4985 -0.7014 -0.1078
  118OSM   H18H12414   4.973   5.438   5.531  1.9460 -0.0019 -2.2760
  119OSM      N12415   2.025   0.627   7.295 -0.3624  0.3662  0.8232
  119OSM    C1512416   2.095   0.569   7.178 -0.9773 -0.5543 -0.0373
  119OSM   H15A12417   2.032   0.567   7.091 -1.0630  1.5504 -0.0703
  119OSM   H15B12418   2.121   0.466   7.196 -1.4095 -0.3816  1.7869
  119OSM   H15C12419   2.185   0.624   7.156 -0.1540 -1.1854  1.6176
  119OSM    C1412420   1.914   0.533   7.328  0.2778  0.7469  0.4068
  119OSM   H14A12421   1.825   0.548   7.269  1.4067 -0.8948 -1.8841
  119OSM   H14B12422   1.873   0.556   7.425 -2.5227  0.9075 -0.7342
  119OSM   H14C12423   1.942   0.429   7.321 -2.9165 -0.1774 -0.2167
  119OSM    C1312424   2.111   0.626   7.415 -0.4192 -0.4277  0.2052
  119OSM   H13A12425   2.210   0.663   7.391 -0.7819  1.3548  1.2861
  119OSM   H13B12426   2.124   0.536   7.472 -0.1073  1.1051  2.7060
  119OSM   H13C12427   2.070   0.694   7.489 -1.2347  0.0195 -0.6417
  119OSM    C1212428   1.968   0.768   7.262 -0.6986 -0.0288  0.4621
  119OSM   H12A12429   1.913   0.759   7.170  1.9879  0.1032 -1.2736
  119OSM   H12B12430   2.053   0.830   7.240  0.8967 -2.9902 -2.6913
  119OSM    C1112431   1.868   0.837   7.354 -0.5382 -0.3326  0.3192
  119OSM   H11A12432   1.918   0.881   7.442 -0.7504  0.5828 -0.0102
  119OSM   H11B12433   1.795   0.766   7.398 -1.6146  0.4617 -0.1419
  119OSM      P12434   1.840   1.085   7.271  0.0093 -0.3583 -0.2244
  119OSM    O1312435   1.732   1.184   7.295  0.1230  0.0993  0.0404
  119OSM    O1412436   1.968   1.111   7.343  0.0730 -0.7473 -0.2134
  119OSM    O1112437   1.868   1.106   7.123  0.0661  0.4233  0.0342
  119OSM    O1212438   1.792   0.935   7.284 -0.6450  0.7868 -0.2946
  119OSM    C1S12439   1.999   1.147   7.080  0.6098 -0.3196 -0.0695
  119OSM    H1S12440   2.082   1.075   7.091  1.5276  0.9895  2.3289
  119OSM    H1T12441   2.029   1.236   7.138  0.7155 -1.4514  1.6776
  119OSM     NF12442   2.135   1.213   6.900 -0.0786  0.4720 -0.1233
  119OSM    HNF12443   2.154   1.310   6.906 -2.5470  0.9795  0.2716
  119OSM    C2S12444   1.998   1.186   6.931 -0.7108  0.4708  0.6073
  119OSM    H2S12445   1.964   1.097   6.874  0.0309  1.8393 -2.1314
  119OSM    C3S12446   1.910   1.315   6.912 -0.1391  0.1091 -0.5027
  119OSM    H3S12447   1.974   1.396   6.954 -0.8619 -0.8762  2.8521
  119OSM     O312448   1.789   1.324   6.983 -0.2967  0.2320  0.0094
  119OSM    HO312449   1.786   1.251   7.045 -0.9231 -0.3343 -0.6666
  119OSM    C4S12450   1.893   1.354   6.764 -0.4590  0.0201  0.1421
  119OSM    H4S12451   1.984   1.405   6.729 -0.0831 -0.9283 -0.2967
  119OSM    C5S12452   1.788   1.332   6.680 -0.5257  0.3385  0.1457
  119OSM    H5S12453   1.707   1.273   6.725  0.4270 -2.1116 -1.1812
  119OSM    C6S12454   1.790   1.358   6.530  0.9825  0.3298  0.0650
  119OSM    H6S12455   1.814   1.463   6.503  1.4622 -0.2230 -1.7554
  119OSM    H6T12456   1.686   1.339   6.494  0.2592 -1.7977  2.9058
  119OSM    C7S12457   1.886   1.272   6.443 -0.3024  0.2106  0.0834
  119OSM    H7S12458   1.874   1.162   6.457 -1.3600  0.1986 -0.7831
  119OSM    H7T12459   1.992   1.287   6.474 -0.8323  1.5607  1.4046
  119OSM    C8S12460   1.863   1.315   6.290 -0.2165  0.1680  0.6357
  119OSM    H8S12461   1.846   1.423   6.271  1.1622 -0.0634 -2.4050
  119OSM    H8T12462   1.763   1.272   6.266  1.3961 -3.8945  0.3746
  119OSM    C9S12463   1.967   1.257   6.195  0.1466  0.5939  0.2754
  119OSM    H9S12464   1.994   1.155   6.229  0.0321 -0.0237 -1.3856
  119OSM    H9T12465   2.056   1.322   6.186  0.6117 -0.0409  0.2462
  119OSM   C10S12466   1.923   1.225   6.048 -0.3994  0.1173  0.1817
  119OSM   H10S12467   1.914   1.323   5.995  0.0510  0.9100  1.5140
  119OSM   H10T12468   1.822   1.179   6.056 -1.5317  2.5241  1.1550
  119OSM   C11S12469   2.015   1.149   5.952  0.4030  0.0582  0.2101
  119OSM   H11S12470   2.036   1.053   6.003  3.8975 -0.1424 -1.3427
  119OSM   H11T12471   2.109   1.203   5.930 -1.3906  2.9747 -0.9576
  119OSM   C12S12472   1.960   1.119   5.809  0.2967  0.1853  0.3182
  119OSM   H12S12473   1.989   1.200   5.738  1.3672  0.2730  0.8364
  119OSM   H12T12474   1.850   1.127   5.821  0.2476 -0.8051  0.6172
  119OSM   C13S12475   2.003   0.987   5.754 -0.0097 -0.1558  0.0501
  119OSM   H13S12476   1.970   0.900   5.815 -0.5260  0.5034  0.7277
  119OSM   H13T12477   2.113   0.991   5.739  0.0355 -0.1458  0.3806
  119OSM   C14S12478   1.956   0.962   5.610 -0.2482  0.6681 -0.2743
  119OSM   H14S12479   1.942   1.049   5.542 -2.7438 -0.2266 -1.0022
  119OSM   H14T12480   1.853   0.922   5.623 -0.5536  1.5695  0.2100
  119OSM   C15S12481   2.042   0.857   5.537 -0.0792  0.0791  1.1923
  119OSM   H15S12482   2.047   0.775   5.611 -1.0661 -0.9423  0.1712
  119OSM   H15T12483   2.144   0.897   5.520 -0.8682  1.1344 -1.5912
  119OSM   C16S12484   1.990   0.798   5.403  0.2819  0.0961 -0.0545
  119OSM   H16S12485   1.884   0.765   5.398  1.1235 -3.4141  1.7623
  119OSM   H16T12486   2.044   0.706   5.372  0.4887  1.0602 -2.8891
  119OSM   C17S12487   2.015   0.904   5.294 -0.5259  0.2200 -0.1669
  119OSM   H17S12488   2.123   0.932   5.292 -0.1062 -1.3682 -1.8698
  119OSM   H17T12489   1.955   0.995   5.317 -1.2324  0.4188 -2.5442
  119OSM   C18S12490   1.990   0.866   5.153  0.1421 -0.0250  0.4534
  119OSM   H18S12491   2.006   0.947   5.079 -0.8647  0.4450  0.7265
  119OSM   H18T12492   1.882   0.841   5.144 -0.2140  1.3190  0.7196
  119OSM   H18U12493   2.046   0.772   5.133 -2.3520 -1.0523 -2.6386
  119OSM    C1F12494   2.231   1.116   6.883  0.1976 -0.2446 -0.1161
  119OSM     OF12495   2.208   0.999   6.895 -0.6451  0.8431 -0.1476
  119OSM    C2F12496   2.364   1.162   6.858 -0.4014 -0.2310 -0.1775
  119OSM    H2F12497   2.432   1.075   6.844  1.2769  0.8649  0.7686
  119OSM    H2G12498   2.390   1.227   6.945 -1.7160 -1.8048  1.4637
  119OSM    C3F12499   2.374   1.253   6.731 -0.0523 -0.2648  0.5176
  119OSM    H3F12500   2.481   1.275   6.713  0.5466 -2.5890  0.8629
  119OSM    H3G12501   2.322   1.349   6.754 -0.2764 -0.1529 -0.3903
  119OSM    C4F12502   2.303   1.191   6.608  0.1948  0.1054  0.3903
  119OSM    H4F12503   2.199   1.158   6.627 -0.4821  1.8461 -0.0749
  119OSM    H4G12504   2.355   1.101   6.568  1.1986  0.8561 -0.0451
  119OSM    C5F12505   2.286   1.287   6.492 -0.1492  0.7905  0.0395
  119OSM    H5F12506   2.361   1.367   6.511  0.5087  0.6298 -1.6972
  119OSM    H5G12507   2.188   1.339   6.500 -0.2239  0.4926  1.2246
  119OSM    C6F12508   2.293   1.236   6.349  0.4329 -0.7108 -0.6188
  119OSM    H6F12509   2.275   1.322   6.282  0.0442  0.1455  0.5603
  119OSM    H6G12510   2.222   1.151   6.341 -1.1545  0.3208  1.5302
  119OSM    C7F12511   2.435   1.177   6.310  0.6325  0.2104 -0.0987
  119OSM    H7F12512   2.468   1.090   6.371  2.1059  1.8096  1.5179
  119OSM    H7G12513   2.521   1.248   6.319  1.1981  0.1703 -3.8569
  119OSM    C8F12514   2.447   1.130   6.155  0.5032  0.2942 -0.1608
  119OSM    H8F12515   2.546   1.087   6.128  0.0098 -0.3328 -1.0372
  119OSM    H8G12516   2.432   1.224   6.097 -1.4594  0.9720  1.3353
  119OSM    C9F12517   2.345   1.018   6.112 -0.7349 -0.0071 -0.4428
  119OSM    H9F12518   2.276   0.979   6.188 -1.9843  0.7144 -1.1760
  119OSM   C10F12519   2.326   0.981   5.986  0.5816 -0.1473 -0.0935
  119OSM   H10F12520   2.247   0.906   5.971  0.0764  0.0987  1.2122
  119OSM   C11F12521   2.404   1.032   5.872  0.5924  0.7776  0.5200
  119OSM   H11F12522   2.487   1.102   5.896  0.5470  1.0079  0.0072
  119OSM   H11G12523   2.332   1.086   5.807  2.5258  2.3989 -0.3944
  119OSM   C12F12524   2.465   0.912   5.788  0.3110 -0.1436  0.1895
  119OSM   H12F12525   2.381   0.855   5.744  0.2005 -0.5730  0.9399
  119OSM   H12G12526   2.521   0.841   5.853 -1.2725  0.2058  2.0437
  119OSM   C13F12527   2.562   0.963   5.692  0.1197  0.1857  0.4195
  119OSM   H13F12528   2.651   1.014   5.736  1.2950 -0.6356 -0.8889
  119OSM   H13G12529   2.515   1.037   5.624 -1.2644 -1.1418 -0.1284
  119OSM   C14F12530   2.617   0.837   5.614 -0.0339  0.4664  0.1822
  119OSM   H14F12531   2.537   0.775   5.570  0.3349  0.7579 -0.9297
  119OSM   H14G12532   2.666   0.759   5.676 -1.9592 -1.0654 -0.1641
  119OSM   C15F12533   2.710   0.881   5.502  0.0506 -0.3236 -0.0238
  119OSM   H15F12534   2.813   0.902   5.539 -0.0701  0.1532  0.0502
  119OSM   H15G12535   2.681   0.966   5.436  0.1196 -1.2155 -1.2345
  119OSM   C16F12536   2.723   0.760   5.405  0.2681 -0.3181  0.5358
  119OSM   H16F12537   2.623   0.715   5.388  1.2599 -1.4785 -3.0952
  119OSM   H16G12538   2.776   0.686   5.469 -1.3165  0.8030  3.3192
  119OSM   C17F12539   2.780   0.794   5.271  0.5702 -0.7420 -0.2703
  119OSM   H17F12540   2.812   0.698   5.224 -1.4042 -0.0734 -3.2551
  119OSM   H17G12541   2.866   0.857   5.301 -0.7970 -0.3816  3.4578
  119OSM   C18F12542   2.691   0.869   5.170  0.0593 -0.6946  0.0458
  119OSM   H18F12543   2.659   0.964   5.219  1.6795  0.3067 -0.7285
  119OSM   H18G12544   2.601   0.813   5.139  0.5069 -2.2986  1.4927
  119OSM   H18H12545   2.745   0.893   5.076  0.5543 -2.9886 -0.3021
  120OSM      N12546   4.038   0.734   7.492  0.2216 -0.2430 -0.5992
  120OSM    C1512547   3.992   0.620   7.564  0.0564 -0.5807  0.3938
  120OSM   H15A12548   3.954   0.548   7.493  0.9442  0.9500 -1.7276
  120OSM   H15B12549   3.910   0.653   7.626 -1.2730 -0.0908 -1.5340
  120OSM   H15C12550   4.067   0.585   7.633  0.6658  0.4276  0.2457
  120OSM    C1412551   3.914   0.799   7.442 -0.4492  0.0393 -0.4847
  120OSM   H14A12552   3.934   0.888   7.384  0.2923  0.7983  0.8755
  120OSM   H14B12553   3.862   0.834   7.531  2.0768  1.4295  0.5795
  120OSM   H14C12554   3.863   0.736   7.371  0.0766  0.7866 -1.5579
  120OSM    C1312555   4.096   0.836   7.585 -0.1131  0.3060  0.6425
  120OSM   H13A12556   4.187   0.815   7.640  1.5571  1.4271 -1.5296
  120OSM   H13B12557   4.024   0.881   7.651  0.5736  1.7352  0.4704
  120OSM   H13C12558   4.116   0.918   7.518  1.4077  0.8603  1.7288
  120OSM    C1212559   4.130   0.687   7.384 -0.4453  0.2229 -0.8940
  120OSM   H12A12560   4.078   0.612   7.326 -0.7291  1.0373 -1.7139
  120OSM   H12B12561   4.215   0.638   7.428 -0.0554  0.9769 -0.7829
  120OSM    C1112562   4.186   0.796   7.289 -0.2621  0.2739 -0.2527
  120OSM   H11A12563   4.098   0.851   7.250 -1.1503 -0.4190  0.7132
  120OSM   H11B12564   4.222   0.739   7.200  0.3984  0.4505 -0.1077
  120OSM      P12565   4.340   1.008   7.269  0.3720  0.0577  0.1925
  120OSM    O1312566   4.322   1.126   7.350 -0.1302  0.1473 -0.0769
  120OSM    O1412567   4.476   0.980   7.212 -0.4343 -0.4331 -0.2497
  120OSM    O1112568   4.248   1.022   7.142  0.1417 -0.1235  0.6346
  120OSM    O1212569   4.285   0.885   7.348  0.0080 -0.3853 -0.0179
  120OSM    C1S12570   4.290   0.984   7.010  0.0843  0.7309 -0.2805
  120OSM    H1S12571   4.318   0.877   7.017 -1.2451  0.3739 -0.1584
  120OSM    H1T12572   4.389   1.025   6.982  0.0713  0.0197 -1.4325
  120OSM     NF12573   4.235   0.960   6.768 -0.8400 -0.5967 -0.1224
  120OSM    HNF12574   4.254   1.031   6.701 -1.8477  1.0526  1.2585
  120OSM    C2S12575   4.181   1.002   6.897 -0.1703  0.2690  0.1071
  120OSM    H2S12576   4.099   0.929   6.917  0.3562 -0.1552  0.7860
  120OSM    C3S12577   4.125   1.146   6.892 -0.1226 -0.2858  0.6074
  120OSM    H3S12578   4.208   1.212   6.859  0.6064 -1.5215 -0.1148
  120OSM     O312579   4.089   1.187   7.024  0.2248 -0.2688 -0.0481
  120OSM    HO312580   4.132   1.124   7.081 -0.5441  0.2465  1.1483
  120OSM    C4S12581   4.019   1.168   6.786 -0.1583  0.1925  0.4918
  120OSM    H4S12582   4.059   1.188   6.685 -0.7351  0.0489  0.2287
  120OSM    C5S12583   3.885   1.178   6.794 -0.1521 -0.5249 -0.1281
  120OSM    H5S12584   3.830   1.165   6.889  0.4415  0.0077  0.2953
  120OSM    C6S12585   3.792   1.223   6.684 -0.4731 -0.0171  0.5542
  120OSM    H6S12586   3.759   1.324   6.717 -1.7094  0.0879 -0.8919
  120OSM    H6T12587   3.697   1.165   6.676 -0.0847 -0.4589 -1.2525
  120OSM    C7S12588   3.856   1.244   6.541 -0.3964  0.5765 -0.3191
  120OSM    H7S12589   3.873   1.147   6.491 -3.0332  0.8872 -2.0422
  120OSM    H7T12590   3.945   1.311   6.545 -0.9061  1.2778 -0.3857
  120OSM    C8S12591   3.759   1.314   6.449  1.0592  0.5623 -0.6388
  120OSM    H8S12592   3.734   1.420   6.471  2.4121  1.0727 -1.4189
  120OSM    H8T12593   3.659   1.266   6.451  0.3285  2.0240  0.0462
  120OSM    C9S12594   3.811   1.321   6.305  0.0620 -0.3800 -0.3888
  120OSM    H9S12595   3.851   1.225   6.266 -0.4859 -0.8362  0.1585
  120OSM    H9T12596   3.898   1.391   6.302  0.1318 -0.5005 -2.4016
  120OSM   C10S12597   3.711   1.391   6.211 -0.4992 -1.0176 -0.5958
  120OSM   H10S12598   3.666   1.482   6.256 -1.4635 -2.1386  0.7987
  120OSM   H10T12599   3.619   1.330   6.195 -1.5539  0.4927 -0.5636
  120OSM   C11S12600   3.782   1.428   6.078 -0.0965  0.5426  0.0349
  120OSM   H11S12601   3.849   1.514   6.099 -0.8787  1.5711 -1.5063
  120OSM   H11T12602   3.704   1.475   6.015 -0.2674  0.8621  0.4860
  120OSM   C12S12603   3.858   1.320   6.006 -0.0310  0.0055  0.2280
  120OSM   H12S12604   3.803   1.226   6.029 -0.7416  0.1244 -0.8968
  120OSM   H12T12605   3.965   1.312   6.035 -0.3362 -2.0624  0.9619
  120OSM   C13S12606   3.879   1.337   5.857 -0.5466  0.1251 -0.0227
  120OSM   H13S12607   3.790   1.320   5.792  0.4272 -0.0923 -1.3408
  120OSM   H13T12608   3.957   1.263   5.827 -0.7881  0.1416 -0.6977
  120OSM   C14S12609   3.924   1.479   5.831 -0.7309 -0.5349  0.3991
  120OSM   H14S12610   3.977   1.515   5.922  1.3758  1.0411 -1.3459
  120OSM   H14T12611   3.823   1.526   5.821  0.5958  2.1723 -1.5835
  120OSM   C15S12612   4.011   1.505   5.711  0.1941 -0.1669 -0.0835
  120OSM   H15S12613   4.105   1.447   5.724  2.0353  2.8240  1.0468
  120OSM   H15T12614   4.032   1.613   5.696  4.3110 -1.1307 -3.3297
  120OSM   C16S12615   3.950   1.443   5.579  0.3562  0.7306  0.8642
  120OSM   H16S12616   3.840   1.445   5.588  0.2014 -0.2663 -0.5282
  120OSM   H16T12617   3.974   1.335   5.567 -2.0046  0.2506 -0.0550
  120OSM   C17S12618   3.997   1.509   5.444  0.1474 -0.3502  0.2678
  120OSM   H17S12619   4.105   1.496   5.423  0.3755  0.5177  0.8523
  120OSM   H17T12620   3.979   1.619   5.442 -1.4615 -0.5964 -1.8032
  120OSM   C18S12621   3.929   1.455   5.320  0.9857  0.4582 -0.0708
  120OSM   H18S12622   3.990   1.468   5.228 -2.2664  2.5315 -2.1482
  120OSM   H18T12623   3.833   1.509   5.305  0.6090 -0.1522  0.1140
  120OSM   H18U12624   3.912   1.346   5.334 -0.3041  0.6202 -0.2454
  120OSM    C1F12625   4.272   0.839   6.736  0.4590  0.0883  0.1314
  120OSM     OF12626   4.242   0.744   6.808 -0.8340 -0.1938  0.0985
  120OSM    C2F12627   4.350   0.818   6.605  0.2857 -0.6515 -0.2278
  120OSM    H2F12628   4.428   0.742   6.626  0.5600 -1.1777 -2.8130
  120OSM    H2G12629   4.390   0.918   6.579 -0.5633 -0.5555 -1.2871
  120OSM    C3F12630   4.263   0.758   6.492 -0.0953 -0.1556  0.9618
  120OSM    H3F12631   4.208   0.848   6.457 -1.0554 -0.1301  2.4142
  120OSM    H3G12632   4.183   0.691   6.531  0.5055 -2.8336 -2.0389
  120OSM    C4F12633   4.339   0.692   6.369  0.1178  0.3763 -1.0205
  120OSM    H4F12634   4.397   0.599   6.389 -0.1429  0.0874 -1.5864
  120OSM    H4G12635   4.415   0.763   6.330  0.2453  0.1031 -1.2682
  120OSM    C5F12636   4.249   0.666   6.252  0.5020  0.1700  0.4481
  120OSM    H5F12637   4.195   0.760   6.226 -0.4174 -0.6490 -0.7054
  120OSM    H5G12638   4.173   0.592   6.285 -0.3129  0.0690 -1.4985
  120OSM    C6F12639   4.326   0.622   6.129 -0.2776 -0.2265  0.4270
  120OSM    H6F12640   4.369   0.520   6.137  2.2600  0.7006 -0.5123
  120OSM    H6G12641   4.412   0.692   6.126  0.7298 -1.3212  2.2731
  120OSM    C7F12642   4.251   0.650   5.999  0.2845  0.5166 -0.0463
  120OSM    H7F12643   4.247   0.760   5.990  1.7163  0.8288  2.3899
  120OSM    H7G12644   4.150   0.605   6.011  0.2825  0.5046 -0.1067
  120OSM    C8F12645   4.306   0.571   5.873  0.7788 -1.0340  0.0034
  120OSM    H8F12646   4.283   0.463   5.886 -1.3172 -0.4846  1.3389
  120OSM    H8G12647   4.416   0.577   5.888  0.6057 -0.7067  1.2757
  120OSM    C9F12648   4.275   0.642   5.738  0.5156 -0.0121  0.1895
  120OSM    H9F12649   4.221   0.738   5.742 -0.4261 -0.5687  1.6726
  120OSM   C10F12650   4.302   0.592   5.615 -0.6011 -0.2573 -0.3397
  120OSM   H10F12651   4.282   0.647   5.522 -1.6879 -0.1051 -0.0260
  120OSM   C11F12652   4.387   0.476   5.591  0.7517 -0.1412 -0.4583
  120OSM   H11F12653   4.409   0.418   5.683 -0.0681 -0.5418 -0.5052
  120OSM   H11G12654   4.485   0.524   5.571  1.3989 -0.7765  1.1090
  120OSM   C12F12655   4.350   0.387   5.468 -0.0539 -0.7351 -0.2024
  120OSM   H12F12656   4.343   0.452   5.378  1.4023  1.7034  1.3159
  120OSM   H12G12657   4.247   0.344   5.476 -1.2105  1.8629 -0.1616
  120OSM   C13F12658   4.452   0.275   5.445  0.2460  0.9639 -0.0730
  120OSM   H13F12659   4.464   0.199   5.525  0.3193  0.4950 -0.5262
  120OSM   H13G12660   4.553   0.321   5.436  0.1927  0.8404 -1.5102
  120OSM   C14F12661   4.433   0.215   5.305 -0.1804 -0.0872 -0.2660
  120OSM   H14F12662   4.430   0.296   5.229  1.3749 -0.7355 -1.0611
  120OSM   H14G12663   4.337   0.159   5.309  0.4290 -1.1899 -0.6899
  120OSM   C15F12664   4.540   0.113   5.272  0.5738 -0.0887 -0.4512
  120OSM   H15F12665   4.529   0.048   5.361  0.0005 -0.8106 -1.0326
  120OSM   H15G12666   4.641   0.158   5.264  0.7179 -0.3440 -0.1019
  120OSM   C16F12667   4.527   0.030   5.147  0.8398  0.0360  0.0003
  120OSM   H16F12668   4.497   0.098   5.065 -0.5373 -0.0176  0.4325
  120OSM   H16G12669   4.444  -0.042   5.165  1.9604 -1.2874  0.0221
  120OSM   C17F12670   4.653  -0.043   5.101  0.4996 -1.2627  0.3932
  120OSM   H17F12671   4.727   0.036   5.078 -1.2545  0.2736 -0.1897
  120OSM   H17G12672   4.633  -0.101   5.009  3.0888 -1.6488 -0.0132
  120OSM   C18F12673   4.714  -0.134   5.204 -0.1120  0.1774 -0.0127
  120OSM   H18F12674   4.718  -0.093   5.307  1.4627 -1.3165  0.5569
  120OSM   H18G12675   4.816  -0.164   5.172  0.6066  1.0359  1.4159
  120OSM   H18H12676   4.645  -0.222   5.208  0.7116 -0.5861 -1.6285
  121OSM      N12677   5.162   3.297   6.966 -0.0792 -0.3514 -0.5046
  121OSM    C1512678   5.285   3.309   7.049  0.2610  0.4600 -0.0926
  121OSM   H15A12679   5.360   3.234   7.034 -1.3400 -0.8522 -2.0799
  121OSM   H15B12680   5.258   3.323   7.152 -1.5085 -0.9616 -0.3107
  121OSM   H15C12681   5.335   3.398   7.012 -1.4510  1.1836 -0.7828
  121OSM    C1412682   5.110   3.164   6.990 -0.0507  0.1073  0.1363
  121OSM   H14A12683   5.094   3.154   7.096 -0.9109 -0.7258 -0.0600
  121OSM   H14B12684   5.179   3.081   6.982  0.8722  0.7775  0.9115
  121OSM   H14C12685   5.019   3.146   6.935 -1.4638  1.5254  1.8960
  121OSM    C1312686   5.064   3.404   7.016 -0.1562 -0.0716  0.2149
  121OSM   H13A12687   5.096   3.507   7.011  0.2182 -0.2399 -1.7247
  121OSM   H13B12688   5.039   3.382   7.119 -0.6639  1.3881  0.4311
  121OSM   H13C12689   4.973   3.399   6.957  0.7304 -2.6355 -1.1003
  121OSM    C1212690   5.195   3.322   6.818  0.2054 -0.3195 -0.4605
  121OSM   H12A12691   5.243   3.419   6.821 -1.4788  0.5344  1.6980
  121OSM   H12B12692   5.110   3.323   6.752  2.1036 -0.8559 -3.0798
  121OSM    C1112693   5.288   3.227   6.741  0.0490 -0.8866  0.3452
  121OSM   H11A12694   5.293   3.239   6.631 -0.3867 -1.2264  0.2836
  121OSM   H11B12695   5.239   3.127   6.747  0.2377 -0.9717  0.4995
  121OSM      P12696   5.533   3.287   6.788 -0.3847  0.3426  0.0417
  121OSM    O1312697   5.515   3.398   6.883 -0.5775 -0.6156 -0.0701
  121OSM    O1412698   5.658   3.203   6.797 -0.2418 -0.6756  0.0722
  121OSM    O1112699   5.510   3.336   6.644  0.5755  0.1230  0.1823
  121OSM    O1212700   5.413   3.192   6.797 -0.1916  0.2522  0.2253
  121OSM    C1S12701   5.605   3.411   6.574  0.9245  0.3204 -0.5123
  121OSM    H1S12702   5.704   3.360   6.577  1.2380  0.9257 -0.3684
  121OSM    H1T12703   5.597   3.515   6.611 -0.4713  0.0910 -0.1074
  121OSM     NF12704   5.694   3.506   6.346 -0.3381 -0.1809  0.2647
  121OSM    HNF12705   5.664   3.596   6.314  0.9793  0.4494  0.7389
  121OSM    C2S12706   5.578   3.443   6.418  0.1695  0.3303 -0.6357
  121OSM    H2S12707   5.560   3.343   6.372  1.2750 -0.0025 -0.3836
  121OSM    C3S12708   5.451   3.530   6.402  0.2812  0.0410  0.8963
  121OSM    H3S12709   5.475   3.626   6.453  0.6918  0.5098 -0.1617
  121OSM     O312710   5.341   3.468   6.470 -0.4292  0.4545 -0.0480
  121OSM    HO312711   5.384   3.398   6.518  0.0186 -0.5729 -1.8320
  121OSM    C4S12712   5.414   3.557   6.258 -0.2095 -0.6130  0.5110
  121OSM    H4S12713   5.485   3.623   6.206 -1.2052  1.3273  1.5347
  121OSM    C5S12714   5.332   3.484   6.180 -0.2197  0.1150 -0.3097
  121OSM    H5S12715   5.272   3.405   6.228  0.6325  0.1274  0.8213
  121OSM    C6S12716   5.331   3.488   6.030  0.0363  0.0708 -0.1821
  121OSM    H6S12717   5.271   3.576   5.997  2.2718  2.5509  1.8225
  121OSM    H6T12718   5.275   3.396   6.004 -1.9657  1.0825  0.3614
  121OSM    C7S12719   5.473   3.496   5.963  0.4337  0.1888  0.0152
  121OSM    H7S12720   5.524   3.401   5.990 -0.8724 -0.8863 -1.1365
  121OSM    H7T12721   5.540   3.573   6.007 -0.5905 -0.9159  3.9403
  121OSM    C8S12722   5.450   3.495   5.815 -0.8377  0.6933  0.7335
  121OSM    H8S12723   5.436   3.596   5.771 -0.0585  0.1038 -0.9788
  121OSM    H8T12724   5.363   3.430   5.789 -0.4777  0.0318  1.1527
  121OSM    C9S12725   5.572   3.437   5.733  0.0642 -0.0019 -0.0744
  121OSM    H9S12726   5.603   3.346   5.788 -0.9797 -0.7063 -0.6167
  121OSM    H9T12727   5.659   3.507   5.741  0.8972 -0.8592 -1.2820
  121OSM   C10S12728   5.522   3.405   5.589 -0.3411 -0.0105  0.3890
  121OSM   H10S12729   5.609   3.392   5.520 -0.6591 -1.2762  0.1996
  121OSM   H10T12730   5.462   3.493   5.557 -0.0894 -0.0533 -0.2317
  121OSM   C11S12731   5.442   3.281   5.564  0.0663  0.2226 -0.1490
  121OSM   H11S12732   5.365   3.278   5.644  0.1609 -1.8201 -0.0787
  121OSM   H11T12733   5.514   3.197   5.575  0.8627  0.6385 -1.8542
  121OSM   C12S12734   5.377   3.280   5.414 -0.3979 -0.4948  0.9370
  121OSM   H12S12735   5.300   3.201   5.408 -0.4908 -0.4706  1.6512
  121OSM   H12T12736   5.456   3.249   5.343 -0.3604 -1.8600  1.5401
  121OSM   C13S12737   5.332   3.419   5.354 -0.6782  0.7226 -0.4174
  121OSM   H13S12738   5.428   3.471   5.333 -0.3532  0.0523 -0.6157
  121OSM   H13T12739   5.278   3.477   5.432  0.8368  2.2297 -0.4261
  121OSM   C14S12740   5.255   3.399   5.233  0.1191 -0.0777 -0.1918
  121OSM   H14S12741   5.157   3.353   5.258  1.3071 -2.5272  0.2804
  121OSM   H14T12742   5.300   3.333   5.155 -0.6722 -0.0151 -0.7118
  121OSM   C15S12743   5.233   3.533   5.170 -0.1009 -0.2252 -0.2103
  121OSM   H15S12744   5.328   3.589   5.173  0.0657 -0.5329  0.9547
  121OSM   H15T12745   5.176   3.599   5.239  3.4272 -0.0845  2.8887
  121OSM   C16S12746   5.177   3.530   5.029 -0.3849 -0.1965  0.2268
  121OSM   H16S12747   5.254   3.487   4.961 -2.2257 -3.3513 -0.0451
  121OSM   H16T12748   5.163   3.636   5.000 -0.8346  0.6034  3.0528
  121OSM   C17S12749   5.048   3.450   5.012 -0.3319  0.2036  0.2046
  121OSM   H17S12750   4.988   3.451   5.106 -0.2158 -1.8093  0.3541
  121OSM   H17T12751   5.068   3.341   5.000 -0.3589  0.3100 -0.8692
  121OSM   C18S12752   4.969   3.497   4.898  0.7482 -0.3745  0.0983
  121OSM   H18S12753   4.999   3.458   4.799 -0.9103  0.5002 -0.7983
  121OSM   H18T12754   4.973   3.608   4.896 -1.0694 -0.2548  1.2026
  121OSM   H18U12755   4.862   3.469   4.913  0.3346  1.7082  1.6336
  121OSM    C1F12756   5.812   3.455   6.325 -0.3527  1.0298  0.2166
  121OSM     OF12757   5.834   3.339   6.359 -0.1315  0.0199 -0.5488
  121OSM    C2F12758   5.912   3.537   6.248  0.2877 -0.3912  0.5662
  121OSM    H2F12759   6.008   3.527   6.304 -0.0909  2.3996  1.8623
  121OSM    H2G12760   5.882   3.643   6.234  2.1231  0.1106  0.1378
  121OSM    C3F12761   5.924   3.490   6.103 -0.7620 -0.3090  0.8558
  121OSM    H3F12762   5.827   3.475   6.053 -0.0760 -1.1359 -0.2646
  121OSM    H3G12763   5.976   3.392   6.109 -1.7651 -0.8972  0.2578
  121OSM    C4F12764   6.005   3.586   6.012 -0.6294 -0.2062  0.7094
  121OSM    H4F12765   6.100   3.627   6.050  0.3748  1.2923 -2.9343
  121OSM    H4G12766   5.941   3.676   6.006  0.0929  0.2812  0.0755
  121OSM    C5F12767   6.028   3.521   5.875 -0.4951 -0.3759  0.2328
  121OSM    H5F12768   5.935   3.479   5.832  0.4309 -1.5058 -0.7061
  121OSM    H5G12769   6.098   3.436   5.882 -0.0269 -0.0704 -0.6307
  121OSM    C6F12770   6.082   3.629   5.784 -1.3757 -0.7073  0.5769
  121OSM    H6F12771   6.165   3.683   5.835 -1.8330  0.5808 -0.0063
  121OSM    H6G12772   6.004   3.704   5.758 -2.2788 -2.4126 -2.0137
  121OSM    C7F12773   6.147   3.566   5.658 -0.0194 -0.0787 -0.3848
  121OSM    H7F12774   6.197   3.470   5.682  1.4560  1.1985  2.1192
  121OSM    H7G12775   6.233   3.634   5.636  1.4643 -1.6436  0.3924
  121OSM    C8F12776   6.051   3.564   5.537 -0.9306  0.0836  0.5842
  121OSM    H8F12777   6.020   3.668   5.512  1.5218  0.9635  0.9384
  121OSM    H8G12778   5.960   3.508   5.569 -0.4341  0.4878  2.9138
  121OSM    C9F12779   6.121   3.500   5.413  0.7924 -0.1880 -0.2559
  121OSM    H9F12780   6.222   3.543   5.403  0.2498  1.2963  0.2967
  121OSM   C10F12781   6.067   3.401   5.330 -0.0203  0.4063  1.2039
  121OSM   H10F12782   6.122   3.370   5.239 -0.7954 -1.6745  1.3978
  121OSM   C11F12783   5.943   3.319   5.353 -0.6474 -0.9116  0.0785
  121OSM   H11F12784   5.855   3.344   5.290 -0.5182  0.3691  0.3792
  121OSM   H11G12785   5.904   3.330   5.457 -0.3054 -0.5773  0.1702
  121OSM   C12F12786   5.961   3.165   5.338 -0.1057 -0.1603  0.0974
  121OSM   H12F12787   5.867   3.114   5.366 -0.0837  0.0508  0.5573
  121OSM   H12G12788   6.032   3.129   5.416 -0.9515 -2.4273 -0.1087
  121OSM   C13F12789   6.007   3.103   5.203 -0.0494 -0.6911  0.1257
  121OSM   H13F12790   5.994   2.994   5.221 -0.9899 -0.7184 -0.6371
  121OSM   H13G12791   6.118   3.102   5.195 -0.1423 -0.8396 -1.3636
  121OSM   C14F12792   5.928   3.152   5.080  0.0888 -0.5025  0.3268
  121OSM   H14F12793   5.954   3.253   5.041 -0.9099 -0.0434  0.8215
  121OSM   H14G12794   5.824   3.176   5.111  0.4935  1.9956 -0.0070
  121OSM   C15F12795   5.925   3.047   4.968  0.5257 -0.0930  0.1911
  121OSM   H15F12796   6.032   3.025   4.949  0.7164  1.1708 -0.3185
  121OSM   H15G12797   5.885   3.088   4.873  0.2047 -1.2811 -0.2046
  121OSM   C16F12798   5.847   2.915   5.011 -0.0887 -0.4841  0.2410
  121OSM   H16F12799   5.742   2.934   5.039 -0.1637  3.6497 -1.9928
  121OSM   H16G12800   5.900   2.862   5.093  3.4023 -0.8426 -2.0004
  121OSM   C17F12801   5.848   2.817   4.888  0.1996 -0.0718 -0.1977
  121OSM   H17F12802   5.803   2.719   4.914 -1.0802  0.2633 -1.0682
  121OSM   H17G12803   5.954   2.791   4.864 -0.3800 -1.1809 -1.7011
  121OSM   C18F12804   5.786   2.873   4.756  0.3515 -0.1695  0.0238
  121OSM   H18F12805   5.850   2.957   4.722  0.3429 -0.4173 -0.6130
  121OSM   H18G12806   5.681   2.905   4.774  0.4262  0.3253 -0.3827
  121OSM   H18H12807   5.784   2.801   4.672 -1.8413 -0.3282  0.1472
  122OSM      N12808   3.616   5.411   7.446 -0.0671  0.1097  0.4374
  122OSM    C1512809   3.617   5.516   7.542  0.4170 -0.6047 -0.7221
  122OSM   H15A12810   3.604   5.480   7.643  0.3381 -0.8181 -0.8083
  122OSM   H15B12811   3.535   5.585   7.524 -0.6082 -1.1487  1.5490
  122OSM   H15C12812   3.715   5.560   7.553  1.1002 -1.7110 -2.0323
  122OSM    C1412813   3.714   5.312   7.485 -0.2137  0.2969 -1.2946
  122OSM   H14A12814   3.738   5.235   7.413 -1.4377  1.2853 -2.8391
  122OSM   H14B12815   3.705   5.270   7.583  4.1883  1.7498 -0.0034
  122OSM   H14C12816   3.810   5.359   7.503 -0.6308  0.7142 -0.0806
  122OSM    C1312817   3.474   5.352   7.446  0.1702  0.6244 -0.1790
  122OSM   H13A12818   3.454   5.328   7.549  0.9702 -0.3286 -0.2352
  122OSM   H13B12819   3.474   5.263   7.385 -1.9501  1.2302 -1.1479
  122OSM   H13C12820   3.406   5.419   7.395 -1.7147  0.6718  2.2328
  122OSM    C1212821   3.647   5.469   7.303 -0.0898  0.3917  0.7126
  122OSM   H12A12822   3.667   5.388   7.235  0.3454 -0.8565  2.2639
  122OSM   H12B12823   3.743   5.519   7.300 -0.3319  0.8065 -0.5894
  122OSM    C1112824   3.549   5.573   7.234 -0.2108 -0.1696  0.8746
  122OSM   H11A12825   3.449   5.525   7.241 -0.0391 -1.2235 -2.3591
  122OSM   H11B12826   3.573   5.592   7.127 -0.7468  2.7222  1.2066
  122OSM      P12827   3.659   5.799   7.284 -0.1467 -0.0511  0.1798
  122OSM    O1312828   3.647   5.881   7.406 -0.0427 -0.7337 -0.1566
  122OSM    O1412829   3.794   5.738   7.259 -0.2159  0.2718  0.3966
  122OSM    O1112830   3.614   5.880   7.158  0.2543  0.3023 -0.1474
  122OSM    O1212831   3.546   5.694   7.307 -0.1313  0.3474  0.1303
  122OSM    C1S12832   3.664   5.871   7.021  0.1144 -0.3600  0.1388
  122OSM    H1S12833   3.681   5.767   6.986 -0.6671  0.1955 -2.0748
  122OSM    H1T12834   3.759   5.927   7.026 -0.0194 -0.0462 -0.6004
  122OSM     NF12835   3.647   5.928   6.802  0.0305  0.4877  0.4590
  122OSM    HNF12836   3.707   6.003   6.774  0.7897 -0.1498  0.3316
  122OSM    C2S12837   3.583   5.948   6.923  0.0055  0.0110 -0.0137
  122OSM    H2S12838   3.480   5.909   6.911 -0.0270  0.7272 -2.9762
  122OSM    C3S12839   3.580   6.100   6.975  0.0459  0.4651 -0.6390
  122OSM    H3S12840   3.682   6.145   6.974 -1.1264  3.3779 -2.9668
  122OSM     O312841   3.527   6.114   7.114  0.2608 -0.4491 -0.8256
  122OSM    HO312842   3.533   6.027   7.154 -1.0305  0.3967  1.3827
  122OSM    C4S12843   3.486   6.182   6.891  1.1117 -0.0507  0.2983
  122OSM    H4S12844   3.392   6.141   6.851  0.0525  2.3585  0.1059
  122OSM    C5S12845   3.525   6.304   6.847  0.7288 -0.6084  0.5690
  122OSM    H5S12846   3.624   6.347   6.870  1.0316 -0.9826  0.0049
  122OSM    C6S12847   3.440   6.401   6.764  0.1616 -0.3323 -0.1584
  122OSM    H6S12848   3.456   6.505   6.801 -1.1345 -0.0609 -0.3163
  122OSM    H6T12849   3.331   6.381   6.766  0.3389 -2.2588 -3.1383
  122OSM    C7S12850   3.475   6.397   6.613 -0.5379 -0.3335 -0.0841
  122OSM    H7S12851   3.585   6.396   6.603  0.1759 -0.4299  4.9927
  122OSM    H7T12852   3.428   6.485   6.564  1.6604 -1.2625 -4.3683
  122OSM    C8S12853   3.410   6.277   6.542 -0.7297 -1.1018  0.1777
  122OSM    H8S12854   3.299   6.284   6.544 -0.8847  2.1014 -4.2625
  122OSM    H8T12855   3.453   6.196   6.605  0.8419 -0.2939  0.1753
  122OSM    C9S12856   3.469   6.255   6.397 -0.4728  0.2927 -0.3502
  122OSM    H9S12857   3.456   6.146   6.384  0.4715  0.1874 -0.5013
  122OSM    H9T12858   3.576   6.283   6.407  0.0982 -1.8772  0.1258
  122OSM   C10S12859   3.398   6.336   6.294  0.5792 -0.2948 -1.0456
  122OSM   H10S12860   3.408   6.440   6.331  2.5141 -0.4341 -1.0627
  122OSM   H10T12861   3.290   6.309   6.286  0.5928 -0.4663 -0.6792
  122OSM   C11S12862   3.469   6.313   6.164 -0.9181  0.5500 -0.1386
  122OSM   H11S12863   3.465   6.204   6.146 -0.6578  0.1854  1.8415
  122OSM   H11T12864   3.576   6.342   6.171 -0.8908  0.3188  0.3993
  122OSM   C12S12865   3.401   6.386   6.044 -0.2767 -0.2319 -0.0956
  122OSM   H12S12866   3.425   6.494   6.054  0.8832 -0.5775  1.1378
  122OSM   H12T12867   3.292   6.371   6.063 -0.2545 -0.2620  0.0120
  122OSM   C13S12868   3.435   6.331   5.906 -0.2275  0.5265  0.8436
  122OSM   H13S12869   3.423   6.220   5.912  1.2137  0.3464  0.8569
  122OSM   H13T12870   3.545   6.342   5.889 -0.6680  1.0767 -2.2744
  122OSM   C14S12871   3.359   6.395   5.790 -0.4706 -0.6364  0.2379
  122OSM   H14S12872   3.374   6.505   5.803 -1.0930 -0.4802 -0.3509
  122OSM   H14T12873   3.252   6.366   5.796 -0.6340 -0.0161  0.4364
  122OSM   C15S12874   3.419   6.348   5.656 -0.1909  0.2245  0.4002
  122OSM   H15S12875   3.375   6.252   5.620  3.8768 -1.3393 -1.0379
  122OSM   H15T12876   3.528   6.324   5.661 -0.1170  0.5856  0.5486
  122OSM   C16S12877   3.402   6.448   5.533 -0.2388  0.1191 -0.4518
  122OSM   H16S12878   3.460   6.539   5.560 -2.1218  1.4942 -0.8226
  122OSM   H16T12879   3.297   6.479   5.552  0.4031  0.2114  3.7810
  122OSM   C17S12880   3.432   6.378   5.398  0.2002 -0.3479 -0.3780
  122OSM   H17S12881   3.362   6.293   5.383  0.7998 -1.2726  1.6847
  122OSM   H17T12882   3.531   6.328   5.402  0.4933  0.0964 -1.6283
  122OSM   C18S12883   3.428   6.476   5.278  0.9864 -0.0716 -0.0319
  122OSM   H18S12884   3.510   6.551   5.277 -0.7424  1.9409 -1.9944
  122OSM   H18T12885   3.333   6.532   5.284  0.3899 -1.0431 -0.1824
  122OSM   H18U12886   3.437   6.426   5.179  0.0658 -0.6544  0.1698
  122OSM    C1F12887   3.658   5.810   6.740  0.2512  0.7264 -0.0373
  122OSM     OF12888   3.576   5.718   6.769  0.0920 -0.1321 -0.2186
  122OSM    C2F12889   3.761   5.799   6.625 -0.1135 -0.2526 -0.9055
  122OSM    H2F12890   3.865   5.796   6.665 -0.3766  0.5863 -0.1188
  122OSM    H2G12891   3.757   5.889   6.561 -0.7098  0.5737  0.2508
  122OSM    C3F12892   3.738   5.669   6.548 -0.3128  0.3026  0.1740
  122OSM    H3F12893   3.637   5.661   6.502  0.1188 -0.4315 -0.6690
  122OSM    H3G12894   3.744   5.583   6.617 -0.0397  0.5161  0.4196
  122OSM    C4F12895   3.833   5.654   6.429  0.6092  0.3648 -0.5403
  122OSM    H4F12896   3.941   5.664   6.454  0.0967  0.3401  1.9454
  122OSM    H4G12897   3.817   5.727   6.347  0.1270  1.7128  0.7040
  122OSM    C5F12898   3.800   5.512   6.368 -0.5955  0.0986  0.1981
  122OSM    H5F12899   3.694   5.507   6.334  0.3989  1.6348 -3.7335
  122OSM    H5G12900   3.806   5.437   6.449 -2.6833  0.9619  1.2184
  122OSM    C6F12901   3.899   5.466   6.252  0.5024  0.1824 -0.0454
  122OSM    H6F12902   4.000   5.444   6.293  1.2104  1.8960 -0.7642
  122OSM    H6G12903   3.915   5.555   6.187  0.4062  1.1919  1.2548
  122OSM    C7F12904   3.839   5.351   6.171 -0.4460  0.8947 -0.2370
  122OSM    H7F12905   3.735   5.375   6.140 -1.2703 -3.0491 -1.0753
  122OSM    H7G12906   3.825   5.264   6.240 -1.6431  0.5845 -0.8303
  122OSM    C8F12907   3.929   5.293   6.065 -0.0037  0.9656 -0.1713
  122OSM    H8F12908   3.887   5.198   6.025  3.1238 -1.1226  1.0782
  122OSM    H8G12909   4.018   5.248   6.115 -0.0957  1.8217  0.8031
  122OSM    C9F12910   3.957   5.385   5.954  0.4290  0.1745 -0.1530
  122OSM    H9F12911   3.988   5.484   5.989 -1.5569  0.3726  1.2297
  122OSM   C10F12912   3.928   5.382   5.824  0.1449 -0.0968  0.0831
  122OSM   H10F12913   3.964   5.469   5.767  1.5455 -0.7828 -0.1048
  122OSM   C11F12914   3.870   5.263   5.754  0.1347 -0.0036 -0.7209
  122OSM   H11F12915   3.759   5.258   5.762  0.2655 -1.7849  0.4732
  122OSM   H11G12916   3.906   5.167   5.797 -1.1741  0.2475  1.0690
  122OSM   C12F12917   3.895   5.249   5.603 -0.8323 -0.2178 -0.5036
  122OSM   H12F12918   4.000   5.286   5.602 -0.6424 -0.3544  2.8098
  122OSM   H12G12919   3.825   5.316   5.549  1.8768  2.7000 -0.6774
  122OSM   C13F12920   3.898   5.107   5.545 -0.0355 -0.1328 -0.0005
  122OSM   H13F12921   3.807   5.049   5.572  0.5055 -0.8924  0.2299
  122OSM   H13G12922   3.974   5.041   5.591  0.0547 -0.7993 -1.0722
  122OSM   C14F12923   3.916   5.104   5.394  0.2467  0.5219  0.0713
  122OSM   H14F12924   3.912   4.995   5.376  0.6643 -0.0630  3.0072
  122OSM   H14G12925   4.014   5.147   5.362 -0.6830  1.0213 -2.3343
  122OSM   C15F12926   3.797   5.170   5.309  0.4824  0.4337 -0.1623
  122OSM   H15F12927   3.802   5.275   5.347  2.4090 -0.0710  1.1533
  122OSM   H15G12928   3.700   5.120   5.327  1.0268  0.0595  2.1314
  122OSM   C16F12929   3.827   5.177   5.160 -0.7019  0.3818 -0.0017
  122OSM   H16F12930   3.933   5.211   5.152 -0.0227 -1.6663 -0.3792
  122OSM   H16G12931   3.756   5.243   5.106  0.3672 -0.4263 -2.5516
  122OSM   C17F12932   3.816   5.032   5.095  0.0949 -0.7703  0.8016
  122OSM   H17F12933   3.730   4.988   5.150 -0.3141 -0.2457  0.5882
  122OSM   H17G12934   3.906   4.967   5.107 -0.0816 -1.0547  0.6029
  122OSM   C18F12935   3.771   5.041   4.948 -0.0971  0.5025  0.7365
  122OSM   H18F12936   3.685   4.974   4.923 -2.3877  3.2512  0.7699
  122OSM   H18G12937   3.859   5.018   4.884  0.4494  1.8301  0.9799
  122OSM   H18H12938   3.734   5.141   4.919 -0.7389 -0.2530 -1.2400
  123OSM      N12939   5.908   2.801   2.402 -0.5218 -0.5174 -0.4617
  123OSM    C1512940   5.818   2.701   2.467  0.2283 -0.2297  0.0961
  123OSM   H15A12941   5.726   2.740   2.508  1.3854  1.6532  1.0196
  123OSM   H15B12942   5.866   2.644   2.545 -1.9267 -4.2256 -1.1990
  123OSM   H15C12943   5.797   2.628   2.391  2.5925  0.6681 -1.5220
  123OSM    C1412944   6.047   2.737   2.377 -0.5113  0.2111  0.0285
  123OSM   H14A12945   6.081   2.707   2.475 -0.5101  0.2449  0.0385
  123OSM   H14B12946   6.124   2.806   2.344 -0.3921  1.1041  2.0378
  123OSM   H14C12947   6.039   2.651   2.312 -1.4348  1.7676 -2.0505
  123OSM    C1312948   5.858   2.842   2.272 -0.0869 -0.0733  0.7058
  123OSM   H13A12949   5.785   2.922   2.277  0.6745  0.9137 -2.2663
  123OSM   H13B12950   5.807   2.756   2.229 -0.9381  1.4340 -1.4625
  123OSM   H13C12951   5.936   2.866   2.202 -2.1043 -1.7204 -2.3061
  123OSM    C1212952   5.929   2.926   2.487 -0.8728  0.0369  0.2384
  123OSM   H12A12953   5.839   2.984   2.502 -1.7296 -0.3943 -2.6132
  123OSM   H12B12954   6.007   2.984   2.440  0.8952 -2.2694  0.1494
  123OSM    C1112955   5.978   2.907   2.635  0.6345  0.2239 -0.0912
  123OSM   H11A12956   6.066   2.841   2.648 -0.6182 -1.6920 -0.8687
  123OSM   H11B12957   5.893   2.860   2.689 -1.5533  1.3842 -2.3169
  123OSM      P12958   5.900   3.128   2.740 -0.1516 -0.3162 -0.1290
  123OSM    O1312959   5.962   3.232   2.818 -0.3758 -0.4995 -0.2280
  123OSM    O1412960   5.810   3.162   2.628 -0.1856 -0.0630 -0.3953
  123OSM    O1112961   5.802   3.039   2.833  0.3595 -0.2446 -0.8128
  123OSM    O1212962   6.013   3.028   2.695 -0.2152  0.1314 -0.0508
  123OSM    C1S12963   5.864   3.002   2.960  0.3224  0.3667 -0.0449
  123OSM    H1S12964   5.873   3.093   3.025 -2.2027  0.6318  0.0426
  123OSM    H1T12965   5.966   2.959   2.958 -0.7141 -2.2429  0.0926
  123OSM     NF12966   5.833   2.880   3.177  0.7104 -0.0734 -0.5989
  123OSM    HNF12967   5.910   2.816   3.178  2.3065  1.7675 -0.0874
  123OSM    C2S12968   5.775   2.890   3.044 -0.3128 -0.7215 -0.4106
  123OSM    H2S12969   5.670   2.924   3.058  0.5545  2.8291 -1.3816
  123OSM    C3S12970   5.773   2.757   2.964  0.0765 -0.5298 -0.7491
  123OSM    H3S12971   5.872   2.714   2.936 -0.7874 -2.4326 -1.0147
  123OSM     O312972   5.695   2.769   2.846 -0.1275  0.5501 -0.1075
  123OSM    HO312973   5.688   2.861   2.821 -0.3375  0.4517 -0.4095
  123OSM    C4S12974   5.703   2.664   3.057  0.5552 -0.4849 -0.1194
  123OSM    H4S12975   5.597   2.686   3.074  1.1693  1.3912  1.6899
  123OSM    C5S12976   5.756   2.550   3.107 -0.3905  0.1512  0.1723
  123OSM    H5S12977   5.854   2.513   3.075 -0.6758  1.1036 -1.9483
  123OSM    C6S12978   5.666   2.463   3.189  0.3653 -0.0056  0.1736
  123OSM    H6S12979   5.665   2.363   3.141 -0.0319  0.1694 -0.1881
  123OSM    H6T12980   5.564   2.509   3.191  0.5160  0.3949 -1.0108
  123OSM    C7S12981   5.710   2.449   3.335  0.5992 -0.0947  0.0005
  123OSM    H7S12982   5.814   2.411   3.346  0.1034 -1.6280 -0.3790
  123OSM    H7T12983   5.637   2.377   3.376  0.6964 -1.2748 -1.7976
  123OSM    C8S12984   5.694   2.571   3.425 -0.2086  0.0252  0.1348
  123OSM    H8S12985   5.588   2.602   3.430  0.3751  2.5024 -1.2336
  123OSM    H8T12986   5.753   2.658   3.387 -0.4144  0.7666  1.4584
  123OSM    C9S12987   5.747   2.537   3.565 -0.0771 -0.3873 -0.1868
  123OSM    H9S12988   5.852   2.501   3.555  0.4919  0.7425  1.2490
  123OSM    H9T12989   5.700   2.450   3.615 -0.2917 -0.5492 -0.6608
  123OSM   C10S12990   5.740   2.657   3.657  0.1771 -0.8317 -1.1012
  123OSM   H10S12991   5.634   2.681   3.679  1.0638  0.4290  2.5353
  123OSM   H10T12992   5.791   2.743   3.608  1.1493 -0.9649 -0.3635
  123OSM   C11S12993   5.815   2.633   3.794 -0.0479  0.2321 -0.3659
  123OSM   H11S12994   5.925   2.644   3.781 -0.0534  0.6251 -0.0933
  123OSM   H11T12995   5.805   2.528   3.830  1.1657  0.8827  2.0156
  123OSM   C12S12996   5.775   2.736   3.900 -0.4733 -0.3342 -0.8145
  123OSM   H12S12997   5.665   2.747   3.896 -0.3285  2.0606  0.3183
  123OSM   H12T12998   5.804   2.838   3.869  2.1606 -0.8677 -0.4002
  123OSM   C13S12999   5.833   2.712   4.041  0.6640  0.1736 -0.2147
  123OSM   H13S13000   5.833   2.806   4.099 -0.8141 -0.4229  0.8301
  123OSM   H13T13001   5.936   2.677   4.019  1.4957  2.3235  0.0824
  123OSM   C14S13002   5.760   2.608   4.113  0.9013 -0.2499 -0.6062
  123OSM   H14S13003   5.741   2.518   4.050  0.3335 -0.5608 -0.0005
  123OSM   H14T13004   5.668   2.658   4.148  1.1133  0.1502 -0.6201
  123OSM   C15S13005   5.830   2.555   4.245  0.5354 -0.6461  0.2593
  123OSM   H15S13006   5.846   2.640   4.315 -1.3064  0.3228 -0.4397
  123OSM   H15T13007   5.927   2.509   4.218  0.8754  0.1622  0.0757
  123OSM   C16S13008   5.747   2.462   4.319 -0.1422 -0.0654  0.0651
  123OSM   H16S13009   5.652   2.518   4.336  0.9745  1.8063  0.4259
  123OSM   H16T13010   5.793   2.455   4.420  0.9869 -1.8544 -0.5203
  123OSM   C17S13011   5.719   2.320   4.278  0.7985  0.7278  0.9726
  123OSM   H17S13012   5.701   2.315   4.169  1.8978 -2.1894  0.8179
  123OSM   H17T13013   5.637   2.281   4.343  1.7672 -1.5957  0.9011
  123OSM   C18S13014   5.841   2.226   4.306 -0.2001 -0.7026 -0.4638
  123OSM   H18S13015   5.935   2.274   4.271 -0.1804 -0.1823  0.2854
  123OSM   H18T13016   5.837   2.128   4.254 -1.2177 -0.7914 -0.2288
  123OSM   H18U13017   5.861   2.197   4.411 -2.1149  2.9005  1.0728
  123OSM    C1F13018   5.831   2.966   3.275  0.2624 -1.0692 -0.1532
  123OSM     OF13019   5.772   3.071   3.260 -0.9191 -0.0157 -0.3455
  123OSM    C2F13020   5.906   2.940   3.404 -0.3891 -0.0798  0.4022
  123OSM    H2F13021   6.015   2.947   3.381 -0.3525 -1.7433 -0.0405
  123OSM    H2G13022   5.879   2.835   3.429  0.4904 -0.6660 -0.9812
  123OSM    C3F13023   5.870   3.020   3.521 -0.3812 -0.4850  0.0248
  123OSM    H3F13024   5.765   3.011   3.557  0.0051  0.8771  1.5871
  123OSM    H3G13025   5.876   3.128   3.497 -2.7944 -0.2774  0.1541
  123OSM    C4F13026   5.967   3.001   3.638 -0.5327  0.1559 -0.1828
  123OSM    H4F13027   6.071   3.003   3.599 -0.5118 -1.6794 -0.3075
  123OSM    H4G13028   5.951   2.897   3.675  1.5880  0.0958  0.7392
  123OSM    C5F13029   5.945   3.101   3.748  0.3430  0.5062  0.7167
  123OSM    H5F13030   5.834   3.098   3.757  0.2326 -0.4865 -0.6924
  123OSM    H5G13031   5.976   3.205   3.725 -1.1927  0.8239 -0.0923
  123OSM    C6F13032   6.011   3.057   3.882 -0.2400  0.9071  0.1999
  123OSM    H6F13033   6.117   3.035   3.856  0.2827  2.2315  1.1368
  123OSM    H6G13034   5.965   2.966   3.925 -1.9531  1.3196 -0.6750
  123OSM    C7F13035   6.006   3.167   3.984  0.6723 -0.0416  0.0673
  123OSM    H7F13036   5.906   3.185   4.027  0.9267  0.4658  0.4683
  123OSM    H7G13037   6.029   3.267   3.941 -2.8020  0.7337 -0.2684
  123OSM    C8F13038   6.099   3.143   4.107  0.1838  0.2126  0.5245
  123OSM    H8F13039   6.094   3.235   4.169  2.4452  1.5936 -1.1886
  123OSM    H8G13040   6.199   3.150   4.059  0.2594  1.5250  0.8294
  123OSM    C9F13041   6.065   3.020   4.183 -0.2893 -0.1642  0.3775
  123OSM    H9F13042   6.082   2.926   4.129 -0.4633 -0.9697  1.6733
  123OSM   C10F13043   5.999   3.015   4.300 -0.2762 -0.2440 -0.4987
  123OSM   H10F13044   5.979   2.921   4.353 -1.1928  1.6583  2.8525
  123OSM   C11F13045   5.952   3.126   4.382 -0.0443 -0.2134 -0.1640
  123OSM   H11F13046   5.857   3.117   4.439  0.0160 -0.3313 -0.0829
  123OSM   H11G13047   5.942   3.217   4.319  1.9412  1.1559  1.4078
  123OSM   C12F13048   6.054   3.175   4.494 -0.5272 -0.0410  0.1509
  123OSM   H12F13049   6.150   3.195   4.442 -0.8347 -0.6447 -0.6824
  123OSM   H12G13050   6.074   3.084   4.554  0.4550 -0.5881 -0.9671
  123OSM   C13F13051   6.018   3.305   4.571 -0.0319 -0.6750 -0.4626
  123OSM   H13F13052   5.912   3.320   4.603 -0.0358  0.5975 -0.9976
  123OSM   H13G13053   6.035   3.386   4.497  1.2804 -0.9038 -0.4311
  123OSM   C14F13054   6.100   3.327   4.700  0.1869  0.1553  0.6346
  123OSM   H14F13055   6.209   3.341   4.681  0.5501  2.7465  3.8472
  123OSM   H14G13056   6.079   3.241   4.767 -1.2701 -0.2814 -0.3209
  123OSM   C15F13057   6.069   3.463   4.765  0.1728  0.0532  0.2509
  123OSM   H15F13058   5.959   3.468   4.774  0.0072  0.1743 -1.4297
  123OSM   H15G13059   6.107   3.546   4.701 -1.9628 -1.0108 -2.6179
  123OSM   C16F13060   6.126   3.469   4.906  1.0066  0.2611 -0.1535
  123OSM   H16F13061   6.225   3.419   4.901 -0.0825 -2.2318  1.2421
  123OSM   H16G13062   6.069   3.404   4.976  0.6537 -1.6266 -2.0939
  123OSM   C17F13063   6.131   3.608   4.976 -0.1862 -0.3498 -0.6898
  123OSM   H17F13064   6.186   3.598   5.072 -1.7025  1.3680  0.4420
  123OSM   H17G13065   6.026   3.620   5.013 -0.8441 -2.2687 -1.7653
  123OSM   C18F13066   6.170   3.734   4.894  0.6095 -0.1332 -0.8815
  123OSM   H18F13067   6.272   3.730   4.851  1.6533  2.3345  1.1277
  123OSM   H18G13068   6.163   3.824   4.959 -1.5708 -0.8780  0.0239
  123OSM   H18H13069   6.092   3.755   4.818 -1.5917 -0.0119  1.2766
  124OSM      N13070   5.111   3.998   2.325 -0.5589  0.2343  0.2938
  124OSM    C1513071   5.218   4.068   2.239  0.9396  0.6835 -0.0772
  124OSM   H15A13072   5.172   4.121   2.156  0.8101 -1.7448 -1.6411
  124OSM   H15B13073   5.289   3.998   2.199 -1.9484 -3.1811  0.9181
  124OSM   H15C13074   5.272   4.137   2.302  0.6075 -0.4563  1.5121
  124OSM    C1413075   5.002   4.097   2.359 -0.5602  0.2003  0.4289
  124OSM   H14A13076   4.909   4.054   2.394 -1.3280  1.8799  0.5557
  124OSM   H14B13077   4.985   4.143   2.263  0.4573  1.1592  0.6856
  124OSM   H14C13078   5.041   4.175   2.423  2.2313 -0.3303 -0.4942
  124OSM    C1313079   5.050   3.886   2.247  0.0807  0.1060  0.4759
  124OSM   H13A13080   4.989   3.914   2.163 -0.8410  1.9030  1.6765
  124OSM   H13B13081   4.980   3.842   2.316  0.3609 -2.0017 -0.4841
  124OSM   H13C13082   5.118   3.810   2.212 -0.8917 -0.1228 -0.9990
  124OSM    C1213083   5.178   3.937   2.449 -0.3330 -0.9496  0.1041
  124OSM   H12A13084   5.245   3.858   2.417  0.2220 -0.6625  0.5563
  124OSM   H12B13085   5.107   3.894   2.519  0.0101  0.4427  1.3407
  124OSM    C1113086   5.256   4.029   2.555 -0.1109 -0.0053 -0.5283
  124OSM   H11A13087   5.304   3.957   2.625  0.8777  1.1600  0.0234
  124OSM   H11B13088   5.187   4.088   2.619  0.7520  2.7154 -1.9689
  124OSM      P13089   5.504   4.068   2.474 -0.4876 -0.5583  0.0649
  124OSM    O1313090   5.525   3.949   2.393 -0.2404  0.0270  0.6106
  124OSM    O1413091   5.576   4.193   2.441  0.0373 -0.8060  0.0338
  124OSM    O1113092   5.563   4.026   2.625 -0.2976 -0.3177  0.1279
  124OSM    O1213093   5.356   4.105   2.494 -0.9821 -0.3477 -0.2202
  124OSM    C1S13094   5.622   4.136   2.708 -0.6072  0.0199 -0.3137
  124OSM    H1S13095   5.566   4.230   2.690 -0.5933 -0.1489 -1.2647
  124OSM    H1T13096   5.729   4.155   2.685 -0.2117  3.1591  3.0726
  124OSM     NF13097   5.698   4.219   2.927 -0.8788  0.3484 -0.5764
  124OSM    HNF13098   5.794   4.194   2.933 -1.3011 -1.0864  1.2113
  124OSM    C2S13099   5.620   4.116   2.863  0.4468  0.1923  0.1735
  124OSM    H2S13100   5.519   4.129   2.908  0.0669  0.8555 -0.8251
  124OSM    C3S13101   5.661   3.965   2.896  0.7024 -0.0617 -0.0682
  124OSM    H3S13102   5.766   3.948   2.863  0.0359 -0.9366 -1.8665
  124OSM     O313103   5.582   3.865   2.830  0.3264  0.9823  0.4726
  124OSM    HO313104   5.530   3.913   2.765 -1.8209 -0.5414  0.9653
  124OSM    C4S13105   5.664   3.941   3.046  0.2230 -0.9831  0.7211
  124OSM    H4S13106   5.769   3.934   3.079  0.4090  0.4586  0.4896
  124OSM    C5S13107   5.558   3.907   3.126 -0.0157  0.4035 -0.7406
  124OSM    H5S13108   5.455   3.891   3.091  0.1387  0.3024 -1.1515
  124OSM    C6S13109   5.566   3.867   3.275  0.0791  0.3516 -0.2136
  124OSM    H6S13110   5.615   3.767   3.282 -1.3307 -0.2977  0.9573
  124OSM    H6T13111   5.465   3.856   3.322 -0.6165 -1.6816 -2.0037
  124OSM    C7S13112   5.656   3.947   3.374  0.2950 -0.1297  0.3475
  124OSM    H7S13113   5.603   4.044   3.383 -2.7744 -1.0713 -3.9938
  124OSM    H7T13114   5.759   3.964   3.335  0.7384 -1.6170  0.8155
  124OSM    C8S13115   5.669   3.896   3.516  0.0379  0.1322  0.3760
  124OSM    H8S13116   5.741   3.814   3.539 -0.2537 -0.3854 -0.4869
  124OSM    H8T13117   5.576   3.841   3.542 -0.3959  0.6689 -0.0257
  124OSM    C9S13118   5.690   4.018   3.609 -0.6097  0.1610 -0.7227
  124OSM    H9S13119   5.618   4.100   3.591 -1.7899 -0.1068  2.3414
  124OSM    H9T13120   5.795   4.053   3.598 -0.3752  0.0503  0.9998
  124OSM   C10S13121   5.662   3.974   3.755 -1.0409 -0.1191 -0.7125
  124OSM   H10S13122   5.712   3.876   3.770 -0.9283  0.0261 -0.1348
  124OSM   H10T13123   5.552   3.960   3.768 -0.6717 -2.6433  0.3098
  124OSM   C11S13124   5.709   4.075   3.865  0.5493  0.0009 -0.3291
  124OSM   H11S13125   5.630   4.153   3.869  0.7872  0.5098 -3.4953
  124OSM   H11T13126   5.796   4.127   3.822 -0.2492  2.0154  0.3372
  124OSM   C12S13127   5.743   4.007   4.000 -0.1528  1.0056  0.0230
  124OSM   H12S13128   5.811   3.921   3.981 -0.4700  0.6298  0.5457
  124OSM   H12T13129   5.656   3.956   4.044  2.0779 -1.8495  1.4737
  124OSM   C13S13130   5.791   4.100   4.105 -0.7311  0.2261 -0.6890
  124OSM   H13S13131   5.739   4.198   4.103  0.0279  0.7443  1.4983
  124OSM   H13T13132   5.894   4.133   4.077 -0.9255  0.3481 -1.2662
  124OSM   C14S13133   5.789   4.044   4.242 -0.8087  0.5989 -0.5648
  124OSM   H14S13134   5.860   3.958   4.246 -1.9333 -0.2866  1.7026
  124OSM   H14T13135   5.692   4.009   4.282  0.6401 -1.6528  1.2060
  124OSM   C15S13136   5.841   4.142   4.347 -1.5276 -0.8586 -0.2686
  124OSM   H15S13137   5.760   4.215   4.369 -0.7126 -0.1527  0.4481
  124OSM   H15T13138   5.929   4.203   4.316 -3.0037  1.9192  0.6510
  124OSM   C16S13139   5.886   4.063   4.469 -0.0733 -1.4250  0.1727
  124OSM   H16S13140   5.940   3.969   4.441  1.8085  0.0834 -1.6074
  124OSM   H16T13141   5.785   4.045   4.509 -1.4318  2.3569 -1.1555
  124OSM   C17S13142   5.967   4.141   4.583  0.4088  0.3311  0.8394
  124OSM   H17S13143   6.065   4.159   4.532 -1.1108  1.7167 -1.8482
  124OSM   H17T13144   5.971   4.072   4.669  0.9839 -2.1530 -1.0456
  124OSM   C18S13145   5.911   4.278   4.622  0.0833  0.5937 -0.1966
  124OSM   H18S13146   5.803   4.259   4.609  0.0182  0.4355  0.5655
  124OSM   H18T13147   5.930   4.360   4.548  2.0891 -0.9919 -1.5567
  124OSM   H18U13148   5.941   4.299   4.727  0.3059  0.1427 -0.1663
  124OSM    C1F13149   5.653   4.336   2.969  0.3686  0.5809 -0.6141
  124OSM     OF13150   5.534   4.364   2.956 -0.0043  0.6346  0.0725
  124OSM    C2F13151   5.753   4.433   3.018  0.0692  0.2481  0.7655
  124OSM    H2F13152   5.726   4.530   2.970  2.5093  1.0824  0.9715
  124OSM    H2G13153   5.853   4.391   2.996 -0.1987 -0.0932  0.1744
  124OSM    C3F13154   5.735   4.447   3.170 -0.1076 -0.1830 -0.1333
  124OSM    H3F13155   5.633   4.481   3.199 -0.5758 -0.8055 -0.9937
  124OSM    H3G13156   5.801   4.529   3.207  1.1965 -1.9427  1.6650
  124OSM    C4F13157   5.762   4.317   3.252 -0.0346 -0.5301  0.9607
  124OSM    H4F13158   5.868   4.284   3.243 -0.1346 -1.0207  1.5838
  124OSM    H4G13159   5.699   4.239   3.205  0.1616 -0.1335  0.0046
  124OSM    C5F13160   5.715   4.334   3.393  0.4075 -0.1261 -0.6630
  124OSM    H5F13161   5.671   4.245   3.444  1.2753  0.7642  1.8026
  124OSM    H5G13162   5.637   4.410   3.416 -0.1088 -0.6920 -0.4950
  124OSM    C6F13163   5.836   4.372   3.488 -0.1882  0.1216 -0.2081
  124OSM    H6F13164   5.899   4.447   3.435 -1.2985 -0.4301 -2.4282
  124OSM    H6G13165   5.889   4.275   3.497 -1.1600 -0.5724 -1.6900
  124OSM    C7F13166   5.790   4.423   3.623 -0.4681  0.3193 -0.2539
  124OSM    H7F13167   5.717   4.345   3.654 -1.1230  1.4144  1.0953
  124OSM    H7G13168   5.745   4.525   3.624  0.0049  0.5445 -1.1346
  124OSM    C8F13169   5.899   4.422   3.736  0.2876  0.2818 -0.1006
  124OSM    H8F13170   5.936   4.318   3.730  1.7516  0.6717  1.3369
  124OSM    H8G13171   5.853   4.430   3.837  0.4230 -0.1054 -0.0090
  124OSM    C9F13172   6.019   4.507   3.704 -0.1458  1.0673  0.3707
  124OSM    H9F13173   6.066   4.476   3.609 -2.8757 -0.7322 -0.5375
  124OSM   C10F13174   6.068   4.611   3.777  0.2658  0.2498  0.2681
  124OSM   H10F13175   6.148   4.673   3.734  0.8094 -0.2419  0.5645
  124OSM   C11F13176   6.026   4.661   3.908  0.1927 -1.0722  0.0719
  124OSM   H11F13177   5.938   4.604   3.945 -0.6734 -1.1681 -2.0286
  124OSM   H11G13178   5.996   4.767   3.897  1.7148 -0.6483 -0.0749
  124OSM   C12F13179   6.144   4.657   4.004 -0.0463 -0.1066 -0.1529
  124OSM   H12F13180   6.109   4.701   4.100 -1.6056 -0.3069 -0.6065
  124OSM   H12G13181   6.228   4.720   3.967 -0.7294 -0.1554 -1.8661
  124OSM   C13F13182   6.187   4.509   4.013  0.0536 -0.4556  0.5832
  124OSM   H13F13183   6.244   4.482   3.922 -1.8793  0.7290 -1.0470
  124OSM   H13G13184   6.101   4.437   4.017 -2.3092  2.0702 -1.0433
  124OSM   C14F13185   6.271   4.490   4.138  0.9334  0.4319 -0.7608
  124OSM   H14F13186   6.354   4.560   4.115  1.5698 -0.1686 -0.3450
  124OSM   H14G13187   6.304   4.384   4.143 -0.6871 -0.0486  1.6559
  124OSM   C15F13188   6.194   4.524   4.268 -0.6598 -0.8692 -0.1838
  124OSM   H15F13189   6.087   4.499   4.251 -1.4639  1.6960  0.6847
  124OSM   H15G13190   6.190   4.634   4.280 -0.5318 -0.5385 -2.6542
  124OSM   C16F13191   6.235   4.449   4.392 -0.4069  0.1948  0.1062
  124OSM   H16F13192   6.230   4.341   4.369  1.5627  0.0346  0.2615
  124OSM   H16G13193   6.164   4.464   4.476 -0.5937 -0.1791  0.0157
  124OSM   C17F13194   6.383   4.465   4.438 -0.5441  0.5360  0.0678
  124OSM   H17F13195   6.401   4.562   4.489  0.1092 -0.1052  1.0846
  124OSM   H17G13196   6.439   4.463   4.341 -0.8770  0.5349 -0.1257
  124OSM   C18F13197   6.424   4.352   4.526  0.5902 -0.5748  0.0920
  124OSM   H18F13198   6.399   4.254   4.479  0.5104 -0.7693  0.5312
  124OSM   H18G13199   6.366   4.353   4.621 -0.8825 -1.8722 -0.7418
  124OSM   H18H13200   6.534   4.351   4.543  0.4229 -0.8981  1.2604
  125OSM      N13201   1.574   2.088   2.593  0.4506 -0.5772 -0.7740
  125OSM    C1513202   1.602   2.016   2.464 -0.4725  0.1893  0.0817
  125OSM   H15A13203   1.637   1.915   2.476  0.8086  0.4877 -0.8856
  125OSM   H15B13204   1.684   2.063   2.412 -1.3837  0.1986 -1.4233
  125OSM   H15C13205   1.521   2.027   2.394 -2.2596  0.8820  2.1292
  125OSM    C1413206   1.696   2.096   2.667  0.5224 -0.7801 -0.3265
  125OSM   H14A13207   1.767   2.160   2.617 -0.6207  2.4432  1.8532
  125OSM   H14B13208   1.746   2.001   2.682 -0.3961 -1.2145  0.0171
  125OSM   H14C13209   1.683   2.127   2.770 -2.3035  0.3556 -0.9309
  125OSM    C1313210   1.526   2.222   2.552  0.0419  0.5935  0.1890
  125OSM   H13A13211   1.494   2.277   2.639  0.6726  0.7466  0.3284
  125OSM   H13B13212   1.430   2.220   2.502 -1.0819  0.2598  2.2552
  125OSM   H13C13213   1.601   2.281   2.501  0.6749 -1.5517 -1.5023
  125OSM    C1213214   1.467   2.027   2.683  0.1464 -0.2100  0.2034
  125OSM   H12A13215   1.491   1.924   2.707  1.5153  0.3793  1.4750
  125OSM   H12B13216   1.370   2.024   2.635  0.6118 -2.0587 -0.7277
  125OSM    C1113217   1.445   2.094   2.823 -0.3137  0.5952  0.3767
  125OSM   H11A13218   1.532   2.155   2.854 -0.6500  0.4262  1.7327
  125OSM   H11B13219   1.422   2.001   2.881  1.8147 -0.2029  0.0198
  125OSM      P13220   1.253   2.215   2.940  0.1972  0.4410  0.3961
  125OSM    O1313221   1.228   2.358   2.940 -0.0980 -0.4592 -0.3686
  125OSM    O1413222   1.137   2.126   2.932 -0.5368  0.4432  0.2550
  125OSM    O1113223   1.348   2.166   3.061 -0.1733 -0.6293 -0.1399
  125OSM    O1213224   1.343   2.186   2.812  0.8378 -0.4864 -0.2678
  125OSM    C1S13225   1.305   2.188   3.196  0.2486 -0.4491 -0.1889
  125OSM    H1S13226   1.217   2.122   3.209 -2.2143  1.8918 -3.3212
  125OSM    H1T13227   1.266   2.291   3.210 -1.7999 -1.2491  0.3635
  125OSM     NF13228   1.365   2.182   3.435  0.2158 -0.2155 -0.0993
  125OSM    HNF13229   1.404   2.252   3.494 -1.0927  1.1256 -0.7723
  125OSM    C2S13230   1.413   2.172   3.302 -1.4914  0.5027  0.6034
  125OSM    H2S13231   1.453   2.069   3.293  0.2023  1.0874  0.9501
  125OSM    C3S13232   1.536   2.260   3.267 -0.1106  0.0961 -0.4020
  125OSM    H3S13233   1.529   2.366   3.299  0.1679  0.2289 -0.7717
  125OSM     O313234   1.578   2.257   3.127 -0.2697  0.0667 -0.5093
  125OSM    HO313235   1.508   2.215   3.076 -1.0342  1.7826 -0.9316
  125OSM    C4S13236   1.658   2.213   3.340 -0.0450 -0.0311 -0.2404
  125OSM    H4S13237   1.681   2.107   3.325  2.0699  0.1575  1.2376
  125OSM    C5S13238   1.745   2.285   3.411  0.1600 -0.0977 -0.7757
  125OSM    H5S13239   1.721   2.392   3.419  0.3282 -0.0804 -0.5235
  125OSM    C6S13240   1.865   2.250   3.498  0.0058 -0.8266  0.4079
  125OSM    H6S13241   1.832   2.295   3.594 -1.7894  2.1939 -1.4403
  125OSM    H6T13242   1.954   2.309   3.467  0.2751 -1.6731 -0.4880
  125OSM    C7S13243   1.887   2.097   3.511  0.2918  0.0161 -0.5754
  125OSM    H7S13244   1.930   2.053   3.419  3.3587  1.2439  0.1392
  125OSM    H7T13245   1.788   2.054   3.538  0.1766  0.1927 -0.7089
  125OSM    C8S13246   1.964   2.066   3.649  0.5785 -0.4513 -0.0524
  125OSM    H8S13247   1.915   2.111   3.738  0.7642 -0.5770  0.1141
  125OSM    H8T13248   2.064   2.114   3.652 -0.0539  0.8927  0.4504
  125OSM    C9S13249   1.964   1.920   3.690  0.5235 -0.0461  0.7303
  125OSM    H9S13250   2.008   1.863   3.606 -0.8334  2.4773 -1.8713
  125OSM    H9T13251   1.858   1.890   3.706 -0.2110  1.8782 -0.2101
  125OSM   C10S13252   2.028   1.881   3.825  0.0034  0.4377  0.5017
  125OSM   H10S13253   2.009   1.773   3.844 -0.5899  0.1353 -1.5138
  125OSM   H10T13254   1.982   1.940   3.907  1.0905  0.8838  0.8110
  125OSM   C11S13255   2.178   1.914   3.815 -0.7425 -0.1047 -0.4046
  125OSM   H11S13256   2.201   2.022   3.801  1.1360 -0.4233  0.0575
  125OSM   H11T13257   2.215   1.866   3.722  3.4599  1.1252  0.4356
  125OSM   C12S13258   2.258   1.877   3.940  0.2791 -0.3259 -0.5654
  125OSM   H12S13259   2.368   1.888   3.922  0.0059  1.4335 -1.3736
  125OSM   H12T13260   2.245   1.774   3.980  1.2110 -0.2422 -0.0155
  125OSM   C13S13261   2.235   1.975   4.057  0.6176  0.1412  0.7817
  125OSM   H13S13262   2.129   1.991   4.087 -0.3133  0.6282 -2.4180
  125OSM   H13T13263   2.269   2.077   4.029 -0.6880  0.0766 -1.2126
  125OSM   C14S13264   2.306   1.925   4.184 -1.0032 -0.2086  0.0860
  125OSM   H14S13265   2.413   1.902   4.163 -1.5421 -1.0580 -2.1052
  125OSM   H14T13266   2.259   1.829   4.214  1.0289 -0.9339  1.1137
  125OSM   C15S13267   2.287   2.018   4.306 -0.1020  0.0216 -0.2507
  125OSM   H15S13268   2.177   2.023   4.321 -0.3134 -2.6937 -0.5088
  125OSM   H15T13269   2.328   2.120   4.290 -1.5089  0.5870 -0.4375
  125OSM   C16S13270   2.360   1.956   4.429  0.4953  0.2641 -0.7900
  125OSM   H16S13271   2.464   1.934   4.398  0.2953 -0.3612 -1.0382
  125OSM   H16T13272   2.309   1.862   4.459  1.5516 -0.1206 -0.1354
  125OSM   C17S13273   2.353   2.045   4.557 -0.1713 -0.1286  0.2740
  125OSM   H17S13274   2.410   1.991   4.635 -1.1862 -0.7004  0.6406
  125OSM   H17T13275   2.247   2.043   4.590 -0.3678  0.6986 -0.2732
  125OSM   C18S13276   2.427   2.179   4.538  0.6247 -0.0197 -0.2726
  125OSM   H18S13277   2.530   2.149   4.509 -0.2640 -2.1257 -1.5622
  125OSM   H18T13278   2.435   2.239   4.631  0.9570 -2.1173  1.1178
  125OSM   H18U13279   2.371   2.240   4.464  0.9801 -1.0513 -1.4404
  125OSM    C1F13280   1.288   2.087   3.483  0.8562 -0.4456 -0.2953
  125OSM     OF13281   1.284   1.978   3.432  0.1021  0.0546  0.7578
  125OSM    C2F13282   1.204   2.119   3.607  0.4421 -0.1087 -0.6111
  125OSM    H2F13283   1.101   2.087   3.581 -0.9823  1.7546  2.1739
  125OSM    H2G13284   1.193   2.229   3.621  0.6002 -0.2277  0.6256
  125OSM    C3F13285   1.275   2.048   3.725  0.3450 -0.2333 -0.0143
  125OSM    H3F13286   1.380   2.082   3.737 -0.3195  1.5708  0.9697
  125OSM    H3G13287   1.281   1.938   3.708 -0.5833  0.1719 -3.9891
  125OSM    C4F13288   1.201   2.073   3.866 -0.3472  0.1120  0.6651
  125OSM    H4F13289   1.101   2.028   3.850  0.4078 -1.3167 -0.1826
  125OSM    H4G13290   1.193   2.184   3.862  0.7449  0.3954  3.5217
  125OSM    C5F13291   1.274   2.016   3.986  0.8051 -0.2169  0.7820
  125OSM    H5F13292   1.370   2.069   4.001 -0.5650  3.3606 -1.7207
  125OSM    H5G13293   1.276   1.905   3.984 -3.4527 -0.4869  1.6178
  125OSM    C6F13294   1.199   2.040   4.119 -0.3125 -0.5751 -0.0093
  125OSM    H6F13295   1.103   1.987   4.103 -0.0333 -1.5145  1.2459
  125OSM    H6G13296   1.184   2.148   4.138  2.4343 -0.0300 -0.4889
  125OSM    C7F13297   1.273   1.982   4.236 -0.4405 -0.4685 -0.1703
  125OSM    H7F13298   1.376   2.024   4.240 -0.7959  0.3831  0.2554
  125OSM    H7G13299   1.296   1.875   4.219  2.2721 -0.0036  0.0255
  125OSM    C8F13300   1.189   1.995   4.361  0.5214 -0.3812 -0.3559
  125OSM    H8F13301   1.104   1.925   4.351  0.8151 -0.8860  0.5614
  125OSM    H8G13302   1.163   2.102   4.376  2.4443  0.0925 -0.1055
  125OSM    C9F13303   1.256   1.945   4.483 -1.3301 -0.3334 -0.7006
  125OSM    H9F13304   1.258   1.836   4.498  0.2468 -0.3984 -1.2353
  125OSM   C10F13305   1.323   2.030   4.572  0.0474  0.5881  0.4401
  125OSM   H10F13306   1.368   1.983   4.660  0.5842  0.0386 -0.1198
  125OSM   C11F13307   1.327   2.178   4.571 -0.1189  0.5286  0.3146
  125OSM   H11F13308   1.228   2.214   4.533 -0.3865 -1.5389 -1.0579
  125OSM   H11G13309   1.389   2.211   4.486  3.7464 -4.0414  0.9649
  125OSM   C12F13310   1.357   2.257   4.703  0.1261  0.2934  0.3637
  125OSM   H12F13311   1.350   2.364   4.678 -0.5797  0.0269 -0.6298
  125OSM   H12G13312   1.466   2.241   4.722  0.4538 -0.0874 -1.6497
  125OSM   C13F13313   1.259   2.226   4.819 -0.2554  0.2164  0.0874
  125OSM   H13F13314   1.292   2.285   4.908 -0.4438  1.3729 -0.5981
  125OSM   H13G13315   1.277   2.119   4.840  1.6179  0.6378  0.7872
  125OSM   C14F13316   1.115   2.242   4.783  0.5224 -0.2702 -0.3261
  125OSM   H14F13317   1.052   2.222   4.873 -1.6086 -0.2426 -1.7523
  125OSM   H14G13318   1.088   2.180   4.696 -0.7926  0.8386 -0.7451
  125OSM   C15F13319   1.066   2.380   4.730 -0.0809  0.6792  0.2764
  125OSM   H15F13320   1.153   2.429   4.682  0.3807 -0.8678 -0.5544
  125OSM   H15G13321   1.046   2.446   4.818 -0.9416  1.3195 -0.3824
  125OSM   C16F13322   0.936   2.370   4.644  0.0186  0.7777  0.5316
  125OSM   H16F13323   0.883   2.467   4.654  0.0838  0.6817  2.1334
  125OSM   H16G13324   0.872   2.293   4.694  1.8471 -1.6430 -0.6161
  125OSM   C17F13325   0.960   2.338   4.486 -0.3972  0.0143  0.1166
  125OSM   H17F13326   0.865   2.340   4.430 -0.7774 -0.5389  0.7196
  125OSM   H17G13327   0.987   2.231   4.470 -0.5457  0.1124 -0.8299
  125OSM   C18F13328   1.066   2.418   4.408 -0.5174 -0.0010  0.3085
  125OSM   H18F13329   1.172   2.390   4.426 -0.5565 -2.1433 -2.1832
  125OSM   H18G13330   1.053   2.525   4.434  1.2303  0.3167  0.0421
  125OSM   H18H13331   1.052   2.403   4.299 -1.1485  0.8326  0.2654
  126OSM      N13332   5.665   1.246   2.311 -0.4443  0.1073 -0.6736
  126OSM    C1513333   5.805   1.200   2.349 -0.8901  0.2099  0.1660
  126OSM   H15A13334   5.805   1.114   2.413 -1.9578 -1.4123 -1.9154
  126OSM   H15B13335   5.868   1.275   2.396  0.4242  0.6546 -2.0857
  126OSM   H15C13336   5.859   1.161   2.263  1.9548 -0.8674  2.2891
  126OSM    C1413337   5.691   1.352   2.209  0.1487  0.0663  0.4808
  126OSM   H14A13338   5.725   1.437   2.266  2.1731 -0.5448  0.2576
  126OSM   H14B13339   5.603   1.381   2.153 -0.6769 -1.6711  0.7876
  126OSM   H14C13340   5.769   1.333   2.137 -3.2117 -1.4925 -3.0905
  126OSM    C1313341   5.606   1.127   2.249  0.0413 -0.3852 -0.2436
  126OSM   H13A13342   5.671   1.090   2.171 -1.5575  0.0888 -1.8839
  126OSM   H13B13343   5.512   1.149   2.201  0.2991 -0.4206 -0.7706
  126OSM   H13C13344   5.575   1.054   2.323 -1.5525 -0.9524 -1.4052
  126OSM    C1213345   5.590   1.308   2.432 -0.1172  0.3491  0.5457
  126OSM   H12A13346   5.667   1.373   2.471  1.9402 -0.9437 -1.1346
  126OSM   H12B13347   5.596   1.231   2.507  0.1415 -1.6484 -1.4123
  126OSM    C1113348   5.453   1.369   2.419  0.1013 -0.5257 -0.0635
  126OSM   H11A13349   5.460   1.423   2.322 -0.0570  0.0402  0.2336
  126OSM   H11B13350   5.434   1.442   2.500 -0.7482 -1.6197  0.7484
  126OSM      P13351   5.289   1.207   2.542 -0.3578 -0.0276 -0.1035
  126OSM    O1313352   5.199   1.310   2.599  0.0381  0.6716  0.7128
  126OSM    O1413353   5.223   1.081   2.498 -0.0459  0.0238 -0.6411
  126OSM    O1113354   5.402   1.187   2.648 -0.6587  0.3796 -0.0894
  126OSM    O1213355   5.354   1.269   2.414 -0.6299  0.3115 -0.0931
  126OSM    C1S13356   5.422   1.272   2.765 -0.0839 -0.2679 -0.2685
  126OSM    H1S13357   5.328   1.314   2.807  0.3838  1.6352 -1.0110
  126OSM    H1T13358   5.488   1.354   2.729  1.1599 -2.4130 -3.3224
  126OSM     NF13359   5.515   1.267   2.996  0.6367 -0.3027  0.1993
  126OSM    HNF13360   5.585   1.334   3.019  0.2507 -0.5207  2.2679
  126OSM    C2S13361   5.504   1.196   2.874 -0.3018 -0.2973 -0.6854
  126OSM    H2S13362   5.450   1.103   2.905  1.7705 -1.8225 -1.4193
  126OSM    C3S13363   5.646   1.160   2.817  0.2310  0.2175 -0.1823
  126OSM    H3S13364   5.698   1.257   2.803  1.0147  0.1596  1.9638
  126OSM     O313365   5.648   1.105   2.681  0.4976  0.1103 -0.2672
  126OSM    HO313366   5.557   1.108   2.649  0.1378  0.8958  0.7924
  126OSM    C4S13367   5.734   1.072   2.913  0.3509  0.6254  0.0117
  126OSM    H4S13368   5.814   1.126   2.965 -0.1550  0.0628  1.4242
  126OSM    C5S13369   5.725   0.940   2.924  0.2922  0.2740 -0.5853
  126OSM    H5S13370   5.650   0.883   2.866  1.5515 -0.4762 -1.5313
  126OSM    C6S13371   5.802   0.858   3.025 -0.1762 -0.1927  0.5554
  126OSM    H6S13372   5.839   0.766   2.974  0.1362  1.0781 -1.5815
  126OSM    H6T13373   5.733   0.812   3.100  1.1093 -1.3380  1.0907
  126OSM    C7S13374   5.914   0.932   3.103  0.2567 -1.0390 -0.7432
  126OSM    H7S13375   5.981   0.992   3.038 -0.4994 -0.9262 -1.4444
  126OSM    H7T13376   5.981   0.857   3.149  0.7892 -1.7974 -2.6616
  126OSM    C8S13377   5.863   1.024   3.220  0.5376  0.3154  0.0859
  126OSM    H8S13378   5.784   0.970   3.276 -0.3054 -0.8101 -2.0662
  126OSM    H8T13379   5.815   1.114   3.176 -0.4352 -0.4315 -0.4341
  126OSM    C9S13380   5.964   1.066   3.328  1.0475 -0.1128 -0.3350
  126OSM    H9S13381   5.984   1.175   3.317  2.3803 -0.2940  0.1643
  126OSM    H9T13382   6.064   1.021   3.315  1.1376 -0.0769  0.1784
  126OSM   C10S13383   5.918   1.038   3.473  0.7123  0.4249 -0.1571
  126OSM   H10S13384   5.905   0.928   3.466  1.3651  0.4500 -3.3724
  126OSM   H10T13385   5.818   1.086   3.478 -0.0343 -0.8375 -1.7859
  126OSM   C11S13386   6.015   1.077   3.583 -0.3730  0.2785 -0.5793
  126OSM   H11S13387   6.030   1.187   3.579  3.0128 -0.0559 -0.0325
  126OSM   H11T13388   6.114   1.032   3.561  1.0953  1.1663  3.4834
  126OSM   C12S13389   5.958   1.047   3.720  0.0096 -0.3334  0.0538
  126OSM   H12S13390   5.921   0.943   3.726 -3.2073  0.6549 -0.6367
  126OSM   H12T13391   5.871   1.112   3.743  0.4550  0.2539  0.1229
  126OSM   C13S13392   6.058   1.085   3.835 -0.3025 -0.1278  0.1800
  126OSM   H13S13393   6.086   1.192   3.824 -0.9324  0.0668  0.3811
  126OSM   H13T13394   6.143   1.014   3.829  0.6060  0.7439  1.9466
  126OSM   C14S13395   5.998   1.086   3.981  0.2248  0.7448  0.4747
  126OSM   H14S13396   5.948   0.986   3.984  1.2369 -0.0234 -2.9589
  126OSM   H14T13397   5.904   1.146   3.986 -1.3000 -1.6178  2.0660
  126OSM   C15S13398   6.090   1.121   4.102  0.1469  1.0264 -0.2344
  126OSM   H15S13399   6.137   1.220   4.081  0.6647  1.0995  1.1498
  126OSM   H15T13400   6.163   1.038   4.102 -1.5451 -0.5544 -2.0826
  126OSM   C16S13401   6.019   1.111   4.236 -0.4517  0.7526 -0.7819
  126OSM   H16S13402   6.007   1.004   4.261 -1.2385  1.0293  0.0894
  126OSM   H16T13403   5.923   1.168   4.226 -0.0297  1.2491 -2.3610
  126OSM   C17S13404   6.095   1.178   4.351 -0.2518  0.3229 -0.3697
  126OSM   H17S13405   6.103   1.288   4.334  0.1168  0.2792 -0.4741
  126OSM   H17T13406   6.202   1.150   4.352  0.1593  1.7868  1.2303
  126OSM   C18S13407   6.028   1.155   4.489  0.6960 -0.1650 -0.2585
  126OSM   H18S13408   6.022   1.045   4.504 -4.4923  0.0802  1.5321
  126OSM   H18T13409   5.922   1.186   4.477  0.5968  0.3410  1.5189
  126OSM   H18U13410   6.090   1.206   4.566  1.3425 -0.0000 -0.8855
  126OSM    C1F13411   5.417   1.271   3.089  0.2638 -0.2677  0.9176
  126OSM     OF13412   5.306   1.218   3.060 -0.3629  0.1469  0.6584
  126OSM    C2F13413   5.455   1.333   3.211  0.4348  0.3365 -0.6378
  126OSM    H2F13414   5.513   1.427   3.196  1.1692 -0.1851 -1.1488
  126OSM    H2G13415   5.518   1.253   3.254 -2.0395 -1.7362 -0.6748
  126OSM    C3F13416   5.337   1.372   3.307 -0.0167 -0.4305  0.2200
  126OSM    H3F13417   5.263   1.289   3.319  0.0672 -0.5368  0.0044
  126OSM    H3G13418   5.282   1.456   3.260 -0.6500 -0.3130  1.1427
  126OSM    C4F13419   5.385   1.426   3.450 -0.1636  0.2681  0.4863
  126OSM    H4F13420   5.476   1.489   3.439 -0.0662  0.2255  1.0209
  126OSM    H4G13421   5.409   1.336   3.510  1.7699 -0.1525 -0.8118
  126OSM    C5F13422   5.276   1.504   3.521  0.8175 -0.0992  0.0340
  126OSM    H5F13423   5.186   1.439   3.514  2.0574 -1.9079 -0.0302
  126OSM    H5G13424   5.256   1.600   3.469  0.8262 -0.3851 -0.5020
  126OSM    C6F13425   5.322   1.521   3.668 -0.0072  0.0206 -0.6581
  126OSM    H6F13426   5.277   1.617   3.702  0.6023 -0.4322  1.5683
  126OSM    H6G13427   5.429   1.551   3.675 -0.1436  0.3180  0.2719
  126OSM    C7F13428   5.284   1.412   3.770  0.1257  0.1274 -0.8049
  126OSM    H7F13429   5.287   1.312   3.723 -1.5251 -0.3418 -0.0122
  126OSM    H7G13430   5.176   1.417   3.798  0.6191  2.5321  1.0279
  126OSM    C8F13431   5.364   1.394   3.906  0.1461 -0.4872 -1.1329
  126OSM    H8F13432   5.472   1.384   3.880  1.0174  0.7065  1.6491
  126OSM    H8G13433   5.334   1.295   3.947  0.7053 -0.3470 -0.3744
  126OSM    C9F13434   5.357   1.514   4.000  0.1019 -0.1505 -0.2214
  126OSM    H9F13435   5.376   1.608   3.947 -1.9217  0.3689 -0.1006
  126OSM   C10F13436   5.312   1.516   4.126 -0.4950  0.6540 -0.2707
  126OSM   H10F13437   5.323   1.610   4.182  3.7229 -0.0452  0.3860
  126OSM   C11F13438   5.283   1.387   4.213  0.7351  0.0500  0.1181
  126OSM   H11F13439   5.360   1.312   4.186  0.9162  0.2425  0.1050
  126OSM   H11G13440   5.182   1.346   4.187  0.2159 -0.0507  2.1493
  126OSM   C12F13441   5.272   1.410   4.368  0.4577 -0.3033 -0.1897
  126OSM   H12F13442   5.240   1.311   4.408 -0.3999  0.2117  0.4281
  126OSM   H12G13443   5.199   1.487   4.400  2.5165  1.5879  0.1402
  126OSM   C13F13444   5.411   1.437   4.434 -0.0088  0.4589  0.6913
  126OSM   H13F13445   5.443   1.541   4.411 -0.6362  0.3372 -0.8863
  126OSM   H13G13446   5.481   1.362   4.391 -1.8228 -0.9682  0.1127
  126OSM   C14F13447   5.410   1.434   4.588  0.5308 -0.4826 -0.0364
  126OSM   H14F13448   5.373   1.334   4.618 -0.6553 -0.5848 -1.6837
  126OSM   H14G13449   5.349   1.518   4.629  1.7567  0.4614 -0.1043
  126OSM   C15F13450   5.552   1.463   4.633  0.0174 -0.3052  0.3703
  126OSM   H15F13451   5.575   1.565   4.595 -2.9925  0.1948 -0.3420
  126OSM   H15G13452   5.618   1.394   4.576  0.5021 -1.2723  2.0116
  126OSM   C16F13453   5.581   1.450   4.785  0.4868 -0.0004 -1.2505
  126OSM   H16F13454   5.691   1.459   4.798  0.1266  2.4966  0.9681
  126OSM   H16G13455   5.543   1.354   4.824 -2.0040  1.5256  0.3926
  126OSM   C17F13456   5.526   1.574   4.860  0.6190  0.7134 -0.0399
  126OSM   H17F13457   5.425   1.602   4.822 -0.0285 -0.4337  0.7638
  126OSM   H17G13458   5.588   1.661   4.830 -0.5439  1.5317 -0.1398
  126OSM   C18F13459   5.508   1.568   5.011  0.2405  0.6984  0.2437
  126OSM   H18F13460   5.486   1.667   5.055  0.3791  0.0743  1.7814
  126OSM   H18G13461   5.597   1.527   5.064 -1.2512 -2.1733  0.7614
  126OSM   H18H13462   5.422   1.503   5.038 -0.3954  1.7955  0.9084
  127OSM      N13463   4.696   3.040   2.692 -0.2183  0.4621  0.4712
  127OSM    C1513464   4.627   3.138   2.777  0.0562  0.0378  0.0459
  127OSM   H15A13465   4.657   3.239   2.754  1.3229 -0.4339 -0.4555
  127OSM   H15B13466   4.635   3.109   2.881 -0.6188 -0.2330  0.0318
  127OSM   H15C13467   4.520   3.128   2.765  0.1829 -0.0157 -1.2552
  127OSM    C1413468   4.678   3.085   2.554 -0.1242 -0.3704  0.1349
  127OSM   H14A13469   4.573   3.104   2.534 -0.2041 -2.3349 -1.7634
  127OSM   H14B13470   4.699   3.003   2.487 -1.9918 -0.9929  0.2381
  127OSM   H14C13471   4.741   3.168   2.525 -1.5778  0.4632 -0.7954
  127OSM    C1313472   4.844   3.039   2.710 -0.2288  0.3590 -0.2187
  127OSM   H13A13473   4.886   2.992   2.622 -0.7139 -0.7669  0.1454
  127OSM   H13B13474   4.875   3.004   2.807  0.9326  0.9103 -0.3698
  127OSM   H13C13475   4.881   3.141   2.704 -1.2218  0.7479  0.1148
  127OSM    C1213476   4.644   2.900   2.709  0.7642  0.3605  0.9751
  127OSM   H12A13477   4.687   2.827   2.641  0.1478 -1.1532  2.1355
  127OSM   H12B13478   4.540   2.911   2.684  0.9115  1.4597  0.8095
  127OSM    C1113479   4.636   2.841   2.850 -0.2258  0.1486  0.3116
  127OSM   H11A13480   4.564   2.756   2.850  1.0056 -0.9303 -0.9027
  127OSM   H11B13481   4.588   2.910   2.923 -0.9811 -2.2854  2.2721
  127OSM      P13482   4.777   2.730   3.043 -0.3267 -0.0858 -0.2803
  127OSM    O1313483   4.648   2.684   3.095  0.0115  0.1616  0.2896
  127OSM    O1413484   4.882   2.629   3.027 -0.3491 -0.1187  0.4667
  127OSM    O1113485   4.829   2.844   3.142  0.3863  0.3521  0.3402
  127OSM    O1213486   4.765   2.800   2.900 -0.1660 -0.7903 -0.3830
  127OSM    C1S13487   4.883   2.965   3.084  0.1880 -0.2088  0.1827
  127OSM    H1S13488   4.814   2.997   3.004  0.6181  0.5849  0.1219
  127OSM    H1T13489   4.984   2.945   3.042  0.9839  1.0966  1.3794
  127OSM     NF13490   4.914   3.206   3.137  0.6221 -0.1835 -0.0486
  127OSM    HNF13491   4.993   3.265   3.151 -0.8924  1.9421 -0.0353
  127OSM    C2S13492   4.895   3.077   3.192  0.6202  0.4264  0.5860
  127OSM    H2S13493   4.795   3.086   3.240  1.3923  2.6110  1.9619
  127OSM    C3S13494   4.996   3.019   3.301  0.0207  0.3504  0.6044
  127OSM    H3S13495   5.097   3.014   3.255  0.1572 -0.0809  0.9420
  127OSM     O313496   4.978   2.888   3.345  0.5359  0.5005 -0.1847
  127OSM    HO313497   4.905   2.864   3.287  0.3565  1.1685 -0.2508
  127OSM    C4S13498   5.010   3.109   3.419  0.0229 -0.1336 -0.4518
  127OSM    H4S13499   5.097   3.175   3.408 -0.4381  0.2082 -2.4883
  127OSM    C5S13500   4.938   3.108   3.537  0.6632 -0.4273  0.4171
  127OSM    H5S13501   4.859   3.038   3.567 -0.3013  0.5222  0.1538
  127OSM    C6S13502   4.960   3.188   3.661 -0.2377  0.4531 -0.6501
  127OSM    H6S13503   4.870   3.248   3.687 -2.4511 -2.9679  0.2808
  127OSM    H6T13504   5.047   3.257   3.654  0.4044 -0.0728  1.5529
  127OSM    C7S13505   5.000   3.103   3.789  0.4735 -0.5756  0.1217
  127OSM    H7S13506   5.097   3.050   3.779 -0.4192 -2.1965 -0.2507
  127OSM    H7T13507   4.915   3.033   3.807  0.9953 -2.2793 -3.2744
  127OSM    C8S13508   5.006   3.206   3.909 -0.2644 -0.0073 -0.2351
  127OSM    H8S13509   4.923   3.279   3.904  1.1318  1.5893 -0.9608
  127OSM    H8T13510   5.105   3.253   3.891 -0.8441  0.8495 -1.2694
  127OSM    C9S13511   4.994   3.135   4.045 -0.0265  0.0560  0.4201
  127OSM    H9S13512   5.069   3.054   4.042 -0.0537  0.0269  0.5256
  127OSM    H9T13513   4.889   3.098   4.055 -1.0821  2.7653  0.4411
  127OSM   C10S13514   5.027   3.222   4.164 -0.0479 -0.1936 -0.8107
  127OSM   H10S13515   4.959   3.309   4.157 -0.5665 -0.1629  2.5874
  127OSM   H10T13516   5.128   3.265   4.179 -0.2097 -0.1029  0.0903
  127OSM   C11S13517   4.992   3.147   4.293 -0.0192 -0.3405 -0.9557
  127OSM   H11S13518   4.893   3.101   4.273  0.4502 -0.4141 -3.5022
  127OSM   H11T13519   4.975   3.214   4.380  1.0277 -0.4533 -0.6564
  127OSM   C12S13520   5.108   3.053   4.323  0.7284 -0.1898 -0.1381
  127OSM   H12S13521   5.200   3.115   4.311  1.3962 -0.8024  1.5516
  127OSM   H12T13522   5.121   2.965   4.257 -1.4385 -1.7282  1.3818
  127OSM   C13S13523   5.102   2.999   4.469 -0.1058 -0.2098  0.1223
  127OSM   H13S13524   5.009   2.938   4.478  1.0831 -2.3381 -1.2243
  127OSM   H13T13525   5.110   3.079   4.545  0.4520  0.5571 -0.7176
  127OSM   C14S13526   5.220   2.903   4.502 -0.3775  0.5269  0.5493
  127OSM   H14S13527   5.311   2.953   4.462 -0.2057 -0.8488 -0.8841
  127OSM   H14T13528   5.199   2.810   4.445 -0.7661 -0.8783  2.8394
  127OSM   C15S13529   5.228   2.857   4.643  0.6992  0.3928 -0.5253
  127OSM   H15S13530   5.308   2.781   4.653 -0.2131 -0.6522 -0.9643
  127OSM   H15T13531   5.131   2.817   4.680  1.7954 -3.1212 -1.1129
  127OSM   C16S13532   5.268   2.964   4.748 -0.3376  0.1958  0.6557
  127OSM   H16S13533   5.184   3.035   4.741  0.0017  0.4454 -3.2060
  127OSM   H16T13534   5.347   3.028   4.702 -1.4100 -1.0485 -3.3315
  127OSM   C17S13535   5.293   2.938   4.894  0.0270  0.0571 -0.1965
  127OSM   H17S13536   5.384   2.876   4.879  0.0842  0.2167 -0.5081
  127OSM   H17T13537   5.218   2.872   4.944  1.8256 -1.3388  0.7835
  127OSM   C18S13538   5.327   3.058   4.980  0.2334  0.3832  0.2491
  127OSM   H18S13539   5.398   3.123   4.923  0.6990 -0.4374 -0.1266
  127OSM   H18T13540   5.379   3.030   5.074  0.0534 -0.5754  0.0727
  127OSM   H18U13541   5.230   3.107   5.002 -0.9817 -1.1750 -1.3571
  127OSM    C1F13542   4.819   3.260   3.056  0.3710 -0.7603 -0.4766
  127OSM     OF13543   4.707   3.209   3.051 -0.5058 -0.0451  0.2859
  127OSM    C2F13544   4.850   3.374   2.960 -0.8090 -0.1863 -0.6546
  127OSM    H2F13545   4.850   3.323   2.861 -0.7062 -0.4561 -0.5156
  127OSM    H2G13546   4.945   3.426   2.985 -0.6890 -0.6612 -0.1195
  127OSM    C3F13547   4.738   3.485   2.963 -0.1727  0.1062  1.1273
  127OSM    H3F13548   4.647   3.440   2.918  0.5013  3.3816 -4.4537
  127OSM    H3G13549   4.766   3.561   2.887  0.2169 -3.4731 -2.7236
  127OSM    C4F13550   4.725   3.556   3.104 -0.7109 -0.5559 -0.0969
  127OSM    H4F13551   4.666   3.485   3.165  1.2846 -2.2459 -0.0013
  127OSM    H4G13552   4.659   3.645   3.094  0.3659  0.1219 -1.7220
  127OSM    C5F13553   4.855   3.581   3.181 -0.0151  0.1336  0.3217
  127OSM    H5F13554   4.917   3.651   3.123 -1.1296 -1.2588 -2.7853
  127OSM    H5G13555   4.912   3.488   3.202 -0.8175 -0.1447  1.3378
  127OSM    C6F13556   4.819   3.652   3.318 -0.9663 -0.8338 -0.4196
  127OSM    H6F13557   4.720   3.607   3.342 -0.4145 -2.0823 -0.4298
  127OSM    H6G13558   4.823   3.763   3.312  0.2370 -0.7868  0.7277
  127OSM    C7F13559   4.906   3.613   3.434  0.3402 -0.0097 -0.3850
  127OSM    H7F13560   5.008   3.655   3.422 -0.5169  2.1882 -0.4468
  127OSM    H7G13561   4.914   3.503   3.421  0.8215  0.0633 -0.7138
  127OSM    C8F13562   4.857   3.661   3.571 -0.4112  0.0154  0.4950
  127OSM    H8F13563   4.759   3.612   3.586  0.5461 -1.6349  1.5494
  127OSM    H8G13564   4.838   3.771   3.569  0.0311  0.0874 -0.8163
  127OSM    C9F13565   4.957   3.605   3.670  0.0249  0.6095 -0.1290
  127OSM    H9F13566   4.998   3.509   3.635  0.3189 -0.3519  2.6227
  127OSM   C10F13567   5.000   3.651   3.792  0.1262 -0.2459  0.4036
  127OSM   H10F13568   5.077   3.589   3.840  0.1708 -0.9653 -0.5766
  127OSM   C11F13569   4.959   3.784   3.854  0.5961  0.1163  0.3555
  127OSM   H11F13570   4.916   3.855   3.780 -1.6550  0.6940  2.1207
  127OSM   H11G13571   5.052   3.826   3.897  1.0918  1.7101 -2.0756
  127OSM   C12F13572   4.853   3.783   3.967  0.5045 -1.1228  0.1434
  127OSM   H12F13573   4.755   3.742   3.935  0.7283 -0.1391 -1.9345
  127OSM   H12G13574   4.840   3.891   3.992  1.2689 -1.1159  0.5444
  127OSM   C13F13575   4.894   3.690   4.087  0.3440 -0.4633  0.0774
  127OSM   H13F13576   4.990   3.723   4.130  1.6744 -2.7862 -0.8901
  127OSM   H13G13577   4.914   3.592   4.037  1.9211  0.2932 -0.8455
  127OSM   C14F13578   4.775   3.690   4.191 -0.5059 -0.6041 -0.0121
  127OSM   H14F13579   4.684   3.645   4.146 -0.8893 -1.5793  1.6523
  127OSM   H14G13580   4.762   3.797   4.218  2.1535  0.2383 -1.6729
  127OSM   C15F13581   4.804   3.606   4.320 -0.4004  0.5648  0.7033
  127OSM   H15F13582   4.813   3.498   4.294 -0.9599  1.0332 -1.6939
  127OSM   H15G13583   4.708   3.595   4.374 -2.6439  0.5612 -2.9224
  127OSM   C16F13584   4.926   3.651   4.395 -0.5594 -0.5021 -0.0896
  127OSM   H16F13585   5.019   3.644   4.335 -0.0284 -2.0266  0.8558
  127OSM   H16G13586   4.939   3.591   4.488 -1.4954  0.3342  0.6108
  127OSM   C17F13587   4.908   3.799   4.440  0.2285  0.3887 -0.6784
  127OSM   H17F13588   4.810   3.809   4.492  1.2616 -0.7856  1.6075
  127OSM   H17G13589   4.922   3.856   4.345  0.3403 -1.5679 -1.9083
  127OSM   C18F13590   5.012   3.847   4.540  0.4282 -0.6991  0.0903
  127OSM   H18F13591   5.109   3.854   4.487 -0.8095 -0.6560 -2.3006
  127OSM   H18G13592   5.026   3.788   4.634  0.8834 -0.3725  0.2325
  127OSM   H18H13593   4.984   3.950   4.569  3.9490  0.4052 -0.0114
  128OSM      N13594   5.569   3.458   2.575 -0.1340  0.1699  0.0522
  128OSM    C1513595   5.695   3.493   2.497  0.6168 -0.7667  0.2767
  128OSM   H15A13596   5.727   3.413   2.432  0.8543 -1.4236  1.1931
  128OSM   H15B13597   5.771   3.531   2.563  0.5492  0.7707 -0.4869
  128OSM   H15C13598   5.682   3.578   2.431 -0.8354 -1.2330 -0.0828
  128OSM    C1413599   5.593   3.365   2.695 -0.5996  0.3807 -0.0170
  128OSM   H14A13600   5.500   3.319   2.722 -0.5525  0.7424  0.8041
  128OSM   H14B13601   5.644   3.415   2.776 -0.9729  1.8173 -0.6346
  128OSM   H14C13602   5.657   3.284   2.663  0.6997  2.0115 -1.7410
  128OSM    C1313603   5.507   3.584   2.628  0.0936  0.7746 -0.0866
  128OSM   H13A13604   5.429   3.562   2.699  0.1435 -0.2789 -0.3412
  128OSM   H13B13605   5.465   3.651   2.554 -2.1973 -1.5776 -1.0275
  128OSM   H13C13606   5.591   3.633   2.676  0.2182 -0.1926  0.7015
  128OSM    C1213607   5.485   3.384   2.478  0.4797 -0.0141  0.2230
  128OSM   H12A13608   5.541   3.300   2.441  1.6552  1.6474 -2.0560
  128OSM   H12B13609   5.474   3.445   2.389 -1.7643 -1.5109 -0.6090
  128OSM    C1113610   5.343   3.339   2.518  0.3001 -0.2337  0.2885
  128OSM   H11A13611   5.352   3.248   2.580  1.4015  0.6340  1.4630
  128OSM   H11B13612   5.287   3.308   2.428 -1.0909 -0.1275  1.0891
  128OSM      P13613   5.138   3.401   2.674 -0.1220  0.1183 -0.3460
  128OSM    O1313614   5.066   3.523   2.719 -0.2779  0.1269 -0.2739
  128OSM    O1413615   5.055   3.315   2.584 -0.0558 -0.4535 -0.3632
  128OSM    O1113616   5.189   3.319   2.798 -0.1155 -0.1937  0.0843
  128OSM    O1213617   5.268   3.440   2.589  0.2332 -0.7574  0.4820
  128OSM    C1S13618   5.256   3.373   2.916 -0.1659 -0.2084 -0.1198
  128OSM    H1S13619   5.189   3.447   2.966  0.3285  0.6297 -0.6661
  128OSM    H1T13620   5.351   3.421   2.883  0.1738 -0.7406  0.0830
  128OSM     NF13621   5.343   3.315   3.141  0.1726  0.1485 -0.1774
  128OSM    HNF13622   5.443   3.322   3.145  0.1542 -0.0491  0.7301
  128OSM    C2S13623   5.294   3.253   3.016 -0.4879  0.1314 -1.3271
  128OSM    H2S13624   5.202   3.193   3.030  1.3799 -2.4117  0.9530
  128OSM    C3S13625   5.386   3.154   2.955  0.1010 -0.1243  0.8439
  128OSM    H3S13626   5.486   3.203   2.944 -0.3834  0.5798 -0.8493
  128OSM     O313627   5.349   3.106   2.823 -0.6017  0.0966 -0.2552
  128OSM    HO313628   5.282   3.172   2.800 -1.4660  0.1081  2.0211
  128OSM    C4S13629   5.405   3.038   3.045  0.1148  0.1044 -0.1527
  128OSM    H4S13630   5.506   3.029   3.087  0.8550 -0.1593 -1.9084
  128OSM    C5S13631   5.317   2.934   3.054 -0.2748  0.7746 -0.0913
  128OSM    H5S13632   5.219   2.932   3.003 -0.2570 -2.6837 -0.2341
  128OSM    C6S13633   5.333   2.811   3.148  0.0377 -0.5983  0.4338
  128OSM    H6S13634   5.387   2.733   3.091 -0.6261  0.7441 -2.1822
  128OSM    H6T13635   5.230   2.771   3.163 -1.6816  2.2981 -2.4438
  128OSM    C7S13636   5.419   2.817   3.268 -0.0751 -0.2061 -0.4697
  128OSM    H7S13637   5.529   2.805   3.255  0.2150  2.3587 -0.9411
  128OSM    H7T13638   5.383   2.732   3.329  2.4290 -0.9384  0.0793
  128OSM    C8S13639   5.402   2.938   3.362  1.0777  0.0508  0.6618
  128OSM    H8S13640   5.297   2.973   3.376  1.4746  1.6001 -0.0103
  128OSM    H8T13641   5.456   3.024   3.317 -0.8703  0.1021 -1.7837
  128OSM    C9S13642   5.446   2.910   3.504 -0.1137 -0.0135  0.3996
  128OSM    H9S13643   5.544   2.857   3.507  0.2630  0.6038 -0.6437
  128OSM    H9T13644   5.372   2.848   3.558  1.7735 -0.2830  2.9051
  128OSM   C10S13645   5.460   3.037   3.588 -0.5233  0.0996 -0.0285
  128OSM   H10S13646   5.358   3.081   3.593  0.1122  1.5052  1.5337
  128OSM   H10T13647   5.523   3.108   3.530  0.3013 -0.3674  0.2743
  128OSM   C11S13648   5.505   3.013   3.731 -0.0153  0.2019 -0.3701
  128OSM   H11S13649   5.611   2.984   3.748 -0.3003  0.7621  3.0588
  128OSM   H11T13650   5.450   2.923   3.764 -2.8802  2.2326  0.7394
  128OSM   C12S13651   5.482   3.138   3.825  1.0371  0.4693 -0.3522
  128OSM   H12S13652   5.371   3.141   3.834  1.0333 -1.9758  1.6219
  128OSM   H12T13653   5.535   3.229   3.792  1.2015 -0.2761 -2.2460
  128OSM   C13S13654   5.529   3.104   3.966  0.1366  0.7192 -0.3183
  128OSM   H13S13655   5.638   3.083   3.968  0.1633  0.1326 -3.3051
  128OSM   H13T13656   5.478   3.013   4.004  2.2816  0.2561  1.7267
  128OSM   C14S13657   5.496   3.222   4.060 -0.2901 -0.2675  0.6433
  128OSM   H14S13658   5.385   3.214   4.064 -0.2779 -0.1896  1.1626
  128OSM   H14T13659   5.527   3.316   4.010 -1.8646  0.0913  0.2779
  128OSM   C15S13660   5.533   3.205   4.210 -0.0673  0.1351  0.1395
  128OSM   H15S13661   5.486   3.282   4.276  0.0311 -0.1362  0.5227
  128OSM   H15T13662   5.642   3.221   4.223 -0.0204 -0.4480  0.4535
  128OSM   C16S13663   5.507   3.067   4.274 -0.3950 -0.0888 -0.3552
  128OSM   H16S13664   5.410   3.019   4.250 -0.8783  0.8660 -0.3600
  128OSM   H16T13665   5.508   3.082   4.384 -0.7190 -2.1870 -0.0156
  128OSM   C17S13666   5.623   2.968   4.250 -0.5405  0.4926 -0.0847
  128OSM   H17S13667   5.709   3.025   4.209 -0.5151  1.1095  0.8077
  128OSM   H17T13668   5.590   2.893   4.174 -0.8931 -0.6482  1.1619
  128OSM   C18S13669   5.657   2.885   4.371 -0.0931  0.4431  0.1130
  128OSM   H18S13670   5.743   2.823   4.341  0.9326  1.4001  0.9839
  128OSM   H18T13671   5.574   2.824   4.413 -0.5571  1.8943  1.4461
  128OSM   H18U13672   5.687   2.955   4.452 -0.1979  0.7197 -0.0855
  128OSM    C1F13673   5.259   3.374   3.226 -0.6471 -0.7829 -0.4362
  128OSM     OF13674   5.138   3.379   3.202  0.2842 -0.2325  0.9334
  128OSM    C2F13675   5.324   3.451   3.332  1.0121 -0.3673  0.5338
  128OSM    H2F13676   5.250   3.522   3.375 -0.7439 -2.7342  1.6539
  128OSM    H2G13677   5.407   3.508   3.284  1.1385 -1.1605 -0.2087
  128OSM    C3F13678   5.377   3.361   3.447 -0.0286  0.3475 -0.4461
  128OSM    H3F13679   5.446   3.282   3.410 -0.9069  0.1746 -1.7748
  128OSM    H3G13680   5.307   3.286   3.491  0.9360 -0.9463 -1.0333
  128OSM    C4F13681   5.425   3.446   3.565  0.5686  0.6190  0.4599
  128OSM    H4F13682   5.513   3.509   3.543  0.2800  1.1966  0.9501
  128OSM    H4G13683   5.458   3.375   3.644  0.8579  0.6495  0.3653
  128OSM    C5F13684   5.324   3.546   3.621 -0.2628  0.9539  0.0390
  128OSM    H5F13685   5.233   3.491   3.654 -0.0170  0.8031  0.4748
  128OSM    H5G13686   5.297   3.628   3.551 -0.3104  1.7507  0.9691
  128OSM    C6F13687   5.382   3.625   3.747  0.8176  0.2424 -0.3560
  128OSM    H6F13688   5.301   3.700   3.758 -1.9288 -2.3755 -1.3904
  128OSM    H6G13689   5.476   3.674   3.715  1.7827 -0.0192  1.8669
  128OSM    C7F13690   5.389   3.534   3.870 -0.3779 -0.3815  0.1824
  128OSM    H7F13691   5.480   3.472   3.854  0.6445  0.6958  1.6061
  128OSM    H7G13692   5.301   3.467   3.882 -2.4853  1.8886 -1.6401
  128OSM    C8F13693   5.415   3.614   4.000  0.4334  0.5677  0.0279
  128OSM    H8F13694   5.508   3.673   3.987 -0.5854  2.0472 -0.7986
  128OSM    H8G13695   5.435   3.539   4.080 -3.1013 -1.9990 -1.2251
  128OSM    C9F13696   5.305   3.703   4.042  0.2170  0.7563 -0.1647
  128OSM    H9F13697   5.250   3.741   3.955  1.2013 -0.4833 -1.3682
  128OSM   C10F13698   5.265   3.728   4.170 -0.0591  0.7406  0.5096
  128OSM   H10F13699   5.184   3.801   4.182 -1.7145 -1.0182  0.5871
  128OSM   C11F13700   5.333   3.679   4.293 -0.2239 -0.6474  0.5143
  128OSM   H11F13701   5.395   3.590   4.269 -0.8407 -1.0545  0.3946
  128OSM   H11G13702   5.254   3.640   4.361  0.1447 -2.1341  0.1229
  128OSM   C12F13703   5.410   3.789   4.368  0.2350  0.1886  0.0009
  128OSM   H12F13704   5.339   3.874   4.376 -0.9903 -0.9236  1.5799
  128OSM   H12G13705   5.501   3.807   4.307  2.4362 -2.4369  2.2758
  128OSM   C13F13706   5.450   3.749   4.511  0.2289 -0.1937  0.1690
  128OSM   H13F13707   5.508   3.655   4.523 -0.4993 -0.6190  0.4758
  128OSM   H13G13708   5.350   3.712   4.543 -1.0019  0.5245 -2.5496
  128OSM   C14F13709   5.509   3.868   4.586  0.0011  0.0783 -0.1379
  128OSM   H14F13710   5.474   3.963   4.540  3.4066  1.8521  0.6345
  128OSM   H14G13711   5.619   3.878   4.574  0.0140 -0.9113 -0.8952
  128OSM   C15F13712   5.468   3.871   4.733 -0.3836 -0.1907 -0.2401
  128OSM   H15F13713   5.490   3.772   4.779 -0.0697 -0.2463 -0.5045
  128OSM   H15G13714   5.359   3.889   4.741 -0.4848 -1.5405  3.2646
  128OSM   C16F13715   5.548   3.979   4.821 -0.1711  0.5668 -0.2177
  128OSM   H16F13716   5.492   4.007   4.913  0.7282  0.0309  0.5080
  128OSM   H16G13717   5.553   4.075   4.765 -3.0211  1.8653  1.4828
  128OSM   C17F13718   5.690   3.932   4.858 -1.4783  0.4757  0.0545
  128OSM   H17F13719   5.745   3.909   4.764 -2.8869  1.2413 -0.9993
  128OSM   H17G13720   5.687   3.836   4.914 -1.4749  0.9556  0.8985
  128OSM   C18F13721   5.770   4.025   4.946  0.0436 -0.4071 -0.3487
  128OSM   H18F13722   5.723   4.050   5.043  1.2742 -0.9790  0.4325
  128OSM   H18G13723   5.797   4.121   4.897 -0.0823 -0.1474  0.0870
  128OSM   H18H13724   5.869   3.981   4.972  0.5783  0.7292 -0.4076
  129OSM      N13725   6.796   5.525   2.540  1.4352 -0.0783  1.0396
  129OSM    C1513726   6.673   5.546   2.624  0.2233 -0.0132  0.4008
  129OSM   H15A13727   6.691   5.592   2.721 -1.1949  0.3288  0.5228
  129OSM   H15B13728   6.613   5.457   2.618  1.8456 -1.0093 -2.5397
  129OSM   H15C13729   6.609   5.622   2.581 -2.0402 -1.4477  1.0465
  129OSM    C1413730   6.890   5.432   2.612  0.5205  0.5434 -0.8865
  129OSM   H14A13731   6.852   5.332   2.631 -1.3409  1.1870 -0.9625
  129OSM   H14B13732   6.919   5.479   2.705  0.8240  0.6230 -1.0211
  129OSM   H14C13733   6.984   5.416   2.563 -0.4193 -0.9921 -2.2724
  129OSM    C1313734   6.751   5.468   2.410 -0.0925  0.0609 -0.5003
  129OSM   H13A13735   6.708   5.370   2.426  0.9467 -0.4753 -0.8763
  129OSM   H13B13736   6.834   5.441   2.346  0.2118  0.3776 -0.2368
  129OSM   H13C13737   6.667   5.523   2.369 -0.4638 -1.1168 -1.3781
  129OSM    C1213738   6.861   5.663   2.515 -0.3323  0.4529 -0.6639
  129OSM   H12A13739   6.944   5.651   2.447  1.3737 -0.5365  1.4967
  129OSM   H12B13740   6.902   5.701   2.607  0.3762  0.1131 -0.8317
  129OSM    C1113741   6.773   5.773   2.460 -0.1183 -0.1746  0.4369
  129OSM   H11A13742   6.722   5.731   2.371 -0.5787 -1.8971  1.4588
  129OSM   H11B13743   6.846   5.846   2.420  0.2773 -1.0846 -0.5398
  129OSM      P13744   6.707   5.961   2.623 -0.2696 -0.3720  0.5354
  129OSM    O1313745   6.824   5.953   2.711 -0.4351 -0.1472  0.3021
  129OSM    O1413746   6.702   6.069   2.527  0.3891 -0.2750  0.2438
  129OSM    O1113747   6.582   5.969   2.712 -0.0196  0.9725 -0.4516
  129OSM    O1213748   6.684   5.821   2.554 -0.6185 -0.3152 -0.5410
  129OSM    C1S13749   6.515   5.858   2.777 -0.1209 -0.2596 -0.6213
  129OSM    H1S13750   6.575   5.765   2.766  1.7341  0.6321  1.1718
  129OSM    H1T13751   6.424   5.833   2.719 -0.0654 -0.5477 -0.5837
  129OSM     NF13752   6.447   5.763   2.988  0.1334  0.4909 -0.6782
  129OSM    HNF13753   6.360   5.757   3.036 -0.7363 -0.3649 -2.2763
  129OSM    C2S13754   6.491   5.887   2.930  0.4934  0.0468 -0.0898
  129OSM    H2S13755   6.587   5.913   2.980  0.8278 -0.4697 -0.4554
  129OSM    C3S13756   6.387   6.007   2.945  0.1931  0.1746 -0.1229
  129OSM    H3S13757   6.282   5.985   2.918  0.5035 -0.4028 -0.8963
  129OSM     O313758   6.410   6.112   2.857  0.0056  0.2046  0.5806
  129OSM    HO313759   6.496   6.097   2.817 -0.5586 -2.0396  0.0651
  129OSM    C4S13760   6.379   6.060   3.088  0.8991 -0.3935  0.1015
  129OSM    H4S13761   6.339   5.974   3.144 -3.8207 -0.2195 -2.5028
  129OSM    C5S13762   6.415   6.175   3.147  0.2896 -0.0794  0.4035
  129OSM    H5S13763   6.473   6.236   3.076 -1.9533  0.3859 -1.1065
  129OSM    C6S13764   6.412   6.204   3.293 -1.1608 -0.3022 -0.2112
  129OSM    H6S13765   6.350   6.293   3.317 -0.2931  0.1964  0.2271
  129OSM    H6T13766   6.518   6.228   3.319 -1.0952 -0.1893 -0.5705
  129OSM    C7S13767   6.363   6.090   3.386  0.7027 -0.1608 -0.3640
  129OSM    H7S13768   6.430   6.002   3.378  2.6382  1.3504 -1.8994
  129OSM    H7T13769   6.270   6.050   3.342  1.2444  0.1415 -1.8361
  129OSM    C8S13770   6.336   6.140   3.529  0.6498 -0.3305  0.1337
  129OSM    H8S13771   6.279   6.235   3.522 -1.2204 -1.3657  0.7551
  129OSM    H8T13772   6.431   6.170   3.578  0.8174 -0.4612 -0.1066
  129OSM    C9S13773   6.269   6.028   3.607 -0.1082  0.7386  0.7087
  129OSM    H9S13774   6.351   5.977   3.662  0.3116 -1.7784 -2.0278
  129OSM    H9T13775   6.220   5.953   3.541 -0.3003 -0.2695  1.9455
  129OSM   C10S13776   6.163   6.075   3.712 -0.2808 -0.0864  0.3354
  129OSM   H10S13777   6.131   5.988   3.774 -0.4401  0.7217  1.4183
  129OSM   H10T13778   6.085   6.115   3.645 -1.0650 -3.5094 -1.0332
  129OSM   C11S13779   6.216   6.187   3.805 -0.3038 -0.1644 -0.0394
  129OSM   H11S13780   6.236   6.272   3.737  1.9408  0.0902  0.8517
  129OSM   H11T13781   6.311   6.163   3.858  0.8427 -1.5541 -2.5936
  129OSM   C12S13782   6.119   6.222   3.923 -0.0260  0.2305  1.2004
  129OSM   H12S13783   6.016   6.214   3.880  0.2433 -1.1664  0.7452
  129OSM   H12T13784   6.132   6.322   3.968  1.1085  0.3072  0.7339
  129OSM   C13S13785   6.135   6.126   4.040 -0.0773  1.0323 -0.0017
  129OSM   H13S13786   6.243   6.130   4.062 -0.0961  0.5361  0.2086
  129OSM   H13T13787   6.127   6.016   4.027  0.1221  1.0878 -0.6280
  129OSM   C14S13788   6.078   6.181   4.170  0.5870 -0.4259  0.1327
  129OSM   H14S13789   5.968   6.197   4.178  0.4979 -1.7137  2.8832
  129OSM   H14T13790   6.109   6.286   4.186 -2.9248  0.5271  1.6545
  129OSM   C15S13791   6.117   6.106   4.297 -0.4693  0.2371  0.6196
  129OSM   H15S13792   6.228   6.092   4.300 -0.4965 -1.0027 -1.4858
  129OSM   H15T13793   6.079   6.002   4.294  0.6298 -0.1753  0.1205
  129OSM   C16S13794   6.069   6.164   4.431 -0.2169  0.2526  0.0798
  129OSM   H16S13795   5.970   6.213   4.418  0.2886  1.3144  0.1344
  129OSM   H16T13796   6.143   6.240   4.466  2.3888 -1.4649 -1.3907
  129OSM   C17S13797   6.051   6.055   4.543 -0.8507 -0.8853  0.5657
  129OSM   H17S13798   5.991   5.975   4.495  0.3782 -1.5594  0.1144
  129OSM   H17T13799   5.997   6.083   4.636 -0.3437 -0.4980  0.7494
  129OSM   C18S13800   6.181   6.010   4.602  0.1214  0.4929 -0.2413
  129OSM   H18S13801   6.245   6.093   4.638 -0.1972  0.3268  0.7367
  129OSM   H18T13802   6.243   5.949   4.532  0.2604 -1.0465  1.1441
  129OSM   H18U13803   6.159   5.945   4.689 -2.1325 -0.7337 -1.6225
  129OSM    C1F13804   6.524   5.661   3.009  0.0131  0.3453 -0.6668
  129OSM     OF13805   6.646   5.666   2.987 -0.4047  0.2117 -0.6499
  129OSM    C2F13806   6.467   5.541   3.075  0.5203  0.7443 -0.2508
  129OSM    H2F13807   6.480   5.451   3.011 -0.3338 -0.0043  0.6078
  129OSM    H2G13808   6.358   5.549   3.091  0.7269  0.7007  1.3749
  129OSM    C3F13809   6.518   5.516   3.217 -0.4193 -0.2968  0.3999
  129OSM    H3F13810   6.629   5.508   3.226 -0.5571 -0.8776  1.8769
  129OSM    H3G13811   6.472   5.420   3.247  0.3086 -0.1398  2.1531
  129OSM    C4F13812   6.463   5.614   3.320  0.6454  0.0890  0.9837
  129OSM    H4F13813   6.360   5.632   3.284  0.5982 -0.6461  0.7394
  129OSM    H4G13814   6.513   5.712   3.302  0.8138  0.1529  1.7612
  129OSM    C5F13815   6.470   5.587   3.473 -0.0131  0.1414 -0.3135
  129OSM    H5F13816   6.576   5.591   3.506 -0.1806  1.2707  0.1432
  129OSM    H5G13817   6.433   5.485   3.498  0.1072 -0.0241 -0.7858
  129OSM    C6F13818   6.389   5.689   3.550 -0.4115 -0.5290 -0.3481
  129OSM    H6F13819   6.282   5.689   3.521  0.0540 -0.0718 -2.2219
  129OSM    H6G13820   6.439   5.786   3.529  1.5522 -1.1163  1.2954
  129OSM    C7F13821   6.397   5.665   3.703  0.0633 -0.6837  0.2681
  129OSM    H7F13822   6.350   5.568   3.729  1.0070 -1.7835 -1.8654
  129OSM    H7G13823   6.337   5.734   3.766 -1.0746  0.7623 -2.2156
  129OSM    C8F13824   6.541   5.663   3.756  0.9168  0.2635  0.5062
  129OSM    H8F13825   6.586   5.583   3.694 -2.2575 -1.3753  0.1456
  129OSM    H8G13826   6.531   5.620   3.858  0.6151  0.2685  0.4791
  129OSM    C9F13827   6.602   5.802   3.736 -0.7909  0.3741 -0.4212
  129OSM    H9F13828   6.659   5.812   3.643 -1.2500  1.9034 -0.5591
  129OSM   C10F13829   6.591   5.909   3.817  0.3331 -0.0371  0.2008
  129OSM   H10F13830   6.633   6.006   3.788  1.6058 -0.8856 -0.8999
  129OSM   C11F13831   6.507   5.911   3.941 -0.1204 -0.3841 -0.5819
  129OSM   H11F13832   6.480   5.806   3.961  1.3011 -0.2577  2.6434
  129OSM   H11G13833   6.423   5.979   3.911 -0.3362 -1.0285 -1.4667
  129OSM   C12F13834   6.572   5.957   4.070 -0.4747  0.1669 -0.0883
  129OSM   H12F13835   6.503   5.943   4.156 -1.9580  1.5831 -0.9772
  129OSM   H12G13836   6.584   6.068   4.067 -2.7965  0.4649 -1.0467
  129OSM   C13F13837   6.698   5.880   4.106 -0.0529  0.0236 -0.7416
  129OSM   H13F13838   6.781   5.912   4.041  0.1336 -1.1921 -1.1207
  129OSM   H13G13839   6.694   5.770   4.100  1.2459 -0.1923  1.2149
  129OSM   C14F13840   6.736   5.903   4.255  0.0981  0.1892 -0.2047
  129OSM   H14F13841   6.659   5.857   4.320  0.1341  0.4858  0.0470
  129OSM   H14G13842   6.748   6.013   4.268  1.0962 -0.0869  1.4336
  129OSM   C15F13843   6.865   5.838   4.297  0.1999  0.2978 -0.2855
  129OSM   H15F13844   6.956   5.891   4.261  1.3016  0.3320  2.2816
  129OSM   H15G13845   6.856   5.733   4.262 -1.4744  0.9353 -1.8826
  129OSM   C16F13846   6.888   5.834   4.451  0.0087  0.3477 -0.1891
  129OSM   H16F13847   6.802   5.786   4.503 -1.2701  2.1029 -0.5997
  129OSM   H16G13848   6.906   5.935   4.494 -1.0059 -0.3413  2.0255
  129OSM   C17F13849   7.010   5.739   4.483  0.0740 -0.3587 -0.0104
  129OSM   H17F13850   7.102   5.785   4.440 -0.5914  0.4830 -0.5609
  129OSM   H17G13851   6.997   5.644   4.428 -0.1063  0.8784 -2.2149
  129OSM   C18F13852   7.041   5.727   4.639 -0.3116  0.2858 -0.0036
  129OSM   H18F13853   6.975   5.653   4.691  2.1403 -1.4263  0.8499
  129OSM   H18G13854   7.042   5.828   4.685  2.2005  0.8528 -1.1805
  129OSM   H18H13855   7.143   5.688   4.654 -0.5727  0.4672  2.8035
  130OSM      N13856   1.843   0.263   2.504 -0.2765  0.4316 -0.0683
  130OSM    C1513857   1.707   0.224   2.559 -0.0496 -1.4163  1.1340
  130OSM   H15A13858   1.709   0.134   2.619  1.8375 -2.8066 -0.8833
  130OSM   H15B13859   1.639   0.209   2.477  0.4782 -1.1356  0.6451
  130OSM   H15C13860   1.674   0.311   2.614 -0.7215 -1.4202  0.7461
  130OSM    C1413861   1.853   0.196   2.368 -0.2496  0.1826 -0.4126
  130OSM   H14A13862   1.837   0.090   2.384  1.1964 -0.2266 -1.4756
  130OSM   H14B13863   1.947   0.198   2.316  0.3814  0.7241  0.7210
  130OSM   H14C13864   1.768   0.236   2.314 -2.3378 -1.0133  1.7961
  130OSM    C1313865   1.856   0.412   2.487  0.1476 -0.1685  0.1000
  130OSM   H13A13866   1.781   0.438   2.414  1.4449  1.0099 -0.8870
  130OSM   H13B13867   1.954   0.439   2.449 -0.3582  0.9083 -0.4817
  130OSM   H13C13868   1.826   0.475   2.569 -1.1868  0.0379 -0.5322
  130OSM    C1213869   1.947   0.209   2.599  0.4543  0.3106 -0.4282
  130OSM   H12A13870   1.941   0.271   2.687 -0.2928  0.6116 -0.6785
  130OSM   H12B13871   2.044   0.229   2.556  0.5651  2.3912  0.6653
  130OSM    C1113872   1.938   0.062   2.642  0.7543  0.4998  0.1792
  130OSM   H11A13873   1.835   0.039   2.676  0.1832  1.0886 -1.0929
  130OSM   H11B13874   2.007   0.047   2.728 -0.9650 -0.7885  1.3977
  130OSM      P13875   2.118  -0.043   2.492 -0.1901 -0.2830  0.2721
  130OSM    O1313876   2.120  -0.091   2.354  0.0311  0.1777  0.3476
  130OSM    O1413877   2.206   0.067   2.527 -0.6052 -0.6426  0.4751
  130OSM    O1113878   2.160  -0.165   2.583 -0.3416 -0.2437  0.6944
  130OSM    O1213879   1.965  -0.019   2.534 -0.1474  0.3559  0.6135
  130OSM    C1S13880   2.113  -0.294   2.559 -0.9211 -0.3684  0.2149
  130OSM    H1S13881   2.184  -0.338   2.486 -0.5459  2.2811 -1.0994
  130OSM    H1T13882   2.006  -0.299   2.530 -1.0088  0.7731  0.3015
  130OSM     NF13883   2.088  -0.531   2.662  0.1394  0.2711  0.6305
  130OSM    HNF13884   1.997  -0.559   2.692 -0.6302 -0.3165 -2.0037
  130OSM    C2S13885   2.113  -0.390   2.687  0.3765 -0.2033  0.0482
  130OSM    H2S13886   2.209  -0.375   2.741  0.7868  0.3030 -0.8024
  130OSM    C3S13887   2.002  -0.336   2.785  0.2809  0.3409  0.1906
  130OSM    H3S13888   1.908  -0.354   2.729  0.5418 -1.6289  0.3099
  130OSM     O313889   2.002  -0.192   2.805  0.1863  0.1251  0.2713
  130OSM    HO313890   2.048  -0.154   2.730  0.6378 -1.1222 -0.0992
  130OSM    C4S13891   1.991  -0.401   2.918  0.3661  0.4535  0.0425
  130OSM    H4S13892   1.906  -0.470   2.914  0.7379  0.0144 -0.5473
  130OSM    C5S13893   2.050  -0.374   3.037  0.9297 -0.0148 -0.0244
  130OSM    H5S13894   2.120  -0.289   3.038  2.0801 -0.9399  1.1635
  130OSM    C6S13895   2.025  -0.449   3.170  0.1696 -0.4103 -0.1079
  130OSM    H6S13896   2.013  -0.368   3.245 -0.3092 -1.2308  0.7221
  130OSM    H6T13897   2.113  -0.510   3.200 -0.3127 -1.7436 -1.2802
  130OSM    C7S13898   1.901  -0.534   3.176  0.6232  0.5129 -0.6616
  130OSM    H7S13899   1.906  -0.626   3.113 -0.9502 -0.4604  0.5497
  130OSM    H7T13900   1.814  -0.471   3.146  1.4045  1.4160 -1.0606
  130OSM    C8S13901   1.876  -0.585   3.321 -0.1582  0.5304  0.4952
  130OSM    H8S13902   1.870  -0.495   3.386  2.6620  0.1738  1.3833
  130OSM    H8T13903   1.963  -0.640   3.364  0.2752 -0.5571 -1.6716
  130OSM    C9S13904   1.749  -0.659   3.331  0.7491  0.5802  0.6252
  130OSM    H9S13905   1.751  -0.746   3.261 -0.9743  0.7141  0.3777
  130OSM    H9T13906   1.679  -0.578   3.300  2.0076  0.8803 -1.6650
  130OSM   C10S13907   1.731  -0.710   3.475 -0.4590  0.4999  0.5537
  130OSM   H10S13908   1.627  -0.746   3.489  0.1382 -1.1744  0.8600
  130OSM   H10T13909   1.758  -0.627   3.544  1.4801 -1.0974  1.8483
  130OSM   C11S13910   1.822  -0.833   3.508 -0.4959  0.0550 -0.1004
  130OSM   H11S13911   1.928  -0.816   3.479  0.5789 -2.7678  1.6726
  130OSM   H11T13912   1.778  -0.920   3.454  0.5097 -0.8916  0.5550
  130OSM   C12S13913   1.818  -0.875   3.656  0.3029  0.0209 -0.7221
  130OSM   H12S13914   1.846  -0.981   3.675 -0.9539 -0.2402 -0.2378
  130OSM   H12T13915   1.710  -0.879   3.681 -0.0189  0.9875 -1.9017
  130OSM   C13S13916   1.884  -0.780   3.759 -0.2158  0.1547  0.4289
  130OSM   H13S13917   1.840  -0.680   3.737  0.9151  0.5931  0.0755
  130OSM   H13T13918   1.989  -0.756   3.730 -0.2415 -0.7323 -0.4392
  130OSM   C14S13919   1.856  -0.825   3.906 -0.5805 -0.0091 -0.1347
  130OSM   H14S13920   1.921  -0.766   3.974 -0.3344  1.3489 -1.4928
  130OSM   H14T13921   1.890  -0.931   3.912 -0.2263  0.1359  0.5153
  130OSM   C15S13922   1.710  -0.802   3.939  0.2949 -0.4690 -0.2169
  130OSM   H15S13923   1.658  -0.874   3.873 -1.1157  0.7862 -0.5380
  130OSM   H15T13924   1.682  -0.696   3.920 -0.3760 -0.3654  1.2014
  130OSM   C16S13925   1.679  -0.825   4.089 -0.2194 -0.2977  0.5721
  130OSM   H16S13926   1.744  -0.756   4.147 -1.1318 -0.9909  2.4963
  130OSM   H16T13927   1.711  -0.928   4.113 -0.6949 -0.9608 -1.4397
  130OSM   C17S13928   1.528  -0.802   4.119 -0.8595  0.2579 -0.1452
  130OSM   H17S13929   1.477  -0.871   4.048 -1.6724  2.1035 -1.4458
  130OSM   H17T13930   1.507  -0.699   4.083 -0.9167  0.1277 -0.4858
  130OSM   C18S13931   1.496  -0.816   4.264  0.2416 -0.6044 -0.4384
  130OSM   H18S13932   1.393  -0.790   4.297  0.7872 -0.7714  1.5422
  130OSM   H18T13933   1.564  -0.753   4.325 -1.4153  0.5667  0.2940
  130OSM   H18U13934   1.506  -0.925   4.284  0.6180 -0.5609 -0.3727
  130OSM    C1F13935   2.165  -0.606   2.577 -0.1459 -0.6752  1.0665
  130OSM     OF13936   2.266  -0.559   2.520 -0.1899  0.1706 -0.6145
  130OSM    C2F13937   2.128  -0.750   2.573 -0.6446 -1.2718 -0.2149
  130OSM    H2F13938   2.079  -0.768   2.475 -0.8566  0.4619 -0.4550
  130OSM    H2G13939   2.050  -0.770   2.650  0.1420  0.0509  0.9682
  130OSM    C3F13940   2.252  -0.836   2.602  0.6820 -0.5025  0.5053
  130OSM    H3F13941   2.330  -0.804   2.531 -1.1834  0.2631 -1.3105
  130OSM    H3G13942   2.241  -0.945   2.580  0.8975 -0.5728  0.7487
  130OSM    C4F13943   2.299  -0.827   2.747 -0.0882  0.2357  0.7302
  130OSM    H4F13944   2.309  -0.722   2.783 -0.6289  0.0083  1.5552
  130OSM    H4G13945   2.398  -0.874   2.760  1.0462  1.6690 -1.8591
  130OSM    C5F13946   2.201  -0.897   2.840 -0.4061 -0.1173  0.6226
  130OSM    H5F13947   2.203  -1.008   2.843  0.5950 -0.1851 -1.2053
  130OSM    H5G13948   2.099  -0.862   2.816  0.1897  0.2037 -1.7003
  130OSM    C6F13949   2.216  -0.865   2.989  0.2639 -0.1572  0.1200
  130OSM    H6F13950   2.214  -0.754   2.997  0.6018 -0.2598  2.4134
  130OSM    H6G13951   2.312  -0.909   3.025  0.3138 -1.5511 -1.6011
  130OSM    C7F13952   2.096  -0.916   3.076 -0.1594 -0.5280 -0.4902
  130OSM    H7F13953   2.089  -1.025   3.053 -1.1042 -0.4683 -0.5170
  130OSM    H7G13954   2.001  -0.871   3.041  0.1807  0.0808 -0.6489
  130OSM    C8F13955   2.105  -0.903   3.230  0.1734 -0.2818 -0.0142
  130OSM    H8F13956   2.017  -0.956   3.270 -1.8739  0.4712 -3.1407
  130OSM    H8G13957   2.099  -0.798   3.265  1.9510  0.1799 -0.9417
  130OSM    C9F13958   2.230  -0.970   3.282 -0.2277 -0.1754  0.2290
  130OSM    H9F13959   2.241  -1.070   3.238  0.2297 -0.4336  0.9037
  130OSM   C10F13960   2.336  -0.930   3.356  0.6454 -0.1746  0.0820
  130OSM   H10F13961   2.411  -1.009   3.367 -0.7401 -2.2773 -3.7640
  130OSM   C11F13962   2.351  -0.800   3.436  0.1782  0.0479 -0.1103
  130OSM   H11F13963   2.278  -0.722   3.405  0.3051 -0.0069 -0.5605
  130OSM   H11G13964   2.453  -0.763   3.414 -0.5361  1.8549 -0.5289
  130OSM   C12F13965   2.340  -0.837   3.584  0.1099 -0.2623  0.0489
  130OSM   H12F13966   2.425  -0.900   3.620  0.0764  0.0136  0.6189
  130OSM   H12G13967   2.243  -0.889   3.600  0.3312 -0.6758  0.0723
  130OSM   C13F13968   2.346  -0.700   3.662  0.3701  0.1108  0.2716
  130OSM   H13F13969   2.280  -0.630   3.607 -1.1698 -1.1284  0.4767
  130OSM   H13G13970   2.448  -0.655   3.662  0.4341 -0.0269  0.9286
  130OSM   C14F13971   2.299  -0.711   3.810 -0.9452 -0.3945 -0.1050
  130OSM   H14F13972   2.370  -0.766   3.875  1.6787  0.8687 -1.7350
  130OSM   H14G13973   2.200  -0.762   3.815 -0.5221 -1.1079  2.2411
  130OSM   C15F13974   2.275  -0.574   3.872 -0.3856 -0.2179  0.5340
  130OSM   H15F13975   2.199  -0.524   3.808 -0.0668  0.0823  0.3812
  130OSM   H15G13976   2.367  -0.511   3.877  1.3777 -2.6605  5.4503
  130OSM   C16F13977   2.215  -0.575   4.014 -0.0844 -0.3748  0.2790
  130OSM   H16F13978   2.139  -0.657   4.017 -0.4494 -0.0165  1.0710
  130OSM   H16G13979   2.165  -0.478   4.032  0.2895 -0.3426  1.2136
  130OSM   C17F13980   2.327  -0.594   4.118  0.5181  0.1379 -0.0901
  130OSM   H17F13981   2.412  -0.535   4.077 -2.6369  1.7806 -5.1299
  130OSM   H17G13982   2.356  -0.700   4.128 -2.1142 -0.5946  0.3517
  130OSM   C18F13983   2.290  -0.533   4.254  0.0471 -0.3348 -0.2144
  130OSM   H18F13984   2.339  -0.585   4.339  0.4218 -1.9883 -1.3787
  130OSM   H18G13985   2.184  -0.557   4.277  0.1768 -0.4467  0.2842
  130OSM   H18H13986   2.309  -0.424   4.258  1.2055 -0.5513  1.2665
  131OSM      N13987   5.258   1.859   2.441 -1.0645 -0.0538 -0.8492
  131OSM    C1513988   5.188   1.968   2.373 -0.2432 -0.8540 -0.1476
  131OSM   H15A13989   5.161   2.057   2.427 -0.5216  0.3998 -2.2371
  131OSM   H15B13990   5.089   1.937   2.343 -1.4360  1.9426  0.5732
  131OSM   H15C13991   5.242   1.996   2.284  0.1352  1.9388  0.8703
  131OSM    C1413992   5.240   1.738   2.356 -0.4202  0.1826  0.2250
  131OSM   H14A13993   5.292   1.747   2.262  0.3153 -1.5423  0.4385
  131OSM   H14B13994   5.137   1.707   2.341  0.1390 -2.4064  1.2262
  131OSM   H14C13995   5.284   1.656   2.411  3.0440  2.1480  0.6712
  131OSM    C1313996   5.402   1.896   2.437  0.3415 -0.6597 -0.1967
  131OSM   H13A13997   5.462   1.820   2.485  0.8213 -0.1254  0.0610
  131OSM   H13B13998   5.425   1.994   2.475  3.1309  0.2652 -3.7069
  131OSM   H13C13999   5.433   1.896   2.333 -0.6376 -1.2522 -0.4984
  131OSM    C1214000   5.214   1.841   2.592 -0.1723  0.6672 -0.1480
  131OSM   H12A14001   5.257   1.758   2.647 -2.1612 -0.8154 -0.7097
  131OSM   H12B14002   5.112   1.806   2.595 -0.6356  1.9381  3.1582
  131OSM    C1114003   5.232   1.966   2.687 -0.3896  0.6069  0.2084
  131OSM   H11A14004   5.334   2.010   2.687  0.5444 -1.4087  1.2731
  131OSM   H11B14005   5.215   1.946   2.795 -1.6259 -1.9018 -0.3715
  131OSM      P14006   4.985   2.053   2.672 -0.6712 -0.5252 -0.2744
  131OSM    O1314007   4.932   2.152   2.580 -0.0980 -0.4028 -0.2195
  131OSM    O1414008   4.931   1.918   2.665  0.0537  0.0894  0.7707
  131OSM    O1114009   4.971   2.103   2.823 -0.0059  0.2556  0.1301
  131OSM    O1214010   5.141   2.068   2.654  0.6106  0.4640 -0.2183
  131OSM    C1S14011   4.971   2.006   2.927 -0.6678 -0.9025 -0.0281
  131OSM    H1S14012   5.073   1.970   2.954 -0.4476 -0.4225 -0.2164
  131OSM    H1T14013   4.906   1.918   2.911  0.7060 -1.5479 -2.5707
  131OSM     NF14014   4.916   1.964   3.167 -0.1680  0.5674 -0.6181
  131OSM    HNF14015   4.830   1.925   3.197  1.5248 -2.5804  0.5657
  131OSM    C2S14016   4.909   2.055   3.057 -1.1330  0.2267 -0.4453
  131OSM    H2S14017   4.973   2.142   3.082 -0.4778 -0.2905 -0.3272
  131OSM    C3S14018   4.764   2.105   3.039  0.4389 -0.4762  0.3307
  131OSM    H3S14019   4.701   2.017   3.011  0.1008 -0.3719  0.7610
  131OSM     O314020   4.753   2.199   2.937 -0.1122 -0.3834  0.2352
  131OSM    HO314021   4.840   2.189   2.897 -0.7576 -0.3683 -1.2502
  131OSM    C4S14022   4.718   2.161   3.173 -0.0981  0.1036  0.1990
  131OSM    H4S14023   4.652   2.083   3.214 -1.8260 -0.5481 -3.4109
  131OSM    C5S14024   4.745   2.281   3.235  0.9996 -0.3596  0.1130
  131OSM    H5S14025   4.804   2.364   3.193  1.9300 -1.6360 -1.2325
  131OSM    C6S14026   4.678   2.318   3.362 -0.2710 -0.7380  0.0206
  131OSM    H6S14027   4.576   2.273   3.352  0.6766 -2.7023 -1.4946
  131OSM    H6T14028   4.684   2.429   3.373  1.0261 -0.9251  1.5552
  131OSM    C7S14029   4.751   2.254   3.484 -0.1147 -0.0510  0.3010
  131OSM    H7S14030   4.856   2.233   3.455  0.5446  0.8849  1.8784
  131OSM    H7T14031   4.707   2.152   3.497  1.4037 -0.6680  0.8958
  131OSM    C8S14032   4.748   2.325   3.619 -0.0291  0.0901 -0.1885
  131OSM    H8S14033   4.645   2.364   3.635 -0.0458  0.0820 -0.2731
  131OSM    H8T14034   4.810   2.417   3.620  0.0402  0.0870  2.1921
  131OSM    C9S14035   4.780   2.219   3.726 -0.3253 -0.6195  0.1713
  131OSM    H9S14036   4.876   2.169   3.701  0.0672 -0.4295  1.2395
  131OSM    H9T14037   4.699   2.145   3.713 -0.8767  0.1920 -1.2493
  131OSM   C10S14038   4.803   2.286   3.863  0.0882  0.4150 -0.1699
  131OSM   H10S14039   4.716   2.351   3.883 -0.2554  1.1282 -3.3926
  131OSM   H10T14040   4.891   2.353   3.854  0.2792  0.0710 -1.0870
  131OSM   C11S14041   4.840   2.189   3.974  0.0120  0.2669  0.0928
  131OSM   H11S14042   4.947   2.162   3.965 -0.0636 -0.3695  0.9499
  131OSM   H11T14043   4.773   2.100   3.968 -0.0402  0.2254  1.1346
  131OSM   C12S14044   4.808   2.252   4.101  0.2167  0.2093 -0.4860
  131OSM   H12S14045   4.703   2.283   4.115  0.0090 -0.1475 -1.2180
  131OSM   H12T14046   4.871   2.343   4.114  0.7165 -0.1669 -0.2211
  131OSM   C13S14047   4.845   2.153   4.217 -0.0502  0.6692 -0.1152
  131OSM   H13S14048   4.955   2.146   4.227 -0.1065 -2.7580 -0.7003
  131OSM   H13T14049   4.800   2.054   4.193  1.1404  0.3857 -1.2707
  131OSM   C14S14050   4.778   2.195   4.347  0.0379  0.9361 -0.5310
  131OSM   H14S14051   4.668   2.215   4.340  0.0998  1.6488  0.3230
  131OSM   H14T14052   4.817   2.293   4.382 -0.9446  0.7169  1.3282
  131OSM   C15S14053   4.780   2.087   4.455  0.2223  0.4930 -0.4249
  131OSM   H15S14054   4.885   2.063   4.482  0.9258  0.4686 -2.9074
  131OSM   H15T14055   4.735   1.997   4.410 -1.3252  0.4827  1.0254
  131OSM   C16S14056   4.709   2.124   4.591  0.0051  0.2879  0.3827
  131OSM   H16S14057   4.599   2.123   4.575  0.0123  1.2371  0.2088
  131OSM   H16T14058   4.744   2.223   4.629  0.3482  0.2474  0.1725
  131OSM   C17S14059   4.743   2.023   4.704 -0.3582  0.8637 -0.1356
  131OSM   H17S14060   4.844   1.983   4.683 -1.6639 -1.5157 -2.5828
  131OSM   H17T14061   4.670   1.940   4.691 -0.2548  0.6539  0.5880
  131OSM   C18S14062   4.718   2.076   4.842  0.6149  0.1732  0.0701
  131OSM   H18S14063   4.720   1.992   4.914 -1.4085  0.1813  0.1857
  131OSM   H18T14064   4.618   2.123   4.853  0.6320  0.1913  0.1518
  131OSM   H18U14065   4.802   2.145   4.865  1.0899 -0.0464 -0.9335
  131OSM    C1F14066   5.037   1.925   3.221  0.0125 -0.1392  0.3487
  131OSM     OF14067   5.150   1.979   3.210 -0.0967  0.2770 -0.2873
  131OSM    C2F14068   5.024   1.809   3.313 -0.2698 -0.3536 -0.5186
  131OSM    H2F14069   5.126   1.771   3.334 -0.3672 -0.4304 -0.1831
  131OSM    H2G14070   4.951   1.740   3.266 -0.8813  0.7291 -1.2121
  131OSM    C3F14071   4.968   1.862   3.451 -0.7184  0.4014  0.4855
  131OSM    H3F14072   4.948   1.768   3.506  1.6143 -1.0673 -0.9921
  131OSM    H3G14073   4.874   1.920   3.439 -0.0679  1.2842 -0.5503
  131OSM    C4F14074   5.067   1.957   3.511 -0.1003  0.0419  1.0878
  131OSM    H4F14075   5.052   2.056   3.464  1.4165 -0.7482 -1.3014
  131OSM    H4G14076   5.170   1.941   3.472  1.0975 -0.4101  4.1501
  131OSM    C5F14077   5.066   1.958   3.665 -0.2543  0.1533  0.3399
  131OSM    H5F14078   4.959   1.956   3.694 -1.3185 -4.8745 -2.7017
  131OSM    H5G14079   5.098   2.055   3.708 -1.2327 -0.3148  2.2543
  131OSM    C6F14080   5.138   1.845   3.739  0.5891 -0.3313  0.3853
  131OSM    H6F14081   5.247   1.836   3.717  0.6266 -0.1091  0.4721
  131OSM    H6G14082   5.100   1.746   3.709 -0.2977  0.2943 -0.6102
  131OSM    C7F14083   5.122   1.856   3.889  0.4375 -0.0756 -0.4444
  131OSM    H7F14084   5.148   1.752   3.919  0.6865 -0.5611 -2.2108
  131OSM    H7G14085   5.018   1.879   3.921 -0.4571 -0.6872 -2.6863
  131OSM    C8F14086   5.210   1.964   3.962 -0.0031 -0.3205 -0.1476
  131OSM    H8F14087   5.164   2.062   3.937 -2.3610 -1.3921 -0.3573
  131OSM    H8G14088   5.314   1.977   3.927 -0.6949  3.2114 -1.3531
  131OSM    C9F14089   5.208   1.954   4.111  0.2446  0.4050  0.2849
  131OSM    H9F14090   5.105   1.968   4.147 -0.2360 -0.1992 -0.8084
  131OSM   C10F14091   5.310   1.927   4.196  0.7706 -0.3799 -0.3148
  131OSM   H10F14092   5.301   1.930   4.306 -0.2026 -1.4418 -0.3458
  131OSM   C11F14093   5.457   1.914   4.162 -0.3617 -0.0189  0.4199
  131OSM   H11F14094   5.481   1.980   4.076  0.4444 -2.4905 -1.3700
  131OSM   H11G14095   5.473   1.808   4.132 -1.1882  0.3038 -1.3157
  131OSM   C12F14096   5.552   1.961   4.275 -0.1359 -0.1602  0.6813
  131OSM   H12F14097   5.508   2.058   4.305  0.8746  0.6596 -0.4429
  131OSM   H12G14098   5.648   1.973   4.222 -0.3338 -1.7192 -0.0784
  131OSM   C13F14099   5.566   1.868   4.395  0.1942  0.1346 -0.4546
  131OSM   H13F14100   5.621   1.775   4.368 -2.3938 -1.3018 -1.2753
  131OSM   H13G14101   5.467   1.837   4.435  0.9599 -0.2176  1.2373
  131OSM   C14F14102   5.633   1.934   4.518  0.0886 -0.0572  0.9842
  131OSM   H14F14103   5.738   1.969   4.502  0.2528 -1.1638 -0.5399
  131OSM   H14G14104   5.646   1.853   4.593 -0.5113 -0.2386  0.8958
  131OSM   C15F14105   5.556   2.049   4.585  1.1388  0.4395  0.6815
  131OSM   H15F14106   5.453   2.008   4.580  1.3869 -0.0758 -3.7380
  131OSM   H15G14107   5.560   2.139   4.520 -0.9924  0.0743 -0.0602
  131OSM   C16F14108   5.608   2.082   4.723 -0.1302  0.1465  0.0545
  131OSM   H16F14109   5.596   1.997   4.794 -0.9041  1.3580  1.4156
  131OSM   H16G14110   5.548   2.164   4.768 -0.8750  0.0795 -0.8002
  131OSM   C17F14111   5.755   2.125   4.739 -0.9471  0.6678 -0.4144
  131OSM   H17F14112   5.768   2.214   4.673  0.5573  0.4664 -0.4232
  131OSM   H17G14113   5.818   2.040   4.705 -2.8687 -0.0863 -2.3495
  131OSM   C18F14114   5.803   2.157   4.881 -0.0168 -0.0059  0.0733
  131OSM   H18F14115   5.913   2.167   4.885  0.1357 -1.7913  1.1587
  131OSM   H18G14116   5.776   2.079   4.956 -2.2912 -1.0314 -1.6747
  131OSM   H18H14117   5.756   2.249   4.923 -0.3838 -1.5078  3.2221
  132OSM      N14118   3.315   4.043   2.638  0.0910  0.7581  0.2982
  132OSM    C1514119   3.400   4.144   2.704  0.0772 -0.2927  0.5430
  132OSM   H15A14120   3.393   4.147   2.812 -1.7006  0.1874  0.4423
  132OSM   H15B14121   3.383   4.241   2.660 -4.2803 -0.5029  1.3621
  132OSM   H15C14122   3.501   4.119   2.673 -0.0574 -1.2799  0.8557
  132OSM    C1414123   3.176   4.106   2.631 -0.1382 -0.2048 -0.4594
  132OSM   H14A14124   3.174   4.193   2.567 -0.0341 -0.8486 -1.3513
  132OSM   H14B14125   3.140   4.131   2.730  0.5380 -1.3499  0.0988
  132OSM   H14C14126   3.105   4.035   2.592  1.8970 -1.5256 -1.9706
  132OSM    C1314127   3.375   4.029   2.498 -0.1868 -0.0964 -0.4136
  132OSM   H13A14128   3.352   3.932   2.458 -0.7170  0.3163 -1.1318
  132OSM   H13B14129   3.482   4.045   2.499 -0.2738  0.5502 -0.6754
  132OSM   H13C14130   3.338   4.101   2.426 -1.5432 -0.7246 -0.3791
  132OSM    C1214131   3.306   3.904   2.702 -0.4893 -0.1239 -0.5507
  132OSM   H12A14132   3.253   3.836   2.637 -0.2206 -2.6557  1.6994
  132OSM   H12B14133   3.249   3.919   2.793  1.3275 -1.1252  0.8177
  132OSM    C1114134   3.440   3.839   2.741  0.1333  0.0044 -0.0570
  132OSM   H11A14135   3.419   3.738   2.781  0.5926  0.0648  0.3391
  132OSM   H11B14136   3.469   3.892   2.834 -0.6912 -0.2492  0.3440
  132OSM      P14137   3.694   3.882   2.673  0.2217 -0.2149 -0.1829
  132OSM    O1314138   3.775   3.810   2.576  0.2262  0.2711 -0.8045
  132OSM    O1414139   3.701   4.033   2.673 -0.4412  0.0717 -0.2970
  132OSM    O1114140   3.703   3.828   2.822 -0.5943 -0.3963  0.4231
  132OSM    O1214141   3.539   3.842   2.640 -0.2719  0.1404 -0.0369
  132OSM    C1S14142   3.806   3.729   2.856  0.0195 -0.3924 -0.3909
  132OSM    H1S14143   3.900   3.759   2.805 -0.0860  3.5784  1.3087
  132OSM    H1T14144   3.778   3.631   2.813 -0.6708 -0.3210 -0.1164
  132OSM     NF14145   3.932   3.642   3.049  0.4633  0.0405  0.0172
  132OSM    HNF14146   3.932   3.553   3.094  1.2843 -0.0256 -0.0860
  132OSM    C2S14147   3.820   3.729   3.011  0.2574  0.2616 -0.2323
  132OSM    H2S14148   3.850   3.831   3.041  2.0513 -0.4649  0.6229
  132OSM    C3S14149   3.684   3.697   3.083 -0.2295  0.1630  0.0196
  132OSM    H3S14150   3.663   3.591   3.054 -1.8002  0.7536 -1.1053
  132OSM     O314151   3.563   3.751   3.026  0.2159 -0.0021  0.0765
  132OSM    HO314152   3.590   3.788   2.942 -1.7610  1.4015 -0.0296
  132OSM    C4S14153   3.697   3.707   3.239  0.3347 -0.4763  0.6404
  132OSM    H4S14154   3.719   3.614   3.294 -1.6466 -0.8418  0.9218
  132OSM    C5S14155   3.652   3.811   3.307  0.2753  0.2008  0.4052
  132OSM    H5S14156   3.603   3.890   3.248  1.1513  0.0334 -0.5713
  132OSM    C6S14157   3.662   3.820   3.456 -0.2950  0.0762 -0.4957
  132OSM    H6S14158   3.761   3.858   3.489 -0.7461  1.3136 -0.5036
  132OSM    H6T14159   3.648   3.724   3.510 -1.0141  0.9745  1.0116
  132OSM    C7S14160   3.563   3.927   3.506  0.2754  0.5957  0.6622
  132OSM    H7S14161   3.588   4.023   3.456  2.9311 -0.9507 -1.2021
  132OSM    H7T14162   3.586   3.926   3.615  1.0201 -0.7932  0.5127
  132OSM    C8S14163   3.414   3.890   3.470 -0.3389  0.5073  0.5125
  132OSM    H8S14164   3.394   3.781   3.466  3.4641 -0.3022 -1.1779
  132OSM    H8T14165   3.374   3.928   3.373 -0.2401  0.7147  0.5535
  132OSM    C9S14166   3.325   3.941   3.600 -0.0222 -0.3248  0.5067
  132OSM    H9S14167   3.365   4.044   3.610  2.7163 -1.0934 -1.3108
  132OSM    H9T14168   3.351   3.875   3.686  0.9248 -0.8688 -0.1807
  132OSM   C10S14169   3.168   3.929   3.566 -1.1288  0.1802 -0.5653
  132OSM   H10S14170   3.132   3.827   3.592 -0.0089 -0.0994 -0.0361
  132OSM   H10T14171   3.156   3.934   3.456  0.1245 -1.6064 -0.8206
  132OSM   C11S14172   3.090   4.028   3.645 -0.8344 -0.2957  0.3888
  132OSM   H11S14173   2.981   4.017   3.625 -0.9434  2.1359 -0.7702
  132OSM   H11T14174   3.095   4.134   3.614 -2.0266 -0.1194  0.7385
  132OSM   C12S14175   3.121   4.027   3.793 -0.2307  0.9540 -0.0761
  132OSM   H12S14176   3.218   4.081   3.794 -0.6029  1.6285  0.3385
  132OSM   H12T14177   3.142   3.923   3.826 -0.3223  0.9665  0.0222
  132OSM   C13S14178   3.026   4.097   3.888  0.7035  0.1716 -0.6156
  132OSM   H13S14179   2.932   4.038   3.887  0.5103  0.4439  0.4867
  132OSM   H13T14180   2.999   4.195   3.843 -1.0427 -0.2222 -0.4948
  132OSM   C14S14181   3.078   4.116   4.030 -0.1128 -0.2727 -0.0447
  132OSM   H14S14182   3.147   4.035   4.062 -0.4888 -0.2071  0.9647
  132OSM   H14T14183   2.992   4.111   4.100 -0.8121  0.1067 -0.8593
  132OSM   C15S14184   3.152   4.250   4.039  0.7446 -0.1710 -0.7586
  132OSM   H15S14185   3.079   4.332   4.024  0.1407 -0.3758  0.8232
  132OSM   H15T14186   3.232   4.255   3.962  0.8098  1.1944 -0.6149
  132OSM   C16S14187   3.217   4.282   4.180  0.1101 -0.4562  0.3068
  132OSM   H16S14188   3.257   4.386   4.183 -1.0857  0.0007  2.1668
  132OSM   H16T14189   3.294   4.205   4.203  0.5156  0.0067  0.5071
  132OSM   C17S14190   3.115   4.272   4.295 -0.4041 -0.1925  0.1916
  132OSM   H17S14191   3.177   4.296   4.383  0.1532 -0.7383 -0.0433
  132OSM   H17T14192   3.081   4.167   4.308  0.3810 -0.4985 -0.1898
  132OSM   C18S14193   2.990   4.360   4.298 -0.3238  0.7485  0.2978
  132OSM   H18S14194   2.926   4.352   4.389 -0.4203 -0.5014  0.1323
  132OSM   H18T14195   2.931   4.334   4.207 -1.6495  1.7549  0.8338
  132OSM   H18U14196   3.019   4.467   4.291 -2.1277  1.3362  1.0977
  132OSM    C1F14197   4.061   3.686   3.034 -0.3690 -0.1312 -0.0554
  132OSM     OF14198   4.084   3.797   2.989 -0.1565  0.4449 -0.2822
  132OSM    C2F14199   4.169   3.587   3.065 -0.3195  0.1449  0.2418
  132OSM    H2F14200   4.234   3.576   2.976 -2.7675 -0.4866 -1.5544
  132OSM    H2G14201   4.115   3.493   3.091  0.8474 -0.6735 -0.1888
  132OSM    C3F14202   4.252   3.624   3.193  0.4000  0.6219 -0.5394
  132OSM    H3F14203   4.288   3.728   3.181 -0.8477  0.9547 -1.6594
  132OSM    H3G14204   4.327   3.543   3.206 -0.9978 -0.8210 -1.0583
  132OSM    C4F14205   4.154   3.624   3.317  0.4197  0.7210  0.7031
  132OSM    H4F14206   4.084   3.538   3.307 -1.2023  1.8956  1.6398
  132OSM    H4G14207   4.088   3.713   3.322 -0.4715  0.0332  1.9162
  132OSM    C5F14208   4.212   3.595   3.463 -0.0694 -0.3202  0.2902
  132OSM    H5F14209   4.283   3.512   3.446 -0.4363 -0.4043 -0.9174
  132OSM    H5G14210   4.129   3.559   3.527  0.4499 -1.8256  0.1496
  132OSM    C6F14211   4.286   3.723   3.529  0.1739  0.6273  0.8772
  132OSM    H6F14212   4.207   3.797   3.554  0.1718 -0.0128  2.9434
  132OSM    H6G14213   4.353   3.764   3.450  1.0823 -0.1083  1.2586
  132OSM    C7F14214   4.355   3.675   3.652 -0.6531  0.1860  0.0470
  132OSM    H7F14215   4.413   3.582   3.632  0.1811  0.7426 -0.1352
  132OSM    H7G14216   4.282   3.652   3.732  0.8948  0.8326  1.7135
  132OSM    C8F14217   4.457   3.768   3.708  0.1458 -0.4854 -0.0519
  132OSM    H8F14218   4.521   3.812   3.629 -0.9450  1.5716  0.1307
  132OSM    H8G14219   4.528   3.705   3.765 -0.1367 -1.4864 -0.7797
  132OSM    C9F14220   4.407   3.896   3.774  0.5940  0.7031 -0.2739
  132OSM    H9F14221   4.390   3.977   3.702 -0.6808  0.6111 -0.1003
  132OSM   C10F14222   4.366   3.910   3.902 -0.2307  0.1712 -0.2832
  132OSM   H10F14223   4.339   4.007   3.946 -1.3931 -0.5298  0.6113
  132OSM   C11F14224   4.375   3.797   4.000 -0.5071  0.1359 -0.4787
  132OSM   H11F14225   4.413   3.699   3.965  1.5176 -0.0645  1.9983
  132OSM   H11G14226   4.274   3.766   4.035 -0.4321  2.1255  1.7162
  132OSM   C12F14227   4.458   3.830   4.118  0.2454 -0.0734 -0.7875
  132OSM   H12F14228   4.566   3.828   4.095  0.2267 -0.4803 -0.8550
  132OSM   H12G14229   4.444   3.739   4.181 -2.1421  0.4464 -0.4416
  132OSM   C13F14230   4.417   3.953   4.201 -0.4781 -0.5263  0.0311
  132OSM   H13F14231   4.307   3.955   4.217 -0.3129 -0.3878  1.2459
  132OSM   H13G14232   4.444   4.049   4.153  0.4016  0.3939  2.2037
  132OSM   C14F14233   4.486   3.955   4.340 -0.6890 -0.6835  0.1089
  132OSM   H14F14234   4.594   3.963   4.316 -1.3054  2.9203 -2.1365
  132OSM   H14G14235   4.470   3.859   4.394 -2.6851  0.6077  2.0306
  132OSM   C15F14236   4.449   4.078   4.428  0.6778 -0.8683 -0.1150
  132OSM   H15F14237   4.429   4.160   4.355 -0.1115 -2.4007 -1.6979
  132OSM   H15G14238   4.534   4.108   4.494  1.6091 -0.9106 -1.2578
  132OSM   C16F14239   4.318   4.058   4.506 -0.6925  0.0209  0.8008
  132OSM   H16F14240   4.329   3.987   4.591  2.4584  0.0821  0.5358
  132OSM   H16G14241   4.267   3.999   4.427 -0.6196 -2.2100  2.3328
  132OSM   C17F14242   4.255   4.188   4.553  0.2248  0.8890 -0.1566
  132OSM   H17F14243   4.278   4.255   4.467  0.8612  1.0382  0.1236
  132OSM   H17G14244   4.304   4.224   4.646 -0.1777 -1.5857  1.1004
  132OSM   C18F14245   4.103   4.186   4.573 -0.5880  0.4319 -0.2485
  132OSM   H18F14246   4.075   4.281   4.623 -0.7295 -0.3995  1.2896
  132OSM   H18G14247   4.069   4.117   4.653 -2.7229  2.5143  0.7764
  132OSM   H18H14248   4.039   4.180   4.482 -1.1519 -1.7327  0.2379
  133OSM      N14249   0.158   3.273   2.181  0.1611 -0.0587  0.0860
  133OSM    C1514250   0.302   3.261   2.148 -0.2202 -0.3489 -0.2732
  133OSM   H15A14251   0.348   3.183   2.206 -2.7605 -1.2065  0.7180
  133OSM   H15B14252   0.352   3.355   2.166  2.0357 -0.3702 -4.9567
  133OSM   H15C14253   0.320   3.232   2.045  2.7864 -0.7420  0.2889
  133OSM    C1414254   0.088   3.370   2.098 -0.0119  0.3039  0.5387
  133OSM   H14A14255   0.074   3.336   1.996 -1.1177  1.7490  0.1638
  133OSM   H14B14256   0.142   3.463   2.092  2.0226 -0.9200 -1.8228
  133OSM   H14C14257  -0.008   3.399   2.139 -1.5972 -2.4346 -0.9461
  133OSM    C1314258   0.091   3.137   2.161  0.2493 -0.1369 -0.1805
  133OSM   H13A14259   0.094   3.107   2.057  1.5097 -0.3998 -0.0810
  133OSM   H13B14260  -0.011   3.158   2.190  1.4662  0.8199  4.0324
  133OSM   H13C14261   0.130   3.054   2.218  2.1265  1.2216  0.6267
  133OSM    C1214262   0.155   3.317   2.320  0.1610  0.1738 -0.5995
  133OSM   H12A14263   0.052   3.330   2.351  0.1091 -1.5588  0.0727
  133OSM   H12B14264   0.205   3.412   2.325  0.5743  0.0656 -2.1242
  133OSM    C1114265   0.195   3.223   2.432  0.3765  0.4433  0.4763
  133OSM   H11A14266   0.131   3.132   2.430  2.9820 -1.5007  0.3666
  133OSM   H11B14267   0.172   3.272   2.529 -2.4010 -0.1846  0.2052
  133OSM      P14268   0.394   3.089   2.535  0.7961 -0.1532  0.1223
  133OSM    O1314269   0.320   2.960   2.519 -0.0008 -1.1546  0.3404
  133OSM    O1414270   0.534   3.083   2.540  0.0228  0.0715  0.3628
  133OSM    O1114271   0.351   3.165   2.673 -0.5630  0.2686  0.1891
  133OSM    O1214272   0.338   3.192   2.430 -0.1061  0.0261 -0.1674
  133OSM    C1S14273   0.407   3.298   2.696 -0.1999 -0.3623  0.1240
  133OSM    H1S14274   0.344   3.381   2.658 -0.1162  0.0542  0.8871
  133OSM    H1T14275   0.503   3.308   2.642 -0.6989 -0.2776 -0.7834
  133OSM     NF14276   0.445   3.459   2.885 -0.0172 -0.1839  0.0585
  133OSM    HNF14277   0.538   3.496   2.884 -0.0254  0.1787  3.1251
  133OSM    C2S14278   0.433   3.316   2.848  0.2397  0.4387 -0.3509
  133OSM    H2S14279   0.345   3.275   2.902 -0.8998  0.3882 -2.1638
  133OSM    C3S14280   0.566   3.250   2.894  0.3387  0.6109  0.2958
  133OSM    H3S14281   0.657   3.273   2.835  2.6029 -0.8716  2.9124
  133OSM     O314282   0.567   3.108   2.875 -0.3883 -0.1196  0.0445
  133OSM    HO314283   0.526   3.090   2.790  1.8261  0.5945 -1.2374
  133OSM    C4S14284   0.582   3.273   3.041  0.2213  0.0719  0.2466
  133OSM    H4S14285   0.515   3.208   3.098  0.2516 -1.4188 -1.3359
  133OSM    C5S14286   0.679   3.344   3.106  0.1910 -0.3343 -0.3227
  133OSM    H5S14287   0.751   3.397   3.043 -1.0272  1.4922 -0.2550
  133OSM    C6S14288   0.687   3.364   3.255 -0.2303 -0.3102 -0.3199
  133OSM    H6S14289   0.664   3.470   3.277  0.5057 -0.4639  1.3368
  133OSM    H6T14290   0.793   3.357   3.288 -0.7699 -2.1602  1.2616
  133OSM    C7S14291   0.608   3.281   3.356 -0.6911 -0.8047 -0.1304
  133OSM    H7S14292   0.618   3.170   3.352 -3.4409 -1.2870  2.7354
  133OSM    H7T14293   0.500   3.299   3.339 -0.4546 -0.9603 -2.0131
  133OSM    C8S14294   0.629   3.340   3.493 -0.8158 -0.5685 -0.2344
  133OSM    H8S14295   0.546   3.409   3.521  0.5601  1.1479 -0.2341
  133OSM    H8T14296   0.724   3.397   3.490 -0.4983 -1.1188 -0.8122
  133OSM    C9S14297   0.641   3.235   3.610 -0.2642 -0.5783 -0.2882
  133OSM    H9S14298   0.731   3.177   3.580  0.8063  0.3523  0.9972
  133OSM    H9T14299   0.549   3.174   3.600 -0.7198  0.1220 -0.4278
  133OSM   C10S14300   0.650   3.302   3.750  0.5836  0.2776  0.8316
  133OSM   H10S14301   0.558   3.361   3.771  1.0966  0.9387  1.2845
  133OSM   H10T14302   0.743   3.363   3.751  0.0360  1.1344  1.4368
  133OSM   C11S14303   0.662   3.192   3.857  0.1064 -0.5653 -0.4351
  133OSM   H11S14304   0.737   3.117   3.824 -0.9172 -1.0143 -1.8369
  133OSM   H11T14305   0.561   3.149   3.873  0.6292 -0.8911  2.5151
  133OSM   C12S14306   0.688   3.249   3.997 -0.2166  0.0101 -0.2216
  133OSM   H12S14307   0.613   3.330   4.003  0.6735  0.9263 -1.0514
  133OSM   H12T14308   0.791   3.288   4.017  0.1263 -1.5480  1.3358
  133OSM   C13S14309   0.667   3.140   4.108 -0.0332 -0.0388 -0.5549
  133OSM   H13S14310   0.755   3.072   4.107 -0.2437 -0.3253 -1.7122
  133OSM   H13T14311   0.577   3.080   4.082  0.6316 -0.0488 -3.1808
  133OSM   C14S14312   0.667   3.207   4.243  0.2367  0.3570 -0.3772
  133OSM   H14S14313   0.589   3.287   4.245  2.1242  2.2826  0.3133
  133OSM   H14T14314   0.762   3.264   4.258  0.5060 -0.5644  1.7171
  133OSM   C15S14315   0.646   3.111   4.359 -0.1473  0.1669  0.6452
  133OSM   H15S14316   0.743   3.056   4.359 -0.5673 -0.5975 -0.4433
  133OSM   H15T14317   0.561   3.041   4.346  2.2614 -3.0853  0.9891
  133OSM   C16S14318   0.642   3.169   4.494 -0.1418 -0.2177  0.4516
  133OSM   H16S14319   0.738   3.219   4.519 -0.6729  0.6904  0.6882
  133OSM   H16T14320   0.618   3.096   4.575 -1.4524 -0.7992 -0.4378
  133OSM   C17S14321   0.529   3.268   4.512  0.3371  0.0105 -0.3384
  133OSM   H17S14322   0.433   3.211   4.507 -0.5584  1.2134  1.7107
  133OSM   H17T14323   0.523   3.338   4.426  3.7777  1.6996  0.6182
  133OSM   C18S14324   0.533   3.336   4.647  0.4378 -0.2453  0.3747
  133OSM   H18S14325   0.445   3.404   4.649 -0.0970 -0.8058 -1.6034
  133OSM   H18T14326   0.629   3.391   4.655  0.4409 -0.0233 -1.0626
  133OSM   H18U14327   0.517   3.265   4.732 -0.9616  0.1842  0.5005
  133OSM    C1F14328   0.341   3.538   2.900  0.1386 -0.1169  0.2670
  133OSM     OF14329   0.231   3.489   2.918  0.8518  0.0814 -0.4205
  133OSM    C2F14330   0.364   3.687   2.902  0.3655  0.5155 -0.2530
  133OSM    H2F14331   0.270   3.747   2.896 -0.6979 -1.0338  0.3071
  133OSM    H2G14332   0.420   3.709   2.809  0.2165 -0.2098 -0.5224
  133OSM    C3F14333   0.441   3.742   3.030  0.8931  0.2378 -0.0152
  133OSM    H3F14334   0.424   3.852   3.028 -2.2718 -0.0496  2.1003
  133OSM    H3G14335   0.548   3.718   3.016  0.9977  0.1995  0.7766
  133OSM    C4F14336   0.374   3.688   3.162 -0.2963  0.1320 -0.7883
  133OSM    H4F14337   0.427   3.591   3.176 -0.1770  0.2071 -0.7179
  133OSM    H4G14338   0.266   3.665   3.153 -0.3123 -0.1577  0.0848
  133OSM    C5F14339   0.404   3.778   3.280  0.6034 -0.1891 -0.2717
  133OSM    H5F14340   0.366   3.879   3.255 -2.2866 -0.9562  0.5674
  133OSM    H5G14341   0.513   3.790   3.299  0.4537  0.1128  0.4161
  133OSM    C6F14342   0.328   3.728   3.402 -0.6963 -0.9487  0.5720
  133OSM    H6F14343   0.359   3.624   3.422 -0.2590 -1.0513 -0.6184
  133OSM    H6G14344   0.219   3.731   3.383 -0.5316  0.9976 -0.2771
  133OSM    C7F14345   0.352   3.811   3.529 -0.3689 -0.0100 -0.1534
  133OSM    H7F14346   0.301   3.909   3.531  1.7139  1.2164 -2.1390
  133OSM    H7G14347   0.459   3.839   3.538 -0.8204  2.7087 -2.0438
  133OSM    C8F14348   0.309   3.723   3.653 -0.1805 -0.6945 -0.4406
  133OSM    H8F14349   0.205   3.685   3.646 -0.8634  1.1082 -0.6595
  133OSM    H8G14350   0.280   3.797   3.731  0.1403 -1.6942  0.6640
  133OSM    C9F14351   0.410   3.627   3.706  1.0224  0.1965  0.1072
  133OSM    H9F14352   0.398   3.528   3.660 -2.1739 -0.2565  1.6520
  133OSM   C10F14353   0.510   3.649   3.798 -0.0245  0.2886 -0.1352
  133OSM   H10F14354   0.574   3.565   3.829 -1.3307 -0.8899 -0.5221
  133OSM   C11F14355   0.539   3.773   3.872 -0.7409 -0.2817 -0.8693
  133OSM   H11F14356   0.469   3.853   3.841  0.3693  0.7047 -0.8720
  133OSM   H11G14357   0.641   3.811   3.852 -1.6721  3.6141  0.8656
  133OSM   C12F14358   0.507   3.747   4.016  0.3638  0.3063  0.1019
  133OSM   H12F14359   0.397   3.729   4.018 -0.2506  3.4196 -0.1959
  133OSM   H12G14360   0.518   3.836   4.081 -0.1748  0.8354 -0.5208
  133OSM   C13F14361   0.578   3.627   4.088 -0.2710  0.3513  0.8092
  133OSM   H13F14362   0.685   3.654   4.095  0.0881 -0.0673 -1.9653
  133OSM   H13G14363   0.568   3.533   4.028 -2.0527  1.2587 -0.4118
  133OSM   C14F14364   0.515   3.604   4.223  0.4522  0.2044 -0.6831
  133OSM   H14F14365   0.559   3.516   4.276 -1.3368 -0.8158 -0.8054
  133OSM   H14G14366   0.406   3.583   4.226  0.7994 -1.7181  0.7863
  133OSM   C15F14367   0.539   3.723   4.319 -0.3095 -0.3310  0.2397
  133OSM   H15F14368   0.464   3.801   4.292 -0.1576 -0.2129  0.1597
  133OSM   H15G14369   0.638   3.772   4.309 -1.0605  1.1459 -0.2781
  133OSM   C16F14370   0.531   3.672   4.462 -0.3497  0.3067 -0.0106
  133OSM   H16F14371   0.626   3.622   4.492 -0.2869  0.5397  0.1845
  133OSM   H16G14372   0.452   3.594   4.469 -0.1664  0.1727  0.5709
  133OSM   C17F14373   0.507   3.784   4.561 -0.1770 -0.0478 -0.4469
  133OSM   H17F14374   0.493   3.735   4.660 -2.7881 -0.9359 -1.1639
  133OSM   H17G14375   0.422   3.844   4.521  1.2483  0.7207 -2.4827
  133OSM   C18F14376   0.620   3.884   4.576  0.6009  0.2432  0.2795
  133OSM   H18F14377   0.705   3.836   4.628 -0.1699 -0.6469  0.7533
  133OSM   H18G14378   0.581   3.979   4.619 -2.5598  0.7008 -3.0665
  133OSM   H18H14379   0.644   3.922   4.474  1.5373  1.1136  0.8055
  134OSM      N14380   6.292   6.446   2.434 -0.4103  0.3590 -0.5440
  134OSM    C1514381   6.175   6.486   2.347  0.5599 -0.4065 -0.5161
  134OSM   H15A14382   6.171   6.594   2.343 -2.3817 -0.2619  2.6507
  134OSM   H15B14383   6.080   6.458   2.389 -0.5010 -0.3684 -2.7478
  134OSM   H15C14384   6.190   6.451   2.245 -1.4585  0.4897 -1.1660
  134OSM    C1414385   6.308   6.299   2.421  0.2647 -1.1944 -0.2790
  134OSM   H14A14386   6.226   6.249   2.470 -1.4193  1.7316  0.1644
  134OSM   H14B14387   6.399   6.265   2.469 -0.1305  0.1206  1.5232
  134OSM   H14C14388   6.314   6.271   2.317  0.7694  2.3712 -1.3563
  134OSM    C1314389   6.417   6.515   2.378  1.0043 -0.3404 -0.2607
  134OSM   H13A14390   6.508   6.506   2.435  1.3040  1.7433 -0.3050
  134OSM   H13B14391   6.394   6.621   2.373  0.5028 -0.3985  0.5770
  134OSM   H13C14392   6.432   6.476   2.278  0.7021 -2.1806  0.3707
  134OSM    C1214393   6.284   6.472   2.579  0.2243 -0.5911  0.1161
  134OSM   H12A14394   6.361   6.426   2.639  0.5423  0.3362  0.4385
  134OSM   H12B14395   6.193   6.425   2.613 -0.2219 -0.3805 -0.7371
  134OSM    C1114396   6.292   6.624   2.627  0.7500 -0.2245  0.4464
  134OSM   H11A14397   6.251   6.649   2.727  1.3886  4.0992 -0.1962
  134OSM   H11B14398   6.222   6.688   2.569  0.8235 -1.6060 -1.2361
  134OSM      P14399   6.541   6.637   2.703 -0.1632  0.0426 -0.2202
  134OSM    O1314400   6.570   6.491   2.688  0.1537 -0.3298 -0.3517
  134OSM    O1414401   6.659   6.725   2.677  0.2145 -1.1436  0.1696
  134OSM    O1114402   6.487   6.678   2.845  0.4225  0.1110 -0.2129
  134OSM    O1214403   6.425   6.674   2.608  0.0553  0.3213 -0.1120
  134OSM    C1S14404   6.563   6.630   2.964  0.2663 -0.5409 -0.1311
  134OSM    H1S14405   6.670   6.653   2.950  0.0452  0.2291 -0.6294
  134OSM    H1T14406   6.568   6.520   2.972  0.7802 -0.4826  0.4228
  134OSM     NF14407   6.605   6.704   3.199 -0.6950 -0.5388  0.0810
  134OSM    HNF14408   6.584   6.646   3.277  0.5772  0.5679  1.3067
  134OSM    C2S14409   6.512   6.714   3.091 -0.7705 -0.1907  0.0197
  134OSM    H2S14410   6.517   6.820   3.059 -0.3619 -0.5498 -1.1337
  134OSM    C3S14411   6.377   6.662   3.132 -0.2182 -0.4327  0.0691
  134OSM    H3S14412   6.389   6.554   3.157 -0.1253 -0.8355 -1.5920
  134OSM     O314413   6.279   6.658   3.027  0.0145  0.1065  0.7288
  134OSM    HO314414   6.324   6.678   2.945 -0.9217  4.1021  0.9593
  134OSM    C4S14415   6.316   6.730   3.267  0.2983 -0.2326 -0.0049
  134OSM    H4S14416   6.375   6.707   3.357 -0.3837  2.1314  1.1156
  134OSM    C5S14417   6.203   6.804   3.276 -0.2064 -0.5850  0.4264
  134OSM    H5S14418   6.141   6.815   3.186 -1.0606 -3.5081  0.5425
  134OSM    C6S14419   6.144   6.871   3.395 -0.2086  0.3677  0.3433
  134OSM    H6S14420   6.209   6.848   3.482 -0.1065  0.0048  0.1721
  134OSM    H6T14421   6.047   6.833   3.435  0.5009 -3.2481 -1.0309
  134OSM    C7S14422   6.133   7.018   3.371 -0.0201  0.0536 -0.0597
  134OSM    H7S14423   6.050   7.043   3.301 -0.2551 -1.4758 -0.3664
  134OSM    H7T14424   6.230   7.047   3.326  0.3680 -2.8729 -1.3836
  134OSM    C8S14425   6.122   7.087   3.507 -0.5301 -0.1780  0.2376
  134OSM    H8S14426   6.155   7.193   3.501  1.5072 -0.5435  2.9125
  134OSM    H8T14427   6.192   7.046   3.583 -0.3381 -0.4535 -0.0903
  134OSM    C9S14428   5.976   7.087   3.559  0.0509  0.1635 -0.4626
  134OSM    H9S14429   5.929   6.990   3.530 -0.5006  0.8319 -1.9160
  134OSM    H9T14430   5.921   7.165   3.502 -2.6325 -0.8855  0.5002
  134OSM   C10S14431   5.959   7.096   3.714  0.1207 -0.2448  0.2299
  134OSM   H10S14432   5.849   7.091   3.733  0.1276 -0.5529  0.1957
  134OSM   H10T14433   6.004   7.190   3.752 -0.1032  0.5470 -1.3856
  134OSM   C11S14434   6.011   6.968   3.788  0.2515 -0.3089 -0.1969
  134OSM   H11S14435   6.122   6.963   3.778  0.3329  0.5338  0.1566
  134OSM   H11T14436   5.970   6.877   3.740  1.4389 -0.9477 -0.0499
  134OSM   C12S14437   5.996   6.971   3.941 -0.1614  1.0558  0.5558
  134OSM   H12S14438   6.049   6.877   3.969 -1.0343  0.0828 -0.8625
  134OSM   H12T14439   5.892   6.954   3.977  0.2092  0.3205  1.3303
  134OSM   C13S14440   6.065   7.079   4.020  0.1230  0.5887 -0.0482
  134OSM   H13S14441   6.021   7.167   3.967 -2.4730 -0.6982 -0.1626
  134OSM   H13T14442   6.175   7.092   4.006  0.1857  0.7212  0.5316
  134OSM   C14S14443   6.029   7.074   4.168 -0.0060 -0.3968 -0.1124
  134OSM   H14S14444   6.078   6.981   4.203  1.2023 -0.0173 -0.7443
  134OSM   H14T14445   5.923   7.072   4.200 -0.4161 -2.3798 -1.3585
  134OSM   C15S14446   6.082   7.202   4.237 -0.3902  0.5166 -0.3020
  134OSM   H15S14447   6.034   7.283   4.178  0.8648  1.4240 -0.1279
  134OSM   H15T14448   6.191   7.217   4.218  0.3832  1.9647  4.1130
  134OSM   C16S14449   6.048   7.206   4.382  0.1385 -0.1936 -0.2946
  134OSM   H16S14450   6.074   7.108   4.427  3.5048  1.3756  1.5070
  134OSM   H16T14451   5.947   7.249   4.401 -0.3848 -0.8314 -1.4933
  134OSM   C17S14452   6.141   7.298   4.464  0.1698  1.0323 -0.2731
  134OSM   H17S14453   6.096   7.399   4.457  0.6639  1.7650  4.1109
  134OSM   H17T14454   6.233   7.294   4.402  0.0383 -0.8952 -0.4182
  134OSM   C18S14455   6.160   7.246   4.602  0.0656  0.0978  0.7505
  134OSM   H18S14456   6.220   7.153   4.596  0.3276  0.2239  1.3532
  134OSM   H18T14457   6.066   7.227   4.659 -0.1704 -1.3478 -0.0878
  134OSM   H18U14458   6.224   7.319   4.656  0.9558  1.4212 -1.9191
  134OSM    C1F14459   6.724   6.761   3.202  0.1093 -0.9008  0.1245
  134OSM     OF14460   6.753   6.834   3.106  0.4195 -0.2127  0.1158
  134OSM    C2F14461   6.810   6.740   3.322 -0.2743 -0.4370  0.1585
  134OSM    H2F14462   6.774   6.646   3.369 -0.8749 -1.1346 -1.6277
  134OSM    H2G14463   6.774   6.813   3.398 -1.7777 -0.7020 -0.2595
  134OSM    C3F14464   6.956   6.742   3.288 -0.2162 -0.1741 -0.0639
  134OSM    H3F14465   7.000   6.840   3.260  1.0853 -0.5238  0.6457
  134OSM    H3G14466   6.971   6.669   3.206 -0.3962  1.0483 -1.2018
  134OSM    C4F14467   7.039   6.706   3.408  0.2783 -0.1566 -0.6094
  134OSM    H4F14468   7.143   6.734   3.383 -0.0446  0.9275 -0.8154
  134OSM    H4G14469   7.024   6.596   3.410 -0.5375 -0.0485 -0.3145
  134OSM    C5F14470   6.998   6.771   3.543  0.2486 -0.0104  0.8287
  134OSM    H5F14471   6.903   6.734   3.587  0.5041 -1.4209  0.2417
  134OSM    H5G14472   6.981   6.880   3.535  3.3940  0.5887  0.7405
  134OSM    C6F14473   7.106   6.749   3.653 -0.3427 -0.1042  0.1672
  134OSM    H6F14474   7.206   6.763   3.607  0.1752 -2.5679  0.4177
  134OSM    H6G14475   7.119   6.639   3.663  1.1156  0.2459  3.2866
  134OSM    C7F14476   7.093   6.842   3.772 -0.4827  0.4685 -0.5453
  134OSM    H7F14477   7.001   6.813   3.827 -1.3919 -0.4576 -2.4660
  134OSM    H7G14478   7.113   6.946   3.738 -1.1919  1.3491  1.5100
  134OSM    C8F14479   7.204   6.803   3.871  0.0875 -0.2391  0.6828
  134OSM    H8F14480   7.201   6.878   3.953 -0.1562 -1.5951  1.9509
  134OSM    H8G14481   7.293   6.826   3.810 -1.8486  0.3187 -2.1370
  134OSM    C9F14482   7.202   6.664   3.929 -1.0668 -0.4328  0.5478
  134OSM    H9F14483   7.270   6.591   3.883 -0.8273  0.1878 -0.0942
  134OSM   C10F14484   7.131   6.629   4.035  0.0674  0.4139 -0.1762
  134OSM   H10F14485   7.135   6.523   4.065  0.7779 -0.0634 -1.8494
  134OSM   C11F14486   7.034   6.719   4.110  0.5705  0.5399 -0.3316
  134OSM   H11F14487   6.932   6.676   4.123 -0.7389  3.5571  0.2868
  134OSM   H11G14488   7.023   6.814   4.053  2.2947  1.5677  0.9573
  134OSM   C12F14489   7.075   6.752   4.250 -0.1981  0.3483 -0.3597
  134OSM   H12F14490   7.170   6.811   4.251 -0.3869  0.6488 -0.0850
  134OSM   H12G14491   7.088   6.660   4.311  0.7159  2.4666  2.8559
  134OSM   C13F14492   6.969   6.831   4.327 -0.3101  0.3340 -0.0740
  134OSM   H13F14493   6.868   6.785   4.332 -0.3134  0.0455 -1.9915
  134OSM   H13G14494   6.949   6.917   4.260 -0.0775  0.4317 -0.0186
  134OSM   C14F14495   7.024   6.878   4.459  0.6857 -0.2202  0.3359
  134OSM   H14F14496   7.128   6.900   4.429  0.2942  1.6591  0.2856
  134OSM   H14G14497   7.029   6.797   4.535  0.7234  0.5158  1.1273
  134OSM   C15F14498   6.957   7.015   4.498  0.2908 -0.1093  0.8138
  134OSM   H15F14499   6.846   7.006   4.508  0.0585 -0.1144 -1.2732
  134OSM   H15G14500   6.974   7.082   4.411  0.7953 -0.4648  0.6325
  134OSM   C16F14501   7.021   7.086   4.612 -0.0472  0.4349  0.7480
  134OSM   H16F14502   7.002   7.195   4.601 -0.4791  0.5775  2.6218
  134OSM   H16G14503   7.131   7.079   4.618 -0.1772 -0.7220  2.6594
  134OSM   C17F14504   6.964   7.032   4.742  0.5002  0.0843 -0.1263
  134OSM   H17F14505   6.982   6.922   4.751 -1.3465 -0.0781  4.0392
  134OSM   H17G14506   6.854   7.044   4.749  0.4011 -1.2807  1.3712
  134OSM   C18F14507   7.025   7.102   4.864 -0.1821  0.7039 -0.2166
  134OSM   H18F14508   7.000   7.049   4.958 -0.1257  1.3454  0.1680
  134OSM   H18G14509   7.004   7.211   4.873  1.2112  0.9864 -0.2489
  134OSM   H18H14510   7.134   7.084   4.859 -0.0572  1.5978 -1.1218
  135OSM      N14511   4.160   4.049   2.661 -0.3661  0.2283  0.0738
  135OSM    C1514512   4.015   4.034   2.713 -0.1720  0.5805  0.5063
  135OSM   H15A14513   3.975   3.937   2.688  0.9928 -0.3024  1.8857
  135OSM   H15B14514   3.950   4.109   2.670 -1.7983 -0.8970  0.2876
  135OSM   H15C14515   4.017   4.048   2.820  3.1139  1.7045  0.4129
  135OSM    C1414516   4.231   3.922   2.684 -0.2449 -0.0795  0.1636
  135OSM   H14A14517   4.193   3.842   2.623  1.6696 -2.0003  1.3581
  135OSM   H14B14518   4.225   3.900   2.790 -0.9589  0.8816  0.3343
  135OSM   H14C14519   4.330   3.942   2.648 -1.0482  1.9792 -1.0737
  135OSM    C1314520   4.156   4.077   2.513  0.4614 -0.0740 -0.3772
  135OSM   H13A14521   4.105   3.996   2.462 -1.6701  0.0965  1.3380
  135OSM   H13B14522   4.258   4.080   2.479  0.7492  0.4705  0.5114
  135OSM   H13C14523   4.113   4.174   2.495  1.1718  0.2455 -0.3679
  135OSM    C1214524   4.239   4.155   2.743 -0.0475  0.0127 -0.3942
  135OSM   H12A14525   4.342   4.150   2.711 -0.5782 -1.1625 -2.0291
  135OSM   H12B14526   4.249   4.137   2.849 -1.8881  1.7944  0.1442
  135OSM    C1114527   4.184   4.299   2.725 -0.0073 -0.0116  0.5242
  135OSM   H11A14528   4.233   4.354   2.808  0.2639  2.5127 -1.1863
  135OSM   H11B14529   4.076   4.298   2.749  0.1508  2.3135  1.6095
  135OSM      P14530   4.344   4.403   2.553 -0.0152  0.0406  0.0283
  135OSM    O1314531   4.402   4.292   2.474 -0.0554  0.0895  0.7904
  135OSM    O1414532   4.327   4.538   2.488  0.0413 -0.1510 -0.0947
  135OSM    O1114533   4.431   4.416   2.683 -0.7343  0.1016 -0.8194
  135OSM    O1214534   4.197   4.356   2.596 -0.2853 -0.5684 -0.4849
  135OSM    C1S14535   4.434   4.525   2.767 -0.0276 -0.3909 -0.0620
  135OSM    H1S14536   4.332   4.557   2.796 -0.1720  0.6013 -1.5292
  135OSM    H1T14537   4.474   4.606   2.702  0.2141 -2.5431 -2.8153
  135OSM     NF14538   4.496   4.593   3.000  0.6526  0.3455 -0.5053
  135OSM    HNF14539   4.576   4.644   3.030  1.8855 -2.2144  0.9036
  135OSM    C2S14540   4.521   4.494   2.895  0.5453  0.2089  0.3964
  135OSM    H2S14541   4.480   4.397   2.930  0.1592 -0.1052 -0.8810
  135OSM    C3S14542   4.669   4.476   2.862 -0.8469 -0.7227 -0.1509
  135OSM    H3S14543   4.706   4.579   2.846  1.4954 -1.4800  0.0005
  135OSM     O314544   4.692   4.399   2.742  0.0061  0.0507  0.3431
  135OSM    HO314545   4.609   4.372   2.701  1.3509 -1.6719 -1.4027
  135OSM    C4S14546   4.730   4.417   2.980 -1.0492  0.1894 -0.1581
  135OSM    H4S14547   4.689   4.324   3.022  2.4106 -1.5339 -0.2364
  135OSM    C5S14548   4.832   4.476   3.047  0.9164 -0.9461  1.1211
  135OSM    H5S14549   4.869   4.577   3.021  0.8662 -0.9162  1.1650
  135OSM    C6S14550   4.884   4.422   3.177  0.2909  0.6253  0.2677
  135OSM    H6S14551   4.988   4.388   3.160 -0.2029 -0.5552 -0.4739
  135OSM    H6T14552   4.833   4.329   3.207 -1.8352  1.5030 -0.4517
  135OSM    C7S14553   4.894   4.526   3.290  0.7014 -0.3447  0.1962
  135OSM    H7S14554   4.787   4.553   3.305  0.3796 -1.6240  0.4118
  135OSM    H7T14555   4.959   4.612   3.265  1.0525 -0.9119 -0.9328
  135OSM    C8S14556   4.943   4.469   3.418  0.2443  0.0103 -0.0577
  135OSM    H8S14557   5.046   4.433   3.401  0.6971 -0.1418  2.6299
  135OSM    H8T14558   4.879   4.383   3.446  1.3248 -1.2270 -1.2417
  135OSM    C9S14559   4.940   4.581   3.531  0.6521  0.2650  0.6191
  135OSM    H9S14560   4.834   4.612   3.544  1.0513  1.7011  0.5773
  135OSM    H9T14561   5.001   4.665   3.491  0.6364 -0.8340 -1.9442
  135OSM   C10S14562   5.011   4.529   3.658  0.3148 -0.0180  0.1417
  135OSM   H10S14563   5.119   4.526   3.635  0.5237  2.7098  0.3972
  135OSM   H10T14564   4.972   4.425   3.664 -0.3661  0.1841 -0.5418
  135OSM   C11S14565   4.982   4.612   3.791  0.1658 -0.0429  0.3226
  135OSM   H11S14566   4.872   4.611   3.803 -0.3234  2.5317 -2.5485
  135OSM   H11T14567   5.009   4.717   3.768  0.3581  0.0964  1.1312
  135OSM   C12S14568   5.058   4.561   3.915  0.0880 -0.4352 -0.4848
  135OSM   H12S14569   5.166   4.559   3.887  0.7568  0.6375  1.8045
  135OSM   H12T14570   5.040   4.460   3.958  2.0143 -0.5072  0.2596
  135OSM   C13S14571   5.033   4.656   4.030 -0.4994 -0.1508 -0.6700
  135OSM   H13S14572   4.926   4.657   4.059 -0.5170 -0.4085 -0.7285
  135OSM   H13T14573   5.054   4.757   3.988 -0.4818  0.1619  0.0812
  135OSM   C14S14574   5.122   4.628   4.152 -0.4739  0.0451 -0.6885
  135OSM   H14S14575   5.228   4.619   4.119 -0.6793  2.4877 -2.2431
  135OSM   H14T14576   5.099   4.531   4.200 -0.8288  0.0503 -0.8450
  135OSM   C15S14577   5.111   4.733   4.264  0.7378 -0.2413  0.0984
  135OSM   H15S14578   5.003   4.756   4.276 -0.1608 -3.2560 -1.1963
  135OSM   H15T14579   5.151   4.826   4.218 -0.8702  0.8596  0.8427
  135OSM   C16S14580   5.196   4.711   4.392 -0.0170  0.8341 -0.4530
  135OSM   H16S14581   5.178   4.614   4.444 -1.2306  1.2926  0.0108
  135OSM   H16T14582   5.172   4.789   4.467 -2.4973 -0.4522  0.1903
  135OSM   C17S14583   5.350   4.720   4.370  0.2049 -0.2464 -0.2702
  135OSM   H17S14584   5.373   4.795   4.292  0.6144  0.4947  0.5610
  135OSM   H17T14585   5.384   4.617   4.344  1.5841 -0.1401  1.0258
  135OSM   C18S14586   5.417   4.766   4.503 -0.8112  0.5515 -0.1410
  135OSM   H18S14587   5.384   4.869   4.528  0.4925  0.2280  3.5620
  135OSM   H18T14588   5.528   4.763   4.497 -0.5174  3.0463  2.1732
  135OSM   H18U14589   5.395   4.699   4.589 -1.4734  0.0377 -0.7047
  135OSM    C1F14590   4.380   4.611   3.060 -0.0818 -0.7237  0.2335
  135OSM     OF14591   4.306   4.520   3.088 -0.5186 -0.5113  0.1655
  135OSM    C2F14592   4.347   4.755   3.086 -0.3007  0.4435 -0.0907
  135OSM    H2F14593   4.329   4.802   2.987  2.2876  1.6066 -0.0773
  135OSM    H2G14594   4.432   4.805   3.137  0.1983  0.2873 -0.7694
  135OSM    C3F14595   4.226   4.775   3.192 -0.0565  0.1048 -0.0993
  135OSM    H3F14596   4.125   4.733   3.173 -0.7150  1.2759  0.6170
  135OSM    H3G14597   4.211   4.885   3.186  0.3965  0.1957  0.3750
  135OSM    C4F14598   4.284   4.745   3.333 -0.3627  0.0256  0.1677
  135OSM    H4F14599   4.369   4.814   3.352  0.1196  0.2798 -2.4908
  135OSM    H4G14600   4.326   4.642   3.340  1.4588  0.8214  2.1936
  135OSM    C5F14601   4.191   4.755   3.452  0.6130 -0.8483  0.5236
  135OSM    H5F14602   4.117   4.673   3.457 -0.6993  0.3608  1.6941
  135OSM    H5G14603   4.124   4.843   3.437  0.1562 -0.9658  1.8047
  135OSM    C6F14604   4.254   4.772   3.591  0.0713 -0.1353  0.9835
  135OSM    H6F14605   4.332   4.850   3.581  1.0895 -1.4313 -2.3438
  135OSM    H6G14606   4.309   4.683   3.629  0.0482 -0.9410 -0.7811
  135OSM    C7F14607   4.142   4.812   3.698  0.4283  0.2592  0.1093
  135OSM    H7F14608   4.071   4.733   3.668  0.3203  0.2082  0.4932
  135OSM    H7G14609   4.111   4.911   3.658  1.1653 -1.1669 -4.4651
  135OSM    C8F14610   4.175   4.811   3.846 -0.3497 -0.3365 -0.2094
  135OSM    H8F14611   4.102   4.879   3.894  0.6297  2.5580 -2.5347
  135OSM    H8G14612   4.274   4.857   3.869  0.5513 -1.4914 -1.5865
  135OSM    C9F14613   4.182   4.671   3.897 -0.0925  1.4939 -1.0424
  135OSM    H9F14614   4.181   4.597   3.816 -1.9827  1.5800 -1.1326
  135OSM   C10F14615   4.180   4.626   4.022  0.1327 -0.6158 -0.1565
  135OSM   H10F14616   4.177   4.517   4.036 -0.6102 -0.6283 -0.3697
  135OSM   C11F14617   4.174   4.713   4.143 -0.2421 -0.9224  0.9654
  135OSM   H11F14618   4.126   4.806   4.106 -1.3700 -2.2283 -1.0151
  135OSM   H11G14619   4.281   4.725   4.173 -0.4957  2.0120  1.0113
  135OSM   C12F14620   4.097   4.656   4.268 -1.5336  0.1401  0.4292
  135OSM   H12F14621   4.174   4.610   4.332 -0.1114  1.4633 -0.2599
  135OSM   H12G14622   4.050   4.561   4.234 -0.1671  0.1467 -1.7183
  135OSM   C13F14623   4.007   4.758   4.324 -0.2025  0.4779 -0.0927
  135OSM   H13F14624   3.914   4.767   4.265 -0.2065 -0.4306 -0.2412
  135OSM   H13G14625   4.068   4.850   4.332  2.3404 -1.2473  2.2061
  135OSM   C14F14626   3.962   4.706   4.467 -0.4875 -0.5066  0.9406
  135OSM   H14F14627   3.903   4.784   4.520  2.4029  1.4890  1.5194
  135OSM   H14G14628   4.057   4.696   4.524  0.6394  1.3054 -0.4781
  135OSM   C15F14629   3.906   4.571   4.467  0.2694  0.1979 -0.4334
  135OSM   H15F14630   3.979   4.487   4.460  1.4274  1.3143 -2.9298
  135OSM   H15G14631   3.855   4.561   4.368 -0.9485 -0.1330  0.2006
  135OSM   C16F14632   3.807   4.539   4.583  0.4911 -0.0749 -0.0336
  135OSM   H16F14633   3.859   4.537   4.682  1.7075 -0.4680 -0.6631
  135OSM   H16G14634   3.769   4.435   4.581  0.4569 -0.0934  1.0036
  135OSM   C17F14635   3.689   4.638   4.590  0.2633  0.1403 -0.9163
  135OSM   H17F14636   3.635   4.654   4.494  0.2315  2.8237 -0.5340
  135OSM   H17G14637   3.721   4.741   4.617 -0.3528  0.0078  0.3859
  135OSM   C18F14638   3.592   4.604   4.709 -0.3904 -0.1023  0.5666
  135OSM   H18F14639   3.549   4.503   4.691 -0.0874 -0.2402  0.6044
  135OSM   H18G14640   3.507   4.675   4.707 -0.0017  0.3738 -1.1489
  135OSM   H18H14641   3.649   4.621   4.802 -1.7374 -0.7708  1.5510
  136OSM      N14642   6.043   5.686   2.409  0.0064 -0.0117 -0.1708
  136OSM    C1514643   6.085   5.618   2.282  0.0169 -0.0322 -0.2341
  136OSM   H15A14644   5.998   5.613   2.218 -0.2338 -1.0174  0.1719
  136OSM   H15B14645   6.117   5.516   2.297 -2.5975 -0.8882 -0.0090
  136OSM   H15C14646   6.170   5.673   2.245 -0.1149 -0.3114 -0.9555
  136OSM    C1414647   6.017   5.827   2.374 -0.2595 -0.1075  0.1741
  136OSM   H14A14648   6.099   5.861   2.313 -0.9061 -0.1317 -0.7247
  136OSM   H14B14649   6.010   5.897   2.456 -1.7093 -1.0360  0.8891
  136OSM   H14C14650   5.917   5.838   2.335  0.0233  1.1935 -0.2086
  136OSM    C1314651   5.905   5.632   2.454 -0.5435 -0.5051 -0.5317
  136OSM   H13A14652   5.835   5.664   2.377  0.3255  4.4716  0.4057
  136OSM   H13B14653   5.880   5.685   2.545  0.7240  0.9068 -0.9617
  136OSM   H13C14654   5.911   5.525   2.465  3.4414 -0.2364  1.9343
  136OSM    C1214655   6.150   5.676   2.514  0.7205 -0.9769 -0.0033
  136OSM   H12A14656   6.241   5.726   2.486  0.3559  0.1009  0.6895
  136OSM   H12B14657   6.179   5.572   2.515 -0.7945 -1.4257  0.7233
  136OSM    C1114658   6.106   5.717   2.655  0.6133 -0.6340  0.2461
  136OSM   H11A14659   6.188   5.703   2.728  1.9657 -0.0208 -1.1088
  136OSM   H11B14660   6.028   5.649   2.695  0.3596  0.1348  1.0774
  136OSM      P14661   5.948   5.926   2.701  0.5832  0.0401  0.0884
  136OSM    O1314662   5.931   6.038   2.607 -0.2622  0.2361  0.5717
  136OSM    O1414663   5.842   5.824   2.700  0.8609 -0.1341  0.1836
  136OSM    O1114664   5.966   5.984   2.842  0.5150 -0.2518 -0.1576
  136OSM    O1214665   6.083   5.861   2.662 -0.1614  0.2697 -0.0534
  136OSM    C1S14666   5.895   5.956   2.958  0.2539  0.3255 -0.0228
  136OSM    H1S14667   5.927   5.853   2.985 -0.9898 -0.2567 -0.6954
  136OSM    H1T14668   5.786   5.951   2.942  0.1141 -0.0301  0.9834
  136OSM     NF14669   5.885   5.988   3.200  0.1510 -0.9634  0.5203
  136OSM    HNF14670   5.807   6.021   3.254  0.0379  1.5582 -0.9993
  136OSM    C2S14671   5.922   6.056   3.072  0.3620  0.1311 -0.2106
  136OSM    H2S14672   6.031   6.074   3.065  0.8050 -1.8642  0.8205
  136OSM    C3S14673   5.847   6.190   3.046 -0.6543  0.2417  0.3411
  136OSM    H3S14674   5.740   6.159   3.043 -0.3883 -0.6628 -0.3419
  136OSM     O314675   5.877   6.245   2.919  0.0052  0.0098  0.1133
  136OSM    HO314676   5.947   6.190   2.884  0.1022 -0.4221  0.9540
  136OSM    C4S14677   5.878   6.281   3.162 -0.1755 -0.3866  0.6681
  136OSM    H4S14678   5.794   6.288   3.231 -1.8834  1.8977 -1.4758
  136OSM    C5S14679   5.982   6.369   3.177 -0.0774  0.6802  0.4171
  136OSM    H5S14680   6.058   6.380   3.098 -0.7034  1.2856 -0.1047
  136OSM    C6S14681   5.994   6.454   3.291 -0.1968  1.0296  0.1529
  136OSM    H6S14682   5.891   6.474   3.327 -0.5132  1.4453 -0.9472
  136OSM    H6T14683   6.029   6.556   3.261  0.8958  0.2466 -1.3846
  136OSM    C7S14684   6.086   6.414   3.399  0.0896 -0.2686 -0.4798
  136OSM    H7S14685   6.190   6.412   3.358  0.2656 -1.8656 -0.0484
  136OSM    H7T14686   6.075   6.309   3.435  1.8948 -0.1576  0.5114
  136OSM    C8S14687   6.079   6.508   3.523 -0.4413 -0.0396 -0.0582
  136OSM    H8S14688   6.088   6.612   3.484  3.6424 -0.4373 -0.6411
  136OSM    H8T14689   6.170   6.488   3.583  1.0192  1.2360 -1.7162
  136OSM    C9S14690   5.957   6.494   3.612 -0.0403  0.2262 -0.2991
  136OSM    H9S14691   5.924   6.389   3.627  0.0415  0.2683  0.1819
  136OSM    H9T14692   5.869   6.542   3.563  0.3761  0.2328 -1.0548
  136OSM   C10S14693   5.983   6.563   3.745 -0.0850  0.4928 -0.6312
  136OSM   H10S14694   6.012   6.668   3.727  0.8196  1.0618  3.2978
  136OSM   H10T14695   6.069   6.512   3.792 -2.0550 -2.6417 -0.1128
  136OSM   C11S14696   5.854   6.563   3.832  0.0642 -0.4154  0.2263
  136OSM   H11S14697   5.818   6.459   3.824 -0.8930  0.0460 -3.9662
  136OSM   H11T14698   5.785   6.635   3.782  1.0335  1.0749  0.9567
  136OSM   C12S14699   5.867   6.622   3.974  0.8028 -0.2333  0.7163
  136OSM   H12S14700   5.770   6.615   4.027  0.6285  1.2058  0.6191
  136OSM   H12T14701   5.890   6.729   3.957 -0.7417  0.0624  0.3078
  136OSM   C13S14702   5.976   6.559   4.052 -0.1525 -0.7484 -0.7475
  136OSM   H13S14703   6.077   6.557   4.008  1.2427 -0.7755  2.1902
  136OSM   H13T14704   5.941   6.464   4.098 -1.7397  0.2874  0.3131
  136OSM   C14S14705   6.003   6.646   4.185  0.1580  1.1313 -0.2670
  136OSM   H14S14706   5.900   6.672   4.220 -0.3612 -2.5825  1.5621
  136OSM   H14T14707   6.045   6.739   4.143 -1.2172  1.2135 -1.5316
  136OSM   C15S14708   6.096   6.585   4.298  0.0122  0.0709  1.0435
  136OSM   H15S14709   6.190   6.559   4.245 -0.6474 -1.2523  0.4694
  136OSM   H15T14710   6.048   6.500   4.352 -1.4623  0.8409  1.0113
  136OSM   C16S14711   6.122   6.696   4.396 -1.1194 -0.1178  0.1391
  136OSM   H16S14712   6.026   6.748   4.417 -1.7288 -1.5758  1.1339
  136OSM   H16T14713   6.196   6.776   4.373  0.4989 -1.3576  0.9083
  136OSM   C17S14714   6.173   6.647   4.541 -0.8615  0.0911 -0.0233
  136OSM   H17S14715   6.282   6.626   4.544 -0.6408  0.9368 -1.2627
  136OSM   H17T14716   6.115   6.563   4.585 -0.9763  0.5832  0.7892
  136OSM   C18S14717   6.162   6.764   4.639 -0.8934 -0.4418 -0.2669
  136OSM   H18S14718   6.227   6.849   4.607 -1.5873  0.1699 -0.0792
  136OSM   H18T14719   6.216   6.729   4.729  0.5660 -1.0477 -1.3453
  136OSM   H18U14720   6.065   6.815   4.655  0.6556  2.8044 -0.4176
  136OSM    C1F14721   5.966   5.897   3.247 -0.1986 -1.4055 -0.1938
  136OSM     OF14722   6.067   5.874   3.186  0.0617 -0.2568 -0.0378
  136OSM    C2F14723   5.922   5.826   3.376  0.0891 -0.0298  0.2274
  136OSM    H2F14724   5.813   5.806   3.372  0.0802 -0.3977  1.6438
  136OSM    H2G14725   5.943   5.896   3.459 -2.3067  1.6425 -0.4724
  136OSM    C3F14726   6.000   5.692   3.395  0.2971 -0.0336 -0.2382
  136OSM    H3F14727   6.110   5.707   3.396  0.2456  0.3738 -0.5518
  136OSM    H3G14728   5.980   5.611   3.322  0.2215 -0.1206 -0.1211
  136OSM    C4F14729   5.959   5.630   3.532 -0.2130  0.3449  0.0525
  136OSM    H4F14730   6.001   5.527   3.536  2.3074  1.3340  1.2222
  136OSM    H4G14731   5.848   5.623   3.532 -0.2253  0.4828 -0.8314
  136OSM    C5F14732   6.012   5.702   3.653  0.0520  0.2263  0.0565
  136OSM    H5F14733   5.965   5.801   3.672  1.0033  0.9887 -1.3164
  136OSM    H5G14734   6.115   5.731   3.623  0.0787  1.6554  1.4015
  136OSM    C6F14735   6.018   5.617   3.774 -0.1383 -0.7375  0.3748
  136OSM    H6F14736   6.105   5.549   3.765 -0.3392 -0.8053 -1.4411
  136OSM    H6G14737   5.922   5.563   3.795 -0.6230  0.8369  2.5861
  136OSM    C7F14738   6.041   5.709   3.892 -0.0084 -0.9301 -0.2052
  136OSM    H7F14739   5.958   5.783   3.900  0.4179 -0.6283  2.4875
  136OSM    H7G14740   6.136   5.766   3.886  0.7976 -2.2201 -0.0494
  136OSM    C8F14741   6.061   5.631   4.027  0.4351  0.5813  1.1877
  136OSM    H8F14742   6.131   5.546   4.017  0.9950  1.0660  0.9119
  136OSM    H8G14743   5.958   5.593   4.043 -0.3520  1.7262 -0.7517
  136OSM    C9F14744   6.093   5.723   4.139 -0.1691  0.0661  0.2274
  136OSM    H9F14745   6.016   5.793   4.173 -1.9888 -1.4586 -0.5383
  136OSM   C10F14746   6.200   5.730   4.212 -0.6321  0.1125 -0.7164
  136OSM   H10F14747   6.205   5.809   4.289 -2.0208  0.4884 -0.9842
  136OSM   C11F14748   6.323   5.640   4.200  0.3995 -0.4282  0.8004
  136OSM   H11F14749   6.410   5.708   4.191 -0.7477  0.8492 -1.5246
  136OSM   H11G14750   6.318   5.573   4.112 -1.7197  1.5205 -0.6940
  136OSM   C12F14751   6.350   5.544   4.324 -0.0277 -0.0590 -0.5227
  136OSM   H12F14752   6.258   5.484   4.337 -0.2461  0.7711  2.4213
  136OSM   H12G14753   6.368   5.589   4.424  1.2695  0.1440 -0.8291
  136OSM   C13F14754   6.473   5.446   4.307 -0.1604  0.9594  0.2551
  136OSM   H13F14755   6.471   5.399   4.206 -1.8933  0.2785  0.5698
  136OSM   H13G14756   6.463   5.367   4.384 -0.6014  1.2281  0.4798
  136OSM   C14F14757   6.617   5.507   4.335  0.3440 -0.4990 -0.5922
  136OSM   H14F14758   6.621   5.537   4.442  4.5565  1.2283 -1.0735
  136OSM   H14G14759   6.621   5.593   4.266 -0.1604 -1.1484 -1.4548
  136OSM   C15F14760   6.738   5.413   4.308 -0.0687  1.1081  0.3992
  136OSM   H15F14761   6.832   5.473   4.311  1.4346 -1.1605  2.1046
  136OSM   H15G14762   6.727   5.371   4.205  0.4893  1.5402  0.1593
  136OSM   C16F14763   6.753   5.308   4.415 -0.0553 -0.0681  0.8295
  136OSM   H16F14764   6.663   5.244   4.420 -0.6670  0.6301 -0.6542
  136OSM   H16G14765   6.768   5.355   4.514  0.5981 -1.5273  1.4531
  136OSM   C17F14766   6.871   5.209   4.378 -0.4372  0.3039  0.2925
  136OSM   H17F14767   6.845   5.163   4.280  1.4230 -0.7623  0.2446
  136OSM   H17G14768   6.859   5.141   4.465 -4.6974  1.8881  1.1927
  136OSM   C18F14769   7.004   5.271   4.350 -0.5332  0.2065 -0.9054
  136OSM   H18F14770   6.991   5.327   4.255 -3.6590  1.7551  0.2749
  136OSM   H18G14771   7.080   5.191   4.340 -2.7744 -2.5720  1.9762
  136OSM   H18H14772   7.045   5.338   4.429 -0.1117 -0.9223 -0.1283
  137OSM      N14773   2.522   6.750   2.351  0.3539  0.3993  0.0685
  137OSM    C1514774   2.411   6.672   2.288 -0.7140  0.9878 -0.4144
  137OSM   H15A14775   2.437   6.568   2.287 -2.8837  0.3747  0.2928
  137OSM   H15B14776   2.394   6.695   2.183 -1.3537 -0.5816 -0.6900
  137OSM   H15C14777   2.315   6.679   2.338 -0.5648  2.7280 -0.3058
  137OSM    C1414778   2.500   6.898   2.343 -0.5408 -0.3586  0.5985
  137OSM   H14A14779   2.579   6.957   2.386  0.1182 -0.8542  0.0753
  137OSM   H14B14780   2.407   6.932   2.388 -0.8153 -0.2326 -0.0471
  137OSM   H14C14781   2.492   6.916   2.236  1.2489 -2.2696  0.0891
  137OSM    C1314782   2.527   6.709   2.492 -0.4980  0.0665 -0.7097
  137OSM   H13A14783   2.622   6.742   2.531 -1.1019  0.3355  0.5967
  137OSM   H13B14784   2.530   6.602   2.501  2.0280  0.1139 -0.2160
  137OSM   H13C14785   2.444   6.743   2.553 -0.2245  0.6969 -0.6854
  137OSM    C1214786   2.653   6.723   2.281  0.2896 -0.3930 -1.1488
  137OSM   H12A14787   2.648   6.755   2.178 -1.3533 -0.2736 -1.0549
  137OSM   H12B14788   2.667   6.616   2.278  0.5495 -0.4339  0.7560
  137OSM    C1114789   2.779   6.793   2.346  1.0018  0.7649  0.3025
  137OSM   H11A14790   2.772   6.903   2.349  0.6883  0.7330  1.1610
  137OSM   H11B14791   2.856   6.771   2.270  1.1741  2.3773 -0.0042
  137OSM      P14792   2.958   6.767   2.525 -0.0094 -0.3274 -0.0985
  137OSM    O1314793   3.048   6.656   2.497  0.6102 -0.5497 -0.4164
  137OSM    O1414794   2.995   6.906   2.477 -0.0609 -0.0539  0.0844
  137OSM    O1114795   2.938   6.766   2.685 -0.1462  0.3182 -0.2396
  137OSM    O1214796   2.812   6.731   2.475  0.3312 -0.6884 -0.2215
  137OSM    C1S14797   2.818   6.709   2.731  0.2189  0.6940 -0.5478
  137OSM    H1S14798   2.795   6.608   2.691  1.5305  0.5409 -0.9418
  137OSM    H1T14799   2.734   6.781   2.719 -0.4096  0.9347  3.6863
  137OSM     NF14800   2.689   6.608   2.923  1.0875  0.4062  0.0678
  137OSM    HNF14801   2.634   6.663   2.985  1.3104  2.7669 -1.6779
  137OSM    C2S14802   2.817   6.673   2.884 -0.2107  0.1713  0.6636
  137OSM    H2S14803   2.897   6.596   2.887 -0.6748 -0.3081  0.7885
  137OSM    C3S14804   2.864   6.802   2.967  0.4201  0.2825  0.2110
  137OSM    H3S14805   2.786   6.879   2.944 -0.9361 -1.2340 -0.4709
  137OSM     O314806   2.975   6.873   2.924  0.4801 -0.1773 -0.3237
  137OSM    HO314807   2.983   6.826   2.840  0.7395 -0.9578  0.1190
  137OSM    C4S14808   2.867   6.778   3.118  0.2013 -0.0577  0.2239
  137OSM    H4S14809   2.768   6.785   3.166  0.3760 -1.9967  0.9726
  137OSM    C5S14810   2.977   6.773   3.199  0.5574 -0.4480 -0.1330
  137OSM    H5S14811   3.074   6.791   3.150 -0.6937 -0.9733 -2.9573
  137OSM    C6S14812   2.989   6.773   3.343 -0.1881  0.6777 -0.0509
  137OSM    H6S14813   2.898   6.824   3.384 -0.9402  1.7886 -2.8875
  137OSM    H6T14814   3.077   6.828   3.383  0.4679  0.3320 -1.0041
  137OSM    C7S14815   2.999   6.634   3.399  0.7658 -0.2430 -0.2104
  137OSM    H7S14816   3.083   6.571   3.363  1.1460  0.5029 -0.6641
  137OSM    H7T14817   2.906   6.580   3.371  0.8098  0.6813 -2.3571
  137OSM    C8S14818   3.018   6.635   3.548  0.7612 -0.3892  0.3559
  137OSM    H8S14819   2.935   6.695   3.591 -0.1322 -1.1965 -0.2009
  137OSM    H8T14820   3.104   6.695   3.585 -0.6036  3.0877 -1.5779
  137OSM    C9S14821   2.990   6.501   3.623  0.1137  0.0414  0.6774
  137OSM    H9S14822   3.027   6.411   3.569 -1.2616 -0.8761  1.2116
  137OSM    H9T14823   2.879   6.498   3.626  0.0798  0.8314  0.4681
  137OSM   C10S14824   3.043   6.504   3.769 -0.0905  0.2633  0.4651
  137OSM   H10S14825   3.041   6.609   3.805  2.8701  0.4961  0.1704
  137OSM   H10T14826   3.151   6.478   3.765 -0.0632  0.5331 -1.8688
  137OSM   C11S14827   2.976   6.409   3.875 -0.4390 -0.1494  0.8526
  137OSM   H11S14828   3.007   6.306   3.847 -1.1030  0.1249 -0.9993
  137OSM   H11T14829   2.866   6.422   3.859  0.0170  0.2001 -2.8109
  137OSM   C12S14830   3.020   6.453   4.013  0.4314  0.5069  0.5579
  137OSM   H12S14831   2.978   6.551   4.044  0.9742  0.8195  0.3271
  137OSM   H12T14832   3.130   6.471   4.013  0.3646  1.0103 -0.9695
  137OSM   C13S14833   2.969   6.352   4.123 -0.0361  0.1529  0.1832
  137OSM   H13S14834   3.031   6.260   4.114  2.2650  1.5997  0.3083
  137OSM   H13T14835   2.863   6.323   4.111 -0.1379  0.0961  1.1354
  137OSM   C14S14836   2.985   6.386   4.268 -0.1914  0.1776  0.1622
  137OSM   H14S14837   2.923   6.476   4.288 -1.0527 -0.2278 -0.5921
  137OSM   H14T14838   3.090   6.416   4.286 -0.0376 -0.7278  0.8217
  137OSM   C15S14839   2.946   6.280   4.374  0.0731 -0.0373  0.2992
  137OSM   H15S14840   3.008   6.188   4.369 -0.9685 -0.7694  0.5978
  137OSM   H15T14841   2.841   6.255   4.346  0.3112 -1.6890  0.7909
  137OSM   C16S14842   2.952   6.342   4.513  0.7143  0.5057 -0.6133
  137OSM   H16S14843   2.882   6.428   4.514 -1.6760 -1.2669 -2.6535
  137OSM   H16T14844   3.055   6.382   4.525  0.3155  1.0998  1.3000
  137OSM   C17S14845   2.921   6.267   4.639  0.5109  0.2800  0.1860
  137OSM   H17S14846   2.930   6.335   4.727 -0.0213  0.4460  0.1166
  137OSM   H17T14847   3.002   6.192   4.651  0.1398  0.2823  3.9273
  137OSM   C18S14848   2.779   6.218   4.656  0.1919  0.6366  0.8500
  137OSM   H18S14849   2.705   6.300   4.644  0.9408  1.0809 -1.0955
  137OSM   H18T14850   2.770   6.176   4.758  2.6133  0.4383  1.0319
  137OSM   H18U14851   2.753   6.136   4.584  0.1122  1.3197  0.0882
  137OSM    C1F14852   2.639   6.492   2.875 -0.2620  0.3551 -0.1110
  137OSM     OF14853   2.717   6.419   2.817 -0.0353  0.0579  0.3535
  137OSM    C2F14854   2.497   6.454   2.899  0.2100 -0.3134 -0.6908
  137OSM    H2F14855   2.448   6.475   2.801  1.1343  3.0920 -0.5360
  137OSM    H2G14856   2.445   6.529   2.962  1.3224  0.0030 -0.1270
  137OSM    C3F14857   2.470   6.316   2.957 -0.4640 -0.1751 -0.0963
  137OSM    H3F14858   2.508   6.233   2.895 -2.3802 -1.4412  0.3663
  137OSM    H3G14859   2.361   6.298   2.966  0.1147 -3.2168  2.8000
  137OSM    C4F14860   2.542   6.301   3.099  0.8937  0.7975  0.4529
  137OSM    H4F14861   2.653   6.307   3.089  0.6407  3.0682 -1.9195
  137OSM    H4G14862   2.519   6.203   3.145  3.4223 -1.2095 -2.1395
  137OSM    C5F14863   2.502   6.417   3.199  0.0489  0.9069 -0.2600
  137OSM    H5F14864   2.391   6.416   3.206  0.1127 -0.5730  2.1946
  137OSM    H5G14865   2.545   6.516   3.173  1.1638  0.7995  1.0065
  137OSM    C6F14866   2.548   6.392   3.347  0.3677  0.5062  0.0457
  137OSM    H6F14867   2.659   6.402   3.350  0.6275 -1.6998 -0.3809
  137OSM    H6G14868   2.531   6.284   3.364  0.8378  0.5249  0.6885
  137OSM    C7F14869   2.475   6.470   3.453  0.5372 -0.4724  0.4071
  137OSM    H7F14870   2.505   6.422   3.548  0.5726 -1.9444 -0.3223
  137OSM    H7G14871   2.367   6.448   3.436  0.8358 -1.0202 -0.9075
  137OSM    C8F14872   2.500   6.624   3.458 -0.6471  0.4377 -0.6479
  137OSM    H8F14873   2.413   6.667   3.512 -1.6757 -1.3109 -0.8287
  137OSM    H8G14874   2.481   6.656   3.353 -1.0262  2.1131 -0.0997
  137OSM    C9F14875   2.633   6.680   3.512 -0.4013  0.4482 -0.1457
  137OSM    H9F14876   2.710   6.677   3.433  0.8132  1.4267  0.9519
  137OSM   C10F14877   2.672   6.726   3.635  0.1568 -0.2784 -0.2283
  137OSM   H10F14878   2.776   6.755   3.654  0.8388 -1.9060 -1.2615
  137OSM   C11F14879   2.581   6.726   3.758  0.4094  0.0648  0.8191
  137OSM   H11F14880   2.491   6.660   3.754 -0.3611  1.1485 -0.1138
  137OSM   H11G14881   2.557   6.832   3.778  0.5027  0.6778 -1.9687
  137OSM   C12F14882   2.656   6.678   3.887  0.4852  0.4259 -0.4252
  137OSM   H12F14883   2.716   6.766   3.920 -0.0172  1.2476 -1.6481
  137OSM   H12G14884   2.723   6.596   3.854  0.9311  1.3986 -2.0603
  137OSM   C13F14885   2.571   6.635   4.014  0.2292 -0.5405 -0.0360
  137OSM   H13F14886   2.517   6.542   3.989 -2.2473  0.0512  2.6448
  137OSM   H13G14887   2.501   6.720   4.032  3.9941  3.0261 -0.6213
  137OSM   C14F14888   2.653   6.610   4.140  0.7838  0.5801  0.0143
  137OSM   H14F14889   2.741   6.675   4.121  0.4746  0.5582 -1.7099
  137OSM   H14G14890   2.686   6.504   4.147 -0.8407  0.0845  0.5860
  137OSM   C15F14891   2.580   6.649   4.271  0.2528 -0.0296  0.5370
  137OSM   H15F14892   2.481   6.599   4.279  0.1274  0.4469  6.3770
  137OSM   H15G14893   2.565   6.759   4.277  1.8747  0.2016  0.8406
  137OSM   C16F14894   2.665   6.606   4.392 -0.4452 -0.4397  0.0065
  137OSM   H16F14895   2.762   6.661   4.391 -1.8807  2.2844 -1.5566
  137OSM   H16G14896   2.687   6.498   4.377  2.2260  0.3343 -2.8027
  137OSM   C17F14897   2.596   6.615   4.529  0.1397 -0.1493 -0.2614
  137OSM   H17F14898   2.655   6.561   4.606 -0.5521 -1.6835 -0.7569
  137OSM   H17G14899   2.500   6.561   4.515 -0.7119  1.1702  0.3417
  137OSM   C18F14900   2.556   6.759   4.576  0.8633 -0.1610 -0.5066
  137OSM   H18F14901   2.652   6.813   4.587  0.1016  1.0813  0.3176
  137OSM   H18G14902   2.498   6.759   4.672  1.6364  0.0128 -0.0331
  137OSM   H18H14903   2.496   6.823   4.508  1.4883  1.3715  0.3281
  138OSM      N14904   2.308   1.189   2.420  0.2263 -0.5663 -0.0355
  138OSM    C1514905   2.281   1.047   2.422  0.2023  0.1415  0.1198
  138OSM   H15A14906   2.219   1.009   2.502 -1.5827  1.9838 -0.3031
  138OSM   H15B14907   2.366   0.982   2.407 -0.0788 -1.4557  4.1706
  138OSM   H15C14908   2.224   1.030   2.332 -0.1807  0.8359  0.2254
  138OSM    C1414909   2.373   1.218   2.290  0.1974  0.3771  0.6121
  138OSM   H14A14910   2.463   1.158   2.282 -1.6227 -2.5947  1.0264
  138OSM   H14B14911   2.391   1.324   2.280 -2.7823  0.7749 -1.7307
  138OSM   H14C14912   2.310   1.193   2.206 -0.2576 -1.0353  1.3454
  138OSM    C1314913   2.182   1.269   2.420 -0.1181  0.3061  0.3321
  138OSM   H13A14914   2.194   1.376   2.421 -1.1703  0.4412  1.5206
  138OSM   H13B14915   2.122   1.259   2.510  0.0115 -2.2043  0.2113
  138OSM   H13C14916   2.119   1.245   2.335  2.5672 -0.1983 -1.6494
  138OSM    C1214917   2.401   1.235   2.531  0.0772  0.0805  1.0439
  138OSM   H12A14918   2.478   1.161   2.550 -1.5296 -1.6196  1.1873
  138OSM   H12B14919   2.336   1.232   2.617 -2.9603  0.4859 -1.0595
  138OSM    C1114920   2.468   1.374   2.538  0.0444  0.5317  0.2171
  138OSM   H11A14921   2.396   1.457   2.522 -1.2933 -1.0307 -2.4513
  138OSM   H11B14922   2.542   1.393   2.457 -1.5365  1.1561 -1.1338
  138OSM      P14923   2.676   1.375   2.690  0.4345  0.5387  0.0324
  138OSM    O1314924   2.716   1.240   2.649 -0.5910  0.0679 -0.2338
  138OSM    O1414925   2.744   1.493   2.634  0.2674  0.0865 -0.8806
  138OSM    O1114926   2.683   1.373   2.848  0.1042  0.5064  0.2894
  138OSM    O1214927   2.522   1.395   2.668  0.4411  0.0780  0.0153
  138OSM    C1S14928   2.637   1.490   2.919 -0.1483  0.0810 -0.2393
  138OSM    H1S14929   2.527   1.492   2.909 -0.2892 -1.1619  0.6960
  138OSM    H1T14930   2.675   1.585   2.876  0.3836 -0.1874 -0.3813
  138OSM     NF14931   2.596   1.606   3.137  0.0618 -0.1474 -0.1399
  138OSM    HNF14932   2.657   1.657   3.198 -0.6983  1.4289 -0.6437
  138OSM    C2S14933   2.658   1.492   3.080 -0.1906 -0.0404 -0.5965
  138OSM    H2S14934   2.597   1.403   3.110  0.7505 -1.1067 -1.7543
  138OSM    C3S14935   2.804   1.474   3.120 -0.1875 -0.4920  0.4295
  138OSM    H3S14936   2.840   1.576   3.094  0.7095 -1.1725 -1.1855
  138OSM     O314937   2.874   1.376   3.042 -0.0570 -0.2692  0.4226
  138OSM    HO314938   2.812   1.354   2.972  0.2421  0.9208 -0.2633
  138OSM    C4S14939   2.812   1.452   3.275 -0.6281 -0.2011 -0.0387
  138OSM    H4S14940   2.829   1.548   3.325  0.9720 -0.1306 -0.6673
  138OSM    C5S14941   2.804   1.340   3.347  0.4879 -0.5778 -0.1573
  138OSM    H5S14942   2.792   1.246   3.290  0.9622  0.7576 -2.5827
  138OSM    C6S14943   2.803   1.329   3.493  0.0022  0.0666  0.2472
  138OSM    H6S14944   2.700   1.298   3.523  0.7187 -1.6582  1.0792
  138OSM    H6T14945   2.817   1.425   3.548 -0.4729 -0.0031  0.5007
  138OSM    C7S14946   2.895   1.215   3.538  0.2150  0.8849 -0.5935
  138OSM    H7S14947   3.003   1.226   3.515  0.3962  0.2505 -0.0850
  138OSM    H7T14948   2.866   1.120   3.487  0.6628 -0.0506  0.8280
  138OSM    C8S14949   2.898   1.166   3.686  0.7808 -0.8096  0.0648
  138OSM    H8S14950   2.981   1.093   3.700 -0.1884 -1.8267  0.7042
  138OSM    H8T14951   2.801   1.115   3.705  1.2293 -2.2110 -1.2709
  138OSM    C9S14952   2.915   1.280   3.778 -0.4168  0.4509 -0.4952
  138OSM    H9S14953   2.844   1.361   3.754  0.2332  1.1983  0.0508
  138OSM    H9T14954   3.019   1.319   3.772 -0.0619 -0.3744  0.0673
  138OSM   C10S14955   2.894   1.246   3.923  0.1796 -0.0669 -0.1374
  138OSM   H10S14956   2.959   1.162   3.957 -0.3574 -0.4890 -0.1403
  138OSM   H10T14957   2.787   1.218   3.937  0.7619 -1.3859  2.2771
  138OSM   C11S14958   2.927   1.349   4.029 -0.3895  0.0046  0.3617
  138OSM   H11S14959   2.869   1.443   4.016  0.5996  0.4557 -1.0627
  138OSM   H11T14960   3.030   1.381   4.001 -0.5015 -0.8662 -1.1945
  138OSM   C12S14961   2.918   1.291   4.173  0.0743  0.2264  0.0886
  138OSM   H12S14962   2.976   1.198   4.193 -0.1745  0.2553  0.9671
  138OSM   H12T14963   2.812   1.277   4.203  0.6355  1.8249  3.3249
  138OSM   C13S14964   2.961   1.408   4.261 -0.1554 -0.5225  0.0991
  138OSM   H13S14965   2.922   1.499   4.211 -0.9689 -0.5211  0.6989
  138OSM   H13T14966   3.071   1.418   4.270 -0.3396  0.6292  1.4744
  138OSM   C14S14967   2.897   1.407   4.396 -0.0829  0.1043 -0.0059
  138OSM   H14S14968   2.788   1.428   4.395 -0.1726 -0.3080  0.5127
  138OSM   H14T14969   2.942   1.492   4.453  1.2871 -0.2356 -0.5267
  138OSM   C15S14970   2.935   1.276   4.467 -0.2183  0.1709 -0.4185
  138OSM   H15S14971   3.046   1.267   4.469  0.4358  5.2512  1.3913
  138OSM   H15T14972   2.884   1.185   4.428  2.1736 -1.2328 -0.4816
  138OSM   C16S14973   2.890   1.279   4.622  0.1096  0.2029 -0.2828
  138OSM   H16S14974   2.786   1.317   4.628 -0.0140  0.0628 -1.4314
  138OSM   H16T14975   2.939   1.360   4.682 -4.3792  0.9376  2.9008
  138OSM   C17S14976   2.888   1.146   4.687  0.0421 -0.1018 -0.1785
  138OSM   H17S14977   2.988   1.098   4.676  0.4433  0.5484  0.5214
  138OSM   H17T14978   2.817   1.074   4.643  0.8540 -1.0709  0.0489
  138OSM   C18S14979   2.864   1.148   4.842  0.6043  0.1393  0.3736
  138OSM   H18S14980   2.859   1.045   4.883  2.2384 -0.2459 -0.3055
  138OSM   H18T14981   2.770   1.206   4.856  0.5270  0.0938  0.0526
  138OSM   H18U14982   2.950   1.200   4.889  0.4264 -0.2565  1.1464
  138OSM    C1F14983   2.470   1.633   3.121  0.6185 -0.0598 -0.0217
  138OSM     OF14984   2.386   1.557   3.078  0.0577  0.3562 -0.0359
  138OSM    C2F14985   2.435   1.765   3.178 -0.1141  0.1709 -0.1558
  138OSM    H2F14986   2.504   1.843   3.139 -1.2029  2.0792  1.5497
  138OSM    H2G14987   2.444   1.755   3.288 -3.4543  2.6553  0.5111
  138OSM    C3F14988   2.290   1.806   3.134 -0.3195 -0.5275 -0.7768
  138OSM    H3F14989   2.215   1.732   3.170 -2.1385  0.0975 -3.0711
  138OSM    H3G14990   2.291   1.810   3.023 -0.4347  0.5613 -0.7446
  138OSM    C4F14991   2.252   1.945   3.176 -0.5354  0.1565  0.3216
  138OSM    H4F14992   2.156   1.981   3.134  0.9813  3.1536 -0.8366
  138OSM    H4G14993   2.328   2.010   3.127 -0.2299  0.1906  0.8250
  138OSM    C5F14994   2.254   1.965   3.323  0.2795 -0.1625 -0.3363
  138OSM    H5F14995   2.342   1.932   3.381  0.6925  1.9552  0.2980
  138OSM    H5G14996   2.174   1.898   3.361  1.7261 -1.0781  1.2052
  138OSM    C6F14997   2.231   2.104   3.370 -0.3316 -0.4727  0.4421
  138OSM    H6F14998   2.232   2.112   3.481  0.0996  0.4364  0.3810
  138OSM    H6G14999   2.138   2.147   3.327 -0.3962 -2.1523 -1.2186
  138OSM    C7F15000   2.344   2.193   3.331  0.0610 -0.2495 -0.3541
  138OSM    H7F15001   2.357   2.205   3.221  2.5189  0.0617 -0.0861
  138OSM    H7G15002   2.435   2.147   3.375  1.2482  2.0912 -0.2348
  138OSM    C8F15003   2.339   2.329   3.400 -0.3415 -0.6536  0.2111
  138OSM    H8F15004   2.431   2.387   3.375 -0.9550  1.2499  2.0141
  138OSM    H8G15005   2.346   2.314   3.509  0.7949  1.7216  0.5385
  138OSM    C9F15006   2.222   2.406   3.359  0.0341 -0.7460  0.1753
  138OSM    H9F15007   2.181   2.403   3.257 -0.7564  0.4372  0.4377
  138OSM   C10F15008   2.152   2.484   3.449 -0.0480  0.5288  1.1851
  138OSM   H10F15009   2.058   2.528   3.413 -0.3556 -1.8587 -1.2083
  138OSM   C11F15010   2.184   2.520   3.586 -0.5002  0.5481 -0.4455
  138OSM   H11F15011   2.185   2.628   3.614  1.0677  0.2773  0.7315
  138OSM   H11G15012   2.285   2.478   3.610 -1.0106  0.0657  0.9322
  138OSM   C12F15013   2.098   2.455   3.700 -0.0265  0.2271 -0.8897
  138OSM   H12F15014   2.082   2.347   3.679 -2.6259  1.0644 -3.9251
  138OSM   H12G15015   1.997   2.501   3.694  0.1095  0.3401 -3.0446
  138OSM   C13F15016   2.159   2.483   3.839  0.2482  0.1123 -0.1340
  138OSM   H13F15017   2.150   2.590   3.870  0.0712  0.0462  0.0480
  138OSM   H13G15018   2.264   2.447   3.835  0.1104 -0.3716  0.3596
  138OSM   C14F15019   2.088   2.403   3.955 -0.2775  0.3430  0.0115
  138OSM   H14F15020   2.101   2.297   3.927 -1.1330  0.2590 -0.0965
  138OSM   H14G15021   1.981   2.429   3.969  0.2816  2.5216  0.7147
  138OSM   C15F15022   2.156   2.415   4.092 -0.1842 -0.0772 -0.1575
  138OSM   H15F15023   2.178   2.524   4.100  1.2518 -0.2903 -0.9109
  138OSM   H15G15024   2.246   2.350   4.085  1.5895  2.2075  0.2184
  138OSM   C16F15025   2.071   2.358   4.208 -0.7496  0.2536 -0.5123
  138OSM   H16F15026   2.062   2.248   4.198 -1.9405  0.2535  0.3296
  138OSM   H16G15027   1.977   2.417   4.197 -2.7097 -2.1024  2.0368
  138OSM   C17F15028   2.133   2.391   4.350  0.1772  0.1900 -0.1586
  138OSM   H17F15029   2.109   2.499   4.362 -0.7345  0.0415 -0.5971
  138OSM   H17G15030   2.244   2.390   4.337  0.1038 -1.0378 -0.7662
  138OSM   C18F15031   2.063   2.308   4.460 -0.1288 -0.0066 -0.0779
  138OSM   H18F15032   1.958   2.341   4.468 -0.1341 -0.2884  1.3549
  138OSM   H18G15033   2.115   2.323   4.557  1.2453 -0.3774 -0.7251
  138OSM   H18H15034   2.065   2.203   4.423 -3.0032  0.3139 -1.3751
  139OSM      N15035   3.857   2.781   2.794 -0.0837  0.3030 -0.6594
  139OSM    C1515036   3.882   2.919   2.853 -0.7429 -0.3949 -0.1912
  139OSM   H15A15037   3.902   2.993   2.777 -0.2647 -0.8827 -0.5507
  139OSM   H15B15038   3.968   2.918   2.918 -0.8248 -0.9357 -0.0882
  139OSM   H15C15039   3.794   2.952   2.907 -0.5202  0.8328 -0.5555
  139OSM    C1415040   3.820   2.686   2.910 -0.5013 -0.3330  0.7240
  139OSM   H14A15041   3.726   2.712   2.956  0.1850  0.5424  1.6641
  139OSM   H14B15042   3.892   2.688   2.991  0.5250  1.3733 -0.1675
  139OSM   H14C15043   3.799   2.587   2.872 -1.7210 -0.5234  1.8336
  139OSM    C1315044   3.740   2.786   2.699  0.3802  0.1043  0.4942
  139OSM   H13A15045   3.696   2.691   2.675  1.2654  0.0026 -0.8618
  139OSM   H13B15046   3.769   2.816   2.599  1.6878  2.2608  1.4392
  139OSM   H13C15047   3.669   2.864   2.723 -0.2414  0.3002 -1.7170
  139OSM    C1215048   3.984   2.730   2.720  0.6926  0.0716 -0.2387
  139OSM   H12A15049   3.961   2.636   2.672 -3.0145  1.1308 -0.7735
  139OSM   H12B15050   4.063   2.711   2.792  0.6566  0.4303 -0.1009
  139OSM    C1115051   4.051   2.816   2.608  0.3295  0.0988  0.7639
  139OSM   H11A15052   3.965   2.826   2.538 -0.7771  1.9638  2.2762
  139OSM   H11B15053   4.122   2.761   2.543 -1.3229 -0.1854 -0.9027
  139OSM      P15054   4.231   2.968   2.727 -0.0363  0.0256 -0.0383
  139OSM    O1315055   4.334   2.868   2.690 -0.0626 -0.1170  0.4490
  139OSM    O1415056   4.270   3.113   2.725 -0.2793 -0.0754  0.2735
  139OSM    O1115057   4.190   2.943   2.874 -0.3528  0.2867 -0.1365
  139OSM    O1215058   4.097   2.951   2.645  0.0196 -0.0117 -0.2081
  139OSM    C1S15059   4.293   2.910   2.966  0.9883  0.7597  0.4451
  139OSM    H1S15060   4.376   2.983   2.976  1.5132  0.0672  1.1850
  139OSM    H1T15061   4.345   2.814   2.945 -1.9686 -0.8193 -0.3716
  139OSM     NF15062   4.318   2.954   3.216  0.0600  0.8578  0.5558
  139OSM    HNF15063   4.375   2.888   3.265  2.8646  3.2114  0.7538
  139OSM    C2S15064   4.231   2.902   3.112 -0.3159 -0.0003  0.3285
  139OSM    H2S15065   4.135   2.959   3.109  0.4054  1.2532  0.1190
  139OSM    C3S15066   4.187   2.760   3.144  0.8889  0.0363  1.1763
  139OSM    H3S15067   4.271   2.690   3.161  0.4325 -1.0043 -0.5336
  139OSM     O315068   4.102   2.699   3.049  0.5404 -0.0166  0.0847
  139OSM    HO315069   4.062   2.770   2.999 -2.2743 -1.2339  0.3560
  139OSM    C4S15070   4.126   2.768   3.279 -0.7784  0.3429 -0.2282
  139OSM    H4S15071   4.200   2.747   3.358 -0.2551  0.0953 -0.7780
  139OSM    C5S15072   3.998   2.795   3.311 -0.1533  0.9134  0.5042
  139OSM    H5S15073   3.920   2.806   3.234  0.1763  1.1958  0.2056
  139OSM    C6S15074   3.949   2.779   3.457 -0.5484 -0.2305 -0.2472
  139OSM    H6S15075   3.853   2.726   3.435 -0.7064  0.6430 -1.8085
  139OSM    H6T15076   3.927   2.879   3.500  1.2776  0.5599 -1.0594
  139OSM    C7S15077   4.041   2.704   3.555  0.2656  0.2256  0.3494
  139OSM    H7S15078   4.125   2.775   3.570  1.1445 -1.1199  1.9298
  139OSM    H7T15079   4.082   2.608   3.517  0.3264  0.1591  0.5830
  139OSM    C8S15080   3.961   2.680   3.688 -0.4621  0.2332 -0.0238
  139OSM    H8S15081   3.863   2.633   3.665 -0.6838 -0.4313  2.0510
  139OSM    H8T15082   3.939   2.782   3.724  0.9734  0.0458  1.4794
  139OSM    C9S15083   4.045   2.603   3.787  0.4685 -0.8578  0.4883
  139OSM    H9S15084   4.138   2.657   3.818 -0.5983  1.2278  0.2292
  139OSM    H9T15085   4.074   2.503   3.748  1.5987 -0.9084  1.3725
  139OSM   C10S15086   3.958   2.578   3.908 -0.2061 -0.4304  0.9130
  139OSM   H10S15087   3.860   2.534   3.880 -0.4860  2.0741 -2.7092
  139OSM   H10T15088   3.920   2.675   3.947 -0.8476  0.9626 -2.7814
  139OSM   C11S15089   4.035   2.487   4.006  0.2239  0.0243 -0.9867
  139OSM   H11S15090   4.133   2.536   4.019  0.9358 -1.5503 -0.2067
  139OSM   H11T15091   4.049   2.396   3.945 -1.0204  0.2995 -1.7275
  139OSM   C12S15092   3.961   2.454   4.139  0.0877 -0.8070 -0.9656
  139OSM   H12S15093   3.918   2.352   4.124 -1.5091 -0.3440  0.2323
  139OSM   H12T15094   3.874   2.521   4.154  1.5568  1.0616 -0.3809
  139OSM   C13S15095   4.050   2.456   4.265  0.6493 -0.2590 -0.5644
  139OSM   H13S15096   4.083   2.559   4.294  0.8127 -1.1272  2.7564
  139OSM   H13T15097   4.137   2.389   4.253 -1.8921 -3.6462 -1.5593
  139OSM   C14S15098   3.966   2.413   4.391  0.0512 -0.0331  0.7859
  139OSM   H14S15099   3.925   2.310   4.378  0.2596  0.1534 -2.2009
  139OSM   H14T15100   3.883   2.486   4.400  1.2753  1.5321  0.0034
  139OSM   C15S15101   4.044   2.411   4.522  0.3902 -0.2392  0.2082
  139OSM   H15S15102   3.985   2.412   4.616  1.1660 -0.2683  0.7018
  139OSM   H15T15103   4.090   2.512   4.529  0.4985 -0.2016 -0.8802
  139OSM   C16S15104   4.148   2.296   4.532  0.1321  0.0405 -0.0629
  139OSM   H16S15105   4.227   2.322   4.458 -0.1050 -2.4840 -1.3046
  139OSM   H16T15106   4.106   2.194   4.516 -1.0274  0.3495  0.8750
  139OSM   C17S15107   4.208   2.279   4.668  1.2482 -0.9031  0.0448
  139OSM   H17S15108   4.131   2.268   4.747  1.2371 -2.1450 -0.1179
  139OSM   H17T15109   4.263   2.372   4.694  0.4335  0.2556 -2.1376
  139OSM   C18S15110   4.309   2.175   4.690 -0.5137  0.1600  0.4542
  139OSM   H18S15111   4.257   2.079   4.711  0.1626 -0.3854 -0.3170
  139OSM   H18T15112   4.373   2.185   4.780  0.5485 -3.5931  0.2902
  139OSM   H18U15113   4.379   2.171   4.604  0.6706  1.1154  1.3341
  139OSM    C1F15114   4.342   3.082   3.233  1.0194  0.4423  0.2795
  139OSM     OF15115   4.286   3.166   3.162 -0.3562 -0.0544 -0.1569
  139OSM    C2F15116   4.427   3.110   3.352 -0.0050 -0.7676 -0.3183
  139OSM    H2F15117   4.528   3.064   3.344  0.5501 -0.3035  2.9427
  139OSM    H2G15118   4.392   3.076   3.451 -1.4821  0.4603 -0.3820
  139OSM    C3F15119   4.460   3.261   3.371 -1.1967  0.0654  0.7156
  139OSM    H3F15120   4.371   3.327   3.369 -0.7160  0.7438  1.1763
  139OSM    H3G15121   4.537   3.296   3.299 -0.7679 -3.3050 -0.6266
  139OSM    C4F15122   4.542   3.289   3.500 -0.6645  0.4589 -0.5639
  139OSM    H4F15123   4.583   3.392   3.498 -1.4471  0.8490  1.0575
  139OSM    H4G15124   4.629   3.221   3.508 -1.5465 -0.6003  0.3840
  139OSM    C5F15125   4.457   3.304   3.633  0.6524  0.4948 -0.3166
  139OSM    H5F15126   4.412   3.206   3.657 -0.4387  0.9459 -0.4712
  139OSM    H5G15127   4.361   3.359   3.622  1.1741  1.0666 -2.5147
  139OSM    C6F15128   4.541   3.349   3.755 -0.0654 -1.0170  0.0693
  139OSM    H6F15129   4.575   3.452   3.732  0.2165 -1.3959 -1.3695
  139OSM    H6G15130   4.629   3.281   3.752  0.8596  0.0551  1.6887
  139OSM    C7F15131   4.461   3.343   3.883  0.1888 -0.1752 -0.2909
  139OSM    H7F15132   4.436   3.237   3.907  1.5327 -0.5607 -0.4916
  139OSM    H7G15133   4.366   3.396   3.863 -1.3925 -2.9746 -0.7836
  139OSM    C8F15134   4.519   3.412   3.996 -0.1449 -0.4237 -0.7364
  139OSM    H8F15135   4.448   3.426   4.081  0.6862 -0.4237 -0.0286
  139OSM    H8G15136   4.552   3.515   3.970 -0.5006 -0.0650  0.1860
  139OSM    C9F15137   4.643   3.336   4.047  0.0142  0.4805 -0.2980
  139OSM    H9F15138   4.728   3.331   3.977  2.7849 -1.4220  2.9180
  139OSM   C10F15139   4.645   3.271   4.173 -0.7041  0.2113  0.0209
  139OSM   H10F15140   4.729   3.204   4.193 -1.2092 -0.5256 -0.3070
  139OSM   C11F15141   4.541   3.250   4.276  0.0506 -0.5118 -0.2804
  139OSM   H11F15142   4.563   3.169   4.349  1.3159  1.6574  1.8921
  139OSM   H11G15143   4.443   3.228   4.228 -1.3789  1.7847  1.3547
  139OSM   C12F15144   4.518   3.376   4.361  0.5939 -0.2086  0.4055
  139OSM   H12F15145   4.507   3.467   4.299  1.3674 -0.7705 -0.5820
  139OSM   H12G15146   4.616   3.392   4.410  1.3165  1.3784 -1.4242
  139OSM   C13F15147   4.405   3.365   4.460  0.0106  0.2070 -0.3461
  139OSM   H13F15148   4.436   3.284   4.529  0.9587  0.1889 -0.7773
  139OSM   H13G15149   4.315   3.321   4.412  0.3362 -0.7873 -0.0708
  139OSM   C14F15150   4.368   3.492   4.536 -0.6031  0.6197  0.3192
  139OSM   H14F15151   4.368   3.581   4.470 -0.7805  1.1912  1.0644
  139OSM   H14G15152   4.447   3.511   4.613 -0.7300  1.8217  0.1769
  139OSM   C15F15153   4.231   3.479   4.600  0.1449  0.2593 -0.1591
  139OSM   H15F15154   4.242   3.389   4.663  1.1263  0.4834  0.0130
  139OSM   H15G15155   4.146   3.461   4.532 -0.8618 -2.1459  1.6117
  139OSM   C16F15156   4.197   3.596   4.691 -0.1976 -0.8442  0.0332
  139OSM   H16F15157   4.226   3.692   4.642 -0.2044 -0.4210  0.8482
  139OSM   H16G15158   4.259   3.584   4.782  0.5449  2.1175  0.0461
  139OSM   C17F15159   4.050   3.615   4.733 -0.1409  0.5537  0.4659
  139OSM   H17F15160   3.989   3.611   4.640  1.9540 -0.4171 -0.9335
  139OSM   H17G15161   4.047   3.713   4.786  0.8545  0.7253  0.2124
  139OSM   C18F15162   4.000   3.512   4.826 -0.0500  0.2120 -0.2577
  139OSM   H18F15163   4.050   3.515   4.924 -4.3400  1.0705  2.1809
  139OSM   H18G15164   3.990   3.405   4.794  0.3519  0.4187 -1.1046
  139OSM   H18H15165   3.898   3.537   4.863  0.3550 -0.9322  1.7891
  140OSM      N15166   2.677   2.036   2.369 -0.3342  0.4065  0.6119
  140OSM    C1515167   2.631   2.172   2.387  0.0163  0.1868 -0.1518
  140OSM   H15A15168   2.631   2.228   2.295 -0.0063 -0.6464 -0.6775
  140OSM   H15B15169   2.715   2.220   2.435 -1.1727  1.3441  0.8307
  140OSM   H15C15170   2.537   2.182   2.440 -1.4031  1.3474 -2.7226
  140OSM    C1415171   2.567   1.947   2.318  0.1522  0.1784 -0.5187
  140OSM   H14A15172   2.474   1.935   2.372 -0.0230 -1.2735 -1.0848
  140OSM   H14B15173   2.600   1.848   2.291 -1.6343  0.0255 -2.3397
  140OSM   H14C15174   2.529   2.002   2.233 -0.3333  1.7445  0.6726
  140OSM    C1315175   2.775   2.024   2.266 -0.2505  0.6426  0.2767
  140OSM   H13A15176   2.873   2.051   2.304 -0.5204 -0.7258  2.1026
  140OSM   H13B15177   2.754   2.087   2.181  0.0621  1.6088  0.8997
  140OSM   H13C15178   2.788   1.921   2.237 -1.2174  0.8692 -1.0361
  140OSM    C1215179   2.730   1.974   2.501  0.1570  0.2798  0.3130
  140OSM   H12A15180   2.766   1.876   2.473 -1.5588 -0.3116  0.0485
  140OSM   H12B15181   2.645   1.961   2.567 -0.9985  0.7340 -1.0352
  140OSM    C1115182   2.838   2.061   2.567  0.2937  0.1456  0.2687
  140OSM   H11A15183   2.867   2.015   2.664  0.8576  0.3990  0.2288
  140OSM   H11B15184   2.795   2.159   2.596  0.1624  0.4845 -1.0185
  140OSM      P15185   3.082   2.157   2.528  0.2407 -0.1574 -0.5826
  140OSM    O1315186   3.197   2.067   2.496 -0.0438  0.4037  0.4131
  140OSM    O1415187   3.077   2.290   2.464 -0.3895 -0.2774  0.7075
  140OSM    O1115188   3.061   2.172   2.686 -0.2886 -0.2872 -0.7925
  140OSM    O1215189   2.951   2.074   2.485  0.2473 -0.5306 -0.2540
  140OSM    C1S15190   3.127   2.280   2.762 -0.5583  0.7323  0.5306
  140OSM    H1S15191   3.118   2.372   2.701 -0.3816  0.2301 -0.2765
  140OSM    H1T15192   3.237   2.266   2.764 -0.4868  0.7634 -1.4263
  140OSM     NF15193   3.110   2.398   2.978 -0.7833  0.6165  0.2920
  140OSM    HNF15194   3.190   2.392   3.037 -0.2830 -0.7874 -0.4569
  140OSM    C2S15195   3.061   2.280   2.900  0.3096  0.1973  0.0530
  140OSM    H2S15196   2.951   2.284   2.889  0.4030 -0.7054 -1.5029
  140OSM    C3S15197   3.086   2.145   2.975 -0.3323  0.0582  1.0509
  140OSM    H3S15198   3.194   2.120   2.970 -0.8487 -2.2530  0.5830
  140OSM     O315199   3.004   2.039   2.925 -0.7364 -0.1625  0.3311
  140OSM    HO315200   2.986   2.075   2.838 -0.9521 -0.1148  0.3953
  140OSM    C4S15201   3.053   2.158   3.125  0.2841  0.9891 -0.5355
  140OSM    H4S15202   2.949   2.192   3.139  0.4878  0.9753  1.2454
  140OSM    C5S15203   3.133   2.135   3.222  0.4090  0.1143  0.3848
  140OSM    H5S15204   3.234   2.095   3.208  0.2494 -0.3321  0.5077
  140OSM    C6S15205   3.085   2.143   3.370 -0.1718 -0.1491 -0.1748
  140OSM    H6S15206   3.034   2.050   3.404  0.3427 -0.7056 -0.8986
  140OSM    H6T15207   3.003   2.218   3.380  0.6813  0.8371 -0.4411
  140OSM    C7S15208   3.182   2.190   3.487  0.0312 -0.2627 -0.6172
  140OSM    H7S15209   3.209   2.295   3.464 -0.6658 -0.0352 -0.4117
  140OSM    H7T15210   3.269   2.120   3.483  0.1888 -0.1507  0.5141
  140OSM    C8S15211   3.114   2.170   3.632  0.0460  0.6706  0.2671
  140OSM    H8S15212   3.082   2.064   3.643  1.8557  0.0878  0.2846
  140OSM    H8T15213   3.020   2.227   3.648 -0.4157 -0.5891  2.2927
  140OSM    C9S15214   3.208   2.203   3.747  0.0703  0.2445  0.6976
  140OSM    H9S15215   3.240   2.309   3.739 -2.4689  0.9176 -1.8733
  140OSM    H9T15216   3.291   2.129   3.746 -0.6839 -0.6863  2.2887
  140OSM   C10S15217   3.152   2.182   3.882  0.3839  0.8317  0.4178
  140OSM   H10S15218   3.137   2.073   3.890 -0.8875  1.0417  1.1308
  140OSM   H10T15219   3.052   2.228   3.898 -0.1246 -0.3911  0.8024
  140OSM   C11S15220   3.244   2.236   3.988  0.5669  0.3799  0.3043
  140OSM   H11S15221   3.257   2.346   3.983 -3.1505  0.9575  0.4041
  140OSM   H11T15222   3.344   2.187   3.982  1.6488  2.4478  0.3608
  140OSM   C12S15223   3.173   2.219   4.122  0.2840  0.1694  0.0138
  140OSM   H12S15224   3.136   2.116   4.141  0.5699  0.0899  0.1407
  140OSM   H12T15225   3.082   2.282   4.129  0.2319  0.1152 -0.1659
  140OSM   C13S15226   3.263   2.261   4.237  0.1779 -0.6765  0.4631
  140OSM   H13S15227   3.306   2.361   4.211 -1.7757  0.2857  0.7783
  140OSM   H13T15228   3.344   2.188   4.258 -1.1378 -2.5739 -0.7271
  140OSM   C14S15229   3.190   2.281   4.375  0.1279 -0.4393  0.5794
  140OSM   H14S15230   3.100   2.339   4.344  1.2741  1.3975  0.5736
  140OSM   H14T15231   3.256   2.337   4.444  2.6591  1.3024 -2.9898
  140OSM   C15S15232   3.145   2.148   4.436  0.5949 -0.8480 -0.2106
  140OSM   H15S15233   3.235   2.093   4.471  0.2383 -1.4335 -0.2137
  140OSM   H15T15234   3.101   2.087   4.354  0.1238  1.1245 -1.4959
  140OSM   C16S15235   3.046   2.157   4.543  0.4497  0.0202  0.2251
  140OSM   H16S15236   3.001   2.058   4.563 -1.4734  0.4564 -1.5990
  140OSM   H16T15237   2.963   2.218   4.500  1.2367 -0.9388 -2.8472
  140OSM   C17S15238   3.093   2.224   4.670 -0.1546 -0.0883 -0.1561
  140OSM   H17S15239   3.100   2.334   4.659  2.4117  0.1938  2.6853
  140OSM   H17T15240   3.198   2.191   4.683  0.6114  0.3645 -4.0019
  140OSM   C18S15241   3.001   2.187   4.787  0.5729 -0.0940  0.3121
  140OSM   H18S15242   3.038   2.223   4.885  1.2322 -0.2903  0.1438
  140OSM   H18T15243   3.018   2.078   4.796 -0.8293 -0.2245  1.8049
  140OSM   H18U15244   2.894   2.206   4.762  0.9452 -0.4721 -1.7525
  140OSM    C1F15245   3.090   2.521   2.935  0.4379 -0.2691 -0.2585
  140OSM     OF15246   3.005   2.543   2.844 -0.0814 -0.0801  0.1534
  140OSM    C2F15247   3.161   2.628   3.003 -0.4187  1.2874 -0.7622
  140OSM    H2F15248   3.257   2.649   2.950  0.9390 -0.1557  0.9979
  140OSM    H2G15249   3.190   2.585   3.101 -1.9743 -0.3231 -0.9595
  140OSM    C3F15250   3.079   2.760   3.003  0.1064  1.1573 -0.2658
  140OSM    H3F15251   2.981   2.737   3.051  0.5950  0.6285  0.4921
  140OSM    H3G15252   3.053   2.810   2.907 -1.6297  1.4781  0.3340
  140OSM    C4F15253   3.163   2.864   3.074 -0.6325  0.0393  0.1566
  140OSM    H4F15254   3.128   2.969   3.068 -1.3157 -0.1636  0.4170
  140OSM    H4G15255   3.256   2.868   3.014 -0.1259  3.7228  0.9767
  140OSM    C5F15256   3.188   2.838   3.224 -0.3658  0.3158  0.4917
  140OSM    H5F15257   3.248   2.745   3.234 -0.7684 -0.0572 -0.4156
  140OSM    H5G15258   3.090   2.825   3.275 -1.4559 -1.7681 -1.8953
  140OSM    C6F15259   3.263   2.958   3.285  0.9026 -0.6118  0.2362
  140OSM    H6F15260   3.209   3.054   3.268  1.2399 -0.6215 -0.9908
  140OSM    H6G15261   3.358   2.975   3.230  2.5764 -1.8810  2.5458
  140OSM    C7F15262   3.286   2.937   3.433  0.4353  0.0644  0.2922
  140OSM    H7F15263   3.214   2.860   3.470  1.2352 -0.0440  1.7069
  140OSM    H7G15264   3.288   3.027   3.498  2.0300  0.3712 -0.1468
  140OSM    C8F15265   3.427   2.863   3.453 -0.1023 -0.1836  0.3432
  140OSM    H8F15266   3.441   2.798   3.364  1.6029  0.9576 -0.2774
  140OSM    H8G15267   3.425   2.800   3.544 -0.5144  0.8510  1.0623
  140OSM    C9F15268   3.544   2.963   3.465 -0.2293 -0.0032  0.5595
  140OSM    H9F15269   3.579   3.015   3.375 -2.3548  1.4156  0.4819
  140OSM   C10F15270   3.612   2.993   3.580  0.5022  0.9348  0.2027
  140OSM   H10F15271   3.692   3.068   3.569  0.7613  0.9062  1.6479
  140OSM   C11F15272   3.594   2.950   3.720  0.4536 -0.2550 -0.7867
  140OSM   H11F15273   3.628   2.846   3.736 -0.4880 -0.3316  1.0009
  140OSM   H11G15274   3.487   2.940   3.748  1.0438 -3.0045  0.8314
  140OSM   C12F15275   3.659   3.032   3.831 -0.2906  0.5896  0.4058
  140OSM   H12F15276   3.634   3.140   3.827  1.0750  0.9159  0.2042
  140OSM   H12G15277   3.768   3.016   3.816 -0.7998 -2.8060 -0.6923
  140OSM   C13F15278   3.613   2.985   3.964 -0.2546  0.4655 -0.6642
  140OSM   H13F15279   3.622   2.874   3.968 -0.5167  0.4770  0.8475
  140OSM   H13G15280   3.505   3.011   3.976 -0.8526 -2.4723  1.6019
  140OSM   C14F15281   3.693   3.033   4.094 -0.5426 -0.7602 -0.1391
  140OSM   H14F15282   3.664   3.138   4.116  1.0395 -0.7215  2.1054
  140OSM   H14G15283   3.800   3.044   4.066 -0.7982  0.3456 -0.7288
  140OSM   C15F15284   3.656   2.941   4.209 -0.9192  0.1901  0.0713
  140OSM   H15F15285   3.713   2.846   4.214 -0.4132  0.5514  2.3863
  140OSM   H15G15286   3.547   2.919   4.204 -0.5265 -1.5141 -3.4100
  140OSM   C16F15287   3.692   3.012   4.345 -0.2185 -0.3397 -0.2462
  140OSM   H16F15288   3.645   2.965   4.435  0.0739  0.5845  0.4013
  140OSM   H16G15289   3.652   3.115   4.334  2.4354  0.8824  0.7640
  140OSM   C17F15290   3.843   3.025   4.365  0.0684  0.3249  0.0851
  140OSM   H17F15291   3.891   3.058   4.270  1.0350  1.8409  1.0537
  140OSM   H17G15292   3.872   2.922   4.395 -0.7028  0.4409  1.3022
  140OSM   C18F15293   3.897   3.123   4.466  0.4216 -0.5771 -0.0257
  140OSM   H18F15294   4.008   3.124   4.471  0.6023  0.9678 -2.5996
  140OSM   H18G15295   3.842   3.091   4.557 -1.3486 -0.5687 -1.0450
  140OSM   H18H15296   3.869   3.227   4.436  0.2378  0.1414  2.4321
  141OSM      N15297   4.637   4.650   2.336  0.1342  0.1974 -0.0400
  141OSM    C1515298   4.752   4.722   2.279  0.1128 -0.8583 -0.6231
  141OSM   H15A15299   4.719   4.807   2.220  1.4145  0.2590  0.1885
  141OSM   H15B15300   4.796   4.652   2.210 -0.0055 -0.2965 -1.2889
  141OSM   H15C15301   4.825   4.745   2.355 -2.5309 -1.4838  2.3051
  141OSM    C1415302   4.544   4.600   2.234 -0.5118  0.4248  0.7377
  141OSM   H14A15303   4.456   4.556   2.277  0.2764 -0.4923  1.4734
  141OSM   H14B15304   4.591   4.533   2.163  1.4377  0.0320  2.3109
  141OSM   H14C15305   4.504   4.687   2.184 -0.2640 -0.4983 -1.1556
  141OSM    C1315306   4.688   4.530   2.411  0.2373 -0.3672 -0.2827
  141OSM   H13A15307   4.609   4.485   2.470 -0.7000 -0.9044 -1.8725
  141OSM   H13B15308   4.762   4.568   2.479  0.5980 -0.5990 -0.5415
  141OSM   H13C15309   4.728   4.455   2.344  1.1169 -0.4640  0.3423
  141OSM    C1215310   4.560   4.742   2.439 -0.5442  0.0165  0.5138
  141OSM   H12A15311   4.481   4.686   2.486  1.7780 -2.7445  1.3574
  141OSM   H12B15312   4.510   4.822   2.385 -1.0143 -0.0056  0.9116
  141OSM    C1115313   4.651   4.798   2.558  0.3190 -0.4400  0.5308
  141OSM   H11A15314   4.723   4.862   2.504 -0.9571  0.0839 -0.6158
  141OSM   H11B15315   4.689   4.711   2.616 -0.1808 -1.3325 -0.4440
  141OSM      P15316   4.625   5.000   2.705  0.7224 -0.0072  0.2975
  141OSM    O1315317   4.691   5.093   2.612  0.0181  0.3000 -0.7725
  141OSM    O1415318   4.511   5.057   2.788 -0.3811 -0.6570  0.2329
  141OSM    O1115319   4.730   4.928   2.792 -0.3366  0.5703  0.0763
  141OSM    O1215320   4.560   4.881   2.629  0.1378 -0.3769 -0.5763
  141OSM    C1S15321   4.746   4.953   2.928  0.5623  0.0370 -0.3099
  141OSM    H1S15322   4.646   4.959   2.976  1.1673 -1.4853  1.2258
  141OSM    H1T15323   4.795   5.052   2.943  0.2022  0.1464  0.1676
  141OSM     NF15324   4.854   4.895   3.135  0.4016 -0.6668 -0.6020
  141OSM    HNF15325   4.932   4.942   3.174 -0.8316  0.7622  0.2544
  141OSM    C2S15326   4.855   4.865   2.989 -0.4048  0.1982 -0.0288
  141OSM    H2S15327   4.820   4.760   2.981 -2.5887  0.7589  1.1878
  141OSM    C3S15328   4.990   4.885   2.918  0.2041 -0.2131 -0.3028
  141OSM    H3S15329   5.027   4.990   2.914  0.7140 -0.3462  0.5240
  141OSM     O315330   4.990   4.844   2.785 -0.0957 -0.3716  0.3540
  141OSM    HO315331   4.903   4.874   2.760  0.3248  0.0662 -0.6499
  141OSM    C4S15332   5.096   4.817   2.994 -0.0734  0.7870  0.2523
  141OSM    H4S15333   5.151   4.884   3.063 -2.7236  3.1977  0.1904
  141OSM    C5S15334   5.144   4.691   2.978 -0.3988 -0.8628 -0.5218
  141OSM    H5S15335   5.086   4.624   2.912 -1.2719 -0.7457  0.1123
  141OSM    C6S15336   5.247   4.630   3.063  0.0273 -0.4844 -0.6896
  141OSM    H6S15337   5.344   4.633   3.010  1.8313 -0.5291  2.4015
  141OSM    H6T15338   5.226   4.525   3.096  0.2450 -0.3279 -0.0420
  141OSM    C7S15339   5.278   4.709   3.198 -0.1051  0.4403 -0.0432
  141OSM    H7S15340   5.179   4.707   3.250 -0.7320 -2.4586 -1.1332
  141OSM    H7T15341   5.294   4.817   3.180 -2.9897  0.8026 -1.0333
  141OSM    C8S15342   5.395   4.639   3.271 -0.5156  0.1460  0.2788
  141OSM    H8S15343   5.477   4.619   3.199 -0.5519  0.2149  0.2194
  141OSM    H8T15344   5.362   4.538   3.304  0.2878 -0.7101 -1.4423
  141OSM    C9S15345   5.440   4.707   3.402 -0.0856  0.8727 -0.2121
  141OSM    H9S15346   5.471   4.810   3.374  0.5709  1.2284  1.6795
  141OSM    H9T15347   5.523   4.650   3.451 -3.8838 -2.6033  2.9114
  141OSM   C10S15348   5.328   4.711   3.507 -1.1405  0.0069 -0.1155
  141OSM   H10S15349   5.286   4.608   3.514  4.7029 -2.7583  0.6813
  141OSM   H10T15350   5.254   4.785   3.470  0.4778  1.8024  0.0934
  141OSM   C11S15351   5.367   4.746   3.648 -0.3469 -0.0243  0.1773
  141OSM   H11S15352   5.270   4.745   3.703 -1.4347 -1.8154 -1.6175
  141OSM   H11T15353   5.419   4.844   3.642  0.3504 -0.4625 -1.4805
  141OSM   C12S15354   5.471   4.651   3.706 -0.4329 -0.5693  0.7368
  141OSM   H12S15355   5.575   4.668   3.669 -0.7447 -1.3410 -0.5648
  141OSM   H12T15356   5.440   4.551   3.667  0.7123 -0.2319 -1.2092
  141OSM   C13S15357   5.475   4.655   3.857  0.3754  0.6723 -0.1310
  141OSM   H13S15358   5.377   4.619   3.894  0.3553  0.9629  0.0983
  141OSM   H13T15359   5.483   4.758   3.897 -0.0677  1.2713 -1.5139
  141OSM   C14S15360   5.576   4.555   3.912  0.1023 -0.5533 -0.6230
  141OSM   H14S15361   5.675   4.590   3.876  0.4973  0.0843  1.0162
  141OSM   H14T15362   5.539   4.458   3.873  1.7328 -2.0765  1.3816
  141OSM   C15S15363   5.577   4.577   4.068 -0.7236 -0.2111  0.0914
  141OSM   H15S15364   5.481   4.543   4.112 -0.0560 -3.2921 -0.5948
  141OSM   H15T15365   5.597   4.683   4.092 -0.6194 -0.6248  1.9275
  141OSM   C16S15366   5.686   4.492   4.137 -0.3118 -0.2834  0.0410
  141OSM   H16S15367   5.744   4.430   4.066  0.6549 -1.9060  2.1221
  141OSM   H16T15368   5.644   4.413   4.203 -1.5480  0.2894 -0.0307
  141OSM   C17S15369   5.792   4.569   4.222  0.3179 -0.2854 -0.1165
  141OSM   H17S15370   5.787   4.677   4.195  0.9609  0.8507  3.6503
  141OSM   H17T15371   5.895   4.541   4.191  1.1963  0.2077  2.1383
  141OSM   C18S15372   5.772   4.561   4.375  0.6041 -0.1359  1.2804
  141OSM   H18S15373   5.853   4.605   4.436  1.3826 -0.4386  0.4921
  141OSM   H18T15374   5.774   4.455   4.409 -1.5392 -0.4917  0.4368
  141OSM   H18U15375   5.670   4.589   4.409 -0.0047 -0.1727 -0.3912
  141OSM    C1F15376   4.749   4.859   3.202 -0.9386  0.5114 -0.4803
  141OSM     OF15377   4.673   4.777   3.154  0.0306  0.0355  0.5659
  141OSM    C2F15378   4.748   4.894   3.352 -0.2288 -0.0248  0.0113
  141OSM    H2F15379   4.716   5.001   3.357  0.2002  0.1713 -1.0250
  141OSM    H2G15380   4.852   4.884   3.389  0.7359  2.5110 -1.7299
  141OSM    C3F15381   4.651   4.810   3.430  0.8212  0.2442  0.4552
  141OSM    H3F15382   4.699   4.711   3.446  1.1170  0.6692  2.5044
  141OSM    H3G15383   4.562   4.784   3.369  0.2132  3.4289 -0.2102
  141OSM    C4F15384   4.605   4.883   3.552  0.4813  0.7390  0.2930
  141OSM    H4F15385   4.532   4.821   3.609  1.6417 -1.1989 -0.2144
  141OSM    H4G15386   4.555   4.976   3.519 -1.0823 -0.3955 -0.6797
  141OSM    C5F15387   4.715   4.919   3.647  0.3199 -0.3402 -0.5942
  141OSM    H5F15388   4.761   5.013   3.609 -1.6326  1.8184  2.0444
  141OSM    H5G15389   4.802   4.851   3.640  0.5300 -0.1958  0.4463
  141OSM    C6F15390   4.672   4.939   3.789  1.2397  0.0139 -0.1080
  141OSM    H6F15391   4.595   4.861   3.808  0.4344  0.8425  0.0627
  141OSM    H6G15392   4.617   5.035   3.798 -0.4083 -0.9479  0.4462
  141OSM    C7F15393   4.781   4.926   3.895 -0.1000  0.9852  0.4807
  141OSM    H7F15394   4.840   5.020   3.884  1.2269 -0.0181 -1.4469
  141OSM    H7G15395   4.844   4.842   3.860 -1.0731  0.2697  0.4051
  141OSM    C8F15396   4.743   4.906   4.043 -0.2067  0.1281  0.4635
  141OSM    H8F15397   4.831   4.881   4.107 -1.4897 -0.5137  2.0262
  141OSM    H8G15398   4.683   4.814   4.056  0.6458 -0.5143 -0.0571
  141OSM    C9F15399   4.673   5.028   4.095  0.0591  0.2766  0.4522
  141OSM    H9F15400   4.617   5.089   4.022  2.1025 -0.5232 -1.9090
  141OSM   C10F15401   4.665   5.062   4.224 -0.1101  0.4725 -0.5002
  141OSM   H10F15402   4.599   5.147   4.247 -1.3365 -0.4426 -0.5803
  141OSM   C11F15403   4.712   4.984   4.333 -0.8433  0.0816  0.0664
  141OSM   H11F15404   4.822   4.996   4.333 -0.7856 -0.1487 -1.7469
  141OSM   H11G15405   4.693   4.876   4.316 -2.4917  0.5417 -1.2178
  141OSM   C12F15406   4.662   5.027   4.471 -0.2917  0.4618  0.3954
  141OSM   H12F15407   4.555   5.000   4.486 -0.5278 -0.5506 -2.4785
  141OSM   H12G15408   4.677   5.137   4.482  1.5181  0.3520 -0.6320
  141OSM   C13F15409   4.734   4.942   4.589  0.0314 -0.1297  0.7310
  141OSM   H13F15410   4.843   4.959   4.596 -0.1084  0.5331  1.3681
  141OSM   H13G15411   4.702   4.837   4.571  0.8750 -0.1706 -0.7774
  141OSM   C14F15412   4.683   4.981   4.730 -0.7074 -0.1528 -0.3613
  141OSM   H14F15413   4.574   4.974   4.746 -0.7635 -1.7709 -1.2249
  141OSM   H14G15414   4.693   5.091   4.742  1.5004 -0.3617  0.2872
  141OSM   C15F15415   4.769   4.904   4.838 -0.2542  0.3068 -0.0846
  141OSM   H15F15416   4.875   4.925   4.812 -1.1545  0.9702 -3.7653
  141OSM   H15G15417   4.758   4.794   4.835 -0.5868  0.2251  2.0296
  141OSM   C16F15418   4.744   4.930   4.984  0.2587  0.2230 -0.3490
  141OSM   H16F15419   4.636   4.955   4.995  0.4953  2.0445 -1.6807
  141OSM   H16G15420   4.805   5.018   5.013 -1.5737  1.9749 -1.5517
  141OSM   C17F15421   4.775   4.818   5.086  0.2990  0.3788 -0.4811
  141OSM   H17F15422   4.726   4.847   5.181 -0.1381 -0.1929 -0.5281
  141OSM   H17G15423   4.882   4.799   5.109 -0.2754 -1.1856  1.1478
  141OSM   C18F15424   4.724   4.681   5.053 -1.1539 -0.1403  0.0773
  141OSM   H18F15425   4.784   4.639   4.969 -1.4866 -0.1821 -0.1385
  141OSM   H18G15426   4.617   4.667   5.027 -0.5724 -2.7049 -1.2661
  141OSM   H18H15427   4.741   4.616   5.142 -0.5971 -0.3538 -0.1745
  142OSM      N15428   5.703   6.553   2.890 -0.1790 -0.2439  0.2314
  142OSM    C1515429   5.653   6.478   3.002  0.2729 -0.4569  0.9173
  142OSM   H15A15430   5.646   6.372   2.980  0.2715 -0.6374  1.7420
  142OSM   H15B15431   5.551   6.501   3.026 -1.1136 -1.6060 -3.0294
  142OSM   H15C15432   5.707   6.501   3.092  2.7175 -1.4308 -0.2018
  142OSM    C1415433   5.858   6.534   2.874  0.5800  0.0711  0.0539
  142OSM   H14A15434   5.888   6.591   2.787 -0.3099 -1.4312 -1.2826
  142OSM   H14B15435   5.878   6.428   2.872  0.2325 -0.2067  3.9527
  142OSM   H14C15436   5.910   6.573   2.961 -1.0057 -1.0032  1.5509
  142OSM    C1315437   5.644   6.497   2.770  0.0521  0.5041  0.0373
  142OSM   H13A15438   5.536   6.493   2.776 -0.0793  0.7305 -1.5533
  142OSM   H13B15439   5.672   6.394   2.753 -1.1959  0.0466  0.6406
  142OSM   H13C15440   5.666   6.560   2.685 -0.5992 -1.3526 -1.5863
  142OSM    C1215441   5.675   6.703   2.903  0.2717  0.6931 -0.7427
  142OSM   H12A15442   5.701   6.732   3.004 -2.8886  0.6470  0.1848
  142OSM   H12B15443   5.568   6.714   2.893  0.2879  0.9711 -0.6326
  142OSM    C1115444   5.736   6.796   2.796  0.9272  0.5945  0.1677
  142OSM   H11A15445   5.847   6.794   2.797  0.9245  0.4680  0.4806
  142OSM   H11B15446   5.709   6.902   2.820 -0.2373  0.1190  1.0831
  142OSM      P15447   5.544   6.802   2.609  0.3452 -0.2173 -0.0197
  142OSM    O1315448   5.564   6.922   2.526  0.3026  0.0857  0.1039
  142OSM    O1415449   5.477   6.690   2.546  0.4203 -0.1325 -0.2801
  142OSM    O1115450   5.456   6.838   2.745 -0.1965  0.1124  0.0096
  142OSM    O1215451   5.685   6.764   2.664  0.3090 -0.0412 -0.0646
  142OSM    C1S15452   5.430   6.979   2.768 -0.0464  0.8155  0.1772
  142OSM    H1S15453   5.362   7.010   2.686  1.9069  1.1664 -1.3832
  142OSM    H1T15454   5.522   7.036   2.744  0.6621  0.0558  1.0140
  142OSM     NF15455   5.407   7.151   2.938 -0.1280  1.5868 -0.3327
  142OSM    HNF15456   5.479   7.160   3.007  2.1771  0.8228 -2.4964
  142OSM    C2S15457   5.373   7.013   2.902  0.0654 -0.3493  0.7320
  142OSM    H2S15458   5.263   7.008   2.887  0.0552  1.0267  0.2027
  142OSM    C3S15459   5.407   6.901   3.013  0.1163 -0.3079 -0.0427
  142OSM    H3S15460   5.516   6.897   3.030  0.1436  0.1594 -0.0972
  142OSM     O315461   5.378   6.767   2.985 -0.0313  0.4567  0.2441
  142OSM    HO315462   5.379   6.771   2.889  1.6123  2.0976  0.2844
  142OSM    C4S15463   5.354   6.947   3.152 -0.4948  0.0174  0.5122
  142OSM    H4S15464   5.427   7.013   3.200 -0.4110  0.5999 -0.3873
  142OSM    C5S15465   5.245   6.911   3.222  0.2117  0.3656 -0.0391
  142OSM    H5S15466   5.179   6.836   3.177 -0.1557  1.0328 -0.6457
  142OSM    C6S15467   5.205   6.974   3.352  0.4331  0.4852 -0.0032
  142OSM    H6S15468   5.260   7.062   3.391  0.7646  0.2456  0.0704
  142OSM    H6T15469   5.205   6.895   3.431  0.8400 -0.2579 -0.7396
  142OSM    C7S15470   5.057   7.018   3.357 -0.4995 -0.1719  0.6182
  142OSM    H7S15471   5.038   7.078   3.449 -0.7983 -0.5163  0.7849
  142OSM    H7T15472   4.989   6.931   3.371  0.1252 -0.8170 -0.2831
  142OSM    C8S15473   5.016   7.109   3.238 -0.4554 -0.7953 -0.3620
  142OSM    H8S15474   4.908   7.132   3.250 -0.8745 -2.0342 -1.6274
  142OSM    H8T15475   5.016   7.050   3.144  1.4830  0.7597 -1.4244
  142OSM    C9S15476   5.089   7.248   3.212  0.0462 -0.2805  0.4543
  142OSM    H9S15477   5.059   7.281   3.110 -0.0291  0.3889  0.6910
  142OSM    H9T15478   5.200   7.238   3.207 -0.0204 -0.5497 -1.1099
  142OSM   C10S15479   5.065   7.354   3.323 -0.4235  0.3032  1.0432
  142OSM   H10S15480   5.104   7.447   3.277 -1.8061  0.1218 -0.5890
  142OSM   H10T15481   5.122   7.327   3.414 -0.4568 -0.0965  0.9462
  142OSM   C11S15482   4.921   7.388   3.353 -0.1013  0.5041 -0.5338
  142OSM   H11S15483   4.857   7.297   3.347 -3.5396  2.7122  0.1703
  142OSM   H11T15484   4.892   7.441   3.260  2.7566  1.2745 -1.0998
  142OSM   C12S15485   4.891   7.470   3.477 -0.0471 -0.6958 -0.6742
  142OSM   H12S15486   4.961   7.557   3.477 -1.8736  0.8454 -1.1998
  142OSM   H12T15487   4.916   7.408   3.566 -3.7748 -2.7100 -0.8436
  142OSM   C13S15488   4.753   7.524   3.485  0.0323 -0.4139 -0.3276
  142OSM   H13S15489   4.691   7.433   3.468  0.7898 -0.6291 -2.0777
  142OSM   H13T15490   4.728   7.596   3.405 -1.4873  0.7800  1.1398
  142OSM   C14S15491   4.701   7.583   3.620  0.2542  0.6473 -0.1802
  142OSM   H14S15492   4.772   7.660   3.655  0.5281 -0.4012  1.6663
  142OSM   H14T15493   4.693   7.506   3.700  0.1490 -0.3318 -1.0921
  142OSM   C15S15494   4.570   7.656   3.605  1.0677  0.0200 -0.2538
  142OSM   H15S15495   4.486   7.589   3.579  0.2743  1.1253 -0.6252
  142OSM   H15T15496   4.567   7.720   3.514 -1.3521  0.0928 -0.1933
  142OSM   C16S15497   4.535   7.745   3.715  0.5918 -0.1900 -0.1601
  142OSM   H16S15498   4.621   7.811   3.738  0.2363  0.0409  0.5320
  142OSM   H16T15499   4.506   7.684   3.804 -0.0303  1.5453  0.8732
  142OSM   C17S15500   4.410   7.838   3.702 -0.2033  0.0230  0.4131
  142OSM   H17S15501   4.384   7.878   3.803 -1.9845  0.5100 -0.1997
  142OSM   H17T15502   4.340   7.761   3.664  1.4311 -0.9598 -0.7480
  142OSM   C18S15503   4.422   7.962   3.614  0.6182  0.3850 -0.0419
  142OSM   H18S15504   4.361   8.044   3.657 -0.2279 -1.0224  1.5127
  142OSM   H18T15505   4.391   7.941   3.509 -0.3629  0.7162  0.1745
  142OSM   H18U15506   4.520   8.010   3.593  0.7629  0.0172 -0.2208
  142OSM    C1F15507   5.352   7.256   2.877 -0.2556  0.2324  0.8142
  142OSM     OF15508   5.272   7.244   2.785 -0.1562  0.1146  0.3414
  142OSM    C2F15509   5.431   7.383   2.913 -0.0860  0.5874  0.3757
  142OSM    H2F15510   5.453   7.436   2.818 -1.3649  0.5122  0.0198
  142OSM    H2G15511   5.528   7.355   2.960  1.5111  1.3307 -2.2486
  142OSM    C3F15512   5.340   7.472   2.998  0.9311  0.2197  0.3212
  142OSM    H3F15513   5.306   7.413   3.086 -1.2481  0.1158 -0.5249
  142OSM    H3G15514   5.246   7.494   2.943  1.3415  0.5667 -0.2491
  142OSM    C4F15515   5.413   7.590   3.048 -0.6839 -0.1286  0.5953
  142OSM    H4F15516   5.441   7.649   2.958  0.2410 -1.0517  0.2569
  142OSM    H4G15517   5.516   7.574   3.086 -0.4848  1.2087  0.6530
  142OSM    C5F15518   5.336   7.672   3.150  0.5540 -0.4371 -0.3745
  142OSM    H5F15519   5.254   7.615   3.199 -1.0644  1.0712 -1.1896
  142OSM    H5G15520   5.286   7.762   3.108  1.4163  0.8057  1.1321
  142OSM    C6F15521   5.429   7.717   3.265 -0.1779  0.1233  0.0153
  142OSM    H6F15522   5.506   7.792   3.237  0.5357 -0.4969  0.2909
  142OSM    H6G15523   5.482   7.622   3.286 -2.6125 -1.4095 -0.2907
  142OSM    C7F15524   5.358   7.769   3.386 -0.1943  0.0971 -1.6318
  142OSM    H7F15525   5.271   7.705   3.411  0.6852 -0.8128 -0.8124
  142OSM    H7G15526   5.325   7.873   3.369 -0.6784  0.1116 -0.6396
  142OSM    C8F15527   5.449   7.776   3.508 -0.1118 -0.9230 -0.6866
  142OSM    H8F15528   5.526   7.854   3.487 -0.5903 -1.4326 -5.4735
  142OSM    H8G15529   5.507   7.683   3.526 -0.7206 -1.4054 -1.1763
  142OSM    C9F15530   5.365   7.826   3.628 -0.4487  0.1103  0.4327
  142OSM    H9F15531   5.286   7.900   3.611 -1.5952 -1.3015 -0.6229
  142OSM   C10F15532   5.403   7.809   3.755 -0.0908 -0.7401  1.1753
  142OSM   H10F15533   5.345   7.851   3.838  0.5816  2.1414  0.2850
  142OSM   C11F15534   5.518   7.717   3.806 -0.0718  0.2436  0.1654
  142OSM   H11F15535   5.577   7.662   3.730 -0.1319 -0.1932  0.4275
  142OSM   H11G15536   5.462   7.641   3.864  0.1363  2.4234  3.5118
  142OSM   C12F15537   5.626   7.774   3.897 -0.1807  0.0484 -0.8527
  142OSM   H12F15538   5.676   7.867   3.861 -1.1911  0.5217 -1.0779
  142OSM   H12G15539   5.704   7.697   3.912 -1.5283 -0.8533  2.2017
  142OSM   C13F15540   5.584   7.794   4.047  0.3343  0.0866 -0.7087
  142OSM   H13F15541   5.516   7.719   4.094  0.7083  0.4489  0.4389
  142OSM   H13G15542   5.515   7.881   4.045  0.9386  0.5608 -0.9100
  142OSM   C14F15543   5.695   7.804   4.145  0.6815  0.0842  0.0243
  142OSM   H14F15544   5.752   7.898   4.128  1.0663 -0.1331  0.1071
  142OSM   H14G15545   5.762   7.716   4.141  2.3889  1.3797 -2.1984
  142OSM   C15F15546   5.643   7.818   4.287  0.3125  0.4805 -0.7439
  142OSM   H15F15547   5.731   7.835   4.353 -1.4394  0.5536  1.7291
  142OSM   H15G15548   5.591   7.729   4.328  0.7871  1.3658  1.9988
  142OSM   C16F15549   5.546   7.936   4.321  1.4255  0.1605  0.0374
  142OSM   H16F15550   5.460   7.925   4.252  1.9096  1.3459 -0.7895
  142OSM   H16G15551   5.595   8.033   4.298  0.5959  0.0209 -2.6332
  142OSM   C17F15552   5.500   7.931   4.467  0.2907 -0.4412 -0.8685
  142OSM   H17F15553   5.417   7.857   4.472 -0.5228  0.4520 -0.8193
  142OSM   H17G15554   5.460   8.024   4.514 -0.0482 -1.3677  0.7298
  142OSM   C18F15555   5.610   7.894   4.571  0.8307  0.3887  0.0995
  142OSM   H18F15556   5.564   7.895   4.673  0.1437  1.6488 -0.2008
  142OSM   H18G15557   5.703   7.954   4.559  0.5810  0.4285 -1.9257
  142OSM   H18H15558   5.636   7.787   4.560  0.1165  0.2583 -0.4605
  143OSM      N15559   3.946   6.623   2.757  0.0599 -0.9842  0.3920
  143OSM    C1515560   3.932   6.775   2.744  0.1753 -0.1831 -0.4627
  143OSM   H15A15561   4.033   6.812   2.756 -0.3189  0.8593  0.8948
  143OSM   H15B15562   3.875   6.813   2.828  0.3677 -0.8282 -0.0330
  143OSM   H15C15563   3.891   6.811   2.651 -0.2215  1.3746  0.2654
  143OSM    C1415564   3.812   6.560   2.748 -0.5048  0.0612  0.0336
  143OSM   H14A15565   3.818   6.452   2.742  1.2777  0.2273 -2.6508
  143OSM   H14B15566   3.763   6.582   2.655  1.1318 -1.3873 -1.2222
  143OSM   H14C15567   3.744   6.594   2.825 -1.8813  1.2357 -1.6346
  143OSM    C1315568   4.023   6.585   2.637 -0.0924 -0.3208  0.1217
  143OSM   H13A15569   3.963   6.576   2.548 -0.1469  0.2286  0.0968
  143OSM   H13B15570   4.066   6.491   2.667  0.4425 -0.2805 -0.4906
  143OSM   H13C15571   4.101   6.657   2.617  0.7868 -1.8360 -2.3989
  143OSM    C1215572   4.023   6.589   2.887 -0.9152 -0.7561  0.6340
  143OSM   H12A15573   4.045   6.483   2.887  1.4118 -0.5269 -3.9327
  143OSM   H12B15574   3.958   6.612   2.970 -0.0066  0.2290  1.0872
  143OSM    C1115575   4.159   6.652   2.933 -0.1360 -0.2411 -0.0605
  143OSM   H11A15576   4.183   6.619   3.037 -1.0614  1.9442  0.9286
  143OSM   H11B15577   4.150   6.763   2.937  2.1047  0.3179 -4.7188
  143OSM      P15578   4.345   6.501   2.830  0.4479  0.0733 -0.1571
  143OSM    O1315579   4.248   6.389   2.849  0.4928 -0.6103  0.0011
  143OSM    O1415580   4.415   6.497   2.700 -0.4110  0.5959  0.6166
  143OSM    O1115581   4.453   6.493   2.948 -0.5680  0.1275 -0.1731
  143OSM    O1215582   4.268   6.639   2.845  0.2409  0.1755 -0.4454
  143OSM    C1S15583   4.544   6.598   2.990  0.2005  0.4223  0.3561
  143OSM    H1S15584   4.518   6.691   2.935  0.1795  1.7449  2.4865
  143OSM    H1T15585   4.650   6.572   2.969  0.1722  0.7806 -0.2465
  143OSM     NF15586   4.597   6.759   3.170 -0.3093  0.5106 -0.2009
  143OSM    HNF15587   4.682   6.743   3.221  0.7116  3.6755 -0.7076
  143OSM    C2S15588   4.531   6.635   3.142  0.3086  0.3924 -0.3446
  143OSM    H2S15589   4.421   6.649   3.152 -0.0882 -1.6622 -1.3639
  143OSM    C3S15590   4.567   6.513   3.231 -0.2609 -0.2147 -0.2241
  143OSM    H3S15591   4.677   6.501   3.234 -0.0679  1.4429  0.4006
  143OSM     O315592   4.514   6.386   3.189  0.1021 -0.8940  0.0334
  143OSM    HO315593   4.478   6.411   3.104 -0.7486  1.4665  1.0059
  143OSM    C4S15594   4.516   6.550   3.370  0.0074 -0.2096 -0.0177
  143OSM    H4S15595   4.589   6.594   3.440 -0.3003  1.4008 -0.6776
  143OSM    C5S15596   4.390   6.536   3.411  0.0903  0.1520 -0.5069
  143OSM    H5S15597   4.322   6.478   3.347  1.3989 -2.1829  0.0829
  143OSM    C6S15598   4.342   6.571   3.551 -0.4658 -0.5622 -1.2616
  143OSM    H6S15599   4.247   6.513   3.555 -1.5459  1.1907  1.3441
  143OSM    H6T15600   4.313   6.678   3.559  1.1783  0.0221 -2.4276
  143OSM    C7S15601   4.433   6.536   3.679  0.0331  0.0835  0.6120
  143OSM    H7S15602   4.525   6.599   3.678  0.7520 -0.9360  1.1586
  143OSM    H7T15603   4.467   6.431   3.667  1.7743  0.6907 -0.1603
  143OSM    C8S15604   4.358   6.552   3.814  0.1141 -0.2256  0.2159
  143OSM    H8S15605   4.276   6.477   3.821 -2.9241  2.5971 -2.0722
  143OSM    H8T15606   4.311   6.653   3.824  1.5930  0.2750  3.9915
  143OSM    C9S15607   4.431   6.562   3.951  0.0095 -0.1804  0.2178
  143OSM    H9S15608   4.485   6.659   3.950 -2.2693  1.1679 -0.8202
  143OSM    H9T15609   4.513   6.488   3.959 -1.5931 -2.2180 -1.1181
  143OSM   C10S15610   4.337   6.554   4.065  0.2540 -0.2445 -0.1956
  143OSM   H10S15611   4.320   6.446   4.086  1.8893 -0.2519  1.3731
  143OSM   H10T15612   4.244   6.611   4.044  0.7587  0.9032  0.5749
  143OSM   C11S15613   4.387   6.607   4.199  0.0831  0.2156  0.4292
  143OSM   H11S15614   4.418   6.714   4.195  2.2900 -0.3914 -0.0251
  143OSM   H11T15615   4.485   6.560   4.224  0.6313  1.8248  1.5030
  143OSM   C12S15616   4.291   6.591   4.311 -0.0020  0.2043 -0.2677
  143OSM   H12S15617   4.255   6.487   4.328  0.0931  0.6237  3.2168
  143OSM   H12T15618   4.191   6.635   4.292 -0.0465 -0.2260 -1.0453
  143OSM   C13S15619   4.345   6.661   4.441 -0.7451  0.2600 -0.4811
  143OSM   H13S15620   4.348   6.768   4.411 -0.4434  0.0770 -1.1217
  143OSM   H13T15621   4.448   6.627   4.461 -0.8055  0.0715 -0.4893
  143OSM   C14S15622   4.253   6.627   4.554  0.0766 -0.0379 -0.4884
  143OSM   H14S15623   4.253   6.519   4.578  0.5249 -0.0866 -0.6794
  143OSM   H14T15624   4.151   6.667   4.540 -0.4412 -0.8048  0.8736
  143OSM   C15S15625   4.293   6.716   4.672  0.1996 -0.3794 -0.4813
  143OSM   H15S15626   4.299   6.824   4.644 -0.2082 -0.5718 -1.3403
  143OSM   H15T15627   4.398   6.685   4.692 -0.1692 -0.7438  1.0745
  143OSM   C16S15628   4.200   6.704   4.793 -0.2401 -0.7542  0.0563
  143OSM   H16S15629   4.246   6.756   4.880  1.5987 -2.2779  0.0562
  143OSM   H16T15630   4.178   6.601   4.826 -2.0759 -0.3582  0.1613
  143OSM   C17S15631   4.072   6.779   4.782  0.5573 -1.2380 -0.3579
  143OSM   H17S15632   4.014   6.740   4.695 -2.3708  0.9295  0.4524
  143OSM   H17T15633   4.092   6.887   4.762 -0.3079 -1.1624 -0.9024
  143OSM   C18S15634   3.979   6.771   4.910 -0.3349 -0.2321 -0.3771
  143OSM   H18S15635   4.023   6.831   4.993 -1.0426 -0.0335 -0.1407
  143OSM   H18T15636   3.973   6.662   4.929  0.2520 -0.1487  0.3386
  143OSM   H18U15637   3.885   6.828   4.898  0.4465  1.3572  0.7139
  143OSM    C1F15638   4.552   6.875   3.141  0.1213 -0.3013 -0.3451
  143OSM     OF15639   4.435   6.891   3.100 -0.5353 -0.5161 -0.8471
  143OSM    C2F15640   4.648   6.990   3.152  0.3840 -0.5116 -0.7367
  143OSM    H2F15641   4.706   7.014   3.060  2.3209 -0.0568  0.5523
  143OSM    H2G15642   4.729   6.963   3.223  0.7522  2.4743  0.0987
  143OSM    C3F15643   4.564   7.106   3.211 -0.1773 -0.3488  0.4489
  143OSM    H3F15644   4.477   7.128   3.146 -2.4926 -1.2435  3.0647
  143OSM    H3G15645   4.633   7.193   3.223  0.6839 -0.9577 -0.0139
  143OSM    C4F15646   4.515   7.080   3.355 -0.2261 -0.9807 -0.7254
  143OSM    H4F15647   4.456   6.986   3.361  0.3159 -1.2946 -0.2998
  143OSM    H4G15648   4.451   7.161   3.397 -1.4714 -1.6100 -1.3283
  143OSM    C5F15649   4.627   7.060   3.454  0.1328  0.1448  0.1316
  143OSM    H5F15650   4.713   7.122   3.423  0.3333 -1.2601 -2.3933
  143OSM    H5G15651   4.649   6.951   3.454  1.1999  0.2651 -2.9546
  143OSM    C6F15652   4.590   7.085   3.603  0.2938 -0.0371 -0.8626
  143OSM    H6F15653   4.548   7.184   3.629  2.8248  0.7967  0.3455
  143OSM    H6G15654   4.674   7.063   3.672 -0.1512 -1.1834 -0.6638
  143OSM    C7F15655   4.481   6.991   3.653  0.1854 -0.6001 -0.6437
  143OSM    H7F15656   4.508   6.894   3.605  1.4806 -0.9718  0.7805
  143OSM    H7G15657   4.384   7.013   3.602 -0.2020 -1.5554 -0.3489
  143OSM    C8F15658   4.468   6.974   3.805 -0.3534  0.3703  0.1730
  143OSM    H8F15659   4.563   6.945   3.855 -0.5064  2.8105  2.0639
  143OSM    H8G15660   4.400   6.888   3.818  1.6847 -0.8327  4.6292
  143OSM    C9F15661   4.417   7.107   3.849 -0.0454 -0.5004  0.4571
  143OSM    H9F15662   4.336   7.157   3.794 -0.0558 -0.8260  0.1728
  143OSM   C10F15663   4.460   7.178   3.950 -0.3939  0.2847 -0.5899
  143OSM   H10F15664   4.413   7.277   3.950  0.6067  0.7876 -2.0112
  143OSM   C11F15665   4.567   7.146   4.054 -0.0483 -0.1264 -0.1204
  143OSM   H11F15666   4.573   7.230   4.127 -0.9582 -0.8001  0.7672
  143OSM   H11G15667   4.663   7.131   4.000 -0.8772  0.4595 -1.8250
  143OSM   C12F15668   4.530   7.024   4.138 -0.7633 -0.8091  0.0531
  143OSM   H12F15669   4.614   6.990   4.203 -1.4835  0.3913  1.6622
  143OSM   H12G15670   4.511   6.936   4.073  0.5408 -1.8564  1.0277
  143OSM   C13F15671   4.412   7.051   4.243 -0.0845 -0.4171  0.5366
  143OSM   H13F15672   4.389   6.949   4.282 -1.7162  0.6509  2.5337
  143OSM   H13G15673   4.325   7.095   4.190  0.2882 -0.0029  0.2687
  143OSM   C14F15674   4.468   7.134   4.362  0.0340  0.1489 -0.1453
  143OSM   H14F15675   4.480   7.241   4.336  0.2258  0.3694  0.7905
  143OSM   H14G15676   4.567   7.089   4.387  0.0954 -0.5415 -1.5428
  143OSM   C15F15677   4.369   7.134   4.490  0.2421 -0.3020  0.0602
  143OSM   H15F15678   4.336   7.028   4.492 -0.3641 -0.1262 -0.2852
  143OSM   H15G15679   4.282   7.196   4.460  1.3505 -0.0207 -2.9761
  143OSM   C16F15680   4.442   7.177   4.615  0.2105 -0.2196 -0.0089
  143OSM   H16F15681   4.547   7.139   4.610  0.3533  0.2215 -0.4275
  143OSM   H16G15682   4.389   7.123   4.696 -1.0263 -1.6191 -1.6813
  143OSM   C17F15683   4.449   7.335   4.642 -0.2132  1.2521 -0.6352
  143OSM   H17F15684   4.349   7.374   4.614 -0.6600  1.0943  0.6593
  143OSM   H17G15685   4.533   7.369   4.578  1.3682 -0.5536  0.3660
  143OSM   C18F15686   4.481   7.366   4.785  0.2223 -0.0097 -0.2790
  143OSM   H18F15687   4.573   7.308   4.803  0.3290 -0.5135 -2.2070
  143OSM   H18G15688   4.408   7.343   4.866  0.1842 -0.6305 -0.4843
  143OSM   H18H15689   4.494   7.476   4.793 -4.0188  0.6465  0.2028
  144OSM      N15690   3.353   0.054   2.701 -0.1226 -0.4530  0.0408
  144OSM    C1515691   3.231   0.141   2.708 -0.3787  0.1662 -0.0995
  144OSM   H15A15692   3.190   0.160   2.610  0.3154 -1.5437 -0.7651
  144OSM   H15B15693   3.248   0.239   2.750  2.3192  0.1469 -0.9981
  144OSM   H15C15694   3.155   0.091   2.767  0.0112 -0.4300 -0.0889
  144OSM    C1415695   3.324  -0.070   2.626 -0.3620  0.1719  0.6099
  144OSM   H14A15696   3.297  -0.054   2.523 -0.7414 -2.6454  0.1802
  144OSM   H14B15697   3.242  -0.119   2.678  0.5248 -1.5665  0.4318
  144OSM   H14C15698   3.404  -0.141   2.612 -0.0499  0.0388  2.6595
  144OSM    C1315699   3.451   0.132   2.618 -0.2159 -0.4465 -0.1013
  144OSM   H13A15700   3.529   0.062   2.593 -0.0866 -0.0870 -0.7058
  144OSM   H13B15701   3.479   0.216   2.680 -2.0411 -0.4090  0.7427
  144OSM   H13C15702   3.415   0.170   2.524 -0.4087 -1.8576 -0.6265
  144OSM    C1215703   3.405   0.023   2.837 -0.5370 -0.1389 -0.8370
  144OSM   H12A15704   3.340  -0.047   2.888 -0.9571  1.5597  1.0674
  144OSM   H12B15705   3.406   0.116   2.891  0.5442  0.4588 -1.8338
  144OSM    C1115706   3.551  -0.026   2.840 -0.5395 -0.0306  0.2976
  144OSM   H11A15707   3.555  -0.088   2.747  0.8077  0.0514  0.2745
  144OSM   H11B15708   3.571  -0.091   2.928 -0.1679 -1.3331 -0.7044
  144OSM      P15709   3.708   0.157   2.931  0.1722 -0.3991  0.2582
  144OSM    O1315710   3.815   0.250   2.875 -0.1854  0.0209 -0.8994
  144OSM    O1415711   3.604   0.226   3.012  0.0932  0.1854  0.0730
  144OSM    O1115712   3.772   0.052   3.024 -0.0522  0.7025  0.7554
  144OSM    O1215713   3.650   0.076   2.812  0.0980 -0.0192 -0.0529
  144OSM    C1S15714   3.843   0.090   3.140 -1.1169 -0.1589 -0.0245
  144OSM    H1S15715   3.825   0.195   3.173  0.6047  0.1484  0.0331
  144OSM    H1T15716   3.953   0.087   3.123 -0.9497  1.5270  0.6146
  144OSM     NF15717   3.909   0.038   3.370 -0.3529 -0.1491 -0.3199
  144OSM    HNF15718   4.005   0.013   3.375  0.6835  3.2385 -0.6404
  144OSM    C2S15719   3.822  -0.009   3.262 -0.3880  0.0693  0.5554
  144OSM    H2S15720   3.715  -0.005   3.294  0.2059 -0.7428  2.7932
  144OSM    C3S15721   3.862  -0.156   3.220  0.4748 -0.4527 -0.6478
  144OSM    H3S15722   3.967  -0.159   3.185  0.2533 -0.6826 -1.3005
  144OSM     O315723   3.774  -0.210   3.121 -0.0514 -0.1089 -0.5820
  144OSM    HO315724   3.725  -0.138   3.080  0.0496 -0.0542 -0.6083
  144OSM    C4S15725   3.842  -0.246   3.341  0.6913  0.2419 -0.2033
  144OSM    H4S15726   3.734  -0.255   3.364 -0.0965  0.8484 -3.2466
  144OSM    C5S15727   3.939  -0.301   3.417  0.5843 -0.4279  0.3977
  144OSM    H5S15728   4.045  -0.286   3.393  0.2856 -0.8430 -1.3547
  144OSM    C6S15729   3.914  -0.402   3.522  0.8127  0.4373 -0.7081
  144OSM    H6S15730   3.978  -0.492   3.509 -0.4557 -1.0703  2.4375
  144OSM    H6T15731   3.808  -0.437   3.521  0.6177  1.0008 -0.2707
  144OSM    C7S15732   3.947  -0.340   3.656 -0.1111  0.4927  0.1894
  144OSM    H7S15733   3.874  -0.260   3.676 -1.5220 -0.9986  1.3134
  144OSM    H7T15734   4.049  -0.297   3.662 -0.3847  1.0463  0.9354
  144OSM    C8S15735   3.927  -0.430   3.778  0.1889 -0.6131  0.1035
  144OSM    H8S15736   4.016  -0.496   3.789 -1.8567 -3.0650  4.3529
  144OSM    H8T15737   3.832  -0.488   3.773  0.1686 -0.7532  1.8160
  144OSM    C9S15738   3.931  -0.356   3.916  0.3866 -0.2823 -0.7808
  144OSM    H9S15739   3.850  -0.280   3.919  0.8889  0.4346 -2.9552
  144OSM    H9T15740   4.025  -0.300   3.932  0.7358 -0.7505 -1.1702
  144OSM   C10S15741   3.935  -0.463   4.038 -0.4195  0.2799  0.6763
  144OSM   H10S15742   4.026  -0.527   4.028 -0.8884 -0.1582 -1.2115
  144OSM   H10T15743   3.841  -0.522   4.030 -0.0156 -0.2335 -0.4637
  144OSM   C11S15744   3.929  -0.399   4.175  0.7917  0.2531 -0.4798
  144OSM   H11S15745   3.842  -0.331   4.186  0.6949  0.2230 -1.0133
  144OSM   H11T15746   4.016  -0.332   4.186  0.4622  0.7506 -0.8653
  144OSM   C12S15747   3.942  -0.497   4.300 -0.1702  0.2094 -0.0389
  144OSM   H12S15748   4.033  -0.560   4.290  0.6880  1.3117  0.5951
  144OSM   H12T15749   3.863  -0.572   4.279  2.4578 -2.1607 -2.1261
  144OSM   C13S15750   3.940  -0.429   4.435  0.0103  0.2415  0.3137
  144OSM   H13S15751   3.839  -0.386   4.456 -0.5768 -1.0843  0.3056
  144OSM   H13T15752   4.016  -0.350   4.455 -0.0310  0.8538 -1.7000
  144OSM   C14S15753   3.958  -0.535   4.545  0.3370 -0.2291 -0.2021
  144OSM   H14S15754   3.963  -0.469   4.634 -0.8205  0.4480 -0.6173
  144OSM   H14T15755   4.064  -0.567   4.534  0.1490 -0.7483 -0.6082
  144OSM   C15S15756   3.855  -0.647   4.557 -0.1837 -0.6854 -0.1405
  144OSM   H15S15757   3.865  -0.721   4.474 -1.0551 -0.5526 -0.3735
  144OSM   H15T15758   3.754  -0.602   4.550 -0.7024 -2.0011 -2.5255
  144OSM   C16S15759   3.858  -0.704   4.695  0.5931  0.5515  0.5141
  144OSM   H16S15760   3.833  -0.632   4.775 -1.0330  1.0687 -0.4292
  144OSM   H16T15761   3.960  -0.746   4.709  0.3112 -1.1829 -1.9221
  144OSM   C17S15762   3.766  -0.828   4.700  0.0866  0.1893 -0.5306
  144OSM   H17S15763   3.785  -0.900   4.618  2.3348 -0.0337  0.1228
  144OSM   H17T15764   3.658  -0.803   4.696 -0.4166 -1.0609  2.7014
  144OSM   C18S15765   3.777  -0.899   4.833  0.2726 -0.8304 -0.3344
  144OSM   H18S15766   3.752  -0.820   4.908  0.3992  1.5292 -2.6515
  144OSM   H18T15767   3.885  -0.919   4.848  0.4613  0.7338  0.6439
  144OSM   H18U15768   3.712  -0.988   4.848  0.2639 -0.4095  2.7712
  144OSM    C1F15769   3.873   0.148   3.436  0.0043  0.4397 -0.2107
  144OSM     OF15770   3.755   0.182   3.431 -0.4028 -0.4662 -0.2091
  144OSM    C2F15771   3.969   0.240   3.509 -0.0621  0.0108  0.2205
  144OSM    H2F15772   3.907   0.330   3.526  0.3033  0.4338 -0.6459
  144OSM    H2G15773   4.045   0.278   3.437  1.1950  0.5717  1.7726
  144OSM    C3F15774   4.029   0.187   3.643 -0.4005 -0.7408  0.2385
  144OSM    H3F15775   4.100   0.266   3.676 -0.2771  0.1771 -2.0420
  144OSM    H3G15776   4.078   0.088   3.629  0.6457 -0.4491  1.6289
  144OSM    C4F15777   3.932   0.167   3.753  0.0904 -0.2449  0.3856
  144OSM    H4F15778   3.867   0.081   3.726 -1.3198  1.1416 -0.8301
  144OSM    H4G15779   3.859   0.252   3.759 -2.0579 -2.0093  0.6050
  144OSM    C5F15780   4.006   0.140   3.886 -0.0985 -0.3966  0.1973
  144OSM    H5F15781   4.062   0.233   3.907  0.7029  0.0370 -3.1655
  144OSM    H5G15782   4.083   0.061   3.871 -0.7891 -0.8218 -1.3958
  144OSM    C6F15783   3.905   0.079   3.984  0.3486 -0.3256  0.3725
  144OSM    H6F15784   3.862  -0.018   3.950  0.3769  0.1685 -1.1450
  144OSM    H6G15785   3.821   0.148   4.006  0.9345  0.7799 -0.7514
  144OSM    C7F15786   3.977   0.058   4.112  0.0077  0.4850 -0.3668
  144OSM    H7F15787   4.032   0.149   4.141  1.4235 -0.4683  0.0493
  144OSM    H7G15788   4.055  -0.020   4.099 -0.8773 -0.8975  1.8183
  144OSM    C8F15789   3.877   0.007   4.223 -0.8687 -0.0776  0.2201
  144OSM    H8F15790   3.833  -0.095   4.219 -0.8819 -0.0525 -0.2625
  144OSM    H8G15791   3.788   0.074   4.212  1.6164  3.3487 -0.5243
  144OSM    C9F15792   3.940   0.028   4.361 -0.1110  1.0601 -0.2420
  144OSM    H9F15793   4.010  -0.053   4.385  0.7877  1.8292 -0.2255
  144OSM   C10F15794   3.912   0.125   4.446 -0.0995  0.2937 -0.4109
  144OSM   H10F15795   3.968   0.130   4.540 -2.1099  3.3096  0.8189
  144OSM   C11F15796   3.812   0.236   4.421 -0.3287  0.6568 -0.3052
  144OSM   H11F15797   3.712   0.191   4.403  0.0920 -1.1882  1.5645
  144OSM   H11G15798   3.839   0.285   4.325  0.7749 -0.4883 -0.5965
  144OSM   C12F15799   3.778   0.338   4.539 -0.1113  0.3047  0.7752
  144OSM   H12F15800   3.737   0.426   4.487  0.1550  0.4433  0.7991
  144OSM   H12G15801   3.869   0.375   4.591 -1.0523  3.1670  0.5205
  144OSM   C13F15802   3.691   0.281   4.654  0.4680  1.2393  0.3252
  144OSM   H13F15803   3.759   0.218   4.716  1.4230  0.2236 -1.6693
  144OSM   H13G15804   3.608   0.219   4.614  0.7283  0.3849  1.0787
  144OSM   C14F15805   3.629   0.395   4.734  0.1313  0.5994 -0.4364
  144OSM   H14F15806   3.570   0.469   4.676  1.0417  2.7813  1.2529
  144OSM   H14G15807   3.711   0.451   4.785 -0.6153  2.3858 -1.1262
  144OSM   C15F15808   3.520   0.354   4.841 -0.3063  0.0831  0.4244
  144OSM   H15F15809   3.495   0.438   4.909  0.8493 -0.5323  1.6506
  144OSM   H15G15810   3.549   0.276   4.915 -3.1599 -1.0383  0.5119
  144OSM   C16F15811   3.380   0.314   4.772 -0.1585  0.1340 -0.6244
  144OSM   H16F15812   3.342   0.222   4.822  0.7285  0.2418  0.2919
  144OSM   H16G15813   3.400   0.277   4.670  0.5052 -2.5628  0.3933
  144OSM   C17F15814   3.281   0.429   4.771 -0.3280 -0.0067 -0.0225
  144OSM   H17F15815   3.329   0.528   4.760  0.7288 -0.1177  2.6932
  144OSM   H17G15816   3.243   0.434   4.876  1.7393 -0.6241  0.8043
  144OSM   C18F15817   3.161   0.420   4.669 -0.1378  0.0406 -0.0275
  144OSM   H18F15818   3.085   0.497   4.695 -1.2555 -1.1223  0.3179
  144OSM   H18G15819   3.104   0.325   4.685 -0.7619 -0.0541 -2.4138
  144OSM   H18H15820   3.186   0.435   4.562  3.7333  1.6558  0.9657
  145SAPE     N15821   6.594   2.988   7.477  0.4324 -1.2214 -0.1450
  145SAPE   HN115822   6.560   3.036   7.391  0.7518 -2.5678 -1.0565
  145SAPE   HN215823   6.586   2.886   7.461  1.7928 -1.5132  0.8436
  145SAPE   HN315824   6.548   3.025   7.563 -1.5104 -1.8572 -0.8579
  145SAPE   C1215825   6.742   3.016   7.493  0.4543  0.4383  0.6021
  145SAPE  H12A15826   6.780   2.941   7.566 -0.1589  0.9058  1.4137
  145SAPE  H12B15827   6.763   3.119   7.529  2.3555  1.4151 -2.8506
  145SAPE   C1115828   6.808   2.982   7.355 -0.8860 -0.4287  0.6629
  145SAPE  H11A15829   6.918   3.000   7.355 -0.2549 -3.2715 -2.4524
  145SAPE  H11B15830   6.766   3.054   7.280 -1.9237  0.4498  2.0364
  145SAPE     P15831   6.870   2.738   7.304  0.0786 -0.1153  0.0069
  145SAPE   O1315832   6.920   2.722   7.442  0.2861 -0.2421  0.2105
  145SAPE   O1415833   6.806   2.623   7.227  0.0430  0.1782  0.8715
  145SAPE   O1215834   6.768   2.859   7.313 -0.3654  0.3291 -0.3398
  145SAPE   O1115835   6.990   2.797   7.230 -0.0370  0.7454  0.9778
  145SAPE    C115836   6.994   2.811   7.088 -0.1827  0.0840  0.4274
  145SAPE    HA15837   7.023   2.719   7.033 -2.6830  0.1793 -1.2099
  145SAPE    HB15838   6.891   2.828   7.049 -0.0859 -0.0728  0.1015
  145SAPE    C215839   7.072   2.934   7.046  0.4745 -0.1216 -0.0708
  145SAPE    HS15840   7.177   2.906   7.072  0.4737 -1.2863 -1.1668
  145SAPE   O2115841   7.018   3.049   7.113  0.2577 -0.2681  0.4025
  145SAPE   C2115842   7.110   3.147   7.112 -0.2080  0.4541  0.1026
  145SAPE   O2215843   7.220   3.135   7.064 -0.6417  0.1835 -0.4808
  145SAPE   C2215844   7.074   3.262   7.212 -0.1024  1.0179 -0.7520
  145SAPE   H2R15845   6.971   3.289   7.182 -1.3941 -2.6143 -0.0509
  145SAPE   H2S15846   7.079   3.222   7.315 -2.4979  1.1900 -0.5285
  145SAPE    C315847   7.060   2.951   6.886 -0.8315 -0.4032 -0.7085
  145SAPE    HX15848   7.133   3.024   6.845 -1.9652 -0.5789 -3.2348
  145SAPE    HY15849   6.965   3.005   6.865 -0.4404  1.0612  1.1362
  145SAPE   O3115850   7.072   2.829   6.802 -0.2551  0.3166 -0.3189
  145SAPE   C3115851   7.205   2.793   6.788  0.0544 -0.5576 -0.5218
  145SAPE   O3215852   7.293   2.858   6.847  0.1259  0.2983 -0.0548
  145SAPE   C3215853   7.214   2.676   6.687 -0.2957  0.1230 -0.3281
  145SAPE   H2X15854   7.119   2.626   6.657 -0.2507  0.2420 -0.6839
  145SAPE   H2Y15855   7.278   2.599   6.733  0.8179  1.3842  0.2904
  145SAPE   C2315856   7.182   3.373   7.217  0.1130  0.2659  1.0132
  145SAPE   H3R15857   7.273   3.316   7.245  0.0057 -1.1854 -1.3495
  145SAPE   H3S15858   7.161   3.449   7.296 -2.6192  2.0114 -1.2306
  145SAPE   C2415859   7.190   3.464   7.094 -0.4618  0.2523 -0.2989
  145SAPE   H4R15860   7.232   3.404   7.010 -1.1825  0.9614 -1.1946
  145SAPE   H4S15861   7.267   3.542   7.105 -0.8359  0.3857  1.8341
  145SAPE   C2515862   7.062   3.532   7.054  0.0112  0.6251  0.1119
  145SAPE   H5R15863   7.027   3.616   7.117  2.0528  0.5056  1.5148
  145SAPE   C2615864   6.989   3.514   6.942  0.4869  0.3521  0.3134
  145SAPE   H6R15865   6.893   3.566   6.924 -0.3024 -1.1147  0.1342
  145SAPE   C2715866   7.028   3.427   6.829 -0.7811  0.1530 -0.7643
  145SAPE   H7R15867   6.945   3.357   6.809  0.2453 -2.2999  2.6443
  145SAPE   H7S15868   7.104   3.354   6.862  0.3014  1.7149  0.3673
  145SAPE   C2815869   7.088   3.497   6.709  0.0230  0.3111 -0.1519
  145SAPE   H8R15870   7.034   3.578   6.657  2.7572  2.3507 -0.0303
  145SAPE   C2915871   7.211   3.482   6.660  0.1971 -0.0369  0.1524
  145SAPE   H9R15872   7.236   3.535   6.567 -2.7871 -0.0976 -0.7830
  145SAPE  C21015873   7.311   3.378   6.702 -0.0675 -0.1770  0.1504
  145SAPE  H10R15874   7.330   3.381   6.812  0.5643 -3.5031  0.2430
  145SAPE  H10S15875   7.406   3.399   6.649 -0.6719  0.5466 -0.6636
  145SAPE  C21115876   7.270   3.242   6.667  0.1936  0.1757 -0.2501
  145SAPE  H11R15877   7.167   3.208   6.688  1.4490 -3.6763  0.4788
  145SAPE  C21215878   7.344   3.143   6.621  0.1439  0.0350  1.2621
  145SAPE  H12R15879   7.299   3.044   6.609  2.2099 -0.8360  0.2416
  145SAPE  C21315880   7.484   3.155   6.578 -1.1439 -0.4817 -0.5233
  145SAPE  H13R15881   7.552   3.169   6.664 -0.6561  0.3660 -1.0308
  145SAPE  H13S15882   7.497   3.248   6.519 -0.1351 -0.8700 -0.9488
  145SAPE  C21415883   7.530   3.035   6.500  0.4613  0.2136 -0.0203
  145SAPE  H14R15884   7.563   2.950   6.562 -0.9553  0.5393  1.2313
  145SAPE  C21515885   7.542   3.029   6.366  0.4418  0.3990  0.3540
  145SAPE  H15R15886   7.585   2.939   6.319 -0.7982 -0.6116  1.0819
  145SAPE  C21615887   7.490   3.138   6.277  0.2600  0.0536  0.2103
  145SAPE  H16R15888   7.583   3.192   6.249  0.4360 -1.3573 -2.2500
  145SAPE  H16S15889   7.414   3.205   6.322 -0.4389 -1.7696  1.9040
  145SAPE  C21715890   7.439   3.074   6.144  0.6597 -0.5897  0.7781
  145SAPE  H17R15891   7.345   3.017   6.162  0.6590  0.0515  3.2504
  145SAPE  H17S15892   7.524   3.014   6.107  0.7445 -0.3443  0.5732
  145SAPE  C21815893   7.416   3.190   6.030 -0.1467 -0.1787 -0.1446
  145SAPE  H18R15894   7.492   3.271   6.035 -2.8882  2.5844  0.0772
  145SAPE  H18S15895   7.325   3.247   6.061 -0.2139 -1.6301  2.6429
  145SAPE  C21915896   7.415   3.136   5.892  0.7139  0.1587 -0.2030
  145SAPE  H19R15897   7.354   3.043   5.891  0.3691  0.3587  0.9958
  145SAPE  H19S15898   7.517   3.097   5.871  0.4572 -1.0168  0.6880
  145SAPE  C22015899   7.367   3.242   5.785 -0.4238  0.4886 -0.6851
  145SAPE  H20R15900   7.403   3.344   5.813  1.2590 -0.9492  3.0478
  145SAPE  H20S15901   7.256   3.237   5.781 -0.3463 -1.0018 -2.6099
  145SAPE  H20T15902   7.390   3.222   5.678 -0.1787  0.1537 -0.5697
  145SAPE   C3315903   7.278   2.725   6.552  0.2546 -0.6520 -0.9198
  145SAPE   H3X15904   7.373   2.783   6.563 -0.3028  0.1849 -0.3873
  145SAPE   H3Y15905   7.216   2.802   6.501 -0.9905 -2.1265 -1.6877
  145SAPE   C3415906   7.298   2.602   6.458  0.3341  0.1056  0.0091
  145SAPE   H4X15907   7.200   2.586   6.408  0.0911 -1.4364  0.9288
  145SAPE   H4Y15908   7.325   2.511   6.516 -1.1366  0.4475  1.3174
  145SAPE   C3515909   7.415   2.628   6.352 -0.2441  0.1497  0.0662
  145SAPE   H5X15910   7.456   2.529   6.320  0.8318 -0.0233  1.8098
  145SAPE   H5Y15911   7.501   2.686   6.392  0.6320 -1.2681  0.3335
  145SAPE   C3615912   7.348   2.702   6.231 -0.4218  0.5725 -0.3536
  145SAPE   H6X15913   7.313   2.800   6.268 -2.6719  0.1651 -1.2244
  145SAPE   H6Y15914   7.259   2.639   6.212 -0.5704  1.4139 -2.9409
  145SAPE   C3715915   7.438   2.697   6.107  0.3279  0.4640  0.2256
  145SAPE   H7X15916   7.471   2.594   6.081  0.2137  0.7593 -1.1347
  145SAPE   H7Y15917   7.530   2.759   6.113 -0.1297  1.0565  1.6766
  145SAPE   C3815918   7.360   2.741   5.981  0.2656  0.3976 -0.6318
  145SAPE   H8X15919   7.321   2.844   5.989  0.2454  0.3071  0.6240
  145SAPE   H8Y15920   7.275   2.669   5.979  0.4574  0.1547 -0.2172
  145SAPE   C3915921   7.445   2.724   5.857  0.0515 -0.0802  0.0123
  145SAPE   H9X15922   7.486   2.621   5.857 -2.8800 -1.3380 -0.4326
  145SAPE   H9Y15923   7.522   2.804   5.854  0.1870 -0.1494  1.2564
  145SAPE  C31015924   7.369   2.750   5.724  1.0629 -1.3787 -0.7486
  145SAPE  H10X15925   7.350   2.856   5.698  3.2372 -0.7853 -0.1354
  145SAPE  H10Y15926   7.271   2.699   5.730 -0.0570  0.5867 -1.4154
  145SAPE  C31115927   7.448   2.681   5.610 -0.1584 -0.2526  0.7551
  145SAPE  H11X15928   7.480   2.582   5.650 -1.8276 -0.5569  1.4237
  145SAPE  H11Y15929   7.535   2.742   5.579 -1.8271  1.3177 -1.0494
  145SAPE  C31215930   7.370   2.653   5.482 -0.0012  0.0681  0.3599
  145SAPE  H12X15931   7.329   2.751   5.448  0.8751  0.1679 -0.4269
  145SAPE  H12Y15932   7.285   2.583   5.500  0.9405 -0.7474  1.8502
  145SAPE  C31315933   7.456   2.605   5.363 -0.0957  0.9206  0.1715
  145SAPE  H13X15934   7.382   2.560   5.293  1.1403 -1.8666  0.5346
  145SAPE  H13Y15935   7.526   2.528   5.400 -0.7651  0.4930  0.5786
  145SAPE  C31415936   7.525   2.707   5.275 -0.6348 -0.8686  0.0314
  145SAPE  H14X15937   7.609   2.651   5.228 -0.4974 -2.2977  1.9142
  145SAPE  H14Y15938   7.575   2.781   5.341 -0.2105  0.4344 -1.6663
  145SAPE  C31515939   7.429   2.784   5.183 -0.5440 -0.3451  0.7066
  145SAPE  H15X15940   7.360   2.842   5.248 -1.7069 -2.1736  1.1907
  145SAPE  H15Y15941   7.368   2.717   5.119 -0.1694 -1.7950  1.8044
  145SAPE  C31615942   7.509   2.878   5.093  0.0313  0.7140 -0.7867
  145SAPE  H16X15943   7.582   2.821   5.031  2.0042  0.3389  1.7322
  145SAPE  H16Y15944   7.562   2.938   5.170 -0.6087  0.9764 -0.5494
  145SAPE  C31715945   7.425   2.976   5.019  0.0657  0.2198  0.7350
  145SAPE  H17X15946   7.342   3.024   5.074 -0.3851 -0.5703  0.7546
  145SAPE  H17Y15947   7.379   2.910   4.943  0.4538 -0.3766  1.0142
  145SAPE  C31815948   7.492   3.080   4.927 -0.2476  0.0403  0.1093
  145SAPE  H18X15949   7.415   3.124   4.861 -0.6680  0.3151  0.7794
  145SAPE  H18Y15950   7.570   3.021   4.875 -0.9298 -2.0325  1.3338
  145SAPE  H18Z15951   7.531   3.158   4.997 -2.6058  1.2923  0.1161
  146SAPE     N15952   4.680   3.854   7.232 -0.0457  0.4266 -0.3423
  146SAPE   HN115953   4.614   3.837   7.153  1.1053  1.7103 -1.6118
  146SAPE   HN215954   4.661   3.777   7.301  0.9069  0.4567 -0.0399
  146SAPE   HN315955   4.655   3.941   7.282  0.8521 -0.1917  1.2764
  146SAPE   C1215956   4.826   3.872   7.189 -0.2267  0.0852 -0.0820
  146SAPE  H12A15957   4.887   3.874   7.281 -0.2639  1.5667 -0.0583
  146SAPE  H12B15958   4.825   3.978   7.154 -1.4154  0.2546  0.4150
  146SAPE   C1115959   4.879   3.774   7.091 -0.0455 -0.2277 -0.0313
  146SAPE  H11A15960   4.849   3.670   7.115 -0.3970  0.5266  3.2848
  146SAPE  H11B15961   4.989   3.777   7.102  0.0999  0.3014 -1.4001
  146SAPE     P15962   4.784   3.714   6.849  0.1722  0.3068 -0.3500
  146SAPE   O1315963   4.662   3.650   6.905  0.0136  0.0989 -0.7550
  146SAPE   O1415964   4.763   3.796   6.727  0.1923  0.2999  0.0770
  146SAPE   O1215965   4.841   3.811   6.960  0.0197 -0.2298 -0.1502
  146SAPE   O1115966   4.914   3.621   6.843 -0.8803  0.2422  0.6518
  146SAPE    C115967   4.978   3.601   6.716  0.2398  0.1269 -0.4164
  146SAPE    HA15968   5.002   3.701   6.674 -1.6275  0.5480 -0.5847
  146SAPE    HB15969   5.076   3.553   6.734  0.3230  1.3685  3.2099
  146SAPE    C215970   4.896   3.517   6.618 -0.0810 -0.4262 -0.0664
  146SAPE    HS15971   4.803   3.571   6.592 -0.2552 -2.0409 -3.2093
  146SAPE   O2115972   4.876   3.382   6.674  0.3733 -0.3450 -0.4134
  146SAPE   C2115973   4.754   3.338   6.682 -0.3961  0.8089  0.2756
  146SAPE   O2215974   4.661   3.380   6.619  0.1556  0.8177 -0.0698
  146SAPE   C2215975   4.742   3.247   6.799 -0.4479  0.2407 -0.2424
  146SAPE   H2R15976   4.845   3.226   6.835  0.2371  0.1191 -2.1630
  146SAPE   H2S15977   4.699   3.307   6.882 -1.1067 -1.9473  1.0681
  146SAPE    C315978   4.960   3.501   6.482  0.0039 -0.0733  0.7002
  146SAPE    HX15979   5.049   3.435   6.496  0.1357 -0.3441 -1.1416
  146SAPE    HY15980   5.011   3.591   6.442 -0.0401 -0.3847 -0.0668
  146SAPE   O3115981   4.874   3.430   6.382 -0.0374 -0.2112 -0.0458
  146SAPE   C3115982   4.794   3.513   6.318 -0.5323  0.3699  0.8341
  146SAPE   O3215983   4.799   3.635   6.314 -0.2760  0.2396 -0.4235
  146SAPE   C3215984   4.687   3.428   6.254 -0.5304  0.6452  0.5597
  146SAPE   H2X15985   4.619   3.386   6.331 -1.9955  0.3341 -0.8543
  146SAPE   H2Y15986   4.721   3.335   6.202 -0.4339  1.0968 -0.1936
  146SAPE   C2315987   4.666   3.115   6.767 -0.1624 -0.5244  0.5521
  146SAPE   H3R15988   4.562   3.139   6.734  0.4088  0.6219 -0.4941
  146SAPE   H3S15989   4.661   3.052   6.859 -1.2821 -0.9949  0.2005
  146SAPE   C2415990   4.730   3.043   6.650 -0.4610  0.5379  0.2856
  146SAPE   H4R15991   4.719   3.111   6.563 -2.6768 -0.3761 -0.2119
  146SAPE   H4S15992   4.667   2.956   6.621  1.7829 -1.4160  0.9289
  146SAPE   C2515993   4.872   2.998   6.678 -0.9846  0.1623  0.6465
  146SAPE   H5R15994   4.887   2.929   6.763  3.8162 -0.7676 -0.6665
  146SAPE   C2615995   4.980   3.020   6.601  0.3138 -0.2059 -0.5089
  146SAPE   H6R15996   5.079   2.986   6.634  0.8148  0.7821 -0.9706
  146SAPE   C2715997   4.989   3.096   6.477  0.8488 -0.6355 -0.3356
  146SAPE   H7R15998   5.051   3.185   6.503 -0.6851  0.1536  0.7731
  146SAPE   H7S15999   4.890   3.144   6.458  0.4695 -0.4834  1.7441
  146SAPE   C2816000   5.051   3.032   6.357 -0.1576 -0.5611  0.1471
  146SAPE   H8R16001   5.116   2.947   6.381 -0.4551 -0.9173 -0.2968
  146SAPE   C2916002   5.044   3.073   6.225  0.0835 -0.1785  0.0652
  146SAPE   H9R16003   5.101   3.008   6.157 -0.6973 -1.4791  0.6357
  146SAPE  C21016004   4.955   3.179   6.163  0.3173 -0.4135 -0.5348
  146SAPE  H10R16005   5.011   3.275   6.164  0.4850 -0.5007  0.9276
  146SAPE  H10S16006   4.871   3.195   6.234  1.4163  0.3395  0.6288
  146SAPE  C21116007   4.895   3.150   6.029 -0.1980  0.2872  0.0298
  146SAPE  H11R16008   4.803   3.091   6.033  1.5293 -2.6615 -0.7522
  146SAPE  C21216009   4.938   3.182   5.907  0.6554 -0.1431 -0.9473
  146SAPE  H12R16010   4.884   3.145   5.819 -0.3013 -0.3533 -0.2978
  146SAPE  C21316011   5.061   3.257   5.874  0.2375 -0.8141  0.5685
  146SAPE  H13R16012   5.103   3.232   5.774 -1.3307  1.4859 -0.7343
  146SAPE  H13S16013   5.145   3.222   5.939  2.8594  1.9795 -1.0394
  146SAPE  C21416014   5.047   3.411   5.865 -0.0098  0.0465 -0.5543
  146SAPE  H14R16015   5.081   3.469   5.951 -0.8128  2.5207 -1.8075
  146SAPE  C21516016   5.027   3.478   5.746  0.5851 -0.4856  0.5177
  146SAPE  H15R16017   5.018   3.587   5.755  0.9225 -0.5959  2.6563
  146SAPE  C21616018   5.002   3.415   5.611 -0.5977  0.2610  0.3512
  146SAPE  H16R16019   4.980   3.307   5.625  1.7977 -0.1652  1.2342
  146SAPE  H16S16020   5.097   3.419   5.554  1.4435  1.0738  3.5393
  146SAPE  C21716021   4.879   3.473   5.548 -0.2957 -0.5843  0.1951
  146SAPE  H17R16022   4.898   3.579   5.524  1.1896 -0.8585  0.0453
  146SAPE  H17S16023   4.791   3.476   5.615 -1.0004 -0.1850 -0.7436
  146SAPE  C21816024   4.835   3.395   5.420 -0.4642  0.4267  0.4960
  146SAPE  H18R16025   4.862   3.289   5.440  1.4089  0.8544  0.4614
  146SAPE  H18S16026   4.894   3.430   5.333  0.1778  0.7807  1.0584
  146SAPE  C21916027   4.688   3.423   5.379 -0.2157 -0.4142  0.1928
  146SAPE  H19R16028   4.603   3.402   5.447 -0.6199  0.9820  0.1509
  146SAPE  H19S16029   4.673   3.358   5.291  2.4123  1.2463 -1.6232
  146SAPE  C22016030   4.674   3.564   5.324  0.2792 -0.7022 -0.3470
  146SAPE  H20R16031   4.649   3.636   5.404  1.3499  0.2370 -0.8358
  146SAPE  H20S16032   4.583   3.577   5.262 -1.4418 -1.2969  1.9085
  146SAPE  H20T16033   4.762   3.595   5.265  0.7759  0.7551  1.0999
  146SAPE   C3316034   4.607   3.507   6.152  0.6664 -0.0954  0.2787
  146SAPE   H3X16035   4.557   3.589   6.207  1.0404 -0.4003  1.0857
  146SAPE   H3Y16036   4.526   3.434   6.131 -1.2915  1.8953  0.5830
  146SAPE   C3416037   4.675   3.540   6.015  0.1509 -0.3521  0.0673
  146SAPE   H4X16038   4.688   3.454   5.946  0.2450 -0.6580  0.4579
  146SAPE   H4Y16039   4.770   3.586   6.049  0.2041 -0.9270  0.7160
  146SAPE   C3516040   4.601   3.640   5.921 -0.9610  0.1917  0.0203
  146SAPE   H5X16041   4.558   3.707   5.999  0.3573  0.0720  0.8754
  146SAPE   H5Y16042   4.523   3.573   5.878  0.4719 -1.6965  0.2607
  146SAPE   C3616043   4.688   3.717   5.822 -0.2882 -0.0666  0.1431
  146SAPE   H6X16044   4.747   3.642   5.764  0.3364  0.4889  0.0468
  146SAPE   H6Y16045   4.754   3.794   5.866 -2.2449  1.6832  0.1144
  146SAPE   C3716046   4.601   3.794   5.726 -0.3333 -0.4037  0.1961
  146SAPE   H7X16047   4.536   3.867   5.780  0.7835  2.7858 -2.4395
  146SAPE   H7Y16048   4.553   3.713   5.667 -0.0151 -1.4440  1.3268
  146SAPE   C3816049   4.694   3.888   5.632 -0.2692 -0.0723 -1.3076
  146SAPE   H8X16050   4.781   3.828   5.599  0.5094 -1.0800  2.2278
  146SAPE   H8Y16051   4.732   3.970   5.697 -0.1931 -2.5025  1.9649
  146SAPE   C3916052   4.630   3.954   5.517 -0.5167  0.4620 -0.0315
  146SAPE   H9X16053   4.545   4.019   5.548 -0.4224  0.2032  0.7842
  146SAPE   H9Y16054   4.605   3.866   5.454 -1.2255 -0.9647  2.1584
  146SAPE  C31016055   4.729   4.053   5.443 -0.2304 -0.3047  0.9738
  146SAPE  H10X16056   4.817   4.003   5.396 -0.5226  1.1858 -1.3111
  146SAPE  H10Y16057   4.768   4.128   5.514  1.1197 -1.1475  1.1576
  146SAPE  C31116058   4.651   4.124   5.330  0.2054 -0.2225 -0.2787
  146SAPE  H11X16059   4.575   4.199   5.358 -1.3444 -1.3108 -1.3688
  146SAPE  H11Y16060   4.612   4.028   5.289 -0.5557  0.5546 -1.4339
  146SAPE  C31216061   4.737   4.187   5.221 -0.9778 -0.6033 -0.6279
  146SAPE  H12X16062   4.819   4.116   5.198 -0.4240 -0.0458 -0.3756
  146SAPE  H12Y16063   4.776   4.285   5.253  0.0106 -0.7955 -1.2014
  146SAPE  C31316064   4.648   4.230   5.101  0.2177  0.2440 -0.6439
  146SAPE  H13X16065   4.602   4.331   5.112  0.4587  0.2808  0.0989
  146SAPE  H13Y16066   4.577   4.147   5.080  0.5939 -0.2351 -0.0348
  146SAPE  C31416067   4.724   4.248   4.973 -0.2590  0.3866 -0.1971
  146SAPE  H14X16068   4.785   4.160   4.944 -2.5407 -0.9567 -1.1498
  146SAPE  H14Y16069   4.800   4.327   4.992 -0.6353  0.4730  0.9957
  146SAPE  C31516070   4.634   4.278   4.846  0.5523  0.2184  0.0829
  146SAPE  H15X16071   4.588   4.379   4.845  0.3506  0.2442  3.0746
  146SAPE  H15Y16072   4.549   4.207   4.838 -0.1044  1.1206 -1.4326
  146SAPE  C31616073   4.708   4.245   4.711  0.2913 -0.6143 -0.0699
  146SAPE  H16X16074   4.643   4.262   4.623  2.0090 -1.1892 -1.5269
  146SAPE  H16Y16075   4.744   4.139   4.711  0.1249 -0.6704 -0.2174
  146SAPE  C31716076   4.827   4.343   4.694  0.9395 -0.0838  0.3370
  146SAPE  H17X16077   4.881   4.318   4.788 -1.1900  0.3054  1.7375
  146SAPE  H17Y16078   4.804   4.452   4.701  1.0573 -0.1468  2.2363
  146SAPE  C31816079   4.916   4.324   4.569 -0.6333  0.9100 -0.4558
  146SAPE  H18X16080   4.952   4.219   4.570  1.9131  1.6430  3.2803
  146SAPE  H18Y16081   5.009   4.384   4.572  1.2849 -1.6660 -2.8711
  146SAPE  H18Z16082   4.843   4.343   4.487 -1.4020 -2.0322 -0.5705
  147SAPE     N16083   2.626   6.819   7.133  0.1797  0.1434 -0.1183
  147SAPE   HN116084   2.621   6.716   7.152 -0.1654 -0.2669 -2.2253
  147SAPE   HN216085   2.681   6.881   7.196  1.6818 -1.2596  0.0094
  147SAPE   HN316086   2.529   6.857   7.136  0.1123 -0.0721  1.0647
  147SAPE   C1216087   2.689   6.836   6.998  0.2543  0.1147  0.5032
  147SAPE  H12A16088   2.701   6.944   6.973 -0.2220  0.2118  0.6958
  147SAPE  H12B16089   2.631   6.789   6.917  2.4365 -2.2604  0.1917
  147SAPE   C1116090   2.827   6.777   7.007 -0.2177 -0.3198 -0.0748
  147SAPE  H11A16091   2.863   6.756   6.903  4.0769  0.5041  1.0362
  147SAPE  H11B16092   2.814   6.677   7.055 -3.9814  0.6029  1.1496
  147SAPE     P16093   3.077   6.843   7.052  0.1932 -0.0387 -0.2105
  147SAPE   O1316094   3.156   6.948   7.124  0.5761 -0.6477  0.2638
  147SAPE   O1416095   3.111   6.700   7.064 -0.4545  0.7728  0.0011
  147SAPE   O1216096   2.920   6.862   7.078 -0.7990 -0.2264 -0.0144
  147SAPE   O1116097   3.096   6.881   6.904 -0.2904  0.2467 -0.4977
  147SAPE    C116098   3.022   6.985   6.841 -0.5198 -0.3577  0.2641
  147SAPE    HA16099   2.982   6.959   6.740 -0.9445  1.0440  0.0439
  147SAPE    HB16100   2.937   7.024   6.901  1.7943  1.1327  2.7652
  147SAPE    C216101   3.114   7.111   6.816 -0.0259  0.4708  0.5993
  147SAPE    HS16102   3.170   7.132   6.909 -0.0765 -0.0602  0.7529
  147SAPE   O2116103   3.043   7.221   6.760 -0.3857 -0.1711  0.1193
  147SAPE   C2116104   2.974   7.282   6.851  0.6051  0.2321  0.0905
  147SAPE   O2216105   2.970   7.252   6.969 -0.3413  0.0692  0.5353
  147SAPE   C2216106   2.893   7.389   6.792  0.6488 -0.6340  0.2772
  147SAPE   H2R16107   2.888   7.381   6.681 -3.1392  1.1760  0.1762
  147SAPE   H2S16108   2.785   7.378   6.815 -0.0746 -0.5443 -2.6275
  147SAPE    C316109   3.238   7.074   6.713 -0.0613 -0.5697 -0.4606
  147SAPE    HX16110   3.189   7.064   6.614 -0.9223 -0.4170 -0.0546
  147SAPE    HY16111   3.280   6.975   6.739 -1.6220 -0.7605  1.5398
  147SAPE   O3116112   3.338   7.177   6.702 -0.4403 -0.2990 -0.1333
  147SAPE   C3116113   3.454   7.156   6.765 -0.1613  0.5727 -0.0975
  147SAPE   O3216114   3.484   7.060   6.833  0.3156  0.5330 -0.0099
  147SAPE   C3216115   3.541   7.280   6.737 -0.3211 -0.1769  0.6604
  147SAPE   H2X16116   3.526   7.349   6.823  1.8330  0.3541  0.6499
  147SAPE   H2Y16117   3.504   7.323   6.641  1.3753 -2.7679 -1.2836
  147SAPE   C2316118   2.941   7.532   6.836  0.1978  0.2442 -0.0798
  147SAPE   H3R16119   2.944   7.527   6.947  2.7544 -0.8726 -0.1385
  147SAPE   H3S16120   2.860   7.606   6.818  0.5323  0.4371 -0.8227
  147SAPE   C2416121   3.071   7.570   6.761 -0.0463  0.0415 -0.0768
  147SAPE   H4R16122   3.147   7.489   6.767 -2.3468 -2.1500  1.1491
  147SAPE   H4S16123   3.109   7.665   6.804  0.0679 -0.2696  0.5231
  147SAPE   C2516124   3.037   7.600   6.618 -0.0407 -0.0078 -0.0755
  147SAPE   H5R16125   2.959   7.677   6.608 -0.6122 -0.4603  0.7707
  147SAPE   C2616126   3.095   7.541   6.510  0.2591 -0.0343  0.4417
  147SAPE   H6R16127   3.053   7.570   6.413  1.6246  0.8624  0.0956
  147SAPE   C2716128   3.209   7.436   6.513 -0.5734 -0.4622 -0.2860
  147SAPE   H7R16129   3.191   7.354   6.585  0.5153  1.6324  2.5725
  147SAPE   H7S16130   3.295   7.489   6.560 -0.5259 -1.4652  0.8114
  147SAPE   C2816131   3.245   7.375   6.379  0.3203 -0.1028 -0.0601
  147SAPE   H8R16132   3.253   7.266   6.376  2.8305 -0.0086  0.7752
  147SAPE   C2916133   3.293   7.448   6.274 -0.0273  0.3519  0.8565
  147SAPE   H9R16134   3.314   7.385   6.187 -3.3352 -2.0177  1.5466
  147SAPE  C21016135   3.312   7.598   6.267 -0.3775  0.3238  0.5366
  147SAPE  H10R16136   3.250   7.648   6.345 -1.4940 -1.2647  0.7230
  147SAPE  H10S16137   3.256   7.628   6.176 -2.3827 -4.5901 -0.1523
  147SAPE  C21116138   3.457   7.647   6.273 -0.0790 -0.5607  0.7556
  147SAPE  H11R16139   3.531   7.606   6.344  1.0922  0.2644  0.0381
  147SAPE  C21216140   3.515   7.741   6.191 -0.5971  0.6025 -0.1996
  147SAPE  H12R16141   3.622   7.752   6.173 -0.6293  0.5580 -0.4156
  147SAPE  C21316142   3.429   7.816   6.088  0.2869  0.4180  0.6534
  147SAPE  H13R16143   3.347   7.871   6.139  0.8194  2.8286 -0.9819
  147SAPE  H13S16144   3.386   7.745   6.014 -0.1369 -0.7388  1.9603
  147SAPE  C21416145   3.512   7.914   6.019 -0.3806 -0.7314 -0.2440
  147SAPE  H14R16146   3.608   7.878   5.979 -0.0866  0.9555 -1.1474
  147SAPE  C21516147   3.472   8.039   5.975  0.6472 -0.0440 -0.5248
  147SAPE  H15R16148   3.539   8.105   5.918  1.2668  0.3553  0.6437
  147SAPE  C21616149   3.346   8.118   6.013  0.1289 -0.1001 -0.0792
  147SAPE  H16R16150   3.378   8.211   6.067 -1.5855  0.5736 -0.1646
  147SAPE  H16S16151   3.279   8.071   6.088  3.8001 -0.8138  3.0911
  147SAPE  C21716152   3.258   8.153   5.889 -0.1467 -1.2675 -0.3496
  147SAPE  H17R16153   3.323   8.185   5.805 -3.2401  0.4956 -2.2516
  147SAPE  H17S16154   3.199   8.244   5.911  0.9150  0.4067 -3.7306
  147SAPE  C21816155   3.173   8.038   5.844 -0.2496 -0.3680  0.0958
  147SAPE  H18R16156   3.095   8.016   5.920  1.1261  1.0480  2.0073
  147SAPE  H18S16157   3.242   7.952   5.829  0.6156  0.3074  0.1266
  147SAPE  C21916158   3.108   8.067   5.706  0.5012 -0.1940 -0.5240
  147SAPE  H19R16159   3.076   7.975   5.653  1.5743 -0.0571 -1.4187
  147SAPE  H19S16160   3.192   8.104   5.644  0.4310  2.0010  0.5881
  147SAPE  C22016161   2.998   8.172   5.717  0.5479 -0.2384  0.3921
  147SAPE  H20R16162   2.917   8.151   5.791 -0.9685 -0.7858 -1.3414
  147SAPE  H20S16163   2.951   8.186   5.618 -1.2011 -2.3316  0.8367
  147SAPE  H20T16164   3.041   8.267   5.757 -0.7498  0.2023  0.8067
  147SAPE   C3316165   3.691   7.239   6.713 -0.6392  0.2738  0.3878
  147SAPE   H3X16166   3.729   7.160   6.782 -0.8848 -1.5828 -1.4756
  147SAPE   H3Y16167   3.757   7.325   6.734  1.5654 -1.3140  0.3052
  147SAPE   C3416168   3.718   7.207   6.562 -0.8899 -0.2873 -0.0437
  147SAPE   H4X16169   3.632   7.149   6.522 -0.4598 -0.2653 -1.0525
  147SAPE   H4Y16170   3.820   7.162   6.563 -0.9719 -0.4560  0.9550
  147SAPE   C3516171   3.732   7.325   6.461 -0.1965  0.0482 -0.2760
  147SAPE   H5X16172   3.819   7.392   6.483 -1.5930  1.1909  2.1469
  147SAPE   H5Y16173   3.648   7.397   6.463  0.2648  0.6002 -0.4782
  147SAPE   C3616174   3.753   7.286   6.312  0.5221 -0.5474  0.8749
  147SAPE   H6X16175   3.676   7.210   6.287  0.2028 -0.6316  2.0617
  147SAPE   H6Y16176   3.847   7.226   6.312  1.3001  0.5336 -1.6873
  147SAPE   C3716177   3.765   7.397   6.209  0.2110 -0.7946 -0.1890
  147SAPE   H7X16178   3.860   7.453   6.224  0.5325 -0.9065 -1.6789
  147SAPE   H7Y16179   3.675   7.461   6.221  0.0277 -1.4804  3.2291
  147SAPE   C3816180   3.765   7.336   6.066  0.5410 -0.6956 -0.2272
  147SAPE   H8X16181   3.686   7.258   6.060  1.1893 -1.5392  1.4225
  147SAPE   H8Y16182   3.857   7.286   6.031  1.9994  2.7389 -1.8026
  147SAPE   C3916183   3.723   7.445   5.959 -0.4881  0.4196 -0.9849
  147SAPE   H9X16184   3.768   7.546   5.970  0.9310 -0.3129  0.2176
  147SAPE   H9Y16185   3.616   7.461   5.985 -0.0858  2.1032 -0.2461
  147SAPE  C31016186   3.743   7.390   5.813  0.1593 -0.0582 -0.7621
  147SAPE  H10X16187   3.725   7.281   5.819  2.9163 -0.5330  0.5926
  147SAPE  H10Y16188   3.850   7.408   5.790 -0.4645  0.0540 -4.1754
  147SAPE  C31116189   3.650   7.467   5.720  0.1607 -0.1750 -0.1560
  147SAPE  H11X16190   3.625   7.570   5.752 -1.5154 -0.5335 -0.2434
  147SAPE  H11Y16191   3.551   7.425   5.744  0.5922 -0.3223  1.4746
  147SAPE  C31216192   3.694   7.448   5.570 -0.0965 -0.1502  0.1986
  147SAPE  H12X16193   3.668   7.342   5.550 -0.2995 -0.2699  1.0362
  147SAPE  H12Y16194   3.800   7.482   5.575 -0.7949  2.6477 -1.9908
  147SAPE  C31316195   3.633   7.531   5.471  0.4468  0.1401 -0.1956
  147SAPE  H13X16196   3.674   7.634   5.480  1.9734 -0.4678  0.2398
  147SAPE  H13Y16197   3.524   7.535   5.490  0.9572  1.5715  3.3845
  147SAPE  C31416198   3.653   7.481   5.329 -0.3716 -0.6910  0.2112
  147SAPE  H14X16199   3.614   7.377   5.335  0.3393 -0.8927  1.7707
  147SAPE  H14Y16200   3.761   7.482   5.306 -0.4159  0.0762 -0.0105
  147SAPE  C31516201   3.580   7.554   5.211  0.3677  0.3612  0.5643
  147SAPE  H15X16202   3.615   7.660   5.204  1.2360 -0.0020 -1.3266
  147SAPE  H15Y16203   3.471   7.557   5.233 -0.2490 -2.2093 -1.5402
  147SAPE  C31616204   3.604   7.492   5.070  0.7860 -0.0735  0.5729
  147SAPE  H16X16205   3.551   7.394   5.066 -0.6977  0.7337 -0.1990
  147SAPE  H16Y16206   3.714   7.482   5.058  1.0088  2.6658 -0.2235
  147SAPE  C31716207   3.557   7.586   4.954  0.5759  0.2771  0.1922
  147SAPE  H17X16208   3.459   7.634   4.973  0.9909  1.2863 -0.1092
  147SAPE  H17Y16209   3.536   7.524   4.864 -3.4025  2.0942 -0.3675
  147SAPE  C31816210   3.660   7.695   4.928 -0.1820  0.9532 -0.7795
  147SAPE  H18X16211   3.657   7.775   5.006  0.9550  1.4605 -1.2304
  147SAPE  H18Y16212   3.625   7.745   4.835 -1.8601  0.2228 -0.5726
  147SAPE  H18Z16213   3.766   7.668   4.910  0.1828  1.9410 -0.2136
  148SAPE     N16214   0.209   6.751   6.901  0.3561 -0.1172 -0.2703
  148SAPE   HN116215   0.269   6.789   6.977 -1.3142  0.8560  0.6002
  148SAPE   HN216216   0.121   6.730   6.952  0.2789  2.8162  0.9559
  148SAPE   HN316217   0.251   6.664   6.862  0.5097 -1.3493  2.4538
  148SAPE   C1216218   0.196   6.855   6.795  0.1385  0.2458  0.2487
  148SAPE  H12A16219   0.161   6.947   6.847 -0.2506  0.2064  0.0609
  148SAPE  H12B16220   0.109   6.832   6.729  0.7552  0.5324 -0.6840
  148SAPE   C1116221   0.321   6.871   6.704  0.1123  0.0651 -0.9010
  148SAPE  H11A16222   0.295   6.925   6.610  1.0788 -0.6384 -1.5813
  148SAPE  H11B16223   0.342   6.769   6.667  2.3285  0.8343 -1.9255
  148SAPE     P16224   0.483   7.068   6.760 -0.6586 -0.3459  0.1620
  148SAPE   O1316225   0.369   7.158   6.803  0.4114  0.7677  0.8900
  148SAPE   O1416226   0.609   7.091   6.837  0.2788 -0.2161 -0.0147
  148SAPE   O1216227   0.434   6.923   6.773 -0.1099 -0.3040 -0.4343
  148SAPE   O1116228   0.506   7.086   6.608  0.3278  0.2600  0.5799
  148SAPE    C116229   0.449   7.196   6.533  0.1734  0.3879  0.0736
  148SAPE    HA16230   0.406   7.146   6.444 -0.9323 -1.1583  1.3984
  148SAPE    HB16231   0.359   7.246   6.575 -0.8013 -0.0848 -1.4026
  148SAPE    C216232   0.560   7.303   6.493  0.1662 -0.3667 -0.1065
  148SAPE    HS16233   0.514   7.368   6.416  1.5199  1.5366  0.6234
  148SAPE   O2116234   0.682   7.237   6.440  0.4587  0.3334 -0.4635
  148SAPE   C2116235   0.659   7.171   6.331 -1.1361  0.5969 -0.0035
  148SAPE   O2216236   0.556   7.184   6.269  0.6272 -0.7467  0.5625
  148SAPE   C2216237   0.765   7.076   6.290 -0.4097  0.1125 -0.0494
  148SAPE   H2R16238   0.707   6.982   6.285 -1.3017  0.6840 -0.7756
  148SAPE   H2S16239   0.820   7.105   6.198  1.2066  1.1405  1.1857
  148SAPE    C316240   0.594   7.396   6.614  0.2422 -0.4302 -0.5013
  148SAPE    HX16241   0.622   7.331   6.700  1.6733  1.3265  0.4407
  148SAPE    HY16242   0.506   7.459   6.637  0.2037 -0.4433 -0.6174
  148SAPE   O3116243   0.705   7.492   6.587  0.5864 -0.1618  0.0907
  148SAPE   C3116244   0.827   7.455   6.618  0.8634 -0.2936 -0.0799
  148SAPE   O3216245   0.861   7.357   6.673 -0.8388  0.5067 -0.3059
  148SAPE   C3216246   0.916   7.569   6.580  0.5213 -0.0630 -0.2274
  148SAPE   H2X16247   0.944   7.631   6.667  0.0932 -0.7572  0.4228
  148SAPE   H2Y16248   0.872   7.631   6.499 -1.5336 -2.5922 -1.2094
  148SAPE   C2316249   0.881   7.054   6.391 -0.2081  0.5618 -1.0768
  148SAPE   H3R16250   0.835   7.007   6.480  0.7264  0.8158 -0.4448
  148SAPE   H3S16251   0.928   7.150   6.424  2.3008 -0.3577 -1.7407
  148SAPE   C2416252   0.979   6.955   6.332 -0.2427 -0.1245 -0.9464
  148SAPE   H4R16253   0.916   6.876   6.286 -0.1720 -0.5759 -0.2903
  148SAPE   H4S16254   1.038   6.910   6.416 -2.0290 -0.4204  0.2182
  148SAPE   C2516255   1.075   7.026   6.242 -0.6042  0.6765  0.4660
  148SAPE   H5R16256   1.156   7.083   6.290 -0.6257 -0.7486  2.3053
  148SAPE   C2616257   1.073   7.022   6.105 -0.5752  0.2558  0.0048
  148SAPE   H6R16258   1.153   7.070   6.045 -0.7036 -0.6259 -0.8852
  148SAPE   C2716259   0.969   6.955   6.017 -0.0833  0.0009  0.3491
  148SAPE   H7R16260   0.926   7.032   5.949 -2.2265 -1.6425 -0.2486
  148SAPE   H7S16261   0.888   6.931   6.089  2.1795 -0.9053  2.7568
  148SAPE   C2816262   1.001   6.832   5.941 -0.2771 -0.5904 -0.4609
  148SAPE   H8R16263   1.016   6.745   6.006 -1.7994  0.9580  2.1255
  148SAPE   C2916264   1.016   6.814   5.802 -0.0911 -0.3055 -0.0430
  148SAPE   H9R16265   1.037   6.713   5.764  2.4926  0.8544 -1.9895
  148SAPE  C21016266   1.007   6.916   5.689 -0.3549  1.2063 -0.0337
  148SAPE  H10R16267   1.049   6.854   5.607  1.3230  0.4681  1.3235
  148SAPE  H10S16268   1.083   6.996   5.705 -0.3640  1.1304  0.4018
  148SAPE  C21116269   0.869   6.974   5.668  0.1642 -0.0208 -0.2560
  148SAPE  H11R16270   0.826   7.026   5.755 -0.2171 -2.7011  1.2488
  148SAPE  C21216271   0.809   6.989   5.547  0.2186  0.8273  0.0747
  148SAPE  H12R16272   0.715   7.045   5.534  2.1101  4.5497  0.9545
  148SAPE  C21316273   0.876   6.957   5.416  0.0375  0.0674  0.3171
  148SAPE  H13R16274   0.958   6.883   5.423 -0.1407 -0.2263 -0.5944
  148SAPE  H13S16275   0.929   7.049   5.384 -0.8039  0.4744  0.0763
  148SAPE  C21416276   0.785   6.920   5.304 -0.2029 -0.6005 -0.2553
  148SAPE  H14R16277   0.703   6.854   5.334  1.2387 -3.2042 -1.6374
  148SAPE  C21516278   0.800   6.961   5.179  0.1288  0.0369  0.8013
  148SAPE  H15R16279   0.742   6.906   5.103 -0.8820 -0.4183  1.8736
  148SAPE  C21616280   0.919   7.043   5.128  0.0410 -0.5265 -0.6316
  148SAPE  H16R16281   1.018   7.011   5.166  0.7311  2.1620 -0.0031
  148SAPE  H16S16282   0.908   7.149   5.158  0.3273 -0.0670 -2.0585
  148SAPE  C21716283   0.929   7.044   4.973  0.3343 -0.0792 -0.1986
  148SAPE  H17R16284   1.026   7.088   4.941  2.3761 -3.7626  0.3625
  148SAPE  H17S16285   0.844   7.097   4.926 -0.4863 -1.8147 -0.7639
  148SAPE  C21816286   0.943   6.902   4.913 -0.1045  0.6315 -0.0361
  148SAPE  H18R16287   0.859   6.833   4.934  0.6164 -0.2156  0.1748
  148SAPE  H18S16288   1.032   6.861   4.967 -0.7423  0.4455  0.8917
  148SAPE  C21916289   0.970   6.919   4.765  0.4706 -0.3893 -0.2171
  148SAPE  H19R16290   1.070   6.964   4.747  0.5633 -0.0197  1.0577
  148SAPE  H19S16291   0.899   6.996   4.729  2.6594  0.5537 -2.9146
  148SAPE  C22016292   0.967   6.790   4.687 -0.2884 -0.5153 -0.1364
  148SAPE  H20R16293   0.962   6.812   4.578 -0.0580 -0.2592 -0.0949
  148SAPE  H20S16294   0.868   6.744   4.708 -0.8601  1.1412  1.0193
  148SAPE  H20T16295   1.049   6.721   4.716  0.0712  0.0490  0.1927
  148SAPE   C3316296   1.049   7.524   6.533 -0.1778  0.3177  0.1287
  148SAPE   H3X16297   1.099   7.468   6.615  0.3358 -0.2811 -0.5747
  148SAPE   H3Y16298   1.110   7.612   6.503  2.3236 -1.3259  0.1084
  148SAPE   C3416299   1.041   7.431   6.413 -0.4782  0.5340 -0.2663
  148SAPE   H4X16300   0.971   7.346   6.429  0.3351 -0.5351 -1.9684
  148SAPE   H4Y16301   1.139   7.384   6.388 -0.3615  1.1839 -1.0773
  148SAPE   C3516302   0.986   7.497   6.285 -0.6308  0.1456 -0.1891
  148SAPE   H5X16303   1.066   7.562   6.243 -1.3546  1.5515  0.5459
  148SAPE   H5Y16304   0.899   7.558   6.316  1.0194  2.2648  0.5472
  148SAPE   C3616305   0.941   7.405   6.174 -0.4003  0.7979  0.2710
  148SAPE   H6X16306   0.880   7.322   6.217  2.4039 -1.4624  0.2310
  148SAPE   H6Y16307   1.017   7.334   6.134 -3.3295 -0.9038 -2.8017
  148SAPE   C3716308   0.876   7.472   6.055 -0.0410 -0.1876  0.4904
  148SAPE   H7X16309   0.937   7.549   6.003 -1.2054  0.5072  0.1082
  148SAPE   H7Y16310   0.792   7.535   6.091  1.3003  2.3885 -0.6081
  148SAPE   C3816311   0.824   7.371   5.947 -0.9443 -0.6330  0.1582
  148SAPE   H8X16312   0.716   7.352   5.960 -0.5215 -2.3863  1.4887
  148SAPE   H8Y16313   0.876   7.273   5.951  2.4415  1.0120  0.1991
  148SAPE   C3916314   0.842   7.436   5.810  0.4621  0.1609  0.3354
  148SAPE   H9X16315   0.952   7.435   5.795  0.1999  0.8303 -1.9040
  148SAPE   H9Y16316   0.818   7.545   5.805 -0.2421 -0.0627 -2.5690
  148SAPE  C31016317   0.786   7.365   5.688  0.7107 -0.4952  0.2405
  148SAPE  H10X16318   0.679   7.339   5.700  0.7963 -1.2084 -0.4162
  148SAPE  H10Y16319   0.842   7.273   5.660  0.6948 -0.2177 -0.7282
  148SAPE  C31116320   0.801   7.450   5.562 -0.0034 -0.4532  0.7338
  148SAPE  H11X16321   0.908   7.480   5.557 -0.3667  1.4770  2.9072
  148SAPE  H11Y16322   0.732   7.536   5.573 -2.1763 -2.0515  0.3382
  148SAPE  C31216323   0.762   7.361   5.437 -0.0296 -0.1930  0.1645
  148SAPE  H12X16324   0.656   7.328   5.442 -0.1026  0.1165  0.8903
  148SAPE  H12Y16325   0.824   7.270   5.424  1.0255  0.5967 -0.4807
  148SAPE  C31316326   0.788   7.423   5.299  0.3748  0.2681  0.1185
  148SAPE  H13X16327   0.732   7.519   5.307 -0.3116 -0.1334  0.2218
  148SAPE  H13Y16328   0.742   7.355   5.224 -1.1920  0.1805  1.1007
  148SAPE  C31416329   0.934   7.438   5.254 -0.3041 -0.3733  0.4651
  148SAPE  H14X16330   0.987   7.341   5.259  0.4658 -0.2039 -2.4860
  148SAPE  H14Y16331   0.988   7.517   5.310 -1.3095 -0.2747  1.3314
  148SAPE  C31516332   0.956   7.476   5.102 -0.2714 -0.4586  0.1545
  148SAPE  H15X16333   0.920   7.576   5.068  0.1710  1.1513  3.9442
  148SAPE  H15Y16334   0.909   7.401   5.036  0.7616 -0.8605 -0.1574
  148SAPE  C31616335   1.108   7.483   5.062  0.3746 -0.2361  0.7835
  148SAPE  H16X16336   1.158   7.394   5.103  0.7148  0.0167  0.9218
  148SAPE  H16Y16337   1.160   7.565   5.115  1.2360 -0.7627  0.7624
  148SAPE  C31716338   1.137   7.492   4.914 -0.4439  0.3320  0.0371
  148SAPE  H17X16339   1.088   7.585   4.878 -1.0378  0.6538  1.6051
  148SAPE  H17Y16340   1.084   7.409   4.863  0.9013 -0.0818 -0.7190
  148SAPE  C31816341   1.288   7.498   4.873  0.0925 -0.1568  0.6149
  148SAPE  H18X16342   1.296   7.496   4.762  0.7506  2.2454  0.5642
  148SAPE  H18Y16343   1.350   7.414   4.913  0.9230 -0.1273 -0.5532
  148SAPE  H18Z16344   1.339   7.592   4.902 -1.2557  0.9039 -0.3015
  149SAPE     N16345   0.755   3.279   6.949  0.0831 -0.1140  0.1819
  149SAPE   HN116346   0.712   3.192   6.911 -0.0819  0.1127 -0.1581
  149SAPE   HN216347   0.747   3.358   6.882  1.3437  1.5592  1.9078
  149SAPE   HN316348   0.857   3.260   6.948  0.1725  0.1575  1.8114
  149SAPE   C1216349   0.711   3.305   7.088  1.0511 -0.3134 -0.6140
  149SAPE  H12A16350   0.750   3.225   7.155  0.2961 -0.3721 -0.2398
  149SAPE  H12B16351   0.601   3.312   7.090  1.0768  0.4821 -1.4776
  149SAPE   C1116352   0.768   3.438   7.153 -0.4838  0.0150  0.7056
  149SAPE  H11A16353   0.879   3.425   7.150 -0.5198 -0.4043 -2.8302
  149SAPE  H11B16354   0.732   3.450   7.257  1.1895  1.8771  1.1334
  149SAPE     P16355   0.705   3.689   7.143  0.0317 -0.2104 -0.0507
  149SAPE   O1316356   0.631   3.671   7.271 -0.7763  0.5832 -0.1831
  149SAPE   O1416357   0.843   3.751   7.156  0.2488  0.3285  0.0949
  149SAPE   O1216358   0.737   3.548   7.071 -0.3170 -0.3259  0.1450
  149SAPE   O1116359   0.615   3.764   7.032  0.3256  0.5649  0.0955
  149SAPE    C116360   0.562   3.704   6.914  0.4211  0.9431 -0.0971
  149SAPE    HA16361   0.546   3.595   6.931 -0.3265  1.4474  3.0971
  149SAPE    HB16362   0.456   3.736   6.912 -0.0505 -0.5742 -0.5981
  149SAPE    C216363   0.630   3.730   6.785  0.0761  0.4519 -0.6719
  149SAPE    HS16364   0.589   3.660   6.709 -0.3209 -1.1390  0.9479
  149SAPE   O2116365   0.773   3.706   6.796 -0.5363  0.0852 -0.2738
  149SAPE   C2116366   0.804   3.575   6.800  0.1328 -0.3108 -0.8590
  149SAPE   O2216367   0.729   3.478   6.784  0.2229 -0.1073  0.3033
  149SAPE   C2216368   0.953   3.560   6.837 -1.4035 -0.5271  0.3218
  149SAPE   H2R16369   0.989   3.665   6.844 -0.5910 -0.5286 -2.4985
  149SAPE   H2S16370   0.948   3.514   6.938 -1.4431  2.4208  1.7707
  149SAPE    C316371   0.613   3.877   6.741  0.0301  0.3284 -0.7524
  149SAPE    HX16372   0.684   3.940   6.798 -2.2020  1.1791  1.2579
  149SAPE    HY16373   0.515   3.910   6.781  0.0351 -1.0100  0.4294
  149SAPE   O3116374   0.640   3.893   6.601 -0.8594  0.1199  0.6930
  149SAPE   C3116375   0.527   3.911   6.532 -0.4895  0.3061 -0.0576
  149SAPE   O3216376   0.417   3.921   6.583 -0.3062 -0.3891  0.2305
  149SAPE   C3216377   0.538   3.911   6.382  0.5719 -0.4413 -0.7466
  149SAPE   H2X16378   0.593   4.001   6.348 -1.2798  1.0689  0.1055
  149SAPE   H2Y16379   0.435   3.927   6.344  0.4575 -0.8510 -0.6145
  149SAPE   C2316380   1.035   3.481   6.728 -0.1005 -0.1408  0.2724
  149SAPE   H3R16381   0.998   3.378   6.713  2.5601 -1.2044  0.4848
  149SAPE   H3S16382   1.139   3.466   6.765  0.4359 -1.0773 -1.5013
  149SAPE   C2416383   1.049   3.561   6.593  0.0508  0.7392 -0.1483
  149SAPE   H4R16384   1.141   3.520   6.546 -0.1087  0.3335 -0.1159
  149SAPE   H4S16385   1.077   3.665   6.619  0.0440  0.6208  0.3574
  149SAPE   C2516386   0.930   3.567   6.498 -0.4960  0.0791 -0.3509
  149SAPE   H5R16387   0.837   3.616   6.532  0.8015  1.0319  2.0340
  149SAPE   C2616388   0.927   3.497   6.385  0.9470 -0.1998 -0.0328
  149SAPE   H6R16389   0.842   3.513   6.317  1.0683 -0.4417 -0.2447
  149SAPE   C2716390   1.032   3.411   6.323  0.6306 -0.4035 -0.0245
  149SAPE   H7R16391   0.986   3.327   6.267  0.3190 -0.7011  0.6636
  149SAPE   H7S16392   1.098   3.362   6.397 -2.0933 -1.8478  1.6178
  149SAPE   C2816393   1.110   3.496   6.225 -0.4974 -0.1388  0.2014
  149SAPE   H8R16394   1.210   3.525   6.263 -0.0402 -1.2451 -0.1233
  149SAPE   C2916395   1.086   3.519   6.096  0.0625  0.1360  1.2742
  149SAPE   H9R16396   1.146   3.578   6.026 -0.3807 -0.8057  0.0645
  149SAPE  C21016397   0.955   3.484   6.022 -0.0982 -0.2504 -1.1937
  149SAPE  H10R16398   0.918   3.580   5.978  0.5525 -0.0982 -1.4222
  149SAPE  H10S16399   0.869   3.460   6.087 -1.2129  0.2868 -2.4086
  149SAPE  C21116400   0.970   3.370   5.920  0.6552  0.9268  0.3724
  149SAPE  H11R16401   0.998   3.270   5.957 -0.0388  0.2023 -0.9486
  149SAPE  C21216402   0.907   3.372   5.796  0.6473 -0.3763  0.3896
  149SAPE  H12R16403   0.903   3.275   5.744  1.0788 -1.2844  1.9610
  149SAPE  C21316404   0.837   3.491   5.733 -0.0998 -0.5395 -0.1933
  149SAPE  H13R16405   0.852   3.583   5.793 -0.8158 -0.4002 -0.2217
  149SAPE  H13S16406   0.727   3.480   5.731 -0.5600  2.5860  1.7630
  149SAPE  C21416407   0.882   3.516   5.592  0.1611  0.2279 -0.4424
  149SAPE  H14R16408   0.990   3.537   5.585  0.4721  0.1251  2.5896
  149SAPE  C21516409   0.798   3.525   5.487 -0.1596 -0.7181  0.3714
  149SAPE  H15R16410   0.844   3.560   5.393 -2.0920 -2.2651 -1.2429
  149SAPE  C21616411   0.650   3.504   5.482 -0.7403  1.0267  0.2029
  149SAPE  H16R16412   0.584   3.589   5.511 -1.6841  0.2462  0.3955
  149SAPE  H16S16413   0.619   3.419   5.547  2.2105 -0.8281 -0.6158
  149SAPE  C21716414   0.614   3.466   5.335 -0.0313 -0.3704 -0.3650
  149SAPE  H17R16415   0.506   3.440   5.333 -0.0407 -0.5499  1.4179
  149SAPE  H17S16416   0.675   3.382   5.294  2.0460  1.6407 -1.6159
  149SAPE  C21816417   0.632   3.590   5.243  0.2068  0.1049  0.3422
  149SAPE  H18R16418   0.733   3.636   5.251 -0.5833  2.0869 -0.3312
  149SAPE  H18S16419   0.567   3.673   5.277 -0.5294  0.6435 -2.1512
  149SAPE  C21916420   0.597   3.567   5.095 -0.2690  0.5304  0.2935
  149SAPE  H19R16421   0.494   3.523   5.096 -1.0651  2.2864  1.9116
  149SAPE  H19S16422   0.662   3.498   5.038  0.8294  1.7537  0.0335
  149SAPE  C22016423   0.596   3.695   5.020  0.4254  0.1514  0.0201
  149SAPE  H20R16424   0.687   3.758   5.030  0.6120 -0.1107 -0.0186
  149SAPE  H20S16425   0.509   3.756   5.052  0.7910 -0.6505  2.7552
  149SAPE  H20T16426   0.579   3.673   4.912 -0.6385 -1.4440  0.4835
  149SAPE   C3316427   0.590   3.775   6.330  0.3402  0.0633  0.0338
  149SAPE   H3X16428   0.554   3.686   6.386 -0.3907 -0.5367 -1.3237
  149SAPE   H3Y16429   0.699   3.766   6.348  0.2860 -1.9947 -0.3439
  149SAPE   C3416430   0.551   3.771   6.183  0.3220  0.2205  0.4349
  149SAPE   H4X16431   0.586   3.867   6.139 -2.8230  0.6770 -1.3479
  149SAPE   H4Y16432   0.441   3.758   6.170  0.5670 -2.2877  0.2998
  149SAPE   C3516433   0.616   3.652   6.101  0.0073 -0.2360  0.1766
  149SAPE   H5X16434   0.597   3.561   6.162 -1.5517  0.4787  0.8199
  149SAPE   H5Y16435   0.724   3.670   6.083  0.1810 -0.2909  1.0899
  149SAPE   C3616436   0.540   3.625   5.973 -0.0150  0.2149  0.6070
  149SAPE   H6X16437   0.431   3.628   5.996 -0.4453 -0.5179 -1.2091
  149SAPE   H6Y16438   0.565   3.522   5.940 -1.1258 -0.7920  2.6836
  149SAPE   C3716439   0.562   3.746   5.875  0.1052  0.0207  0.0970
  149SAPE   H7X16440   0.660   3.729   5.825 -0.8593  1.4821 -2.4388
  149SAPE   H7Y16441   0.563   3.846   5.923  0.6729 -0.9018  2.1318
  149SAPE   C3816442   0.460   3.765   5.754 -0.7218  0.4819  0.2148
  149SAPE   H8X16443   0.367   3.814   5.789 -2.1615  0.3130 -3.0355
  149SAPE   H8Y16444   0.423   3.671   5.710  2.5864 -0.3100 -1.1799
  149SAPE   C3916445   0.522   3.842   5.632 -0.4801  0.1794 -0.2900
  149SAPE   H9X16446   0.615   3.802   5.587 -1.0175  0.0988 -1.3552
  149SAPE   H9Y16447   0.537   3.946   5.667 -0.6609 -0.6123  2.3259
  149SAPE  C31016448   0.426   3.847   5.508 -0.4603  0.0747 -0.5127
  149SAPE  H10X16449   0.327   3.879   5.549 -0.0211 -0.6714  1.2629
  149SAPE  H10Y16450   0.413   3.741   5.475  2.4233 -1.0678  1.5813
  149SAPE  C31116451   0.470   3.923   5.391  1.1268 -0.5849  0.5219
  149SAPE  H11X16452   0.550   3.876   5.330  0.3525 -0.4584 -0.6401
  149SAPE  H11Y16453   0.498   4.024   5.429  0.9923  0.3798 -1.7784
  149SAPE  C31216454   0.359   3.947   5.287  0.1415  0.4947 -0.3212
  149SAPE  H12X16455   0.278   3.998   5.344  1.2318  2.1124 -0.1389
  149SAPE  H12Y16456   0.322   3.849   5.250  0.6927  0.2750 -0.2861
  149SAPE  C31316457   0.408   4.029   5.174  0.2315 -0.8604  1.0563
  149SAPE  H13X16458   0.480   3.973   5.111  0.9298 -0.6337  1.6389
  149SAPE  H13Y16459   0.450   4.126   5.208 -2.1847  1.1050 -1.0867
  149SAPE  C31416460   0.292   4.072   5.071 -0.7130  0.1653  0.1824
  149SAPE  H14X16461   0.348   4.112   4.984  0.7989 -0.6257  0.7406
  149SAPE  H14Y16462   0.235   4.154   5.119  0.3706 -0.2976  2.3944
  149SAPE  C31516463   0.200   3.959   5.026 -0.8117 -0.3153  0.1317
  149SAPE  H15X16464   0.138   3.919   5.110 -1.7275 -1.0235 -0.8594
  149SAPE  H15Y16465   0.267   3.880   4.987 -1.6811 -0.7114 -0.6141
  149SAPE  C31616466   0.113   4.002   4.908 -0.0541 -0.6897 -0.1542
  149SAPE  H16X16467   0.055   4.091   4.941 -0.6200 -0.8245 -0.7704
  149SAPE  H16Y16468   0.027   3.933   4.898 -0.1677 -0.4658 -0.7766
  149SAPE  C31716469   0.188   4.018   4.774  0.2762 -0.5485 -0.1479
  149SAPE  H17X16470   0.209   3.923   4.720  0.1519 -2.5984  3.1828
  149SAPE  H17Y16471   0.276   4.086   4.787 -1.3255  1.3875  1.1163
  149SAPE  C31816472   0.098   4.102   4.680  0.5284 -0.1211 -0.8576
  149SAPE  H18X16473   0.081   4.207   4.711  0.0594 -0.0944 -1.1931
  149SAPE  H18Y16474   0.001   4.049   4.667 -0.3715  0.5561  2.3217
  149SAPE  H18Z16475   0.155   4.113   4.585  1.5966  1.9910 -0.0189
  150SAPE     N16476   2.418   4.496   7.036 -0.2600  0.4871  0.6851
  150SAPE   HN116477   2.486   4.526   6.964  0.5605 -1.7582  0.4492
  150SAPE   HN216478   2.366   4.582   7.061 -1.3990  0.1493 -0.4051
  150SAPE   HN316479   2.468   4.461   7.120 -1.1182 -1.4055  0.4836
  150SAPE   C1216480   2.310   4.409   6.990  0.0271  0.2718  1.0073
  150SAPE  H12A16481   2.268   4.455   6.897  2.5318  1.6911  0.4902
  150SAPE  H12B16482   2.234   4.395   7.069 -1.3439 -0.3731 -0.3700
  150SAPE   C1116483   2.365   4.265   6.962 -0.6033  0.3952  0.0149
  150SAPE  H11A16484   2.271   4.208   6.950  0.5753 -1.8878  1.0144
  150SAPE  H11B16485   2.415   4.213   7.046  0.0503 -3.4584 -2.4952
  150SAPE     P16486   2.430   4.158   6.719 -0.5074  0.2226  0.2379
  150SAPE   O1316487   2.461   4.233   6.598  0.2917  0.1684  0.6429
  150SAPE   O1416488   2.516   4.038   6.747  0.5428 -0.3060 -0.2665
  150SAPE   O1216489   2.447   4.262   6.844  0.5005 -0.3634  0.0799
  150SAPE   O1116490   2.277   4.121   6.721  0.2222 -0.1979  0.1424
  150SAPE    C116491   2.222   3.995   6.746 -1.1000 -0.1193  1.1845
  150SAPE    HA16492   2.297   3.942   6.809 -1.0294 -1.4125  0.0509
  150SAPE    HB16493   2.135   4.008   6.814 -0.3047  2.4933  1.7995
  150SAPE    C216494   2.181   3.917   6.619 -0.0058  0.3771  0.5044
  150SAPE    HS16495   2.130   3.819   6.634  0.1831 -0.0679 -1.5643
  150SAPE   O2116496   2.295   3.896   6.530 -0.1616  0.8862  0.0389
  150SAPE   C2116497   2.378   3.801   6.571  1.0420  0.1516 -0.4799
  150SAPE   O2216498   2.362   3.726   6.663  0.3453 -0.1103  0.0306
  150SAPE   C2216499   2.500   3.797   6.474 -0.1988 -0.0668  0.5474
  150SAPE   H2R16500   2.543   3.896   6.499 -0.3209 -0.3487  1.9556
  150SAPE   H2S16501   2.573   3.721   6.509  0.4409 -2.2349 -4.6032
  150SAPE    C316502   2.058   3.993   6.544  0.0307 -0.3814 -0.7226
  150SAPE    HX16503   2.086   4.101   6.540  1.4240 -0.4358  3.2349
  150SAPE    HY16504   1.964   4.002   6.602 -0.2509 -0.9233 -1.0879
  150SAPE   O3116505   2.040   3.957   6.410 -0.2185  0.0692 -0.3001
  150SAPE   C3116506   1.957   3.856   6.396  0.2697 -0.6853  0.1026
  150SAPE   O3216507   1.913   3.795   6.494 -0.6489  0.1277  0.3289
  150SAPE   C3216508   1.919   3.843   6.242  0.1134 -0.3850 -0.0720
  150SAPE   H2X16509   1.847   3.759   6.232  1.3682 -1.6207  0.8253
  150SAPE   H2Y16510   2.014   3.815   6.192  0.4660  0.1968  0.2675
  150SAPE   C2316511   2.468   3.771   6.329  0.0806  0.5867  0.6645
  150SAPE   H3R16512   2.366   3.795   6.292  0.9631 -0.6476 -3.0917
  150SAPE   H3S16513   2.469   3.661   6.314  0.9226  0.1382  3.5030
  150SAPE   C2416514   2.562   3.845   6.242 -0.5847 -0.5855  0.0491
  150SAPE   H4R16515   2.664   3.847   6.286 -1.7531 -1.3518  3.0109
  150SAPE   H4S16516   2.536   3.953   6.241 -0.3138 -0.5059  1.1119
  150SAPE   C2516517   2.567   3.797   6.101  0.1038 -0.2363 -0.2900
  150SAPE   H5R16518   2.639   3.716   6.082  0.0101 -0.1732 -0.9655
  150SAPE   C2616519   2.493   3.838   5.999 -0.3961  0.8444 -0.2910
  150SAPE   H6R16520   2.511   3.783   5.906  1.1532  1.3853 -0.3395
  150SAPE   C2716521   2.379   3.938   6.010  0.3073 -0.1578 -0.4897
  150SAPE   H7R16522   2.424   4.037   6.030 -0.2311 -0.3142  1.8373
  150SAPE   H7S16523   2.313   3.921   6.098  1.3617  2.3192  0.8847
  150SAPE   C2816524   2.283   3.957   5.895 -0.4265  0.6913  0.0524
  150SAPE   H8R16525   2.190   3.899   5.901 -0.4046  0.3398 -2.0687
  150SAPE   C2916526   2.304   4.045   5.792  0.2658  0.3739 -1.0960
  150SAPE   H9R16527   2.216   4.058   5.728 -0.1058  3.2554 -0.1771
  150SAPE  C21016528   2.430   4.131   5.753 -0.4466  0.1662  0.4186
  150SAPE  H10R16529   2.501   4.073   5.690 -0.2432  0.6106  0.2338
  150SAPE  H10S16530   2.479   4.149   5.851  1.3510 -0.0169 -0.4219
  150SAPE  C21116531   2.379   4.260   5.688  0.1501  0.8581  0.4391
  150SAPE  H11R16532   2.341   4.342   5.752 -0.6078  1.4254 -0.6895
  150SAPE  C21216533   2.373   4.285   5.552 -0.3409  0.7880  0.3090
  150SAPE  H12R16534   2.357   4.389   5.521  0.8174  1.4472  1.7622
  150SAPE  C21316535   2.432   4.204   5.437 -0.6314 -0.1578 -0.0240
  150SAPE  H13R16536   2.527   4.159   5.473 -1.3485 -0.9379  0.9362
  150SAPE  H13S16537   2.465   4.267   5.351 -0.7858 -1.5142 -1.1260
  150SAPE  C21416538   2.327   4.100   5.390  0.4800  0.5093 -0.1047
  150SAPE  H14R16539   2.323   4.012   5.456 -1.2028  0.8869  0.3248
  150SAPE  C21516540   2.258   4.097   5.272 -1.1408  0.6300 -0.6547
  150SAPE  H15R16541   2.177   4.025   5.254 -1.2038  1.0340 -2.0778
  150SAPE  C21616542   2.273   4.196   5.159  0.0009 -0.6705  0.3187
  150SAPE  H16R16543   2.374   4.240   5.170  0.5725 -2.0728  0.9795
  150SAPE  H16S16544   2.190   4.270   5.153 -0.5036 -1.2213  0.3177
  150SAPE  C21716545   2.263   4.133   5.022 -0.2928  0.1659  0.3089
  150SAPE  H17R16546   2.239   4.210   4.945 -2.5257  0.8771  1.6191
  150SAPE  H17S16547   2.176   4.064   5.020 -0.0613 -0.1546 -2.3053
  150SAPE  C21816548   2.376   4.044   4.984  0.0479  0.7251 -1.4796
  150SAPE  H18R16549   2.382   3.960   5.057 -0.3807  0.3080 -1.9110
  150SAPE  H18S16550   2.473   4.099   4.988  0.2164  0.4602 -1.8119
  150SAPE  C21916551   2.361   3.981   4.848  0.0834 -0.4019  0.1293
  150SAPE  H19R16552   2.259   3.938   4.833 -0.3610  0.9579 -1.0049
  150SAPE  H19S16553   2.443   3.907   4.840 -0.4979 -0.8654 -3.2328
  150SAPE  C22016554   2.385   4.089   4.733  0.3804  0.1560  0.2900
  150SAPE  H20R16555   2.305   4.166   4.740 -1.9541 -1.6967 -3.2725
  150SAPE  H20S16556   2.366   4.032   4.640  2.0365 -0.3194  0.2059
  150SAPE  H20T16557   2.486   4.136   4.735  0.6982 -0.5091  1.9151
  150SAPE   C3316558   1.857   3.974   6.174  0.5009  0.3914  0.2991
  150SAPE   H3X16559   1.923   4.062   6.188  1.2679  0.0661 -1.0831
  150SAPE   H3Y16560   1.763   3.992   6.231 -0.5792 -0.7915 -1.0299
  150SAPE   C3416561   1.816   3.946   6.030  0.1109 -0.5852  0.5959
  150SAPE   H4X16562   1.736   4.020   6.010  0.2264 -0.7345 -0.4661
  150SAPE   H4Y16563   1.753   3.855   6.031  0.3234 -0.7394  0.2676
  150SAPE   C3516564   1.929   3.943   5.928  0.1177 -0.2032 -0.3549
  150SAPE   H5X16565   2.004   3.861   5.919  1.0275  0.7678 -1.9235
  150SAPE   H5Y16566   1.980   4.041   5.930 -0.5561  0.2205 -2.2979
  150SAPE   C3616567   1.859   3.952   5.790  0.9579  0.3202 -0.4160
  150SAPE   H6X16568   1.776   4.024   5.808 -0.1298 -0.8792 -0.4764
  150SAPE   H6Y16569   1.815   3.851   5.776  2.1225 -0.2561 -0.1162
  150SAPE   C3716570   1.952   3.990   5.679 -0.0714 -0.2277 -0.2141
  150SAPE   H7X16571   2.033   3.915   5.674 -0.6292 -0.8631  0.1231
  150SAPE   H7Y16572   1.995   4.092   5.686 -2.0738  0.7201 -0.9533
  150SAPE   C3816573   1.876   3.995   5.549 -0.6374 -0.1707 -0.2859
  150SAPE   H8X16574   1.792   4.068   5.555 -0.8911 -0.4778 -0.0902
  150SAPE   H8Y16575   1.820   3.900   5.538  0.2674 -0.8514  0.7723
  150SAPE   C3916576   1.964   4.029   5.429 -0.2533  0.7046 -0.1161
  150SAPE   H9X16577   2.031   3.941   5.422 -1.6216 -0.5611  1.8351
  150SAPE   H9Y16578   2.026   4.122   5.427  0.1671  0.5009 -3.5708
  150SAPE  C31016579   1.874   4.042   5.305  0.0871  0.6691  0.9849
  150SAPE  H10X16580   1.922   4.084   5.214 -0.3448  0.2507  0.5593
  150SAPE  H10Y16581   1.814   4.129   5.341 -0.1605  0.2076  1.7154
  150SAPE  C31116582   1.792   3.921   5.270 -0.0542 -0.0968  0.1400
  150SAPE  H11X16583   1.721   3.900   5.353  0.3446  1.5809  0.9527
  150SAPE  H11Y16584   1.861   3.835   5.257  1.1115  0.5165  1.9101
  150SAPE  C31216585   1.712   3.935   5.137  0.2498  0.0999  0.0087
  150SAPE  H12X16586   1.784   3.928   5.053 -0.6147  0.6604 -0.7900
  150SAPE  H12Y16587   1.664   4.034   5.124 -1.8219 -0.7830  0.4985
  150SAPE  C31316588   1.609   3.820   5.113 -0.9019 -0.5545  0.0608
  150SAPE  H13X16589   1.539   3.860   5.037 -0.5988  2.0517  1.0342
  150SAPE  H13Y16590   1.542   3.816   5.202  0.8464  0.0202  1.4852
  150SAPE  C31416591   1.661   3.678   5.077 -0.0832 -0.0225 -0.4549
  150SAPE  H14X16592   1.634   3.610   5.161 -2.2128  0.4320 -0.7171
  150SAPE  H14Y16593   1.770   3.679   5.054 -0.3393 -0.5967 -1.7367
  150SAPE  C31516594   1.584   3.612   4.965 -0.2204 -0.4874  0.2320
  150SAPE  H15X16595   1.588   3.689   4.886 -1.6397 -0.7403 -0.1027
  150SAPE  H15Y16596   1.477   3.595   4.989  0.5689 -4.0776  1.8823
  150SAPE  C31616597   1.631   3.472   4.928 -0.4430  0.1561  0.0566
  150SAPE  H16X16598   1.635   3.408   5.019  0.9950 -0.1414 -0.1998
  150SAPE  H16Y16599   1.731   3.475   4.882 -0.9136  0.1059 -0.9875
  150SAPE  C31716600   1.550   3.408   4.813  0.0407 -0.0179  0.2599
  150SAPE  H17X16601   1.544   3.487   4.735  0.0467 -1.1650 -0.9313
  150SAPE  H17Y16602   1.445   3.389   4.845 -0.3365  0.0513 -0.8758
  150SAPE  C31816603   1.610   3.280   4.752  0.5178  0.6910  0.3130
  150SAPE  H18X16604   1.541   3.251   4.670  1.6254 -2.2057  0.3209
  150SAPE  H18Y16605   1.615   3.203   4.832 -0.8354 -0.3420 -0.5404
  150SAPE  H18Z16606   1.712   3.308   4.719  0.4543 -0.8435 -1.2759
  151SAPE     N16607   3.868   2.647   6.988  0.1062 -0.4330 -0.1831
  151SAPE   HN116608   3.880   2.611   6.892  0.5819  3.3711 -1.7164
  151SAPE   HN216609   3.887   2.749   6.976  2.5723 -0.6265  1.3985
  151SAPE   HN316610   3.944   2.610   7.049  1.8481  2.8534 -0.0917
  151SAPE   C1216611   3.728   2.627   7.041 -0.6510  0.4455  0.3800
  151SAPE  H12A16612   3.719   2.517   7.055  0.5607 -0.2073 -3.1104
  151SAPE  H12B16613   3.655   2.658   6.963 -1.8555 -0.0272  1.2756
  151SAPE   C1116614   3.709   2.694   7.178  0.6472 -0.2647 -0.0306
  151SAPE  H11A16615   3.777   2.647   7.253  0.7191  0.2039  0.2034
  151SAPE  H11B16616   3.608   2.662   7.211  0.9715 -1.0726  0.1982
  151SAPE     P16617   3.627   2.953   7.147 -0.0266  0.1168  0.1268
  151SAPE   O1316618   3.539   2.969   7.262  0.4381  0.0012  0.2040
  151SAPE   O1416619   3.709   3.068   7.105  0.0216  0.1265 -0.2619
  151SAPE   O1216620   3.723   2.837   7.180 -0.2033  0.6426  0.6246
  151SAPE   O1116621   3.553   2.903   7.015 -0.3348 -0.5954  0.7409
  151SAPE    C116622   3.523   3.005   6.911  0.1679  0.3073  0.5915
  151SAPE    HA16623   3.414   3.001   6.893  0.1787  4.0807 -1.2749
  151SAPE    HB16624   3.551   3.108   6.939  2.9750 -0.0883 -0.4041
  151SAPE    C216625   3.605   2.981   6.770  0.3645 -0.1710 -0.7352
  151SAPE    HS16626   3.712   2.990   6.799  0.4495  2.2205 -1.5787
  151SAPE   O2116627   3.562   3.089   6.679 -0.2531 -0.8878 -0.5210
  151SAPE   C2116628   3.662   3.145   6.604 -0.6684  0.6227 -1.4969
  151SAPE   O2216629   3.774   3.097   6.599  0.2750  0.2099  0.1953
  151SAPE   C2216630   3.620   3.269   6.528 -0.0733 -0.1241  1.0530
  151SAPE   H2R16631   3.509   3.274   6.522 -0.0046 -0.2801 -1.3006
  151SAPE   H2S16632   3.650   3.362   6.580  0.7117  1.1533 -1.5264
  151SAPE    C316633   3.570   2.853   6.706 -0.2767 -0.1622  0.1193
  151SAPE    HX16634   3.466   2.840   6.671 -0.0754  0.6817 -0.8334
  151SAPE    HY16635   3.573   2.782   6.791 -1.2277 -0.9059 -0.4468
  151SAPE   O3116636   3.656   2.820   6.592 -0.2359 -0.1502  0.5453
  151SAPE   C3116637   3.731   2.720   6.611 -0.4261  0.3946 -0.0085
  151SAPE   O3216638   3.739   2.650   6.712  0.4139 -0.1063  0.2038
  151SAPE   C3216639   3.813   2.681   6.485 -0.3522 -1.0014  0.2492
  151SAPE   H2X16640   3.776   2.741   6.399 -2.9669 -0.9209  1.3452
  151SAPE   H2Y16641   3.770   2.582   6.462  0.3294 -1.2801  0.1583
  151SAPE   C2316642   3.670   3.264   6.378 -0.3139 -0.2401 -0.2494
  151SAPE   H3R16643   3.770   3.215   6.378 -1.0781 -1.9034 -0.8396
  151SAPE   H3S16644   3.683   3.367   6.338  1.0154 -0.7036 -1.0840
  151SAPE   C2416645   3.578   3.190   6.282 -0.4004  0.4150 -0.2918
  151SAPE   H4R16646   3.476   3.235   6.284 -0.8360 -0.5257  2.1557
  151SAPE   H4S16647   3.565   3.084   6.313  1.4970  0.0674 -0.5592
  151SAPE   C2516648   3.628   3.190   6.139  0.1324  0.6349  0.1167
  151SAPE   H5R16649   3.737   3.205   6.132  0.1393  0.5650  0.0777
  151SAPE   C2616650   3.553   3.191   6.032 -0.3259 -0.1719 -0.0530
  151SAPE   H6R16651   3.604   3.202   5.935  0.4821 -0.5040  0.3307
  151SAPE   C2716652   3.404   3.192   6.007  0.1270  0.1009 -0.5788
  151SAPE   H7R16653   3.379   3.286   5.955 -1.2884  1.0347  1.6630
  151SAPE   H7S16654   3.362   3.201   6.110  4.2772  1.8047  1.2014
  151SAPE   C2816655   3.338   3.082   5.924 -0.1088  0.5756 -0.1554
  151SAPE   H8R16656   3.279   3.005   5.975  1.4209 -0.0162  0.7831
  151SAPE   C2916657   3.342   3.067   5.788  0.0510  0.6861 -0.3494
  151SAPE   H9R16658   3.284   2.989   5.737 -1.1481 -0.0349  1.9738
  151SAPE  C21016659   3.412   3.160   5.695 -0.8079 -0.0829 -0.6854
  151SAPE  H10R16660   3.425   3.256   5.750  1.0556 -1.3540  1.2504
  151SAPE  H10S16661   3.338   3.176   5.614  0.1702  0.8085 -1.4299
  151SAPE  C21116662   3.544   3.094   5.658 -0.2272  0.7475  0.5597
  151SAPE  H11R16663   3.615   3.079   5.741  0.0545 -1.9020 -0.0927
  151SAPE  C21216664   3.588   3.083   5.528 -0.0423 -0.7309 -0.8015
  151SAPE  H12R16665   3.680   3.026   5.510  2.5719  2.6532  0.7635
  151SAPE  C21316666   3.519   3.102   5.399 -0.4382  0.0197 -0.0677
  151SAPE  H13R16667   3.584   3.126   5.312 -1.4323 -0.5833 -1.0081
  151SAPE  H13S16668   3.471   3.203   5.396  0.3678  0.4595 -3.7982
  151SAPE  C21416669   3.429   2.987   5.361  0.2857  0.1449 -0.2445
  151SAPE  H14R16670   3.411   2.907   5.435 -1.4257  2.4366  2.0284
  151SAPE  C21516671   3.354   2.978   5.251  0.2751  0.8745  0.3673
  151SAPE  H15R16672   3.297   2.886   5.239  1.5006  0.0571  0.6276
  151SAPE  C21616673   3.343   3.085   5.140  0.1252  0.4633  0.3106
  151SAPE  H16R16674   3.411   3.165   5.176  2.2916 -1.6529  1.2962
  151SAPE  H16S16675   3.239   3.115   5.119  0.2174  0.7313  0.2368
  151SAPE  C21716676   3.405   3.023   5.014  0.4102 -0.0611  0.5136
  151SAPE  H17R16677   3.329   2.960   4.962  0.4241  0.6568 -0.4066
  151SAPE  H17S16678   3.496   2.962   5.033  1.8349  1.7811 -0.1347
  151SAPE  C21816679   3.450   3.138   4.920  0.1321  0.5783  0.4023
  151SAPE  H18R16680   3.531   3.184   4.981 -0.1190  1.1913  0.2823
  151SAPE  H18S16681   3.381   3.225   4.912  1.5294  1.5436 -2.4531
  151SAPE  C21916682   3.512   3.101   4.784 -0.1857  0.6454  0.5328
  151SAPE  H19R16683   3.457   3.017   4.735 -0.5359  0.7206  0.7923
  151SAPE  H19S16684   3.610   3.051   4.798  0.4513  1.2904 -1.3043
  151SAPE  C22016685   3.539   3.218   4.702 -0.3630 -0.5746  0.7297
  151SAPE  H20R16686   3.576   3.187   4.602 -0.2319 -1.6642  1.1005
  151SAPE  H20S16687   3.612   3.281   4.756  0.2986  0.1575 -0.9518
  151SAPE  H20T16688   3.438   3.263   4.694 -0.7382 -1.4086  0.6312
  151SAPE   C3316689   3.964   2.686   6.499  0.0141 -1.3184 -0.3233
  151SAPE   H3X16690   4.009   2.634   6.412 -1.9001 -1.2796 -1.3848
  151SAPE   H3Y16691   3.991   2.634   6.594  0.6093  2.2976  1.6714
  151SAPE   C3416692   4.021   2.828   6.516 -0.2111 -0.5563  0.1042
  151SAPE   H4X16693   4.132   2.820   6.513 -0.1233  0.2626  0.8197
  151SAPE   H4Y16694   4.000   2.873   6.615 -0.6633 -0.7797  0.1099
  151SAPE   C3516695   3.983   2.929   6.410  0.0680  0.0166 -0.3155
  151SAPE   H5X16696   4.038   3.023   6.434 -0.9285  0.6393 -0.3990
  151SAPE   H5Y16697   3.876   2.954   6.421  0.2060  0.6665 -0.3942
  151SAPE   C3616698   4.009   2.882   6.269 -0.0179  0.7271  0.3768
  151SAPE   H6X16699   3.958   2.784   6.255 -1.0974  1.1875  0.9605
  151SAPE   H6Y16700   4.118   2.864   6.259 -0.1825 -0.1220  0.0459
  151SAPE   C3716701   3.967   2.979   6.158  0.3908  0.1970  0.4264
  151SAPE   H7X16702   4.008   3.082   6.170  0.4291  0.1174  1.0422
  151SAPE   H7Y16703   3.857   2.979   6.150  0.4132  1.2818  0.0277
  151SAPE   C3816704   4.017   2.917   6.029 -0.3096 -0.0780  0.1236
  151SAPE   H8X16705   3.969   2.817   6.026 -1.6482  0.4078  2.5841
  151SAPE   H8Y16706   4.128   2.917   6.025 -0.3134 -1.0597 -0.4236
  151SAPE   C3916707   3.951   3.001   5.916 -0.3965 -1.0319  0.3423
  151SAPE   H9X16708   3.934   3.107   5.942 -2.4834 -1.3032  0.2591
  151SAPE   H9Y16709   3.854   2.952   5.893 -1.9194  1.3810  1.2936
  151SAPE  C31016710   4.036   3.011   5.781  1.1843  0.2453  0.6278
  151SAPE  H10X16711   4.082   2.912   5.765  0.9623  0.1515  0.5611
  151SAPE  H10Y16712   4.128   3.073   5.789  1.6662 -0.3584 -0.1476
  151SAPE  C31116713   3.946   3.061   5.660  0.0410 -0.5094 -0.1975
  151SAPE  H11X16714   3.907   3.162   5.682 -1.8767 -0.5434 -2.9349
  151SAPE  H11Y16715   3.859   2.995   5.638 -1.4048  1.0491  0.6417
  151SAPE  C31216716   4.036   3.076   5.530 -0.0960  0.4279  0.1387
  151SAPE  H12X16717   4.090   2.979   5.517  1.2633  1.3010 -1.1096
  151SAPE  H12Y16718   4.107   3.156   5.561 -2.4591  1.9655  1.9701
  151SAPE  C31316719   3.960   3.113   5.404  0.8323 -0.4489 -0.5402
  151SAPE  H13X16720   3.925   3.217   5.419 -1.9882 -1.3285 -0.4969
  151SAPE  H13Y16721   3.873   3.048   5.379  1.2188 -1.1286 -0.1504
  151SAPE  C31416722   4.045   3.114   5.278 -0.7043  0.1165  0.2018
  151SAPE  H14X16723   4.113   3.026   5.284 -0.6768  0.2036  1.3793
  151SAPE  H14Y16724   4.099   3.211   5.276  0.4220 -0.4858 -0.4104
  151SAPE  C31516725   3.962   3.082   5.152  0.3730 -0.8485 -0.1318
  151SAPE  H15X16726   3.879   3.009   5.165  0.2192 -0.9309 -1.4068
  151SAPE  H15Y16727   4.026   3.026   5.081 -1.4686 -1.4242 -1.3939
  151SAPE  C31616728   3.892   3.206   5.089 -0.4248 -0.5755 -0.1940
  151SAPE  H16X16729   3.973   3.272   5.052  1.1280 -1.4230  1.5395
  151SAPE  H16Y16730   3.837   3.265   5.165  0.8888 -0.6673  0.8558
  151SAPE  C31716731   3.797   3.165   4.970 -0.2661  0.3489  0.3500
  151SAPE  H17X16732   3.739   3.257   4.951  1.5617  1.4290 -0.2317
  151SAPE  H17Y16733   3.724   3.085   4.996  1.9162 -1.8633  0.0759
  151SAPE  C31816734   3.878   3.116   4.838  0.6975  0.3464 -0.1116
  151SAPE  H18X16735   3.907   3.207   4.780  0.7843  0.2411 -0.2350
  151SAPE  H18Y16736   3.809   3.052   4.780  0.3724 -0.7161  1.4085
  151SAPE  H18Z16737   3.971   3.065   4.870  0.3295  0.0032  0.4244
  152SAPE     N16738   3.496   4.214   7.068  0.1898 -0.6659 -1.4315
  152SAPE   HN116739   3.409   4.195   7.016  0.4628  3.2567 -3.6868
  152SAPE   HN216740   3.544   4.291   7.018 -0.2306  0.4637 -0.1727
  152SAPE   HN316741   3.561   4.132   7.074 -0.6606 -1.2656  1.2725
  152SAPE   C1216742   3.467   4.258   7.216  0.1915  0.0949  0.0715
  152SAPE  H12A16743   3.383   4.196   7.254 -0.4962  0.2272 -1.1656
  152SAPE  H12B16744   3.427   4.360   7.198  0.3213  0.6657  2.6591
  152SAPE   C1116745   3.593   4.262   7.299  0.0609 -0.3793 -0.1606
  152SAPE  H11A16746   3.563   4.314   7.393 -0.2975  0.0224 -0.4893
  152SAPE  H11B16747   3.675   4.321   7.255  0.1906 -0.8573 -0.5608
  152SAPE     P16748   3.763   4.060   7.251  0.0454 -0.1804  0.3571
  152SAPE   O1316749   3.887   4.139   7.272  0.4572  0.2602  0.7394
  152SAPE   O1416750   3.760   3.918   7.292  0.3039  0.1196 -0.7404
  152SAPE   O1216751   3.639   4.131   7.323  0.0491  0.4931 -0.3799
  152SAPE   O1116752   3.729   4.062   7.097 -0.3429  0.3117 -0.2278
  152SAPE    C116753   3.807   4.152   7.008  0.2760  0.6587  0.8140
  152SAPE    HA16754   3.769   4.254   7.028 -3.1661 -0.1592 -0.7537
  152SAPE    HB16755   3.915   4.142   7.029  0.0438 -1.4914  1.2483
  152SAPE    C216756   3.775   4.104   6.864 -0.0236 -0.1062  0.4208
  152SAPE    HS16757   3.850   4.149   6.797 -0.2700  1.1421  0.9469
  152SAPE   O2116758   3.640   4.149   6.825  0.1689 -0.3846  0.3217
  152SAPE   C2116759   3.620   4.169   6.699 -0.4086  0.4079  0.1278
  152SAPE   O2216760   3.704   4.165   6.608 -0.3384  0.5315  0.2388
  152SAPE   C2216761   3.470   4.183   6.675  0.0799  0.1684 -0.3936
  152SAPE   H2R16762   3.439   4.266   6.741  1.0993  0.5042 -0.3214
  152SAPE   H2S16763   3.453   4.212   6.569  1.2210 -3.1699 -1.6599
  152SAPE    C316764   3.789   3.952   6.853 -0.7927 -0.2712 -0.2993
  152SAPE    HX16765   3.700   3.915   6.909  1.4235  1.3974  4.9338
  152SAPE    HY16766   3.876   3.912   6.909 -1.8364 -0.9316  0.9241
  152SAPE   O3116767   3.782   3.905   6.721  0.8106  0.4761  0.3982
  152SAPE   C3116768   3.885   3.908   6.643 -0.2811  0.0702  0.0636
  152SAPE   O3216769   3.993   3.941   6.682  0.1905  0.1665 -1.0511
  152SAPE   C3216770   3.854   3.875   6.500  0.1787  0.2003  0.3625
  152SAPE   H2X16771   3.755   3.921   6.480 -0.3295 -1.3738 -1.0090
  152SAPE   H2Y16772   3.832   3.768   6.480  0.5142  0.3148 -0.7164
  152SAPE   C2316773   3.385   4.053   6.714 -0.2134 -0.0001 -0.0131
  152SAPE   H3R16774   3.283   4.098   6.713 -0.1493  0.1463 -0.1962
  152SAPE   H3S16775   3.419   4.004   6.807 -0.2301  1.5147  0.8307
  152SAPE   C2416776   3.389   3.941   6.606  0.4859 -0.0801  0.5279
  152SAPE   H4R16777   3.377   3.844   6.658  2.4390 -0.5669  0.1594
  152SAPE   H4S16778   3.495   3.945   6.572 -0.2278  0.3729 -1.8289
  152SAPE   C2516779   3.298   3.948   6.489 -0.1923  0.2331  0.8753
  152SAPE   H5R16780   3.189   3.949   6.507 -1.0924 -1.8922 -3.1635
  152SAPE   C2616781   3.333   3.935   6.361 -0.1624 -0.3352 -0.1683
  152SAPE   H6R16782   3.264   3.930   6.276  0.7756 -1.1565 -0.8979
  152SAPE   C2716783   3.482   3.928   6.312  0.3935 -0.4807  0.3888
  152SAPE   H7R16784   3.551   3.982   6.380 -2.3608  1.8737  1.5525
  152SAPE   H7S16785   3.496   3.974   6.212 -1.4282 -1.0024 -0.1575
  152SAPE   C2816786   3.515   3.779   6.320  0.3433  0.3516 -0.5048
  152SAPE   H8R16787   3.515   3.749   6.425  0.4849 -2.5611 -1.2522
  152SAPE   C2916788   3.533   3.679   6.223  0.0068  0.0556 -0.2758
  152SAPE   H9R16789   3.541   3.574   6.254 -2.6110  0.1633  0.9809
  152SAPE  C21016790   3.533   3.700   6.078  0.0360  0.0692  0.6309
  152SAPE  H10R16791   3.457   3.777   6.054  1.6848  2.2745  2.0647
  152SAPE  H10S16792   3.517   3.599   6.036  0.5320  0.5280 -0.7037
  152SAPE  C21116793   3.665   3.748   6.031 -0.0557 -0.4062  0.1749
  152SAPE  H11R16794   3.727   3.789   6.112 -2.3365 -0.4842  2.0744
  152SAPE  C21216795   3.690   3.766   5.898  0.1407  0.0566  0.5678
  152SAPE  H12R16796   3.783   3.813   5.863 -1.6225  1.5791 -2.3738
  152SAPE  C21316797   3.603   3.739   5.782  0.1649  0.0424 -0.6170
  152SAPE  H13R16798   3.638   3.782   5.685 -0.8110 -0.1446 -1.0608
  152SAPE  H13S16799   3.514   3.804   5.798  0.3624  0.2793 -0.4730
  152SAPE  C21416800   3.555   3.596   5.766 -0.2004 -0.2598 -1.1887
  152SAPE  H14R16801   3.472   3.567   5.832  0.0981  2.8787  0.7630
  152SAPE  C21516802   3.596   3.509   5.672  0.0498 -0.1432  0.3746
  152SAPE  H15R16803   3.549   3.410   5.676  0.6920 -0.4245  2.1627
  152SAPE  C21616804   3.699   3.524   5.570 -0.3709  0.2064  0.6885
  152SAPE  H16R16805   3.775   3.443   5.580  0.9878  1.1657 -1.3102
  152SAPE  H16S16806   3.755   3.618   5.588 -1.1053  0.8563 -0.3356
  152SAPE  C21716807   3.646   3.522   5.430 -0.0581  0.1181  0.1164
  152SAPE  H17R16808   3.574   3.603   5.408  0.8438  0.5266 -1.4898
  152SAPE  H17S16809   3.590   3.426   5.420  2.4515 -1.5031  0.5216
  152SAPE  C21816810   3.769   3.511   5.326  0.1193  0.4460  0.3103
  152SAPE  H18R16811   3.800   3.404   5.332  0.7009  0.5889 -0.1590
  152SAPE  H18S16812   3.845   3.579   5.369  1.2634  0.3987 -1.5596
  152SAPE  C21916813   3.736   3.560   5.186  0.5695  0.2007 -0.0377
  152SAPE  H19R16814   3.817   3.524   5.118  0.1679 -1.6538  0.4013
  152SAPE  H19S16815   3.725   3.668   5.162  0.3545 -0.2749 -2.3180
  152SAPE  C22016816   3.600   3.513   5.135  0.5020  0.1482  0.2861
  152SAPE  H20R16817   3.596   3.525   5.025 -0.9339  2.0718  0.4991
  152SAPE  H20S16818   3.522   3.581   5.174  0.8256  0.6636  0.0468
  152SAPE  H20T16819   3.580   3.406   5.156 -0.2008  0.5162  1.5878
  152SAPE   C3316820   3.957   3.937   6.411 -0.5120 -0.3954  0.1505
  152SAPE   H3X16821   4.044   3.869   6.402  0.0928  0.1907  1.3431
  152SAPE   H3Y16822   4.004   4.027   6.455  1.5700 -1.0015 -0.7449
  152SAPE   C3416823   3.898   3.957   6.268  0.3689 -0.3953 -0.3363
  152SAPE   H4X16824   3.801   4.005   6.290  0.4144 -0.4832  0.0528
  152SAPE   H4Y16825   3.891   3.859   6.216 -3.0205 -0.5652  0.2177
  152SAPE   C3516826   3.997   4.046   6.181  0.3000 -1.0168 -0.3008
  152SAPE   H5X16827   4.102   4.015   6.196  0.4818 -0.1112  0.3652
  152SAPE   H5Y16828   3.988   4.146   6.228  0.2326 -1.0110 -0.3249
  152SAPE   C3616829   3.953   4.052   6.031  0.1140 -0.1967 -0.6039
  152SAPE   H6X16830   3.853   4.003   6.028  0.1459 -0.2435 -0.8723
  152SAPE   H6Y16831   4.018   3.999   5.959  0.1410  0.9516 -1.4585
  152SAPE   C3716832   3.944   4.197   5.979  0.4434 -0.3790  0.1259
  152SAPE   H7X16833   4.041   4.253   5.978  0.3655 -0.2493 -0.0817
  152SAPE   H7Y16834   3.879   4.249   6.053  0.6765  0.3846 -0.2002
  152SAPE   C3816835   3.887   4.208   5.839 -0.2370 -0.2088 -0.1032
  152SAPE   H8X16836   3.850   4.311   5.816  0.6707  0.2138  0.2668
  152SAPE   H8Y16837   3.799   4.143   5.820 -0.1498  0.0925 -1.7028
  152SAPE   C3916838   3.999   4.175   5.730  0.1530  0.3483  0.5845
  152SAPE   H9X16839   4.047   4.082   5.768 -0.9625 -0.3563  0.3023
  152SAPE   H9Y16840   4.080   4.251   5.723 -1.8450  2.4338 -1.9323
  152SAPE  C31016841   3.942   4.148   5.588 -0.4159  0.0696 -0.1522
  152SAPE  H10X16842   4.025   4.156   5.516  0.2470 -1.0339  0.4598
  152SAPE  H10Y16843   3.859   4.219   5.567 -0.4942  0.6846  2.0210
  152SAPE  C31116844   3.892   4.003   5.577  0.4223  0.3537 -0.2358
  152SAPE  H11X16845   3.840   3.973   5.670 -0.4811 -0.5920 -1.0184
  152SAPE  H11Y16846   3.983   3.943   5.556  0.4100  0.0517  0.5658
  152SAPE  C31216847   3.782   3.991   5.463 -0.1035 -0.3764 -0.0789
  152SAPE  H12X16848   3.703   4.067   5.482 -0.0205 -0.7236  1.9698
  152SAPE  H12Y16849   3.743   3.888   5.478  2.5139 -1.4846 -0.2514
  152SAPE  C31316850   3.835   4.011   5.321  0.3350  0.2232 -0.3118
  152SAPE  H13X16851   3.864   4.118   5.320  0.5133  0.2023 -2.9244
  152SAPE  H13Y16852   3.761   4.004   5.239 -0.1904 -1.0965  0.2388
  152SAPE  C31416853   3.952   3.923   5.284  0.6701 -0.0971  0.2579
  152SAPE  H14X16854   3.922   3.816   5.286 -0.9850  0.3411  1.9412
  152SAPE  H14Y16855   4.027   3.933   5.364  0.5813 -1.5570  0.5459
  152SAPE  C31516856   4.007   3.952   5.147  0.7758 -0.4578  0.0428
  152SAPE  H15X16857   3.936   3.934   5.064 -0.6222  1.8254  0.6504
  152SAPE  H15Y16858   4.084   3.876   5.122  1.7429  0.8165 -0.9144
  152SAPE  C31616859   4.074   4.083   5.125  0.3248 -0.5714 -0.2203
  152SAPE  H16X16860   4.168   4.080   5.184 -0.4866 -0.6792  1.1089
  152SAPE  H16Y16861   4.018   4.175   5.152 -0.4155 -1.3084  0.8455
  152SAPE  C31716862   4.141   4.100   4.982  0.3484 -0.8026  0.0563
  152SAPE  H17X16863   4.064   4.068   4.909 -0.9837  1.1761  0.5140
  152SAPE  H17Y16864   4.221   4.024   4.973 -1.0084 -2.1089 -1.7231
  152SAPE  C31816865   4.199   4.235   4.972  0.1331  0.2674  0.0071
  152SAPE  H18X16866   4.252   4.254   4.876 -0.6652  1.7868 -0.1763
  152SAPE  H18Y16867   4.282   4.254   5.043 -1.5875 -0.5682  2.3581
  152SAPE  H18Z16868   4.128   4.320   4.986 -0.2952  0.0242 -0.6443
  153SAPE     N16869   5.648   2.760   7.033  0.1072  0.5602 -0.8091
  153SAPE   HN116870   5.749   2.781   7.049  0.9532 -3.3973 -0.1034
  153SAPE   HN216871   5.644   2.718   6.938 -0.4793  0.3558 -0.6973
  153SAPE   HN316872   5.605   2.854   7.023 -0.2579  0.4924  0.0245
  153SAPE   C1216873   5.589   2.666   7.132 -0.5680 -0.0043  0.3331
  153SAPE  H12A16874   5.600   2.710   7.233  2.8131  0.4685 -0.1146
  153SAPE  H12B16875   5.643   2.569   7.125 -1.0740 -0.2302 -0.7162
  153SAPE   C1116876   5.445   2.631   7.076  0.3837 -0.2038  0.0453
  153SAPE  H11A16877   5.382   2.721   7.064 -0.9903 -1.2232 -0.6592
  153SAPE  H11B16878   5.397   2.562   7.149 -2.1293  0.8092 -0.5411
  153SAPE     P16879   5.334   2.518   6.871  0.2769 -0.2071  0.5637
  153SAPE   O1316880   5.368   2.450   6.745 -0.8438  0.5226 -0.0823
  153SAPE   O1416881   5.245   2.446   6.964  0.3636  0.7150 -0.3968
  153SAPE   O1216882   5.463   2.556   6.956 -0.8552  0.0748 -0.4452
  153SAPE   O1116883   5.260   2.657   6.823  0.3664  0.3284 -0.3436
  153SAPE    C116884   5.330   2.767   6.768  0.1848 -0.2048  0.2222
  153SAPE    HA16885   5.294   2.868   6.797  1.1227 -0.0852  1.0289
  153SAPE    HB16886   5.434   2.780   6.804  0.2624  2.5564 -0.8146
  153SAPE    C216887   5.333   2.762   6.616 -0.0774 -0.9452  0.3650
  153SAPE    HS16888   5.405   2.681   6.592 -0.1630 -0.3574 -2.1288
  153SAPE   O2116889   5.384   2.881   6.551  0.2426  0.3938  0.1723
  153SAPE   C2116890   5.512   2.905   6.554  0.8114 -0.2340  0.5549
  153SAPE   O2216891   5.594   2.838   6.605 -0.1635  0.1647  0.1543
  153SAPE   C2216892   5.543   3.039   6.490  0.3431 -0.2270 -0.1862
  153SAPE   H2R16893   5.498   3.128   6.538 -0.8854 -0.6658 -0.4897
  153SAPE   H2S16894   5.652   3.055   6.504  0.5543  0.2005 -2.0525
  153SAPE    C316895   5.200   2.720   6.549  0.3014  0.5132 -0.1625
  153SAPE    HX16896   5.126   2.775   6.611 -0.5847 -1.9740  1.1491
  153SAPE    HY16897   5.183   2.613   6.574  0.5044  0.0650 -1.8402
  153SAPE   O3116898   5.211   2.744   6.409 -0.0120 -0.0582  0.5834
  153SAPE   C3116899   5.264   2.640   6.347  0.2072 -0.9952  0.5342
  153SAPE   O3216900   5.284   2.529   6.393 -0.0729  0.5111 -0.0517
  153SAPE   C3216901   5.282   2.680   6.196  0.4050 -0.0008  0.7908
  153SAPE   H2X16902   5.369   2.750   6.191 -1.5079  2.4292 -0.5290
  153SAPE   H2Y16903   5.190   2.736   6.170 -0.6208 -1.3061  1.5260
  153SAPE   C2316904   5.504   3.038   6.343 -0.0003 -0.2017  0.6153
  153SAPE   H3R16905   5.532   3.141   6.311 -1.2740 -0.1444 -0.3945
  153SAPE   H3S16906   5.395   3.026   6.324 -0.1121  0.2807  0.9653
  153SAPE   C2416907   5.596   2.939   6.273 -0.0650 -0.2099 -0.5023
  153SAPE   H4R16908   5.564   2.936   6.167  0.7400 -1.0401 -0.7368
  153SAPE   H4S16909   5.581   2.841   6.324  1.7976  0.7081  2.0382
  153SAPE   C2516910   5.750   2.950   6.286 -0.0388 -0.7404  0.5172
  153SAPE   H5R16911   5.789   2.942   6.389  1.2651 -2.2406 -0.0563
  153SAPE   C2616912   5.843   2.969   6.194  0.1465 -1.0749  0.2106
  153SAPE   H6R16913   5.949   2.976   6.223  0.6256 -3.3150 -0.7446
  153SAPE   C2716914   5.820   2.990   6.049 -1.3332  0.0918  0.3257
  153SAPE   H7R16915   5.741   2.922   6.012 -1.0304  0.3713 -0.8879
  153SAPE   H7S16916   5.915   2.955   6.002  0.0271  0.2066  2.8460
  153SAPE   C2816917   5.790   3.132   6.008  0.4172  0.4228  0.2332
  153SAPE   H8R16918   5.745   3.185   6.093 -0.9140 -0.3188  0.0090
  153SAPE   C2916919   5.806   3.188   5.896 -0.1188  0.4299  0.2740
  153SAPE   H9R16920   5.802   3.297   5.914 -0.0532  0.8222 -1.8672
  153SAPE  C21016921   5.867   3.137   5.767 -0.6533  0.2287  0.6981
  153SAPE  H10R16922   5.938   3.053   5.778  0.9594  0.7897 -3.4057
  153SAPE  H10S16923   5.932   3.214   5.720 -1.7285  0.4987 -0.3917
  153SAPE  C21116924   5.766   3.112   5.658  0.8002  0.8595  0.1665
  153SAPE  H11R16925   5.721   3.196   5.604  3.2114  1.2509 -1.3821
  153SAPE  C21216926   5.726   2.985   5.632  0.1931 -0.3111 -0.4310
  153SAPE  H12R16927   5.656   2.964   5.549 -0.3432  0.9580 -0.3221
  153SAPE  C21316928   5.770   2.865   5.702 -0.0047 -0.1263 -0.5298
  153SAPE  H13R16929   5.811   2.882   5.804 -0.0841  0.2992 -0.5662
  153SAPE  H13S16930   5.857   2.821   5.649  1.4580  0.6449  1.1157
  153SAPE  C21416931   5.654   2.773   5.734 -0.5426  0.9761 -0.5936
  153SAPE  H14R16932   5.551   2.806   5.713 -0.7558  0.6692 -0.0603
  153SAPE  C21516933   5.671   2.639   5.769 -0.1974 -0.2756  0.1848
  153SAPE  H15R16934   5.582   2.577   5.784 -1.5289  1.2510 -1.0965
  153SAPE  C21616935   5.797   2.570   5.797 -0.3036 -0.2050 -0.0149
  153SAPE  H16R16936   5.871   2.635   5.746 -2.6113  1.7270 -1.1059
  153SAPE  H16S16937   5.817   2.471   5.749 -0.3675 -0.8577  1.2575
  153SAPE  C21716938   5.831   2.544   5.947 -0.2382 -0.9428 -0.2927
  153SAPE  H17R16939   5.842   2.641   6.001 -0.0339 -0.7919 -0.6052
  153SAPE  H17S16940   5.926   2.488   5.957 -1.0487 -2.5413 -1.2447
  153SAPE  C21816941   5.725   2.452   6.021  0.3951 -0.4310 -0.4264
  153SAPE  H18R16942   5.733   2.353   5.971  0.1550  0.1877 -1.7437
  153SAPE  H18S16943   5.628   2.503   6.005 -0.3887  0.1315  4.4953
  153SAPE  C21916944   5.723   2.444   6.170  0.3082  0.9112  0.0260
  153SAPE  H19R16945   5.826   2.413   6.199  1.7429  3.3807 -2.0603
  153SAPE  H19S16946   5.640   2.375   6.199 -0.0171  1.4626  0.4240
  153SAPE  C22016947   5.699   2.576   6.235  0.0398  0.1935 -0.6019
  153SAPE  H20R16948   5.602   2.614   6.196 -0.9733 -2.1533 -0.5941
  153SAPE  H20S16949   5.783   2.644   6.213  0.7256  0.2646  1.8736
  153SAPE  H20T16950   5.678   2.575   6.345  1.4528 -0.6934 -0.3172
  153SAPE   C3316951   5.321   2.562   6.100 -0.4738 -0.3609  0.2515
  153SAPE   H3X16952   5.226   2.513   6.070 -0.4365 -1.4219  1.7705
  153SAPE   H3Y16953   5.390   2.496   6.158 -0.8227  0.2409  1.3720
  153SAPE   C3416954   5.386   2.615   5.973 -0.0916  0.4901 -0.2432
  153SAPE   H4X16955   5.415   2.529   5.909  0.8676 -1.3035  2.4318
  153SAPE   H4Y16956   5.479   2.673   5.993 -0.1954  0.6895 -0.3321
  153SAPE   C3516957   5.295   2.711   5.888 -0.3887 -0.1528 -0.8646
  153SAPE   H5X16958   5.186   2.688   5.895 -0.2916 -0.3824 -0.0181
  153SAPE   H5Y16959   5.328   2.694   5.783  0.7384 -2.5977 -0.1779
  153SAPE   C3616960   5.324   2.861   5.913  0.1678  0.1318 -0.0573
  153SAPE   H6X16961   5.426   2.872   5.955  0.4702 -0.8359 -0.4997
  153SAPE   H6Y16962   5.253   2.889   5.993 -0.4221 -2.0171  0.2501
  153SAPE   C3716963   5.313   2.957   5.789  0.1623 -0.1865 -0.1487
  153SAPE   H7X16964   5.398   2.944   5.719 -0.8980 -2.9506 -1.0560
  153SAPE   H7Y16965   5.325   3.059   5.831  0.0928  0.5155 -1.7321
  153SAPE   C3816966   5.181   2.944   5.707  0.0646  0.2571 -0.2036
  153SAPE   H8X16967   5.092   2.940   5.774 -0.6041 -0.4719 -1.1027
  153SAPE   H8Y16968   5.162   2.848   5.653 -2.6707  1.3834 -1.4588
  153SAPE   C3916969   5.173   3.038   5.591 -0.4002  0.0189 -0.1710
  153SAPE   H9X16970   5.254   3.016   5.519 -0.4910  0.3975 -0.3907
  153SAPE   H9Y16971   5.185   3.145   5.619 -1.4070  0.6624 -2.0203
  153SAPE  C31016972   5.046   3.011   5.511  1.0715 -0.2244  0.3366
  153SAPE  H10X16973   4.981   3.096   5.540  2.6148  1.5674 -1.2181
  153SAPE  H10Y16974   5.002   2.917   5.551  0.1627 -0.1609 -0.4779
  153SAPE  C31116975   5.073   2.999   5.361  0.6229  0.1457  0.0640
  153SAPE  H11X16976   5.150   2.920   5.353  0.7388  0.1440  0.9993
  153SAPE  H11Y16977   5.110   3.094   5.315 -0.4839  0.0737 -1.0227
  153SAPE  C31216978   4.947   2.954   5.283  0.0990 -0.2520 -0.3151
  153SAPE  H12X16979   4.878   3.041   5.293  0.9197  0.1843  2.0702
  153SAPE  H12Y16980   4.905   2.865   5.335 -1.1601 -0.1079 -1.0221
  153SAPE  C31316981   4.970   2.927   5.135  0.4744 -0.1283  0.6976
  153SAPE  H13X16982   5.043   2.845   5.117 -0.5099 -0.7600 -0.6209
  153SAPE  H13Y16983   5.010   3.024   5.098 -1.3184  0.0519 -0.9274
  153SAPE  C31416984   4.844   2.900   5.053 -0.7564 -0.1547  0.2471
  153SAPE  H14X16985   4.753   2.963   5.062  0.7959  2.2638 -0.1279
  153SAPE  H14Y16986   4.810   2.795   5.068  2.5172 -1.7764 -2.3587
  153SAPE  C31516987   4.868   2.911   4.899  0.3555  0.0390 -0.3802
  153SAPE  H15X16988   4.948   2.840   4.869  1.2069  1.2371 -1.0265
  153SAPE  H15Y16989   4.911   3.012   4.885 -0.2066  0.2751 -0.4220
  153SAPE  C31616990   4.738   2.892   4.821 -0.0161  0.7436  1.1702
  153SAPE  H16X16991   4.660   2.966   4.850  0.4280  1.3237  0.8812
  153SAPE  H16Y16992   4.708   2.785   4.834 -2.4109  1.3249  0.8969
  153SAPE  C31716993   4.748   2.921   4.667  0.1956  0.4217  0.2191
  153SAPE  H17X16994   4.661   2.871   4.618 -0.7305 -0.8695  2.9931
  153SAPE  H17Y16995   4.830   2.866   4.616 -2.7807 -2.2516 -2.1022
  153SAPE  C31816996   4.748   3.076   4.634  0.3008 -0.1636  0.2199
  153SAPE  H18X16997   4.755   3.080   4.523 -0.0499 -0.1513  0.1994
  153SAPE  H18Y16998   4.840   3.108   4.688  0.4074 -0.9577  0.5269
  153SAPE  H18Z16999   4.655   3.120   4.674  0.5097 -0.3944  0.9762
  154SAPE     N17000   4.442   2.766   7.098  0.2497  0.6923 -0.1253
  154SAPE   HN117001   4.344   2.799   7.102  0.5325  1.4351  2.1193
  154SAPE   HN217002   4.501   2.852   7.097 -1.0444  1.6039 -1.0072
  154SAPE   HN317003   4.463   2.706   7.015 -3.7778 -2.4810  0.8320
  154SAPE   C1217004   4.451   2.666   7.211 -0.5117  0.2536  0.2105
  154SAPE  H12A17005   4.401   2.709   7.299  2.5760 -0.0623  2.2905
  154SAPE  H12B17006   4.561   2.652   7.224 -0.5269 -2.2790 -1.4874
  154SAPE   C1117007   4.398   2.529   7.162  0.6740 -0.0463 -0.3837
  154SAPE  H11A17008   4.399   2.456   7.246  0.5149 -0.7510 -0.9785
  154SAPE  H11B17009   4.464   2.493   7.080  0.6158  0.8700 -0.8470
  154SAPE     P17010   4.136   2.467   7.172 -0.4340 -0.0961 -0.2887
  154SAPE   O1317011   4.172   2.391   7.293 -0.1460  0.0410  0.1375
  154SAPE   O1417012   4.020   2.552   7.179  0.2280  0.3088  0.0534
  154SAPE   O1217013   4.259   2.554   7.120 -0.8389  0.2919 -0.2750
  154SAPE   O1117014   4.119   2.367   7.051 -0.2075  0.0068 -0.4556
  154SAPE    C117015   4.219   2.314   6.969 -0.0662  0.3526 -0.3770
  154SAPE    HA17016   4.321   2.341   7.004 -0.4359  0.4604  0.6713
  154SAPE    HB17017   4.214   2.203   6.971  0.7162  0.3031 -1.1767
  154SAPE    C217018   4.203   2.375   6.831  0.1568 -0.3704  0.2667
  154SAPE    HS17019   4.183   2.483   6.849 -1.9914 -0.6081 -0.3686
  154SAPE   O2117020   4.107   2.302   6.761 -0.1764 -0.2011 -1.0268
  154SAPE   C2117021   3.993   2.359   6.746 -0.9975 -0.9279  0.2518
  154SAPE   O2217022   3.952   2.461   6.805 -0.2646 -0.2656 -0.1625
  154SAPE   C2217023   3.923   2.287   6.633 -1.0432  0.0485  0.2324
  154SAPE   H2R17024   3.952   2.359   6.553  1.8132  1.5594  2.4294
  154SAPE   H2S17025   3.964   2.188   6.605 -1.4947  0.0238 -0.3580
  154SAPE    C317026   4.342   2.371   6.747 -0.0375 -0.5873 -0.8047
  154SAPE    HX17027   4.382   2.268   6.755  1.8877  0.1993  0.5270
  154SAPE    HY17028   4.429   2.430   6.784 -0.8020  0.4099 -0.5547
  154SAPE   O3117029   4.306   2.407   6.610 -0.8531  0.0911 -0.8241
  154SAPE   C3117030   4.369   2.506   6.555  0.6101  0.6510  0.1995
  154SAPE   O3217031   4.448   2.580   6.609  0.2169 -0.6437 -0.2697
  154SAPE   C3217032   4.328   2.501   6.404 -0.1061 -0.2990 -0.1233
  154SAPE   H2X17033   4.236   2.441   6.390 -0.3617  0.2293 -0.7856
  154SAPE   H2Y17034   4.412   2.444   6.357 -0.9904 -0.0427 -2.1310
  154SAPE   C2317035   3.777   2.262   6.663  0.2561 -0.6754 -0.5375
  154SAPE   H3R17036   3.740   2.218   6.568 -0.2533 -1.3095 -0.0548
  154SAPE   H3S17037   3.724   2.355   6.690 -0.3494 -1.1252 -0.1567
  154SAPE   C2417038   3.762   2.164   6.780 -0.1058  0.4678 -0.1186
  154SAPE   H4R17039   3.811   2.207   6.870  0.8639 -0.5119 -0.1566
  154SAPE   H4S17040   3.789   2.063   6.744 -1.9248 -0.3576  0.7014
  154SAPE   C2517041   3.614   2.151   6.815 -0.3769  0.1900 -0.4340
  154SAPE   H5R17042   3.581   2.217   6.896  2.0280  0.0751  0.7498
  154SAPE   C2617043   3.528   2.057   6.765 -0.1913  0.1007 -0.2950
  154SAPE   H6R17044   3.422   2.074   6.788 -0.6445  1.8948 -3.1659
  154SAPE   C2717045   3.551   1.965   6.651  0.8213 -0.4447 -0.2448
  154SAPE   H7R17046   3.638   2.001   6.592  0.1585  1.2715 -0.2369
  154SAPE   H7S17047   3.459   1.967   6.589 -0.6576  0.1718  1.8798
  154SAPE   C2817048   3.582   1.826   6.699 -0.1360  0.1584  0.5349
  154SAPE   H8R17049   3.568   1.810   6.807 -0.2656 -0.0512  0.4869
  154SAPE   C2917050   3.638   1.720   6.627 -0.0197  0.1083  0.3382
  154SAPE   H9R17051   3.650   1.628   6.686 -1.1333  0.1473  0.6421
  154SAPE  C21017052   3.665   1.720   6.479 -0.7513  0.1193 -0.0427
  154SAPE  H10R17053   3.575   1.744   6.418 -0.6796 -0.3066 -0.3203
  154SAPE  H10S17054   3.684   1.615   6.448  1.8474  0.2027  1.0562
  154SAPE  C21117055   3.780   1.801   6.427 -0.0421 -0.9023  0.2409
  154SAPE  H11R17056   3.874   1.787   6.483  1.1096 -1.6089 -1.7562
  154SAPE  C21217057   3.784   1.872   6.306  0.0646 -0.4263 -0.1677
  154SAPE  H12R17058   3.869   1.939   6.283 -0.1242 -0.4492 -0.9495
  154SAPE  C21317059   3.663   1.877   6.204  0.1148  0.0814 -0.0121
  154SAPE  H13R17060   3.668   1.981   6.164  3.6523  0.4522  1.0621
  154SAPE  H13S17061   3.568   1.859   6.260  1.5345 -1.4411  2.0217
  154SAPE  C21417062   3.655   1.770   6.102 -0.0948 -0.2254 -0.0385
  154SAPE  H14R17063   3.695   1.674   6.137 -0.4265 -0.3138  0.1069
  154SAPE  C21517064   3.581   1.763   5.991 -0.2962  0.3078 -0.4591
  154SAPE  H15R17065   3.579   1.670   5.931  0.7939  0.4978 -0.8060
  154SAPE  C21617066   3.518   1.881   5.934 -0.5906  0.4495 -0.1214
  154SAPE  H16R17067   3.540   1.976   5.987 -1.4177 -0.6320  2.2749
  154SAPE  H16S17068   3.407   1.883   5.933 -0.6279  3.1358  0.8184
  154SAPE  C21717069   3.565   1.909   5.793 -0.3862  0.6515  0.1749
  154SAPE  H17R17070   3.673   1.936   5.786  0.0253 -1.1910 -1.4767
  154SAPE  H17S17071   3.517   2.002   5.755  0.5323  1.0906  0.0555
  154SAPE  C21817072   3.567   1.799   5.681 -0.1857  0.8031 -0.3221
  154SAPE  H18R17073   3.651   1.730   5.701 -1.0434  0.1243  1.1724
  154SAPE  H18S17074   3.576   1.848   5.582 -0.2230  2.3197  0.3798
  154SAPE  C21917075   3.437   1.720   5.665  0.0084  0.6114  0.6822
  154SAPE  H19R17076   3.349   1.785   5.649 -3.2708 -2.6355  3.5754
  154SAPE  H19S17077   3.409   1.670   5.760  0.9050  1.1447  1.2435
  154SAPE  C22017078   3.438   1.609   5.559 -0.1804  0.5553 -0.0145
  154SAPE  H20R17079   3.433   1.659   5.460 -0.3947 -0.9724 -0.8045
  154SAPE  H20S17080   3.353   1.543   5.585  1.5419 -1.9967 -0.5264
  154SAPE  H20T17081   3.535   1.556   5.554 -0.3957  0.2479 -1.5979
  154SAPE   C3317082   4.316   2.641   6.332 -0.1205  0.5540  0.7207
  154SAPE   H3X17083   4.407   2.702   6.350  0.2735 -0.6215  3.1566
  154SAPE   H3Y17084   4.235   2.696   6.385  1.5483  1.9037  1.9868
  154SAPE   C3417085   4.275   2.615   6.186 -0.1094 -0.0909  0.5156
  154SAPE   H4X17086   4.223   2.704   6.143  0.7069 -0.4278 -1.2505
  154SAPE   H4Y17087   4.197   2.537   6.179  0.5733 -0.6834 -1.1429
  154SAPE   C3517088   4.396   2.591   6.096 -0.2089  0.7411 -0.2954
  154SAPE   H5X17089   4.469   2.538   6.161 -0.7594  1.1983  0.7070
  154SAPE   H5Y17090   4.452   2.685   6.081 -1.0807  1.7672  2.3638
  154SAPE   C3617091   4.371   2.508   5.974  0.5083 -0.8170  0.9735
  154SAPE   H6X17092   4.298   2.429   6.004  0.1834 -0.8031  0.2368
  154SAPE   H6Y17093   4.460   2.453   5.937  0.4926  0.2373 -0.7345
  154SAPE   C3717094   4.314   2.584   5.860  0.4389 -0.1461  0.8045
  154SAPE   H7X17095   4.383   2.665   5.828  0.0745  0.2886  1.0895
  154SAPE   H7Y17096   4.225   2.639   5.898  0.9955  0.4092  1.3350
  154SAPE   C3817097   4.270   2.493   5.742 -0.0261  0.0178  0.5210
  154SAPE   H8X17098   4.210   2.408   5.780  1.1370 -0.9935  0.1840
  154SAPE   H8Y17099   4.363   2.440   5.710 -0.7787 -0.2585 -1.3146
  154SAPE   C3917100   4.197   2.573   5.641  0.1397 -0.5202 -0.8754
  154SAPE   H9X17101   4.250   2.670   5.645  0.5430 -0.7355 -1.0238
  154SAPE   H9Y17102   4.094   2.603   5.673  0.8999 -0.1673  1.4001
  154SAPE  C31017103   4.217   2.518   5.502  0.3814  1.1624  0.3627
  154SAPE  H10X17104   4.323   2.528   5.470  1.0891 -1.6185  1.5508
  154SAPE  H10Y17105   4.160   2.589   5.438 -0.8580 -1.0953 -1.1745
  154SAPE  C31117106   4.154   2.377   5.469 -0.5056 -0.3654  0.1208
  154SAPE  H11X17107   4.054   2.367   5.516 -1.2088 -2.0097 -1.5804
  154SAPE  H11Y17108   4.214   2.307   5.531 -2.6392 -1.2705  1.2693
  154SAPE  C31217109   4.166   2.351   5.316  0.7512 -0.1673 -0.3986
  154SAPE  H12X17110   4.268   2.331   5.279 -0.3576 -2.0579 -2.6760
  154SAPE  H12Y17111   4.128   2.436   5.255 -2.8023 -0.4133  1.2025
  154SAPE  C31317112   4.090   2.231   5.264 -0.3743  0.0590 -0.7216
  154SAPE  H13X17113   3.999   2.229   5.328 -0.2201  3.2942 -0.2266
  154SAPE  H13Y17114   4.154   2.141   5.273 -0.4528 -0.4529 -4.0951
  154SAPE  C31417115   4.047   2.241   5.118  0.2799 -0.2259 -0.3899
  154SAPE  H14X17116   4.144   2.270   5.071  1.7132 -2.0732  1.2228
  154SAPE  H14Y17117   3.975   2.324   5.104  0.0841 -0.2416  0.4502
  154SAPE  C31517118   3.999   2.112   5.072 -0.1050  0.3800 -0.0623
  154SAPE  H15X17119   3.904   2.089   5.123  1.0640 -1.6883  1.3160
  154SAPE  H15Y17120   4.070   2.031   5.101  0.5355  1.7680  2.6044
  154SAPE  C31617121   3.980   2.102   4.924 -0.0687 -0.1065  0.1337
  154SAPE  H16X17122   4.076   2.112   4.868  0.6033  0.3994  1.3537
  154SAPE  H16Y17123   3.914   2.187   4.895 -0.1950  0.1038  1.0229
  154SAPE  C31717124   3.910   1.974   4.877  0.2498 -0.0963 -0.0095
  154SAPE  H17X17125   3.802   1.982   4.900  0.4881  0.3963  0.9732
  154SAPE  H17Y17126   3.955   1.885   4.927  0.7665 -0.6896 -1.4520
  154SAPE  C31817127   3.918   1.946   4.722  0.0222 -0.0782 -0.3161
  154SAPE  H18X17128   4.022   1.946   4.683  0.5528 -0.5476  1.0419
  154SAPE  H18Y17129   3.861   2.027   4.671  1.8586  1.9314  0.6340
  154SAPE  H18Z17130   3.868   1.849   4.702 -1.0573  0.2128  0.7812
  155SAPE     N17131   5.046   1.807   7.033 -0.2782  0.3042  0.4840
  155SAPE   HN117132   5.002   1.832   6.942 -0.6701 -0.3512  0.4910
  155SAPE   HN217133   5.140   1.774   7.002  1.3012  2.4449  2.6751
  155SAPE   HN317134   4.982   1.736   7.072  0.0875  0.6026  1.6583
  155SAPE   C1217135   5.080   1.922   7.113  0.2273 -0.4786 -0.2378
  155SAPE  H12A17136   5.154   1.978   7.051  0.9034 -0.8845  0.1892
  155SAPE  H12B17137   5.139   1.890   7.201  3.3116 -2.0119 -2.6444
  155SAPE   C1117138   4.955   2.004   7.139 -0.3324  0.6528 -0.3888
  155SAPE  H11A17139   4.909   2.058   7.054  0.3786  2.6046  0.3988
  155SAPE  H11B17140   4.981   2.089   7.205 -0.8816 -0.0517  0.7762
  155SAPE     P17141   4.713   1.912   7.180 -0.2964 -0.3179  0.1375
  155SAPE   O1317142   4.643   1.838   7.286  0.2314  0.4694  0.0418
  155SAPE   O1417143   4.653   2.041   7.127  0.1645 -0.4360  0.0497
  155SAPE   O1217144   4.859   1.933   7.222  0.0029  0.0684  0.1131
  155SAPE   O1117145   4.744   1.825   7.060  0.5295  0.5489 -0.2021
  155SAPE    C117146   4.666   1.713   7.012 -0.4104 -0.0688  0.4583
  155SAPE    HA17147   4.696   1.624   7.071 -2.6613 -1.0144  0.2477
  155SAPE    HB17148   4.559   1.739   7.022 -1.1078 -0.8714 -3.1914
  155SAPE    C217149   4.697   1.678   6.862  0.1291 -0.1380 -0.0310
  155SAPE    HS17150   4.803   1.643   6.867  0.0259 -0.3321  0.7865
  155SAPE   O2117151   4.678   1.789   6.770  0.4633 -0.9903 -0.1399
  155SAPE   C2117152   4.788   1.867   6.760  0.6482  0.8503 -0.3344
  155SAPE   O2217153   4.896   1.835   6.814  0.2324  0.3330  0.0669
  155SAPE   C2217154   4.766   1.991   6.678 -0.4686  0.0015  0.7816
  155SAPE   H2R17155   4.698   2.057   6.735 -1.4376 -0.9518  0.7642
  155SAPE   H2S17156   4.865   2.042   6.682 -0.3757  0.1627 -1.7270
  155SAPE    C317157   4.620   1.556   6.812  0.1008 -0.3409 -0.0457
  155SAPE    HX17158   4.512   1.553   6.838  0.2736 -2.2530  0.6084
  155SAPE    HY17159   4.645   1.461   6.864 -0.9588  0.9364  2.9930
  155SAPE   O3117160   4.638   1.545   6.672  0.3344 -0.1727  0.3021
  155SAPE   C3117161   4.546   1.588   6.590 -0.4752 -0.4587  0.3058
  155SAPE   O3217162   4.435   1.638   6.608 -0.1852  0.9807 -0.3977
  155SAPE   C3217163   4.590   1.552   6.453  0.0627 -0.0945  0.0320
  155SAPE   H2X17164   4.584   1.441   6.448  1.9165 -0.1858 -1.3919
  155SAPE   H2Y17165   4.700   1.565   6.449  0.1524 -0.9632 -0.9484
  155SAPE   C2317166   4.711   1.968   6.539  0.6812  0.0924 -0.5584
  155SAPE   H3R17167   4.695   2.067   6.491  0.7264  0.6571  0.5726
  155SAPE   H3S17168   4.613   1.917   6.545  0.5834  0.2436 -0.8150
  155SAPE   C2417169   4.808   1.888   6.445 -0.3017 -0.6567 -0.5404
  155SAPE   H4R17170   4.756   1.882   6.347  3.0082  3.9342 -2.9860
  155SAPE   H4S17171   4.834   1.786   6.480  0.7562  0.0344  0.7989
  155SAPE   C2517172   4.937   1.957   6.419 -1.0791 -0.7005 -0.0387
  155SAPE   H5R17173   4.999   1.981   6.507  0.4242  0.7488 -1.4188
  155SAPE   C2617174   4.986   1.992   6.293  0.5645 -0.0348  0.2030
  155SAPE   H6R17175   5.075   2.057   6.295  1.0707 -0.7224  1.4796
  155SAPE   C2717176   4.919   1.977   6.160 -0.5495  0.1720 -0.2842
  155SAPE   H7R17177   4.961   2.064   6.105  0.8935  0.8476  1.7558
  155SAPE   H7S17178   4.811   1.995   6.176 -0.3812 -0.3426  1.8014
  155SAPE   C2817179   4.922   1.850   6.087  0.0615  1.4870  0.7090
  155SAPE   H8R17180   4.915   1.761   6.151  1.0199  1.6101  1.0027
  155SAPE   C2917181   4.932   1.839   5.953 -0.7471  0.0562 -0.3897
  155SAPE   H9R17182   4.944   1.740   5.907 -0.0600  0.0204 -0.1366
  155SAPE  C21017183   4.921   1.947   5.852 -0.5595  0.1102 -0.4248
  155SAPE  H10R17184   4.878   2.043   5.885  2.1401  1.7899 -1.3923
  155SAPE  H10S17185   4.847   1.916   5.775 -1.7787  0.5614  0.5458
  155SAPE  C21117186   5.060   1.970   5.802  0.4881 -0.6059  0.0298
  155SAPE  H11R17187   5.122   2.040   5.861  0.4747 -1.6734  1.3641
  155SAPE  C21217188   5.112   1.928   5.684 -0.0249 -0.3651 -0.1270
  155SAPE  H12R17189   5.212   1.967   5.661 -0.4195  0.8424  0.1302
  155SAPE  C21317190   5.034   1.840   5.589  0.5222  0.8061 -0.5988
  155SAPE  H13R17191   4.970   1.908   5.528 -1.5398  1.0467  1.6905
  155SAPE  H13S17192   4.962   1.784   5.652  0.0671  0.6499 -1.2572
  155SAPE  C21417193   5.114   1.739   5.503  0.3574 -0.0022 -0.4354
  155SAPE  H14R17194   5.143   1.648   5.557 -0.3048 -1.0209 -1.7467
  155SAPE  C21517195   5.160   1.756   5.377  0.3863  0.4436  0.7349
  155SAPE  H15R17196   5.191   1.670   5.316  2.7725  1.8776 -0.2078
  155SAPE  C21617197   5.128   1.880   5.296  0.1278 -1.1863 -0.1843
  155SAPE  H16R17198   5.040   1.933   5.337  0.6239  0.0661 -0.6886
  155SAPE  H16S17199   5.103   1.850   5.192  1.2253  0.6210 -1.0000
  155SAPE  C21717200   5.243   1.989   5.289  0.4326  0.3714  0.0141
  155SAPE  H17R17201   5.261   2.015   5.396 -1.7639 -1.4151  0.8967
  155SAPE  H17S17202   5.194   2.075   5.240 -0.0104 -1.1390 -2.3398
  155SAPE  C21817203   5.363   1.942   5.217 -0.1190  0.0690 -0.4122
  155SAPE  H18R17204   5.400   1.846   5.258  1.8162  1.4177  1.2489
  155SAPE  H18S17205   5.439   2.022   5.229  1.4897 -1.5424  0.7508
  155SAPE  C21917206   5.344   1.928   5.066  0.4733 -0.1074  0.0702
  155SAPE  H19R17207   5.276   1.842   5.049 -0.1801  0.5712 -0.8780
  155SAPE  H19S17208   5.443   1.900   5.024  0.5127  1.9752 -1.3844
  155SAPE  C22017209   5.304   2.052   4.994  0.6948 -0.4962  0.1527
  155SAPE  H20R17210   5.223   2.105   5.048  1.5236 -0.5240  1.4799
  155SAPE  H20S17211   5.269   2.016   4.895 -1.8869 -3.0431  1.8188
  155SAPE  H20T17212   5.395   2.115   4.989  0.1428  0.4773  1.7919
  155SAPE   C3317213   4.528   1.618   6.329 -0.0652  0.7437 -0.8990
  155SAPE   H3X17214   4.527   1.727   6.350  1.5622  0.1642  3.1255
  155SAPE   H3Y17215   4.421   1.589   6.331  0.5609 -1.7246  0.8195
  155SAPE   C3417216   4.602   1.585   6.206  0.5496  0.0557  1.0923
  155SAPE   H4X17217   4.591   1.478   6.180 -2.5944  0.6384 -0.3684
  155SAPE   H4Y17218   4.712   1.602   6.211  0.6604 -0.2579 -0.0855
  155SAPE   C3517219   4.555   1.673   6.083 -0.4423  0.3947  1.3168
  155SAPE   H5X17220   4.589   1.779   6.084 -0.8335  0.5358  0.5343
  155SAPE   H5Y17221   4.445   1.674   6.070 -0.3118  0.3250 -0.0322
  155SAPE   C3617222   4.613   1.607   5.955  0.3645 -0.1825  0.0258
  155SAPE   H6X17223   4.568   1.505   5.951  3.1062 -1.4696 -0.9937
  155SAPE   H6Y17224   4.724   1.598   5.963  0.4242 -0.6512 -1.1147
  155SAPE   C3717225   4.593   1.676   5.824  0.3081 -0.5130  0.2841
  155SAPE   H7X17226   4.632   1.779   5.835  0.3491 -0.5468  0.4659
  155SAPE   H7Y17227   4.489   1.687   5.787  0.2374 -1.3153  0.2175
  155SAPE   C3817228   4.658   1.600   5.713  0.6454 -1.0586  0.7592
  155SAPE   H8X17229   4.608   1.502   5.708 -0.0063 -0.6698 -0.9684
  155SAPE   H8Y17230   4.766   1.578   5.726  0.9860 -0.4263 -0.7941
  155SAPE   C3917231   4.638   1.667   5.576  0.1491 -0.7108  0.6215
  155SAPE   H9X17232   4.694   1.763   5.578  0.2163 -0.7051 -0.4860
  155SAPE   H9Y17233   4.531   1.670   5.547  0.1010 -2.7354  0.5016
  155SAPE  C31017234   4.710   1.597   5.462  0.0151  0.1765  0.2161
  155SAPE  H10X17235   4.686   1.488   5.470  1.0741 -0.1376 -0.6868
  155SAPE  H10Y17236   4.815   1.600   5.498 -0.4352  0.8919  1.5229
  155SAPE  C31117237   4.695   1.659   5.321 -0.3367  1.2023  0.5205
  155SAPE  H11X17238   4.737   1.762   5.334 -2.3809  2.4661 -1.9691
  155SAPE  H11Y17239   4.589   1.661   5.290 -0.8461 -0.8180  1.9459
  155SAPE  C31217240   4.777   1.583   5.216  0.2745 -1.2658  0.1538
  155SAPE  H12X17241   4.741   1.479   5.202  0.5650 -1.3439 -0.0201
  155SAPE  H12Y17242   4.876   1.585   5.267  0.3117 -0.2779  0.0723
  155SAPE  C31317243   4.805   1.670   5.093 -0.1684 -0.0383 -0.0627
  155SAPE  H13X17244   4.816   1.774   5.130 -1.6102  0.8072 -1.8593
  155SAPE  H13Y17245   4.716   1.674   5.026 -0.1377 -1.0211 -0.1725
  155SAPE  C31417246   4.937   1.651   5.011 -0.0444 -0.9574  0.2335
  155SAPE  H14X17247   4.932   1.557   4.953 -3.2059 -1.7271  1.5191
  155SAPE  H14Y17248   5.025   1.640   5.078 -0.1326  0.1267  0.5510
  155SAPE  C31517249   4.958   1.767   4.907 -0.3673 -0.1516  0.6176
  155SAPE  H15X17250   4.974   1.865   4.957 -0.7947 -0.3512  1.1506
  155SAPE  H15Y17251   4.864   1.763   4.847  0.0798 -2.7214  0.0027
  155SAPE  C31617252   5.076   1.736   4.812  0.0435 -0.9042  0.0500
  155SAPE  H16X17253   5.077   1.630   4.778 -0.9780 -2.2255  3.6931
  155SAPE  H16Y17254   5.167   1.751   4.875  0.7933 -0.8328 -1.0092
  155SAPE  C31717255   5.094   1.838   4.699  0.2131 -0.2695  0.2573
  155SAPE  H17X17256   5.107   1.937   4.748 -1.3220  0.1875 -0.1962
  155SAPE  H17Y17257   5.005   1.856   4.635 -0.2876 -2.1143  0.3633
  155SAPE  C31817258   5.221   1.804   4.617 -0.2584 -0.1559  0.5873
  155SAPE  H18X17259   5.255   1.879   4.543 -1.7391  0.3628  0.3920
  155SAPE  H18Y17260   5.200   1.711   4.559 -0.0233 -1.7381  2.9024
  155SAPE  H18Z17261   5.306   1.779   4.684  0.0294 -0.1322  0.2340
  156SAPE     N17262   0.601   4.373   7.503  0.6162  0.2250  0.0144
  156SAPE   HN117263   0.645   4.454   7.454  0.5351 -0.6512 -1.5885
  156SAPE   HN217264   0.648   4.373   7.596  1.7666 -1.8058 -0.4943
  156SAPE   HN317265   0.643   4.301   7.439 -0.1651 -0.1106 -0.1309
  156SAPE   C1217266   0.453   4.393   7.511  0.1798  0.2366  0.6903
  156SAPE  H12A17267   0.430   4.479   7.577 -0.7522 -1.3585  2.5283
  156SAPE  H12B17268   0.417   4.299   7.558  2.6944 -1.0342  0.2737
  156SAPE   C1117269   0.401   4.423   7.367  0.4775 -0.5064  0.3989
  156SAPE  H11A17270   0.461   4.364   7.295 -1.7730 -4.5261  1.4988
  156SAPE  H11B17271   0.415   4.532   7.349 -0.8912  0.5162  4.3744
  156SAPE     P17272   0.206   4.242   7.320  0.3906 -0.0020  0.3636
  156SAPE   O1317273   0.226   4.153   7.439  0.3531 -0.3902  0.2843
  156SAPE   O1417274   0.069   4.244   7.272  0.3615  0.2502 -0.1670
  156SAPE   O1217275   0.262   4.387   7.361  0.5640 -1.1556  0.0037
  156SAPE   O1117276   0.299   4.208   7.198 -0.2091 -0.3150  0.1325
  156SAPE    C117277   0.259   4.243   7.063  0.3887 -0.8483  0.0226
  156SAPE    HA17278   0.163   4.190   7.044  0.9314 -1.7409 -0.2565
  156SAPE    HB17279   0.243   4.352   7.048 -0.7117 -0.8377  1.0814
  156SAPE    C217280   0.359   4.202   6.958 -0.2307 -0.0364 -0.1917
  156SAPE    HS17281   0.398   4.106   6.999  1.1748  0.3792 -0.5028
  156SAPE   O2117282   0.464   4.303   6.960 -0.3858  0.1032 -0.0398
  156SAPE   C2117283   0.578   4.266   6.919  0.3346  0.6154 -0.4060
  156SAPE   O2217284   0.609   4.158   6.869 -0.1749 -0.1664  0.3150
  156SAPE   C2217285   0.670   4.380   6.942  0.3180  0.4956 -0.4247
  156SAPE   H2R17286   0.621   4.472   6.981 -0.6128  0.2671 -1.0066
  156SAPE   H2S17287   0.738   4.364   7.028 -1.2199  0.5070  0.8228
  156SAPE    C317288   0.309   4.177   6.818 -1.3159  0.3788 -0.5852
  156SAPE    HX17289   0.396   4.173   6.750 -1.1109 -0.0136 -0.3030
  156SAPE    HY17290   0.246   4.263   6.786 -0.0877  1.6464  0.2788
  156SAPE   O3117291   0.239   4.055   6.827 -0.2498  0.3817  0.1382
  156SAPE   C3117292   0.163   4.028   6.720 -0.6343  0.2413  0.3013
  156SAPE   O3217293   0.143   4.109   6.632  0.1591  0.2887  0.3731
  156SAPE   C3217294   0.132   3.878   6.722 -0.0810 -0.1173 -0.2763
  156SAPE   H2X17295   0.087   3.848   6.820  3.6388  2.0101  2.3454
  156SAPE   H2Y17296   0.232   3.830   6.728  1.0969  1.8005 -2.8470
  156SAPE   C2317297   0.754   4.409   6.817  0.0916 -0.2193 -0.1984
  156SAPE   H3R17298   0.802   4.315   6.781  0.7758 -1.1410  2.7779
  156SAPE   H3S17299   0.837   4.477   6.845 -0.0255  0.3443 -1.1871
  156SAPE   C2417300   0.676   4.485   6.709 -0.3145  0.6158 -0.3550
  156SAPE   H4R17301   0.752   4.496   6.630 -0.2918 -0.6161 -0.5180
  156SAPE   H4S17302   0.653   4.591   6.733  2.1821  1.3859 -1.0272
  156SAPE   C2517303   0.560   4.417   6.645 -0.1877 -0.7674 -0.5214
  156SAPE   H5R17304   0.474   4.432   6.713 -0.0740  0.1874 -0.5672
  156SAPE   C2617305   0.550   4.349   6.532  0.8259 -0.4510 -0.3753
  156SAPE   H6R17306   0.464   4.281   6.525 -0.3161  0.7590  0.9438
  156SAPE   C2717307   0.655   4.317   6.429  0.7443 -0.1166 -0.0701
  156SAPE   H7R17308   0.642   4.210   6.406  0.3919  0.2198 -1.5144
  156SAPE   H7S17309   0.753   4.343   6.475  0.7108 -3.1039  1.9890
  156SAPE   C2817310   0.627   4.403   6.313  0.9344  0.3849  0.8338
  156SAPE   H8R17311   0.649   4.510   6.323 -2.2331  1.3860 -1.1886
  156SAPE   C2917312   0.559   4.357   6.204  0.1429 -0.7969  0.1975
  156SAPE   H9R17313   0.549   4.436   6.129  1.4532  0.7467  1.5739
  156SAPE  C21017314   0.513   4.228   6.157  0.3494  0.0439  0.3761
  156SAPE  H10R17315   0.584   4.148   6.190 -0.5413 -0.9491 -0.0667
  156SAPE  H10S17316   0.517   4.224   6.047  1.1432  1.3476  0.3325
  156SAPE  C21117317   0.384   4.189   6.214 -0.4187  0.3659 -0.3935
  156SAPE  H11R17318   0.375   4.201   6.323 -2.0760 -0.4563 -0.4158
  156SAPE  C21217319   0.286   4.127   6.158 -0.0715  0.3494 -0.2788
  156SAPE  H12R17320   0.186   4.118   6.204 -0.8273  0.1121 -1.9014
  156SAPE  C21317321   0.268   4.081   6.017 -0.2624 -0.9835  0.1720
  156SAPE  H13R17322   0.206   3.989   6.010  1.1229 -1.8298 -1.6341
  156SAPE  H13S17323   0.365   4.053   5.972 -0.2605  0.6017 -0.8891
  156SAPE  C21417324   0.217   4.192   5.924 -0.4188  0.2659 -0.0992
  156SAPE  H14R17325   0.278   4.283   5.939 -0.1877 -0.2011  2.1412
  156SAPE  C21517326   0.117   4.192   5.836 -0.5786 -0.0152  0.5164
  156SAPE  H15R17327   0.096   4.282   5.776 -2.3157 -0.6391  0.1426
  156SAPE  C21617328   0.031   4.072   5.815 -0.7954  0.2546 -0.1428
  156SAPE  H16R17329  -0.078   4.095   5.823 -0.6001  0.5292  2.5315
  156SAPE  H16S17330   0.037   3.988   5.888 -1.0603  0.5592  0.2361
  156SAPE  C21717331   0.054   4.010   5.676 -0.6996 -0.4121  0.0220
  156SAPE  H17R17332   0.013   3.908   5.669  0.4647 -0.9807  1.0439
  156SAPE  H17S17333   0.162   4.000   5.650 -0.2254  0.4061  1.4873
  156SAPE  C21817334  -0.027   4.096   5.565  0.4680 -0.6954 -1.2486
  156SAPE  H18R17335   0.029   4.191   5.562 -0.4836 -0.1091 -1.0699
  156SAPE  H18S17336  -0.126   4.120   5.611  0.3857  0.4025 -1.9625
  156SAPE  C21917337  -0.032   4.043   5.425 -0.3067  0.0538 -0.5801
  156SAPE  H19R17338  -0.093   3.951   5.432  0.6248 -0.6224 -1.1460
  156SAPE  H19S17339   0.070   4.015   5.392  0.5397  0.0921  1.8550
  156SAPE  C22017340  -0.096   4.134   5.319  0.6764 -0.2154  0.6516
  156SAPE  H20R17341  -0.204   4.139   5.345  0.3538  0.9035 -0.8120
  156SAPE  H20S17342  -0.090   4.093   5.216  3.4790  0.0872  0.6325
  156SAPE  H20T17343  -0.039   4.229   5.319  2.6829 -1.3334 -1.4216
  156SAPE   C3317344   0.057   3.830   6.594  0.3806 -0.6794  0.5097
  156SAPE   H3X17345  -0.045   3.872   6.597  0.6335 -0.0558  0.3915
  156SAPE   H3Y17346   0.045   3.722   6.617 -0.4582 -0.9340 -1.0364
  156SAPE   C3417347   0.131   3.842   6.459  0.7712 -0.2464 -0.1775
  156SAPE   H4X17348   0.236   3.806   6.463  1.4498  1.6773  0.2642
  156SAPE   H4Y17349   0.145   3.951   6.444 -3.7746  0.5353  0.0138
  156SAPE   C3517350   0.047   3.783   6.350 -0.4072 -0.0590  0.2297
  156SAPE   H5X17351  -0.036   3.851   6.321 -0.4579 -0.1169  0.2401
  156SAPE   H5Y17352  -0.010   3.702   6.401 -1.8400  1.9935  2.0769
  156SAPE   C3617353   0.128   3.754   6.225 -0.1194 -0.5087 -0.5967
  156SAPE   H6X17354   0.200   3.670   6.242  1.2725  0.5453 -1.0931
  156SAPE   H6Y17355   0.189   3.843   6.199  1.5836 -1.3974  0.1636
  156SAPE   C3717356   0.020   3.720   6.127  0.1530  0.2958  0.0715
  156SAPE   H7X17357  -0.022   3.818   6.095 -1.5048 -0.6287 -0.7095
  156SAPE   H7Y17358  -0.065   3.659   6.163 -1.1705  1.1249 -1.5097
  156SAPE   C3817359   0.082   3.660   5.993  0.5772 -0.2163 -0.8598
  156SAPE   H8X17360   0.192   3.673   5.998  0.5117  0.5413 -1.2892
  156SAPE   H8Y17361   0.046   3.724   5.910  0.8205 -0.8344 -1.4480
  156SAPE   C3917362   0.064   3.511   5.966 -0.0140  0.7050 -0.5633
  156SAPE   H9X17363  -0.045   3.490   5.960  0.6328 -3.9292 -0.0177
  156SAPE   H9Y17364   0.108   3.463   6.056  0.4164  1.6959 -0.2331
  156SAPE  C31017365   0.141   3.456   5.839  0.0167 -0.9920 -0.3733
  156SAPE  H10X17366   0.133   3.345   5.843  2.2025 -1.1716  0.6167
  156SAPE  H10Y17367   0.247   3.486   5.854 -0.7188  1.8656 -0.4404
  156SAPE  C31117368   0.110   3.532   5.710 -0.5957 -0.4499 -0.6096
  156SAPE  H11X17369   0.147   3.632   5.741 -1.2794 -0.0781 -0.9760
  156SAPE  H11Y17370   0.001   3.540   5.690 -0.7365  4.2670  0.8748
  156SAPE  C31217371   0.185   3.495   5.582 -0.9336  0.3791  0.4631
  156SAPE  H12X17372   0.177   3.386   5.564  0.7507  0.1092  1.1838
  156SAPE  H12Y17373   0.295   3.512   5.583 -0.4026 -2.5230  1.1852
  156SAPE  C31317374   0.135   3.584   5.465 -0.7698  0.0969 -0.0333
  156SAPE  H13X17375   0.151   3.692   5.485 -0.8497 -0.1231  1.3280
  156SAPE  H13Y17376   0.026   3.563   5.460 -0.4290 -1.5711 -1.9879
  156SAPE  C31417377   0.201   3.535   5.329 -0.2306 -0.8665 -0.1645
  156SAPE  H14X17378   0.200   3.424   5.320  0.7673 -0.7562 -2.2352
  156SAPE  H14Y17379   0.309   3.560   5.327  0.4867 -3.7042 -0.5968
  156SAPE  C31517380   0.124   3.579   5.200 -0.2423 -0.4597 -0.5391
  156SAPE  H15X17381   0.117   3.690   5.203 -0.1124 -0.4592  2.4780
  156SAPE  H15Y17382   0.019   3.544   5.207 -0.8213  0.7168 -2.4502
  156SAPE  C31617383   0.180   3.526   5.062 -0.8040 -0.0833 -0.2530
  156SAPE  H16X17384   0.277   3.576   5.041 -0.8443  0.0615 -0.0931
  156SAPE  H16Y17385   0.104   3.558   4.988  1.9289  0.3648 -3.0602
  156SAPE  C31717386   0.213   3.379   5.046  0.6181  0.0394  0.3032
  156SAPE  H17X17387   0.124   3.319   5.074  0.5832  0.8751  2.1210
  156SAPE  H17Y17388   0.279   3.348   5.130  0.3720 -1.2860  0.0282
  156SAPE  C31817389   0.262   3.340   4.915  0.2131 -0.2545  0.3181
  156SAPE  H18X17390   0.269   3.229   4.910  0.5385 -0.1949 -0.8944
  156SAPE  H18Y17391   0.356   3.391   4.885 -0.2035  0.1302 -0.3640
  156SAPE  H18Z17392   0.189   3.375   4.839  0.6899  0.4657  0.1776
  157SAPE     N17393   4.826   5.710   7.116  0.3009  0.2544  0.7033
  157SAPE   HN117394   4.725   5.699   7.137  0.0894 -0.5432 -0.5664
  157SAPE   HN217395   4.872   5.617   7.104 -0.4719 -0.2693  1.6343
  157SAPE   HN317396   4.874   5.750   7.199  1.3156  2.4307 -0.8221
  157SAPE   C1217397   4.856   5.793   6.995  0.2173  0.5295 -0.3113
  157SAPE  H12A17398   4.785   5.756   6.918  0.1262 -0.2801  0.1435
  157SAPE  H12B17399   4.958   5.759   6.966 -1.1417 -3.3325 -1.2927
  157SAPE   C1117400   4.842   5.944   7.029  0.0271 -0.3162 -0.6261
  157SAPE  H11A17401   4.740   5.965   7.068  0.3108 -1.1740  0.6391
  157SAPE  H11B17402   4.861   6.008   6.940 -2.1504  1.1654 -0.1150
  157SAPE     P17403   4.935   6.071   7.244  0.1853  0.2872 -0.5449
  157SAPE   O1317404   4.810   6.040   7.318  0.4382 -0.2053 -0.4478
  157SAPE   O1417405   5.058   6.086   7.323 -0.1695  0.0635 -0.1940
  157SAPE   O1217406   4.945   5.965   7.128 -0.1720  0.0965  0.1248
  157SAPE   O1117407   4.928   6.210   7.169 -0.8642 -0.3543  0.1457
  157SAPE    C117408   4.802   6.271   7.146 -0.0054 -0.3412  0.4414
  157SAPE    HA17409   4.716   6.203   7.129 -3.0792  3.6730 -1.8773
  157SAPE    HB17410   4.778   6.336   7.233  0.9925  3.5064 -1.9099
  157SAPE    C217411   4.814   6.369   7.020 -0.5844  0.4328  0.1506
  157SAPE    HS17412   4.725   6.434   7.036 -0.8951 -0.4848  2.6051
  157SAPE   O2117413   4.819   6.293   6.894 -0.0945  0.3871 -0.6638
  157SAPE   C2117414   4.700   6.257   6.847  0.8613 -0.2714 -0.1567
  157SAPE   O2217415   4.598   6.257   6.912  0.5694  0.4808  1.1483
  157SAPE   C2217416   4.710   6.233   6.701  0.2409  0.0272 -0.4780
  157SAPE   H2R17417   4.817   6.222   6.672  0.8443  1.8769  0.8502
  157SAPE   H2S17418   4.658   6.136   6.686 -1.3120  0.2958  2.3252
  157SAPE    C317419   4.927   6.473   7.031  0.1125 -0.6013  0.0935
  157SAPE    HX17420   5.017   6.416   7.061 -0.2488 -1.1310  0.1955
  157SAPE    HY17421   4.907   6.549   7.110  2.6265 -0.2179  0.4472
  157SAPE   O3117422   4.960   6.532   6.903  0.1508  0.4080  0.5238
  157SAPE   C3117423   4.894   6.628   6.852  0.5805  0.5040 -0.6971
  157SAPE   O3217424   4.812   6.700   6.909  0.0365  1.1000  0.2154
  157SAPE   C3217425   4.926   6.638   6.701 -0.0685  0.2125  0.0857
  157SAPE   H2X17426   4.896   6.543   6.652  1.8889 -0.8446  0.8196
  157SAPE   H2Y17427   5.036   6.647   6.692  0.3187  0.3687  3.4288
  157SAPE   C2317428   4.636   6.346   6.617  0.2527  1.1253 -0.0181
  157SAPE   H3R17429   4.620   6.447   6.661  0.2225  1.3242 -0.4741
  157SAPE   H3S17430   4.534   6.305   6.606 -0.3459  2.5506 -0.0926
  157SAPE   C2417431   4.690   6.355   6.475  0.2685 -0.0471 -0.5453
  157SAPE   H4R17432   4.699   6.250   6.439 -0.9428 -0.0977 -0.7248
  157SAPE   H4S17433   4.789   6.402   6.495  1.0599 -1.5888 -0.6681
  157SAPE   C2517434   4.610   6.448   6.392  0.2262 -0.0101  0.5037
  157SAPE   H5R17435   4.546   6.527   6.434  0.0524  1.8406 -2.8793
  157SAPE   C2617436   4.596   6.444   6.254 -0.9841 -0.4344 -0.1332
  157SAPE   H6R17437   4.530   6.519   6.208 -1.7684 -0.4731  0.9088
  157SAPE   C2717438   4.662   6.343   6.161 -0.2728 -0.1632  0.4771
  157SAPE   H7R17439   4.577   6.283   6.123  0.5366 -0.1046 -1.5464
  157SAPE   H7S17440   4.731   6.277   6.216  2.2784  0.9650 -1.1993
  157SAPE   C2817441   4.741   6.415   6.048  0.1170 -0.1346 -0.2644
  157SAPE   H8R17442   4.829   6.471   6.083 -0.3553 -0.4538  1.5445
  157SAPE   C2917443   4.714   6.410   5.918  0.5241  0.1845  0.0494
  157SAPE   H9R17444   4.781   6.470   5.853  2.1048 -1.5956 -0.0491
  157SAPE  C21017445   4.599   6.333   5.863  0.5890  0.6785 -1.0952
  157SAPE  H10R17446   4.571   6.393   5.774 -1.7016 -0.2873 -1.0820
  157SAPE  H10S17447   4.514   6.320   5.933  0.2901  3.0352 -0.9231
  157SAPE  C21117448   4.639   6.201   5.813 -0.3194  0.6078  0.4073
  157SAPE  H11R17449   4.740   6.167   5.842 -0.4762  0.4714  0.7936
  157SAPE  C21217450   4.578   6.126   5.721  0.5306  1.1220  0.3507
  157SAPE  H12R17451   4.642   6.045   5.684 -0.3651 -0.0559  1.3251
  157SAPE  C21317452   4.456   6.173   5.640 -1.1595 -0.3907  0.2531
  157SAPE  H13R17453   4.415   6.259   5.697  4.1329  2.3752  0.4426
  157SAPE  H13S17454   4.383   6.093   5.614 -1.1157 -0.7190  1.1081
  157SAPE  C21417455   4.514   6.238   5.513  0.2517 -0.5920  0.2069
  157SAPE  H14R17456   4.576   6.328   5.517 -0.1058 -0.2624 -1.2285
  157SAPE  C21517457   4.496   6.203   5.391  0.3456  0.4455 -0.0314
  157SAPE  H15R17458   4.551   6.254   5.311 -1.3459  1.2632 -0.7393
  157SAPE  C21617459   4.406   6.089   5.346  0.3105  0.0599 -0.9305
  157SAPE  H16R17460   4.332   6.064   5.426  0.6431 -0.9316 -0.9174
  157SAPE  H16S17461   4.468   5.997   5.342  1.5179  0.8471 -0.5073
  157SAPE  C21717462   4.325   6.113   5.218 -0.3863 -0.3176  0.3639
  157SAPE  H17R17463   4.253   6.196   5.231  1.2494  0.7259  4.3192
  157SAPE  H17S17464   4.280   6.015   5.191  1.1058 -1.1833  0.8578
  157SAPE  C21817465   4.404   6.162   5.096 -0.1530  1.0565 -0.5361
  157SAPE  H18R17466   4.489   6.093   5.078 -0.6485 -0.4239  2.2452
  157SAPE  H18S17467   4.447   6.260   5.125 -0.3888  0.2798  2.7933
  157SAPE  C21917468   4.317   6.177   4.965  0.1017 -0.3065  0.3112
  157SAPE  H19R17469   4.261   6.082   4.949  0.9911 -0.5435 -1.5804
  157SAPE  H19S17470   4.395   6.173   4.885  0.6187 -3.2681  0.8308
  157SAPE  C22017471   4.220   6.296   4.951 -0.3646  0.1799  0.2874
  157SAPE  H20R17472   4.146   6.261   5.027  0.2543  0.0783  0.8584
  157SAPE  H20S17473   4.171   6.304   4.852  0.9360 -2.3250 -0.6373
  157SAPE  H20T17474   4.275   6.386   4.985  1.9165 -1.2061  0.4513
  157SAPE   C3317475   4.879   6.770   6.640 -0.0382 -0.2685 -0.5537
  157SAPE   H3X17476   4.933   6.808   6.550  1.7082 -0.5363  0.3474
  157SAPE   H3Y17477   4.897   6.851   6.714 -0.4192  0.7677 -1.5515
  157SAPE   C3417478   4.725   6.764   6.617 -0.4211  0.0022 -0.6596
  157SAPE   H4X17479   4.679   6.749   6.717  2.5789  2.9168  1.3901
  157SAPE   H4Y17480   4.700   6.672   6.562 -1.9168 -0.1334  0.1988
  157SAPE   C3517481   4.672   6.890   6.551 -0.1580 -0.3453  0.0754
  157SAPE   H5X17482   4.683   6.982   6.611 -0.1271  0.7705 -1.5523
  157SAPE   H5Y17483   4.561   6.877   6.554 -0.0938 -0.6755  1.4307
  157SAPE   C3617484   4.718   6.909   6.402 -0.0971 -0.5193 -0.6766
  157SAPE   H6X17485   4.827   6.927   6.400 -0.2484  1.9832  2.7835
  157SAPE   H6Y17486   4.675   7.002   6.359 -1.1012 -0.7006 -0.1000
  157SAPE   C3717487   4.684   6.800   6.311  0.5177  0.3433 -0.0782
  157SAPE   H7X17488   4.579   6.763   6.320  0.8745 -0.8226 -0.5702
  157SAPE   H7Y17489   4.742   6.710   6.337 -3.1480 -2.7844 -1.7272
  157SAPE   C3817490   4.729   6.836   6.170  0.1854 -0.3584 -0.1279
  157SAPE   H8X17491   4.836   6.820   6.148  0.8339  1.7423  1.2713
  157SAPE   H8Y17492   4.718   6.943   6.143 -0.3297 -0.0792  1.1071
  157SAPE   C3917493   4.659   6.768   6.054  0.9222 -0.4367  0.5348
  157SAPE   H9X17494   4.677   6.658   6.051 -0.0500 -0.5848 -2.0088
  157SAPE   H9Y17495   4.716   6.804   5.966 -0.2349 -0.2674 -0.1673
  157SAPE  C31017496   4.509   6.785   6.038  0.2438  0.4801  0.3144
  157SAPE  H10X17497   4.481   6.893   6.043 -0.8269  0.4036 -2.3293
  157SAPE  H10Y17498   4.454   6.724   6.112 -1.4488  0.6207 -0.7951
  157SAPE  C31117499   4.450   6.742   5.900  0.8619 -0.2678 -0.9254
  157SAPE  H11X17500   4.338   6.739   5.902  0.8874 -1.2173 -0.6365
  157SAPE  H11Y17501   4.479   6.636   5.893  0.0135 -0.6645  0.8070
  157SAPE  C31217502   4.497   6.823   5.780  0.2271 -0.1908 -0.0788
  157SAPE  H12X17503   4.608   6.819   5.785  0.2822 -1.4816 -1.6250
  157SAPE  H12Y17504   4.462   6.929   5.780  0.0417 -0.1533 -3.3274
  157SAPE  C31317505   4.462   6.758   5.642 -0.4498  0.1995  0.7064
  157SAPE  H13X17506   4.520   6.664   5.633 -1.3185 -0.3692  1.0082
  157SAPE  H13Y17507   4.502   6.813   5.554  1.0667  0.8195  1.7285
  157SAPE  C31417508   4.324   6.711   5.625 -0.0794  0.0965 -0.6286
  157SAPE  H14X17509   4.250   6.781   5.670  0.2508  0.3246 -0.4337
  157SAPE  H14Y17510   4.303   6.617   5.681  0.5081  0.7359  0.7242
  157SAPE  C31517511   4.286   6.688   5.475 -0.5841 -0.2332 -0.3112
  157SAPE  H15X17512   4.347   6.763   5.419 -0.1264  1.6565  2.5246
  157SAPE  H15Y17513   4.177   6.706   5.472 -0.3304  1.7240 -3.3882
  157SAPE  C31617514   4.323   6.549   5.427  0.6810 -0.3247  0.1575
  157SAPE  H16X17515   4.245   6.480   5.467 -0.6628  2.1667  2.1368
  157SAPE  H16Y17516   4.420   6.514   5.467  1.9692 -0.4593 -2.8276
  157SAPE  C31717517   4.309   6.531   5.277  0.2498 -0.1926 -0.5406
  157SAPE  H17X17518   4.304   6.427   5.240 -0.0916 -0.4206  0.1328
  157SAPE  H17Y17519   4.390   6.584   5.223 -1.3846  2.8792 -0.2456
  157SAPE  C31817520   4.180   6.590   5.215 -0.1137  0.2918  0.4158
  157SAPE  H18X17521   4.176   6.701   5.217  2.0339  0.4112  1.4782
  157SAPE  H18Y17522   4.092   6.556   5.273 -2.6571  2.0965 -2.1573
  157SAPE  H18Z17523   4.157   6.554   5.113 -2.4020 -3.5542  2.0581
  158SAPE     N17524   1.460   6.250   7.220 -0.3596  0.5440 -0.3390
  158SAPE   HN117525   1.513   6.311   7.286  0.9104  1.3478 -2.0280
  158SAPE   HN217526   1.365   6.237   7.261 -0.3316  2.2136  0.3605
  158SAPE   HN317527   1.517   6.164   7.207 -0.4807  0.7991 -3.2344
  158SAPE   C1217528   1.467   6.309   7.080  0.7425  0.2514  0.4283
  158SAPE  H12A17529   1.575   6.307   7.055  1.2445 -1.2640  2.4682
  158SAPE  H12B17530   1.422   6.410   7.083 -0.6202 -0.3555  1.2370
  158SAPE   C1117531   1.403   6.213   6.982  0.3331  0.3624  0.7902
  158SAPE  H11A17532   1.400   6.250   6.878  0.7254 -4.7128 -1.3232
  158SAPE  H11B17533   1.295   6.198   6.999  0.2712  0.7587  0.7399
  158SAPE     P17534   1.410   5.951   7.012  0.0281 -0.2983 -0.5185
  158SAPE   O1317535   1.436   5.903   7.149 -0.8122 -0.2481 -1.2490
  158SAPE   O1417536   1.271   5.951   6.962 -0.9147  0.3820  0.0761
  158SAPE   O1217537   1.473   6.093   6.989  0.4521 -0.3342  0.0739
  158SAPE   O1117538   1.496   5.861   6.915 -0.5815  0.0950 -0.4416
  158SAPE    C117539   1.616   5.917   6.852  0.8911  0.5605 -0.1895
  158SAPE    HA17540   1.673   5.978   6.925  1.3043 -0.4936  0.3892
  158SAPE    HB17541   1.680   5.827   6.845 -0.5360 -0.6035  1.1068
  158SAPE    C217542   1.584   5.976   6.715 -0.3398 -0.2196 -0.2516
  158SAPE    HS17543   1.529   6.071   6.731 -1.7671 -1.5314  3.9451
  158SAPE   O2117544   1.513   5.884   6.637  0.1500 -0.3168 -0.1551
  158SAPE   C2117545   1.441   5.930   6.543  0.0490 -0.1051 -0.3143
  158SAPE   O2217546   1.410   6.052   6.522 -0.5212  0.3308 -0.4401
  158SAPE   C2217547   1.381   5.813   6.463 -0.4430  0.1064  0.5380
  158SAPE   H2R17548   1.462   5.738   6.459  0.0167  0.2194  4.2824
  158SAPE   H2S17549   1.297   5.772   6.523 -0.9622 -0.6116 -0.6325
  158SAPE    C317550   1.719   6.015   6.640 -0.0371  0.4316 -0.1128
  158SAPE    HX17551   1.786   5.927   6.647 -0.1460  0.4633  2.3072
  158SAPE    HY17552   1.776   6.087   6.703 -2.1759  2.2808 -0.1449
  158SAPE   O3117553   1.705   6.070   6.508  0.1463  0.0193 -0.4379
  158SAPE   C3117554   1.671   6.195   6.509  0.9108  0.4261  0.4741
  158SAPE   O3217555   1.644   6.265   6.607  0.0510 -0.6049 -0.1336
  158SAPE   C3217556   1.658   6.242   6.357  0.2057  0.0123 -0.6878
  158SAPE   H2X17557   1.695   6.346   6.340 -0.5535  0.0453 -2.3282
  158SAPE   H2Y17558   1.548   6.236   6.344  0.4745 -1.1484 -2.7967
  158SAPE   C2317559   1.322   5.846   6.321 -0.1669 -0.1715  0.5608
  158SAPE   H3R17560   1.247   5.927   6.332 -1.0221 -0.9137  0.3159
  158SAPE   H3S17561   1.256   5.767   6.280  0.3820 -0.5403  0.3733
  158SAPE   C2417562   1.431   5.892   6.214  0.1056 -0.5264 -0.1493
  158SAPE   H4R17563   1.462   5.996   6.237 -2.7809  0.0695  1.6082
  158SAPE   H4S17564   1.363   5.905   6.127  3.0048 -0.6760 -2.5902
  158SAPE   C2517565   1.538   5.794   6.165 -0.3298  0.7401  0.9552
  158SAPE   H5R17566   1.619   5.765   6.233  0.7457 -0.4525 -0.7372
  158SAPE   C2617567   1.552   5.747   6.033  0.3040  0.1367 -0.6143
  158SAPE   H6R17568   1.640   5.689   6.002  0.3253 -1.1428  1.6478
  158SAPE   C2717569   1.451   5.776   5.919  0.3655 -0.7714 -0.2505
  158SAPE   H7R17570   1.464   5.875   5.870 -1.7004 -1.1399 -1.6777
  158SAPE   H7S17571   1.344   5.770   5.947  0.2282 -3.0964 -1.0547
  158SAPE   C2817572   1.462   5.676   5.809 -0.3115 -0.3909 -0.5576
  158SAPE   H8R17573   1.496   5.572   5.822 -0.5876 -0.5653 -1.1726
  158SAPE   C2917574   1.428   5.710   5.681 -0.8243 -0.1251  0.0442
  158SAPE   H9R17575   1.443   5.634   5.602  1.5141 -1.0703  1.3139
  158SAPE  C21017576   1.372   5.838   5.627 -0.1007 -1.0544 -0.2336
  158SAPE  H10R17577   1.464   5.897   5.610 -0.1523 -0.6472  0.8369
  158SAPE  H10S17578   1.307   5.891   5.700  0.1008 -0.5482 -0.4217
  158SAPE  C21117579   1.302   5.821   5.494 -0.5723  1.0035  0.2060
  158SAPE  H11R17580   1.195   5.845   5.491 -0.4196  1.6505 -0.5482
  158SAPE  C21217581   1.357   5.797   5.373  0.2575 -0.3409  0.1695
  158SAPE  H12R17582   1.288   5.776   5.290 -0.5267  0.5237  0.5863
  158SAPE  C21317583   1.502   5.782   5.347  0.2195  0.5319 -0.6438
  158SAPE  H13R17584   1.525   5.713   5.263  2.9675 -0.2846  0.6520
  158SAPE  H13S17585   1.558   5.730   5.427  0.4609 -0.2462 -1.3007
  158SAPE  C21417586   1.558   5.923   5.314  0.2685 -0.1678  0.3518
  158SAPE  H14R17587   1.554   5.996   5.396  0.4094  1.4612 -1.0427
  158SAPE  C21517588   1.621   5.957   5.202 -0.2456 -0.4015 -0.0543
  158SAPE  H15R17589   1.639   6.061   5.173  1.7147 -0.0242  2.2115
  158SAPE  C21617590   1.670   5.860   5.098 -0.2316  0.2536  0.7051
  158SAPE  H16R17591   1.618   5.893   5.006 -1.3235 -1.5373  0.6418
  158SAPE  H16S17592   1.633   5.755   5.100 -1.0554  0.3852 -2.2104
  158SAPE  C21717593   1.821   5.868   5.090  0.1230 -0.6193 -0.2803
  158SAPE  H17R17594   1.863   5.838   5.189  1.9816  2.0236 -0.1690
  158SAPE  H17S17595   1.847   5.974   5.072 -0.4917 -0.3723  0.2507
  158SAPE  C21817596   1.888   5.772   4.993  0.1077  0.2466  0.0928
  158SAPE  H18R17597   1.838   5.796   4.897 -0.2189 -0.6744  0.0197
  158SAPE  H18S17598   1.852   5.672   5.026 -0.9191  0.3162 -0.7470
  158SAPE  C21917599   2.043   5.771   4.979 -0.0303  0.0939  0.1020
  158SAPE  H19R17600   2.066   5.864   4.922  1.7658 -0.1417  0.3722
  158SAPE  H19S17601   2.065   5.696   4.900  0.8775  0.8466 -0.3857
  158SAPE  C22017602   2.117   5.760   5.110 -0.0053 -0.3937 -0.8184
  158SAPE  H20R17603   2.197   5.683   5.109 -0.8474 -1.4216  2.3361
  158SAPE  H20S17604   2.038   5.745   5.187  0.0297  2.7417 -0.0311
  158SAPE  H20T17605   2.168   5.857   5.129 -1.1097  0.0296  0.0760
  158SAPE   C3317606   1.732   6.154   6.254 -0.6316 -0.4967 -0.4363
  158SAPE   H3X17607   1.703   6.054   6.293 -0.7032  0.5706  2.4980
  158SAPE   H3Y17608   1.841   6.175   6.253 -0.8452  0.7285 -1.3959
  158SAPE   C3417609   1.675   6.186   6.115  0.0035  0.0266 -0.1541
  158SAPE   H4X17610   1.701   6.285   6.074  2.0083 -0.7752 -0.9026
  158SAPE   H4Y17611   1.564   6.178   6.121 -0.0893  1.5591  0.6378
  158SAPE   C3517612   1.732   6.094   6.006 -0.3929  0.3854 -0.1179
  158SAPE   H5X17613   1.725   5.986   6.027  1.6012  0.0480 -1.0260
  158SAPE   H5Y17614   1.839   6.121   6.007  0.4071 -2.4789 -0.5135
  158SAPE   C3617615   1.684   6.126   5.861  0.5554  0.2095 -0.0079
  158SAPE   H6X17616   1.659   6.234   5.847  1.8556  0.6238  0.7255
  158SAPE   H6Y17617   1.595   6.067   5.831  0.0636  1.1829 -0.5485
  158SAPE   C3717618   1.794   6.095   5.751  0.0265  0.2394 -0.5260
  158SAPE   H7X17619   1.784   5.990   5.716 -0.1926 -0.1276  0.5823
  158SAPE   H7Y17620   1.889   6.090   5.808 -1.0891 -1.8153  1.3181
  158SAPE   C3817621   1.812   6.193   5.633 -0.3553 -0.7510  0.3248
  158SAPE   H8X17622   1.823   6.295   5.674 -1.2577 -0.7117  0.4918
  158SAPE   H8Y17623   1.729   6.186   5.560  1.3436  1.1577 -1.9376
  158SAPE   C3917624   1.938   6.179   5.545 -0.9044 -0.8710 -0.0578
  158SAPE   H9X17625   1.927   6.083   5.491  2.4832 -2.8913  2.4701
  158SAPE   H9Y17626   2.025   6.164   5.612  0.0066  1.3186 -0.6504
  158SAPE  C31017627   1.956   6.277   5.421 -0.4507  0.9194  0.0589
  158SAPE  H10X17628   1.947   6.386   5.445 -0.7354  0.7562  0.7146
  158SAPE  H10Y17629   1.884   6.239   5.346 -0.0414  0.1977  0.0200
  158SAPE  C31117630   2.092   6.271   5.351 -0.2332  0.4981 -0.1725
  158SAPE  H11X17631   2.133   6.168   5.355  0.2763  0.7348  0.9432
  158SAPE  H11Y17632   2.164   6.325   5.417 -2.0304  1.3515  1.1789
  158SAPE  C31217633   2.104   6.331   5.200  0.2413 -0.4237  0.2910
  158SAPE  H12X17634   2.014   6.294   5.148 -0.4693 -1.2047  2.0084
  158SAPE  H12Y17635   2.194   6.284   5.155  0.5806  0.5038 -0.0324
  158SAPE  C31317636   2.107   6.484   5.204  0.1892  0.6363 -0.5559
  158SAPE  H13X17637   2.114   6.521   5.308  2.1282  2.6280 -1.3163
  158SAPE  H13Y17638   2.011   6.527   5.168  1.1127  2.9070 -0.4231
  158SAPE  C31417639   2.234   6.551   5.133  0.5273 -1.1271 -0.1800
  158SAPE  H14X17640   2.226   6.655   5.170 -2.0968 -1.8461  1.6296
  158SAPE  H14Y17641   2.219   6.559   5.023  1.3384  0.4665 -0.1917
  158SAPE  C31517642   2.367   6.491   5.168 -0.5677 -0.2226  0.6688
  158SAPE  H15X17643   2.368   6.380   5.162 -1.6563 -0.1891 -0.5127
  158SAPE  H15Y17644   2.398   6.517   5.272 -1.6081  0.7103  0.7668
  158SAPE  C31617645   2.476   6.553   5.071  0.1685  0.3618  0.1553
  158SAPE  H16X17646   2.438   6.655   5.044 -0.3164 -0.1386 -1.1238
  158SAPE  H16Y17647   2.466   6.482   4.986  0.8627 -1.3937  1.4940
  158SAPE  C31717648   2.617   6.554   5.143  0.5749 -0.4930  0.2471
  158SAPE  H17X17649   2.633   6.463   5.204  1.0895  0.4842  1.6217
  158SAPE  H17Y17650   2.607   6.636   5.217 -2.5438  0.4954 -1.0804
  158SAPE  C31817651   2.723   6.575   5.040 -0.2926 -0.8670  0.1675
  158SAPE  H18X17652   2.823   6.549   5.082 -0.1364 -0.2180  0.2103
  158SAPE  H18Y17653   2.731   6.683   5.017  0.1217 -1.0707 -0.6799
  158SAPE  H18Z17654   2.703   6.518   4.947  3.0822 -0.9066 -0.6726
  159SAPE     N17655   1.463   4.674   2.810  0.2469 -0.4894  0.2602
  159SAPE   HN117656   1.530   4.736   2.761  1.5993 -1.5236  0.7291
  159SAPE   HN217657   1.370   4.689   2.765  0.2827  0.6542  0.5359
  159SAPE   HN317658   1.450   4.696   2.911  0.7989  1.8960 -0.1342
  159SAPE   C1217659   1.514   4.531   2.769 -0.1783 -0.5850 -0.0735
  159SAPE  H12A17660   1.624   4.547   2.760 -0.6302  2.3763 -1.6128
  159SAPE  H12B17661   1.463   4.517   2.672 -2.7607 -1.3337  1.2951
  159SAPE   C1117662   1.461   4.429   2.874  0.0790  0.3727  0.3580
  159SAPE  H11A17663   1.350   4.435   2.879 -0.0219 -1.0011  0.0712
  159SAPE  H11B17664   1.498   4.452   2.976  0.9045  1.3301 -0.1327
  159SAPE     P17665   1.416   4.177   2.789 -0.4583  0.2483  0.0448
  159SAPE   O1317666   1.279   4.215   2.750 -0.1161 -1.0826 -0.1580
  159SAPE   O1417667   1.496   4.096   2.697  0.1416  0.0845  0.2331
  159SAPE   O1217668   1.502   4.298   2.841 -0.0867  0.2414 -0.2097
  159SAPE   O1117669   1.395   4.090   2.921 -0.0807 -0.1806  0.0789
  159SAPE    C117670   1.374   4.151   3.047  0.4994 -0.5256  0.4108
  159SAPE    HA17671   1.339   4.256   3.037 -0.7501 -0.9278  0.3487
  159SAPE    HB17672   1.295   4.094   3.101  2.1193 -0.3155  3.2083
  159SAPE    C217673   1.495   4.147   3.135  0.8961  0.3366 -0.7884
  159SAPE    HS17674   1.565   4.216   3.083 -0.2979  2.4579  0.2810
  159SAPE   O2117675   1.547   4.017   3.148 -0.4493  0.7403  0.1345
  159SAPE   C2117676   1.679   4.004   3.166  0.8770  0.5890  0.8163
  159SAPE   O2217677   1.764   4.089   3.140 -0.0095 -0.6255  0.0462
  159SAPE   C2217678   1.710   3.874   3.231 -0.0740  0.1082  0.7238
  159SAPE   H2R17679   1.619   3.810   3.232 -0.1185  0.1605  1.9153
  159SAPE   H2S17680   1.792   3.829   3.172  0.7547  1.1170  1.0632
  159SAPE    C317681   1.478   4.210   3.275 -0.8049 -0.1182 -0.1577
  159SAPE    HX17682   1.444   4.130   3.344 -0.0965 -0.0757  0.2399
  159SAPE    HY17683   1.400   4.288   3.265  0.0565  0.6384 -1.2065
  159SAPE   O3117684   1.607   4.257   3.321  0.0460  0.2554 -0.7255
  159SAPE   C3117685   1.647   4.370   3.269  0.5280 -0.1639 -0.7407
  159SAPE   O3217686   1.572   4.446   3.206  0.5128 -0.5633  0.2508
  159SAPE   C3217687   1.802   4.387   3.288 -0.1131 -0.2501 -0.0934
  159SAPE   H2X17688   1.840   4.484   3.251 -2.4778  0.5921 -0.5032
  159SAPE   H2Y17689   1.854   4.300   3.243 -0.7811  0.3915 -2.2073
  159SAPE   C2317690   1.767   3.895   3.372  0.3284 -0.0819 -0.4567
  159SAPE   H3R17691   1.856   3.960   3.365  0.1831  0.2319  0.4626
  159SAPE   H3S17692   1.783   3.793   3.414  2.0331  0.7226  0.9977
  159SAPE   C2417693   1.671   3.958   3.473 -0.3004 -0.4934  0.0992
  159SAPE   H4R17694   1.574   3.906   3.464 -0.9538  0.7251 -0.1362
  159SAPE   H4S17695   1.657   4.066   3.451 -1.6605 -0.2854  1.7532
  159SAPE   C2517696   1.730   3.933   3.613  0.4739  0.3594  0.4356
  159SAPE   H5R17697   1.829   3.886   3.620 -0.5264 -1.6388  2.8783
  159SAPE   C2617698   1.672   3.970   3.726 -0.3922 -0.6500 -0.2836
  159SAPE   H6R17699   1.710   3.926   3.819 -3.1654  1.4679  2.0694
  159SAPE   C2717700   1.539   4.040   3.737 -0.1967 -0.7330  0.6054
  159SAPE   H7R17701   1.467   3.962   3.771 -0.9648 -0.4791 -0.4194
  159SAPE   H7S17702   1.506   4.091   3.644  0.7789  1.1391  1.2355
  159SAPE   C2817703   1.526   4.146   3.842  0.0511 -0.6468 -0.1456
  159SAPE   H8R17704   1.512   4.247   3.802  3.1964  0.4178  1.1130
  159SAPE   C2917705   1.518   4.134   3.975  1.0712 -0.0189 -0.2370
  159SAPE   H9R17706   1.510   4.228   4.032  1.9018  0.0733 -0.2569
  159SAPE  C21017707   1.513   4.017   4.068  0.5182 -0.5363 -0.3154
  159SAPE  H10R17708   1.605   4.015   4.129 -0.2619 -0.1834  0.9037
  159SAPE  H10S17709   1.515   3.924   4.007 -0.0183  0.2979 -1.6492
  159SAPE  C21117710   1.391   3.994   4.166 -0.6986  0.1999  0.3987
  159SAPE  H11R17711   1.291   3.986   4.121  0.3737  0.5490 -2.2221
  159SAPE  C21217712   1.394   3.957   4.298  0.4387  0.0375  0.1394
  159SAPE  H12R17713   1.296   3.969   4.348  0.0303  0.5591 -0.7677
  159SAPE  C21317714   1.510   3.932   4.392  0.1261 -0.1542  0.5807
  159SAPE  H13R17715   1.541   4.030   4.434  0.1788  0.1063 -0.0541
  159SAPE  H13S17716   1.600   3.890   4.343  1.8760  2.5775  1.2409
  159SAPE  C21417717   1.468   3.831   4.496 -0.5288  0.1935  0.2380
  159SAPE  H14R17718   1.405   3.745   4.470 -1.4127  0.9243 -0.1137
  159SAPE  C21517719   1.495   3.845   4.629 -0.0024 -0.2178 -0.1283
  159SAPE  H15R17720   1.453   3.771   4.699  1.4151 -2.3100 -1.3643
  159SAPE  C21617721   1.581   3.957   4.689  0.6647  0.1178 -0.9759
  159SAPE  H16R17722   1.560   3.951   4.798 -3.0782 -4.5767 -1.6210
  159SAPE  H16S17723   1.548   4.052   4.642  0.3976  0.0136 -1.0013
  159SAPE  C21717724   1.737   3.928   4.680  0.3871 -0.0897  0.3279
  159SAPE  H17R17725   1.762   3.938   4.572 -1.0077 -0.1563 -0.0177
  159SAPE  H17S17726   1.755   3.824   4.716  0.0645  0.1939  1.3359
  159SAPE  C21817727   1.816   4.009   4.776 -0.2290  0.6855  0.4065
  159SAPE  H18R17728   1.901   3.944   4.808  1.3761  0.2084 -4.1218
  159SAPE  H18S17729   1.762   4.036   4.869  0.2471  1.0798  0.5761
  159SAPE  C21917730   1.883   4.133   4.710  0.1857 -0.6414 -0.5116
  159SAPE  H19R17731   1.811   4.210   4.675  1.3471 -0.4739 -2.7613
  159SAPE  H19S17732   1.923   4.105   4.610  0.1197  1.6999 -1.2628
  159SAPE  C22017733   2.000   4.183   4.797 -0.2052  0.8652 -0.0375
  159SAPE  H20R17734   2.090   4.121   4.774 -1.3500 -0.9204  0.0861
  159SAPE  H20S17735   1.979   4.171   4.906 -0.4267  2.0713  0.0679
  159SAPE  H20T17736   2.026   4.289   4.776 -1.1322  0.9709 -0.6807
  159SAPE   C3317737   1.853   4.391   3.438 -0.4644 -0.3909 -0.1642
  159SAPE   H3X17738   1.959   4.425   3.439 -1.0602  1.6325 -0.7856
  159SAPE   H3Y17739   1.852   4.289   3.482  0.2710 -0.6782 -0.7949
  159SAPE   C3417740   1.778   4.499   3.523  0.1168 -0.1133 -0.3046
  159SAPE   H4X17741   1.745   4.574   3.448  1.0589  1.0203  0.3847
  159SAPE   H4Y17742   1.836   4.560   3.595  0.4544 -0.4893 -0.2538
  159SAPE   C3517743   1.663   4.437   3.600 -0.4238 -0.0321  0.6964
  159SAPE   H5X17744   1.714   4.380   3.681 -0.5808 -0.1544  0.7100
  159SAPE   H5Y17745   1.611   4.353   3.548 -0.2923 -0.6411  1.5315
  159SAPE   C3617746   1.543   4.526   3.641 -0.9323  0.1784 -0.2818
  159SAPE   H6X17747   1.451   4.471   3.669 -0.7925  0.6182  1.1289
  159SAPE   H6Y17748   1.520   4.575   3.544  2.3312 -1.9760 -2.3366
  159SAPE   C3717749   1.587   4.631   3.744  0.4007 -0.1962  0.0539
  159SAPE   H7X17750   1.521   4.719   3.726  2.2206  1.5312  1.3858
  159SAPE   H7Y17751   1.687   4.673   3.721  0.5077  0.1126  1.0375
  159SAPE   C3817752   1.587   4.585   3.889 -0.2982 -0.3515 -0.6223
  159SAPE   H8X17753   1.658   4.505   3.917 -0.4036  0.2997  1.7751
  159SAPE   H8Y17754   1.482   4.564   3.918 -1.1262  2.2889 -1.3911
  159SAPE   C3917755   1.616   4.707   3.983 -0.6966 -0.5935  0.7512
  159SAPE   H9X17756   1.524   4.769   3.991 -0.1096  0.5755 -0.9953
  159SAPE   H9Y17757   1.691   4.777   3.941 -0.9904  0.3207  1.6787
  159SAPE  C31017758   1.649   4.669   4.137  0.2055 -0.4160 -0.5476
  159SAPE  H10X17759   1.739   4.605   4.153  0.1327 -0.2514  0.6835
  159SAPE  H10Y17760   1.562   4.606   4.165 -1.8519  2.2694 -0.5492
  159SAPE  C31117761   1.667   4.792   4.226 -0.3772 -0.5626 -0.2673
  159SAPE  H11X17762   1.581   4.863   4.219 -0.5494 -0.6005  1.0984
  159SAPE  H11Y17763   1.758   4.842   4.186  0.6407 -2.3351 -0.2409
  159SAPE  C31217764   1.688   4.755   4.370  0.3783 -0.9192  0.2326
  159SAPE  H12X17765   1.795   4.731   4.387  0.4150 -0.4333  0.7380
  159SAPE  H12Y17766   1.621   4.669   4.389 -0.8450  0.1329  0.8363
  159SAPE  C31317767   1.644   4.877   4.454  0.7458 -0.0569 -0.2530
  159SAPE  H13X17768   1.538   4.901   4.431  0.2229 -1.8415  0.1817
  159SAPE  H13Y17769   1.707   4.966   4.430  0.9127  0.2104  1.1003
  159SAPE  C31417770   1.648   4.855   4.604  0.0100  0.2595  0.0741
  159SAPE  H14X17771   1.653   4.744   4.616  1.9121  0.3678  0.6944
  159SAPE  H14Y17772   1.565   4.913   4.648 -0.5691 -1.7581  1.8004
  159SAPE  C31517773   1.781   4.907   4.663 -0.1588 -0.1781 -0.1276
  159SAPE  H15X17774   1.795   5.002   4.607 -0.5023 -0.5123 -0.7825
  159SAPE  H15Y17775   1.870   4.842   4.657  0.0388  0.0400  0.3483
  159SAPE  C31617776   1.775   4.945   4.808 -0.1144 -0.3484 -0.2590
  159SAPE  H16X17777   1.734   4.860   4.866 -1.4626 -0.0396 -0.7049
  159SAPE  H16Y17778   1.687   5.011   4.825 -0.9795 -1.1027 -1.6305
  159SAPE  C31717779   1.896   5.007   4.861 -0.3639 -0.0783  0.7725
  159SAPE  H17X17780   1.913   5.104   4.808  0.7977 -0.3659  0.5874
  159SAPE  H17Y17781   1.988   4.950   4.835  1.8170  3.6325 -0.4317
  159SAPE  C31817782   1.888   5.035   5.007 -0.5530  0.0633  0.5198
  159SAPE  H18X17783   1.879   4.941   5.065  0.8991  1.5443  3.3705
  159SAPE  H18Y17784   1.810   5.109   5.036 -0.5313  0.6669 -0.8707
  159SAPE  H18Z17785   1.988   5.071   5.041 -1.3306 -0.2103  3.3290
  160SAPE     N17786   0.439   2.329   2.773  0.0957 -0.9015 -0.1034
  160SAPE   HN117787   0.488   2.327   2.865 -1.6846 -2.5898  0.8760
  160SAPE   HN217788   0.335   2.321   2.780  0.2833 -4.1204  0.3616
  160SAPE   HN317789   0.475   2.240   2.734  1.8768 -0.8361  1.2331
  160SAPE   C1217790   0.500   2.444   2.691 -0.0714  0.1823  0.6318
  160SAPE  H12A17791   0.463   2.532   2.748 -1.0043 -1.9022  3.5070
  160SAPE  H12B17792   0.465   2.447   2.585  1.0724  1.3046  0.2698
  160SAPE   C1117793   0.649   2.451   2.689 -0.2789  0.8555  0.0244
  160SAPE  H11A17794   0.673   2.549   2.642  1.9992  0.6353  0.6139
  160SAPE  H11B17795   0.693   2.370   2.627 -0.7684  0.5441  0.0803
  160SAPE     P17796   0.811   2.529   2.877 -0.4259  0.0804  0.1377
  160SAPE   O1317797   0.914   2.532   2.770 -0.0730  0.4567 -0.3192
  160SAPE   O1417798   0.756   2.653   2.921 -0.1706 -0.1438  0.1656
  160SAPE   O1217799   0.690   2.443   2.825  0.2829  0.1137  0.1460
  160SAPE   O1117800   0.858   2.449   3.000  0.0069  0.8654  0.1146
  160SAPE    C117801   0.819   2.312   3.022 -0.0362 -0.3592  0.3352
  160SAPE    HA17802   0.749   2.266   2.950  1.8624 -2.4998 -0.2741
  160SAPE    HB17803   0.901   2.237   3.020  2.7545  2.4796  1.3476
  160SAPE    C217804   0.750   2.307   3.159  1.0718 -0.4618  0.3120
  160SAPE    HS17805   0.689   2.214   3.162 -1.8370  1.3171  0.8081
  160SAPE   O2117806   0.662   2.422   3.173  0.5279 -0.6000 -0.4306
  160SAPE   C2117807   0.542   2.403   3.112  0.2318  0.2017  0.0476
  160SAPE   O2217808   0.509   2.311   3.037 -0.9404 -0.3402 -0.6160
  160SAPE   C2217809   0.446   2.521   3.140 -0.2482  0.6758  0.2614
  160SAPE   H2R17810   0.376   2.496   3.223  0.3058 -2.7463 -0.1406
  160SAPE   H2S17811   0.518   2.599   3.171  1.2622 -0.2203 -0.8598
  160SAPE    C317812   0.857   2.321   3.269 -0.2958  0.0562  0.6490
  160SAPE    HX17813   0.885   2.428   3.283  0.0589  0.2085 -1.0881
  160SAPE    HY17814   0.951   2.278   3.230  0.3528  1.3852  0.6964
  160SAPE   O3117815   0.815   2.267   3.399 -0.3223 -0.8593  0.1426
  160SAPE   C3117816   0.891   2.299   3.501  0.7301 -0.4830 -0.4941
  160SAPE   O3217817   0.982   2.379   3.501 -0.4022  0.4797  0.3553
  160SAPE   C3217818   0.813   2.239   3.629 -0.4510 -0.0704 -0.6840
  160SAPE   H2X17819   0.794   2.131   3.611 -1.2769 -0.2200  0.9441
  160SAPE   H2Y17820   0.717   2.294   3.632 -1.1944 -1.3534  1.8635
  160SAPE   C2317821   0.362   2.563   3.018  0.6723  0.1915  0.0822
  160SAPE   H3R17822   0.307   2.480   2.969  1.3293  0.4106 -1.0666
  160SAPE   H3S17823   0.419   2.609   2.934 -1.3137 -1.0140 -2.0250
  160SAPE   C2417824   0.275   2.681   3.062  0.6942 -0.2699 -0.2642
  160SAPE   H4R17825   0.189   2.640   3.119 -0.2168  1.3129 -0.4736
  160SAPE   H4S17826   0.246   2.723   2.964  0.4086  0.0743 -0.0319
  160SAPE   C2517827   0.340   2.796   3.144 -0.0238 -0.3151  0.4214
  160SAPE   H5R17828   0.412   2.855   3.087 -1.0595 -0.1343 -0.7248
  160SAPE   C2617829   0.310   2.838   3.270 -0.8031 -0.5541 -0.0787
  160SAPE   H6R17830   0.360   2.921   3.321 -0.3124 -0.7530 -0.2293
  160SAPE   C2717831   0.207   2.777   3.361  0.0464  0.0543 -0.2679
  160SAPE   H7R17832   0.153   2.692   3.314  1.1519 -0.4453 -0.6507
  160SAPE   H7S17833   0.143   2.866   3.383  0.0781  0.0193 -0.0308
  160SAPE   C2817834   0.273   2.729   3.488  0.1588 -0.7593 -0.3856
  160SAPE   H8R17835   0.371   2.685   3.465 -0.4762 -2.3365 -0.1740
  160SAPE   C2917836   0.224   2.723   3.612 -0.3578 -0.0809  0.7629
  160SAPE   H9R17837   0.289   2.683   3.692 -0.5213  0.9414  1.4343
  160SAPE  C21017838   0.093   2.757   3.665  0.5387 -0.0762  0.1848
  160SAPE  H10R17839   0.014   2.792   3.596 -0.3981 -3.0263 -0.3498
  160SAPE  H10S17840   0.112   2.848   3.727 -0.0196  1.0984 -1.3120
  160SAPE  C21117841   0.036   2.653   3.754 -0.2885 -0.0696  0.1550
  160SAPE  H11R17842  -0.002   2.571   3.691 -0.1398 -0.6832  0.8591
  160SAPE  C21217843   0.037   2.637   3.889  0.3670 -0.3036  0.0997
  160SAPE  H12R17844   0.006   2.541   3.932 -1.7135  0.1427 -0.3136
  160SAPE  C21317845   0.100   2.728   3.986  0.5579 -1.1449  0.3312
  160SAPE  H13R17846   0.128   2.824   3.939  0.1448 -1.5546 -0.7756
  160SAPE  H13S17847   0.189   2.678   4.029  1.8063  0.5161 -0.2380
  160SAPE  C21417848  -0.018   2.750   4.085  0.1761 -1.2925 -0.1854
  160SAPE  H14R17849  -0.096   2.812   4.037  1.4366 -0.7502 -1.6030
  160SAPE  C21517850  -0.035   2.704   4.207 -0.0771  0.0337  0.0145
  160SAPE  H15R17851  -0.117   2.741   4.271 -0.4398 -3.0786  1.5288
  160SAPE  C21617852   0.060   2.616   4.276  0.0428 -0.4707  0.7790
  160SAPE  H16R17853   0.150   2.675   4.303 -1.0388  0.8352  1.7107
  160SAPE  H16S17854   0.085   2.527   4.214 -0.7372  0.7352 -1.3853
  160SAPE  C21717855   0.002   2.563   4.405  0.2785 -0.5054 -0.7810
  160SAPE  H17R17856   0.005   2.648   4.477  2.9127 -2.0734  1.1790
  160SAPE  H17S17857   0.071   2.486   4.445 -0.7477 -0.3365  1.4366
  160SAPE  C21817858  -0.131   2.497   4.395  0.3407  0.6202  0.0676
  160SAPE  H18R17859  -0.143   2.428   4.309 -1.0913 -0.0918  0.7871
  160SAPE  H18S17860  -0.211   2.573   4.391 -0.5808 -0.2749  0.8578
  160SAPE  C21917861  -0.174   2.419   4.524  0.6271 -0.0458  0.0860
  160SAPE  H19R17862  -0.162   2.482   4.614  0.3974 -2.7409  2.1164
  160SAPE  H19S17863  -0.103   2.333   4.533 -0.7895 -1.2860 -0.2491
  160SAPE  C22017864  -0.318   2.362   4.515  0.4469  0.6663 -0.2572
  160SAPE  H20R17865  -0.347   2.368   4.407  1.0944  0.3771 -0.4488
  160SAPE  H20S17866  -0.388   2.428   4.569 -0.0572  0.0334 -0.1277
  160SAPE  H20T17867  -0.321   2.256   4.549  0.8049  0.6427 -0.2947
  160SAPE   C3317868   0.888   2.259   3.763 -0.3249  0.2947  0.3941
  160SAPE   H3X17869   0.923   2.363   3.778  3.0977 -0.7718  0.6487
  160SAPE   H3Y17870   0.984   2.207   3.741 -1.1731 -0.2688 -2.3418
  160SAPE   C3417871   0.807   2.207   3.878  0.2781 -0.1579 -0.2528
  160SAPE   H4X17872   0.808   2.096   3.870  3.7355 -0.4592  2.2646
  160SAPE   H4Y17873   0.700   2.237   3.883  0.5248  0.5795  0.8279
  160SAPE   C3517874   0.866   2.235   4.019 -0.6878 -0.0237 -0.2455
  160SAPE   H5X17875   0.854   2.345   4.029  0.0649  0.3178 -2.6497
  160SAPE   H5Y17876   0.973   2.206   4.022 -0.1376  1.9455  1.4020
  160SAPE   C3617877   0.783   2.172   4.136 -0.0816  0.2055  0.3915
  160SAPE   H6X17878   0.845   2.168   4.228  1.0334  1.1727 -0.2962
  160SAPE   H6Y17879   0.765   2.069   4.096  0.2782  0.9683 -1.8785
  160SAPE   C3717880   0.660   2.248   4.180 -0.4486 -0.0109 -0.4851
  160SAPE   H7X17881   0.606   2.262   4.084 -3.5298  0.9940  1.2697
  160SAPE   H7Y17882   0.686   2.351   4.214 -1.3168  0.7571 -2.0444
  160SAPE   C3817883   0.568   2.172   4.282 -0.3237 -0.0084  0.1447
  160SAPE   H8X17884   0.526   2.086   4.226 -2.1507  0.7451  0.2727
  160SAPE   H8Y17885   0.486   2.245   4.297  0.5220  0.7084  1.4705
  160SAPE   C3917886   0.634   2.148   4.416 -0.8354 -0.6091 -0.5592
  160SAPE   H9X17887   0.654   2.252   4.449 -3.4564 -0.4070  0.5890
  160SAPE   H9Y17888   0.726   2.090   4.391 -0.1203  0.8945 -1.5753
  160SAPE  C31017889   0.542   2.063   4.512  0.1058 -0.0961 -0.3423
  160SAPE  H10X17890   0.505   1.981   4.448 -0.3960 -0.8642  0.9004
  160SAPE  H10Y17891   0.458   2.128   4.545 -0.2088 -0.6118 -0.1314
  160SAPE  C31117892   0.607   2.020   4.639  0.3685 -0.1677  0.5563
  160SAPE  H11X17893   0.658   2.102   4.693  0.1795 -0.8939  1.8899
  160SAPE  H11Y17894   0.687   1.946   4.614 -0.8083 -0.8416 -1.4602
  160SAPE  C31217895   0.506   1.964   4.735  0.1371 -0.1714  0.1625
  160SAPE  H12X17896   0.433   2.042   4.761  0.8830  0.5049  0.2611
  160SAPE  H12Y17897   0.555   1.940   4.832  1.5296  1.8192  0.0081
  160SAPE  C31317898   0.442   1.834   4.684  0.0818  0.3448 -0.7310
  160SAPE  H13X17899   0.516   1.751   4.678  0.1775  0.5172 -2.8529
  160SAPE  H13Y17900   0.414   1.829   4.577  1.0425 -2.8880 -0.9344
  160SAPE  C31417901   0.324   1.795   4.771  0.3183 -0.3266 -0.1513
  160SAPE  H14X17902   0.247   1.874   4.758  1.0977  0.6456  0.9662
  160SAPE  H14Y17903   0.356   1.790   4.877 -1.3224 -0.5307  0.3627
  160SAPE  C31517904   0.243   1.666   4.738  0.0309 -0.5824  0.8001
  160SAPE  H15X17905   0.322   1.588   4.745 -1.1557 -1.8997 -0.1039
  160SAPE  H15Y17906   0.194   1.670   4.639 -0.1385 -0.4884  0.8872
  160SAPE  C31617907   0.132   1.646   4.838 -0.2011 -0.0046 -0.6411
  160SAPE  H16X17908   0.065   1.734   4.843  0.0119  0.1022  0.8076
  160SAPE  H16Y17909   0.177   1.640   4.940  0.2471  0.9255 -0.7714
  160SAPE  C31717910   0.056   1.524   4.786  0.1531 -0.0404  0.0079
  160SAPE  H17X17911   0.098   1.479   4.694 -0.8303  0.9571 -0.9555
  160SAPE  H17Y17912  -0.048   1.546   4.754  0.1286 -0.7212 -0.3930
  160SAPE  C31817913   0.056   1.417   4.895  0.6231 -0.1577 -0.5163
  160SAPE  H18X17914  -0.017   1.336   4.871  2.0303 -2.0707  1.2140
  160SAPE  H18Y17915   0.022   1.458   4.993 -1.5933  0.0856 -1.3339
  160SAPE  H18Z17916   0.154   1.367   4.914 -0.1121 -0.5378  2.9548
  161SAPE     N17917   0.206   0.652   2.699  0.2554  0.3152 -0.2500
  161SAPE   HN117918   0.166   0.576   2.757 -0.8825 -0.3644 -1.8635
  161SAPE   HN217919   0.150   0.670   2.613  2.1425  3.1173 -1.0662
  161SAPE   HN317920   0.304   0.623   2.681  0.6618  0.4407  1.5325
  161SAPE   C1217921   0.205   0.781   2.775  0.3964  0.3262 -0.8154
  161SAPE  H12A17922   0.112   0.784   2.836 -0.1704  1.4081 -1.7026
  161SAPE  H12B17923   0.190   0.860   2.699 -0.4629  1.1109  0.1406
  161SAPE   C1117924   0.332   0.803   2.860 -0.3139  0.2641 -0.2834
  161SAPE  H11A17925   0.328   0.712   2.923 -0.0062 -0.0754 -0.7473
  161SAPE  H11B17926   0.335   0.898   2.918 -1.6383 -0.2429  0.6533
  161SAPE     P17927   0.524   0.908   2.704 -0.1226 -0.0341 -0.2983
  161SAPE   O1317928   0.562   0.865   2.570  0.5736 -0.4076 -0.3488
  161SAPE   O1417929   0.445   1.035   2.707 -0.2220  0.4269  1.0074
  161SAPE   O1217930   0.449   0.789   2.775 -0.7598 -0.2684  0.1275
  161SAPE   O1117931   0.654   0.929   2.787  0.3285 -0.1604  0.3696
  161SAPE    C117932   0.729   0.821   2.839 -0.1878 -0.4519 -0.0001
  161SAPE    HA17933   0.696   0.716   2.823  0.7850 -0.8661  0.6300
  161SAPE    HB17934   0.828   0.823   2.789  0.5352  0.2830  1.3900
  161SAPE    C217935   0.758   0.832   2.989  0.4104 -0.1672 -0.3227
  161SAPE    HS17936   0.846   0.769   3.011  3.0412  3.2549 -0.1607
  161SAPE   O2117937   0.644   0.798   3.067 -0.7454  0.0476  0.0531
  161SAPE   C2117938   0.626   0.669   3.084  0.2901 -0.3022 -0.4741
  161SAPE   O2217939   0.702   0.581   3.065 -0.1734  0.0546  0.2369
  161SAPE   C2217940   0.482   0.650   3.141  0.0026  0.2846  0.5718
  161SAPE   H2R17941   0.423   0.616   3.053  0.1848 -2.6454  1.4590
  161SAPE   H2S17942   0.483   0.570   3.219  0.6786  0.6528  0.9492
  161SAPE    C317943   0.791   0.975   3.032 -0.0557  0.2392 -0.1650
  161SAPE    HX17944   0.708   1.043   3.004  0.0460  1.4508  2.2164
  161SAPE    HY17945   0.879   1.023   2.983 -1.0042  0.2746 -1.9014
  161SAPE   O3117946   0.800   0.976   3.177  0.5512 -0.7672 -1.1644
  161SAPE   C3117947   0.912   0.944   3.236  0.2317  0.0127 -0.7040
  161SAPE   O3217948   1.009   0.885   3.190  0.1749 -0.0393  0.0599
  161SAPE   C3217949   0.888   0.971   3.389  0.4919 -0.7239  0.3586
  161SAPE   H2X17950   0.806   0.903   3.421 -2.5219  2.4450  0.0603
  161SAPE   H2Y17951   0.853   1.074   3.412  0.0854 -1.1087  1.5229
  161SAPE   C2317952   0.425   0.774   3.211 -0.2559 -1.1308 -0.5002
  161SAPE   H3R17953   0.314   0.762   3.212 -0.3039 -0.7347  0.9832
  161SAPE   H3S17954   0.443   0.866   3.151 -2.4589 -1.1363 -1.2779
  161SAPE   C2417955   0.473   0.792   3.356 -0.6444 -0.4469  0.3318
  161SAPE   H4R17956   0.582   0.771   3.358 -0.3162  1.1171  0.6101
  161SAPE   H4S17957   0.423   0.721   3.426 -3.9173 -0.1921 -1.5188
  161SAPE   C2517958   0.447   0.936   3.397 -0.6113  0.0685 -0.0538
  161SAPE   H5R17959   0.452   1.001   3.309 -0.0660 -0.9093 -0.7668
  161SAPE   C2617960   0.416   0.984   3.519 -0.8185  0.1245 -0.8595
  161SAPE   H6R17961   0.399   1.093   3.521 -1.3711  0.1124  2.7410
  161SAPE   C2717962   0.428   0.918   3.661  0.7613 -0.1044  0.4352
  161SAPE   H7R17963   0.364   0.828   3.672  0.0594  0.3327  0.0347
  161SAPE   H7S17964   0.389   0.988   3.738 -0.0607  1.4739 -1.2991
  161SAPE   C2817965   0.573   0.898   3.699 -0.3971 -0.3482  0.1766
  161SAPE   H8R17966   0.645   0.910   3.617  0.7331 -0.5601  1.0986
  161SAPE   C2917967   0.627   0.885   3.819  0.7818  0.2043 -0.0543
  161SAPE   H9R17968   0.736   0.870   3.827  0.5297 -0.5585  3.0014
  161SAPE  C21017969   0.549   0.873   3.945 -1.0203  0.3986 -0.3548
  161SAPE  H10R17970   0.596   0.809   4.023 -1.9668 -0.6433 -0.6026
  161SAPE  H10S17971   0.456   0.815   3.925 -0.7368 -2.6460  5.1114
  161SAPE  C21117972   0.529   1.015   3.998  0.5282  0.8764 -0.1229
  161SAPE  H11R17973   0.610   1.084   3.971  2.0020 -0.9474 -0.6045
  161SAPE  C21217974   0.427   1.042   4.087  0.1066  0.3637  0.3721
  161SAPE  H12R17975   0.404   1.145   4.117  1.6790  0.8395  0.0467
  161SAPE  C21317976   0.312   0.945   4.112 -0.0235 -0.3842  0.0091
  161SAPE  H13R17977   0.288   0.886   4.021  0.9195 -1.4815  0.4432
  161SAPE  H13S17978   0.217   1.000   4.130 -0.5168 -1.0541 -0.5036
  161SAPE  C21417979   0.345   0.853   4.224  0.3278  0.0640  0.1243
  161SAPE  H14R17980   0.353   0.749   4.190  0.4166  0.5967 -1.5488
  161SAPE  C21517981   0.334   0.880   4.354  0.0611  0.3697 -0.4849
  161SAPE  H15R17982   0.368   0.810   4.431  0.1134 -3.1353 -3.4315
  161SAPE  C21617983   0.302   1.012   4.417  0.3881 -0.2605 -0.2677
  161SAPE  H16R17984   0.193   1.021   4.438 -0.1428  1.7284 -3.1940
  161SAPE  H16S17985   0.328   1.100   4.354 -0.6241  1.8968  2.0972
  161SAPE  C21717986   0.389   1.039   4.550 -0.1297 -0.3187  0.7580
  161SAPE  H17R17987   0.373   1.148   4.559 -0.8085 -0.2962 -0.4909
  161SAPE  H17S17988   0.500   1.035   4.540 -0.2207  0.1519 -0.6375
  161SAPE  C21817989   0.336   0.969   4.672  0.0417  0.5844 -1.1580
  161SAPE  H18R17990   0.401   0.887   4.708  0.2493  0.1298 -2.4938
  161SAPE  H18S17991   0.239   0.920   4.650 -0.1724 -0.1367  1.1359
  161SAPE  C21917992   0.302   1.060   4.785 -0.6115 -0.1599 -0.2455
  161SAPE  H19R17993   0.221   1.135   4.766 -0.2744  0.7648  1.6939
  161SAPE  H19S17994   0.388   1.128   4.805 -0.2208 -0.5364 -0.6379
  161SAPE  C22017995   0.266   0.987   4.912 -0.6809  0.2026  0.3183
  161SAPE  H20R17996   0.365   0.953   4.948  0.4700  0.9146 -1.9710
  161SAPE  H20S17997   0.200   0.898   4.905  1.4917 -1.3870 -1.7128
  161SAPE  H20T17998   0.224   1.055   4.990  0.9643  0.1635  1.2822
  161SAPE   C3317999   1.015   0.931   3.467  0.2570  0.4416 -0.1400
  161SAPE   H3X18000   1.101   0.989   3.428  1.2234 -2.0093 -1.9294
  161SAPE   H3Y18001   1.033   0.823   3.450 -1.3805 -0.0239  0.8752
  161SAPE   C3418002   1.002   0.970   3.613 -0.0721  0.0366  0.7351
  161SAPE   H4X18003   0.899   0.953   3.650 -0.3346  1.1817  0.5849
  161SAPE   H4Y18004   1.008   1.080   3.601  2.6820 -0.0575  0.7665
  161SAPE   C3518005   1.105   0.912   3.707 -0.0091 -0.6590 -0.9801
  161SAPE   H5X18006   1.209   0.916   3.666  0.6421 -1.1675  0.5614
  161SAPE   H5Y18007   1.081   0.803   3.713 -0.7387 -0.6461 -2.8891
  161SAPE   C3618008   1.101   0.967   3.854  0.0341  0.3668  0.0500
  161SAPE   H6X18009   0.998   0.944   3.887 -0.6850 -1.1601 -2.8613
  161SAPE   H6Y18010   1.121   1.075   3.838 -2.4173  0.7125 -1.1585
  161SAPE   C3718011   1.206   0.915   3.952  0.1056 -0.6231  0.1987
  161SAPE   H7X18012   1.300   0.935   3.897  0.5011 -0.3625  0.9581
  161SAPE   H7Y18013   1.194   0.806   3.970  1.3702 -1.0008 -1.1029
  161SAPE   C3818014   1.205   0.991   4.086  0.1416 -0.0228  0.3582
  161SAPE   H8X18015   1.101   1.018   4.114  0.7773  1.1543  1.6894
  161SAPE   H8Y18016   1.269   1.081   4.092 -0.9488  0.6693  3.2773
  161SAPE   C3918017   1.241   0.898   4.202 -0.5126 -0.0804 -0.0972
  161SAPE   H9X18018   1.337   0.844   4.187 -0.9194 -0.9840  0.4486
  161SAPE   H9Y18019   1.165   0.816   4.208 -1.7249  1.0199  0.1170
  161SAPE  C31018020   1.233   0.970   4.336  0.4731  0.5759 -0.8604
  161SAPE  H10X18021   1.133   1.018   4.349  0.1555 -0.1607 -0.5079
  161SAPE  H10Y18022   1.308   1.051   4.338  1.1664 -0.0680  0.6793
  161SAPE  C31118023   1.269   0.881   4.456 -0.2116 -0.8454 -0.0940
  161SAPE  H11X18024   1.374   0.847   4.467  0.0583 -0.1367 -0.4047
  161SAPE  H11Y18025   1.205   0.791   4.452  1.6121 -2.1556 -1.1918
  161SAPE  C31218026   1.236   0.954   4.588 -0.2463  0.2927  0.2793
  161SAPE  H12X18027   1.287   1.051   4.570 -0.1441  0.4290  1.2948
  161SAPE  H12Y18028   1.288   0.913   4.677 -0.8814 -0.4513  0.3172
  161SAPE  C31318029   1.089   0.972   4.622  0.4898 -0.0232  0.6263
  161SAPE  H13X18030   1.055   0.876   4.667 -0.1075 -0.7276 -1.2298
  161SAPE  H13Y18031   1.024   0.991   4.534 -1.5638  3.0219  2.6237
  161SAPE  C31418032   1.068   1.086   4.723  0.5324  1.2365 -0.5624
  161SAPE  H14X18033   1.137   1.071   4.809  0.8415 -0.1929 -1.0276
  161SAPE  H14Y18034   0.965   1.072   4.762  0.6432  2.1745  0.1202
  161SAPE  C31518035   1.076   1.244   4.681 -0.2168  0.0038  1.0228
  161SAPE  H15X18036   1.001   1.295   4.617  0.9653  2.5295  1.5447
  161SAPE  H15Y18037   1.169   1.246   4.620 -0.2036  0.6726  1.0598
  161SAPE  C31618038   1.103   1.339   4.797 -0.1566  0.4045 -0.1518
  161SAPE  H16X18039   1.053   1.297   4.886  0.9640 -1.0446 -0.1724
  161SAPE  H16Y18040   1.055   1.432   4.759 -1.1277 -0.2226 -0.5015
  161SAPE  C31718041   1.253   1.371   4.830  0.2257  0.0512  0.9822
  161SAPE  H17X18042   1.300   1.386   4.731 -2.3546  2.7832  0.0488
  161SAPE  H17Y18043   1.300   1.282   4.879 -1.7005 -2.7730 -1.9390
  161SAPE  C31818044   1.271   1.501   4.916 -0.4715 -0.1959 -0.3212
  161SAPE  H18X18045   1.377   1.516   4.944  0.4753 -0.7392 -3.3226
  161SAPE  H18Y18046   1.212   1.500   5.011 -0.3426 -1.2534 -0.2384
  161SAPE  H18Z18047   1.251   1.586   4.847  0.7304  0.0377 -0.3945
  162SAPE     N18048   0.012   1.482   2.360 -0.2243 -0.2394 -0.2646
  162SAPE   HN118049  -0.026   1.555   2.297 -0.8510  0.9840  1.4583
  162SAPE   HN218050   0.084   1.431   2.305  0.3278  1.5477 -1.2957
  162SAPE   HN318051  -0.063   1.411   2.375 -2.7880  2.3296  0.0879
  162SAPE   C1218052   0.075   1.543   2.481 -0.1043 -0.0129  0.4235
  162SAPE  H12A18053   0.155   1.609   2.440 -0.6966  0.3636 -0.1409
  162SAPE  H12B18054   0.129   1.459   2.531  0.1183 -0.9794 -1.3406
  162SAPE   C1118055  -0.021   1.612   2.575 -0.7740 -0.1080  0.1895
  162SAPE  H11A18056   0.032   1.646   2.666 -1.6002  1.3163  0.1675
  162SAPE  H11B18057  -0.099   1.543   2.613 -3.0889  1.2694 -1.7645
  162SAPE     P18058  -0.233   1.741   2.486 -0.2866  0.3130  0.1857
  162SAPE   O1318059  -0.257   1.842   2.376 -0.4014  0.1224 -0.8659
  162SAPE   O1418060  -0.279   1.608   2.460  0.2195  0.3628  0.0401
  162SAPE   O1218061  -0.080   1.728   2.522 -0.6268  0.0263  0.0249
  162SAPE   O1118062  -0.293   1.790   2.625 -0.1413  0.0344  0.1667
  162SAPE    C118063  -0.219   1.890   2.701  0.0161 -0.1806 -0.1278
  162SAPE    HA18064  -0.131   1.935   2.650 -0.8418  2.1246  0.2787
  162SAPE    HB18065  -0.287   1.975   2.726  1.4801  1.1494 -0.4745
  162SAPE    C218066  -0.155   1.831   2.826  0.8573 -0.2585  0.2462
  162SAPE    HS18067  -0.071   1.765   2.797  1.7214  0.3479  1.2871
  162SAPE   O2118068  -0.263   1.755   2.885 -0.8771  0.0246  0.2025
  162SAPE   C2118069  -0.222   1.635   2.946  0.6464 -0.2135 -0.4878
  162SAPE   O2218070  -0.110   1.594   2.953  0.0116 -0.1014  0.3100
  162SAPE   C2218071  -0.341   1.565   3.005  0.1932 -0.3184  0.2485
  162SAPE   H2R18072  -0.418   1.640   3.030 -0.0405  0.0666 -1.4707
  162SAPE   H2S18073  -0.387   1.485   2.942 -0.2977  0.4088 -0.3311
  162SAPE    C318074  -0.096   1.945   2.926 -0.1562 -0.3170  0.8063
  162SAPE    HX18075  -0.173   2.023   2.940  1.5193  1.4855  0.4548
  162SAPE    HY18076  -0.016   1.998   2.869 -1.1027 -0.4127 -0.6650
  162SAPE   O3118077  -0.062   1.897   3.059  1.0752  0.1553  0.4447
  162SAPE   C3118078   0.063   1.860   3.069 -0.3853  0.3295  0.1028
  162SAPE   O3218079   0.140   1.845   2.969  0.5108  0.6021 -0.0934
  162SAPE   C3218080   0.089   1.837   3.219  0.1376  0.7261 -0.0645
  162SAPE   H2X18081   0.009   1.769   3.256  1.6812 -1.3702 -0.4575
  162SAPE   H2Y18082   0.076   1.938   3.263  3.7709  1.8107 -1.0975
  162SAPE   C2318083  -0.297   1.492   3.134  0.2629  0.3383  0.4721
  162SAPE   H3R18084  -0.215   1.418   3.124  2.4031  1.8444  4.4441
  162SAPE   H3S18085  -0.383   1.437   3.178 -0.0697  1.0730  0.7633
  162SAPE   C2418086  -0.263   1.595   3.248  0.4045 -0.1588  0.0944
  162SAPE   H4R18087  -0.349   1.650   3.291  0.4553  1.4850 -1.7295
  162SAPE   H4S18088  -0.208   1.681   3.203 -3.3155  2.4788  0.1189
  162SAPE   C2518089  -0.184   1.545   3.370  0.4524 -0.7371 -0.1118
  162SAPE   H5R18090  -0.239   1.586   3.456 -0.1180  0.2634 -0.9349
  162SAPE   C2618091  -0.063   1.491   3.397  0.6221  0.1215 -0.3958
  162SAPE   H6R18092  -0.047   1.467   3.504 -0.7482  0.5587 -0.0750
  162SAPE   C2718093   0.045   1.449   3.302 -0.5514 -0.1587  0.1738
  162SAPE   H7R18094   0.134   1.508   3.332 -1.3350  1.7184 -0.9921
  162SAPE   H7S18095   0.017   1.481   3.199  1.2000 -0.7525 -0.5212
  162SAPE   C2818096   0.057   1.296   3.302  0.0850  0.0028 -0.6318
  162SAPE   H8R18097   0.023   1.253   3.206  0.6349  1.2382 -1.4023
  162SAPE   C2918098   0.120   1.220   3.394  0.6339 -0.5694  0.3953
  162SAPE   H9R18099   0.117   1.114   3.364  0.9844  0.1407 -2.3734
  162SAPE  C21018100   0.196   1.268   3.514  0.5635  0.0977  0.4113
  162SAPE  H10R18101   0.171   1.373   3.539 -1.2971 -0.2768  0.2533
  162SAPE  H10S18102   0.304   1.285   3.494  0.1381  3.1200  0.1890
  162SAPE  C21118103   0.181   1.182   3.636  0.4087  0.4340 -0.4995
  162SAPE  H11R18104   0.178   1.074   3.614 -0.7511 -0.4841  3.4126
  162SAPE  C21218105   0.159   1.217   3.766  0.0550  0.1101  0.0323
  162SAPE  H12R18106   0.152   1.137   3.841  0.9055 -0.2842 -0.2959
  162SAPE  C21318107   0.162   1.356   3.820 -0.3544 -0.1106  1.0019
  162SAPE  H13R18108   0.198   1.437   3.752 -2.9565  1.4403  1.3325
  162SAPE  H13S18109   0.240   1.347   3.899 -0.9870  0.2941  1.6869
  162SAPE  C21418110   0.025   1.378   3.875  0.3897 -0.4085  0.3412
  162SAPE  H14R18111  -0.025   1.296   3.928  0.0457 -0.6346 -0.3277
  162SAPE  C21518112  -0.051   1.492   3.861  0.6573 -0.0396  0.4294
  162SAPE  H15R18113  -0.152   1.490   3.906  0.3684 -0.3185 -0.2139
  162SAPE  C21618114  -0.015   1.616   3.786  0.4682 -0.1842  0.1484
  162SAPE  H16R18115  -0.059   1.613   3.684  0.3186  0.3134  0.1966
  162SAPE  H16S18116   0.094   1.627   3.767  0.0366  1.3021 -1.8716
  162SAPE  C21718117  -0.061   1.752   3.856 -0.3645 -0.1690  0.1435
  162SAPE  H17R18118  -0.020   1.746   3.959 -2.1500  0.3130  0.9240
  162SAPE  H17S18119  -0.171   1.759   3.870 -0.0992  3.1410  1.2725
  162SAPE  C21818120  -0.005   1.873   3.775  0.2308 -0.3014  0.0327
  162SAPE  H18R18121   0.104   1.858   3.792  0.3108 -0.4863 -0.6058
  162SAPE  H18S18122  -0.027   1.962   3.838  2.1025 -0.4672  1.0032
  162SAPE  C21918123  -0.032   1.893   3.626 -0.3311  0.4944 -0.0993
  162SAPE  H19R18124  -0.009   1.793   3.581 -0.6824 -0.7036  2.2478
  162SAPE  H19S18125   0.042   1.965   3.585  0.1277 -0.6174 -1.3259
  162SAPE  C22018126  -0.171   1.941   3.594  0.4220 -0.0425  0.2017
  162SAPE  H20R18127  -0.189   1.927   3.485  0.4696 -2.8356  0.4781
  162SAPE  H20S18128  -0.192   2.046   3.623 -0.6756  0.6272 -2.6137
  162SAPE  H20T18129  -0.247   1.874   3.640  0.6967  0.8638  2.0642
  162SAPE   C3318130   0.227   1.783   3.260  0.0010  0.3717  0.1089
  162SAPE   H3X18131   0.305   1.840   3.204  0.1391 -0.4928 -0.6090
  162SAPE   H3Y18132   0.236   1.683   3.212  1.6318 -0.3142  1.7322
  162SAPE   C3418133   0.236   1.765   3.413  0.0964  0.0110 -0.2337
  162SAPE   H4X18134   0.138   1.749   3.465  0.5679  0.6895  0.9149
  162SAPE   H4Y18135   0.245   1.867   3.458  1.9189  0.9726 -2.6150
  162SAPE   C3518136   0.346   1.665   3.454 -0.3105  0.3449 -0.7911
  162SAPE   H5X18137   0.446   1.699   3.420  0.1363  0.3742  0.4952
  162SAPE   H5Y18138   0.320   1.567   3.409  1.4484 -0.0630 -0.9809
  162SAPE   C3618139   0.352   1.645   3.605 -0.3623  0.0238  0.9272
  162SAPE   H6X18140   0.428   1.565   3.616 -2.2369 -1.6650  2.3116
  162SAPE   H6Y18141   0.258   1.621   3.660 -0.2376  0.0432  1.1500
  162SAPE   C3718142   0.401   1.766   3.676 -0.4654 -0.4683  0.3986
  162SAPE   H7X18143   0.333   1.852   3.662  1.2806  0.7143 -1.3914
  162SAPE   H7Y18144   0.507   1.794   3.657 -0.9124 -0.0060 -1.6356
  162SAPE   C3818145   0.387   1.742   3.831 -0.1641  0.3358 -0.3057
  162SAPE   H8X18146   0.282   1.755   3.863  0.3331  1.0901  1.1260
  162SAPE   H8Y18147   0.439   1.824   3.885 -0.6891  0.0520  0.6619
  162SAPE   C3918148   0.436   1.605   3.880 -0.1691 -0.1522 -0.0636
  162SAPE   H9X18149   0.546   1.601   3.864 -0.0922  0.3555  0.3079
  162SAPE   H9Y18150   0.391   1.518   3.826  0.8048 -0.9129  0.3153
  162SAPE  C31018151   0.420   1.587   4.029  0.0644  0.9882  0.0006
  162SAPE  H10X18152   0.310   1.579   4.046  0.0270 -0.2830 -0.7299
  162SAPE  H10Y18153   0.463   1.674   4.083  0.3812  0.3959  0.7063
  162SAPE  C31118154   0.481   1.460   4.091 -0.2977  0.0998 -0.2260
  162SAPE  H11X18155   0.587   1.493   4.080 -0.3264  0.2418 -0.0791
  162SAPE  H11Y18156   0.453   1.369   4.034  0.9879 -0.4600 -0.0016
  162SAPE  C31218157   0.451   1.436   4.239 -0.2321 -0.4028  0.5812
  162SAPE  H12X18158   0.531   1.366   4.273 -2.1054 -2.5334  0.8870
  162SAPE  H12Y18159   0.369   1.362   4.251  1.0009 -1.7681  1.0135
  162SAPE  C31318160   0.453   1.556   4.331 -1.0971 -0.5182  0.1680
  162SAPE  H13X18161   0.377   1.636   4.319  1.0103  1.6067  0.1588
  162SAPE  H13Y18162   0.555   1.600   4.326 -0.8321 -1.0922  0.3977
  162SAPE  C31418163   0.437   1.500   4.473  0.3100  0.1583 -0.1113
  162SAPE  H14X18164   0.337   1.451   4.470  0.1656  0.4444 -0.0449
  162SAPE  H14Y18165   0.441   1.584   4.545  0.8053  2.0148 -2.1774
  162SAPE  C31518166   0.550   1.409   4.511 -0.1069  0.4689  0.1803
  162SAPE  H15X18167   0.644   1.457   4.475  0.7987  0.5913  2.5423
  162SAPE  H15Y18168   0.550   1.301   4.483  0.3531 -0.0093  1.9002
  162SAPE  C31618169   0.565   1.392   4.663 -0.2008 -0.4323  0.5393
  162SAPE  H16X18170   0.461   1.369   4.693 -1.2036  1.9785 -0.7662
  162SAPE  H16Y18171   0.587   1.495   4.699  2.6434 -0.3291 -1.1591
  162SAPE  C31718172   0.676   1.294   4.697  0.1650 -0.2904  0.0774
  162SAPE  H17X18173   0.763   1.321   4.635 -0.0238 -1.1716 -0.5913
  162SAPE  H17Y18174   0.654   1.187   4.673  2.2095 -0.7807  0.1878
  162SAPE  C31818175   0.722   1.315   4.836 -0.3074 -0.2552 -0.3747
  162SAPE  H18X18176   0.649   1.294   4.918 -1.7442  2.5675 -0.8231
  162SAPE  H18Y18177   0.760   1.419   4.844 -1.3084 -0.0196  2.6220
  162SAPE  H18Z18178   0.806   1.242   4.838  0.0524  0.0734 -2.1589
  163SAPE     N18179   5.296   5.312   2.615  0.1240 -0.7381 -0.1740
  163SAPE   HN118180   5.290   5.246   2.695  1.5938 -0.0875  0.5011
  163SAPE   HN218181   5.354   5.393   2.645  0.7175 -1.7197  1.4005
  163SAPE   HN318182   5.202   5.352   2.593 -0.6641 -2.3829  0.0504
  163SAPE   C1218183   5.355   5.256   2.492 -0.2386 -0.5489 -0.3380
  163SAPE  H12A18184   5.370   5.336   2.416 -2.0775 -0.6347 -0.8255
  163SAPE  H12B18185   5.286   5.177   2.457 -1.3452  0.9160 -1.5354
  163SAPE   C1118186   5.488   5.185   2.515 -0.1489  0.0568 -0.1936
  163SAPE  H11A18187   5.544   5.182   2.419 -3.2193 -2.4050 -2.0943
  163SAPE  H11B18188   5.474   5.076   2.529  1.6548 -0.0884  0.9414
  163SAPE     P18189   5.719   5.205   2.632  0.1329  0.4202 -0.2854
  163SAPE   O1318190   5.760   5.062   2.629  0.5621  0.1352  0.8064
  163SAPE   O1418191   5.784   5.290   2.532 -0.2316 -0.2066  0.0291
  163SAPE   O1218192   5.563   5.232   2.622 -0.0772  0.3580  0.2451
  163SAPE   O1118193   5.756   5.255   2.776  0.1577 -0.3778 -0.2468
  163SAPE    C118194   5.656   5.235   2.878 -1.0271  0.0136 -0.0539
  163SAPE    HA18195   5.614   5.335   2.901 -0.6872  0.4834 -1.3744
  163SAPE    HB18196   5.576   5.163   2.853 -1.8898  1.4790 -1.7235
  163SAPE    C218197   5.718   5.170   3.012 -0.2661 -0.6665  0.1153
  163SAPE    HS18198   5.632   5.119   3.060 -0.4253 -0.4104  0.1012
  163SAPE   O2118199   5.755   5.271   3.105  0.0240 -0.0685  0.1577
  163SAPE   C2118200   5.656   5.343   3.153 -0.2251 -0.4175  0.1909
  163SAPE   O2218201   5.538   5.329   3.128 -0.2922  0.1817  0.1922
  163SAPE   C2218202   5.704   5.454   3.240  0.6685  0.5407 -0.6981
  163SAPE   H2R18203   5.773   5.415   3.318 -1.6228 -0.6103  0.8701
  163SAPE   H2S18204   5.751   5.525   3.169  0.7969  0.3029 -0.8513
  163SAPE    C318205   5.833   5.074   2.991 -0.7135  0.1236  0.0033
  163SAPE    HX18206   5.914   5.138   2.950  0.4723 -1.3408 -0.0646
  163SAPE    HY18207   5.815   5.001   2.909  0.7356  0.0460 -0.2741
  163SAPE   O3118208   5.882   5.016   3.120 -0.7062 -0.0153  0.3105
  163SAPE   C3118209   5.807   4.912   3.163  0.1830  0.2984 -0.1667
  163SAPE   O3218210   5.694   4.884   3.119  0.1748  0.3172 -0.3252
  163SAPE   C3218211   5.882   4.837   3.273 -0.4120  0.4069  0.1419
  163SAPE   H2X18212   5.984   4.871   3.302 -0.2425  0.2123 -0.2319
  163SAPE   H2Y18213   5.901   4.735   3.234 -1.7251  0.4725 -0.7102
  163SAPE   C2318214   5.591   5.524   3.325 -0.0173  0.5727  0.0673
  163SAPE   H3R18215   5.508   5.557   3.259 -0.6074  1.2023  1.1019
  163SAPE   H3S18216   5.645   5.614   3.361  1.1743  0.8001 -2.1515
  163SAPE   C2418217   5.528   5.430   3.435  0.3550  0.5877  0.3399
  163SAPE   H4R18218   5.612   5.385   3.492  1.1672  1.1722 -0.3691
  163SAPE   H4S18219   5.470   5.360   3.371  2.2876 -0.0501 -0.8015
  163SAPE   C2518220   5.445   5.510   3.532 -0.4035  0.9353 -0.8022
  163SAPE   H5R18221   5.342   5.524   3.498 -0.9826 -0.2616  0.3956
  163SAPE   C2618222   5.500   5.552   3.648  0.4759  0.2586 -0.0674
  163SAPE   H6R18223   5.447   5.635   3.696 -1.9852 -0.6132 -1.1050
  163SAPE   C2718224   5.646   5.524   3.696  0.0708  0.2307 -0.4664
  163SAPE   H7R18225   5.692   5.619   3.731 -2.6353  1.4804 -0.0950
  163SAPE   H7S18226   5.707   5.479   3.614 -3.0750 -3.6585 -0.9853
  163SAPE   C2818227   5.647   5.427   3.808  0.3912 -0.5496 -0.1329
  163SAPE   H8R18228   5.667   5.325   3.771 -2.8578 -1.7423  0.9740
  163SAPE   C2918229   5.629   5.449   3.941 -0.0850  0.2347 -0.1676
  163SAPE   H9R18230   5.637   5.362   4.007 -0.8568  0.9328  0.8727
  163SAPE  C21018231   5.622   5.588   4.004  0.1186  1.1097  0.6625
  163SAPE  H10R18232   5.625   5.668   3.926 -3.5610 -0.9099 -1.8521
  163SAPE  H10S18233   5.719   5.604   4.055  0.2339 -1.7362  1.4804
  163SAPE  C21118234   5.498   5.582   4.091  0.6742 -0.0607 -0.7690
  163SAPE  H11R18235   5.396   5.571   4.050  0.1689  0.9410  0.1465
  163SAPE  C21218236   5.497   5.592   4.227 -0.3083 -0.3903  0.6569
  163SAPE  H12R18237   5.401   5.579   4.280  0.3785 -0.2522  1.9727
  163SAPE  C21318238   5.621   5.603   4.312  0.1215  0.0880  0.6460
  163SAPE  H13R18239   5.680   5.694   4.287 -0.8284  0.2271 -1.2980
  163SAPE  H13S18240   5.687   5.519   4.280 -2.7739 -1.6350 -1.3417
  163SAPE  C21418241   5.599   5.599   4.460  0.2740  0.2472 -0.3044
  163SAPE  H14R18242   5.506   5.551   4.494  1.4759 -2.9373 -1.1968
  163SAPE  C21518243   5.678   5.656   4.549 -0.6202 -0.3082 -0.0882
  163SAPE  H15R18244   5.651   5.643   4.655 -0.1716 -0.2411  0.0357
  163SAPE  C21618245   5.809   5.724   4.517  0.0548 -0.3497  0.3163
  163SAPE  H16R18246   5.857   5.772   4.605  0.5591  0.0286 -0.1568
  163SAPE  H16S18247   5.801   5.807   4.444  1.9512  0.0040  0.4485
  163SAPE  C21718248   5.916   5.619   4.475  0.1331 -0.5794  0.4566
  163SAPE  H17R18249   6.002   5.681   4.442 -0.0861 -0.2922  0.4180
  163SAPE  H17S18250   5.881   5.561   4.387  2.5018 -0.6667 -0.4808
  163SAPE  C21818251   5.973   5.528   4.580 -0.0484 -0.3252  0.4043
  163SAPE  H18R18252   6.069   5.486   4.541  0.9483  0.9990  1.3681
  163SAPE  H18S18253   5.908   5.442   4.606 -0.5214 -0.2669 -0.5694
  163SAPE  C21918254   6.021   5.597   4.708 -0.5313 -0.0697 -0.8253
  163SAPE  H19R18255   6.064   5.697   4.685  2.4873 -1.0537  0.0579
  163SAPE  H19S18256   6.103   5.536   4.751 -0.2747 -0.9127 -2.4662
  163SAPE  C22018257   5.928   5.614   4.828 -0.2601  0.5825 -0.0585
  163SAPE  H20R18258   5.984   5.667   4.909  0.0041  2.1569 -1.2200
  163SAPE  H20S18259   5.902   5.516   4.873 -1.0309  0.3930 -0.8833
  163SAPE  H20T18260   5.834   5.670   4.807 -0.5015  0.2910  0.2271
  163SAPE   C3318261   5.795   4.822   3.403 -0.3304  0.5563  0.1102
  163SAPE   H3X18262   5.838   4.758   3.482 -0.5508  2.2172  1.6389
  163SAPE   H3Y18263   5.694   4.781   3.380 -0.0404  0.0033 -0.1928
  163SAPE   C3418264   5.790   4.963   3.466  0.0270 -0.4561  0.6484
  163SAPE   H4X18265   5.739   5.033   3.396  1.0527  0.6577  0.9997
  163SAPE   H4Y18266   5.894   5.002   3.473 -0.0401 -0.0594 -0.4475
  163SAPE   C3518267   5.707   4.978   3.591  0.1313 -0.1476  0.4617
  163SAPE   H5X18268   5.603   4.945   3.572 -0.2262  2.0572 -2.0990
  163SAPE   H5Y18269   5.715   5.086   3.614  0.0364 -0.0193 -0.0982
  163SAPE   C3618270   5.775   4.908   3.710  0.3714  0.2644 -0.8166
  163SAPE   H6X18271   5.873   4.960   3.723 -0.1486  1.2115 -0.6163
  163SAPE   H6Y18272   5.782   4.798   3.696 -0.9836  0.2437 -1.4619
  163SAPE   C3718273   5.705   4.943   3.838  0.6504  0.3906 -0.1636
  163SAPE   H7X18274   5.604   4.898   3.835 -0.2538  2.0618  2.2597
  163SAPE   H7Y18275   5.690   5.053   3.829  0.7145  0.3329 -1.0770
  163SAPE   C3818276   5.768   4.896   3.966  0.9617 -0.0545  0.1079
  163SAPE   H8X18277   5.875   4.926   3.958  0.9901 -0.1515  0.1139
  163SAPE   H8Y18278   5.760   4.785   3.954  0.4361 -0.4904  3.5122
  163SAPE   C3918279   5.686   4.953   4.082 -0.7260 -0.5314 -0.8163
  163SAPE   H9X18280   5.729   4.913   4.176  1.5105  0.9530 -1.1210
  163SAPE   H9Y18281   5.579   4.924   4.076 -1.3092  0.9668  1.1742
  163SAPE  C31018282   5.695   5.104   4.093 -0.0919 -0.9035 -0.3617
  163SAPE  H10X18283   5.660   5.164   4.006 -1.3354  3.1230  2.6258
  163SAPE  H10Y18284   5.795   5.145   4.121  1.0486 -2.7529 -1.4718
  163SAPE  C31118285   5.606   5.161   4.214  1.0142  0.0328  0.5983
  163SAPE  H11X18286   5.507   5.115   4.192  1.8196 -0.2354 -3.2845
  163SAPE  H11Y18287   5.586   5.269   4.200  1.3154  0.1041  0.7161
  163SAPE  C31218288   5.668   5.142   4.353 -0.8068  0.1107 -0.3640
  163SAPE  H12X18289   5.776   5.170   4.358 -0.8205 -0.0459  1.6630
  163SAPE  H12Y18290   5.649   5.040   4.390  1.5444 -0.5312 -0.7639
  163SAPE  C31318291   5.578   5.234   4.454 -0.6950 -0.2139 -1.0376
  163SAPE  H13X18292   5.468   5.223   4.445 -0.9453  0.9008  0.1919
  163SAPE  H13Y18293   5.603   5.341   4.437 -1.9605  0.5739  1.4849
  163SAPE  C31418294   5.620   5.205   4.600 -0.4465  0.7591 -0.0334
  163SAPE  H14X18295   5.730   5.195   4.612 -0.4274 -0.2512 -0.8673
  163SAPE  H14Y18296   5.568   5.110   4.624  0.2772  0.5519  0.7518
  163SAPE  C31518297   5.575   5.311   4.698 -0.6406 -0.4040  0.3089
  163SAPE  H15X18298   5.471   5.291   4.730 -0.5204  0.2117  1.1277
  163SAPE  H15Y18299   5.577   5.410   4.648  1.2040  0.0504  1.1569
  163SAPE  C31618300   5.665   5.314   4.825  0.2281  0.1538 -0.1345
  163SAPE  H16X18301   5.767   5.356   4.811  1.4613 -1.9559  1.8537
  163SAPE  H16Y18302   5.681   5.210   4.861 -3.1056 -0.2228  0.6686
  163SAPE  C31718303   5.603   5.409   4.936  0.0569  0.2418 -0.2534
  163SAPE  H17X18304   5.584   5.510   4.894 -1.5786  0.4373  0.8568
  163SAPE  H17Y18305   5.688   5.419   5.007 -0.1487  0.9980 -0.1004
  163SAPE  C31818306   5.473   5.361   4.996  1.1127  0.4208  0.3848
  163SAPE  H18X18307   5.386   5.363   4.926  1.1536  2.7703  0.3137
  163SAPE  H18Y18308   5.451   5.409   5.094  0.1981 -0.7661  0.7965
  163SAPE  H18Z18309   5.472   5.254   5.024  1.6090  0.2179 -0.3562
  164SAPE     N18310   0.900   6.749   2.420 -0.7135 -0.5470  0.0214
  164SAPE   HN118311   0.926   6.678   2.348  1.1281 -0.6276  0.7098
  164SAPE   HN218312   0.825   6.816   2.393 -2.6058 -1.6411  2.2032
  164SAPE   HN318313   0.989   6.800   2.432 -0.8687 -0.1101 -0.6181
  164SAPE   C1218314   0.869   6.673   2.546  0.0144  0.7282 -0.2209
  164SAPE  H12A18315   0.843   6.748   2.623  1.6992 -0.3541  1.5116
  164SAPE  H12B18316   0.963   6.630   2.588  0.7141  1.5200 -0.9365
  164SAPE   C1118317   0.767   6.568   2.534  0.2209  0.1462 -0.2843
  164SAPE  H11A18318   0.797   6.504   2.447 -2.2666  1.0683 -1.9204
  164SAPE  H11B18319   0.676   6.629   2.516  0.1935 -0.0791 -0.9593
  164SAPE     P18320   0.690   6.528   2.786  0.0371  0.8285 -0.2227
  164SAPE   O1318321   0.587   6.636   2.772  0.5116  0.8721 -0.1644
  164SAPE   O1418322   0.638   6.399   2.846 -0.1568 -0.0963 -0.0135
  164SAPE   O1218323   0.753   6.489   2.649 -0.2026  0.1612  0.1556
  164SAPE   O1118324   0.816   6.574   2.872 -0.0351  0.1705  0.1541
  164SAPE    C118325   0.938   6.499   2.882 -0.7158 -0.2687 -0.0873
  164SAPE    HA18326   0.947   6.425   2.800  0.5585  1.3610 -1.5238
  164SAPE    HB18327   1.020   6.566   2.849 -0.4683 -0.4416  0.1799
  164SAPE    C218328   0.968   6.451   3.026 -0.8344  1.0983 -0.2921
  164SAPE    HS18329   1.068   6.403   3.029 -1.0665  0.4403 -1.9836
  164SAPE   O2118330   0.866   6.345   3.058 -0.3547 -0.4506  0.1618
  164SAPE   C2118331   0.906   6.224   3.017  0.2049 -0.1716 -0.0564
  164SAPE   O2218332   1.010   6.201   2.959 -0.1164  0.1210 -0.2025
  164SAPE   C2218333   0.807   6.118   3.058 -0.2562 -0.4384 -0.1887
  164SAPE   H2R18334   0.719   6.119   2.989 -0.3422 -0.1274 -0.0753
  164SAPE   H2S18335   0.868   6.026   3.070  1.0967  0.6787  2.2034
  164SAPE    C318336   0.956   6.563   3.132 -0.2458 -0.0987 -0.2234
  164SAPE    HX18337   0.849   6.593   3.139 -0.2307 -0.1106  0.0796
  164SAPE    HY18338   1.010   6.650   3.087 -1.4963  1.0276  0.3638
  164SAPE   O3118339   1.002   6.528   3.262 -0.3149  0.3906 -0.0429
  164SAPE   C3118340   1.042   6.627   3.336  0.4372  0.2128 -0.0792
  164SAPE   O3218341   1.024   6.748   3.313 -0.4588  0.5341  0.3066
  164SAPE   C3218342   1.099   6.575   3.463 -0.4380  0.2366  0.3262
  164SAPE   H2X18343   1.105   6.656   3.540  1.6068 -1.8456  2.5309
  164SAPE   H2Y18344   1.203   6.544   3.438 -0.1484  1.1244  0.3852
  164SAPE   C2318345   0.752   6.141   3.199 -0.5052  0.1708 -0.3528
  164SAPE   H3R18346   0.671   6.069   3.220  1.9781 -2.1767  2.0047
  164SAPE   H3S18347   0.705   6.242   3.204  1.6135  1.1595  2.2481
  164SAPE   C2418348   0.859   6.138   3.309 -0.8543  0.7503 -0.1368
  164SAPE   H4R18349   0.801   6.156   3.402 -0.1114  0.0267  0.4883
  164SAPE   H4S18350   0.926   6.225   3.291  0.1965  0.1104  0.5838
  164SAPE   C2518351   0.940   6.014   3.323 -0.4292  0.5975  0.3277
  164SAPE   H5R18352   1.028   6.015   3.257  2.6721  0.9528  4.1178
  164SAPE   C2618353   0.922   5.909   3.403 -0.6472  0.1984  0.2444
  164SAPE   H6R18354   0.992   5.824   3.407 -1.2381 -0.2407  1.5493
  164SAPE   C2718355   0.812   5.897   3.497  0.4442  0.3796  0.7808
  164SAPE   H7R18356   0.819   5.982   3.568  0.1224 -1.2694  2.8861
  164SAPE   H7S18357   0.835   5.815   3.569  0.8727  0.7779  1.1092
  164SAPE   C2818358   0.667   5.887   3.449 -0.4496  0.2590 -0.4740
  164SAPE   H8R18359   0.644   5.922   3.347  0.6481  1.4316 -0.3379
  164SAPE   C2918360   0.560   5.843   3.521 -0.3991  0.3767 -0.4419
  164SAPE   H9R18361   0.468   5.827   3.462  0.0212 -0.9911 -0.7653
  164SAPE  C21018362   0.547   5.805   3.662 -0.9713  0.1656  0.0421
  164SAPE  H10R18363   0.613   5.717   3.678  1.2077  1.4511 -1.4852
  164SAPE  H10S18364   0.447   5.758   3.677 -0.7581 -0.4426 -0.3935
  164SAPE  C21118365   0.571   5.911   3.766 -0.4625  0.0248 -0.6580
  164SAPE  H11R18366   0.609   6.003   3.718 -0.7947  0.0184 -0.9453
  164SAPE  C21218367   0.575   5.902   3.899  0.6462 -0.4110  0.2604
  164SAPE  H12R18368   0.601   5.986   3.965 -2.5693 -0.7311  2.1773
  164SAPE  C21318369   0.520   5.785   3.971  0.8653 -0.3848 -0.5114
  164SAPE  H13R18370   0.590   5.699   3.963  2.5998  0.9086  0.2222
  164SAPE  H13S18371   0.435   5.754   3.906  0.1866  1.2652 -0.4526
  164SAPE  C21418372   0.467   5.812   4.114 -0.1815  0.1158  0.4635
  164SAPE  H14R18373   0.398   5.898   4.123  0.6710  0.8979 -0.2686
  164SAPE  C21518374   0.500   5.748   4.227  0.2325 -0.4984 -0.1917
  164SAPE  H15R18375   0.462   5.774   4.327  0.9937 -1.2290  0.3030
  164SAPE  C21618376   0.593   5.630   4.238 -0.4068 -0.0774  1.0584
  164SAPE  H16R18377   0.683   5.662   4.294  0.3667  0.3213 -0.3547
  164SAPE  H16S18378   0.639   5.596   4.142  1.5383 -0.0505  1.9382
  164SAPE  C21718379   0.522   5.503   4.296  0.3937  0.1773  0.0307
  164SAPE  H17R18380   0.432   5.484   4.233 -0.1438  0.6792  0.6310
  164SAPE  H17S18381   0.496   5.523   4.402  3.4399 -0.6525  1.0348
  164SAPE  C21818382   0.614   5.374   4.292  0.1561 -0.1905  0.6331
  164SAPE  H18R18383   0.705   5.389   4.353 -0.8206  1.2599  1.8091
  164SAPE  H18S18384   0.635   5.342   4.188 -1.3635  1.6819 -0.3175
  164SAPE  C21918385   0.549   5.250   4.359 -0.1827  0.4420  0.9818
  164SAPE  H19R18386   0.477   5.192   4.298  0.0446 -0.3413  1.4406
  164SAPE  H19S18387   0.495   5.280   4.452 -0.5454 -0.2495  1.0000
  164SAPE  C22018388   0.661   5.151   4.393 -0.2532  0.0708  0.5745
  164SAPE  H20R18389   0.754   5.190   4.441  0.3017  2.1476 -1.9676
  164SAPE  H20S18390   0.698   5.089   4.309  0.3586 -1.2484  1.7620
  164SAPE  H20T18391   0.628   5.077   4.469  2.2985  1.3804  3.1754
  164SAPE   C3318392   1.010   6.459   3.514  0.0446  0.2798 -0.5282
  164SAPE   H3X18393   1.014   6.378   3.438 -0.8322  0.1808 -0.4786
  164SAPE   H3Y18394   0.904   6.490   3.526 -0.8974 -1.2575 -3.7998
  164SAPE   C3418395   1.070   6.393   3.637  0.1468  0.3452  0.1558
  164SAPE   H4X18396   1.074   6.473   3.713  0.8724  2.0510 -1.5903
  164SAPE   H4Y18397   1.175   6.359   3.627  0.1241 -0.2294  1.5918
  164SAPE   C3518398   0.990   6.268   3.686 -0.4360 -0.6373  1.3470
  164SAPE   H5X18399   1.044   6.225   3.774  0.1605 -0.0260  1.2873
  164SAPE   H5Y18400   0.992   6.187   3.609  0.4527 -0.4713  1.1819
  164SAPE   C3618401   0.842   6.297   3.730  0.3357 -0.0117 -0.0834
  164SAPE   H6X18402   0.806   6.204   3.780  1.1300  0.2347  1.0028
  164SAPE   H6Y18403   0.777   6.309   3.642 -0.7946 -0.5876  0.6526
  164SAPE   C3718404   0.829   6.422   3.822 -0.1456 -0.1650 -1.2866
  164SAPE   H7X18405   0.860   6.515   3.770 -0.7175  0.4523 -0.5442
  164SAPE   H7Y18406   0.893   6.399   3.910 -0.1517 -1.9569 -1.7089
  164SAPE   C3818407   0.687   6.456   3.869 -0.1902 -0.1390  0.3745
  164SAPE   H8X18408   0.624   6.461   3.777 -0.7977  3.1852  0.8536
  164SAPE   H8Y18409   0.695   6.541   3.940 -0.3553 -1.6284  2.2515
  164SAPE   C3918410   0.639   6.341   3.952  0.1605  0.4999  0.4631
  164SAPE   H9X18411   0.710   6.318   4.035  1.3673  1.2273 -0.3338
  164SAPE   H9Y18412   0.634   6.246   3.894 -2.1363  0.4954  0.5997
  164SAPE  C31018413   0.499   6.343   4.017 -0.0085  0.3065 -0.0977
  164SAPE  H10X18414   0.416   6.332   3.944 -1.8856  1.2276  1.7709
  164SAPE  H10Y18415   0.493   6.442   4.067 -2.7201  0.5730 -0.7750
  164SAPE  C31118416   0.469   6.226   4.121  0.5322 -0.8781 -0.3767
  164SAPE  H11X18417   0.559   6.224   4.187 -0.3245 -1.7918  0.8063
  164SAPE  H11Y18418   0.458   6.123   4.079 -0.1189 -0.5623 -0.9869
  164SAPE  C31218419   0.349   6.250   4.208 -0.0219 -0.2616 -0.2776
  164SAPE  H12X18420   0.269   6.247   4.132  0.5158  1.3598 -0.9377
  164SAPE  H12Y18421   0.350   6.350   4.255 -2.3202 -0.3350  0.0414
  164SAPE  C31318422   0.338   6.145   4.312  0.1896  0.3956 -0.2416
  164SAPE  H13X18423   0.338   6.042   4.271 -2.0947  0.2996 -0.1513
  164SAPE  H13Y18424   0.242   6.149   4.368 -0.2903 -1.7279 -0.8311
  164SAPE  C31418425   0.436   6.155   4.439 -0.1167 -0.7965 -0.5060
  164SAPE  H14X18426   0.430   6.253   4.491 -1.2761 -1.8132  1.3858
  164SAPE  H14Y18427   0.541   6.142   4.407  0.9491  1.2582  1.7849
  164SAPE  C31518428   0.394   6.053   4.547 -0.1945 -0.0656  0.5055
  164SAPE  H15X18429   0.407   5.946   4.518 -0.6381 -0.5408  1.9409
  164SAPE  H15Y18430   0.285   6.059   4.567  0.2768 -0.8694  4.1158
  164SAPE  C31618431   0.463   6.074   4.682  0.2560  0.3762 -0.2031
  164SAPE  H16X18432   0.427   6.173   4.718 -1.4684  0.2875 -1.5555
  164SAPE  H16Y18433   0.573   6.076   4.671  0.5958 -4.6584 -0.0696
  164SAPE  C31718434   0.423   5.975   4.783 -0.6701 -0.1548  0.0749
  164SAPE  H17X18435   0.473   5.876   4.773  1.2176  0.8693 -1.2023
  164SAPE  H17Y18436   0.314   5.955   4.784 -0.5810 -0.7647 -0.9328
  164SAPE  C31818437   0.456   6.029   4.919 -0.3391 -0.4467  0.0603
  164SAPE  H18X18438   0.411   6.129   4.937 -0.7195 -0.4899 -0.6052
  164SAPE  H18Y18439   0.564   6.052   4.931 -0.5487 -0.4686  2.3322
  164SAPE  H18Z18440   0.425   5.958   4.998 -2.6868 -1.8907 -2.0023
  165SAPE     N18441   1.140   6.081   2.763 -0.4455  0.5132  0.0333
  165SAPE   HN118442   1.110   6.101   2.666 -2.1616 -1.0428  0.1790
  165SAPE   HN218443   1.091   5.998   2.803  0.6234  1.0746  2.7958
  165SAPE   HN318444   1.112   6.158   2.827  0.1367  1.6417 -1.0411
  165SAPE   C1218445   1.288   6.045   2.773  0.0363 -0.0007  0.3363
  165SAPE  H12A18446   1.311   5.981   2.684  0.2399 -0.6845  0.8695
  165SAPE  H12B18447   1.306   5.982   2.863 -0.2234  0.0042  0.3912
  165SAPE   C1118448   1.373   6.175   2.774  0.6068 -0.3020  0.2199
  165SAPE  H11A18449   1.476   6.137   2.758  0.7619  0.2010 -0.0013
  165SAPE  H11B18450   1.356   6.228   2.871  1.2927  1.4192 -0.5598
  165SAPE     P18451   1.267   6.402   2.672  0.0737  0.3314  0.2929
  165SAPE   O1318452   1.332   6.494   2.575 -0.7219 -0.0084 -0.1096
  165SAPE   O1418453   1.126   6.360   2.653 -0.1703  0.3060 -0.3648
  165SAPE   O1218454   1.349   6.262   2.665 -0.1575  0.4744  0.6674
  165SAPE   O1118455   1.292   6.438   2.818 -0.1373  0.1875  0.0319
  165SAPE    C118456   1.422   6.482   2.869  0.2779  0.0699  0.2319
  165SAPE    HA18457   1.493   6.399   2.888 -0.4992 -1.0249 -1.4266
  165SAPE    HB18458   1.463   6.563   2.805 -1.1596  2.0262  1.6611
  165SAPE    C218459   1.407   6.554   3.003  0.4570  0.3910  0.5315
  165SAPE    HS18460   1.504   6.572   3.055  2.0132  0.5691 -2.2741
  165SAPE   O2118461   1.324   6.465   3.076 -0.3632  0.5961 -0.4434
  165SAPE   C2118462   1.392   6.358   3.127 -0.3128 -0.1175 -0.1040
  165SAPE   O2218463   1.514   6.357   3.122 -0.1123 -0.3800  0.5581
  165SAPE   C2218464   1.303   6.246   3.182  0.1886 -0.0311 -0.3324
  165SAPE   H2R18465   1.254   6.274   3.278 -1.5313 -0.6920 -0.9982
  165SAPE   H2S18466   1.234   6.210   3.104  1.0897 -1.5309 -0.4690
  165SAPE    C318467   1.327   6.685   2.983 -0.9390 -0.0119  0.5984
  165SAPE    HX18468   1.230   6.658   2.936 -0.8374 -0.3968  0.6024
  165SAPE    HY18469   1.381   6.739   2.902  0.0791  1.4417  2.1798
  165SAPE   O3118470   1.313   6.761   3.106  0.0199  0.2637  0.4130
  165SAPE   C3118471   1.259   6.879   3.086  0.2700 -0.3560 -1.0479
  165SAPE   O3218472   1.211   6.916   2.982 -0.1129  0.0709  1.0165
  165SAPE   C3218473   1.265   6.972   3.208  0.2939  0.0576 -0.3630
  165SAPE   H2X18474   1.181   6.956   3.280  0.7446 -0.5831  0.0229
  165SAPE   H2Y18475   1.259   7.078   3.173 -0.6583  0.2298  0.2695
  165SAPE   C2318476   1.395   6.127   3.216  0.2878  0.2830  0.3445
  165SAPE   H3R18477   1.468   6.154   3.295  1.2944  0.8360 -0.7528
  165SAPE   H3S18478   1.446   6.099   3.121 -1.9338 -2.3791 -0.1961
  165SAPE   C2418479   1.320   6.003   3.266 -0.0375 -0.1646  0.3655
  165SAPE   H4R18480   1.237   5.979   3.197  0.7986 -0.0728 -0.6937
  165SAPE   H4S18481   1.282   6.025   3.368  0.6658 -0.7959  0.7769
  165SAPE   C2518482   1.403   5.878   3.285 -0.3377 -0.7114  0.0524
  165SAPE   H5R18483   1.471   5.867   3.199  2.0318 -1.3193  1.8979
  165SAPE   C2618484   1.419   5.797   3.390  0.5768 -0.4189  1.0065
  165SAPE   H6R18485   1.470   5.700   3.377 -1.3707 -1.3819  0.0730
  165SAPE   C2718486   1.353   5.801   3.520  0.1618 -1.1936 -1.2182
  165SAPE   H7R18487   1.377   5.711   3.580 -0.7160  1.5881  3.8865
  165SAPE   H7S18488   1.244   5.807   3.502  0.1885 -0.9027 -1.2800
  165SAPE   C2818489   1.398   5.918   3.612  0.7231 -0.3524 -0.0706
  165SAPE   H8R18490   1.486   5.976   3.581 -0.0294 -0.8392 -3.4995
  165SAPE   C2918491   1.339   5.942   3.731 -0.0409  0.1381 -0.5838
  165SAPE   H9R18492   1.371   6.026   3.795  2.1758 -2.0857  1.4471
  165SAPE  C21018493   1.225   5.873   3.793  0.3540  0.3176 -0.0794
  165SAPE  H10R18494   1.190   5.784   3.737  1.1983 -1.1186  1.5728
  165SAPE  H10S18495   1.134   5.937   3.797 -0.5879 -0.8490 -1.7295
  165SAPE  C21118496   1.253   5.813   3.928  0.1751  0.2118  0.1747
  165SAPE  H11R18497   1.333   5.737   3.934  1.1326  1.2911  2.0051
  165SAPE  C21218498   1.204   5.839   4.047  0.0961 -0.0001  0.4949
  165SAPE  H12R18499   1.246   5.785   4.133 -1.5205 -1.8074  0.2119
  165SAPE  C21318500   1.092   5.935   4.080  0.6528  0.4811  0.5263
  165SAPE  H13R18501   1.083   6.021   4.011  0.3306 -0.1016 -0.1723
  165SAPE  H13S18502   1.114   5.989   4.175  0.0909 -0.0513  0.9694
  165SAPE  C21418503   0.970   5.855   4.097  0.3181 -0.4422  0.2928
  165SAPE  H14R18504   0.973   5.752   4.060 -0.2040 -0.3258 -0.0830
  165SAPE  C21518505   0.852   5.903   4.157 -0.0341  0.3511  0.7554
  165SAPE  H15R18506   0.758   5.845   4.154  0.6779 -0.8302 -1.6551
  165SAPE  C21618507   0.829   6.038   4.210  0.5848 -0.8683  0.4974
  165SAPE  H16R18508   0.723   6.067   4.191  0.8711  0.1278  0.3566
  165SAPE  H16S18509   0.876   6.110   4.140 -1.4992  1.3515  1.2236
  165SAPE  C21718510   0.856   6.038   4.363 -0.1152  0.6088  0.0087
  165SAPE  H17R18511   0.829   6.141   4.393  1.2613  0.9981 -0.0023
  165SAPE  H17S18512   0.967   6.034   4.375  0.3828  1.5745 -3.2368
  165SAPE  C21818513   0.780   5.933   4.444 -0.0567  0.0059 -0.2293
  165SAPE  H18R18514   0.805   5.828   4.421 -0.6707 -0.8860  2.7486
  165SAPE  H18S18515   0.672   5.940   4.421  0.0593 -0.1515 -0.8462
  165SAPE  C21918516   0.807   5.951   4.598  0.8123 -0.2709  0.3111
  165SAPE  H19R18517   0.728   5.907   4.662 -0.8672  2.3366  0.1795
  165SAPE  H19S18518   0.802   6.058   4.624  2.0821 -0.6625  2.3569
  165SAPE  C22018519   0.935   5.897   4.648 -0.4807  0.0933 -0.3253
  165SAPE  H20R18520   0.939   5.786   4.645 -1.9515  0.0289 -0.6076
  165SAPE  H20S18521   0.943   5.925   4.755 -0.1880 -0.8408 -0.0924
  165SAPE  H20T18522   1.022   5.934   4.590 -0.1295 -0.3275 -0.0776
  165SAPE   C3318523   1.389   6.969   3.296 -0.1020  0.4846  0.4821
  165SAPE   H3X18524   1.471   7.031   3.254  0.4557  2.2487  3.8240
  165SAPE   H3Y18525   1.419   6.863   3.315  1.3567  0.8413  0.2681
  165SAPE   C3418526   1.357   7.019   3.433  0.2112  0.1289  0.0657
  165SAPE   H4X18527   1.291   6.936   3.465  1.2647 -1.2397 -1.2172
  165SAPE   H4Y18528   1.294   7.111   3.434 -1.2372 -0.8241  1.0384
  165SAPE   C3518529   1.486   7.029   3.510  0.4409 -0.1190 -0.0312
  165SAPE   H5X18530   1.561   7.083   3.448  2.0984  0.8095  2.6544
  165SAPE   H5Y18531   1.529   6.928   3.525  2.1192  0.7931  1.6188
  165SAPE   C3618532   1.473   7.084   3.656 -0.0294  0.6225 -0.0765
  165SAPE   H6X18533   1.374   7.051   3.694  0.2117 -0.0442 -0.0080
  165SAPE   H6Y18534   1.464   7.194   3.654 -1.8743  0.5192  0.7880
  165SAPE   C3718535   1.596   7.042   3.733  0.6867  0.1154 -0.0175
  165SAPE   H7X18536   1.681   7.030   3.663 -0.7394 -0.7394 -1.6750
  165SAPE   H7Y18537   1.574   6.943   3.779 -1.6778  0.4558 -0.2959
  165SAPE   C3818538   1.632   7.155   3.835  0.6072  0.6868  0.1466
  165SAPE   H8X18539   1.543   7.160   3.901 -1.9003 -4.4045 -2.2431
  165SAPE   H8Y18540   1.645   7.254   3.785 -1.8123  1.3509  0.6793
  165SAPE   C3918541   1.756   7.129   3.917 -0.3775 -0.5303  0.9011
  165SAPE   H9X18542   1.847   7.140   3.855  0.3720 -0.1910  2.0138
  165SAPE   H9Y18543   1.754   7.022   3.947  1.4154 -0.6740  0.5933
  165SAPE  C31018544   1.766   7.218   4.045 -0.4561  0.1934  0.8718
  165SAPE  H10X18545   1.676   7.194   4.106  1.1102 -2.2917  2.3992
  165SAPE  H10Y18546   1.759   7.322   4.005 -0.7667  0.0667  0.5964
  165SAPE  C31118547   1.884   7.203   4.147 -0.4690  0.4013 -0.5101
  165SAPE  H11X18548   1.976   7.238   4.096  0.9313  0.9318  2.1846
  165SAPE  H11Y18549   1.909   7.097   4.168  1.1639  0.7543 -0.5741
  165SAPE  C31218550   1.877   7.285   4.277  0.1854  0.7112 -0.0755
  165SAPE  H12X18551   1.866   7.391   4.248  1.4983  0.5951 -1.1160
  165SAPE  H12Y18552   1.972   7.273   4.333  1.5780  0.6622 -2.3332
  165SAPE  C31318553   1.768   7.230   4.361  0.1796  0.2625 -0.3338
  165SAPE  H13X18554   1.803   7.134   4.404 -0.4608  1.0566  2.1110
  165SAPE  H13Y18555   1.674   7.219   4.303  0.5873 -1.0714 -0.7826
  165SAPE  C31418556   1.740   7.315   4.486 -0.1884  0.0362  0.2833
  165SAPE  H14X18557   1.630   7.308   4.501 -0.1590 -0.7761  0.1598
  165SAPE  H14Y18558   1.773   7.421   4.482  2.3916 -0.6616  0.9169
  165SAPE  C31518559   1.821   7.266   4.605  0.0543 -0.5365 -0.8504
  165SAPE  H15X18560   1.928   7.259   4.575 -0.0668 -0.6947 -1.2578
  165SAPE  H15Y18561   1.795   7.159   4.619 -0.7645 -0.1871  0.5642
  165SAPE  C31618562   1.784   7.329   4.740  0.4605 -0.6355 -0.6940
  165SAPE  H16X18563   1.834   7.277   4.825  2.0779  0.5576 -0.8696
  165SAPE  H16Y18564   1.679   7.326   4.777  1.3822  0.9360  2.3618
  165SAPE  C31718565   1.829   7.475   4.743  0.5183  0.0653  0.1711
  165SAPE  H17X18566   1.770   7.530   4.667 -1.5182 -1.9891  0.1438
  165SAPE  H17Y18567   1.930   7.467   4.697 -0.0283  1.2132 -1.2908
  165SAPE  C31818568   1.840   7.540   4.879  0.6611  0.1842 -0.1094
  165SAPE  H18X18569   1.866   7.646   4.861 -0.9868  0.6284 -0.0546
  165SAPE  H18Y18570   1.922   7.487   4.931  0.1953 -1.6231 -1.1120
  165SAPE  H18Z18571   1.742   7.535   4.932  1.1701 -0.9007  0.7685
  166SAPE     N18572   1.723   0.890   2.902 -0.6104 -0.3070 -0.1060
  166SAPE   HN118573   1.653   0.967   2.910 -3.0378 -2.1248 -2.4460
  166SAPE   HN218574   1.807   0.923   2.849 -0.3154 -2.0803 -0.8190
  166SAPE   HN318575   1.675   0.833   2.830 -1.9882  2.3182 -1.4212
  166SAPE   C1218576   1.769   0.822   3.031 -0.1752 -0.0988 -0.0448
  166SAPE  H12A18577   1.682   0.782   3.086 -0.0114 -2.2482 -1.2245
  166SAPE  H12B18578   1.830   0.896   3.086 -0.6274 -1.3009  2.1802
  166SAPE   C1118579   1.848   0.698   2.992 -0.0903  0.2554 -0.6238
  166SAPE  H11A18580   1.909   0.662   3.077  0.4584  0.4812 -0.9155
  166SAPE  H11B18581   1.926   0.720   2.916  0.1181  2.4609  0.1468
  166SAPE     P18582   1.774   0.507   2.827 -0.2704 -0.2030  0.4080
  166SAPE   O1318583   1.663   0.537   2.729  0.2473 -0.2868  0.4250
  166SAPE   O1418584   1.913   0.514   2.778 -0.3941 -0.1089  0.0403
  166SAPE   O1218585   1.761   0.594   2.947  0.1271 -0.1973  0.3831
  166SAPE   O1118586   1.749   0.359   2.885 -0.1646  0.0163  0.2763
  166SAPE    C118587   1.839   0.285   2.958 -0.6412 -0.8974 -0.1528
  166SAPE    HA18588   1.889   0.213   2.890 -1.1134 -0.3914 -1.0597
  166SAPE    HB18589   1.914   0.354   3.004 -1.3291 -0.5115  0.4044
  166SAPE    C218590   1.777   0.223   3.079  0.7243 -0.0848  0.1914
  166SAPE    HS18591   1.691   0.163   3.041  0.9323 -0.9421  1.0396
  166SAPE   O2118592   1.734   0.329   3.172  0.3929  0.3182 -0.0283
  166SAPE   C2118593   1.618   0.383   3.140  0.0985 -0.2648 -0.1376
  166SAPE   O2218594   1.546   0.354   3.045 -0.1472  0.0079 -0.0673
  166SAPE   C2218595   1.578   0.487   3.251  0.1128 -0.0920 -0.1290
  166SAPE   H2R18596   1.609   0.437   3.345 -0.8154 -1.0374 -0.2974
  166SAPE   H2S18597   1.636   0.581   3.236 -0.7355  0.2059 -1.8674
  166SAPE    C318598   1.879   0.137   3.163  0.4596  0.7341 -0.5314
  166SAPE    HX18599   1.964   0.198   3.200  0.7616 -1.1165  2.0478
  166SAPE    HY18600   1.916   0.062   3.090  0.4099  1.6011 -1.4712
  166SAPE   O3118601   1.803   0.076   3.278 -0.3462 -1.3167 -0.2261
  166SAPE   C3118602   1.746  -0.038   3.251 -0.1967 -0.1936 -0.4053
  166SAPE   O3218603   1.724  -0.086   3.144  0.2111 -0.2156  0.2089
  166SAPE   C3218604   1.727  -0.103   3.388  0.5497  0.1917 -0.4084
  166SAPE   H2X18605   1.692  -0.022   3.455  0.6463  0.9971 -1.3195
  166SAPE   H2Y18606   1.821  -0.139   3.434 -0.3832 -1.2653  0.4690
  166SAPE   C2318607   1.429   0.515   3.249  0.9653  0.0133 -0.3561
  166SAPE   H3R18608   1.371   0.421   3.252 -0.3907  0.8429  0.0241
  166SAPE   H3S18609   1.408   0.567   3.153 -1.1031  0.1628  0.1441
  166SAPE   C2418610   1.379   0.608   3.364 -0.4888  0.0393  0.4119
  166SAPE   H4R18611   1.407   0.557   3.459 -1.1861 -0.5403  0.3131
  166SAPE   H4S18612   1.269   0.612   3.349 -0.4429  1.2765  0.3226
  166SAPE   C2518613   1.451   0.739   3.359 -0.1480  0.5820  0.3098
  166SAPE   H5R18614   1.449   0.782   3.258  0.8422 -0.8241 -0.3397
  166SAPE   C2618615   1.491   0.808   3.459  0.3728 -0.8739  0.8111
  166SAPE   H6R18616   1.550   0.900   3.447 -0.8677  0.2875  2.8015
  166SAPE   C2718617   1.483   0.771   3.606 -0.6878  0.2263  0.6166
  166SAPE   H7R18618   1.378   0.751   3.637 -0.5369  1.0510  1.7537
  166SAPE   H7S18619   1.514   0.867   3.653  0.0855 -0.1023  0.7894
  166SAPE   C2818620   1.575   0.664   3.664  0.3512  0.6524  0.1564
  166SAPE   H8R18621   1.620   0.588   3.597 -1.1119 -0.1186 -0.0009
  166SAPE   C2918622   1.611   0.662   3.789  0.3679  0.0303  0.1319
  166SAPE   H9R18623   1.676   0.581   3.824 -0.0315 -0.0064  0.7925
  166SAPE  C21018624   1.557   0.751   3.891 -0.6896  0.2690  0.0718
  166SAPE  H10R18625   1.451   0.777   3.869 -0.7005  0.0816 -0.1033
  166SAPE  H10S18626   1.631   0.834   3.894 -0.2102 -0.1752  1.5837
  166SAPE  C21118627   1.562   0.676   4.019  0.9304  0.1332 -0.2270
  166SAPE  H11R18628   1.531   0.572   4.001  1.0317  0.1701 -0.6340
  166SAPE  C21218629   1.609   0.717   4.135  0.7311  0.3323 -0.8967
  166SAPE  H12R18630   1.599   0.647   4.220  4.3041 -0.3388 -0.8564
  166SAPE  C21318631   1.639   0.860   4.172 -0.6687 -0.0753 -0.2811
  166SAPE  H13R18632   1.621   0.855   4.281  0.5532  0.7963 -0.0181
  166SAPE  H13S18633   1.568   0.932   4.128  0.1782  1.4318  0.7453
  166SAPE  C21418634   1.784   0.909   4.151  0.2393 -0.2979 -0.1874
  166SAPE  H14R18635   1.815   0.917   4.046 -1.4843  1.3719 -0.6451
  166SAPE  C21518636   1.872   0.922   4.252  0.2140 -0.4933  0.5052
  166SAPE  H15R18637   1.970   0.963   4.221  0.1151  0.0384  0.8833
  166SAPE  C21618638   1.845   0.899   4.397  0.2040 -0.1794  0.1442
  166SAPE  H16R18639   1.948   0.881   4.434  0.6041 -2.3983 -1.8081
  166SAPE  H16S18640   1.782   0.810   4.419  0.5946 -0.9064 -1.5341
  166SAPE  C21718641   1.783   1.024   4.471  0.3823 -0.2254  0.1378
  166SAPE  H17R18642   1.699   1.059   4.408  0.9921 -0.2061 -0.6720
  166SAPE  H17S18643   1.863   1.100   4.463  1.1805 -0.9822  0.6691
  166SAPE  C21818644   1.742   1.016   4.612  0.2599  0.7470  0.3583
  166SAPE  H18R18645   1.737   1.112   4.669  1.0036  1.8489 -1.3458
  166SAPE  H18S18646   1.824   0.961   4.663  0.1775  1.1766  0.9663
  166SAPE  C21918647   1.599   0.970   4.633 -0.0219 -0.1626 -0.0712
  166SAPE  H19R18648   1.584   0.865   4.598 -0.5335  0.6564 -2.5032
  166SAPE  H19S18649   1.527   1.024   4.568  0.8307 -1.4741 -2.2381
  166SAPE  C22018650   1.552   0.984   4.776  0.3215  0.0014 -0.1952
  166SAPE  H20R18651   1.461   0.925   4.797 -0.9284  2.2380  1.0802
  166SAPE  H20S18652   1.524   1.090   4.794  1.5050  0.7436 -2.3108
  166SAPE  H20T18653   1.636   0.960   4.845  1.7894  0.7705 -1.6271
  166SAPE   C3318654   1.614  -0.218   3.383 -0.7552 -0.4971 -0.3519
  166SAPE   H3X18655   1.632  -0.286   3.297 -1.8499 -0.9476 -0.2407
  166SAPE   H3Y18656   1.510  -0.180   3.373 -0.6653  0.4253  1.7087
  166SAPE   C3418657   1.629  -0.300   3.508 -0.1949 -0.4269  0.0417
  166SAPE   H4X18658   1.648  -0.225   3.589 -1.0971 -0.0189 -0.1212
  166SAPE   H4Y18659   1.723  -0.359   3.498  1.4423  2.1444 -0.9685
  166SAPE   C3518660   1.505  -0.390   3.541 -0.3692  0.3458 -0.1546
  166SAPE   H5X18661   1.531  -0.483   3.485  1.2846 -0.7587  2.2905
  166SAPE   H5Y18662   1.411  -0.354   3.493 -1.1049 -2.1764 -0.7700
  166SAPE   C3618663   1.480  -0.438   3.686  0.0848  0.0389 -0.1700
  166SAPE   H6X18664   1.579  -0.456   3.735  0.4439  1.4172 -0.3664
  166SAPE   H6Y18665   1.434  -0.539   3.685 -0.3195  0.2083 -1.7964
  166SAPE   C3718666   1.394  -0.340   3.773  0.4505 -0.0058 -0.0251
  166SAPE   H7X18667   1.309  -0.293   3.719 -0.2823  1.4085  2.2636
  166SAPE   H7Y18668   1.460  -0.254   3.797 -0.3760  0.4839  0.5391
  166SAPE   C3818669   1.344  -0.417   3.896 -0.1749  0.1742  0.1492
  166SAPE   H8X18670   1.428  -0.475   3.939  1.6446  1.8261 -1.0004
  166SAPE   H8Y18671   1.264  -0.486   3.861 -0.4130  2.1645 -3.8636
  166SAPE   C3918672   1.285  -0.315   3.997  0.3676 -0.0330 -0.3897
  166SAPE   H9X18673   1.187  -0.271   3.968  0.2883  0.7542  1.0006
  166SAPE   H9Y18674   1.357  -0.231   4.002  2.2027 -1.2635 -3.1192
  166SAPE  C31018675   1.273  -0.373   4.136  0.4127  0.4154  0.3120
  166SAPE  H10X18676   1.225  -0.306   4.211  1.5890  2.4131 -0.6670
  166SAPE  H10Y18677   1.377  -0.381   4.173  0.4258 -1.1492  0.0292
  166SAPE  C31118678   1.200  -0.510   4.157 -0.0423 -1.0355  1.0464
  166SAPE  H11X18679   1.251  -0.582   4.089 -1.1121 -1.2067  0.3950
  166SAPE  H11Y18680   1.094  -0.499   4.125  0.6268  2.0096 -0.4928
  166SAPE  C31218681   1.214  -0.566   4.300  0.2335  0.4645  0.1117
  166SAPE  H12X18682   1.323  -0.563   4.323  0.5376  0.1005 -1.1829
  166SAPE  H12Y18683   1.191  -0.675   4.295 -1.0970  0.7522 -0.2396
  166SAPE  C31318684   1.130  -0.499   4.409  0.6400 -0.4931  0.2556
  166SAPE  H13X18685   1.035  -0.465   4.363  0.7692 -0.5308 -0.0450
  166SAPE  H13Y18686   1.176  -0.402   4.437 -0.5112  0.2261 -0.2751
  166SAPE  C31418687   1.107  -0.583   4.533 -0.5079 -0.2658  0.2849
  166SAPE  H14X18688   1.168  -0.675   4.521  0.2970  0.1309  1.2028
  166SAPE  H14Y18689   1.001  -0.610   4.551 -0.1736 -0.9135  1.4217
  166SAPE  C31518690   1.152  -0.524   4.667  0.5009  0.8372  0.2849
  166SAPE  H15X18691   1.083  -0.441   4.692  0.2221  0.3661  1.1265
  166SAPE  H15Y18692   1.257  -0.489   4.659  0.2560  1.3421 -0.8968
  166SAPE  C31618693   1.124  -0.626   4.773  0.1691  0.3015 -0.0422
  166SAPE  H16X18694   1.179  -0.716   4.740  0.5179  1.0550 -1.6162
  166SAPE  H16Y18695   1.018  -0.657   4.760  0.4532 -1.4109  1.4116
  166SAPE  C31718696   1.147  -0.583   4.919  0.2919 -0.0166 -0.2275
  166SAPE  H17X18697   1.102  -0.484   4.939 -2.2578 -1.4845  1.9414
  166SAPE  H17Y18698   1.256  -0.572   4.942 -0.0798 -1.2390  2.5522
  166SAPE  C31818699   1.090  -0.685   5.021 -0.1390 -1.1764  0.3845
  166SAPE  H18X18700   1.127  -0.786   4.995 -2.2125 -1.9720  0.3164
  166SAPE  H18Y18701   0.979  -0.691   5.012 -0.3309 -2.9319  2.7551
  166SAPE  H18Z18702   1.122  -0.646   5.120 -0.4388  0.6235 -0.2014
  167SAPE     N18703   3.416   4.940   2.612  0.0353  0.0278  0.3035
  167SAPE   HN118704   3.450   4.948   2.710  0.0831 -1.7273  0.4568
  167SAPE   HN218705   3.354   5.015   2.577  0.4566 -0.5401 -1.7838
  167SAPE   HN318706   3.348   4.862   2.620  0.1282 -0.0694  0.1402
  167SAPE   C1218707   3.528   4.908   2.515  0.2309 -0.0930  0.0809
  167SAPE  H12A18708   3.588   5.000   2.501  1.6343 -0.7411  1.5537
  167SAPE  H12B18709   3.473   4.882   2.422 -1.1562  0.1825  0.7905
  167SAPE   C1118710   3.614   4.794   2.567  0.0001  0.5029 -0.0816
  167SAPE  H11A18711   3.669   4.825   2.658  1.6699 -2.1782 -0.0420
  167SAPE  H11B18712   3.684   4.758   2.487  1.8603 -0.3856  1.8468
  167SAPE     P18713   3.555   4.543   2.598  0.2870  0.0146  0.0910
  167SAPE   O1318714   3.469   4.472   2.697 -0.5442 -0.0416 -0.2443
  167SAPE   O1418715   3.538   4.503   2.449 -1.1009  0.2038  0.2704
  167SAPE   O1218716   3.523   4.692   2.610 -0.6829 -0.5835 -0.3452
  167SAPE   O1118717   3.703   4.526   2.649 -0.1172  0.2606 -0.8225
  167SAPE    C118718   3.738   4.593   2.774 -0.0039  0.2760  0.8047
  167SAPE    HA18719   3.781   4.692   2.748  2.2691 -1.1001 -1.1193
  167SAPE    HB18720   3.655   4.605   2.847 -0.0891 -1.4933  1.0451
  167SAPE    C218721   3.837   4.511   2.857  0.3752  0.6946  0.3803
  167SAPE    HS18722   3.925   4.496   2.790 -0.3575  0.8304 -0.6378
  167SAPE   O2118723   3.778   4.384   2.903  0.4290 -0.0001  0.3818
  167SAPE   C2118724   3.859   4.301   2.964  0.3749 -0.0129  0.4105
  167SAPE   O2218725   3.981   4.308   2.971  0.0054 -0.3366  0.2196
  167SAPE   C2218726   3.776   4.183   3.014 -0.7004  0.2928  0.1629
  167SAPE   H2R18727   3.666   4.197   3.012 -0.7986  0.1676  2.2278
  167SAPE   H2S18728   3.807   4.101   2.946  1.5872  0.7940  0.5291
  167SAPE    C318729   3.898   4.594   2.974  0.2060 -0.3070  0.0938
  167SAPE    HX18730   3.951   4.683   2.933  1.5981 -0.5890  1.2215
  167SAPE    HY18731   3.985   4.538   3.013  1.9926  2.8760  1.0413
  167SAPE   O3118732   3.812   4.625   3.090  0.5092  0.2697  0.4152
  167SAPE   C3118733   3.817   4.747   3.142 -0.4277 -0.0921 -0.3454
  167SAPE   O3218734   3.883   4.839   3.101 -0.1094 -0.5093 -0.4128
  167SAPE   C3218735   3.753   4.745   3.284  0.0128 -0.0074 -0.0292
  167SAPE   H2X18736   3.801   4.656   3.331 -1.0651 -0.3626  0.4218
  167SAPE   H2Y18737   3.645   4.723   3.279 -1.0175  3.5894  2.4081
  167SAPE   C2318738   3.807   4.140   3.156 -0.0815  0.2254 -0.1484
  167SAPE   H3R18739   3.907   4.092   3.160  0.5597  1.5024 -0.3967
  167SAPE   H3S18740   3.734   4.061   3.184  1.4352 -1.0559  0.3323
  167SAPE   C2418741   3.786   4.254   3.271 -0.7543 -0.5845  0.5419
  167SAPE   H4R18742   3.737   4.212   3.361  0.7795 -1.4785  0.9896
  167SAPE   H4S18743   3.716   4.330   3.230  0.7625  0.0330 -1.0398
  167SAPE   C2518744   3.923   4.314   3.311  0.2529 -0.3198  0.0959
  167SAPE   H5R18745   3.959   4.389   3.239 -0.5047 -0.7604 -0.7518
  167SAPE   C2618746   3.983   4.299   3.428 -0.3488 -0.1594 -0.0570
  167SAPE   H6R18747   4.069   4.366   3.445 -0.7173 -0.0172  1.3869
  167SAPE   C2718748   3.940   4.215   3.546  0.3830  0.0350 -0.1774
  167SAPE   H7R18749   3.830   4.224   3.559  0.2980 -0.9684 -0.0865
  167SAPE   H7S18750   3.999   4.255   3.631  2.3327 -1.0599 -0.9504
  167SAPE   C2818751   3.983   4.075   3.534  0.2748  0.0607  0.0834
  167SAPE   H8R18752   4.042   4.043   3.447 -0.0014 -0.8771  0.2362
  167SAPE   C2918753   3.956   3.981   3.623  0.1226 -0.2875 -0.4048
  167SAPE   H9R18754   3.979   3.878   3.592 -1.7301 -0.5378 -1.0812
  167SAPE  C21018755   3.881   4.007   3.753 -0.3252 -0.1648  0.0669
  167SAPE  H10R18756   3.785   4.046   3.714 -0.1206 -1.1607 -1.5131
  167SAPE  H10S18757   3.930   4.094   3.802 -0.8540 -1.3712  2.9447
  167SAPE  C21118758   3.862   3.897   3.852 -0.4590 -0.7781 -0.6114
  167SAPE  H11R18759   3.946   3.825   3.848  1.4476  1.3692 -1.5821
  167SAPE  C21218760   3.759   3.885   3.933 -0.8437  0.2209 -1.1363
  167SAPE  H12R18761   3.763   3.793   3.993  0.5679  1.8250  1.4011
  167SAPE  C21318762   3.647   3.989   3.946 -0.6750  0.0145  0.2359
  167SAPE  H13R18763   3.681   4.079   3.891 -1.6986  0.2812  0.0261
  167SAPE  H13S18764   3.649   4.028   4.050  0.3628 -1.0375  0.6382
  167SAPE  C21418765   3.507   3.943   3.914  0.3368 -0.4181 -0.0496
  167SAPE  H14R18766   3.462   3.980   3.821  0.7689  0.7017  0.1661
  167SAPE  C21518767   3.435   3.876   3.999 -0.5554  0.7061 -0.1517
  167SAPE  H15R18768   3.338   3.837   3.964  0.5719 -1.5444 -1.0096
  167SAPE  C21618769   3.498   3.827   4.131  0.3346 -0.4276 -0.4679
  167SAPE  H16R18770   3.608   3.820   4.146  0.3748  2.8887  1.9580
  167SAPE  H16S18771   3.462   3.723   4.149  0.2561 -0.4253 -0.6120
  167SAPE  C21718772   3.469   3.906   4.260 -0.1974 -0.3118 -0.4247
  167SAPE  H17R18773   3.527   4.000   4.249  1.5283 -1.3979 -0.9675
  167SAPE  H17S18774   3.515   3.846   4.341 -1.2386  0.2291  0.5878
  167SAPE  C21818775   3.317   3.927   4.293 -0.2249 -0.2237  0.2365
  167SAPE  H18R18776   3.265   3.994   4.221 -0.6832 -1.9025 -1.0624
  167SAPE  H18S18777   3.301   3.975   4.392 -1.4704 -2.3694  1.1274
  167SAPE  C21918778   3.225   3.803   4.284  0.6781  0.3486  0.4082
  167SAPE  H19R18779   3.272   3.729   4.353  1.2964 -1.6868 -2.0752
  167SAPE  H19S18780   3.232   3.763   4.181 -0.5914 -1.7289  1.0478
  167SAPE  C22018781   3.078   3.838   4.316  0.0129  0.3555 -0.3341
  167SAPE  H20R18782   3.028   3.888   4.231 -2.3905  1.7036  1.7354
  167SAPE  H20S18783   3.072   3.919   4.392 -1.4682  0.7726 -0.8652
  167SAPE  H20T18784   3.018   3.745   4.328 -0.8333  0.3843 -3.4608
  167SAPE   C3318785   3.762   4.868   3.373  0.8077 -0.6657  0.1137
  167SAPE   H3X18786   3.676   4.930   3.339 -1.1110 -1.4473  3.1803
  167SAPE   H3Y18787   3.862   4.916   3.368 -0.1313  1.3405 -0.5695
  167SAPE   C3418788   3.720   4.827   3.521  0.1978  0.0382 -0.0174
  167SAPE   H4X18789   3.790   4.750   3.559  0.9206  1.6352  2.1219
  167SAPE   H4Y18790   3.615   4.790   3.523 -0.2758  1.2645 -1.0571
  167SAPE   C3518791   3.733   4.952   3.609 -0.2462  0.1729  0.4055
  167SAPE   H5X18792   3.644   5.013   3.584  0.3915  0.4302 -1.4265
  167SAPE   H5Y18793   3.829   5.003   3.585 -0.1608 -0.1688  0.0100
  167SAPE   C3618794   3.737   4.931   3.759  0.2896  0.1842 -0.0394
  167SAPE   H6X18795   3.750   5.032   3.804 -0.7566  0.5915 -0.6310
  167SAPE   H6Y18796   3.831   4.879   3.790  1.0079  2.1851  1.3824
  167SAPE   C3718797   3.620   4.839   3.807  0.2367 -0.7967 -0.0416
  167SAPE   H7X18798   3.638   4.733   3.778 -0.7767 -1.2195  0.7932
  167SAPE   H7Y18799   3.521   4.871   3.768  1.0821  1.8352 -0.1890
  167SAPE   C3818800   3.618   4.845   3.960  0.5478  0.4707 -0.0054
  167SAPE   H8X18801   3.624   4.953   3.985  0.1248  0.3915  0.4348
  167SAPE   H8Y18802   3.706   4.789   3.998 -0.6547 -2.4158 -1.1781
  167SAPE   C3918803   3.481   4.791   4.013 -0.0518 -0.0336  0.2170
  167SAPE   H9X18804   3.475   4.683   3.987 -1.0475  0.0873 -0.1121
  167SAPE   H9Y18805   3.398   4.843   3.961 -1.9266 -3.4826 -0.5472
  167SAPE  C31018806   3.467   4.816   4.164  0.3240 -0.4522  0.7889
  167SAPE  H10X18807   3.460   4.925   4.183 -1.5411 -0.5612  0.9243
  167SAPE  H10Y18808   3.553   4.771   4.218  1.3815  0.4787 -0.0768
  167SAPE  C31118809   3.325   4.754   4.210  0.4798 -0.2606 -0.5146
  167SAPE  H11X18810   3.313   4.659   4.153 -3.0161 -1.3718  1.7577
  167SAPE  H11Y18811   3.238   4.821   4.194 -0.0405 -1.0211 -0.9773
  167SAPE  C31218812   3.330   4.731   4.353  0.2870 -0.5576  0.8862
  167SAPE  H12X18813   3.326   4.828   4.406 -2.6181  0.1585 -0.4457
  167SAPE  H12Y18814   3.428   4.682   4.373  0.7014  0.1131  0.5272
  167SAPE  C31318815   3.218   4.642   4.405  0.4723 -0.3674 -0.1453
  167SAPE  H13X18816   3.216   4.545   4.351  2.1973 -0.0237 -0.8800
  167SAPE  H13Y18817   3.123   4.700   4.395  1.4845  0.9924 -2.8260
  167SAPE  C31418818   3.233   4.622   4.558 -0.5516 -0.3948 -0.4724
  167SAPE  H14X18819   3.337   4.583   4.564 -0.6120 -0.3162  1.8290
  167SAPE  H14Y18820   3.167   4.536   4.584 -2.2625  0.8268 -0.6106
  167SAPE  C31518821   3.207   4.750   4.638  0.2267  0.6854 -0.7515
  167SAPE  H15X18822   3.105   4.788   4.617  0.0717 -0.6796 -2.6945
  167SAPE  H15Y18823   3.277   4.831   4.607  0.6535  0.5881 -0.0699
  167SAPE  C31618824   3.218   4.722   4.794 -0.5864 -0.0601  0.1384
  167SAPE  H16X18825   3.323   4.700   4.820 -0.6891 -0.5297  0.1660
  167SAPE  H16Y18826   3.154   4.636   4.825  1.1298 -0.9688  1.2853
  167SAPE  C31718827   3.172   4.838   4.880 -0.0173 -0.3505  0.0997
  167SAPE  H17X18828   3.067   4.855   4.845  0.8242  1.3063 -1.8571
  167SAPE  H17Y18829   3.229   4.931   4.858  0.7708 -0.8128  0.1611
  167SAPE  C31818830   3.162   4.813   5.030 -0.1651  0.1273 -0.0754
  167SAPE  H18X18831   3.265   4.797   5.069 -0.4852  1.0022  1.2015
  167SAPE  H18Y18832   3.104   4.722   5.054  0.2787  0.1265  1.0603
  167SAPE  H18Z18833   3.120   4.902   5.081  1.4734  0.5388  0.6421
  168SAPE     N18834   5.423   6.098   2.676  0.4856  0.0930  0.5475
  168SAPE   HN118835   5.431   6.115   2.573  1.1368 -1.7626  0.2532
  168SAPE   HN218836   5.456   6.179   2.733  0.6913 -0.0877  0.6869
  168SAPE   HN318837   5.500   6.030   2.693 -0.7399 -1.1042  1.4976
  168SAPE   C1218838   5.292   6.025   2.721 -1.0450 -0.4654  0.1765
  168SAPE  H12A18839   5.268   5.943   2.650 -0.0015 -0.9904  0.4087
  168SAPE  H12B18840   5.213   6.103   2.727  0.2858  0.9555  0.1519
  168SAPE   C1118841   5.314   5.969   2.862  0.4728 -0.2652 -0.1604
  168SAPE  H11A18842   5.228   5.904   2.888 -0.0449 -0.2789 -1.7456
  168SAPE  H11B18843   5.319   6.053   2.934 -1.2525  0.0966 -0.4075
  168SAPE     P18844   5.471   5.784   2.973 -0.0877  0.0926  0.0322
  168SAPE   O1318845   5.380   5.667   2.950 -0.5425 -0.6144  0.6305
  168SAPE   O1418846   5.614   5.756   2.970 -0.1600 -0.2658  0.3876
  168SAPE   O1218847   5.432   5.891   2.863 -0.1220  0.2518 -0.1322
  168SAPE   O1118848   5.425   5.858   3.107  0.0654 -0.9784  0.1583
  168SAPE    C118849   5.520   5.959   3.154 -0.1855 -0.0332  0.6162
  168SAPE    HA18850   5.624   5.924   3.173 -0.2128 -0.7691 -0.4639
  168SAPE    HB18851   5.524   6.046   3.085 -0.6379  0.0955  0.7528
  168SAPE    C218852   5.473   6.025   3.282  0.3566  0.3158  0.4520
  168SAPE    HS18853   5.526   6.122   3.290  0.9302  0.3496 -2.6427
  168SAPE   O2118854   5.494   5.937   3.396 -0.2551  0.5119 -0.0959
  168SAPE   C2118855   5.605   5.968   3.464 -0.2839  0.2963 -0.0929
  168SAPE   O2218856   5.695   6.042   3.427  0.0992  0.1546  0.3074
  168SAPE   C2218857   5.601   5.896   3.590 -0.1564  0.4130 -0.1802
  168SAPE   H2R18858   5.545   5.800   3.578  1.5814 -0.7716  0.8067
  168SAPE   H2S18859   5.708   5.881   3.614 -0.2178  1.5164  0.8499
  168SAPE    C318860   5.318   6.060   3.274  0.3132  0.0474 -0.3275
  168SAPE    HX18861   5.271   5.965   3.242  1.7498 -0.7753 -0.0905
  168SAPE    HY18862   5.290   6.128   3.191 -1.8259 -1.4436 -0.9161
  168SAPE   O3118863   5.259   6.106   3.401 -0.0739  0.0571  0.5797
  168SAPE   C3118864   5.297   6.220   3.445 -0.3395 -0.1926 -0.5265
  168SAPE   O3218865   5.392   6.288   3.404 -0.5830 -0.1894 -0.2057
  168SAPE   C3218866   5.217   6.262   3.568 -0.0806 -0.1050 -0.9961
  168SAPE   H2X18867   5.170   6.173   3.615  0.5470  0.4476  0.7610
  168SAPE   H2Y18868   5.130   6.315   3.524 -0.0329  0.8953  0.0574
  168SAPE   C2318869   5.543   5.970   3.706  0.3964  0.2333  0.2508
  168SAPE   H3R18870   5.552   5.909   3.799 -1.2159 -0.3016  0.0952
  168SAPE   H3S18871   5.438   5.992   3.676  1.1682  0.2600 -2.6788
  168SAPE   C2418872   5.623   6.099   3.743 -0.2209 -0.5626 -0.0050
  168SAPE   H4R18873   5.550   6.149   3.811 -1.3634 -0.4960 -1.2407
  168SAPE   H4S18874   5.637   6.170   3.658  2.7442 -1.2067 -0.1767
  168SAPE   C2518875   5.754   6.080   3.821  0.7250  0.3737  0.1482
  168SAPE   H5R18876   5.846   6.057   3.765  0.3786 -1.5564  0.2985
  168SAPE   C2618877   5.759   6.054   3.953  0.2052  0.0241  0.5499
  168SAPE   H6R18878   5.858   6.044   3.998  0.0769 -2.1765  0.4406
  168SAPE   C2718879   5.642   6.056   4.051 -0.1698  0.6830  0.4910
  168SAPE   H7R18880   5.552   6.023   3.994 -0.0925 -0.2738  0.9029
  168SAPE   H7S18881   5.630   6.162   4.082  0.1561  0.5538  1.0782
  168SAPE   C2818882   5.659   5.965   4.166 -0.1427 -0.0238  0.2172
  168SAPE   H8R18883   5.723   5.877   4.152 -1.0953 -0.7601  0.3580
  168SAPE   C2918884   5.602   5.983   4.289 -0.2094  0.0640  0.5446
  168SAPE   H9R18885   5.619   5.901   4.361 -0.1385 -0.5753 -0.1928
  168SAPE  C21018886   5.517   6.102   4.328  0.0308 -0.1016  0.3733
  168SAPE  H10R18887   5.410   6.072   4.330 -0.2554  0.8959  0.7542
  168SAPE  H10S18888   5.522   6.191   4.261  2.5086 -1.1751 -1.0308
  168SAPE  C21118889   5.553   6.140   4.470  0.1111 -0.1897  0.4783
  168SAPE  H11R18890   5.659   6.143   4.498  0.4597  0.9294 -0.8297
  168SAPE  C21218891   5.468   6.171   4.570 -0.0149  0.2316  0.5555
  168SAPE  H12R18892   5.514   6.189   4.668  3.1784 -1.1069 -0.5562
  168SAPE  C21318893   5.313   6.183   4.559 -1.0072 -0.7506 -0.3090
  168SAPE  H13R18894   5.287   6.099   4.491  0.6111  0.4573 -2.5754
  168SAPE  H13S18895   5.281   6.276   4.508 -1.2429 -0.2234  0.7911
  168SAPE  C21418896   5.253   6.166   4.692  0.8060  0.6568  0.8574
  168SAPE  H14R18897   5.271   6.064   4.730  1.6489 -0.6544 -2.6573
  168SAPE  C21518898   5.167   6.251   4.754  0.5693  0.0206  0.0297
  168SAPE  H15R18899   5.138   6.227   4.857 -1.7050  4.3403  0.6220
  168SAPE  C21618900   5.100   6.376   4.697 -0.8002 -0.2858  1.3212
  168SAPE  H16R18901   5.009   6.401   4.756 -1.2263  0.6862  0.2823
  168SAPE  H16S18902   5.060   6.360   4.595  1.9735  0.4034  0.0480
  168SAPE  C21718903   5.190   6.500   4.683  0.4735 -0.3087  0.3199
  168SAPE  H17R18904   5.118   6.570   4.636 -0.0948  0.5115  2.3047
  168SAPE  H17S18905   5.276   6.473   4.618 -1.0189  0.4911 -2.1043
  168SAPE  C21818906   5.228   6.564   4.820  0.1162 -0.1375  0.2846
  168SAPE  H18R18907   5.291   6.497   4.882  0.9260  0.2826 -0.0706
  168SAPE  H18S18908   5.125   6.577   4.859 -1.2468 -3.3886 -1.7638
  168SAPE  C21918909   5.305   6.695   4.805  0.7838 -0.0604 -0.0275
  168SAPE  H19R18910   5.233   6.778   4.824 -0.6373 -1.4392  0.8014
  168SAPE  H19S18911   5.341   6.703   4.700  0.7561 -1.7773 -0.1890
  168SAPE  C22018912   5.426   6.703   4.892  0.3038  0.5077  0.0618
  168SAPE  H20R18913   5.403   6.704   5.001  1.0406  0.1011  0.2322
  168SAPE  H20S18914   5.481   6.797   4.871  0.6566 -0.2109 -2.6769
  168SAPE  H20T18915   5.497   6.618   4.880  1.7142  1.6380  0.0570
  168SAPE   C3318916   5.286   6.359   3.667 -0.2112 -0.4398  0.4721
  168SAPE   H3X18917   5.315   6.454   3.616 -1.1191  0.0627  0.8629
  168SAPE   H3Y18918   5.377   6.310   3.707  0.3260 -2.3802 -2.7976
  168SAPE   C3418919   5.193   6.411   3.780 -0.8992  0.2096  0.6212
  168SAPE   H4X18920   5.168   6.329   3.850  1.3190 -0.6856  0.4294
  168SAPE   H4Y18921   5.097   6.436   3.728 -0.5706 -1.9438 -1.1650
  168SAPE   C3518922   5.256   6.530   3.861 -0.2696 -0.0610 -0.3643
  168SAPE   H5X18923   5.170   6.580   3.910  0.4302  0.5008  0.3267
  168SAPE   H5Y18924   5.303   6.606   3.796 -0.9981  1.3883  0.7520
  168SAPE   C3618925   5.344   6.488   3.981 -0.1499  0.3293 -1.0067
  168SAPE   H6X18926   5.417   6.411   3.950  0.4121  0.3447  0.2065
  168SAPE   H6Y18927   5.274   6.438   4.052  1.4055 -1.3251 -0.5717
  168SAPE   C3718928   5.414   6.608   4.052  0.5199  0.0747 -0.0924
  168SAPE   H7X18929   5.332   6.678   4.079 -0.3656 -0.5560 -1.0540
  168SAPE   H7Y18930   5.485   6.658   3.983 -0.3141  0.8129 -0.4322
  168SAPE   C3818931   5.503   6.584   4.178 -0.1702 -0.6987 -0.0388
  168SAPE   H8X18932   5.558   6.678   4.195  0.3999 -1.0450  0.0652
  168SAPE   H8Y18933   5.570   6.504   4.140 -0.3493 -0.5108 -0.7662
  168SAPE   C3918934   5.436   6.543   4.307  0.5445 -0.4414  0.2023
  168SAPE   H9X18935   5.369   6.457   4.282 -0.5991  0.0951  1.2952
  168SAPE   H9Y18936   5.374   6.627   4.346 -0.8821 -0.8999 -0.9833
  168SAPE  C31018937   5.539   6.505   4.418 -0.3273 -0.6580  0.5603
  168SAPE  H10X18938   5.579   6.406   4.388  2.5440  0.5737  0.0209
  168SAPE  H10Y18939   5.475   6.491   4.508 -3.6392 -0.9733 -1.6554
  168SAPE  C31118940   5.652   6.601   4.439  0.1385  0.7091  0.0735
  168SAPE  H11X18941   5.621   6.704   4.469  0.4022  0.6980  0.3907
  168SAPE  H11Y18942   5.706   6.601   4.343  1.2844 -2.0707  0.6219
  168SAPE  C31218943   5.763   6.561   4.537 -0.0788 -0.1145 -0.2971
  168SAPE  H12X18944   5.827   6.649   4.557  1.5104 -0.9158 -1.5649
  168SAPE  H12Y18945   5.832   6.487   4.490  0.1469  0.6710 -1.2450
  168SAPE  C31318946   5.704   6.486   4.658  0.0740  0.2714 -0.4901
  168SAPE  H13X18947   5.659   6.392   4.621  0.6809 -0.2149 -0.0069
  168SAPE  H13Y18948   5.627   6.553   4.702 -0.1914 -0.4371  0.1386
  168SAPE  C31418949   5.815   6.466   4.763 -0.2468  0.3632  0.6597
  168SAPE  H14X18950   5.772   6.455   4.865 -1.1753 -1.3827  0.1388
  168SAPE  H14Y18951   5.873   6.560   4.761 -0.0839  0.2578 -1.6605
  168SAPE  C31518952   5.903   6.343   4.740  0.6276  0.6778  1.3122
  168SAPE  H15X18953   5.945   6.353   4.637 -0.6900  0.9137  0.7749
  168SAPE  H15Y18954   5.847   6.248   4.743 -0.3122  1.1960  0.7519
  168SAPE  C31618955   6.029   6.329   4.826  0.3606 -0.6912 -0.8158
  168SAPE  H16X18956   6.081   6.427   4.827 -2.0335  0.6515 -0.1662
  168SAPE  H16Y18957   6.097   6.253   4.783  3.8089 -0.1382  3.0209
  168SAPE  C31718958   5.996   6.295   4.970  0.6840  0.5086 -0.5854
  168SAPE  H17X18959   5.951   6.194   4.978 -1.3338  1.3157 -1.2433
  168SAPE  H17Y18960   5.928   6.362   5.027 -0.3381  0.3554 -1.5867
  168SAPE  C31818961   6.127   6.275   5.049  0.1786  0.5115 -0.1530
  168SAPE  H18X18962   6.174   6.372   5.074  2.9149 -0.4111 -1.2993
  168SAPE  H18Y18963   6.206   6.234   4.983  1.6812  3.5114 -0.3496
  168SAPE  H18Z18964   6.112   6.201   5.131 -1.3310 -1.1372 -1.8212
  169SAPE     N18965   4.412   6.339   2.490  0.0246  0.3037 -0.0270
  169SAPE   HN118966   4.326   6.370   2.441 -0.3217  0.6057  0.7512
  169SAPE   HN218967   4.418   6.401   2.574  0.0735  1.2261 -0.6991
  169SAPE   HN318968   4.487   6.364   2.422  0.1134 -0.0316 -0.0553
  169SAPE   C1218969   4.409   6.197   2.531  0.2953  0.1109  0.0652
  169SAPE  H12A18970   4.482   6.186   2.614  0.0767 -0.1136  0.2294
  169SAPE  H12B18971   4.446   6.134   2.447 -4.2121  1.1490 -3.0476
  169SAPE   C1118972   4.271   6.154   2.589 -0.2558 -0.6504  0.6825
  169SAPE  H11A18973   4.254   6.186   2.694 -0.4970  1.8681 -0.0504
  169SAPE  H11B18974   4.262   6.043   2.587  0.6128 -0.7384  1.2472
  169SAPE     P18975   4.022   6.123   2.513  0.1492  0.1192  0.0851
  169SAPE   O1318976   3.924   6.215   2.464  0.2696 -0.8160  0.2347
  169SAPE   O1418977   4.049   5.993   2.447  0.1176 -0.5029  0.0119
  169SAPE   O1218978   4.160   6.210   2.520  0.3422  0.1647 -0.2314
  169SAPE   O1118979   3.987   6.106   2.664 -0.2157 -0.1488  0.1332
  169SAPE    C118980   3.952   6.209   2.753 -0.0051 -0.0954 -0.0849
  169SAPE    HA18981   4.046   6.243   2.800  0.3820 -0.0974 -0.8488
  169SAPE    HB18982   3.901   6.295   2.704  0.6666  0.4224  0.1114
  169SAPE    C218983   3.851   6.165   2.866 -0.1776 -0.1214 -0.2989
  169SAPE    HS18984   3.797   6.259   2.892  3.6468  2.3550 -0.4699
  169SAPE   O2118985   3.923   6.101   2.974 -0.5442 -0.2369 -0.2717
  169SAPE   C2118986   3.974   6.196   3.063 -0.1118  0.4845  0.3908
  169SAPE   O2218987   3.979   6.318   3.045 -0.2463  0.8252  0.3392
  169SAPE   C2218988   4.038   6.125   3.178 -0.6302  0.0077  0.1820
  169SAPE   H2R18989   3.963   6.084   3.248 -1.2581  0.0709 -0.4359
  169SAPE   H2S18990   4.097   6.037   3.145  1.0968  0.4011  2.0074
  169SAPE    C318991   3.764   6.053   2.812 -0.2337  0.0372  0.3809
  169SAPE    HX18992   3.810   5.955   2.791 -1.5168 -0.6178  0.4957
  169SAPE    HY18993   3.732   6.084   2.710  1.5741  1.1137  0.1101
  169SAPE   O3118994   3.648   6.033   2.895  0.3310 -0.2428 -0.4360
  169SAPE   C3118995   3.651   5.947   2.991  0.9183 -0.2797  0.1825
  169SAPE   O3218996   3.741   5.868   3.020  0.2842 -0.2373  0.0793
  169SAPE   C3218997   3.520   5.967   3.070  0.5028 -0.0520 -0.1477
  169SAPE   H2X18998   3.457   5.877   3.054  1.9164 -0.8638 -1.5187
  169SAPE   H2Y18999   3.462   6.052   3.029  2.5699  1.2094 -0.6619
  169SAPE   C2319000   4.137   6.212   3.260 -0.3512 -0.0257 -0.3730
  169SAPE   H3R19001   4.088   6.304   3.298 -0.8512 -0.3411 -0.2418
  169SAPE   H3S19002   4.211   6.255   3.190 -0.5308  1.6471  0.4203
  169SAPE   C2419003   4.218   6.130   3.368  0.0961 -0.0384 -0.0763
  169SAPE   H4R19004   4.273   6.205   3.430  0.9067 -1.0140  0.4171
  169SAPE   H4S19005   4.291   6.060   3.324 -0.2323 -0.9245  0.7469
  169SAPE   C2519006   4.130   6.047   3.459  0.1795  0.3821 -0.5348
  169SAPE   H5R19007   4.043   5.996   3.415 -1.1810  1.4869  0.7761
  169SAPE   C2619008   4.125   6.067   3.591  0.0356  0.1775  0.0137
  169SAPE   H6R19009   4.050   6.008   3.646 -2.0966  1.9800 -0.7953
  169SAPE   C2719010   4.220   6.149   3.677  0.5775 -0.0587  0.6997
  169SAPE   H7R19011   4.167   6.221   3.742  1.9099  1.0171  0.6273
  169SAPE   H7S19012   4.290   6.208   3.616 -0.7967  0.1295 -0.7584
  169SAPE   C2819013   4.313   6.056   3.751 -0.2669 -0.0766  0.3344
  169SAPE   H8R19014   4.384   6.002   3.687  1.0156  0.7154  1.0543
  169SAPE   C2919015   4.323   6.049   3.885 -0.3354  0.3307  0.7412
  169SAPE   H9R19016   4.390   5.971   3.925 -2.0272 -1.7022 -0.2002
  169SAPE  C21019017   4.254   6.134   3.990  0.6432  0.1988 -0.2426
  169SAPE  H10R19018   4.165   6.194   3.962  0.8192  0.7753  0.3984
  169SAPE  H10S19019   4.330   6.208   4.023 -0.5139  1.8232 -1.0822
  169SAPE  C21119020   4.204   6.044   4.101 -0.0681  0.1308 -0.0445
  169SAPE  H11R19021   4.120   5.977   4.074 -0.3241  1.4048 -2.7350
  169SAPE  C21219022   4.241   6.035   4.226  0.1114 -0.2372 -0.2955
  169SAPE  H12R19023   4.204   5.943   4.275  1.0470 -0.6431 -0.3328
  169SAPE  C21319024   4.360   6.107   4.282 -0.0618  0.2038  0.0798
  169SAPE  H13R19025   4.418   6.164   4.206  0.1357 -1.8018 -1.3481
  169SAPE  H13S19026   4.437   6.035   4.320 -0.8620  0.0012  1.3977
  169SAPE  C21419027   4.306   6.190   4.397  0.4466  0.8379 -0.3718
  169SAPE  H14R19028   4.249   6.278   4.364 -0.8327  0.3431  0.4314
  169SAPE  C21519029   4.320   6.167   4.532 -0.0942  0.8009  0.0320
  169SAPE  H15R19030   4.280   6.226   4.615  3.2463  1.4033  1.3623
  169SAPE  C21619031   4.413   6.058   4.596  0.0220 -0.3404  0.2941
  169SAPE  H16R19032   4.461   6.121   4.673 -0.1339  1.0912 -0.7256
  169SAPE  H16S19033   4.491   6.023   4.525  2.0156  1.4120  1.5368
  169SAPE  C21719034   4.340   5.934   4.659  0.6044  0.1861  0.3689
  169SAPE  H17R19035   4.271   5.980   4.733  1.0260  0.5898  0.5228
  169SAPE  H17S19036   4.406   5.866   4.717 -1.8772  0.0876  3.2968
  169SAPE  C21819037   4.267   5.843   4.557 -0.7746 -0.1796 -0.0810
  169SAPE  H18R19038   4.288   5.735   4.572 -1.9637 -0.8064 -2.4204
  169SAPE  H18S19039   4.315   5.853   4.457 -1.9166  4.3772 -0.4260
  169SAPE  C21919040   4.117   5.859   4.556  0.0198  0.0892 -0.6625
  169SAPE  H19R19041   4.099   5.963   4.523  4.2382  1.3969  0.5295
  169SAPE  H19S19042   4.077   5.849   4.660 -3.2322  0.7576 -1.7321
  169SAPE  C22019043   4.051   5.753   4.472  0.2261  0.2447 -0.2415
  169SAPE  H20R19044   4.069   5.654   4.519 -1.0337  1.0010  1.9425
  169SAPE  H20S19045   4.080   5.761   4.365 -0.2222 -0.0434 -0.3891
  169SAPE  H20T19046   3.941   5.769   4.475 -0.5101 -3.8315  2.3825
  169SAPE   C3319047   3.550   5.983   3.224 -0.4618 -0.5504  0.1690
  169SAPE   H3X19048   3.611   5.901   3.267  1.2122  0.9121  0.7439
  169SAPE   H3Y19049   3.452   5.968   3.274  0.0634  0.0244  1.4326
  169SAPE   C3419050   3.605   6.123   3.249  0.0840 -0.3061  0.9525
  169SAPE   H4X19051   3.541   6.193   3.192  1.6457  0.8435  0.5550
  169SAPE   H4Y19052   3.712   6.129   3.223  0.1304 -0.0015  1.1986
  169SAPE   C3519053   3.586   6.168   3.395  0.0299 -0.0203  0.3276
  169SAPE   H5X19054   3.482   6.155   3.433  0.4942 -1.2009  1.2522
  169SAPE   H5Y19055   3.614   6.275   3.406 -0.7406  0.1760  0.4346
  169SAPE   C3619056   3.672   6.081   3.490  0.0521  0.1471 -0.6537
  169SAPE   H6X19057   3.782   6.084   3.473  0.1858  1.6004  0.2535
  169SAPE   H6Y19058   3.654   5.972   3.488 -1.2355  0.3006  0.7748
  169SAPE   C3719059   3.659   6.126   3.638  0.7622 -0.0085 -0.6246
  169SAPE   H7X19060   3.548   6.116   3.647  1.0701 -2.9801  0.9665
  169SAPE   H7Y19061   3.699   6.230   3.647 -1.0985  0.6718  0.4553
  169SAPE   C3819062   3.726   6.033   3.729 -0.2621  0.1839 -0.1514
  169SAPE   H8X19063   3.835   6.051   3.714 -0.2949  0.6987  0.1824
  169SAPE   H8Y19064   3.699   5.927   3.709  1.1087 -0.3149  0.4514
  169SAPE   C3919065   3.704   6.064   3.886  0.2158 -0.1349 -0.0732
  169SAPE   H9X19066   3.602   6.031   3.913  0.4569  0.1918  1.3475
  169SAPE   H9Y19067   3.711   6.175   3.893  0.2713 -0.1303 -0.2003
  169SAPE  C31019068   3.801   5.994   3.981 -0.2645 -0.4323 -0.5250
  169SAPE  H10X19069   3.896   6.044   3.952 -0.6381  0.5867 -0.0150
  169SAPE  H10Y19070   3.816   5.887   3.952  2.6263  0.1019 -1.3652
  169SAPE  C31119071   3.778   6.010   4.128 -0.1240 -0.1106  0.6413
  169SAPE  H11X19072   3.753   6.115   4.156  3.7626  0.9863  0.5700
  169SAPE  H11Y19073   3.879   5.990   4.172  1.5082  2.4711 -1.5930
  169SAPE  C31219074   3.675   5.920   4.198  0.1790  0.2886  0.0922
  169SAPE  H12X19075   3.573   5.930   4.155  0.4470  0.2025 -0.5821
  169SAPE  H12Y19076   3.664   5.945   4.305  0.1233 -1.9114  0.6605
  169SAPE  C31319077   3.709   5.768   4.183 -0.0617 -0.1150 -0.1292
  169SAPE  H13X19078   3.814   5.748   4.212 -0.1729 -0.8642 -0.2176
  169SAPE  H13Y19079   3.712   5.748   4.074  0.2301  1.1218 -0.3587
  169SAPE  C31419080   3.631   5.668   4.264 -0.2160  0.4311  0.7410
  169SAPE  H14X19081   3.643   5.570   4.213 -0.0045 -0.1139  1.8099
  169SAPE  H14Y19082   3.522   5.686   4.252 -0.2162  0.7486  1.1743
  169SAPE  C31519083   3.674   5.664   4.409  0.2864  1.3473 -0.3580
  169SAPE  H15X19084   3.670   5.758   4.469  0.0785  0.8413  0.4460
  169SAPE  H15Y19085   3.780   5.631   4.410 -0.2767 -0.8607 -2.8278
  169SAPE  C31619086   3.599   5.554   4.489 -0.1094  0.2245 -0.0374
  169SAPE  H16X19087   3.619   5.454   4.445 -2.5055  0.3976 -1.7337
  169SAPE  H16Y19088   3.492   5.583   4.480 -1.0200 -3.0221 -0.9467
  169SAPE  C31719089   3.620   5.551   4.644 -0.6817  0.5467 -0.0861
  169SAPE  H17X19090   3.622   5.658   4.672  2.2522  0.6859 -0.4643
  169SAPE  H17Y19091   3.721   5.512   4.669 -1.4365 -3.4611 -2.3269
  169SAPE  C31819092   3.508   5.463   4.710  0.4979  1.0231  0.2024
  169SAPE  H18X19093   3.527   5.358   4.678  0.2350  0.8273  0.6989
  169SAPE  H18Y19094   3.404   5.499   4.716  0.6457  1.3954  0.5701
  169SAPE  H18Z19095   3.533   5.457   4.818  0.2943  0.0031  0.2023
  170SAPE     N19096   2.221   1.058   2.887  0.0125  0.2604  0.0123
  170SAPE   HN119097   2.129   1.098   2.915 -0.6337  0.2079 -1.9215
  170SAPE   HN219098   2.287   1.132   2.855 -0.4997  0.2767 -1.0501
  170SAPE   HN319099   2.203   1.007   2.798 -1.9972  0.9908 -0.0501
  170SAPE   C1219100   2.283   0.960   2.993 -0.7366  0.2675  0.0430
  170SAPE  H12A19101   2.319   1.020   3.079  0.5265 -1.4048  0.7251
  170SAPE  H12B19102   2.370   0.905   2.953 -0.5881 -0.5625  1.4704
  170SAPE   C1119103   2.172   0.874   3.041  0.3756 -0.2034 -0.9212
  170SAPE  H11A19104   2.221   0.793   3.098 -1.1619 -0.3148  0.3263
  170SAPE  H11B19105   2.126   0.817   2.957  1.0540 -0.9983 -0.7654
  170SAPE     P19106   2.096   1.017   3.259  0.0501  0.1984 -0.3460
  170SAPE   O1319107   2.194   1.127   3.246 -0.2697  0.1566 -0.3520
  170SAPE   O1419108   1.968   1.054   3.317  0.1921 -0.3050  0.2012
  170SAPE   O1219109   2.076   0.949   3.119  0.4858 -0.0143 -0.0788
  170SAPE   O1119110   2.167   0.909   3.342 -0.5464 -0.0924 -0.2273
  170SAPE    C119111   2.227   0.939   3.468 -0.6155  0.5334  0.2930
  170SAPE    HA19112   2.251   1.046   3.486  1.3752  0.3301 -0.8321
  170SAPE    HB19113   2.154   0.909   3.547 -1.4840  3.4082  0.6834
  170SAPE    C219114   2.375   0.874   3.477  0.4803 -0.6079  0.1225
  170SAPE    HS19115   2.407   0.833   3.378  1.3147  0.4286 -0.0493
  170SAPE   O2119116   2.366   0.762   3.568  0.0499 -0.5301 -0.0325
  170SAPE   C2119117   2.463   0.662   3.544 -0.4977 -0.3342  0.2248
  170SAPE   O2219118   2.541   0.662   3.450 -0.4601 -0.0083  0.1943
  170SAPE   C2219119   2.423   0.544   3.630  0.2933  0.2438  0.1042
  170SAPE   H2R19120   2.320   0.553   3.670  0.3495 -0.4536  0.4342
  170SAPE   H2S19121   2.425   0.448   3.574 -2.0122  0.7260 -0.9183
  170SAPE    C319122   2.485   0.975   3.511  0.1027  0.2861 -1.0176
  170SAPE    HX19123   2.505   1.042   3.425 -0.7790  0.2742 -1.2412
  170SAPE    HY19124   2.571   0.911   3.541  0.9147  2.1410  0.9116
  170SAPE   O3119125   2.445   1.063   3.616 -0.2158  0.2068 -0.5114
  170SAPE   C3119126   2.488   1.027   3.735 -0.0942 -0.4086  0.0121
  170SAPE   O3219127   2.544   0.925   3.765 -0.2982  0.4654  0.0472
  170SAPE   C3219128   2.449   1.139   3.840  0.0938 -0.5451 -0.2905
  170SAPE   H2X19129   2.338   1.138   3.849 -0.2519  2.9117 -2.4879
  170SAPE   H2Y19130   2.489   1.236   3.803  0.5805 -1.0104 -1.0071
  170SAPE   C2319131   2.511   0.524   3.764  0.0416 -0.2885 -0.1760
  170SAPE   H3R19132   2.532   0.625   3.806 -0.5776 -0.5065  0.6916
  170SAPE   H3S19133   2.609   0.477   3.742 -0.0354 -0.9260  0.7753
  170SAPE   C2419134   2.439   0.456   3.882  0.1499  0.5005 -0.2718
  170SAPE   H4R19135   2.337   0.501   3.884 -0.4215 -0.7625  0.7531
  170SAPE   H4S19136   2.489   0.477   3.979 -1.4639  1.0257  0.4710
  170SAPE   C2519137   2.435   0.303   3.868 -0.0649 -0.6355 -0.1528
  170SAPE   H5R19138   2.488   0.270   3.777  0.2042 -1.2117  0.2051
  170SAPE   C2619139   2.360   0.215   3.944  0.5610 -1.0264 -0.8593
  170SAPE   H6R19140   2.371   0.107   3.926  4.2119 -1.0755  0.7401
  170SAPE   C2719141   2.269   0.246   4.071 -0.7267 -0.5401  0.3679
  170SAPE   H7R19142   2.192   0.166   4.068 -1.2270 -0.0548 -2.3154
  170SAPE   H7S19143   2.207   0.337   4.061 -2.2563 -1.4733  1.0787
  170SAPE   C2819144   2.355   0.245   4.197  0.1041 -0.3904 -0.7624
  170SAPE   H8R19145   2.461   0.269   4.186  0.3477 -1.9672 -2.1652
  170SAPE   C2919146   2.312   0.204   4.321 -0.3213 -0.5731 -0.5507
  170SAPE   H9R19147   2.376   0.227   4.407  2.2494 -0.2098 -2.4304
  170SAPE  C21019148   2.179   0.142   4.369 -0.5237  0.2860 -0.0671
  170SAPE  H10R19149   2.108   0.113   4.288 -1.5814  0.8799  0.6259
  170SAPE  H10S19150   2.136   0.224   4.430 -0.2580 -0.4784  1.1752
  170SAPE  C21119151   2.195   0.014   4.450  0.3583 -0.4467  0.4064
  170SAPE  H11R19152   2.294  -0.034   4.453  0.7570  0.3534  0.3966
  170SAPE  C21219153   2.104  -0.032   4.537  0.7449  0.0834  0.6552
  170SAPE  H12R19154   2.110  -0.131   4.583 -1.9673 -0.6568 -0.3494
  170SAPE  C21319155   1.970   0.036   4.568  0.8376  0.3179  0.7891
  170SAPE  H13R19156   1.934   0.096   4.482 -0.6270  0.9438  1.8138
  170SAPE  H13S19157   1.990   0.105   4.653 -0.4857  1.2580  0.3667
  170SAPE  C21419158   1.851  -0.044   4.609 -0.5187 -0.2966 -0.1837
  170SAPE  H14R19159   1.761  -0.021   4.551  0.2311 -0.0475 -1.2633
  170SAPE  C21519160   1.838  -0.120   4.716  0.6648 -0.3270 -0.4184
  170SAPE  H15R19161   1.736  -0.162   4.729  1.1003 -1.2808  0.0448
  170SAPE  C21619162   1.937  -0.160   4.822 -0.4097 -0.3881 -0.2253
  170SAPE  H16R19163   2.041  -0.146   4.783 -0.5139 -0.6724 -0.6082
  170SAPE  H16S19164   1.922  -0.261   4.866 -2.0901 -0.9290 -1.9153
  170SAPE  C21719165   1.929  -0.084   4.963 -0.2001  0.1868 -0.1104
  170SAPE  H17R19166   1.976  -0.138   5.047 -0.0067  0.6184  0.0634
  170SAPE  H17S19167   1.824  -0.068   4.996  0.0580  0.7245  0.4584
  170SAPE  C21819168   2.002   0.053   4.959 -0.1071 -0.3320  0.3727
  170SAPE  H18R19169   1.975   0.112   5.049  1.7929 -0.6648  1.1988
  170SAPE  H18S19170   1.952   0.109   4.876 -0.7813 -1.2336  0.1458
  170SAPE  C21919171   2.153   0.063   4.929  0.0511  0.2204  0.4719
  170SAPE  H19R19172   2.179   0.003   4.839  0.5317 -0.5115  1.0950
  170SAPE  H19S19173   2.209   0.018   5.013  0.2284 -1.1095 -0.3362
  170SAPE  C22019174   2.208   0.210   4.914 -0.1134 -0.6188  0.1845
  170SAPE  H20R19175   2.144   0.251   4.834 -0.1474  0.7171  0.8748
  170SAPE  H20S19176   2.318   0.216   4.895  0.4405  0.8630  3.1815
  170SAPE  H20T19177   2.181   0.259   5.010 -2.9298 -1.3515 -0.1661
  170SAPE   C3319178   2.486   1.087   3.984  0.1634 -0.0141 -0.4273
  170SAPE   H3X19179   2.595   1.068   3.984  0.4628  1.5542 -0.6889
  170SAPE   H3Y19180   2.432   0.992   4.001  0.4650 -0.2715 -0.9080
  170SAPE   C3419181   2.445   1.181   4.097  0.4933  0.2611  0.8520
  170SAPE   H4X19182   2.334   1.192   4.099  0.2671 -1.6985  3.2215
  170SAPE   H4Y19183   2.483   1.284   4.081  2.6420 -0.5952  0.0523
  170SAPE   C3519184   2.501   1.141   4.231 -0.0335  0.7339  0.5193
  170SAPE   H5X19185   2.605   1.178   4.247  1.0618 -1.9325  0.0763
  170SAPE   H5Y19186   2.500   1.031   4.244 -1.7623  0.6723  0.0803
  170SAPE   C3619187   2.411   1.194   4.347 -0.5343 -0.2413 -0.5712
  170SAPE   H6X19188   2.303   1.176   4.328 -0.4814 -0.5923 -0.5457
  170SAPE   H6Y19189   2.422   1.305   4.342  0.2598 -0.0820  2.5918
  170SAPE   C3719190   2.445   1.136   4.486 -0.5716 -0.1948  0.1042
  170SAPE   H7X19191   2.552   1.149   4.510  0.0603 -0.1182 -2.4518
  170SAPE   H7Y19192   2.418   1.029   4.469  1.0306 -0.5833 -0.1236
  170SAPE   C3819193   2.362   1.192   4.592 -0.5227 -0.3886  0.6973
  170SAPE   H8X19194   2.254   1.175   4.570 -0.5391 -0.5518  0.9033
  170SAPE   H8Y19195   2.380   1.301   4.599  1.5879 -0.5694 -0.7399
  170SAPE   C3919196   2.384   1.120   4.720  0.1933  0.4982 -0.1999
  170SAPE   H9X19197   2.490   1.143   4.744  0.4580  2.1200 -2.5812
  170SAPE   H9Y19198   2.374   1.010   4.713 -0.3619  0.2782  2.7823
  170SAPE  C31019199   2.293   1.165   4.826 -0.2233  0.1661  0.2566
  170SAPE  H10X19200   2.189   1.140   4.799 -0.5362  0.7915  0.8583
  170SAPE  H10Y19201   2.301   1.274   4.846  0.5951 -0.0673  1.3378
  170SAPE  C31119202   2.319   1.083   4.951  0.4059 -0.1256 -0.8921
  170SAPE  H11X19203   2.365   0.984   4.932 -0.6064 -1.3590  2.5196
  170SAPE  H11Y19204   2.225   1.062   5.005  0.9489  1.2202  0.6425
  170SAPE  C31219205   2.412   1.152   5.049 -0.2039  0.0956 -0.5927
  170SAPE  H12X19206   2.496   1.184   4.984  0.1504 -0.3152 -0.3427
  170SAPE  H12Y19207   2.453   1.077   5.120 -0.0307 -0.3161 -1.1190
  170SAPE  C31319208   2.340   1.267   5.131 -0.1308 -0.5331  0.0367
  170SAPE  H13X19209   2.265   1.320   5.069  1.8468  2.3863 -0.0439
  170SAPE  H13Y19210   2.412   1.342   5.170  1.3644 -1.5818 -0.5869
  170SAPE  C31419211   2.253   1.223   5.248  0.5011  0.2148  0.1053
  170SAPE  H14X19212   2.301   1.129   5.282 -0.2922 -0.3203 -0.2232
  170SAPE  H14Y19213   2.158   1.189   5.202 -1.1554  0.6176  3.0166
  170SAPE  C31519214   2.211   1.334   5.337  0.0448 -0.1923 -0.4187
  170SAPE  H15X19215   2.191   1.425   5.276  1.6290  0.5567  0.1060
  170SAPE  H15Y19216   2.298   1.371   5.396  0.4211  0.3384 -1.2827
  170SAPE  C31619217   2.100   1.282   5.433  0.3222  0.7241 -0.1881
  170SAPE  H16X19218   2.097   1.324   5.536 -0.9099 -0.4718  0.3035
  170SAPE  H16Y19219   2.103   1.174   5.461  1.3569  0.7199 -0.3106
  170SAPE  C31719220   1.962   1.326   5.375  0.9600 -0.2693 -0.4781
  170SAPE  H17X19221   1.944   1.250   5.297  1.7718 -3.7063  2.4180
  170SAPE  H17Y19222   1.958   1.425   5.324  0.1020  0.6136  1.2151
  170SAPE  C31819223   1.855   1.319   5.484  0.1520  0.4723  0.4860
  170SAPE  H18X19224   1.881   1.386   5.568  1.1912  1.8217 -0.8556
  170SAPE  H18Y19225   1.837   1.215   5.519 -0.9224 -0.0314 -1.4275
  170SAPE  H18Z19226   1.759   1.349   5.438  0.4085  0.1326 -0.2928
  171SAPE     N19227   2.716   1.027   2.833  0.6079 -0.2632 -0.5656
  171SAPE   HN119228   2.711   1.123   2.794  0.8695  0.3285  0.8018
  171SAPE   HN219229   2.657   0.969   2.770  1.2334 -0.8428 -0.6275
  171SAPE   HN319230   2.671   1.019   2.927  2.2118 -2.8378  0.0638
  171SAPE   C1219231   2.855   0.977   2.842  0.2018 -0.2746 -0.2489
  171SAPE  H12A19232   2.916   1.053   2.895 -0.5118 -0.1454  0.4133
  171SAPE  H12B19233   2.897   0.971   2.739  0.7894  2.8164 -0.2823
  171SAPE   C1119234   2.855   0.839   2.892 -0.4957  0.1478 -0.0990
  171SAPE  H11A19235   2.820   0.842   2.997  0.9951  1.4048  0.3973
  171SAPE  H11B19236   2.961   0.807   2.890 -1.0744 -1.8827 -0.0547
  171SAPE     P19237   2.660   0.662   2.868 -0.3364  0.0304  0.2922
  171SAPE   O1319238   2.542   0.742   2.854  0.1391  0.1927 -0.1390
  171SAPE   O1419239   2.666   0.545   2.783 -0.3584  0.0579 -0.1137
  171SAPE   O1219240   2.780   0.749   2.817 -0.1922 -0.7392 -0.1503
  171SAPE   O1119241   2.697   0.637   3.020 -0.1933 -0.0100 -0.0900
  171SAPE    C119242   2.760   0.512   3.050 -0.3019 -0.0508 -0.0469
  171SAPE    HA19243   2.851   0.489   2.992 -0.2611 -0.5352  0.2038
  171SAPE    HB19244   2.792   0.516   3.156 -1.4686  0.2048  0.3199
  171SAPE    C219245   2.663   0.387   3.047 -0.0944  0.3327 -0.8500
  171SAPE    HS19246   2.631   0.373   2.942  0.5172 -0.9209 -0.8973
  171SAPE   O2119247   2.557   0.418   3.142 -0.5999 -0.1718 -0.2637
  171SAPE   C2119248   2.441   0.399   3.096  0.6570  0.0836  0.2079
  171SAPE   O2219249   2.413   0.349   2.987  0.0237 -0.1436  0.2287
  171SAPE   C2219250   2.340   0.473   3.192 -0.0379  1.0289  0.0845
  171SAPE   H2R19251   2.382   0.471   3.295 -0.5053  3.6698  0.3830
  171SAPE   H2S19252   2.357   0.576   3.156  3.9065  0.5046  0.0252
  171SAPE    C319253   2.732   0.254   3.089 -0.3826  0.5261 -0.1115
  171SAPE    HX19254   2.792   0.236   2.997 -0.2558 -1.7701  0.3568
  171SAPE    HY19255   2.657   0.172   3.090 -1.2233  1.2343 -1.6857
  171SAPE   O3119256   2.823   0.258   3.204  0.0188 -0.2616 -0.2432
  171SAPE   C3119257   2.754   0.250   3.320  0.0113 -0.4182  0.4123
  171SAPE   O3219258   2.636   0.243   3.337  0.1541  0.6234 -0.0602
  171SAPE   C3219259   2.851   0.251   3.430 -0.0402 -0.1905 -0.1797
  171SAPE   H2X19260   2.903   0.347   3.446 -1.9262  0.8033  0.2739
  171SAPE   H2Y19261   2.929   0.174   3.416 -0.2281 -0.6512  1.1152
  171SAPE   C2319262   2.195   0.424   3.206 -0.3920  0.6928 -0.0742
  171SAPE   H3R19263   2.175   0.320   3.241  1.8239  0.4133  0.5100
  171SAPE   H3S19264   2.152   0.428   3.103 -0.4642  0.6528 -0.0454
  171SAPE   C2419265   2.125   0.528   3.302  1.0852  0.6156 -0.0077
  171SAPE   H4R19266   2.132   0.623   3.246 -1.6069  2.3508  2.3091
  171SAPE   H4S19267   2.187   0.536   3.394  0.2024 -0.8421  0.7536
  171SAPE   C2519268   1.980   0.512   3.324 -0.5658 -0.2420  0.9432
  171SAPE   H5R19269   1.926   0.480   3.233  2.0751  1.0697 -1.2317
  171SAPE   C2619270   1.916   0.554   3.436  0.3909  0.0908 -0.6872
  171SAPE   H6R19271   1.806   0.550   3.439  0.1930  3.2060 -0.5807
  171SAPE   C2719272   1.967   0.598   3.570 -0.0689  0.0605 -0.6411
  171SAPE   H7R19273   1.899   0.671   3.618  0.3729  3.0564 -4.1053
  171SAPE   H7S19274   2.064   0.650   3.554  1.0923 -1.0382  2.2026
  171SAPE   C2819275   2.009   0.483   3.658 -0.1435 -0.0992 -0.1477
  171SAPE   H8R19276   2.014   0.384   3.610 -0.3557  0.3545 -1.1235
  171SAPE   C2919277   2.046   0.502   3.782  0.3214 -0.0641 -0.7193
  171SAPE   H9R19278   2.103   0.422   3.832  1.6743  0.8529 -0.7207
  171SAPE  C21019279   2.053   0.630   3.862  0.5686  0.1514  0.9640
  171SAPE  H10R19280   2.058   0.588   3.965  1.1956 -0.9382  0.5072
  171SAPE  H10S19281   1.956   0.683   3.850  0.4716 -0.4166 -1.3416
  171SAPE  C21119282   2.170   0.716   3.830 -0.1395  0.6417 -0.2922
  171SAPE  H11R19283   2.157   0.752   3.726  1.1657 -0.9931 -1.0614
  171SAPE  C21219284   2.265   0.763   3.913 -1.2322  0.3510 -0.1112
  171SAPE  H12R19285   2.338   0.834   3.869  0.3791 -1.6666 -0.8948
  171SAPE  C21319286   2.290   0.737   4.059  0.5044 -0.3391  0.2657
  171SAPE  H13R19287   2.385   0.789   4.084  0.7211  0.2354 -1.5836
  171SAPE  H13S19288   2.313   0.629   4.071 -1.5193 -0.9399 -0.7874
  171SAPE  C21419289   2.172   0.778   4.151  0.2663 -0.1181 -0.3376
  171SAPE  H14R19290   2.097   0.847   4.111  0.6592 -0.2537 -1.3240
  171SAPE  C21519291   2.172   0.749   4.287 -0.0266  0.6990  0.9024
  171SAPE  H15R19292   2.096   0.792   4.354  1.3122  2.3772  1.4334
  171SAPE  C21619293   2.271   0.666   4.353  0.8293  0.0674 -0.0818
  171SAPE  H16R19294   2.333   0.738   4.412 -0.6467 -1.1322  3.1842
  171SAPE  H16S19295   2.336   0.613   4.280 -0.2904  0.5992 -1.5252
  171SAPE  C21719296   2.224   0.565   4.454  0.2995 -0.1075  0.6604
  171SAPE  H17R19297   2.170   0.486   4.399 -1.0683  1.1818  0.0895
  171SAPE  H17S19298   2.144   0.606   4.520  0.5999 -0.6988  1.4101
  171SAPE  C21819299   2.352   0.524   4.536 -0.5093 -0.0952  0.3012
  171SAPE  H18R19300   2.409   0.617   4.557 -2.9737  1.6491 -0.1849
  171SAPE  H18S19301   2.423   0.464   4.476 -0.7287  1.4174 -1.5708
  171SAPE  C21919302   2.324   0.452   4.668 -0.0959 -0.1247  0.2715
  171SAPE  H19R19303   2.421   0.429   4.717  0.3338  1.8980  0.4681
  171SAPE  H19S19304   2.275   0.353   4.661  0.2800 -0.3078  0.2003
  171SAPE  C22019305   2.256   0.553   4.768 -1.0284  0.7404  0.2824
  171SAPE  H20R19306   2.147   0.569   4.749 -0.4971  2.2065 -2.0867
  171SAPE  H20S19307   2.302   0.654   4.765  3.5489 -1.1299  0.2913
  171SAPE  H20T19308   2.280   0.513   4.868 -1.5953 -0.1146  0.0891
  171SAPE   C3319309   2.783   0.224   3.570 -0.0003  0.1473  1.2088
  171SAPE   H3X19310   2.731   0.130   3.546  1.0717 -0.4920  1.2939
  171SAPE   H3Y19311   2.713   0.309   3.588 -0.1938  0.4957 -1.0030
  171SAPE   C3419312   2.877   0.217   3.687  0.3078  0.6076  0.0586
  171SAPE   H4X19313   2.956   0.295   3.685  0.6887  0.2196 -1.6025
  171SAPE   H4Y19314   2.925   0.118   3.674 -1.4400 -0.5207  1.5944
  171SAPE   C3519315   2.803   0.214   3.820  0.6094 -0.2775 -0.2909
  171SAPE   H5X19316   2.732   0.130   3.834  0.7045 -0.3365 -0.1684
  171SAPE   H5Y19317   2.745   0.307   3.838 -3.3419 -2.6957  0.7589
  171SAPE   C3619318   2.891   0.181   3.939 -0.2201 -0.0684 -0.6169
  171SAPE   H6X19319   2.979   0.243   3.967 -1.3527  0.7024  1.4845
  171SAPE   H6Y19320   2.937   0.083   3.914 -1.1706 -0.7464  0.2186
  171SAPE   C3719321   2.818   0.152   4.076  0.3800  0.2368  0.2305
  171SAPE   H7X19322   2.861   0.060   4.121 -0.4381 -0.9826 -1.3681
  171SAPE   H7Y19323   2.716   0.119   4.047  0.0149  0.9414  0.6930
  171SAPE   C3819324   2.799   0.273   4.169  0.1886 -0.3183  0.5391
  171SAPE   H8X19325   2.730   0.348   4.124  1.2438  1.6234  1.9851
  171SAPE   H8Y19326   2.898   0.324   4.166  0.1915 -0.3605 -1.8017
  171SAPE   C3919327   2.768   0.222   4.308 -0.3272 -0.1686 -0.1078
  171SAPE   H9X19328   2.849   0.156   4.345 -3.5014 -4.4796 -0.0304
  171SAPE   H9Y19329   2.682   0.152   4.300 -2.6294  2.5655 -1.1324
  171SAPE  C31019330   2.736   0.344   4.402 -0.2301  0.1318 -0.1938
  171SAPE  H10X19331   2.651   0.398   4.355 -1.5345 -1.2023  0.5475
  171SAPE  H10Y19332   2.822   0.415   4.406  1.9207 -2.3300 -0.1222
  171SAPE  C31119333   2.687   0.299   4.539  0.2390  0.0249 -0.0756
  171SAPE  H11X19334   2.594   0.239   4.531 -0.6677  1.5041 -1.0249
  171SAPE  H11Y19335   2.671   0.391   4.600  0.4122  0.7887 -1.1711
  171SAPE  C31219336   2.786   0.211   4.611 -0.2351  0.3965  0.3851
  171SAPE  H12X19337   2.880   0.270   4.603 -0.7248  1.5441  2.3109
  171SAPE  H12Y19338   2.789   0.111   4.563 -0.6084  1.8643 -2.9599
  171SAPE  C31319339   2.756   0.189   4.764 -1.0840  0.0624 -0.7867
  171SAPE  H13X19340   2.647   0.167   4.769 -0.9570 -0.5777 -0.7635
  171SAPE  H13Y19341   2.774   0.276   4.831 -1.7246  0.4461 -1.1026
  171SAPE  C31419342   2.838   0.071   4.829  0.2037 -0.3021  0.1613
  171SAPE  H14X19343   2.810  -0.015   4.765  3.1257 -1.3998  0.1971
  171SAPE  H14Y19344   2.805   0.054   4.933 -0.4564  0.6607  0.1222
  171SAPE  C31519345   2.986   0.091   4.813 -0.2354  0.7214 -0.1939
  171SAPE  H15X19346   3.016   0.193   4.845  1.9637  0.3741 -0.9780
  171SAPE  H15Y19347   3.012   0.089   4.705 -2.2523 -0.3815 -0.7123
  171SAPE  C31619348   3.071  -0.011   4.894  0.4549 -0.3409 -0.2697
  171SAPE  H16X19349   3.033  -0.012   4.999  0.9502 -2.1025 -0.0680
  171SAPE  H16Y19350   3.177   0.018   4.884  0.6703 -1.6811 -2.4899
  171SAPE  C31719351   3.077  -0.148   4.827 -0.2366 -0.3667 -0.6046
  171SAPE  H17X19352   3.137  -0.129   4.736  1.5412  2.6349  1.0147
  171SAPE  H17Y19353   2.976  -0.190   4.809  0.0582 -0.9902 -0.8367
  171SAPE  C31819354   3.166  -0.263   4.890  0.4851  0.2145  0.6358
  171SAPE  H18X19355   3.168  -0.349   4.820 -0.3727  2.1944 -1.9464
  171SAPE  H18Y19356   3.116  -0.297   4.984 -1.7402 -1.8541 -1.1784
  171SAPE  H18Z19357   3.269  -0.226   4.911 -0.2835  3.4419 -0.7491
  172SAPE     N19358   4.947   1.025   2.494 -0.6067  0.4501  0.2532
  172SAPE   HN119359   4.893   0.943   2.459  0.3447 -1.3404  2.6518
  172SAPE   HN219360   4.966   1.095   2.420 -2.3928  3.5674  2.5179
  172SAPE   HN319361   5.038   0.982   2.521  0.6931  2.8728  0.0504
  172SAPE   C1219362   4.885   1.078   2.617  0.0739 -0.0177 -0.1725
  172SAPE  H12A19363   4.798   1.137   2.581 -0.8434 -0.4412  1.2475
  172SAPE  H12B19364   4.951   1.154   2.663  1.4592  0.3859 -2.6297
  172SAPE   C1119365   4.846   0.960   2.705 -0.3008 -1.2690  0.3226
  172SAPE  H11A19366   4.810   1.008   2.798  1.6303 -0.6025  0.7717
  172SAPE  H11B19367   4.942   0.906   2.716  0.5031 -0.2015 -1.0399
  172SAPE     P19368   4.609   0.889   2.634  0.0172  0.2914  0.0625
  172SAPE   O1319369   4.571   1.009   2.563 -0.6403  0.0419 -0.2838
  172SAPE   O1419370   4.546   0.763   2.589  0.1958 -0.2212  0.4896
  172SAPE   O1219371   4.766   0.872   2.633 -0.7631  0.2535 -0.2950
  172SAPE   O1119372   4.562   0.910   2.786  0.0110 -0.2986 -0.3420
  172SAPE    C119373   4.616   0.845   2.897  0.0887  0.4481 -1.0593
  172SAPE    HA19374   4.654   0.745   2.867  2.8488 -0.0591  3.3077
  172SAPE    HB19375   4.698   0.909   2.936 -0.3471  0.6662 -0.4790
  172SAPE    C219376   4.517   0.828   3.017 -0.2388 -0.1549  0.1147
  172SAPE    HS19377   4.429   0.780   2.969  0.1246 -2.7292  1.8551
  172SAPE   O2119378   4.494   0.962   3.073 -0.1244  0.7206  0.3371
  172SAPE   C2119379   4.367   0.986   3.099 -0.4716  0.8752  0.7951
  172SAPE   O2219380   4.275   0.912   3.074 -1.1496  0.0398 -0.0713
  172SAPE   C2219381   4.347   1.120   3.147 -0.5740 -0.2645 -0.6520
  172SAPE   H2R19382   4.424   1.148   3.223 -0.3129 -0.4826 -0.8338
  172SAPE   H2S19383   4.351   1.193   3.063 -0.1021 -2.7816 -2.9361
  172SAPE    C319384   4.561   0.714   3.114 -0.4251  0.5916 -0.0614
  172SAPE    HX19385   4.659   0.736   3.161  0.8758  4.6998 -3.9774
  172SAPE    HY19386   4.549   0.626   3.047 -2.3414  1.8474 -1.4832
  172SAPE   O3119387   4.469   0.720   3.232 -0.4562  0.5682  0.1006
  172SAPE   C3119388   4.366   0.639   3.236  0.2077 -0.6774  0.3418
  172SAPE   O3219389   4.343   0.543   3.171 -0.0532  0.1904  0.0687
  172SAPE   C3219390   4.265   0.679   3.350  0.1169  0.0372  0.5760
  172SAPE   H2X19391   4.165   0.694   3.305  0.1470 -2.1691 -0.3334
  172SAPE   H2Y19392   4.300   0.782   3.375  2.3254  0.4437 -3.2629
  172SAPE   C2319393   4.201   1.140   3.201 -0.4100 -0.2761 -0.1454
  172SAPE   H3R19394   4.181   1.064   3.279  3.8263  0.8624  2.3765
  172SAPE   H3S19395   4.124   1.114   3.125 -2.4709  0.1624  1.7234
  172SAPE   C2419396   4.182   1.268   3.279 -0.3205 -0.4777 -0.0622
  172SAPE   H4R19397   4.261   1.286   3.355  0.6484  2.5219 -1.6343
  172SAPE   H4S19398   4.085   1.281   3.331 -0.3485  1.4879 -0.5348
  172SAPE   C2519399   4.194   1.384   3.182  0.3159  0.3685 -0.0242
  172SAPE   H5R19400   4.147   1.365   3.084 -0.7106 -0.1585  0.5583
  172SAPE   C2619401   4.254   1.506   3.197 -0.4522  0.0864 -0.1276
  172SAPE   H6R19402   4.242   1.569   3.109  0.7267 -0.3101 -0.5893
  172SAPE   C2719403   4.320   1.570   3.319  0.4406  1.4005 -0.2313
  172SAPE   H7R19404   4.413   1.610   3.275  0.4606  0.5833 -0.9440
  172SAPE   H7S19405   4.343   1.497   3.400  0.7606  2.0796  0.3025
  172SAPE   C2819406   4.232   1.686   3.369  1.1936  0.0341 -0.4269
  172SAPE   H8R19407   4.182   1.749   3.294 -0.3511  0.8338  1.1876
  172SAPE   C2919408   4.201   1.705   3.499 -0.0463 -0.5684  0.1696
  172SAPE   H9R19409   4.137   1.791   3.526 -1.6702 -1.5460 -0.3678
  172SAPE  C21019410   4.260   1.633   3.611 -0.2649 -0.1006 -0.3151
  172SAPE  H10R19411   4.273   1.709   3.691  1.6596 -1.0545  0.3449
  172SAPE  H10S19412   4.363   1.595   3.592 -1.9478 -4.7170 -1.6096
  172SAPE  C21119413   4.185   1.512   3.653 -0.1938 -0.2323 -0.1521
  172SAPE  H11R19414   4.101   1.491   3.585 -0.9566  0.3494  0.5783
  172SAPE  C21219415   4.205   1.434   3.765 -0.0588  0.5265 -0.4776
  172SAPE  H12R19416   4.135   1.356   3.796  1.6043 -0.6675  0.4696
  172SAPE  C21319417   4.315   1.460   3.869 -0.9777  0.4638  0.2333
  172SAPE  H13R19418   4.360   1.561   3.858 -0.4445  0.4602  2.1380
  172SAPE  H13S19419   4.392   1.380   3.863  0.1987  1.6176 -0.6947
  172SAPE  C21419420   4.256   1.458   4.004 -0.5590 -0.5640  0.1577
  172SAPE  H14R19421   4.151   1.489   4.009 -0.2695  0.5110  5.2435
  172SAPE  C21519422   4.333   1.449   4.117 -0.1030  0.0402 -0.4257
  172SAPE  H15R19423   4.283   1.449   4.215  0.7423 -0.0882  0.0157
  172SAPE  C21619424   4.484   1.432   4.130  0.0851 -0.4172  0.6112
  172SAPE  H16R19425   4.526   1.477   4.222  0.9920 -0.8842  0.4418
  172SAPE  H16S19426   4.527   1.485   4.042 -1.6410  0.3416  0.1761
  172SAPE  C21719427   4.534   1.291   4.127 -0.2234 -0.5383  0.0329
  172SAPE  H17R19428   4.476   1.226   4.057  0.5393 -1.6941  0.4348
  172SAPE  H17S19429   4.508   1.254   4.228 -1.6063  1.7627  0.5771
  172SAPE  C21819430   4.688   1.273   4.106 -0.7713  0.3500  0.6536
  172SAPE  H18R19431   4.746   1.346   4.166  1.5406 -2.1496  1.6313
  172SAPE  H18S19432   4.720   1.279   4.000  0.8552  1.1686  1.1541
  172SAPE  C21919433   4.734   1.141   4.168 -0.2400 -0.0820  0.1234
  172SAPE  H19R19434   4.760   1.061   4.096 -1.7480  0.0370 -0.5737
  172SAPE  H19S19435   4.649   1.102   4.228 -0.7033 -1.0351 -1.1284
  172SAPE  C22019436   4.865   1.146   4.254 -0.8136 -0.6360  0.0085
  172SAPE  H20R19437   4.904   1.049   4.292  1.6118 -0.4253 -1.6543
  172SAPE  H20S19438   4.847   1.216   4.339 -1.7966 -1.4004  0.4529
  172SAPE  H20T19439   4.950   1.180   4.191  0.3369 -0.9385  1.3315
  172SAPE   C3319440   4.250   0.570   3.464  0.4578  0.0840  0.0154
  172SAPE   H3X19441   4.352   0.572   3.507  0.8030  2.2385 -0.7717
  172SAPE   H3Y19442   4.230   0.466   3.430  0.4929  0.0202  0.1866
  172SAPE   C3419443   4.145   0.619   3.568 -0.9516 -0.7434 -0.6921
  172SAPE   H4X19444   4.049   0.570   3.541 -1.3026  0.1156 -1.0128
  172SAPE   H4Y19445   4.129   0.728   3.572 -1.4280 -0.8382  0.2375
  172SAPE   C3519446   4.198   0.600   3.715  0.6314 -0.0196  0.6218
  172SAPE   H5X19447   4.292   0.660   3.715  1.7050 -1.5974  2.4488
  172SAPE   H5Y19448   4.237   0.497   3.729  0.9155 -0.0903 -0.6287
  172SAPE   C3619449   4.088   0.632   3.819 -0.0652  0.2975  0.4516
  172SAPE   H6X19450   4.005   0.559   3.810 -1.0993  1.3614  1.0092
  172SAPE   H6Y19451   4.045   0.732   3.795  1.4987  0.4142 -2.2465
  172SAPE   C3719452   4.134   0.618   3.966  0.4034 -0.8157 -0.6125
  172SAPE   H7X19453   4.207   0.695   3.998  0.0948 -0.3064 -1.1157
  172SAPE   H7Y19454   4.166   0.515   3.993 -1.9532 -0.8955  2.5962
  172SAPE   C3819455   4.025   0.637   4.083 -0.7288  0.3502  0.2819
  172SAPE   H8X19456   3.943   0.564   4.071 -0.4756  0.2512 -1.0668
  172SAPE   H8Y19457   3.983   0.737   4.060  2.9669  2.0054 -0.1121
  172SAPE   C3919458   4.088   0.635   4.215 -0.1114 -0.1721 -0.4210
  172SAPE   H9X19459   4.153   0.725   4.213 -1.5921  0.9315 -1.2236
  172SAPE   H9Y19460   4.157   0.547   4.224  0.9246  0.5806 -0.7773
  172SAPE  C31019461   3.986   0.647   4.333 -0.3072 -0.9083  0.3199
  172SAPE  H10X19462   3.912   0.564   4.324 -1.5363  0.3086 -1.2675
  172SAPE  H10Y19463   3.935   0.745   4.326 -0.8512 -1.2416 -0.6998
  172SAPE  C31119464   4.055   0.630   4.470  0.4837 -0.0166 -0.0127
  172SAPE  H11X19465   4.140   0.700   4.484 -0.4766  1.2761 -0.4332
  172SAPE  H11Y19466   4.073   0.522   4.486 -1.3929 -0.2592  0.7354
  172SAPE  C31219467   3.943   0.671   4.577  0.1427  0.1345 -0.3916
  172SAPE  H12X19468   3.840   0.628   4.575  0.2862 -0.2351 -0.1167
  172SAPE  H12Y19469   3.931   0.781   4.565 -1.8510  0.1458  1.0521
  172SAPE  C31319470   3.988   0.634   4.722  0.6906  0.3003 -0.3269
  172SAPE  H13X19471   4.020   0.528   4.729 -0.5129  0.0139  1.8567
  172SAPE  H13Y19472   3.901   0.651   4.789 -0.6101 -2.6388 -1.1622
  172SAPE  C31419473   4.110   0.722   4.760 -0.0337  0.1111  0.2762
  172SAPE  H14X19474   4.087   0.830   4.747 -0.6821  0.0335  0.7291
  172SAPE  H14Y19475   4.204   0.698   4.705  0.3189  0.5762  0.6660
  172SAPE  C31519476   4.140   0.711   4.909 -0.2926  0.7919  0.3858
  172SAPE  H15X19477   4.148   0.605   4.941  0.6707  1.1067  1.2318
  172SAPE  H15Y19478   4.055   0.750   4.969  0.6837  0.4054  2.0804
  172SAPE  C31619479   4.266   0.785   4.952 -0.5573 -0.2127  0.6792
  172SAPE  H16X19480   4.244   0.893   4.937  0.4376 -0.2330 -1.2102
  172SAPE  H16Y19481   4.347   0.758   4.881  0.3356  2.9842  0.2946
  172SAPE  C31719482   4.298   0.760   5.105  0.0500 -0.5900  0.5901
  172SAPE  H17X19483   4.320   0.655   5.132  0.4952 -0.6960 -0.1734
  172SAPE  H17Y19484   4.206   0.779   5.165  0.4686  2.0934  0.5131
  172SAPE  C31819485   4.414   0.839   5.157 -0.1924 -0.2053  0.0279
  172SAPE  H18X19486   4.403   0.943   5.119  1.0998 -0.3916 -0.9362
  172SAPE  H18Y19487   4.507   0.793   5.115 -0.0408 -0.5609  0.7378
  172SAPE  H18Z19488   4.409   0.831   5.267 -0.9176 -1.4882 -0.0826
  173SLPC     N19489   6.455   2.748   7.048 -0.0897  0.5739 -0.2227
  173SLPC   C1319490   6.410   2.747   6.902  0.6527  0.7146  0.7105
  173SLPC  H13A19491   6.372   2.845   6.878  0.5294  0.5109  0.0505
  173SLPC  H13B19492   6.483   2.710   6.832 -1.4008 -3.2434  0.4030
  173SLPC  H13C19493   6.323   2.687   6.883  0.4691  1.3013 -0.4601
  173SLPC   C1419494   6.541   2.863   7.081  0.1841 -0.9342  0.0372
  173SLPC  H14A19495   6.633   2.853   7.026  0.3833 -2.2607  0.5742
  173SLPC  H14B19496   6.501   2.961   7.060 -1.6643 -1.8124 -0.8039
  173SLPC  H14C19497   6.573   2.852   7.183  2.2309 -1.8621 -0.6627
  173SLPC   C1519498   6.541   2.621   7.069  0.6481  0.3405  0.2387
  173SLPC  H15A19499   6.585   2.623   7.168 -0.3080  0.1902  0.6799
  173SLPC  H15B19500   6.475   2.539   7.048 -0.9593  2.4340 -4.1545
  173SLPC  H15C19501   6.613   2.608   6.989 -0.0488 -1.2650 -0.1606
  173SLPC   C1219502   6.332   2.744   7.134 -0.3526  0.1866 -0.1213
  173SLPC  H12A19503   6.271   2.832   7.127  0.4465  0.9007  1.4843
  173SLPC  H12B19504   6.370   2.741   7.235  2.1132  1.5054 -0.9242
  173SLPC   C1119505   6.233   2.622   7.118  0.4051 -0.1676 -0.0071
  173SLPC  H11A19506   6.168   2.634   7.207  2.5261 -0.7483  1.7041
  173SLPC  H11B19507   6.287   2.528   7.138  1.6876  0.5414  0.0068
  173SLPC     P19508   6.045   2.742   6.970 -0.5250 -0.0130  0.4885
  173SLPC   O1319509   5.924   2.687   7.033  0.1264 -0.0976  0.0149
  173SLPC   O1419510   6.097   2.869   7.024  0.3459 -0.7920 -0.4250
  173SLPC   O1219511   6.163   2.635   6.996 -0.1200 -0.0054 -0.2284
  173SLPC   O1119512   6.036   2.746   6.815  0.6423 -0.0806  0.4021
  173SLPC    C119513   6.017   2.624   6.746  0.3431  0.1778 -0.5615
  173SLPC    HA19514   6.119   2.580   6.754  0.4747  0.6542  0.5718
  173SLPC    HB19515   5.935   2.568   6.796 -0.6215  1.8782 -0.1549
  173SLPC    C219516   5.984   2.633   6.591 -0.1804 -0.1339 -0.2503
  173SLPC    HS19517   5.882   2.674   6.581 -0.8347 -1.0298  2.0013
  173SLPC   O2119518   5.997   2.505   6.528 -0.0302 -0.0436 -0.5328
  173SLPC   C2119519   5.897   2.423   6.549 -0.1175 -0.4038 -0.3958
  173SLPC   O2219520   5.796   2.448   6.610 -0.2959 -0.4695 -0.1498
  173SLPC   C2219521   5.920   2.292   6.478 -0.3025  0.5653 -0.8998
  173SLPC   H2R19522   5.960   2.315   6.376  5.0817 -2.3249  0.2255
  173SLPC   H2S19523   5.991   2.224   6.529  1.3974  1.1561 -2.3725
  173SLPC    C319524   6.086   2.736   6.524  0.3893 -0.5973  0.0821
  173SLPC    HX19525   6.185   2.697   6.557 -0.2043 -0.7620  1.7421
  173SLPC    HY19526   6.082   2.839   6.566  2.3156 -0.1017 -0.8051
  173SLPC   O3119527   6.060   2.751   6.379  0.1312 -0.1191 -0.4515
  173SLPC   C3119528   6.160   2.718   6.304 -0.1840  0.4071  0.0879
  173SLPC   O3219529   6.272   2.691   6.345  0.0290  0.9958  0.8652
  173SLPC   C3219530   6.122   2.742   6.161  0.3985 -0.7207 -0.0439
  173SLPC   H2X19531   6.093   2.849   6.151  0.2458 -0.8890 -1.6761
  173SLPC   H2Y19532   6.031   2.681   6.141  0.3928 -0.3614 -1.2312
  173SLPC   C2319533   5.795   2.205   6.468 -0.2965  0.1687 -0.4580
  173SLPC   H3R19534   5.716   2.266   6.418  2.1366  1.8704 -2.4797
  173SLPC   H3S19535   5.748   2.169   6.562 -3.8645  0.8028 -1.8142
  173SLPC   C2419536   5.817   2.082   6.383  0.0865  0.2645 -0.3387
  173SLPC   H4R19537   5.751   2.000   6.419 -0.1394  0.6916  0.2330
  173SLPC   H4S19538   5.915   2.043   6.418  0.4550  1.1932 -0.3213
  173SLPC   C2519539   5.812   2.100   6.232 -0.5495  0.2525  0.1030
  173SLPC   H5R19540   5.877   2.184   6.200 -1.4950  1.0802  0.2994
  173SLPC   H5S19541   5.710   2.135   6.207 -1.0871 -0.6414  0.9767
  173SLPC   C2619542   5.851   1.973   6.154  0.0338  0.0908  0.3732
  173SLPC   H6R19543   5.771   1.896   6.164 -2.4942  2.3231 -1.3605
  173SLPC   H6S19544   5.943   1.929   6.198 -0.6601  0.4613  2.3033
  173SLPC   C2719545   5.867   2.001   6.003  0.3124 -0.1474  0.1495
  173SLPC   H7R19546   5.958   2.065   6.001 -0.7405  1.4341  0.5538
  173SLPC   H7S19547   5.775   2.050   5.963 -0.3258 -1.3971  0.0361
  173SLPC   C2819548   5.897   1.878   5.914 -0.2032  0.2411 -0.7135
  173SLPC   H8R19549   5.817   1.802   5.932  1.5359 -1.1027  1.9309
  173SLPC   H8S19550   5.993   1.837   5.951 -0.3557  0.9923  0.5736
  173SLPC   C2919551   5.923   1.908   5.768  0.5925 -0.0700  0.0472
  173SLPC   H9R19552   5.986   1.991   5.732  1.0076 -1.3519 -2.3718
  173SLPC  C21019553   5.876   1.834   5.668  0.3996 -0.5383 -0.3288
  173SLPC  H10R19554   5.889   1.869   5.564 -0.3136  0.2657 -0.1606
  173SLPC  C21119555   5.787   1.711   5.683  0.6458  1.5936 -0.1369
  173SLPC  H11R19556   5.810   1.646   5.770 -4.1430  1.6177  1.4605
  173SLPC  H11S19557   5.800   1.633   5.606 -1.7158 -0.1281  1.0795
  173SLPC  C21219558   5.637   1.737   5.694  0.4868  0.1111  0.2969
  173SLPC  H12R19559   5.597   1.793   5.780 -1.4917  0.2928 -0.6741
  173SLPC  C21319560   5.538   1.687   5.619 -0.6674  0.7332  0.6645
  173SLPC  H13R19561   5.439   1.728   5.644 -1.3981 -0.7460  0.2730
  173SLPC  C21419562   5.541   1.600   5.499 -0.1580  0.3692  1.2055
  173SLPC  H14R19563   5.638   1.608   5.446 -0.2039  2.6639  1.3501
  173SLPC  H14S19564   5.461   1.626   5.426 -0.1606 -0.1198  1.0326
  173SLPC  C21519565   5.523   1.457   5.543  0.0956  0.0972  0.6582
  173SLPC  H15R19566   5.442   1.453   5.619  1.0615  2.3223  1.8885
  173SLPC  H15S19567   5.606   1.418   5.605 -0.4853 -0.1109  1.3222
  173SLPC  C21619568   5.508   1.371   5.413 -0.2096  0.1547  0.2663
  173SLPC  H16R19569   5.600   1.365   5.351  0.1833  1.0335  0.7513
  173SLPC  H16S19570   5.434   1.415   5.342 -2.0444 -2.4313  0.4365
  173SLPC  C21719571   5.465   1.230   5.455  0.0689 -0.2882 -0.4573
  173SLPC  H17R19572   5.406   1.194   5.368 -0.1562  1.0594 -0.8741
  173SLPC  H17S19573   5.382   1.230   5.529  0.4515  0.0914 -0.0249
  173SLPC  C21819574   5.568   1.138   5.495 -0.5693  0.3236 -0.8895
  173SLPC  H18R19575   5.524   1.046   5.540 -0.9894  1.7082  1.6535
  173SLPC  H18S19576   5.644   1.186   5.561  0.7585  0.7680 -2.6412
  173SLPC  H18T19577   5.630   1.105   5.408  2.2684 -0.1585  1.1786
  173SLPC   C3319578   6.230   2.710   6.052 -0.5168  0.1914 -0.1766
  173SLPC   H3X19579   6.270   2.609   6.077  0.3926  1.0679  2.1509
  173SLPC   H3Y19580   6.303   2.793   6.051 -0.9108  0.5450 -0.1800
  173SLPC   C3419581   6.174   2.700   5.910 -0.2228  0.8908  0.2875
  173SLPC   H4X19582   6.127   2.794   5.872  1.7763  0.9344 -2.3786
  173SLPC   H4Y19583   6.090   2.626   5.909 -2.6052  3.2083  4.2071
  173SLPC   C3519584   6.270   2.661   5.799 -0.2193 -0.5192  0.0997
  173SLPC   H5X19585   6.323   2.572   5.839 -2.6109 -0.1818  4.6883
  173SLPC   H5Y19586   6.334   2.751   5.784 -0.5458 -0.3534 -0.3266
  173SLPC   C3619587   6.191   2.646   5.665  0.2024  1.0025 -0.6542
  173SLPC   H6X19588   6.141   2.743   5.646  0.4777  0.4484 -5.3865
  173SLPC   H6Y19589   6.116   2.564   5.673  0.8353  0.4768  0.1414
  173SLPC   C3719590   6.281   2.601   5.543 -0.0188 -0.9063  0.3629
  173SLPC   H7X19591   6.313   2.495   5.557 -1.2739 -1.1824  1.3624
  173SLPC   H7Y19592   6.369   2.667   5.560 -0.3862 -0.9828  3.0634
  173SLPC   C3819593   6.213   2.629   5.403 -0.0531  0.4586 -0.3938
  173SLPC   H8X19594   6.112   2.582   5.399 -0.4509  1.0976  1.2045
  173SLPC   H8Y19595   6.278   2.574   5.333 -0.4035  1.3807 -1.4757
  173SLPC   C3919596   6.218   2.776   5.362  0.7343  0.5508 -0.2239
  173SLPC   H9X19597   6.245   2.833   5.453 -0.1055  0.7139 -0.0703
  173SLPC   H9Y19598   6.123   2.812   5.317 -0.4830 -2.3182 -0.1694
  173SLPC  C31019599   6.319   2.814   5.260 -0.1706  0.2636  0.0630
  173SLPC  H10X19600   6.423   2.778   5.275 -0.4058 -0.9780 -1.0155
  173SLPC  H10Y19601   6.337   2.922   5.274  0.7734  0.1193  0.0243
  173SLPC  C31119602   6.276   2.792   5.108 -0.2679  0.2142 -0.5433
  173SLPC  H11X19603   6.165   2.800   5.105 -0.2526  0.1705 -2.0843
  173SLPC  H11Y19604   6.306   2.692   5.070 -0.1836 -0.2962  0.8364
  173SLPC  C31219605   6.335   2.906   5.021 -0.2107  0.5855  0.6796
  173SLPC  H12X19606   6.446   2.904   5.027 -0.1763 -1.1975  0.1710
  173SLPC  H12Y19607   6.300   3.008   5.045  2.2275  1.3643  1.2597
  173SLPC  C31319608   6.306   2.880   4.871 -0.8292  0.3306  0.6835
  173SLPC  H13X19609   6.323   2.977   4.818 -0.1636  0.2503  0.7451
  173SLPC  H13Y19610   6.198   2.857   4.859 -0.5262 -0.7243 -0.1816
  173SLPC  C31419611   6.364   2.755   4.799  0.4881 -1.2368 -0.7396
  173SLPC  H14X19612   6.299   2.747   4.710 -2.8155 -0.2363  1.3770
  173SLPC  H14Y19613   6.354   2.661   4.856 -0.5716 -0.0860  1.0809
  173SLPC  C31519614   6.503   2.772   4.737  0.0496  0.1322 -0.3953
  173SLPC  H15X19615   6.524   2.880   4.730  1.0161 -0.1188 -1.8141
  173SLPC  H15Y19616   6.513   2.722   4.638  1.7077 -2.5681  1.0202
  173SLPC  C31619617   6.614   2.708   4.811 -0.5764 -0.1664 -0.4021
  173SLPC  H16X19618   6.612   2.597   4.815 -0.5806 -0.1380  2.0649
  173SLPC  H16Y19619   6.615   2.744   4.916  1.3471  1.7051 -0.9896
  173SLPC  C31719620   6.746   2.757   4.739 -0.5041  0.4253  0.3211
  173SLPC  H17X19621   6.744   2.868   4.731  0.7567  0.5799  1.6635
  173SLPC  H17Y19622   6.749   2.720   4.634 -0.9065  1.9849 -0.2725
  173SLPC  C31819623   6.875   2.718   4.814 -0.8968  0.2612 -0.4653
  173SLPC  H18X19624   6.957   2.788   4.786 -0.1216 -0.5954 -0.3955
  173SLPC  H18Y19625   6.915   2.614   4.810 -1.1211 -0.0133  2.6160
  173SLPC  H18Z19626   6.861   2.726   4.923  0.2075 -1.7704 -0.1189
  174SLPC     N19627   0.447   2.777   7.422  0.0546  0.0905 -0.4523
  174SLPC   C1319628   0.388   2.901   7.383  0.2010 -0.0328  0.5749
  174SLPC  H13A19629   0.353   2.963   7.464  1.2037 -0.4421  1.3319
  174SLPC  H13B19630   0.449   2.964   7.319  0.1102 -0.0062  0.5147
  174SLPC  H13C19631   0.298   2.887   7.324 -0.2280  0.4450  1.1057
  174SLPC   C1419632   0.348   2.715   7.519  0.0219 -0.2720 -0.6995
  174SLPC  H14A19633   0.249   2.702   7.477 -0.4478 -1.8663  0.7786
  174SLPC  H14B19634   0.379   2.612   7.528  0.5349 -0.1946 -1.4804
  174SLPC  H14C19635   0.342   2.743   7.623 -0.6259 -1.2386 -0.4578
  174SLPC   C1519636   0.569   2.804   7.508 -0.7849  0.7613  1.0174
  174SLPC  H15A19637   0.634   2.849   7.434 -0.0842 -1.0153  0.4974
  174SLPC  H15B19638   0.548   2.877   7.584  0.6687  1.6921  0.5627
  174SLPC  H15C19639   0.616   2.714   7.545 -1.9404  0.2015  1.1496
  174SLPC   C1219640   0.478   2.674   7.318 -0.8322  0.1292 -0.1677
  174SLPC  H12A19641   0.388   2.634   7.273  0.4786 -1.0023 -1.9034
  174SLPC  H12B19642   0.520   2.587   7.366  0.8903  0.4843 -0.9462
  174SLPC   C1119643   0.573   2.701   7.200 -0.1223 -0.2962  0.3881
  174SLPC  H11A19644   0.529   2.779   7.134  1.9361  1.7433  1.2912
  174SLPC  H11B19645   0.583   2.615   7.130 -0.2409  0.2655 -0.3202
  174SLPC     P19646   0.831   2.689   7.269  0.2949 -0.0574 -0.2453
  174SLPC   O1319647   0.915   2.772   7.359  0.7932  0.2994  0.2567
  174SLPC   O1419648   0.807   2.545   7.305  0.0418  0.5420 -0.2849
  174SLPC   O1219649   0.696   2.759   7.243  0.4141 -0.3918  0.1245
  174SLPC   O1119650   0.911   2.690   7.136 -0.5609 -0.5947  0.1953
  174SLPC    C119651   0.886   2.802   7.041 -0.1385 -0.3235  0.2021
  174SLPC    HA19652   0.779   2.814   7.015 -0.4231 -1.7674  0.6388
  174SLPC    HB19653   0.917   2.893   7.098 -0.1724  0.8572 -1.6033
  174SLPC    C219654   0.970   2.785   6.912  0.2145 -0.4077  0.8696
  174SLPC    HS19655   0.978   2.883   6.860  0.8885  0.7843  3.0742
  174SLPC   O2119656   0.914   2.679   6.832 -0.2705  0.7354 -0.3553
  174SLPC   C2119657   0.808   2.707   6.769 -0.2293  0.1035  0.3393
  174SLPC   O2219658   0.763   2.822   6.760 -0.0340 -0.2837 -0.1053
  174SLPC   C2219659   0.752   2.579   6.704 -0.8008  0.0427 -0.6308
  174SLPC   H2R19660   0.725   2.525   6.797 -0.3073  2.2561  0.8774
  174SLPC   H2S19661   0.668   2.605   6.637 -0.7952  1.8766  0.0120
  174SLPC    C319662   1.113   2.746   6.947  0.0050 -0.0536 -0.2662
  174SLPC    HX19663   1.097   2.652   7.005 -0.5069 -0.3269 -0.8335
  174SLPC    HY19664   1.172   2.827   6.994  2.5002 -2.3507  0.8422
  174SLPC   O3119665   1.189   2.714   6.831  0.0264 -0.4318  0.3220
  174SLPC   C3119666   1.312   2.659   6.849 -0.6254  0.5423 -0.7178
  174SLPC   O3219667   1.364   2.626   6.958  0.5600  0.2474  0.3476
  174SLPC   C3219668   1.366   2.611   6.715 -0.0563  0.0353 -0.6920
  174SLPC   H2X19669   1.307   2.521   6.686 -0.3894  0.5846 -1.7808
  174SLPC   H2Y19670   1.468   2.568   6.724 -1.2841 -2.7419  1.3722
  174SLPC   C2319671   0.848   2.499   6.621 -0.2053  0.7313 -0.2530
  174SLPC   H3R19672   0.808   2.400   6.593 -0.1338  0.7144 -0.2948
  174SLPC   H3S19673   0.939   2.475   6.679  0.4404  2.9408 -0.2609
  174SLPC   C2419674   0.886   2.570   6.494  0.1522 -0.6280 -0.2156
  174SLPC   H4R19675   0.903   2.678   6.517 -4.2954 -0.0095  1.1257
  174SLPC   H4S19676   0.815   2.561   6.409  1.9303  0.0518 -1.8531
  174SLPC   C2519677   1.012   2.506   6.437  0.1267 -0.3917  0.3161
  174SLPC   H5R19678   1.000   2.399   6.408  0.3163 -0.0262 -1.1786
  174SLPC   H5S19679   1.094   2.509   6.512 -0.6583 -4.2650  1.5637
  174SLPC   C2619680   1.053   2.581   6.302  0.2437 -0.4492 -0.6361
  174SLPC   H6R19681   1.095   2.682   6.315 -2.6008  0.9424 -1.4048
  174SLPC   H6S19682   0.953   2.599   6.257  0.3936  1.4508 -0.2572
  174SLPC   C2719683   1.145   2.494   6.215  0.4836 -0.5490 -0.0582
  174SLPC   H7R19684   1.229   2.452   6.275 -1.0223 -2.3091  0.9094
  174SLPC   H7S19685   1.181   2.569   6.141 -0.5669  1.6510  1.5559
  174SLPC   C2819686   1.067   2.382   6.143  0.0321 -0.3541 -0.2846
  174SLPC   H8R19687   0.976   2.421   6.093 -0.6961 -0.5335  0.8901
  174SLPC   H8S19688   1.028   2.310   6.217 -1.2247 -0.4630 -1.0256
  174SLPC   C2919689   1.152   2.309   6.042  0.3059 -0.0847 -0.1546
  174SLPC   H9R19690   1.243   2.254   6.073 -0.6258 -1.4717  0.2553
  174SLPC  C21019691   1.130   2.317   5.911 -0.0766  0.3108  0.3313
  174SLPC  H10R19692   1.197   2.254   5.850 -0.1344 -0.3763  0.9549
  174SLPC  C21119693   1.011   2.367   5.831 -0.1600 -0.0359 -0.3040
  174SLPC  H11R19694   0.917   2.357   5.890  0.2769  0.4375  0.4885
  174SLPC  H11S19695   0.982   2.310   5.740  1.0140  1.0607 -1.4039
  174SLPC  C21219696   1.042   2.513   5.794  0.8930  0.0919 -0.3916
  174SLPC  H12R19697   1.030   2.578   5.883 -1.1033 -1.8656  0.8652
  174SLPC  C21319698   1.063   2.561   5.671 -0.2581 -0.7857 -0.7259
  174SLPC  H13R19699   1.080   2.670   5.664 -0.3720 -0.5478  1.8106
  174SLPC  C21419700   1.079   2.491   5.540  0.3041  0.0544 -0.5746
  174SLPC  H14R19701   1.091   2.386   5.572 -1.2697 -0.2302 -0.8283
  174SLPC  H14S19702   1.166   2.528   5.481  0.2411 -0.0453 -0.7300
  174SLPC  C21519703   0.947   2.508   5.452 -0.2922 -0.1178  0.1195
  174SLPC  H15R19704   0.911   2.612   5.467 -0.7551 -0.5479  2.5017
  174SLPC  H15S19705   0.864   2.444   5.491 -0.9893  0.3312 -0.6038
  174SLPC  C21619706   0.967   2.465   5.310  0.0653  0.5273  0.8827
  174SLPC  H16R19707   1.014   2.556   5.268  0.2079 -0.3063 -0.8874
  174SLPC  H16S19708   0.863   2.448   5.273  0.8566  0.3225 -1.3955
  174SLPC  C21719709   1.048   2.347   5.303  0.0341 -0.5384  0.3435
  174SLPC  H17R19710   1.012   2.275   5.380 -1.1987 -0.3795 -0.0600
  174SLPC  H17S19711   1.155   2.367   5.327  0.1935 -1.0004  0.0357
  174SLPC  C21819712   1.035   2.281   5.166  0.5496  0.3683 -0.3809
  174SLPC  H18R19713   1.080   2.180   5.154  0.3333  0.3646 -1.2352
  174SLPC  H18S19714   1.088   2.341   5.089  2.3500 -2.2938 -1.3572
  174SLPC  H18T19715   0.930   2.281   5.132 -0.6380  3.1428  2.7652
  174SLPC   C3319716   1.351   2.724   6.603  0.3360  0.5646  0.0866
  174SLPC   H3X19717   1.370   2.820   6.654 -0.3818  0.8416 -0.1471
  174SLPC   H3Y19718   1.242   2.732   6.583  0.2111 -2.1829 -0.7178
  174SLPC   C3419719   1.435   2.690   6.484  0.3770  0.0429  0.5565
  174SLPC   H4X19720   1.392   2.593   6.450 -1.0432  1.3341 -1.5269
  174SLPC   H4Y19721   1.540   2.673   6.514  0.5049  0.4406  0.3403
  174SLPC   C3519722   1.429   2.790   6.371 -0.2491  0.1031  0.3828
  174SLPC   H5X19723   1.500   2.871   6.396  0.0013  0.0862 -0.2471
  174SLPC   H5Y19724   1.322   2.815   6.354 -0.3241 -1.4317 -1.9947
  174SLPC   C3619725   1.461   2.712   6.240  0.1724 -0.2800 -0.5479
  174SLPC   H6X19726   1.392   2.625   6.242 -3.1696  2.1398  3.1640
  174SLPC   H6Y19727   1.565   2.679   6.262  0.2759 -0.4574 -1.2786
  174SLPC   C3719728   1.449   2.786   6.107 -0.0353  0.0298 -0.1672
  174SLPC   H7X19729   1.507   2.880   6.110 -0.7827  0.4730  1.6740
  174SLPC   H7Y19730   1.343   2.811   6.087 -0.4033 -0.3603  1.1716
  174SLPC   C3819731   1.481   2.701   5.988  0.5167 -0.0742 -0.4438
  174SLPC   H8X19732   1.409   2.617   6.001 -0.7683  1.3515  3.1688
  174SLPC   H8Y19733   1.587   2.672   5.996  0.7398 -0.0045 -2.7069
  174SLPC   C3919734   1.451   2.771   5.857 -0.0471  0.0163  0.2717
  174SLPC   H9X19735   1.539   2.838   5.838  1.2327 -1.7352 -0.1965
  174SLPC   H9Y19736   1.359   2.833   5.860  0.2631  0.5111 -0.2649
  174SLPC  C31019737   1.454   2.666   5.745 -0.1552  0.2481 -0.4870
  174SLPC  H10X19738   1.396   2.576   5.773  2.8642 -1.3062  1.3486
  174SLPC  H10Y19739   1.557   2.626   5.738  0.1227  0.5564  1.2462
  174SLPC  C31119740   1.396   2.717   5.615 -0.2336 -0.4996  0.2227
  174SLPC  H11X19741   1.307   2.774   5.652 -1.1082 -1.5475 -0.2289
  174SLPC  H11Y19742   1.360   2.643   5.541  1.2865 -1.1144  0.0664
  174SLPC  C31219743   1.480   2.826   5.546 -0.2705  0.0055 -0.0460
  174SLPC  H12X19744   1.585   2.792   5.559 -0.2530 -0.8053 -1.9153
  174SLPC  H12Y19745   1.472   2.928   5.587 -0.2429 -0.8838  2.2897
  174SLPC  C31319746   1.448   2.831   5.399  0.7630 -0.2011 -0.1808
  174SLPC  H13X19747   1.339   2.841   5.386  0.0205 -1.1687  3.9527
  174SLPC  H13Y19748   1.486   2.735   5.357  3.6040  0.2529  1.0730
  174SLPC  C31419749   1.515   2.941   5.317 -0.4671  0.4387  0.1145
  174SLPC  H14X19750   1.626   2.931   5.326 -0.2010  0.8571 -2.1734
  174SLPC  H14Y19751   1.482   3.037   5.361  0.3341  0.3477  0.9501
  174SLPC  C31519752   1.483   2.939   5.166  1.4871 -0.5962 -0.1593
  174SLPC  H15X19753   1.384   2.989   5.159  2.0419  0.4789 -0.5862
  174SLPC  H15Y19754   1.480   2.834   5.130  1.0908 -0.4738 -0.4853
  174SLPC  C31619755   1.574   3.016   5.077  0.2283  0.1657 -0.0370
  174SLPC  H16X19756   1.568   3.121   5.111 -0.6265 -0.3681  1.5604
  174SLPC  H16Y19757   1.535   3.023   4.973 -1.3198  3.0460  0.6518
  174SLPC  C31719758   1.718   2.959   5.073  0.3594 -0.2130  0.0345
  174SLPC  H17X19759   1.711   2.849   5.063 -1.0773  0.0214 -2.3625
  174SLPC  H17Y19760   1.753   2.972   5.178 -1.5736  0.9950  0.5776
  174SLPC  C31819761   1.805   3.021   4.963  0.2024  0.0926  0.1655
  174SLPC  H18X19762   1.753   3.032   4.865 -0.3914  1.4922  0.6192
  174SLPC  H18Y19763   1.890   2.951   4.948 -0.6616 -0.9977  0.1700
  174SLPC  H18Z19764   1.850   3.116   4.997 -0.3194  0.0469  1.0389
  175SLPC     N19765   2.249   5.277   7.465  0.1907 -0.1779 -0.4519
  175SLPC   C1319766   2.165   5.161   7.516  0.0455 -0.2924  0.4702
  175SLPC  H13A19767   2.067   5.197   7.544 -0.2354 -0.2651 -0.5332
  175SLPC  H13B19768   2.166   5.078   7.448  1.2908 -0.1160  0.2492
  175SLPC  H13C19769   2.214   5.121   7.604 -1.7038 -1.1918  1.0839
  175SLPC   C1419770   2.264   5.375   7.579 -0.5896 -0.5098  0.0167
  175SLPC  H14A19771   2.318   5.327   7.659  0.4177 -0.0514 -0.3675
  175SLPC  H14B19772   2.315   5.465   7.548  0.7609 -1.5375 -0.8496
  175SLPC  H14C19773   2.170   5.408   7.621 -0.8586 -1.4740  0.1960
  175SLPC   C1519774   2.174   5.348   7.352  0.3839 -0.3645 -0.2926
  175SLPC  H15A19775   2.160   5.274   7.274 -0.0974 -1.4246  0.7580
  175SLPC  H15B19776   2.082   5.395   7.385  0.2956 -0.3777 -0.5177
  175SLPC  H15C19777   2.232   5.429   7.310 -1.4541  0.3026 -1.6649
  175SLPC   C1219778   2.389   5.224   7.425 -0.7053 -0.7702 -0.5024
  175SLPC  H12A19779   2.382   5.148   7.349  2.6064 -0.7966 -0.9365
  175SLPC  H12B19780   2.436   5.176   7.510 -0.4615  1.6563  0.8495
  175SLPC   C1119781   2.483   5.319   7.357  0.1082  0.3181 -0.2975
  175SLPC  H11A19782   2.585   5.277   7.364 -0.8417 -1.9166  1.5524
  175SLPC  H11B19783   2.478   5.415   7.413 -3.4230 -0.5873  1.2107
  175SLPC     P19784   2.429   5.247   7.100 -0.0185 -0.0057 -0.0362
  175SLPC   O1319785   2.544   5.162   7.078 -0.3193  0.5501 -0.1484
  175SLPC   O1419786   2.301   5.171   7.121  0.7132 -0.0702 -0.6155
  175SLPC   O1219787   2.452   5.346   7.221 -0.2187 -0.3410  0.0689
  175SLPC   O1119788   2.417   5.357   6.980  0.4328 -0.3369  0.2546
  175SLPC    C119789   2.538   5.429   6.941 -0.4867  0.2563 -0.3710
  175SLPC    HA19790   2.534   5.537   6.918  0.4610  0.3908  0.0557
  175SLPC    HB19791   2.615   5.428   7.021  0.7093 -2.9528 -1.4067
  175SLPC    C219792   2.592   5.359   6.815  0.0131 -0.0442  0.8025
  175SLPC    HS19793   2.581   5.250   6.829 -0.6724  0.0771  1.2568
  175SLPC   O2119794   2.727   5.390   6.805  0.0165 -0.0984  0.0291
  175SLPC   C2119795   2.808   5.308   6.748  0.6009  0.3017  0.1918
  175SLPC   O2219796   2.774   5.204   6.695  0.2626  0.7807  0.2014
  175SLPC   C2219797   2.956   5.356   6.743 -0.7418 -0.2712  0.3843
  175SLPC   H2R19798   2.965   5.442   6.673 -0.6901 -2.2859 -2.2629
  175SLPC   H2S19799   2.982   5.372   6.849 -1.6698 -0.2284  0.6129
  175SLPC    C319800   2.517   5.398   6.678 -0.2215  0.5391  0.2532
  175SLPC    HX19801   2.522   5.509   6.667  0.6554  0.4647 -0.1588
  175SLPC    HY19802   2.407   5.389   6.692 -0.4560  3.8044  1.4485
  175SLPC   O3119803   2.574   5.341   6.558 -0.1445  0.3294  0.5776
  175SLPC   C3119804   2.518   5.226   6.514  1.0459 -0.3978 -0.8992
  175SLPC   O3219805   2.424   5.173   6.574 -0.1123  0.6145  0.6193
  175SLPC   C3219806   2.583   5.173   6.390  0.1584  0.2568  0.6646
  175SLPC   H2X19807   2.551   5.067   6.398  0.5165  0.2808  3.7338
  175SLPC   H2Y19808   2.692   5.191   6.407 -0.2166  1.0054  2.4544
  175SLPC   C2319809   3.047   5.240   6.703  0.1178  0.7637  0.5301
  175SLPC   H3R19810   3.006   5.147   6.746 -0.0889  1.2026  1.3012
  175SLPC   H3S19811   3.146   5.282   6.732  0.6218  1.9245 -2.4207
  175SLPC   C2419812   3.068   5.228   6.541  0.3165  0.0548 -0.2281
  175SLPC   H4R19813   3.134   5.314   6.517  0.3011 -0.0952 -0.8255
  175SLPC   H4S19814   2.971   5.242   6.488  0.3401  1.1687 -0.0119
  175SLPC   C2519815   3.127   5.092   6.505  0.1958 -0.2244 -0.0618
  175SLPC   H5R19816   3.193   5.046   6.582  1.7020  3.4928  1.0981
  175SLPC   H5S19817   3.198   5.119   6.423 -0.2473  2.7937  0.4375
  175SLPC   C2619818   3.021   4.988   6.467 -0.4894  0.0785  0.0165
  175SLPC   H6R19819   2.959   5.031   6.385 -1.9854 -1.8416  0.0569
  175SLPC   H6S19820   2.953   4.961   6.551 -1.6457  2.1367 -0.1676
  175SLPC   C2719821   3.093   4.862   6.408 -0.3999  0.4435 -1.0338
  175SLPC   H7R19822   3.051   4.776   6.463  0.3678 -0.2177 -1.4514
  175SLPC   H7S19823   3.201   4.875   6.430  0.2252 -3.2636 -1.3094
  175SLPC   C2819824   3.063   4.827   6.262 -0.7004 -0.0850  0.1094
  175SLPC   H8R19825   2.952   4.839   6.266 -0.5179  1.2378  2.2377
  175SLPC   H8S19826   3.102   4.726   6.238 -0.0367  0.4571 -1.2008
  175SLPC   C2919827   3.116   4.930   6.174  0.7382 -0.6566 -0.2139
  175SLPC   H9R19828   3.186   4.997   6.226  1.9999 -1.6199 -0.6347
  175SLPC  C21019829   3.114   4.929   6.036  0.8891  0.2265 -0.4233
  175SLPC  H10R19830   3.155   5.019   5.989  2.7346  0.0453  0.7234
  175SLPC  C21119831   3.045   4.828   5.949 -0.5358 -0.5801  0.2677
  175SLPC  H11R19832   2.951   4.884   5.928  1.2371  2.7010  0.4068
  175SLPC  H11S19833   3.012   4.735   6.000  3.4311 -2.1729  0.3059
  175SLPC  C21219834   3.099   4.806   5.808  0.1039  0.1640 -0.5347
  175SLPC  H12R19835   3.156   4.712   5.798 -2.1427 -1.3032 -0.4179
  175SLPC  C21319836   3.073   4.868   5.696  0.5154  0.3584  0.3125
  175SLPC  H13R19837   3.139   4.850   5.610  0.0184  0.9099 -0.2027
  175SLPC  C21419838   2.995   4.999   5.689 -0.2687 -0.3539 -0.0699
  175SLPC  H14R19839   3.071   5.079   5.686  0.4909 -1.0968 -1.6120
  175SLPC  H14S19840   2.926   5.011   5.775 -1.5155 -1.6198 -0.8418
  175SLPC  C21519841   2.902   5.027   5.569  0.2909 -0.3231  0.2703
  175SLPC  H15R19842   2.868   5.132   5.581  0.1562 -0.6293  3.0854
  175SLPC  H15S19843   2.814   4.960   5.576  0.5904 -0.7164  0.3059
  175SLPC  C21619844   2.974   5.012   5.436  0.5484  0.1410  0.2397
  175SLPC  H16R19845   3.020   4.912   5.421  0.3523 -0.1178  1.2405
  175SLPC  H16S19846   3.058   5.084   5.430 -0.3991  1.2156 -0.6287
  175SLPC  C21719847   2.881   5.041   5.314  0.4300 -0.4694  0.1156
  175SLPC  H17R19848   2.784   4.989   5.328  0.8546 -1.2153  0.3060
  175SLPC  H17S19849   2.930   4.995   5.225  0.7353  1.8864 -1.0342
  175SLPC  C21819850   2.861   5.189   5.284 -0.7873 -0.2891  0.3429
  175SLPC  H18R19851   2.797   5.203   5.194  0.7761  0.8887 -0.6506
  175SLPC  H18S19852   2.953   5.247   5.262 -1.0979 -0.0071 -0.2306
  175SLPC  H18T19853   2.816   5.236   5.374  0.1786  0.9325  0.2135
  175SLPC   C3319854   2.538   5.246   6.264 -0.2875  0.0822  0.3294
  175SLPC   H3X19855   2.569   5.352   6.281  0.5426 -0.1177  0.0964
  175SLPC   H3Y19856   2.427   5.255   6.257 -0.3378  2.2191  2.4828
  175SLPC   C3419857   2.604   5.194   6.132 -0.5427 -0.2427  0.6247
  175SLPC   H4X19858   2.590   5.084   6.129 -0.8749 -0.2897  2.6048
  175SLPC   H4Y19859   2.713   5.214   6.143 -0.7093 -0.1464  2.4173
  175SLPC   C3519860   2.552   5.273   6.015  0.3846  0.2264 -0.2852
  175SLPC   H5X19861   2.559   5.383   6.028 -2.0748  0.3894  0.1651
  175SLPC   H5Y19862   2.448   5.235   6.008  0.7930 -1.5376  1.9167
  175SLPC   C3619863   2.622   5.239   5.882  0.1470  0.3622 -0.0193
  175SLPC   H6X19864   2.630   5.130   5.863  0.3765  0.3899 -0.0946
  175SLPC   H6Y19865   2.726   5.276   5.895  0.1831  0.8229 -1.4390
  175SLPC   C3719866   2.573   5.311   5.760  0.2691 -0.8412  0.3354
  175SLPC   H7X19867   2.656   5.304   5.687  1.0928  0.4713  1.1067
  175SLPC   H7Y19868   2.579   5.420   5.780  3.4297 -0.5768 -1.4438
  175SLPC   C3819869   2.442   5.257   5.711  0.1823  0.2723  0.4475
  175SLPC   H8X19870   2.383   5.345   5.676  0.2673  1.0290  2.1059
  175SLPC   H8Y19871   2.388   5.196   5.787  0.5905  0.5491  0.9686
  175SLPC   C3919872   2.463   5.156   5.591  0.2506 -0.4803 -0.9308
  175SLPC   H9X19873   2.366   5.102   5.588  0.9073 -1.6886 -1.6449
  175SLPC   H9Y19874   2.549   5.088   5.609  1.7981  0.6966 -3.2750
  175SLPC  C31019875   2.479   5.226   5.460 -0.1596 -0.1922 -0.0904
  175SLPC  H10X19876   2.574   5.282   5.448  1.2691 -2.2548  0.9846
  175SLPC  H10Y19877   2.394   5.297   5.451  1.7846  2.4134  0.8540
  175SLPC  C31119878   2.470   5.121   5.340 -0.4860  0.0838 -0.3070
  175SLPC  H11X19879   2.393   5.052   5.381 -0.2815  0.1975  0.2765
  175SLPC  H11Y19880   2.566   5.067   5.324 -0.1804  0.6727 -0.5056
  175SLPC  C31219881   2.420   5.192   5.210 -0.0328 -0.1621  0.2474
  175SLPC  H12X19882   2.496   5.261   5.168 -0.8479  0.7290  0.1995
  175SLPC  H12Y19883   2.338   5.262   5.237 -0.6648 -0.9532  0.4180
  175SLPC  C31319884   2.360   5.097   5.096  0.7171 -0.1619 -0.1227
  175SLPC  H13X19885   2.338   5.158   5.006  1.4308 -1.3320 -1.1246
  175SLPC  H13Y19886   2.270   5.047   5.139  0.5294 -0.8879 -1.3053
  175SLPC  C31419887   2.471   4.993   5.056  0.4670  0.8977  0.4490
  175SLPC  H14X19888   2.415   4.904   5.019  2.9219 -0.9542  0.9301
  175SLPC  H14Y19889   2.527   4.955   5.144 -1.4670 -2.1768  0.5171
  175SLPC  C31519890   2.566   5.049   4.940  0.5593  0.0466 -0.4939
  175SLPC  H15X19891   2.594   5.154   4.964 -0.2518 -0.2092  1.8607
  175SLPC  H15Y19892   2.509   5.059   4.845  0.3987  2.2096 -0.2118
  175SLPC  C31619893   2.692   4.959   4.928 -0.1942 -0.0487 -0.4216
  175SLPC  H16X19894   2.666   4.851   4.918  0.1120 -0.2435  0.7358
  175SLPC  H16Y19895   2.754   4.963   5.020 -1.5828 -0.2676  0.5416
  175SLPC  C31719896   2.792   5.013   4.825  1.0814  0.1716  0.0071
  175SLPC  H17X19897   2.751   5.020   4.722  0.0904 -1.2131  0.2772
  175SLPC  H17Y19898   2.866   4.931   4.820 -0.7527 -1.7095  1.5725
  175SLPC  C31819899   2.860   5.145   4.844 -0.1363 -0.1597  0.0965
  175SLPC  H18X19900   2.793   5.234   4.846 -0.0051 -0.0651  1.4290
  175SLPC  H18Y19901   2.926   5.153   4.754 -2.5613 -1.8055 -1.9426
  175SLPC  H18Z19902   2.925   5.149   4.934 -2.2370 -1.5618  1.7587
  176SLPC     N19903   3.527   3.286   7.489  0.4189 -0.7502 -0.3088
  176SLPC   C1319904   3.567   3.184   7.592 -0.5723  0.0868  0.2125
  176SLPC  H13A19905   3.556   3.228   7.690  3.3262  3.3373 -0.5451
  176SLPC  H13B19906   3.514   3.090   7.598  0.6440 -0.7534 -1.3123
  176SLPC  H13C19907   3.670   3.150   7.587 -1.1974 -1.7249 -4.2491
  176SLPC   C1419908   3.629   3.400   7.498 -0.0214 -0.3246  0.8582
  176SLPC  H14A19909   3.625   3.448   7.595 -0.3847  1.6777 -0.1037
  176SLPC  H14B19910   3.726   3.358   7.476  0.7273  0.2573  2.8060
  176SLPC  H14C19911   3.601   3.482   7.434 -2.6197 -0.5620  1.5689
  176SLPC   C1519912   3.404   3.354   7.527 -0.2564 -0.0369 -0.6890
  176SLPC  H15A19913   3.383   3.434   7.457 -1.5852 -0.8465 -1.2519
  176SLPC  H15B19914   3.322   3.286   7.507  0.0288 -0.1280 -1.5778
  176SLPC  H15C19915   3.414   3.399   7.625 -0.2851  1.2567 -1.2569
  176SLPC   C1219916   3.528   3.233   7.350  0.2036  0.7002  1.4541
  176SLPC  H12A19917   3.448   3.160   7.346  0.4173  0.5236 -1.0179
  176SLPC  H12B19918   3.617   3.175   7.332  0.0441  0.4216  1.5537
  176SLPC   C1119919   3.503   3.330   7.227  0.5704 -0.2746 -0.4249
  176SLPC  H11A19920   3.497   3.267   7.136  1.3835 -0.3456 -0.4384
  176SLPC  H11B19921   3.594   3.394   7.222 -0.1600  1.1185  2.0321
  176SLPC     P19922   3.373   3.542   7.170  0.0573 -0.2318 -0.2133
  176SLPC   O1319923   3.268   3.619   7.241  0.9925  0.0354  0.6877
  176SLPC   O1419924   3.506   3.605   7.170  0.0887  0.1797 -0.6646
  176SLPC   O1219925   3.382   3.407   7.244 -0.0709  0.1492 -0.2349
  176SLPC   O1119926   3.325   3.507   7.021 -0.0175 -0.3239  0.1013
  176SLPC    C119927   3.247   3.393   6.983  0.0821 -0.5246  0.1762
  176SLPC    HA19928   3.271   3.302   7.043 -3.1844 -1.7376 -0.1726
  176SLPC    HB19929   3.137   3.403   6.987  0.0468 -0.9550  0.3405
  176SLPC    C219930   3.285   3.353   6.840 -0.1654 -0.1920 -0.3958
  176SLPC    HS19931   3.395   3.345   6.826 -0.0629  0.0021  0.2585
  176SLPC   O2119932   3.218   3.439   6.746 -0.3063 -0.0675 -0.4008
  176SLPC   C2119933   3.284   3.479   6.632  0.0213 -1.4297 -0.3650
  176SLPC   O2219934   3.404   3.480   6.619 -0.3273  0.3742  0.2451
  176SLPC   C2219935   3.178   3.521   6.532 -0.7720 -0.6955  0.1251
  176SLPC   H2R19936   3.081   3.542   6.582  0.1587 -1.0092  2.1957
  176SLPC   H2S19937   3.221   3.619   6.500  0.8615 -2.0189 -1.9506
  176SLPC    C319938   3.233   3.211   6.797  0.3485 -0.1944  0.0191
  176SLPC    HX19939   3.123   3.212   6.815  0.6398  0.0968  2.0081
  176SLPC    HY19940   3.280   3.149   6.876 -1.2491  0.1270  1.2674
  176SLPC   O3119941   3.266   3.169   6.664  0.1350 -0.1708  0.6007
  176SLPC   C3119942   3.230   3.046   6.642 -0.4303  0.7143 -0.4474
  176SLPC   O3219943   3.198   2.959   6.722 -0.7687 -0.3607  0.5314
  176SLPC   C3219944   3.236   3.034   6.492 -0.3247 -0.1201  0.0959
  176SLPC   H2X19945   3.331   3.080   6.458 -0.1609 -0.0661  0.6089
  176SLPC   H2Y19946   3.144   3.078   6.450 -0.2246  1.4897  1.4510
  176SLPC   C2319947   3.167   3.428   6.405  0.0106 -1.3810 -0.3631
  176SLPC   H3R19948   3.105   3.347   6.448 -1.5348  1.1264  2.4786
  176SLPC   H3S19949   3.265   3.397   6.361  0.9511  1.3884 -0.3762
  176SLPC   C2419950   3.078   3.499   6.295 -0.4563  0.1960 -0.5512
  176SLPC   H4R19951   3.134   3.589   6.263  1.8845 -0.2715  1.9325
  176SLPC   H4S19952   2.984   3.538   6.341 -0.6064 -0.4206 -0.3194
  176SLPC   C2519953   3.059   3.411   6.175 -0.0962 -0.1655  1.0815
  176SLPC   H5R19954   3.026   3.318   6.226 -0.6442 -0.6580 -0.1256
  176SLPC   H5S19955   3.154   3.372   6.132 -0.5760  1.1029 -1.2811
  176SLPC   C2619956   2.974   3.477   6.067  0.0981 -0.3507 -0.6562
  176SLPC   H6R19957   2.872   3.491   6.110  0.9713  2.8549  0.6767
  176SLPC   H6S19958   2.960   3.421   5.973  0.3645 -2.1493  0.3276
  176SLPC   C2719959   3.011   3.619   6.036  0.4518 -0.0501 -0.0467
  176SLPC   H7R19960   3.014   3.680   6.129  2.8301  1.7069 -1.1520
  176SLPC   H7S19961   2.922   3.655   5.980 -0.6908 -2.1867  0.3146
  176SLPC   C2819962   3.146   3.642   5.970 -0.3292 -0.3592  0.3591
  176SLPC   H8R19963   3.230   3.589   6.019 -0.4572  1.2989  2.5506
  176SLPC   H8S19964   3.181   3.747   5.982 -1.4063 -0.2205  3.0873
  176SLPC   C2919965   3.147   3.605   5.820  0.2344 -0.1102  0.0175
  176SLPC   H9R19966   3.169   3.498   5.805 -0.2670  0.0135 -1.8843
  176SLPC  C21019967   3.113   3.678   5.704 -0.2513 -0.5286 -0.6645
  176SLPC  H10R19968   3.133   3.630   5.607  0.8086  0.9659 -1.2121
  176SLPC  C21119969   3.091   3.826   5.705 -0.0419 -0.0600 -0.6646
  176SLPC  H11R19970   3.155   3.881   5.634  0.2051  1.3492  0.5894
  176SLPC  H11S19971   3.100   3.869   5.807  0.2930 -0.2888 -0.5965
  176SLPC  C21219972   2.946   3.844   5.671 -0.3235  0.8294 -0.0334
  176SLPC  H12R19973   2.877   3.822   5.754 -1.1740  2.0767 -0.3826
  176SLPC  C21319974   2.892   3.884   5.555 -0.2225  0.6121  0.5301
  176SLPC  H13R19975   2.784   3.904   5.560 -0.4265 -0.2535 -0.0923
  176SLPC  C21419976   2.966   3.923   5.426 -0.2328 -0.2308  0.0667
  176SLPC  H14R19977   3.077   3.915   5.429  0.0915  3.0030  0.9307
  176SLPC  H14S19978   2.947   4.032   5.410 -0.5887 -0.4042 -0.7355
  176SLPC  C21519979   2.916   3.837   5.304 -1.2661 -0.6279 -0.0036
  176SLPC  H15R19980   2.946   3.734   5.334  0.7267 -0.3966 -1.0402
  176SLPC  H15S19981   2.968   3.864   5.209 -1.7045  0.5900  0.0814
  176SLPC  C21619982   2.773   3.822   5.261  0.2659  0.3409  0.0106
  176SLPC  H16R19983   2.723   3.778   5.350 -1.6360 -1.2881 -1.7798
  176SLPC  H16S19984   2.757   3.757   5.173  0.8614 -0.4524  0.4738
  176SLPC  C21719985   2.701   3.953   5.219  0.2900  0.8242 -0.4454
  176SLPC  H17R19986   2.718   4.028   5.299  0.6054  0.7978 -0.4876
  176SLPC  H17S19987   2.593   3.941   5.194 -0.2876 -2.1941  2.7503
  176SLPC  C21819988   2.762   4.003   5.088 -0.1955 -1.1754 -0.8633
  176SLPC  H18R19989   2.865   3.975   5.059  0.5105 -0.0138  0.3824
  176SLPC  H18S19990   2.746   4.113   5.088 -0.6835 -1.0765  3.3463
  176SLPC  H18T19991   2.701   3.963   5.005  1.6675 -2.1747 -1.8038
  176SLPC   C3319992   3.248   2.886   6.434  0.1027  0.2838 -0.0126
  176SLPC   H3X19993   3.155   2.830   6.458  0.7987 -0.5462  0.8329
  176SLPC   H3Y19994   3.327   2.844   6.501 -0.8687 -0.7008  0.5588
  176SLPC   C3419995   3.301   2.878   6.287  0.4154 -0.0078  0.4990
  176SLPC   H4X19996   3.352   2.974   6.265  1.1012 -0.0275  1.8767
  176SLPC   H4Y19997   3.215   2.882   6.217  0.6112 -0.1003  0.2534
  176SLPC   C3519998   3.401   2.771   6.260  0.1821  0.2943 -0.0976
  176SLPC   H5X19999   3.351   2.672   6.261 -1.1406  0.9284 -0.2650
  176SLPC   H5Y20000   3.475   2.765   6.342  1.4016  0.8238 -1.1205
  176SLPC   C3620001   3.481   2.790   6.130  0.1730 -0.0300 -0.3093
  176SLPC   H6X20002   3.522   2.893   6.124 -1.4803  0.6218 -1.0696
  176SLPC   H6Y20003   3.413   2.784   6.042 -0.2883  0.3605  0.0137
  176SLPC   C3720004   3.601   2.686   6.119  0.0959  0.1493 -0.1881
  176SLPC   H7X20005   3.551   2.587   6.122  1.0926 -0.3609  2.0743
  176SLPC   H7Y20006   3.656   2.686   6.216  2.9537 -4.8272 -1.4930
  176SLPC   C3820007   3.693   2.727   6.004 -0.1252  0.6394  0.2569
  176SLPC   H8X20008   3.780   2.658   6.008  0.1623  1.0366  2.5929
  176SLPC   H8Y20009   3.725   2.832   6.021 -1.8726  0.9774  1.7292
  176SLPC   C3920010   3.622   2.697   5.867 -0.5039  0.0063  0.0843
  176SLPC   H9X20011   3.534   2.764   5.855 -3.6264 -3.4947  1.3188
  176SLPC   H9Y20012   3.576   2.596   5.861 -2.2945  0.7869 -0.1949
  176SLPC  C31020013   3.706   2.714   5.740  0.1370 -0.2723 -0.2164
  176SLPC  H10X20014   3.810   2.679   5.761  1.2305  0.6667 -3.5390
  176SLPC  H10Y20015   3.722   2.822   5.720 -0.1397  0.0568  1.1822
  176SLPC  C31120016   3.642   2.655   5.624 -0.3649 -0.3688  0.7511
  176SLPC  H11X20017   3.555   2.719   5.598  1.7941  2.2760 -0.3644
  176SLPC  H11Y20018   3.610   2.549   5.638  3.5249 -1.4675  2.9423
  176SLPC  C31220019   3.728   2.654   5.499 -0.5103  0.5289  0.4624
  176SLPC  H12X20020   3.805   2.580   5.530 -0.0229  1.9031  2.7612
  176SLPC  H12Y20021   3.775   2.753   5.486 -1.2857  0.8983  0.4033
  176SLPC  C31320022   3.674   2.612   5.361 -0.1777  1.4272  0.1406
  176SLPC  H13X20023   3.589   2.674   5.327  0.2772  2.2603  0.4959
  176SLPC  H13Y20024   3.637   2.507   5.368 -0.8669  1.5959 -0.8796
  176SLPC  C31420025   3.777   2.606   5.244  0.0749  0.2681 -0.8485
  176SLPC  H14X20026   3.728   2.561   5.155 -0.3248 -0.8404 -0.0884
  176SLPC  H14Y20027   3.861   2.536   5.268 -0.6621 -0.1333  0.6985
  176SLPC  C31520028   3.829   2.741   5.209 -0.1300 -0.0918  0.1249
  176SLPC  H15X20029   3.879   2.789   5.296 -1.8678 -1.7113  2.1313
  176SLPC  H15Y20030   3.741   2.805   5.185 -1.1549  0.0908  3.6919
  176SLPC  C31620031   3.919   2.734   5.086 -0.2512  0.5484 -0.3812
  176SLPC  H16X20032   3.968   2.635   5.089 -0.3476  0.5173  0.2491
  176SLPC  H16Y20033   4.000   2.810   5.093  0.3381 -0.0869 -0.2358
  176SLPC  C31720034   3.839   2.729   4.958  0.1866 -0.1424 -0.6277
  176SLPC  H17X20035   3.778   2.822   4.955 -0.7300 -0.6878  0.3070
  176SLPC  H17Y20036   3.770   2.642   4.959  0.3878 -0.3047  0.7021
  176SLPC  C31820037   3.928   2.731   4.834 -0.0818  0.4398 -1.0740
  176SLPC  H18X20038   3.914   2.831   4.788  1.5552  2.0578  1.6868
  176SLPC  H18Y20039   3.887   2.651   4.768  1.4329 -0.3695 -1.1058
  176SLPC  H18Z20040   4.035   2.713   4.859 -0.2857 -2.3061 -1.8039
  177SLPC     N20041   5.459   4.885   7.357  0.1677  0.8495  0.8901
  177SLPC   C1320042   5.401   4.966   7.469 -0.2124 -0.1928 -0.2282
  177SLPC  H13A20043   5.313   4.922   7.513  0.7544  0.8657  3.0848
  177SLPC  H13B20044   5.475   4.974   7.547  1.8611 -3.3057 -1.6593
  177SLPC  H13C20045   5.378   5.065   7.432  0.5892 -0.1687 -0.6823
  177SLPC   C1420046   5.475   4.745   7.418 -0.6124 -0.5362 -0.2496
  177SLPC  H14A20047   5.501   4.679   7.336 -0.0388 -1.5759  0.7438
  177SLPC  H14B20048   5.556   4.743   7.490  1.8060 -1.1356 -2.7806
  177SLPC  H14C20049   5.381   4.707   7.455 -1.8957  2.5316 -0.0517
  177SLPC   C1520050   5.585   4.941   7.326 -0.6942 -0.3019 -0.3043
  177SLPC  H15A20051   5.642   4.968   7.413  1.2652  2.1151 -2.1831
  177SLPC  H15B20052   5.646   4.875   7.266 -1.1266 -0.7235 -0.2856
  177SLPC  H15C20053   5.575   5.037   7.278 -0.3327 -0.9329 -1.7064
  177SLPC   C1220054   5.363   4.884   7.232  0.4369 -0.2959 -0.0916
  177SLPC  H12A20055   5.368   4.987   7.200  1.3471  0.1667  1.3864
  177SLPC  H12B20056   5.259   4.868   7.256 -0.2953  1.3395 -1.9237
  177SLPC   C1120057   5.391   4.775   7.127  0.4863  0.1348  0.4400
  177SLPC  H11A20058   5.500   4.762   7.142  0.7537  1.5729 -0.1063
  177SLPC  H11B20059   5.375   4.805   7.021 -2.2403 -0.3173  0.6495
  177SLPC     P20060   5.155   4.648   7.145 -0.3535 -0.2921 -0.0780
  177SLPC   O1320061   5.108   4.553   7.249  0.4349  0.1727 -0.2880
  177SLPC   O1420062   5.100   4.787   7.154  0.0785 -0.6130  0.6977
  177SLPC   O1220063   5.314   4.659   7.158 -0.3014  0.0712 -0.1294
  177SLPC   O1120064   5.130   4.589   7.002  0.0588 -0.0716 -0.3724
  177SLPC    C120065   5.229   4.503   6.941  0.0430 -0.2430 -0.0882
  177SLPC    HA20066   5.326   4.550   6.914  0.5519 -2.0593 -1.6091
  177SLPC    HB20067   5.269   4.424   7.009  0.5848 -0.8448 -1.0908
  177SLPC    C220068   5.167   4.433   6.812  1.0509 -0.4828  0.0522
  177SLPC    HS20069   5.241   4.375   6.752  1.4171  1.2529 -1.2542
  177SLPC   O2120070   5.101   4.522   6.718  0.6961  0.5338  0.0865
  177SLPC   C2120071   5.173   4.605   6.657 -0.3131 -0.4451  0.2418
  177SLPC   O2220072   5.297   4.610   6.662 -0.7496  0.2219  0.3563
  177SLPC   C2220073   5.085   4.695   6.568  0.1396  0.0373  0.0750
  177SLPC   H2R20074   4.977   4.700   6.590  0.3069  2.5297  0.5996
  177SLPC   H2S20075   5.124   4.799   6.569 -0.2739  0.2480 -1.6901
  177SLPC    C320076   5.060   4.335   6.859 -0.5532  0.7215  0.8457
  177SLPC    HX20077   4.991   4.386   6.928 -1.4638  1.0368 -0.2650
  177SLPC    HY20078   5.106   4.251   6.916 -0.0239  1.7063  1.8902
  177SLPC   O3120079   4.996   4.278   6.741  0.4313  0.2143 -0.0470
  177SLPC   C3120080   4.879   4.324   6.705  0.1534  0.1592  0.5520
  177SLPC   O3220081   4.809   4.402   6.761 -0.0060 -0.7333  0.1304
  177SLPC   C3220082   4.850   4.260   6.567  0.4702 -1.2608 -1.1556
  177SLPC   H2X20083   4.821   4.154   6.580 -2.8300 -0.3955 -0.5446
  177SLPC   H2Y20084   4.947   4.255   6.512  1.2263 -1.8556  0.1693
  177SLPC   C2320085   5.105   4.653   6.418 -0.0847  0.6515 -0.1711
  177SLPC   H3R20086   5.028   4.704   6.355  0.2980 -0.8589 -1.9354
  177SLPC   H3S20087   5.096   4.543   6.410  0.9928  0.4094  1.4223
  177SLPC   C2420088   5.237   4.698   6.355 -0.1915 -0.4506 -0.8341
  177SLPC   H4R20089   5.326   4.676   6.418  0.9559  0.9192 -1.9288
  177SLPC   H4S20090   5.235   4.809   6.353 -2.7591 -0.3660  1.4421
  177SLPC   C2520091   5.271   4.643   6.220 -0.4282 -0.0086 -0.2291
  177SLPC   H5R20092   5.200   4.691   6.149  0.7077  1.0689 -0.6623
  177SLPC   H5S20093   5.253   4.534   6.231  3.4250 -0.6192  1.4494
  177SLPC   C2620094   5.420   4.667   6.168 -0.2918 -0.7611  0.1441
  177SLPC   H6R20095   5.497   4.630   6.239  0.2861 -2.3939 -1.2632
  177SLPC   H6S20096   5.426   4.774   6.140  0.6889 -0.9125 -0.2789
  177SLPC   C2720097   5.449   4.588   6.038  0.1517  0.1763  1.0348
  177SLPC   H7R20098   5.453   4.480   6.062  0.2381 -0.0061  0.2088
  177SLPC   H7S20099   5.547   4.616   5.995 -0.6252 -0.1813 -1.0658
  177SLPC   C2820100   5.336   4.614   5.932 -0.4037 -0.1245 -0.3923
  177SLPC   H8R20101   5.325   4.724   5.933  1.2457  0.0638  1.3722
  177SLPC   H8S20102   5.247   4.564   5.975  1.1462 -1.0145  1.9604
  177SLPC   C2920103   5.373   4.577   5.789  0.1265 -0.3615 -0.0873
  177SLPC   H9R20104   5.439   4.488   5.783  1.3257  0.5404 -0.8107
  177SLPC  C21020105   5.347   4.657   5.685 -0.4535 -0.3341 -0.1667
  177SLPC  H10R20106   5.373   4.624   5.583 -0.4430  0.1903 -0.3355
  177SLPC  C21120107   5.282   4.794   5.686  0.1932  0.4999 -0.1127
  177SLPC  H11R20108   5.215   4.810   5.773  1.8311 -1.6727  1.6439
  177SLPC  H11S20109   5.211   4.783   5.601  1.4003 -0.1435 -1.0653
  177SLPC  C21220110   5.380   4.914   5.661  0.1386  0.2602  0.1610
  177SLPC  H12R20111   5.414   4.972   5.747 -0.0891  0.4324  0.1367
  177SLPC  C21320112   5.437   4.939   5.541  1.4451 -0.1597  1.1724
  177SLPC  H13R20113   5.498   5.029   5.525  0.6565  0.1692 -0.0338
  177SLPC  C21420114   5.411   4.868   5.407 -0.2859 -0.2712 -0.3074
  177SLPC  H14R20115   5.356   4.942   5.346 -0.3193 -0.6613 -0.7495
  177SLPC  H14S20116   5.344   4.780   5.413 -0.5859 -0.0963 -1.0966
  177SLPC  C21520117   5.546   4.841   5.344  0.0497  0.6456  0.1020
  177SLPC  H15R20118   5.596   4.771   5.414 -0.6769 -0.5019 -0.5054
  177SLPC  H15S20119   5.618   4.924   5.323  0.4166  0.2339 -0.2959
  177SLPC  C21620120   5.542   4.775   5.202  0.5724  0.6040 -0.3133
  177SLPC  H16R20121   5.488   4.680   5.217 -0.3266  1.2919  1.0523
  177SLPC  H16S20122   5.643   4.756   5.160  0.1947 -0.7777 -0.6218
  177SLPC  C21720123   5.469   4.863   5.098  0.7393  0.4091  0.1683
  177SLPC  H17R20124   5.374   4.885   5.150  0.1633 -0.9285 -0.2711
  177SLPC  H17S20125   5.451   4.793   5.013  2.1414 -1.5347  1.3956
  177SLPC  C21820126   5.535   4.991   5.051 -0.4583  0.1695 -0.4280
  177SLPC  H18R20127   5.493   5.038   4.960 -2.8148 -0.9709  0.0048
  177SLPC  H18S20128   5.645   4.975   5.050 -0.4603  0.1686 -0.7492
  177SLPC  H18T20129   5.517   5.060   5.136 -1.8988 -1.0846  0.3237
  177SLPC   C3320130   4.737   4.330   6.496  0.6808  0.1230  0.1987
  177SLPC   H3X20131   4.718   4.437   6.520 -0.8457  0.2952 -1.5098
  177SLPC   H3Y20132   4.637   4.292   6.527  0.0712  0.6112 -1.0879
  177SLPC   C3420133   4.737   4.309   6.342 -0.0320 -0.1624  0.1540
  177SLPC   H4X20134   4.639   4.356   6.316  0.1502  1.0100  1.4735
  177SLPC   H4Y20135   4.747   4.202   6.314 -0.5605 -0.0268 -0.5842
  177SLPC   C3520136   4.859   4.384   6.278 -0.3497 -0.1196 -0.1878
  177SLPC   H5X20137   4.954   4.344   6.318 -0.5276  1.7803  2.4032
  177SLPC   H5Y20138   4.840   4.487   6.313  0.2092  0.1257 -0.5895
  177SLPC   C3620139   4.857   4.382   6.123  0.8744 -0.5722  0.5703
  177SLPC   H6X20140   4.763   4.426   6.084  1.4374  0.3578  0.2446
  177SLPC   H6Y20141   4.849   4.277   6.087  0.2261  0.0187 -1.1089
  177SLPC   C3720142   4.975   4.449   6.053 -0.1816 -0.7939 -0.1577
  177SLPC   H7X20143   5.058   4.376   6.042  0.7187  0.2919 -0.8195
  177SLPC   H7Y20144   5.011   4.523   6.128 -0.6294 -1.0124  0.2790
  177SLPC   C3820145   4.942   4.512   5.921 -0.0166 -0.2595 -0.2708
  177SLPC   H8X20146   5.034   4.548   5.870 -0.3579  0.0945 -0.6440
  177SLPC   H8Y20147   4.870   4.595   5.938 -0.9697 -0.8395 -1.2884
  177SLPC   C3920148   4.881   4.412   5.815 -0.1269 -0.4749 -0.3026
  177SLPC   H9X20149   4.825   4.321   5.848 -0.2679 -0.9354 -1.7270
  177SLPC   H9Y20150   4.974   4.364   5.778 -0.2511 -1.1997  0.2967
  177SLPC  C31020151   4.795   4.475   5.698  0.6753 -0.2516 -0.0549
  177SLPC  H10X20152   4.709   4.535   5.735  0.5457 -0.1482 -0.5176
  177SLPC  H10Y20153   4.761   4.392   5.632 -3.0770  0.1318  1.1952
  177SLPC  C31120154   4.872   4.571   5.611 -0.3955 -0.5618  0.0312
  177SLPC  H11X20155   4.920   4.652   5.669  0.9513 -0.1706 -1.5367
  177SLPC  H11Y20156   4.805   4.607   5.530 -0.0650 -1.1296 -0.5066
  177SLPC  C31220157   4.984   4.501   5.541  0.0076  0.6101  0.1830
  177SLPC  H12X20158   4.966   4.394   5.515  2.3194 -0.0103  0.8880
  177SLPC  H12Y20159   5.075   4.506   5.604  0.0676 -0.3607  0.1934
  177SLPC  C31320160   5.016   4.568   5.404  0.1797 -0.4292 -0.9597
  177SLPC  H13X20161   5.032   4.675   5.426  1.1853 -0.3060 -2.1946
  177SLPC  H13Y20162   4.931   4.557   5.332 -0.0094 -0.1619 -0.7801
  177SLPC  C31420163   5.148   4.510   5.353 -0.1158 -0.5809  0.0392
  177SLPC  H14X20164   5.139   4.400   5.344  3.0040 -1.1775  2.5232
  177SLPC  H14Y20165   5.229   4.520   5.429 -0.1198  0.1053 -0.0378
  177SLPC  C31520166   5.208   4.553   5.217 -0.4568  0.5783 -0.9808
  177SLPC  H15X20167   5.303   4.498   5.210  0.5128  2.1203 -0.4797
  177SLPC  H15Y20168   5.224   4.662   5.231 -0.4321  0.7317 -2.1040
  177SLPC  C31620169   5.121   4.526   5.091  0.1298 -0.3314  0.5732
  177SLPC  H16X20170   5.027   4.581   5.113  0.4896 -0.5752  2.9491
  177SLPC  H16Y20171   5.104   4.417   5.080  1.6637 -0.5626  0.2273
  177SLPC  C31720172   5.186   4.594   4.968 -0.0825  0.1800  0.0037
  177SLPC  H17X20173   5.286   4.549   4.955  0.1865 -0.8899  4.2665
  177SLPC  H17Y20174   5.187   4.703   4.987 -3.8229  0.1428  1.3581
  177SLPC  C31820175   5.112   4.572   4.838  0.4449  0.6478 -0.1293
  177SLPC  H18X20176   5.006   4.604   4.848 -1.0174 -4.0215  2.5510
  177SLPC  H18Y20177   5.106   4.463   4.818 -3.4746  0.0154  3.1365
  177SLPC  H18Z20178   5.154   4.636   4.758  0.6404  0.3676 -0.2538
  178SLPC     N20179   3.340   1.926   7.597  0.2893 -0.6876 -0.6157
  178SLPC   C1320180   3.379   1.788   7.631  0.3447 -0.5652 -0.1135
  178SLPC  H13A20181   3.310   1.745   7.703  1.8522 -1.1539  1.0364
  178SLPC  H13B20182   3.379   1.725   7.543  2.3649  0.0503 -0.6020
  178SLPC  H13C20183   3.481   1.783   7.666  0.9800 -5.2564 -1.8468
  178SLPC   C1420184   3.463   1.999   7.562  0.0320 -0.2987 -0.2850
  178SLPC  H14A20185   3.517   1.958   7.478  0.9923  2.5452 -1.1664
  178SLPC  H14B20186   3.426   2.097   7.537 -2.3744 -0.3468  2.5210
  178SLPC  H14C20187   3.532   2.004   7.645 -2.0605 -1.2208  1.5960
  178SLPC   C1520188   3.281   1.988   7.726 -0.2666  0.4093  0.4689
  178SLPC  H15A20189   3.245   2.089   7.707 -0.3986  0.3435  0.3670
  178SLPC  H15B20190   3.195   1.937   7.765  0.0256  0.8521  1.7398
  178SLPC  H15C20191   3.358   1.984   7.801  1.7140 -1.6221 -1.4937
  178SLPC   C1220192   3.244   1.911   7.473 -0.1340 -0.3451 -0.5361
  178SLPC  H12A20193   3.302   1.879   7.388 -0.4267  0.7512 -1.1698
  178SLPC  H12B20194   3.203   2.010   7.455  1.9050  0.5731 -0.3909
  178SLPC   C1120195   3.123   1.816   7.492  0.4024 -0.2379  0.2544
  178SLPC  H11A20196   3.039   1.844   7.425 -0.7913  0.4966  1.9831
  178SLPC  H11B20197   3.071   1.835   7.588 -0.2530 -0.8074  0.0151
  178SLPC     P20198   3.076   1.556   7.480  0.1607  0.0733  0.4543
  178SLPC   O1320199   3.156   1.436   7.510  0.2550 -0.3466  0.5092
  178SLPC   O1420200   2.963   1.570   7.572  0.2934  0.2122  0.7414
  178SLPC   O1220201   3.165   1.682   7.464  0.1051 -0.1077  0.1056
  178SLPC   O1120202   3.007   1.542   7.336  0.0191  0.3178 -0.3297
  178SLPC    C120203   3.099   1.524   7.225  0.4216 -0.0216 -0.3191
  178SLPC    HA20204   3.184   1.596   7.223 -0.4191  0.9854 -0.8521
  178SLPC    HB20205   3.144   1.423   7.227  0.9061  0.1834 -0.6378
  178SLPC    C220206   3.032   1.547   7.081  0.1758  0.0740 -0.4361
  178SLPC    HS20207   3.104   1.518   7.001  3.2570 -1.1630  2.5407
  178SLPC   O2120208   3.000   1.687   7.075 -0.1351 -0.0206 -0.5174
  178SLPC   C2120209   3.078   1.756   6.993  0.0379 -0.6844  0.6918
  178SLPC   O2220210   3.167   1.715   6.919  0.3860  0.4170 -0.4469
  178SLPC   C2220211   3.039   1.907   7.017 -0.4722  0.8456  0.0373
  178SLPC   H2R20212   2.992   1.908   7.118 -0.3394 -1.5267  0.1831
  178SLPC   H2S20213   3.140   1.954   7.024 -0.0022  0.3890 -2.6820
  178SLPC    C320214   2.898   1.463   7.068 -0.1638  0.6681 -1.1079
  178SLPC    HX20215   2.839   1.459   7.162  1.2848  0.4682 -0.1736
  178SLPC    HY20216   2.934   1.359   7.053  1.5896  0.7894  1.4847
  178SLPC   O3120217   2.820   1.503   6.959 -0.2280  0.0486  0.7836
  178SLPC   C3120218   2.714   1.572   6.982  0.1429  0.7375  0.0377
  178SLPC   O3220219   2.678   1.628   7.083 -0.4930  0.7140  0.3687
  178SLPC   C3220220   2.628   1.563   6.858 -0.6172 -0.4312  0.6636
  178SLPC   H2X20221   2.528   1.609   6.874 -0.9626 -0.9465  0.0420
  178SLPC   H2Y20222   2.614   1.453   6.846  2.6561 -1.0939  1.8456
  178SLPC   C2320223   2.962   1.972   6.901 -0.5403  0.4810 -0.8029
  178SLPC   H3R20224   2.904   2.063   6.925 -1.9757 -0.7294  0.5520
  178SLPC   H3S20225   2.892   1.897   6.860 -1.0467 -0.7828  2.0812
  178SLPC   C2420226   3.064   2.013   6.793  0.2050  0.6824  0.5917
  178SLPC   H4R20227   3.148   1.943   6.776 -1.7752 -1.7781  0.2797
  178SLPC   H4S20228   3.113   2.108   6.825  0.4690  1.0651 -0.8714
  178SLPC   C2520229   2.988   2.029   6.666  0.0399 -0.1610  0.7810
  178SLPC   H5R20230   2.911   2.105   6.692  1.1602  1.6551 -0.8702
  178SLPC   H5S20231   2.934   1.938   6.634  0.8363 -0.7706  1.1354
  178SLPC   C2620232   3.072   2.096   6.561 -0.2901 -0.4599 -0.2351
  178SLPC   H6R20233   3.152   2.153   6.612 -1.4839  1.6996 -0.6663
  178SLPC   H6S20234   3.015   2.174   6.505  2.7735 -0.1949 -3.3593
  178SLPC   C2720235   3.134   1.991   6.466 -0.3665 -0.1230  0.2417
  178SLPC   H7R20236   3.047   1.929   6.435 -1.0347  1.1476 -0.4883
  178SLPC   H7S20237   3.214   1.941   6.525  0.3253  0.1377 -0.4593
  178SLPC   C2820238   3.215   2.056   6.347 -0.2654 -0.2128  0.0132
  178SLPC   H8R20239   3.264   1.974   6.290 -0.3660  0.2287 -0.7135
  178SLPC   H8S20240   3.291   2.125   6.390 -1.6195  1.8262 -0.7415
  178SLPC   C2920241   3.116   2.124   6.258  0.6003  0.2965 -0.1174
  178SLPC   H9R20242   3.013   2.141   6.292  0.4034  2.0283 -1.4636
  178SLPC  C21020243   3.144   2.157   6.133 -0.5903 -0.0773 -0.0113
  178SLPC  H10R20244   3.070   2.206   6.068 -0.3172  0.6107  0.1938
  178SLPC  C21120245   3.282   2.145   6.077 -0.8101 -0.5078  0.1268
  178SLPC  H11R20246   3.271   2.052   6.017  0.4615  0.4473 -1.6761
  178SLPC  H11S20247   3.349   2.120   6.161  0.8950 -2.2312 -1.6487
  178SLPC  C21220248   3.340   2.260   5.999  0.6187  0.1700 -0.1184
  178SLPC  H12R20249   3.405   2.333   6.050  1.7569 -1.1556  0.3807
  178SLPC  C21320250   3.316   2.274   5.872 -0.1034 -0.1823 -0.5473
  178SLPC  H13R20251   3.356   2.364   5.822 -0.7601 -0.7412 -2.1566
  178SLPC  C21420252   3.237   2.172   5.793 -0.8052 -0.3333 -0.0825
  178SLPC  H14R20253   3.134   2.161   5.833 -0.4169 -1.4253  0.6814
  178SLPC  H14S20254   3.279   2.069   5.794  0.2688  0.0887  0.2245
  178SLPC  C21520255   3.225   2.214   5.641 -0.1590 -0.0452 -0.3700
  178SLPC  H15R20256   3.184   2.316   5.636  1.8800  1.0489  2.4399
  178SLPC  H15S20257   3.146   2.153   5.592  0.8589 -1.8922  0.1463
  178SLPC  C21620258   3.351   2.177   5.565 -0.6260  0.2733 -0.5308
  178SLPC  H16R20259   3.353   2.066   5.569 -1.2797  0.1463 -2.4386
  178SLPC  H16S20260   3.441   2.226   5.606 -0.5150  1.1736 -1.7962
  178SLPC  C21720261   3.360   2.223   5.416  0.0319  0.0045 -0.7067
  178SLPC  H17R20262   3.265   2.195   5.365 -1.2044 -0.1720  1.5748
  178SLPC  H17S20263   3.443   2.165   5.371  1.1484  0.8258  0.2531
  178SLPC  C21820264   3.383   2.379   5.398  0.1371  0.1526  0.0571
  178SLPC  H18R20265   3.463   2.406   5.470 -0.2959  1.3665  0.1102
  178SLPC  H18S20266   3.292   2.440   5.418  0.0346 -0.2553  0.8879
  178SLPC  H18T20267   3.406   2.420   5.297 -1.4128  0.3749 -0.2296
  178SLPC   C3320268   2.691   1.607   6.720 -0.3538  0.2863 -0.8173
  178SLPC   H3X20269   2.789   1.555   6.709 -0.2145  0.5455 -0.8144
  178SLPC   H3Y20270   2.725   1.713   6.724  2.5726 -0.5697 -0.5257
  178SLPC   C3420271   2.608   1.563   6.600  0.6808 -0.5786 -0.5171
  178SLPC   H4X20272   2.514   1.622   6.594 -1.2407 -3.3352  0.3331
  178SLPC   H4Y20273   2.570   1.459   6.603 -0.6384 -0.1188 -0.2021
  178SLPC   C3520274   2.680   1.585   6.467  0.5484  0.1661 -0.1080
  178SLPC   H5X20275   2.765   1.514   6.456 -0.2159 -0.4473 -2.8393
  178SLPC   H5Y20276   2.716   1.689   6.455  2.0841 -0.3842 -0.4213
  178SLPC   C3620277   2.582   1.564   6.349  0.6447 -0.0497  0.4455
  178SLPC   H6X20278   2.493   1.629   6.347 -0.0648 -0.9255 -2.8810
  178SLPC   H6Y20279   2.534   1.465   6.369 -1.0712  0.7358  0.3594
  178SLPC   C3720280   2.644   1.594   6.211 -0.6667  0.0216  0.3029
  178SLPC   H7X20281   2.731   1.525   6.210 -0.3516  0.3991  1.0411
  178SLPC   H7Y20282   2.670   1.700   6.188  0.6838 -0.4873 -0.7102
  178SLPC   C3820283   2.553   1.549   6.095 -1.0373  0.0359 -0.0480
  178SLPC   H8X20284   2.484   1.624   6.050 -0.9886 -0.6776 -1.3820
  178SLPC   H8Y20285   2.497   1.459   6.126 -0.6738 -0.0845  0.2620
  178SLPC   C3920286   2.636   1.502   5.972 -0.5416 -0.3265  0.2747
  178SLPC   H9X20287   2.728   1.444   5.993  0.2727  1.3776  1.6691
  178SLPC   H9Y20288   2.661   1.594   5.915  1.1770 -0.7698  0.2826
  178SLPC  C31020289   2.551   1.413   5.882  0.0655  0.2887  0.0004
  178SLPC  H10X20290   2.458   1.471   5.861 -0.3705  0.3206  1.8198
  178SLPC  H10Y20291   2.527   1.332   5.954  1.4911  0.7842  1.0617
  178SLPC  C31120292   2.618   1.366   5.752 -0.1850  0.2581  0.0194
  178SLPC  H11X20293   2.655   1.261   5.761 -1.9820 -0.4719 -0.5627
  178SLPC  H11Y20294   2.704   1.433   5.730 -0.1872 -0.1751 -1.4012
  178SLPC  C31220295   2.522   1.370   5.630  0.0575  0.8581 -0.4220
  178SLPC  H12X20296   2.475   1.467   5.602 -1.5611  0.1692 -0.2186
  178SLPC  H12Y20297   2.437   1.301   5.649 -1.2554  2.0445 -1.7527
  178SLPC  C31320298   2.591   1.313   5.504  0.7511 -0.1931 -0.0037
  178SLPC  H13X20299   2.522   1.288   5.421  0.3946 -0.4310  0.3578
  178SLPC  H13Y20300   2.633   1.214   5.531  0.6702 -0.8500 -2.1439
  178SLPC  C31420301   2.694   1.408   5.444 -0.3016 -0.5071 -0.3452
  178SLPC  H14X20302   2.778   1.406   5.517 -1.5874  0.8687  1.2283
  178SLPC  H14Y20303   2.675   1.515   5.420  1.4672 -0.5618 -2.3919
  178SLPC  C31520304   2.747   1.351   5.309 -0.0247  0.3242  0.1131
  178SLPC  H15X20305   2.665   1.371   5.237  0.8086 -1.3879 -1.4145
  178SLPC  H15Y20306   2.750   1.240   5.311  0.8549  0.3461  0.5512
  178SLPC  C31620307   2.885   1.417   5.277  0.0660  0.0926  0.8665
  178SLPC  H16X20308   2.949   1.421   5.368 -0.4325 -0.3896  1.2507
  178SLPC  H16Y20309   2.867   1.524   5.254 -2.2881  0.0222  2.0701
  178SLPC  C31720310   2.956   1.347   5.171 -0.4497 -0.3170 -0.0364
  178SLPC  H17X20311   2.893   1.353   5.079  0.5106  0.6522 -0.6709
  178SLPC  H17Y20312   2.976   1.242   5.201  0.2516  0.1416  1.1418
  178SLPC  C31820313   3.095   1.398   5.126 -0.3438 -0.1459 -1.0108
  178SLPC  H18X20314   3.108   1.508   5.116  2.2057 -0.4427 -1.5602
  178SLPC  H18Y20315   3.116   1.348   5.029  1.3532  1.3017 -1.4482
  178SLPC  H18Z20316   3.168   1.376   5.207 -1.8571  0.7662  0.6701
  179SLPC     N20317   6.520   0.267   2.836 -0.0921  0.5247  0.1408
  179SLPC   C1320318   6.613   0.147   2.830 -0.3992 -0.1257  1.1075
  179SLPC  H13A20319   6.696   0.174   2.766 -3.0777  0.6982 -2.3223
  179SLPC  H13B20320   6.656   0.122   2.926 -0.8076 -2.1343  0.8094
  179SLPC  H13C20321   6.564   0.063   2.784  2.1225 -0.4805 -1.2062
  179SLPC   C1420322   6.463   0.289   2.698 -0.0270  0.4012 -0.1306
  179SLPC  H14A20323   6.385   0.217   2.677  1.4831 -1.0651 -0.9077
  179SLPC  H14B20324   6.423   0.389   2.692 -0.6210  0.0693 -3.0941
  179SLPC  H14C20325   6.531   0.275   2.615 -1.2472  0.7738 -1.2251
  179SLPC   C1520326   6.592   0.395   2.872 -0.1691 -0.7821 -0.2337
  179SLPC  H15A20327   6.686   0.387   2.820  0.7231 -0.7569  1.3255
  179SLPC  H15B20328   6.542   0.485   2.839  0.3603  0.1934  1.5176
  179SLPC  H15C20329   6.619   0.411   2.975  1.5856 -0.2520 -0.7445
  179SLPC   C1220330   6.406   0.233   2.935  0.2882 -0.4385 -0.2690
  179SLPC  H12A20331   6.344   0.321   2.948  3.2769  1.7868 -0.1294
  179SLPC  H12B20332   6.450   0.237   3.034 -1.8537 -2.8904  0.9077
  179SLPC   C1120333   6.310   0.120   2.903 -0.1807 -0.1018 -0.5870
  179SLPC  H11A20334   6.234   0.106   2.982 -0.9638  0.6023 -1.1953
  179SLPC  H11B20335   6.370   0.028   2.886 -0.4465 -0.4289  0.1790
  179SLPC     P20336   6.120   0.242   2.779  0.1933 -0.3295 -0.2270
  179SLPC   O1320337   6.115   0.304   2.645 -0.2299  0.2922 -0.1710
  179SLPC   O1420338   5.998   0.173   2.821  0.1109 -0.0165  0.1165
  179SLPC   O1220339   6.241   0.143   2.782  0.1566  0.2837  0.6763
  179SLPC   O1120340   6.154   0.356   2.879 -0.2198 -0.3845 -0.5036
  179SLPC    C120341   6.079   0.478   2.876 -0.1335 -0.0939 -0.3714
  179SLPC    HA20342   6.122   0.549   2.803 -0.1259  0.6739  0.3649
  179SLPC    HB20343   5.977   0.461   2.835  0.3311  0.6686 -1.9093
  179SLPC    C220344   6.067   0.560   3.008 -0.0089 -0.3624 -0.0004
  179SLPC    HS20345   6.027   0.661   2.986  1.5606  0.4527  0.7376
  179SLPC   O2120346   6.199   0.569   3.064 -0.3848 -0.0493  0.3140
  179SLPC   C2120347   6.252   0.688   3.083 -0.0227  0.3576 -0.1277
  179SLPC   O2220348   6.194   0.792   3.068  0.7378 -0.6160 -0.3703
  179SLPC   C2220349   6.393   0.691   3.132  0.2385 -0.7327  0.3895
  179SLPC   H2R20350   6.419   0.592   3.176  1.3179 -0.2195  0.9365
  179SLPC   H2S20351   6.462   0.714   3.049 -0.1875  0.1280  0.2591
  179SLPC    C320352   5.976   0.501   3.115 -0.0425 -0.4650 -0.3535
  179SLPC    HX20353   6.021   0.406   3.151 -1.3241 -0.1014  2.5157
  179SLPC    HY20354   5.881   0.490   3.059 -0.1114  1.8523 -0.7529
  179SLPC   O3120355   5.951   0.583   3.230  0.0722  0.3274 -0.2180
  179SLPC   C3120356   5.844   0.559   3.305  1.3829 -0.0244 -0.4329
  179SLPC   O3220357   5.745   0.492   3.267  0.0146  0.0151 -0.3506
  179SLPC   C3220358   5.841   0.650   3.426 -0.2329  0.1113 -0.1810
  179SLPC   H2X20359   5.801   0.751   3.401  0.6730  0.6437  0.4443
  179SLPC   H2Y20360   5.949   0.653   3.452 -0.3628 -2.3437  0.8452
  179SLPC   C2320361   6.411   0.796   3.243  0.0332 -0.0700  0.0247
  179SLPC   H3R20362   6.343   0.883   3.241  1.3479  0.9860 -1.2317
  179SLPC   H3S20363   6.514   0.837   3.241 -0.4607  1.2982  1.2230
  179SLPC   C2420364   6.403   0.728   3.386 -0.7968 -0.2357  0.4097
  179SLPC   H4R20365   6.427   0.798   3.469  1.9304  0.2229 -0.6757
  179SLPC   H4S20366   6.477   0.646   3.398 -0.1309  0.0455 -1.4496
  179SLPC   C2520367   6.267   0.682   3.422 -0.0739 -0.3811 -0.3334
  179SLPC   H5R20368   6.236   0.607   3.346  2.5080 -1.3395 -0.5367
  179SLPC   H5S20369   6.195   0.766   3.408  1.7455  1.0166 -1.9324
  179SLPC   C2620370   6.255   0.614   3.561 -0.2637  0.4192  0.0289
  179SLPC   H6R20371   6.346   0.551   3.568 -0.8601 -0.4254  0.3522
  179SLPC   H6S20372   6.171   0.542   3.548 -1.1385  1.3547  0.3066
  179SLPC   C2720373   6.228   0.713   3.666  0.1420  0.3089  0.2113
  179SLPC   H7R20374   6.159   0.791   3.628  1.4628  0.6123 -1.7144
  179SLPC   H7S20375   6.326   0.754   3.699  0.1712 -1.7797  3.0849
  179SLPC   C2820376   6.181   0.647   3.805 -0.1015  0.3532 -0.3547
  179SLPC   H8R20377   6.270   0.614   3.862 -1.4250 -0.3041  1.4254
  179SLPC   H8S20378   6.120   0.555   3.794  3.2557 -2.1780  0.6404
  179SLPC   C2920379   6.111   0.741   3.904  0.9110  0.5043 -0.1900
  179SLPC   H9R20380   6.029   0.805   3.867 -1.1526 -1.5420  0.6015
  179SLPC  C21020381   6.135   0.727   4.037 -0.1133  0.3156 -0.3014
  179SLPC  H10R20382   6.079   0.794   4.104  1.0968  2.3666 -1.2515
  179SLPC  C21120383   6.230   0.640   4.121  0.4303  0.2898  0.9124
  179SLPC  H11R20384   6.259   0.545   4.071 -0.8194  0.2112  0.2826
  179SLPC  H11S20385   6.172   0.616   4.213  1.3651  1.1779  1.7591
  179SLPC  C21220386   6.351   0.716   4.156  0.2072 -0.3260 -0.0692
  179SLPC  H12R20387   6.424   0.742   4.078  3.2434 -0.1307  2.6100
  179SLPC  C21320388   6.386   0.777   4.270  0.1752  1.0195  1.2034
  179SLPC  H13R20389   6.484   0.826   4.273  0.6698  0.1772 -0.3129
  179SLPC  C21420390   6.306   0.762   4.395  0.5534  1.0625  0.4544
  179SLPC  H14R20391   6.325   0.671   4.454  3.0869  1.1651 -0.1238
  179SLPC  H14S20392   6.199   0.779   4.369  0.6438  1.3139  0.2400
  179SLPC  C21520393   6.360   0.874   4.483 -0.2089  0.4348  0.7457
  179SLPC  H15R20394   6.286   0.905   4.560  0.6122  2.3539  0.8214
  179SLPC  H15S20395   6.377   0.970   4.431  0.6520  1.3513  2.6123
  179SLPC  C21620396   6.499   0.844   4.551 -0.0197 -0.2730  0.4442
  179SLPC  H16R20397   6.581   0.818   4.480  0.4762 -2.0504  1.6027
  179SLPC  H16S20398   6.489   0.754   4.615 -0.1738  0.0891  0.9355
  179SLPC  C21720399   6.537   0.970   4.630  0.1284  0.4001 -0.3618
  179SLPC  H17R20400   6.455   0.989   4.701  0.0922 -1.1745  0.0418
  179SLPC  H17S20401   6.539   1.050   4.552 -0.4177  0.4941 -0.2836
  179SLPC  C21820402   6.667   0.957   4.709  0.2569 -1.0393  0.1809
  179SLPC  H18R20403   6.660   0.869   4.776 -0.0365 -2.5730 -1.7725
  179SLPC  H18S20404   6.697   1.043   4.774  2.0446 -1.7349  0.3288
  179SLPC  H18T20405   6.756   0.935   4.645  0.6610  1.3298 -0.1901
  179SLPC   C3320406   5.758   0.591   3.548 -0.3826 -0.7192 -0.6282
  179SLPC   H3X20407   5.773   0.481   3.543  2.6100 -0.4450  0.5985
  179SLPC   H3Y20408   5.649   0.604   3.530 -0.0725  0.5038 -1.7543
  179SLPC   C3420409   5.817   0.624   3.685 -0.4209  0.0176 -0.3828
  179SLPC   H4X20410   5.820   0.734   3.700  2.6236 -0.0768  0.3090
  179SLPC   H4Y20411   5.922   0.591   3.695 -0.3401  0.5512  0.6797
  179SLPC   C3520412   5.733   0.554   3.802 -0.2456 -0.0234 -0.3785
  179SLPC   H5X20413   5.628   0.591   3.810 -0.0125  0.6215 -0.3206
  179SLPC   H5Y20414   5.709   0.452   3.763  4.1239 -1.5884  0.4584
  179SLPC   C3620415   5.805   0.555   3.938  0.1247  1.2532 -0.3516
  179SLPC   H6X20416   5.828   0.659   3.969 -0.0083  1.6781 -1.6173
  179SLPC   H6Y20417   5.896   0.494   3.957  2.2648  4.1115 -0.7396
  179SLPC   C3720418   5.713   0.503   4.054  0.0823 -0.2360  0.4621
  179SLPC   H7X20419   5.716   0.392   4.061  1.2553 -0.2609 -0.2030
  179SLPC   H7Y20420   5.610   0.544   4.042 -0.8274 -2.1952  1.1491
  179SLPC   C3820421   5.760   0.542   4.194  0.8096  0.4437 -1.0999
  179SLPC   H8X20422   5.800   0.645   4.205  2.2890 -0.0830 -1.3438
  179SLPC   H8Y20423   5.848   0.480   4.219  0.2531  0.8318  2.1863
  179SLPC   C3920424   5.653   0.522   4.302 -0.6682  0.5633  0.3973
  179SLPC   H9X20425   5.608   0.420   4.304 -2.0472  1.1110 -0.8895
  179SLPC   H9Y20426   5.568   0.592   4.288 -1.6072 -0.7354 -0.7604
  179SLPC  C31020427   5.701   0.537   4.443 -0.7370  0.2106 -0.1716
  179SLPC  H10X20428   5.768   0.457   4.483  0.3299  1.9279  1.6330
  179SLPC  H10Y20429   5.615   0.545   4.512 -0.3356 -2.0069  0.6875
  179SLPC  C31120430   5.781   0.675   4.473 -0.0323  0.1140 -0.0881
  179SLPC  H11X20431   5.724   0.758   4.425 -0.2844 -0.7399 -1.3352
  179SLPC  H11Y20432   5.880   0.677   4.423  0.3712 -0.6314  0.6628
  179SLPC  C31220433   5.816   0.693   4.618 -0.2047  0.2219  0.4927
  179SLPC  H12X20434   5.851   0.600   4.666  0.3238  0.8584  1.3815
  179SLPC  H12Y20435   5.727   0.721   4.679 -0.1338 -0.9832  1.1674
  179SLPC  C31320436   5.934   0.798   4.643  0.4590  0.0768 -0.5012
  179SLPC  H13X20437   5.927   0.882   4.570 -0.2952  0.1868 -0.3055
  179SLPC  H13Y20438   6.025   0.740   4.616  0.5871 -0.4060  0.9161
  179SLPC  C31420439   5.957   0.837   4.793 -0.0424 -0.4895 -0.0597
  179SLPC  H14X20440   6.017   0.759   4.846 -0.0386  1.1784  2.5623
  179SLPC  H14Y20441   5.856   0.832   4.837 -0.8396  0.2097 -1.7095
  179SLPC  C31520442   6.020   0.977   4.815 -0.3434  0.2447 -0.0734
  179SLPC  H15X20443   5.971   1.053   4.751  0.4285  0.7355 -0.0952
  179SLPC  H15Y20444   6.125   0.974   4.779  0.3700  0.8366  1.8207
  179SLPC  C31620445   6.010   1.010   4.967  0.0937 -0.2787 -0.5532
  179SLPC  H16X20446   6.094   1.074   5.002  1.1480 -1.9073  0.0251
  179SLPC  H16Y20447   6.033   0.918   5.026  1.8155  0.3870 -0.1072
  179SLPC  C31720448   5.873   1.071   5.016 -0.4719  0.1819  0.1362
  179SLPC  H17X20449   5.853   1.071   5.125  2.4209  0.6003  0.7298
  179SLPC  H17Y20450   5.789   1.010   4.976  0.2070 -0.3008 -0.5750
  179SLPC  C31820451   5.839   1.204   4.956 -0.1907 -1.1878  1.0399
  179SLPC  H18X20452   5.740   1.245   4.985 -0.3638  0.0515 -1.0769
  179SLPC  H18Y20453   5.839   1.178   4.848  0.5266 -1.5891  1.1265
  179SLPC  H18Z20454   5.916   1.281   4.977  0.2478 -1.3802  0.2108
  180SLPC     N20455   3.482   2.278   2.389  0.0405  0.1219 -0.3094
  180SLPC   C1320456   3.372   2.322   2.303  0.1198 -0.4322  0.2558
  180SLPC  H13A20457   3.367   2.430   2.301 -0.6407 -0.3390  3.1254
  180SLPC  H13B20458   3.401   2.297   2.202  0.8170 -1.6415  0.7348
  180SLPC  H13C20459   3.276   2.287   2.339 -0.4338  2.5296  2.0206
  180SLPC   C1420460   3.486   2.127   2.379 -0.0260 -0.2052  0.7426
  180SLPC  H14A20461   3.540   2.096   2.468  0.3566 -0.1657  0.5238
  180SLPC  H14B20462   3.388   2.083   2.368  0.2097 -1.3759  2.8212
  180SLPC  H14C20463   3.556   2.116   2.298  0.1985  1.8578  0.5964
  180SLPC   C1520464   3.452   2.327   2.535 -0.3007 -0.0705 -0.9708
  180SLPC  H15A20465   3.355   2.285   2.556  0.4194 -2.3618 -1.8801
  180SLPC  H15B20466   3.525   2.288   2.605 -0.8679  0.5401 -0.0239
  180SLPC  H15C20467   3.447   2.435   2.532 -0.8996 -0.0650 -0.0930
  180SLPC   C1220468   3.619   2.339   2.352  0.0330 -0.6077 -0.6070
  180SLPC  H12A20469   3.615   2.445   2.372 -0.5489 -0.6323 -0.5775
  180SLPC  H12B20470   3.632   2.348   2.245 -0.7091  0.3907 -0.6307
  180SLPC   C1120471   3.745   2.282   2.420  0.1300 -0.0289 -0.5558
  180SLPC  H11A20472   3.827   2.345   2.378  1.2577 -0.0738  1.4768
  180SLPC  H11B20473   3.767   2.181   2.380 -1.6567 -0.8833  0.5233
  180SLPC     P20474   3.797   2.404   2.648 -0.2947 -0.0678  0.0310
  180SLPC   O1320475   3.947   2.399   2.661  0.0984 -0.6936 -0.0903
  180SLPC   O1420476   3.747   2.526   2.578 -0.6684  0.1720 -0.0414
  180SLPC   O1220477   3.736   2.283   2.567 -0.5106  0.0581 -0.3617
  180SLPC   O1120478   3.728   2.397   2.793  0.4883 -0.6329  0.5230
  180SLPC    C120479   3.682   2.270   2.842 -0.4581 -0.5612 -0.5795
  180SLPC    HA20480   3.649   2.196   2.766 -0.6471 -1.0723 -0.0007
  180SLPC    HB20481   3.769   2.224   2.892 -0.7466 -0.3278  0.1432
  180SLPC    C220482   3.564   2.283   2.946 -0.4319 -0.3981  0.1654
  180SLPC    HS20483   3.475   2.292   2.880 -2.1023 -2.3857  1.9663
  180SLPC   O2120484   3.587   2.396   3.030 -0.4032 -0.2735 -0.2090
  180SLPC   C2120485   3.493   2.428   3.113  0.2801  0.4436  0.2948
  180SLPC   O2220486   3.371   2.395   3.099  0.2543  0.1442 -0.3023
  180SLPC   C2220487   3.550   2.497   3.238 -0.2743  0.1913 -0.7094
  180SLPC   H2R20488   3.654   2.461   3.249  0.1864  1.7805  0.3971
  180SLPC   H2S20489   3.551   2.607   3.223  1.9059  0.3690  0.4121
  180SLPC    C320490   3.533   2.152   3.027 -0.3632 -0.0437  0.6198
  180SLPC    HX20491   3.531   2.065   2.958  0.0961  0.5574 -0.1608
  180SLPC    HY20492   3.428   2.157   3.065 -0.9262  0.2669 -0.8930
  180SLPC   O3120493   3.625   2.128   3.134  0.8449  0.3357 -0.3303
  180SLPC   C3120494   3.571   2.064   3.246  0.0377 -0.5024 -0.6285
  180SLPC   O3220495   3.461   2.024   3.263  0.2921 -0.9188 -0.0993
  180SLPC   C3220496   3.677   2.052   3.351  0.0510  0.9017 -0.1099
  180SLPC   H2X20497   3.764   2.108   3.312  0.3129  0.3411 -0.3432
  180SLPC   H2Y20498   3.710   1.949   3.376 -0.2145  0.6055 -0.9407
  180SLPC   C2320499   3.461   2.453   3.362  0.0934  0.1194  0.7762
  180SLPC   H3R20500   3.469   2.342   3.372 -2.1753 -0.0677  0.9938
  180SLPC   H3S20501   3.351   2.470   3.362 -0.2021 -1.5113 -0.5869
  180SLPC   C2420502   3.518   2.509   3.494 -0.3617 -0.2839 -0.0960
  180SLPC   H4R20503   3.533   2.619   3.485  0.7274 -0.3894  0.3118
  180SLPC   H4S20504   3.624   2.480   3.512 -0.8337 -2.0543  0.0137
  180SLPC   C2520505   3.449   2.466   3.623  0.5273 -0.3984  0.2592
  180SLPC   H5R20506   3.473   2.359   3.636 -0.3130 -0.6463 -0.1975
  180SLPC   H5S20507   3.339   2.470   3.629  0.5978  0.3522  1.5935
  180SLPC   C2620508   3.509   2.537   3.745 -0.6165  0.0167  0.5683
  180SLPC   H6R20509   3.485   2.646   3.742 -1.9607 -0.2868 -0.1189
  180SLPC   H6S20510   3.618   2.523   3.762 -0.7421 -1.0113  0.6038
  180SLPC   C2720511   3.461   2.490   3.884  0.8797 -0.6118  0.1901
  180SLPC   H7R20512   3.483   2.381   3.875 -1.2614 -1.1189  0.7038
  180SLPC   H7S20513   3.351   2.498   3.892  0.9903 -0.7535  2.6928
  180SLPC   C2820514   3.546   2.545   3.997 -0.9880  0.7165  0.3098
  180SLPC   H8R20515   3.648   2.567   3.958 -0.3949 -1.7757  0.2948
  180SLPC   H8S20516   3.564   2.457   4.063 -1.2152  0.1640 -0.3459
  180SLPC   C2920517   3.478   2.656   4.066  0.4859 -0.1659 -0.3878
  180SLPC   H9R20518   3.456   2.738   3.997 -1.8259  1.5735  2.1992
  180SLPC  C21020519   3.439   2.666   4.199 -0.4233  0.3671  0.3735
  180SLPC  H10R20520   3.382   2.750   4.240  0.0173  0.2638  1.2395
  180SLPC  C21120521   3.479   2.565   4.304  0.5591  0.0427  0.5883
  180SLPC  H11R20522   3.495   2.458   4.276 -1.5000 -0.4464  1.0917
  180SLPC  H11S20523   3.399   2.558   4.381 -0.7505  2.3311 -0.4773
  180SLPC  C21220524   3.605   2.622   4.368 -0.3780 -0.3475  0.1940
  180SLPC  H12R20525   3.694   2.611   4.305  1.1915  0.2995  2.1862
  180SLPC  C21320526   3.624   2.679   4.493  0.7940 -0.1000 -0.3377
  180SLPC  H13R20527   3.725   2.718   4.514  0.4517  0.3978  0.4534
  180SLPC  C21420528   3.513   2.716   4.587  0.0415 -0.0868  0.1884
  180SLPC  H14R20529   3.417   2.700   4.533 -0.9533  0.4632  1.7221
  180SLPC  H14S20530   3.509   2.825   4.607  0.0616  0.1175 -0.8658
  180SLPC  C21520531   3.510   2.639   4.721  0.7845  0.2280  0.8471
  180SLPC  H15R20532   3.592   2.681   4.782 -0.3498  0.8504  1.9822
  180SLPC  H15S20533   3.527   2.530   4.709  0.8939  0.4781 -1.8991
  180SLPC  C21620534   3.372   2.639   4.792  0.0108 -0.2689  0.1488
  180SLPC  H16R20535   3.299   2.568   4.748 -0.6036 -0.0822  0.8469
  180SLPC  H16S20536   3.339   2.745   4.782  0.7674 -0.1506 -1.5295
  180SLPC  C21720537   3.403   2.615   4.942 -0.0390  0.0121 -0.3470
  180SLPC  H17R20538   3.466   2.691   4.993 -1.7952 -0.3975  2.6664
  180SLPC  H17S20539   3.463   2.523   4.957  1.1506  1.1000  2.3362
  180SLPC  C21820540   3.263   2.595   5.008  0.2495 -0.9305 -0.1640
  180SLPC  H18R20541   3.201   2.687   5.003 -1.3266 -2.0022 -1.9788
  180SLPC  H18S20542   3.267   2.576   5.117  0.0426  2.6214  0.5636
  180SLPC  H18T20543   3.207   2.518   4.950 -0.4713 -0.4070 -0.1669
  180SLPC   C3320544   3.632   2.125   3.480 -0.2619  0.3041  0.5621
  180SLPC   H3X20545   3.532   2.095   3.517 -0.1414 -1.9087 -0.7513
  180SLPC   H3Y20546   3.636   2.235   3.464 -0.1751  0.1163 -0.7633
  180SLPC   C3420547   3.734   2.109   3.598  0.0039 -0.1985 -0.0389
  180SLPC   H4X20548   3.824   2.159   3.556 -0.2591  0.3585  0.0611
  180SLPC   H4Y20549   3.763   2.003   3.614  3.7767  0.8139  0.8231
  180SLPC   C3520550   3.687   2.193   3.715 -0.4195  0.3007 -0.1663
  180SLPC   H5X20551   3.606   2.140   3.770 -0.9223  1.7836  0.5905
  180SLPC   H5Y20552   3.653   2.291   3.676  2.6019  0.4723 -2.7266
  180SLPC   C3620553   3.803   2.229   3.815  0.7045  0.3608 -0.0265
  180SLPC   H6X20554   3.758   2.281   3.902 -1.5198  1.6718 -1.8452
  180SLPC   H6Y20555   3.863   2.303   3.757  0.6539  1.0257  0.7559
  180SLPC   C3720556   3.881   2.104   3.859 -0.1241  0.4394  0.1599
  180SLPC   H7X20557   3.970   2.147   3.910  2.0453 -0.1660 -2.8235
  180SLPC   H7Y20558   3.928   2.051   3.773 -0.1617 -1.9547  1.5082
  180SLPC   C3820559   3.815   2.004   3.947  0.3321 -0.5005 -0.4528
  180SLPC   H8X20560   3.845   1.901   3.919  3.4039  0.4766 -1.1117
  180SLPC   H8Y20561   3.706   2.023   3.937  0.6790  1.6261 -0.7127
  180SLPC   C3920562   3.840   2.030   4.100 -0.9977  0.4679  0.1728
  180SLPC   H9X20563   3.941   2.074   4.113  0.3919 -2.2002 -0.9026
  180SLPC   H9Y20564   3.831   1.926   4.137 -0.2435 -0.2520 -1.5498
  180SLPC  C31020565   3.734   2.116   4.183  0.8550  0.6275  0.1196
  180SLPC  H10X20566   3.636   2.080   4.146  0.4613  0.6255  1.1321
  180SLPC  H10Y20567   3.749   2.223   4.154  2.2103  0.1082 -1.2627
  180SLPC  C31120568   3.745   2.086   4.329  0.3327  0.1148  0.7315
  180SLPC  H11X20569   3.849   2.079   4.367  1.5259  3.0937 -1.6269
  180SLPC  H11Y20570   3.697   1.987   4.343 -0.0215 -0.1672 -2.0501
  180SLPC  C31220571   3.656   2.194   4.399 -0.4815 -0.3645  0.4977
  180SLPC  H12X20572   3.549   2.191   4.366  0.1108  2.7467 -2.2836
  180SLPC  H12Y20573   3.679   2.300   4.373  1.5207 -1.0889 -0.8964
  180SLPC  C31320574   3.660   2.181   4.551 -0.9841  0.1660 -0.5776
  180SLPC  H13X20575   3.756   2.227   4.580  0.1416 -0.0156 -3.6557
  180SLPC  H13Y20576   3.661   2.073   4.580 -0.4243  0.1408 -0.6790
  180SLPC  C31420577   3.541   2.269   4.620  0.1079  0.0872  0.0340
  180SLPC  H14X20578   3.445   2.220   4.595 -1.5293  2.4645  1.2869
  180SLPC  H14Y20579   3.552   2.372   4.579 -0.3964 -0.0456 -0.4485
  180SLPC  C31520580   3.563   2.275   4.771  0.3706  1.0478 -0.2065
  180SLPC  H15X20581   3.482   2.337   4.816 -2.9533 -2.9294 -0.1960
  180SLPC  H15Y20582   3.661   2.320   4.798  0.8834 -0.6732  0.9321
  180SLPC  C31620583   3.560   2.131   4.826 -0.0355  0.4291 -0.3033
  180SLPC  H16X20584   3.648   2.076   4.786 -0.5396  0.1783 -1.0878
  180SLPC  H16Y20585   3.466   2.083   4.792  0.1256 -0.8252  0.8730
  180SLPC  C31720586   3.558   2.133   4.979 -0.4576  0.9814 -0.1028
  180SLPC  H17X20587   3.649   2.190   5.007  1.8401 -1.6701 -1.6727
  180SLPC  H17Y20588   3.572   2.029   5.014  2.3681  0.2013 -3.0137
  180SLPC  C31820589   3.430   2.183   5.043  0.3162 -0.1123  0.4827
  180SLPC  H18X20590   3.406   2.286   5.008 -0.5783 -0.1412  0.9744
  180SLPC  H18Y20591   3.434   2.174   5.154 -1.5335 -0.7272  0.5411
  180SLPC  H18Z20592   3.341   2.119   5.022 -0.7843  0.5281  2.7901
  181SLPC     N20593   3.478   0.699   3.085  0.6615  0.4727  0.3089
  181SLPC   C1320594   3.411   0.739   3.211  0.6572 -0.2927 -0.3950
  181SLPC  H13A20595   3.484   0.742   3.291 -0.2675 -1.8650  0.5495
  181SLPC  H13B20596   3.354   0.830   3.201 -0.9050 -0.9429  1.9895
  181SLPC  H13C20597   3.350   0.655   3.239  2.7652 -1.3923  1.2439
  181SLPC   C1420598   3.361   0.670   2.985  0.1076 -0.5582  0.3684
  181SLPC  H14A20599   3.406   0.674   2.887  0.8190 -0.9272  0.6716
  181SLPC  H14B20600   3.319   0.573   3.006 -0.2040 -0.3116  0.9002
  181SLPC  H14C20601   3.290   0.752   2.987 -0.6690 -1.1304 -1.7688
  181SLPC   C1520602   3.562   0.578   3.099 -0.3782  0.5380 -0.1481
  181SLPC  H15A20603   3.608   0.561   3.003 -0.6592 -1.3072  0.0180
  181SLPC  H15B20604   3.645   0.600   3.164 -1.3219  1.2039  0.8804
  181SLPC  H15C20605   3.508   0.489   3.128  3.0720 -2.0407 -0.9747
  181SLPC   C1220606   3.561   0.811   3.028 -0.5497 -0.4684 -0.1508
  181SLPC  H12A20607   3.640   0.827   3.099  0.0029 -2.0534 -0.3631
  181SLPC  H12B20608   3.508   0.905   3.026  0.4201  0.0839 -0.7565
  181SLPC   C1120609   3.645   0.784   2.895 -0.0151 -0.8348 -0.1038
  181SLPC  H11A20610   3.681   0.885   2.865 -2.1401  0.5527  1.6572
  181SLPC  H11B20611   3.580   0.762   2.808 -0.2646 -0.3150 -0.0513
  181SLPC     P20612   3.882   0.727   2.996 -0.1430 -0.0736 -0.1577
  181SLPC   O1320613   3.929   0.602   3.048  0.1397 -0.1419 -0.0612
  181SLPC   O1420614   3.974   0.808   2.915  0.4115 -0.3627 -0.0143
  181SLPC   O1220615   3.753   0.691   2.918 -0.2480 -0.1792 -0.2143
  181SLPC   O1120616   3.835   0.812   3.116  0.4599  0.1104 -0.2193
  181SLPC    C120617   3.923   0.873   3.213 -0.0742 -0.4123  0.6181
  181SLPC    HA20618   4.027   0.834   3.205  0.8521  2.2654 -2.5475
  181SLPC    HB20619   3.940   0.977   3.179 -0.4732 -1.1590 -2.0865
  181SLPC    C220620   3.883   0.872   3.364  0.3771  0.0908 -0.3625
  181SLPC    HS20621   3.793   0.933   3.385  1.0527  1.2840 -0.8367
  181SLPC   O2120622   3.999   0.928   3.429  0.1301  0.0294 -0.0007
  181SLPC   C2120623   3.965   1.009   3.533  0.0566 -0.3453  0.1017
  181SLPC   O2220624   3.853   1.027   3.574  0.3376  0.0447 -0.1266
  181SLPC   C2220625   4.093   1.067   3.588  0.6273  0.3275 -0.2780
  181SLPC   H2R20626   4.179   1.016   3.538  1.6174  4.3495 -3.1942
  181SLPC   H2S20627   4.104   1.175   3.564  1.5420  0.7062  1.5973
  181SLPC    C320628   3.870   0.722   3.400 -0.1718  0.2287  0.5015
  181SLPC    HX20629   3.969   0.673   3.386  0.3747  1.4394  0.0171
  181SLPC    HY20630   3.796   0.678   3.330  0.8130  0.2146 -0.5656
  181SLPC   O3120631   3.833   0.695   3.536 -0.8545 -0.3941  0.4786
  181SLPC   C3120632   3.709   0.690   3.568  0.2576  0.4094  0.7965
  181SLPC   O3220633   3.613   0.700   3.494  0.1334  0.1321  0.4253
  181SLPC   C3220634   3.691   0.694   3.712  0.2443 -0.2751  0.2492
  181SLPC   H2X20635   3.788   0.694   3.767 -0.1387  1.8114  1.0271
  181SLPC   H2Y20636   3.630   0.608   3.747 -0.9389  0.2685 -0.4195
  181SLPC   C2320637   4.103   1.039   3.738 -0.6166 -0.6510  0.6223
  181SLPC   H3R20638   4.186   1.097   3.784 -1.6339 -0.6370  2.5240
  181SLPC   H3S20639   4.134   0.934   3.757  2.5845  0.2580  0.9812
  181SLPC   C2420640   3.989   1.089   3.825 -0.1937  0.9808 -0.0511
  181SLPC   H4R20641   3.899   1.026   3.809  0.0584  0.1307  1.6593
  181SLPC   H4S20642   3.953   1.193   3.807  0.7930  1.6093  1.3899
  181SLPC   C2520643   4.032   1.073   3.972  0.2855  0.0269  1.0825
  181SLPC   H5R20644   4.127   1.125   3.996  0.5557  0.0786 -0.0359
  181SLPC   H5S20645   4.046   0.964   3.990  1.9542  0.3140  1.6430
  181SLPC   C2620646   3.928   1.120   4.072 -0.0280 -0.3333 -0.6553
  181SLPC   H6R20647   3.832   1.067   4.052 -0.0554  0.1753 -1.9774
  181SLPC   H6S20648   3.899   1.225   4.049 -1.1317 -0.3183  0.6637
  181SLPC   C2720649   3.981   1.116   4.213  0.3248  0.4933 -0.4114
  181SLPC   H7R20650   4.077   1.171   4.218  0.4558  0.2854 -0.6961
  181SLPC   H7S20651   3.997   1.007   4.226 -1.1246  0.2042 -0.8323
  181SLPC   C2820652   3.906   1.164   4.338  0.4218  0.0203  0.2026
  181SLPC   H8R20653   3.873   1.270   4.329 -1.1109 -0.3432  1.2709
  181SLPC   H8S20654   3.978   1.154   4.422  0.8225 -0.4523 -0.1893
  181SLPC   C2920655   3.782   1.080   4.379 -0.0295  0.1207  0.0327
  181SLPC   H9R20656   3.721   1.053   4.291 -0.5728  0.1620  0.3938
  181SLPC  C21020657   3.735   1.057   4.509  0.4017  0.7885 -0.5675
  181SLPC  H10R20658   3.635   1.013   4.515  0.9628 -0.5241 -0.6018
  181SLPC  C21120659   3.796   1.103   4.640  0.0778 -0.8357  0.0848
  181SLPC  H11R20660   3.906   1.088   4.643  0.3405  0.9360  0.9283
  181SLPC  H11S20661   3.754   1.027   4.710  0.4397  0.5025  1.8349
  181SLPC  C21220662   3.764   1.245   4.673  0.3391 -0.4520  0.3040
  181SLPC  H12R20663   3.692   1.299   4.609 -2.1416 -2.7486  0.9780
  181SLPC  C21320664   3.828   1.295   4.776 -0.4334 -0.3188 -0.6442
  181SLPC  H13R20665   3.834   1.404   4.789 -1.0597 -0.2661 -0.7741
  181SLPC  C21420666   3.924   1.223   4.872 -0.2681  0.5733  0.1901
  181SLPC  H14R20667   3.911   1.113   4.865 -0.4281  0.7011 -2.1892
  181SLPC  H14S20668   3.903   1.256   4.976  1.4181  0.1707  0.6881
  181SLPC  C21520669   4.069   1.270   4.847 -0.2915  0.5439 -0.2121
  181SLPC  H15R20670   4.069   1.380   4.864  0.2786  0.3580  1.1724
  181SLPC  H15S20671   4.093   1.256   4.739 -2.3189  0.4446 -0.6823
  181SLPC  C21620672   4.161   1.200   4.942  0.1420  0.6223 -0.8145
  181SLPC  H16R20673   4.261   1.197   4.894  0.5061  0.2365 -0.0575
  181SLPC  H16S20674   4.133   1.092   4.946  0.2086  0.6290  2.2157
  181SLPC  C21720675   4.169   1.259   5.080 -0.6087 -0.1626  0.1451
  181SLPC  H17R20676   4.071   1.235   5.126 -1.2345  1.6825 -0.1333
  181SLPC  H17S20677   4.167   1.370   5.071 -1.2422 -0.0725  1.1872
  181SLPC  C21820678   4.292   1.222   5.161  0.1379 -0.0130 -0.3983
  181SLPC  H18R20679   4.279   1.123   5.209  0.4416 -0.4848 -1.2703
  181SLPC  H18S20680   4.305   1.305   5.234 -0.5950  2.5503 -2.9796
  181SLPC  H18T20681   4.380   1.221   5.094  0.1303  1.4704 -0.4700
  181SLPC   C3320682   3.616   0.822   3.764 -0.6764 -0.7170 -0.1791
  181SLPC   H3X20683   3.506   0.811   3.747 -0.8303 -0.7607  0.7752
  181SLPC   H3Y20684   3.639   0.917   3.712 -0.1654  0.3641  1.8836
  181SLPC   C3420685   3.634   0.860   3.911 -0.0387 -0.0816 -0.7069
  181SLPC   H4X20686   3.577   0.951   3.940 -0.3101 -0.6961  0.7657
  181SLPC   H4Y20687   3.741   0.887   3.923 -0.2078  0.6379 -0.7314
  181SLPC   C3520688   3.600   0.740   4.001 -0.0854 -0.2748 -0.3471
  181SLPC   H5X20689   3.657   0.648   3.975  0.5511  0.3664 -1.2887
  181SLPC   H5Y20690   3.491   0.718   4.000  0.0192 -0.8715  0.2892
  181SLPC   C3620691   3.619   0.770   4.157 -0.5909  0.3860  0.3421
  181SLPC   H6X20692   3.559   0.862   4.174 -2.4059 -0.5513 -0.7314
  181SLPC   H6Y20693   3.727   0.796   4.151 -1.0515  2.6618  0.9196
  181SLPC   C3720694   3.584   0.661   4.259  0.3283 -0.0467  0.6189
  181SLPC   H7X20695   3.662   0.584   4.241  0.6117 -0.1093  2.0307
  181SLPC   H7Y20696   3.484   0.617   4.235 -0.4044  1.3818  0.9447
  181SLPC   C3820697   3.575   0.707   4.403 -0.2553  0.6467  0.0848
  181SLPC   H8X20698   3.657   0.781   4.408  0.0473  0.3673 -0.6063
  181SLPC   H8Y20699   3.604   0.618   4.462 -1.0957 -0.3200 -0.8960
  181SLPC   C3920700   3.432   0.760   4.440 -0.0380 -0.7320 -0.5139
  181SLPC   H9X20701   3.353   0.685   4.418 -1.4439  0.7728 -0.7949
  181SLPC   H9Y20702   3.404   0.853   4.386 -0.0415 -0.0035  0.7158
  181SLPC  C31020703   3.424   0.782   4.589  0.0636  0.3467  0.2420
  181SLPC  H10X20704   3.504   0.850   4.623  1.3384 -1.2439  0.5630
  181SLPC  H10Y20705   3.441   0.680   4.630 -0.2937  0.3884  0.5022
  181SLPC  C31120706   3.278   0.824   4.629 -0.0064  0.1161 -0.6096
  181SLPC  H11X20707   3.195   0.767   4.582 -0.5600  0.1933  0.2443
  181SLPC  H11Y20708   3.270   0.930   4.595 -1.1743  0.6579  1.1637
  181SLPC  C31220709   3.260   0.820   4.784 -0.3242 -0.5440 -0.4483
  181SLPC  H12X20710   3.342   0.884   4.823 -0.9101 -1.2360  2.0628
  181SLPC  H12Y20711   3.298   0.722   4.819  2.2247  0.4030 -0.3325
  181SLPC  C31320712   3.117   0.832   4.836  0.2446 -0.2348 -0.6667
  181SLPC  H13X20713   3.056   0.768   4.769 -1.2002  0.7459 -0.3373
  181SLPC  H13Y20714   3.087   0.938   4.825 -2.5740 -0.6524  1.8785
  181SLPC  C31420715   3.087   0.786   4.976 -0.0133  0.1914 -0.1064
  181SLPC  H14X20716   2.981   0.791   5.008  0.0815 -1.1517  0.4832
  181SLPC  H14Y20717   3.138   0.855   5.046  2.4243 -0.5369 -1.0651
  181SLPC  C31520718   3.150   0.647   5.003  0.4691  0.5005 -0.3599
  181SLPC  H15X20719   3.260   0.656   5.009  0.6111  1.0329 -2.7800
  181SLPC  H15Y20720   3.110   0.585   4.920 -2.0246  0.5275  0.7035
  181SLPC  C31620721   3.081   0.597   5.134 -0.1416  0.0438 -0.2575
  181SLPC  H16X20722   2.974   0.570   5.123  0.3564 -4.1859  2.8996
  181SLPC  H16Y20723   3.086   0.675   5.213  1.6559  0.2302 -0.5203
  181SLPC  C31720724   3.149   0.477   5.197 -0.6915 -0.0057 -0.2654
  181SLPC  H17X20725   3.249   0.495   5.241 -1.6706 -0.5218  2.3701
  181SLPC  H17Y20726   3.160   0.398   5.119  1.7268 -2.1658  2.0794
  181SLPC  C31820727   3.070   0.423   5.316 -0.1617  0.2019  0.3001
  181SLPC  H18X20728   3.072   0.497   5.398  0.1881  1.1325 -0.5315
  181SLPC  H18Y20729   3.114   0.327   5.350  1.4811  1.4143  1.7663
  181SLPC  H18Z20730   2.962   0.406   5.294 -0.5127  1.5028  0.9184
  182SLPC     N20731   0.679   1.374   2.663  0.0260 -0.0142 -0.2332
  182SLPC   C1320732   0.729   1.321   2.791 -0.2473  0.2186 -0.2009
  182SLPC  H13A20733   0.793   1.237   2.770  1.3900  1.7916 -1.8459
  182SLPC  H13B20734   0.785   1.392   2.850 -0.2237 -2.1532  2.9400
  182SLPC  H13C20735   0.653   1.285   2.860 -0.2310  1.3721  0.4444
  182SLPC   C1420736   0.650   1.250   2.579 -0.1974  0.4527  0.2934
  182SLPC  H14A20737   0.595   1.174   2.634 -0.4871 -0.5390 -1.2877
  182SLPC  H14B20738   0.603   1.271   2.485  3.8086 -1.1048 -2.3133
  182SLPC  H14C20739   0.748   1.213   2.552 -0.2955 -0.0298  0.5811
  182SLPC   C1520740   0.793   1.443   2.597  0.2572 -0.4459 -0.4011
  182SLPC  H15A20741   0.783   1.455   2.491 -1.7850  0.5312 -0.1459
  182SLPC  H15B20742   0.825   1.538   2.637  0.0864 -0.1180 -1.0389
  182SLPC  H15C20743   0.883   1.383   2.607  0.8673  0.4448 -0.4758
  182SLPC   C1220744   0.549   1.460   2.677 -0.2731 -0.0479  0.9463
  182SLPC  H12A20745   0.557   1.543   2.746  1.3722 -1.1905  2.1963
  182SLPC  H12B20746   0.472   1.393   2.714  0.8853 -1.0576  1.5891
  182SLPC   C1120747   0.507   1.520   2.537  0.0379  0.6354  0.0962
  182SLPC  H11A20748   0.400   1.552   2.538 -0.8850 -2.1572  1.3563
  182SLPC  H11B20749   0.509   1.432   2.469 -0.5579 -1.8182  2.9901
  182SLPC     P20750   0.612   1.759   2.578 -0.2463 -0.0161 -0.1472
  182SLPC   O1320751   0.751   1.765   2.636  0.3193 -0.1757  0.1372
  182SLPC   O1420752   0.575   1.870   2.504 -0.2605 -0.9199  0.4809
  182SLPC   O1220753   0.590   1.624   2.493  0.0437 -0.1919 -0.1250
  182SLPC   O1120754   0.519   1.744   2.704 -0.3171 -0.1557 -0.8447
  182SLPC    C120755   0.523   1.837   2.813  0.2060 -1.3244 -0.0430
  182SLPC    HA20756   0.571   1.935   2.791  2.1402 -2.5489 -1.5530
  182SLPC    HB20757   0.420   1.842   2.854  0.0684 -0.8013 -0.4370
  182SLPC    C220758   0.613   1.792   2.932  0.5990  0.0418 -0.2886
  182SLPC    HS20759   0.720   1.786   2.903  0.1936 -1.0432 -1.7124
  182SLPC   O2120760   0.565   1.663   2.967 -0.1077 -0.1591  0.0447
  182SLPC   C2120761   0.644   1.597   3.056  0.2772 -0.2061 -0.1669
  182SLPC   O2220762   0.747   1.638   3.100  0.2357  0.8716 -0.1139
  182SLPC   C2220763   0.582   1.465   3.094 -0.8250 -0.5723  0.5057
  182SLPC   H2R20764   0.489   1.499   3.145 -0.7773  3.6156 -1.7142
  182SLPC   H2S20765   0.553   1.401   3.008  1.2223 -2.1096  0.8962
  182SLPC    C320766   0.596   1.898   3.044 -0.7035 -0.9000  0.2145
  182SLPC    HX20767   0.488   1.923   3.053 -0.7346 -1.2418  0.8807
  182SLPC    HY20768   0.646   1.994   3.018 -1.2497 -0.6986 -0.1036
  182SLPC   O3120769   0.635   1.858   3.180  0.1798 -0.6381 -0.6440
  182SLPC   C3120770   0.764   1.893   3.214  0.9185  0.2269 -0.0447
  182SLPC   O3220771   0.841   1.946   3.137  0.3300 -0.0409 -0.4159
  182SLPC   C3220772   0.798   1.863   3.358  1.3490 -0.1653 -0.3982
  182SLPC   H2X20773   0.788   1.753   3.368  0.6496 -0.0296  0.5794
  182SLPC   H2Y20774   0.718   1.908   3.421 -0.1730 -1.5044 -1.3014
  182SLPC   C2320775   0.664   1.375   3.189 -0.0019  0.5191  0.3738
  182SLPC   H3R20776   0.757   1.343   3.137 -1.6304 -0.3767 -2.1807
  182SLPC   H3S20777   0.605   1.282   3.200 -1.3857  0.7569 -3.5967
  182SLPC   C2420778   0.702   1.439   3.327  1.0348  0.3016  0.3025
  182SLPC   H4R20779   0.606   1.455   3.380  1.5853  0.4011  1.2876
  182SLPC   H4S20780   0.756   1.535   3.319 -1.2299  1.8471  2.1984
  182SLPC   C2520781   0.778   1.337   3.414  0.2632 -0.5531  0.1872
  182SLPC   H5R20782   0.868   1.307   3.355 -1.1570 -0.6799 -2.0603
  182SLPC   H5S20783   0.721   1.243   3.428  1.8098 -1.4948  0.3786
  182SLPC   C2620784   0.820   1.386   3.559 -0.3341  0.5229  0.1793
  182SLPC   H6R20785   0.867   1.487   3.558  1.4493 -0.2649  0.8913
  182SLPC   H6S20786   0.888   1.312   3.605  0.1086  2.4345  2.8356
  182SLPC   C2720787   0.701   1.390   3.650 -0.0493 -0.0488  0.2085
  182SLPC   H7R20788   0.643   1.299   3.622  0.5038 -0.2324 -0.3562
  182SLPC   H7S20789   0.637   1.476   3.619  2.7733  1.6410 -1.3637
  182SLPC   C2820790   0.733   1.384   3.802 -0.4367 -0.3602  0.2577
  182SLPC   H8R20791   0.650   1.428   3.862  0.8353  0.6555  1.3236
  182SLPC   H8S20792   0.811   1.461   3.822 -0.4230 -0.5602  1.0179
  182SLPC   C2920793   0.768   1.249   3.854 -0.7541 -0.0765  0.7680
  182SLPC   H9R20794   0.764   1.172   3.775  0.1922 -1.9365  2.4266
  182SLPC  C21020795   0.809   1.217   3.981 -0.2484  0.4348 -0.2656
  182SLPC  H10R20796   0.849   1.117   4.002  0.7858  0.7676 -0.5908
  182SLPC  C21120797   0.809   1.309   4.099 -0.1640  1.2109 -0.2595
  182SLPC  H11R20798   0.719   1.275   4.155  1.0372  1.3750  1.8992
  182SLPC  H11S20799   0.803   1.415   4.067 -0.9606  1.4217  0.5319
  182SLPC  C21220800   0.931   1.292   4.185  0.2841  1.1761  0.0366
  182SLPC  H12R20801   1.031   1.308   4.143  1.9161 -1.2492  2.6837
  182SLPC  C21320802   0.939   1.228   4.299  0.2356  0.2455 -0.8432
  182SLPC  H13R20803   1.043   1.211   4.333  0.0349 -0.8633 -0.7566
  182SLPC  C21420804   0.834   1.158   4.376 -0.3844  0.1959 -0.6707
  182SLPC  H14R20805   0.735   1.206   4.367  0.3019  1.4199 -2.2893
  182SLPC  H14S20806   0.863   1.170   4.482 -3.2612  0.6189  0.1340
  182SLPC  C21520807   0.821   1.011   4.332  0.1710 -0.6746 -0.0427
  182SLPC  H15R20808   0.920   0.960   4.330 -0.1277 -1.2472 -0.6641
  182SLPC  H15S20809   0.787   1.012   4.226  0.2013  0.3816 -0.0553
  182SLPC  C21620810   0.725   0.943   4.425  0.0619  0.4573  0.5074
  182SLPC  H16R20811   0.619   0.966   4.405 -0.5148 -1.4250  1.1417
  182SLPC  H16S20812   0.764   0.965   4.527  0.3388 -0.4020  0.5946
  182SLPC  C21720813   0.735   0.794   4.416 -0.1492 -0.1463  0.4834
  182SLPC  H17R20814   0.741   0.769   4.308  0.4847  2.9650 -0.2956
  182SLPC  H17S20815   0.641   0.747   4.454 -1.9704  2.3604 -0.6564
  182SLPC  C21820816   0.840   0.729   4.501 -0.1390  0.7139  0.3634
  182SLPC  H18R20817   0.831   0.620   4.520  1.2325  0.5193 -0.0611
  182SLPC  H18S20818   0.849   0.780   4.600 -0.8234  1.1699  0.2001
  182SLPC  H18T20819   0.942   0.750   4.463 -0.2816  0.4058 -0.1983
  182SLPC   C3320820   0.945   1.892   3.402  0.5241  0.4349 -0.3293
  182SLPC   H3X20821   0.948   2.001   3.424  0.3757  0.5629 -0.9190
  182SLPC   H3Y20822   1.010   1.870   3.314  1.7145 -1.2358  0.9021
  182SLPC   C3420823   0.979   1.803   3.528  0.6382 -0.1719  0.2368
  182SLPC   H4X20824   1.076   1.839   3.568  0.9472  2.3494 -2.4063
  182SLPC   H4Y20825   1.005   1.701   3.491  0.8399 -0.3208  0.7896
  182SLPC   C3520826   0.862   1.793   3.633 -0.1884 -0.0135  0.2254
  182SLPC   H5X20827   0.775   1.733   3.599  0.9958 -1.7150  0.0161
  182SLPC   H5Y20828   0.824   1.897   3.641  2.6527  1.4325 -2.5945
  182SLPC   C3620829   0.908   1.733   3.771 -0.8866  0.3820  0.0335
  182SLPC   H6X20830   0.992   1.799   3.801 -0.6251 -0.3479  0.9639
  182SLPC   H6Y20831   0.950   1.632   3.754 -1.3049 -0.1401  1.8915
  182SLPC   C3720832   0.798   1.757   3.878  0.0852  0.4762  0.7073
  182SLPC   H7X20833   0.731   1.668   3.876 -0.4419  0.8108  2.1928
  182SLPC   H7Y20834   0.736   1.842   3.841  0.4383  0.9821  1.2558
  182SLPC   C3820835   0.849   1.768   4.024 -0.1091  0.1268 -0.1394
  182SLPC   H8X20836   0.922   1.851   4.024  0.8754 -0.6935  0.9028
  182SLPC   H8Y20837   0.897   1.675   4.063 -1.1531 -0.2654  0.2654
  182SLPC   C3920838   0.738   1.787   4.123 -0.5523  0.9348  0.4126
  182SLPC   H9X20839   0.659   1.709   4.130  0.9156 -0.7312 -0.6472
  182SLPC   H9Y20840   0.667   1.867   4.094 -1.0781  0.0907 -0.7079
  182SLPC  C31020841   0.790   1.803   4.270  0.4212 -0.4322  0.5423
  182SLPC  H10X20842   0.699   1.812   4.334 -0.9052 -1.8005 -1.0324
  182SLPC  H10Y20843   0.853   1.893   4.282  0.9632 -1.1073  3.4366
  182SLPC  C31120844   0.867   1.682   4.325 -0.4798 -0.8940 -0.7003
  182SLPC  H11X20845   0.975   1.690   4.298 -0.4411  1.4385 -0.0998
  182SLPC  H11Y20846   0.816   1.596   4.276 -2.8820  0.6938 -1.1452
  182SLPC  C31220847   0.859   1.675   4.482 -0.4130 -0.1178 -0.2649
  182SLPC  H12X20848   0.877   1.568   4.506 -0.5551 -0.8875 -3.1756
  182SLPC  H12Y20849   0.750   1.690   4.500  0.0361  0.6961  2.0091
  182SLPC  C31320850   0.944   1.773   4.557  0.6326  0.0729 -0.0534
  182SLPC  H13X20851   0.936   1.879   4.526  0.7110 -0.5462 -2.3696
  182SLPC  H13Y20852   1.051   1.751   4.539  0.4770 -1.4135  0.6325
  182SLPC  C31420853   0.928   1.749   4.713  0.1351 -0.2105 -0.3235
  182SLPC  H14X20854   0.989   1.657   4.729  1.9388  0.6290 -1.9120
  182SLPC  H14Y20855   0.820   1.729   4.726  0.4416 -1.5994  0.2573
  182SLPC  C31520856   0.955   1.872   4.796 -0.2736 -0.2425  0.1953
  182SLPC  H15X20857   0.897   1.961   4.764 -1.7948 -0.8403  1.2043
  182SLPC  H15Y20858   1.062   1.903   4.787 -0.1164 -0.5701  0.9098
  182SLPC  C31620859   0.918   1.836   4.941  0.3271  0.4335 -0.1815
  182SLPC  H16X20860   0.975   1.745   4.969  0.1645  0.6795  1.0010
  182SLPC  H16Y20861   0.811   1.812   4.958  0.5637 -1.0181 -0.6170
  182SLPC  C31720862   0.954   1.953   5.036 -0.0206 -0.4127 -0.9478
  182SLPC  H17X20863   0.875   2.031   5.028  2.0217  1.6718 -2.3119
  182SLPC  H17Y20864   1.050   1.995   4.998 -0.4745  0.1564 -1.4772
  182SLPC  C31820865   0.959   1.912   5.185 -0.1369 -0.2943 -0.5559
  182SLPC  H18X20866   1.043   1.840   5.196  1.2285  0.9479 -2.2915
  182SLPC  H18Y20867   0.866   1.858   5.214 -1.4823  1.5458 -1.3081
  182SLPC  H18Z20868   0.982   1.998   5.251  0.7558 -2.1550  1.7163
  183SLPC     N20869   1.725   3.233   2.206 -0.7516 -0.0328  0.0644
  183SLPC   C1320870   1.707   3.386   2.225 -0.4313 -0.0545  0.0153
  183SLPC  H13A20871   1.643   3.393   2.313 -0.3863 -2.5465  0.3058
  183SLPC  H13B20872   1.796   3.445   2.241 -0.3878 -0.5488  1.8497
  183SLPC  H13C20873   1.662   3.429   2.137 -1.1437 -1.1863 -0.2016
  183SLPC   C1420874   1.826   3.210   2.098 -0.0352 -0.1278 -0.0865
  183SLPC  H14A20875   1.794   3.259   2.007 -1.4361 -0.8677 -0.0253
  183SLPC  H14B20876   1.922   3.250   2.128  0.2022 -0.7230 -0.0291
  183SLPC  H14C20877   1.850   3.107   2.078  0.7885 -0.1100  0.7420
  183SLPC   C1520878   1.599   3.184   2.168  0.0798 -0.3416  0.1217
  183SLPC  H15A20879   1.540   3.185   2.259  1.0482  2.7165  0.8371
  183SLPC  H15B20880   1.552   3.235   2.085  2.4721 -0.7304 -1.5336
  183SLPC  H15C20881   1.615   3.084   2.132  0.4172 -0.6551  1.1086
  183SLPC   C1220882   1.769   3.185   2.341 -0.7961 -0.4319  0.1565
  183SLPC  H12A20883   1.707   3.235   2.413  1.8439  2.8771  0.3795
  183SLPC  H12B20884   1.867   3.227   2.360  0.9446 -3.0563 -2.0697
  183SLPC   C1120885   1.765   3.037   2.370  0.4181 -0.3718  0.3685
  183SLPC  H11A20886   1.664   3.000   2.344 -0.1747  2.3934 -1.6824
  183SLPC  H11B20887   1.777   3.028   2.480  0.0902  0.8459  0.5170
  183SLPC     P20888   2.012   2.974   2.351  0.3101 -0.1973  0.1243
  183SLPC   O1320889   2.100   2.884   2.272 -0.1935 -0.2652  0.7402
  183SLPC   O1420890   2.054   3.117   2.361  0.3507  0.2955 -0.0480
  183SLPC   O1220891   1.861   2.967   2.293  0.0996  0.2937  0.4669
  183SLPC   O1120892   1.990   2.918   2.496  0.5913  0.2548  0.0248
  183SLPC    C120893   1.920   2.791   2.516  0.0908 -0.0291 -0.4461
  183SLPC    HA20894   1.850   2.764   2.434 -0.0048  0.8870 -0.6818
  183SLPC    HB20895   2.001   2.715   2.522 -0.3638 -0.4590  0.4546
  183SLPC    C220896   1.837   2.778   2.646  0.3053  0.1723  0.5642
  183SLPC    HS20897   1.734   2.821   2.649  0.5973  0.8709  3.2674
  183SLPC   O2120898   1.912   2.832   2.750 -0.1964 -0.6152  0.3404
  183SLPC   C2120899   1.895   2.967   2.772  0.2228  0.4227 -0.4265
  183SLPC   O2220900   1.807   3.037   2.729  0.1486  0.1232  0.2501
  183SLPC   C2220901   2.005   3.005   2.866  0.3325  0.0578 -0.0995
  183SLPC   H2R20902   2.022   2.927   2.944 -1.7528  0.1534  0.5270
  183SLPC   H2S20903   2.095   3.003   2.801 -0.7898 -0.8234 -1.6781
  183SLPC    C320904   1.801   2.624   2.673 -0.0973 -0.4741 -0.2312
  183SLPC    HX20905   1.899   2.572   2.681  1.5055  2.5084  1.2249
  183SLPC    HY20906   1.750   2.594   2.580  1.3505 -1.6288 -0.6852
  183SLPC   O3120907   1.716   2.608   2.781  0.0568  0.1881  0.4877
  183SLPC   C3120908   1.730   2.505   2.858 -0.7785  0.3785 -0.3916
  183SLPC   O3220909   1.806   2.414   2.838 -0.6894 -0.0120 -0.0703
  183SLPC   C3220910   1.660   2.527   2.990 -0.1875 -0.0380 -0.1243
  183SLPC   H2X20911   1.726   2.509   3.077 -0.6814  1.6542  0.6399
  183SLPC   H2Y20912   1.574   2.456   2.985  1.5236 -2.1500 -2.6697
  183SLPC   C2320913   1.994   3.132   2.956 -0.9357  0.0359  0.4046
  183SLPC   H3R20914   1.941   3.105   3.049  0.3206  0.3690  1.2389
  183SLPC   H3S20915   1.932   3.210   2.905  1.5778  0.8845 -1.5838
  183SLPC   C2420916   2.138   3.178   2.983  0.2154 -0.2593  0.4886
  183SLPC   H4R20917   2.193   3.205   2.890  0.4193  1.0329  0.9627
  183SLPC   H4S20918   2.194   3.089   3.019  0.2182 -0.4252  0.0692
  183SLPC   C2520919   2.138   3.292   3.091 -0.0039  1.1405  0.5793
  183SLPC   H5R20920   2.031   3.323   3.090 -0.1879  0.4991 -0.4933
  183SLPC   H5S20921   2.204   3.371   3.050  2.0245 -1.2503 -0.9950
  183SLPC   C2620922   2.182   3.251   3.234  0.2790  0.0605  0.4625
  183SLPC   H6R20923   2.292   3.238   3.235  0.1906 -1.3748 -1.5716
  183SLPC   H6S20924   2.139   3.152   3.260 -0.2139  0.1246 -0.0718
  183SLPC   C2720925   2.150   3.360   3.341 -0.8001 -0.8347 -0.3443
  183SLPC   H7R20926   2.043   3.364   3.369 -0.6811 -1.2491  0.1786
  183SLPC   H7S20927   2.168   3.455   3.287  0.4817 -0.2529  1.0283
  183SLPC   C2820928   2.244   3.351   3.448  0.1025  0.5165 -0.5480
  183SLPC   H8R20929   2.232   3.432   3.524 -0.0312  1.4439 -1.5348
  183SLPC   H8S20930   2.347   3.339   3.408 -0.9061 -3.5955 -2.4279
  183SLPC   C2920931   2.217   3.226   3.533  0.1143  0.1479 -0.0988
  183SLPC   H9R20932   2.172   3.146   3.472  0.6100 -1.1897  1.2310
  183SLPC  C21020933   2.243   3.216   3.663 -0.0310 -0.1306  0.9806
  183SLPC  H10R20934   2.211   3.125   3.716  1.4563 -1.0279  0.3969
  183SLPC  C21120935   2.313   3.319   3.749  0.3771 -0.2894  0.4219
  183SLPC  H11R20936   2.239   3.388   3.796  0.1306 -1.3435  1.6352
  183SLPC  H11S20937   2.364   3.400   3.691  1.9026 -1.2059  0.4360
  183SLPC  C21220938   2.405   3.255   3.845 -0.7582  0.0197  0.7823
  183SLPC  H12R20939   2.359   3.202   3.930 -1.6298 -0.8108 -0.1796
  183SLPC  C21320940   2.539   3.243   3.838 -0.1785 -1.0172 -0.1356
  183SLPC  H13R20941   2.589   3.198   3.925  0.1714 -2.5379 -1.0817
  183SLPC  C21420942   2.619   3.299   3.724 -0.0825  0.3820  0.0295
  183SLPC  H14R20943   2.657   3.402   3.740 -1.2690  0.8291  0.0250
  183SLPC  H14S20944   2.559   3.294   3.630 -2.0566  3.5224  0.9758
  183SLPC  C21520945   2.750   3.210   3.705  0.3398 -0.4899 -0.4236
  183SLPC  H15R20946   2.801   3.183   3.800  0.0868 -0.9016 -0.4038
  183SLPC  H15S20947   2.818   3.274   3.645 -1.4234 -0.3992 -2.4698
  183SLPC  C21620948   2.726   3.084   3.627 -0.2597  0.7141 -0.2322
  183SLPC  H16R20949   2.684   3.103   3.526 -1.4923 -0.9477 -0.0828
  183SLPC  H16S20950   2.644   3.024   3.674 -0.4067 -1.4618 -3.0093
  183SLPC  C21720951   2.856   2.997   3.613 -0.3176 -0.1387 -0.0924
  183SLPC  H17R20952   2.876   2.915   3.685  1.8156 -0.0367 -0.4999
  183SLPC  H17S20953   2.925   3.081   3.636 -0.4769 -0.0995  0.2482
  183SLPC  C21820954   2.875   2.948   3.465  0.0189  0.4776  0.1940
  183SLPC  H18R20955   2.871   3.027   3.387  1.2848  2.0698  1.6425
  183SLPC  H18S20956   2.813   2.860   3.438  0.7065 -0.1092  0.5226
  183SLPC  H18T20957   2.983   2.923   3.462  0.1194  0.9958 -0.8776
  183SLPC   C3320958   1.607   2.671   3.022 -0.1900 -0.2254 -0.0770
  183SLPC   H3X20959   1.672   2.744   2.969  0.6658 -1.2505 -0.4610
  183SLPC   H3Y20960   1.609   2.683   3.132 -1.2666 -0.0323 -0.0696
  183SLPC   C3420961   1.463   2.691   2.978  0.0769 -0.1351 -0.2482
  183SLPC   H4X20962   1.407   2.596   2.990  1.5192 -0.7020  2.8951
  183SLPC   H4Y20963   1.454   2.703   2.868 -1.9019  0.3671 -0.0749
  183SLPC   C3520964   1.388   2.809   3.049  0.4897 -0.4303  0.7330
  183SLPC   H5X20965   1.291   2.832   3.000  0.0247  1.3416  2.3799
  183SLPC   H5Y20966   1.458   2.893   3.030  0.9580 -1.3188 -1.8709
  183SLPC   C3620967   1.355   2.784   3.196  0.0264  0.6341 -0.0131
  183SLPC   H6X20968   1.378   2.679   3.223 -1.5145  0.7122  1.7959
  183SLPC   H6Y20969   1.245   2.797   3.199 -0.1343 -0.3019 -1.1318
  183SLPC   C3720970   1.421   2.877   3.285 -0.7651 -0.1399 -0.4330
  183SLPC   H7X20971   1.378   2.979   3.280 -3.4197 -1.1479  0.3779
  183SLPC   H7Y20972   1.529   2.874   3.257 -0.2989  0.1645  1.1831
  183SLPC   C3820973   1.419   2.831   3.434 -0.5213  0.7824 -0.2201
  183SLPC   H8X20974   1.484   2.744   3.455 -2.3074 -0.9869 -1.6277
  183SLPC   H8Y20975   1.320   2.789   3.463  0.7011 -2.5379 -0.4554
  183SLPC   C3920976   1.463   2.939   3.539 -0.2654  0.9133  0.5249
  183SLPC   H9X20977   1.388   3.020   3.541 -4.7656 -2.8045 -0.9407
  183SLPC   H9Y20978   1.565   2.981   3.524  0.3108 -1.0650 -1.8294
  183SLPC  C31020979   1.479   2.881   3.679 -0.7793 -1.0190  0.2940
  183SLPC  H10X20980   1.567   2.813   3.679 -1.1716 -1.5478 -0.9722
  183SLPC  H10Y20981   1.390   2.828   3.719 -0.1286 -1.3310  1.3739
  183SLPC  C31120982   1.500   3.005   3.766  0.2023  0.6857 -0.4265
  183SLPC  H11X20983   1.411   3.072   3.767 -2.2213 -2.3593  1.2519
  183SLPC  H11Y20984   1.589   3.067   3.740  1.4327 -0.2845  1.3315
  183SLPC  C31220985   1.511   2.959   3.910 -0.2026 -0.0459 -0.0126
  183SLPC  H12X20986   1.596   2.887   3.907  0.7727  1.0759 -0.9071
  183SLPC  H12Y20987   1.418   2.904   3.932 -1.8819  1.2023 -3.2695
  183SLPC  C31320988   1.546   3.069   4.006  0.1026  0.6931 -0.0972
  183SLPC  H13X20989   1.462   3.138   4.027 -0.0196  0.3062  0.7265
  183SLPC  H13Y20990   1.638   3.121   3.970 -0.1686  0.5830 -0.9531
  183SLPC  C31420991   1.586   3.026   4.149  0.3197  0.1889  0.3757
  183SLPC  H14X20992   1.683   2.971   4.140  0.6639  0.9007 -0.4312
  183SLPC  H14Y20993   1.508   2.956   4.185 -1.6590  1.8653 -0.4389
  183SLPC  C31520994   1.602   3.145   4.240 -0.0976  0.0635 -0.1628
  183SLPC  H15X20995   1.508   3.204   4.231 -1.7353 -2.3243  0.1646
  183SLPC  H15Y20996   1.684   3.212   4.205 -0.5717  0.3610 -0.7214
  183SLPC  C31620997   1.625   3.102   4.385 -0.2469  0.1096 -0.0014
  183SLPC  H16X20998   1.538   3.041   4.417 -1.4013  2.4362  1.5794
  183SLPC  H16Y20999   1.616   3.181   4.464  0.2341  1.2811 -1.0812
  183SLPC  C31721000   1.767   3.053   4.421  0.6264  0.3672  1.2886
  183SLPC  H17X21001   1.790   2.968   4.353  1.8293 -0.0126  2.1376
  183SLPC  H17Y21002   1.745   3.007   4.519  0.3761 -0.7888  0.7058
  183SLPC  C31821003   1.890   3.149   4.423 -0.4109 -0.3625 -0.2216
  183SLPC  H18X21004   1.884   3.235   4.493 -2.1974  0.4889 -1.3650
  183SLPC  H18Y21005   1.901   3.198   4.324  0.2806  0.5780  0.3038
  183SLPC  H18Z21006   1.981   3.088   4.443 -0.4914 -0.6611 -0.7629
  184SLPC     N21007   2.357   4.051   2.637 -0.2783 -0.0994 -0.3527
  184SLPC   C1321008   2.247   4.103   2.545 -0.0518  0.3220  0.0338
  184SLPC  H13A21009   2.225   4.205   2.570  2.7659  1.3894 -1.3882
  184SLPC  H13B21010   2.267   4.094   2.439  1.5770 -0.5931  0.3768
  184SLPC  H13C21011   2.160   4.039   2.544  1.3517 -1.7030 -0.2473
  184SLPC   C1421012   2.302   4.062   2.777 -0.2964  0.1157  0.6966
  184SLPC  H14A21013   2.367   4.014   2.849  0.6584  0.2996 -0.0308
  184SLPC  H14B21014   2.284   4.165   2.804  0.0619  0.2156  0.5647
  184SLPC  H14C21015   2.204   4.019   2.769 -0.4647  0.0220  2.7405
  184SLPC   C1521016   2.477   4.143   2.629  0.0049  0.1121  0.7281
  184SLPC  H15A21017   2.568   4.094   2.663  0.6391 -0.6315 -1.8437
  184SLPC  H15B21018   2.497   4.159   2.524  1.5654 -3.1046  0.4155
  184SLPC  H15C21019   2.457   4.238   2.676 -0.6832 -0.5953  1.9422
  184SLPC   C1221020   2.386   3.908   2.600  0.0802 -0.0744 -0.0189
  184SLPC  H12A21021   2.407   3.913   2.494  0.2594  0.2482  0.0283
  184SLPC  H12B21022   2.300   3.846   2.614  0.0419  0.4940  2.6765
  184SLPC   C1121023   2.509   3.837   2.667  0.2596 -0.5691 -0.3049
  184SLPC  H11A21024   2.507   3.730   2.636 -1.3596 -0.8084  0.5092
  184SLPC  H11B21025   2.487   3.857   2.774  0.1818  1.5833 -0.6805
  184SLPC     P21026   2.766   3.837   2.697 -0.2644 -0.4995 -0.1444
  184SLPC   O1321027   2.805   3.718   2.623 -0.3218  0.6287 -0.1612
  184SLPC   O1421028   2.867   3.942   2.714  0.4529  0.0433 -0.3667
  184SLPC   O1221029   2.637   3.899   2.628 -0.4082  0.0618 -0.2442
  184SLPC   O1121030   2.732   3.795   2.844  0.2341  0.1375 -0.3036
  184SLPC    C121031   2.693   3.896   2.933 -0.9391 -0.4783  0.0217
  184SLPC    HA21032   2.651   3.991   2.893  1.5951  1.3533  1.3724
  184SLPC    HB21033   2.617   3.841   2.992 -0.7474 -2.1736 -1.2411
  184SLPC    C221034   2.791   3.921   3.043 -0.3340 -0.2148 -0.1524
  184SLPC    HS21035   2.867   3.980   2.988 -0.8111 -1.4959 -2.2554
  184SLPC   O2121036   2.839   3.796   3.093 -0.4427  0.8237  0.2866
  184SLPC   C2121037   2.955   3.799   3.164 -0.4222  0.0105  0.0382
  184SLPC   O2221038   3.021   3.903   3.176 -0.5625 -0.2795  0.1026
  184SLPC   C2221039   3.001   3.658   3.211  0.9939  0.1570  0.4779
  184SLPC   H2R21040   2.912   3.591   3.214  0.7963  0.2922 -1.2496
  184SLPC   H2S21041   3.078   3.619   3.142  0.1667  2.1059 -1.6814
  184SLPC    C321042   2.719   4.012   3.153 -0.5346  0.0422 -0.3814
  184SLPC    HX21043   2.652   3.937   3.201 -0.0154 -0.1957 -0.0251
  184SLPC    HY21044   2.650   4.087   3.108 -1.4589 -0.9690 -0.6920
  184SLPC   O3121045   2.808   4.064   3.251 -0.4102 -0.4210 -0.0407
  184SLPC   C3121046   2.866   4.178   3.223  0.6416 -0.0400 -0.2407
  184SLPC   O3221047   2.851   4.238   3.117  0.1886 -0.2663  0.4285
  184SLPC   C3221048   2.944   4.217   3.348  0.3286  0.2960 -0.6173
  184SLPC   H2X21049   2.988   4.125   3.391 -0.9295  0.8111  1.9874
  184SLPC   H2Y21050   2.862   4.247   3.417  1.0227 -3.4128  2.0919
  184SLPC   C2321051   3.068   3.657   3.352  0.3127 -0.2718 -0.0804
  184SLPC   H3R21052   2.991   3.693   3.424 -1.2623 -3.1101 -0.2078
  184SLPC   H3S21053   3.156   3.725   3.354 -0.4896  0.7880 -0.2064
  184SLPC   C2421054   3.109   3.510   3.393 -0.0874 -0.3254 -0.3928
  184SLPC   H4R21055   3.189   3.476   3.325  0.3463 -0.7570  0.3330
  184SLPC   H4S21056   3.019   3.448   3.373 -1.3108  1.9047 -2.3768
  184SLPC   C2521057   3.163   3.508   3.542  0.0188  0.0835 -0.1861
  184SLPC   H5R21058   3.242   3.585   3.553  1.1110 -1.1938  1.5489
  184SLPC   H5S21059   3.212   3.409   3.559 -2.2942 -0.7595  2.2194
  184SLPC   C2621060   3.045   3.525   3.641  0.2358 -0.4789 -0.1427
  184SLPC   H6R21061   2.972   3.441   3.634  1.8338 -1.9654  0.5211
  184SLPC   H6S21062   3.002   3.624   3.615  1.0779  0.6068  2.3702
  184SLPC   C2721063   3.072   3.547   3.792 -0.5839  0.2994 -0.0715
  184SLPC   H7R21064   2.994   3.621   3.817  0.2228  2.3266 -3.0903
  184SLPC   H7S21065   3.167   3.603   3.805  0.7402 -1.4995 -1.4763
  184SLPC   C2821066   3.086   3.414   3.877  0.0129 -0.2829 -0.3757
  184SLPC   H8R21067   2.991   3.358   3.894  1.3242 -1.8548  2.3546
  184SLPC   H8S21068   3.103   3.446   3.983 -0.4568 -0.7323 -0.1613
  184SLPC   C2921069   3.202   3.317   3.826  0.4281 -0.0931  0.2563
  184SLPC   H9R21070   3.182   3.256   3.736 -0.0812  0.4168  0.0153
  184SLPC  C21021071   3.321   3.309   3.889 -0.6627 -0.1467 -0.3914
  184SLPC  H10R21072   3.392   3.233   3.851  1.7445  2.2002 -0.9310
  184SLPC  C21121073   3.379   3.394   3.998  0.2706  0.2398  0.2932
  184SLPC  H11R21074   3.337   3.357   4.094  3.1417 -0.4223  1.3886
  184SLPC  H11S21075   3.353   3.502   3.991  1.6097  0.5062 -0.9664
  184SLPC  C21221076   3.530   3.383   3.995 -0.3479  0.2820 -0.0710
  184SLPC  H12R21077   3.582   3.336   3.911 -0.3781  0.9546 -0.4706
  184SLPC  C21321078   3.595   3.407   4.110  0.0356 -0.1566  0.6670
  184SLPC  H13R21079   3.703   3.388   4.105  0.0836  0.1362  0.5386
  184SLPC  C21421080   3.553   3.451   4.241 -0.1848 -0.2309 -0.5232
  184SLPC  H14R21081   3.542   3.361   4.305  2.4704  0.1627  0.6194
  184SLPC  H14S21082   3.456   3.506   4.250  0.5584  0.9141  0.9762
  184SLPC  C21521083   3.658   3.538   4.313  0.4020  0.6424 -0.3949
  184SLPC  H15R21084   3.688   3.622   4.247  0.4813 -1.4104 -3.1779
  184SLPC  H15S21085   3.756   3.488   4.326  0.3840  0.0379 -2.1962
  184SLPC  C21621086   3.613   3.583   4.454  0.1326  0.3419  0.4853
  184SLPC  H16R21087   3.570   3.500   4.513 -0.4113  1.2032  1.3336
  184SLPC  H16S21088   3.524   3.650   4.443  0.8799  1.5139  1.2917
  184SLPC  C21721089   3.723   3.646   4.541  0.0906 -0.0999 -0.0297
  184SLPC  H17R21090   3.768   3.725   4.476  1.3475 -1.2438 -0.5773
  184SLPC  H17S21091   3.793   3.565   4.570 -2.6481 -1.8412  2.2510
  184SLPC  C21821092   3.673   3.717   4.662  0.1416  0.5260 -0.3323
  184SLPC  H18R21093   3.623   3.648   4.733  2.0230 -0.3605  0.1918
  184SLPC  H18S21094   3.600   3.794   4.632  0.7855  0.9548 -0.8178
  184SLPC  H18T21095   3.760   3.767   4.710 -0.0236  1.6077 -1.1267
  184SLPC   C3321096   3.044   4.337   3.336  1.0030  0.5255 -0.0913
  184SLPC   H3X21097   3.057   4.361   3.444  1.9066 -0.9937  0.1664
  184SLPC   H3Y21098   2.999   4.424   3.285 -1.6856  0.0585  1.3014
  184SLPC   C3421099   3.183   4.306   3.280  0.0483  0.0585  0.2449
  184SLPC   H4X21100   3.169   4.268   3.177  0.3585  0.5978 -0.0043
  184SLPC   H4Y21101   3.237   4.225   3.333 -2.0199  0.4580  3.2017
  184SLPC   C3521102   3.264   4.434   3.249  0.3038  0.1220 -0.1208
  184SLPC   H5X21103   3.196   4.500   3.192 -1.8173 -3.5823 -2.2434
  184SLPC   H5Y21104   3.344   4.405   3.177  0.0113  0.1775 -0.4671
  184SLPC   C3621105   3.328   4.508   3.368 -0.6032 -0.3470 -0.4887
  184SLPC   H6X21106   3.251   4.546   3.438 -0.2666  0.1597 -0.3903
  184SLPC   H6Y21107   3.376   4.601   3.330 -1.7541 -0.2399 -1.7334
  184SLPC   C3721108   3.427   4.424   3.460  0.2173  0.4865  0.1986
  184SLPC   H7X21109   3.520   4.412   3.400 -1.7265 -1.0765 -2.7322
  184SLPC   H7Y21110   3.385   4.324   3.486 -1.1426  0.8013 -0.6661
  184SLPC   C3821111   3.466   4.503   3.593 -0.3471  0.3817 -0.3892
  184SLPC   H8X21112   3.388   4.500   3.672 -0.3231  1.5411 -0.3062
  184SLPC   H8Y21113   3.484   4.610   3.568  1.0472  0.9173  2.5033
  184SLPC   C3921114   3.607   4.455   3.652  0.2602 -0.5637  0.3635
  184SLPC   H9X21115   3.647   4.532   3.721 -2.2742  1.5389 -0.3118
  184SLPC   H9Y21116   3.681   4.446   3.570  0.6255  0.9233  0.5079
  184SLPC  C31021117   3.576   4.326   3.732  0.0879 -0.9897 -0.1615
  184SLPC  H10X21118   3.670   4.270   3.748  1.5195  0.9247 -1.4335
  184SLPC  H10Y21119   3.507   4.261   3.674 -0.3506 -1.3063  0.6951
  184SLPC  C31121120   3.522   4.361   3.870  0.2957  0.6227  0.0911
  184SLPC  H11X21121   3.436   4.296   3.895  1.1817 -0.9714 -0.8625
  184SLPC  H11Y21122   3.470   4.459   3.873  1.2500  1.1258  1.5586
  184SLPC  C31221123   3.623   4.360   3.985  0.3484  0.0751 -0.5007
  184SLPC  H12X21124   3.685   4.450   3.965 -1.6634  1.9470  1.1896
  184SLPC  H12Y21125   3.687   4.269   3.984  0.3705  0.0865 -0.2219
  184SLPC  C31321126   3.560   4.389   4.128 -0.9018  0.3226 -0.4732
  184SLPC  H13X21127   3.501   4.297   4.152 -0.4208  0.7518  2.8509
  184SLPC  H13Y21128   3.495   4.479   4.130  1.0702  1.8223  2.0469
  184SLPC  C31421129   3.663   4.410   4.236 -0.5790  0.3889  0.3532
  184SLPC  H14X21130   3.641   4.490   4.311  2.1369  1.5892 -0.0065
  184SLPC  H14Y21131   3.759   4.438   4.187 -0.1265 -2.9398 -0.9017
  184SLPC  C31521132   3.684   4.275   4.317 -0.0355 -0.7769  0.3567
  184SLPC  H15X21133   3.777   4.271   4.378  0.7077 -0.8554 -0.7511
  184SLPC  H15Y21134   3.680   4.192   4.243  0.5067  1.0021 -1.7739
  184SLPC  C31621135   3.573   4.255   4.428 -0.0574 -0.4322  0.8734
  184SLPC  H16X21136   3.485   4.209   4.378  1.9810 -1.3967 -2.1748
  184SLPC  H16Y21137   3.541   4.355   4.465  1.6686  1.4937 -2.3795
  184SLPC  C31721138   3.608   4.168   4.545  0.2317 -0.0640 -0.2111
  184SLPC  H17X21139   3.709   4.182   4.588 -0.1999  0.8608  0.5670
  184SLPC  H17Y21140   3.601   4.062   4.514 -0.2095 -0.0132 -0.2998
  184SLPC  C31821141   3.505   4.181   4.661  0.4226  0.0731  0.0700
  184SLPC  H18X21142   3.446   4.276   4.659  0.0651 -0.1359 -2.1885
  184SLPC  H18Y21143   3.553   4.151   4.756  0.5796 -0.5662 -0.2047
  184SLPC  H18Z21144   3.425   4.109   4.633 -0.5588  1.0706  0.2409
  185POPC     N21145   0.034   0.484   7.524 -0.4532  0.4575  0.0734
  185POPC   C1221146   0.042   0.609   7.435  0.2411  0.0061  0.4294
  185POPC  H12A21147   0.147   0.631   7.429  0.6941 -1.8520  0.9634
  185POPC  H12B21148  -0.007   0.695   7.480 -0.7579  0.4210 -1.3657
  185POPC   C1321149  -0.114   0.447   7.555 -0.0361 -0.6722 -0.8777
  185POPC  H13A21150  -0.106   0.355   7.610  2.3313  0.3144  0.5940
  185POPC  H13B21151  -0.160   0.527   7.612 -2.0262 -0.4188 -2.6615
  185POPC  H13C21152  -0.179   0.433   7.469 -1.2080 -1.2483  0.0773
  185POPC   C1421153   0.099   0.375   7.450 -0.1185  0.1429 -0.5166
  185POPC  H14A21154   0.199   0.396   7.417 -0.9903  2.0401 -2.1388
  185POPC  H14B21155   0.101   0.291   7.518  1.5467  0.9472  0.4740
  185POPC  H14C21156   0.036   0.352   7.365 -1.0401  0.5642  0.0261
  185POPC   C1521157   0.102   0.511   7.660  0.2167 -0.0540  0.3398
  185POPC  H15A21158   0.209   0.519   7.649  0.1855 -0.8170 -0.6790
  185POPC  H15B21159   0.079   0.423   7.718 -0.1898  0.3219  0.7464
  185POPC  H15C21160   0.079   0.603   7.711  0.8516  0.2710  0.0569
  185POPC   C1121161  -0.022   0.610   7.293 -1.1529  0.4479 -0.2472
  185POPC  H11A21162   0.020   0.524   7.237 -2.8111 -0.3719 -0.2930
  185POPC  H11B21163   0.005   0.703   7.238 -4.1875  2.0114  0.6945
  185POPC     P21164  -0.252   0.730   7.314  0.2239  0.1068  0.0751
  185POPC   O1321165  -0.179   0.834   7.387  0.6682  0.8033 -0.1005
  185POPC   O1421166  -0.394   0.696   7.348  0.3394  0.3932  0.0858
  185POPC   O1221167  -0.165   0.600   7.300 -0.8803  0.1800  0.1461
  185POPC   O1121168  -0.256   0.777   7.166  0.5162 -0.0371 -0.3284
  185POPC    C121169  -0.243   0.921   7.135 -1.1715 -0.1334 -0.1573
  185POPC    HA21170  -0.145   0.940   7.088 -0.3461 -1.9093  0.7440
  185POPC    HB21171  -0.258   0.999   7.213  0.3196 -0.3261  0.3563
  185POPC    C221172  -0.336   0.961   7.022  0.6088 -0.3265 -0.3631
  185POPC    HS21173  -0.437   0.953   7.068  0.0463 -0.3873 -1.5699
  185POPC   O2121174  -0.321   0.870   6.908  0.0990  0.5011 -0.0371
  185POPC   C2121175  -0.429   0.873   6.829 -0.1456 -0.3385  0.2068
  185POPC   O2221176  -0.531   0.938   6.846 -0.7156  0.3707  0.0946
  185POPC   C2221177  -0.432   0.764   6.728 -0.2829 -0.0959  0.5776
  185POPC   H2R21178  -0.494   0.683   6.772 -0.8081  0.6097  1.1544
  185POPC   H2S21179  -0.328   0.726   6.717  0.7130  2.7433 -0.7260
  185POPC    C321180  -0.320   1.115   6.979  0.2686 -0.1814  0.0751
  185POPC    HX21181  -0.319   1.177   7.072 -1.5561  1.0874 -0.7003
  185POPC    HY21182  -0.418   1.135   6.931 -0.1978 -0.4665  0.8778
  185POPC   O3121183  -0.196   1.135   6.903 -0.0130  0.0225 -0.0831
  185POPC   C3121184  -0.199   1.163   6.774  0.3548  0.6397 -0.2414
  185POPC   O3221185  -0.298   1.134   6.704  0.3010  0.1154 -0.0075
  185POPC   C3221186  -0.062   1.213   6.731 -0.2707  0.3288  0.3902
  185POPC   H2X21187   0.005   1.129   6.760 -1.0022  0.1676  1.7194
  185POPC   H2Y21188  -0.028   1.308   6.778  0.5176  1.9678 -3.2161
  185POPC   C2321189  -0.483   0.817   6.589  0.4707  0.4624 -0.5513
  185POPC   H3R21190  -0.422   0.903   6.552 -0.9383  1.5355 -0.4618
  185POPC   H3S21191  -0.588   0.843   6.614  1.2353  0.8760  2.7043
  185POPC   C2421192  -0.493   0.710   6.485 -0.3136  0.7038  0.5505
  185POPC   H4R21193  -0.598   0.704   6.451 -0.9936  3.0167  2.0256
  185POPC   H4S21194  -0.475   0.614   6.537 -2.3949  0.1359  0.2852
  185POPC   C2521195  -0.404   0.731   6.360 -0.2384  0.3389  0.7917
  185POPC   H5R21196  -0.319   0.660   6.362 -1.3989 -1.2629 -1.7151
  185POPC   H5S21197  -0.365   0.835   6.358 -0.0743  0.3139 -2.2368
  185POPC   C2621198  -0.476   0.699   6.227  0.2183 -0.8465 -0.1971
  185POPC   H6R21199  -0.555   0.775   6.211  1.3679  0.1912 -1.2053
  185POPC   H6S21200  -0.527   0.601   6.232 -1.5412  0.0583  0.6890
  185POPC   C2721201  -0.378   0.703   6.114 -0.0046  0.5648  0.3856
  185POPC   H7R21202  -0.306   0.618   6.110  2.0229  2.2277 -0.6779
  185POPC   H7S21203  -0.312   0.790   6.137 -0.6693  1.0838  0.3482
  185POPC   C2821204  -0.438   0.732   5.971 -0.2180 -0.2901 -0.8144
  185POPC   H8R21205  -0.468   0.838   5.982 -0.7719 -0.5443  0.2278
  185POPC   H8S21206  -0.533   0.678   5.954 -0.5274  0.4774 -1.5787
  185POPC   C2921207  -0.335   0.714   5.856  0.7710  0.5793  0.8462
  185POPC   H9121208  -0.249   0.784   5.860  0.6911  1.0122 -2.3685
  185POPC  C21021209  -0.341   0.627   5.747  0.3213 -0.6409  0.3199
  185POPC  H10121210  -0.247   0.616   5.691  1.0474 -1.1560  1.5997
  185POPC  C21121211  -0.451   0.532   5.706 -0.2147  0.4255  1.0501
  185POPC  H11R21212  -0.533   0.527   5.781  0.3545  0.5111  1.6947
  185POPC  H11S21213  -0.403   0.432   5.706  1.0845  1.0004 -0.9574
  185POPC  C21221214  -0.517   0.563   5.575 -0.3825  0.5761  0.1558
  185POPC  H12R21215  -0.547   0.668   5.557  0.4043  1.1840  2.1561
  185POPC  H12S21216  -0.613   0.508   5.570 -1.0647  1.4731  2.4275
  185POPC  C21321217  -0.430   0.536   5.452 -0.2946 -0.6448 -0.2420
  185POPC  H13R21218  -0.413   0.427   5.444 -1.1990 -0.8361  0.2298
  185POPC  H13S21219  -0.336   0.594   5.452  0.2769 -1.4464 -2.7266
  185POPC  C21421220  -0.522   0.574   5.322 -0.8424  0.5076 -0.4475
  185POPC  H14R21221  -0.446   0.603   5.246  0.5271  0.8326  0.9714
  185POPC  H14S21222  -0.588   0.662   5.338 -0.2545  1.1286 -1.3592
  185POPC  C21521223  -0.607   0.463   5.265 -0.1944 -0.8419  0.2984
  185POPC  H15R21224  -0.687   0.432   5.335 -1.6959 -0.7459 -1.2956
  185POPC  H15S21225  -0.543   0.377   5.234  1.1731 -1.0248  3.3222
  185POPC  C21621226  -0.678   0.510   5.131 -0.2179  0.2264  0.0433
  185POPC  H16R21227  -0.603   0.555   5.063  1.1896  1.3291  2.2365
  185POPC  H16S21228  -0.763   0.579   5.152 -1.3878 -0.8889 -0.8590
  185POPC  C21721229  -0.753   0.382   5.075 -0.4054 -0.0312 -0.1954
  185POPC  H17R21230  -0.828   0.357   5.153  0.8028 -1.2880  0.6181
  185POPC  H17S21231  -0.680   0.299   5.068  1.0276  1.0742  0.9263
  185POPC  C21821232  -0.818   0.414   4.939 -0.6610  0.5847  0.4992
  185POPC  H18R21233  -0.826   0.318   4.884 -0.7148  1.2208 -0.6284
  185POPC  H18S21234  -0.751   0.481   4.881 -1.7920  1.2998 -0.0377
  185POPC  H18T21235  -0.918   0.462   4.947 -0.3971  1.8232 -2.2954
  185POPC   C3321236  -0.056   1.230   6.583 -0.7908 -0.2871 -0.3223
  185POPC   H3X21237  -0.124   1.159   6.530  0.0117 -0.7932 -0.6974
  185POPC   H3Y21238   0.047   1.210   6.547 -0.7968 -0.4238 -0.2636
  185POPC   C3421239  -0.084   1.383   6.544  0.1379 -0.8284  0.6023
  185POPC   H4X21240   0.004   1.442   6.575 -1.0075  1.3923 -0.1698
  185POPC   H4Y21241  -0.173   1.418   6.601  0.4893  1.9743 -0.3881
  185POPC   C3521242  -0.112   1.395   6.395  0.0235 -0.4012  0.1870
  185POPC   H5X21243  -0.181   1.318   6.354  0.3842 -0.8381  0.3967
  185POPC   H5Y21244  -0.016   1.367   6.347  0.9110 -1.9748  2.6949
  185POPC   C3621245  -0.147   1.533   6.343  0.7699 -0.3496  0.4695
  185POPC   H6X21246  -0.061   1.603   6.357  0.7078 -0.0941 -0.3781
  185POPC   H6Y21247  -0.232   1.578   6.399  1.6164 -0.0326  1.5417
  185POPC   C3721248  -0.182   1.540   6.191 -0.1289 -0.5649 -0.9523
  185POPC   H7X21249  -0.223   1.640   6.165  2.5866  1.4276  1.7491
  185POPC   H7Y21250  -0.258   1.461   6.170 -3.2540  1.9592  0.0038
  185POPC   C3821251  -0.072   1.491   6.099 -1.0705  0.5728  0.5742
  185POPC   H8X21252  -0.042   1.388   6.125  1.5235  1.2432  0.5313
  185POPC   H8Y21253   0.016   1.559   6.112 -0.5635  0.3235 -1.2036
  185POPC   C3921254  -0.097   1.493   5.944 -0.2941  0.6315  0.0291
  185POPC   H9X21255  -0.115   1.595   5.906 -1.7392  0.6639  0.7347
  185POPC   H9Y21256  -0.190   1.433   5.930  2.0061 -3.9562  2.0807
  185POPC  C31021257   0.024   1.440   5.863 -0.4994  0.0421 -0.2885
  185POPC  H10X21258   0.044   1.334   5.888 -0.2023  0.0458 -0.4979
  185POPC  H10Y21259   0.111   1.501   5.895 -1.0494  1.6829 -1.7459
  185POPC  C31121260  -0.010   1.445   5.709  0.0640  0.3291  0.0929
  185POPC  H11X21261  -0.024   1.551   5.676 -0.3199 -0.2700 -1.8056
  185POPC  H11Y21262  -0.095   1.376   5.690 -0.2176  0.3066  1.3478
  185POPC  C31221263   0.109   1.381   5.634  0.1350 -0.7261 -0.0062
  185POPC  H12X21264   0.119   1.276   5.668  1.1729 -0.5260  0.3566
  185POPC  H12Y21265   0.202   1.436   5.662 -1.7088  1.5007  2.1305
  185POPC  C31321266   0.082   1.375   5.483 -0.0871 -0.3982  0.4292
  185POPC  H13X21267   0.067   1.474   5.435  1.6745  1.5176  3.5393
  185POPC  H13Y21268  -0.003   1.307   5.458  0.6627 -1.3600  0.4649
  185POPC  C31421269   0.204   1.309   5.425 -0.9183  0.4522 -0.2293
  185POPC  H14X21270   0.244   1.211   5.460 -0.1942  1.0040  0.5185
  185POPC  H14Y21271   0.284   1.376   5.463  0.5696 -1.6881  0.6721
  185POPC  C31521272   0.203   1.309   5.275 -0.8401 -0.4490  0.1898
  185POPC  H15X21273   0.306   1.299   5.235 -0.2924  1.2008  1.0880
  185POPC  H15Y21274   0.171   1.409   5.239 -1.0485  0.0220  1.6121
  185POPC  C31621275   0.125   1.197   5.201  0.0403 -0.2863 -0.5377
  185POPC  H16X21276   0.041   1.172   5.270  0.7924 -1.0405  0.1288
  185POPC  H16Y21277   0.181   1.101   5.201 -0.8023 -0.8115  1.0546
  185POPC  H16Z21278   0.076   1.217   5.103  1.4625 -0.2788 -1.2642
  186POPC     N21279   5.963   5.718   7.146 -0.1920  0.2025 -0.1786
  186POPC   C1221280   6.099   5.710   7.087 -0.6692  0.0237  0.4173
  186POPC  H12A21281   6.112   5.633   7.013  1.5573  2.2944 -1.7699
  186POPC  H12B21282   6.167   5.686   7.167  1.4808  1.3466 -0.9063
  186POPC   C1321283   5.931   5.586   7.205 -0.9627  0.4655 -0.7419
  186POPC  H13A21284   5.832   5.577   7.248  0.4367 -2.2019  2.2784
  186POPC  H13B21285   5.947   5.509   7.130  1.2730  2.0432 -1.9881
  186POPC  H13C21286   5.989   5.566   7.293 -1.1986  0.9337 -0.4780
  186POPC   C1421287   5.950   5.829   7.246 -0.0291  0.0118  0.1586
  186POPC  H14A21288   5.845   5.847   7.262  0.2545  1.3387  0.6263
  186POPC  H14B21289   5.995   5.819   7.344 -0.5678 -1.0317  0.3093
  186POPC  H14C21290   5.980   5.921   7.198 -3.7351  0.0647 -2.4409
  186POPC   C1521291   5.862   5.750   7.038  0.5590 -0.4907  0.6552
  186POPC  H15A21292   5.880   5.841   6.984  0.4729 -0.1407  1.2116
  186POPC  H15B21293   5.768   5.777   7.084 -0.3309  0.1477 -1.3834
  186POPC  H15C21294   5.846   5.676   6.960 -1.3454  0.9269 -0.3858
  186POPC   C1121295   6.154   5.845   7.029  0.0905  0.1699  0.1009
  186POPC  H11A21296   6.078   5.881   6.956  0.1103  0.4376  0.2119
  186POPC  H11B21297   6.248   5.818   6.977  1.0830  1.0650  1.3832
  186POPC     P21298   6.304   5.931   7.227  0.6878  0.2025  0.4075
  186POPC   O1321299   6.315   5.788   7.258 -0.1086  0.2215  0.5722
  186POPC   O1421300   6.266   6.015   7.351  0.5620  0.5725  0.3882
  186POPC   O1221301   6.178   5.940   7.128 -0.8691 -0.5630  0.7025
  186POPC   O1121302   6.433   5.986   7.156  0.3061  0.2597 -0.5746
  186POPC    C121303   6.431   6.111   7.085 -0.3851 -0.2231  0.0057
  186POPC    HA21304   6.537   6.142   7.068 -0.4206  0.8957  1.6506
  186POPC    HB21305   6.375   6.190   7.139  1.7662  0.3748  1.4936
  186POPC    C221306   6.360   6.111   6.937  0.1981 -0.6013 -0.3809
  186POPC    HS21307   6.262   6.060   6.948  1.0318 -2.1893 -0.0507
  186POPC   O2121308   6.447   6.043   6.844 -0.1100  0.3815 -0.7180
  186POPC   C2121309   6.391   5.978   6.743  0.6414 -0.8895  0.5187
  186POPC   O2221310   6.270   5.971   6.725 -0.3795 -0.3901 -0.6352
  186POPC   C2221311   6.500   5.933   6.641  0.4931 -0.3191  0.4718
  186POPC   H2R21312   6.462   5.842   6.590  2.3368  0.3655 -2.3893
  186POPC   H2S21313   6.583   5.903   6.708  1.1327  2.2263  0.9057
  186POPC    C321314   6.332   6.252   6.884 -0.7800  0.0447  0.1215
  186POPC    HX21315   6.271   6.303   6.962  0.2539 -0.5058  1.3083
  186POPC    HY21316   6.271   6.244   6.791 -1.7804  0.4063  0.7303
  186POPC   O3121317   6.456   6.331   6.869 -0.1931  0.1719  0.2302
  186POPC   C3121318   6.426   6.457   6.833 -0.0863 -0.3148 -0.0422
  186POPC   O3221319   6.318   6.506   6.826  0.1575 -0.0259 -0.5607
  186POPC   C3221320   6.563   6.520   6.796 -0.3436  0.1445 -0.5510
  186POPC   H2X21321   6.636   6.518   6.880  1.7006  1.4840 -2.2068
  186POPC   H2Y21322   6.549   6.628   6.777  2.2461  0.6532  0.1359
  186POPC   C2321323   6.526   6.039   6.536 -0.5173  0.1889  0.2375
  186POPC   H3R21324   6.516   6.146   6.564  1.7455  0.6527 -0.5727
  186POPC   H3S21325   6.463   6.018   6.447 -0.6391 -0.5664  0.4945
  186POPC   C2421326   6.673   6.036   6.494 -0.2378  0.3169  0.7973
  186POPC   H4R21327   6.688   5.930   6.466  1.0912  0.3959  1.1268
  186POPC   H4S21328   6.754   6.046   6.569  0.8498  1.7530 -0.5018
  186POPC   C2521329   6.698   6.137   6.380 -0.4030 -0.2957  0.5526
  186POPC   H5R21330   6.807   6.128   6.357 -0.3020  1.2229  0.3839
  186POPC   H5S21331   6.680   6.234   6.430  1.4669  0.2524  0.2371
  186POPC   C2621332   6.603   6.130   6.255  0.3738  0.0553 -0.7470
  186POPC   H6R21333   6.496   6.149   6.275 -0.0214 -0.7795 -1.9735
  186POPC   H6S21334   6.604   6.024   6.223 -0.1661 -0.4937  0.9224
  186POPC   C2721335   6.645   6.226   6.146 -0.0468 -0.3628  0.7584
  186POPC   H7R21336   6.741   6.200   6.098 -0.2988  0.4816 -0.2411
  186POPC   H7S21337   6.682   6.326   6.178  1.7121  0.7223 -3.8829
  186POPC   C2821338   6.533   6.252   6.039 -0.5936  0.4841 -0.7457
  186POPC   H8R21339   6.574   6.329   5.969 -2.4197  0.2448 -2.1329
  186POPC   H8S21340   6.456   6.302   6.101 -2.5441 -1.2788 -1.6490
  186POPC   C2921341   6.489   6.118   5.974  0.6425 -0.2305  0.7003
  186POPC   H9121342   6.425   6.058   6.040 -1.2209  0.3605 -0.4930
  186POPC  C21021343   6.516   6.080   5.842  0.0444 -0.1726  0.3013
  186POPC  H10121344   6.466   5.986   5.815 -0.9596  0.2967  0.5002
  186POPC  C21121345   6.597   6.152   5.736 -0.0196 -0.1553  0.0907
  186POPC  H11R21346   6.680   6.092   5.693  0.6493  1.3700 -0.8278
  186POPC  H11S21347   6.640   6.241   5.786 -1.6001  0.4701  0.4012
  186POPC  C21221348   6.503   6.193   5.622  0.0400  0.1246 -0.5983
  186POPC  H12R21349   6.565   6.261   5.559 -0.2283  2.2763  1.3168
  186POPC  H12S21350   6.430   6.262   5.669  0.8892  2.4805 -2.4972
  186POPC  C21321351   6.455   6.084   5.529  0.0062 -0.3957 -0.1121
  186POPC  H13R21352   6.394   6.020   5.597 -0.1417  0.7161  0.8291
  186POPC  H13S21353   6.533   6.012   5.496  1.6066  0.3728  1.7734
  186POPC  C21421354   6.355   6.139   5.421 -0.0202 -0.2359 -0.1762
  186POPC  H14R21355   6.280   6.205   5.470 -0.1181 -0.2852 -0.2602
  186POPC  H14S21356   6.295   6.058   5.374 -2.0896  0.0566  1.7589
  186POPC  C21521357   6.423   6.222   5.309 -0.4463  0.3925 -0.1533
  186POPC  H15R21358   6.466   6.310   5.360 -0.0163  0.3103 -0.3671
  186POPC  H15S21359   6.346   6.259   5.238  0.5115  1.5896 -0.6018
  186POPC  C21621360   6.519   6.154   5.209 -0.7379  1.0212 -0.5439
  186POPC  H16R21361   6.468   6.077   5.148  1.3698 -1.2298  0.3458
  186POPC  H16S21362   6.576   6.096   5.285 -1.2118  3.3979  1.7904
  186POPC  C21721363   6.614   6.252   5.138 -0.1697  0.0777  0.0896
  186POPC  H17R21364   6.699   6.205   5.085  1.5764  0.8176  2.0562
  186POPC  H17S21365   6.667   6.306   5.220 -1.1964 -0.1852  0.9437
  186POPC  C21821366   6.543   6.361   5.052 -0.4541  0.4883  0.0120
  186POPC  H18R21367   6.520   6.457   5.103  0.3697  0.0998  1.1803
  186POPC  H18S21368   6.453   6.317   5.005 -0.6155 -2.0642  2.4821
  186POPC  H18T21369   6.622   6.386   4.978  0.6386 -3.3596 -0.3270
  186POPC   C3321370   6.628   6.470   6.662  0.1400  0.0961  0.0680
  186POPC   H3X21371   6.638   6.360   6.664 -1.5463 -0.0548  1.2919
  186POPC   H3Y21372   6.727   6.521   6.664 -0.6797  1.8049 -0.5236
  186POPC   C3421373   6.559   6.511   6.527 -0.6587  0.2749  0.1233
  186POPC   H4X21374   6.489   6.593   6.553 -0.7841  0.6834 -1.4091
  186POPC   H4Y21375   6.508   6.422   6.485 -0.2949 -0.5678  1.4273
  186POPC   C3521376   6.644   6.578   6.424  0.0962  0.1060 -0.1970
  186POPC   H5X21377   6.727   6.512   6.392 -0.4134 -1.0333  0.7817
  186POPC   H5Y21378   6.694   6.666   6.470 -1.4311  0.9974 -0.1827
  186POPC   C3621379   6.564   6.617   6.299 -0.2440  0.5177  0.6999
  186POPC   H6X21380   6.498   6.702   6.326 -1.2569 -1.2392  4.4394
  186POPC   H6Y21381   6.496   6.535   6.265 -0.3659 -0.0643  2.2655
  186POPC   C3721382   6.663   6.654   6.180 -0.4086 -0.6116 -0.3114
  186POPC   H7X21383   6.730   6.565   6.184  1.5146  0.7628 -0.2770
  186POPC   H7Y21384   6.728   6.737   6.214  2.6476 -1.8466 -2.5987
  186POPC   C3821385   6.601   6.680   6.041  0.1138  0.0206 -0.3204
  186POPC   H8X21386   6.571   6.786   6.034  0.2832  0.0682 -0.3296
  186POPC   H8Y21387   6.509   6.618   6.036  0.0463  0.1805 -1.6097
  186POPC   C3921388   6.699   6.645   5.929 -0.6888 -0.0253  0.4913
  186POPC   H9X21389   6.708   6.535   5.924  1.0990 -0.0269  2.4222
  186POPC   H9Y21390   6.803   6.684   5.938 -0.4805 -0.4770  0.0385
  186POPC  C31021391   6.662   6.710   5.793 -0.4683 -0.0034  0.0178
  186POPC  H10X21392   6.762   6.718   5.747  1.4553 -2.2653  3.3653
  186POPC  H10Y21393   6.631   6.817   5.804  0.0769 -0.0034  1.9733
  186POPC  C31121394   6.566   6.635   5.708  1.1165  0.4181  0.3493
  186POPC  H11X21395   6.470   6.628   5.764  1.4015  0.5522  0.8609
  186POPC  H11Y21396   6.603   6.533   5.685 -1.2717 -0.2147 -1.0464
  186POPC  C31221397   6.534   6.696   5.567 -0.5139 -0.2539  0.3448
  186POPC  H12X21398   6.633   6.727   5.529 -0.1773  0.6749  1.8675
  186POPC  H12Y21399   6.472   6.788   5.569 -2.1268 -1.2797 -0.1690
  186POPC  C31321400   6.462   6.597   5.471  0.1527  0.1698  0.4775
  186POPC  H13X21401   6.529   6.519   5.431  0.6626  1.0356 -0.3914
  186POPC  H13Y21402   6.444   6.665   5.385 -2.3583 -1.0286 -0.0443
  186POPC  C31421403   6.319   6.557   5.501 -0.0620 -0.7841  0.1531
  186POPC  H14X21404   6.270   6.636   5.562 -0.7126 -1.8912  1.1093
  186POPC  H14Y21405   6.315   6.470   5.570 -2.5184  1.2274  2.7919
  186POPC  C31521406   6.232   6.539   5.376 -0.2461  0.6138 -0.2098
  186POPC  H15X21407   6.282   6.460   5.316 -1.1788  0.3484 -0.6489
  186POPC  H15Y21408   6.227   6.630   5.312 -0.5042 -0.0342 -1.1276
  186POPC  C31621409   6.085   6.510   5.407  0.6833  0.1111  0.0200
  186POPC  H16X21410   6.068   6.415   5.462  0.3861 -0.3288 -0.8207
  186POPC  H16Y21411   6.038   6.519   5.307  2.5789  3.2339 -0.7196
  186POPC  H16Z21412   6.044   6.591   5.471 -0.6180 -0.6230  0.1511
  187POPC     N21413   2.672   5.592   2.338 -0.4777  0.6991 -0.4807
  187POPC   C1221414   2.571   5.694   2.379  0.4000  0.2881  0.0783
  187POPC  H12A21415   2.477   5.641   2.381  1.6367 -2.0328  2.4575
  187POPC  H12B21416   2.562   5.763   2.296 -1.1012  0.8422  0.6834
  187POPC   C1321417   2.663   5.470   2.430  0.0694 -0.8305  0.6235
  187POPC  H13A21418   2.668   5.496   2.534 -1.5016  0.9992  0.3019
  187POPC  H13B21419   2.569   5.420   2.409 -1.0048  1.0096  0.8461
  187POPC  H13C21420   2.744   5.403   2.404 -0.9916 -2.2917  0.9165
  187POPC   C1421421   2.632   5.547   2.198 -0.9037 -0.1828  0.8089
  187POPC  H14A21422   2.660   5.613   2.117 -1.3011 -0.0469  0.7801
  187POPC  H14B21423   2.684   5.456   2.173 -0.1024  1.2481 -3.7911
  187POPC  H14C21424   2.528   5.528   2.173 -0.0844 -2.2822 -1.4750
  187POPC   C1521425   2.804   5.650   2.334 -0.3387  0.2058 -0.7117
  187POPC  H15A21426   2.885   5.579   2.320  0.0632  0.3463  0.7718
  187POPC  H15B21427   2.828   5.691   2.431 -2.9829 -3.6864  1.8343
  187POPC  H15C21428   2.813   5.731   2.263  2.3693  0.1509 -0.5569
  187POPC   C1121429   2.587   5.768   2.514 -0.0246  0.1519  0.0355
  187POPC  H11A21430   2.495   5.830   2.528 -1.1631 -0.7651 -2.6622
  187POPC  H11B21431   2.671   5.841   2.510  0.5516 -0.5340 -0.5499
  187POPC     P21432   2.725   5.681   2.727 -0.1766 -0.3325 -0.2419
  187POPC   O1321433   2.840   5.628   2.649  0.3170  0.7325 -0.6620
  187POPC   O1421434   2.692   5.617   2.857  0.3805  0.2344  0.6008
  187POPC   O1221435   2.597   5.679   2.629  0.2565  0.0871  0.2159
  187POPC   O1121436   2.755   5.833   2.758  0.7802  0.3554  0.1055
  187POPC    C121437   2.675   5.904   2.854  0.3497 -0.0452  0.3335
  187POPC    HA21438   2.584   5.844   2.877  0.2064  0.3196  0.7433
  187POPC    HB21439   2.647   6.004   2.814  1.4007  0.2871  0.4119
  187POPC    C221440   2.737   5.923   2.993 -0.3408  0.6456  0.3040
  187POPC    HS21441   2.778   6.026   2.988  0.3736  0.4531  1.7226
  187POPC   O2121442   2.843   5.828   3.025 -0.2277 -0.1380 -0.4236
  187POPC   C2121443   2.961   5.822   2.961 -1.0559  0.5752 -0.0320
  187POPC   O2221444   3.008   5.903   2.887  0.1381  0.0137  0.6486
  187POPC   C2221445   3.050   5.700   3.022  0.2632 -0.5727 -0.2628
  187POPC   H2R21446   3.122   5.669   2.943  0.9415 -1.7043  0.7827
  187POPC   H2S21447   2.976   5.622   3.047 -1.1198  0.2980 -1.4566
  187POPC    C321448   2.622   5.923   3.105 -0.2272 -0.8216  0.7050
  187POPC    HX21449   2.563   5.829   3.101 -2.1011  0.2841  1.5214
  187POPC    HY21450   2.550   6.005   3.085 -1.4503 -2.3647 -1.7249
  187POPC   O3121451   2.686   5.952   3.227 -0.5184  0.1123  0.0135
  187POPC   C3121452   2.726   5.848   3.305  0.2274 -0.5692  0.4282
  187POPC   O3221453   2.703   5.730   3.289  0.0508  0.3268 -0.1949
  187POPC   C3221454   2.796   5.910   3.433  0.2758 -0.2291  0.5240
  187POPC   H2X21455   2.795   6.020   3.418  1.1800 -0.2687  0.0704
  187POPC   H2Y21456   2.903   5.879   3.437  0.8737  1.7328  0.8282
  187POPC   C2321457   3.133   5.736   3.149  0.2950 -0.1937 -0.6952
  187POPC   H3R21458   3.071   5.788   3.226  2.8273  1.1531  0.5671
  187POPC   H3S21459   3.214   5.809   3.125 -0.4303  0.7898 -0.2447
  187POPC   C2421460   3.192   5.617   3.222  0.1373 -0.0552  0.1618
  187POPC   H4R21461   3.294   5.598   3.180 -0.3621 -2.4236 -0.0845
  187POPC   H4S21462   3.135   5.527   3.194 -1.1148  0.3089  1.4182
  187POPC   C2521463   3.199   5.646   3.374  0.1747 -0.0141 -0.3362
  187POPC   H5R21464   3.233   5.752   3.383  1.3557 -0.0112 -3.3716
  187POPC   H5S21465   3.287   5.587   3.408  1.1110  0.6301 -1.5091
  187POPC   C2621466   3.078   5.610   3.461 -0.3373  0.1929  0.3841
  187POPC   H6R21467   3.056   5.503   3.441  1.9178 -0.1193 -0.7618
  187POPC   H6S21468   2.991   5.661   3.415 -0.0850 -0.4641 -0.8548
  187POPC   C2721469   3.099   5.640   3.611  0.4147  0.9108  0.4459
  187POPC   H7R21470   3.111   5.750   3.625  0.9042  1.3727 -2.8327
  187POPC   H7S21471   3.195   5.596   3.645  0.8779  1.2275 -0.3996
  187POPC   C2821472   2.974   5.602   3.690  0.0093  0.2315 -0.0982
  187POPC   H8R21473   2.890   5.649   3.634 -0.5950  0.0159  0.6102
  187POPC   H8S21474   2.972   5.666   3.781 -0.9342  0.9817 -0.6220
  187POPC   C2921475   2.946   5.457   3.718  0.0944 -0.6457  0.3929
  187POPC   H9121476   3.009   5.391   3.656  0.2009 -0.6001  0.4531
  187POPC  C21021477   2.874   5.413   3.820 -0.6634  0.5175  0.8432
  187POPC  H10121478   2.855   5.306   3.833 -0.6452  0.5637  1.2690
  187POPC  C21121479   2.796   5.492   3.925 -0.5729  0.5208 -0.0787
  187POPC  H11R21480   2.695   5.450   3.940  0.2498 -1.2212  0.8768
  187POPC  H11S21481   2.776   5.597   3.895  2.2014  1.4052  0.8163
  187POPC  C21221482   2.852   5.515   4.062  0.5200 -0.5919  0.4904
  187POPC  H12R21483   2.791   5.597   4.105  0.4871  1.7405 -3.4652
  187POPC  H12S21484   2.958   5.544   4.051  0.2462 -0.0927 -1.2384
  187POPC  C21321485   2.838   5.390   4.153 -0.1135  0.8065  0.2334
  187POPC  H13R21486   2.892   5.301   4.114 -1.8791  0.4044 -1.4106
  187POPC  H13S21487   2.729   5.369   4.156  0.0459  0.1374  2.1948
  187POPC  C21421488   2.888   5.422   4.297 -0.1546  0.1284  0.2546
  187POPC  H14R21489   2.843   5.520   4.323 -1.1962  0.1571 -1.4731
  187POPC  H14S21490   2.997   5.441   4.304 -0.0620  0.0136 -0.6800
  187POPC  C21521491   2.832   5.331   4.410 -0.6163  0.8619 -0.8623
  187POPC  H15R21492   2.875   5.355   4.510 -2.2604 -1.7628  0.5882
  187POPC  H15S21493   2.863   5.228   4.379  0.1665  1.1925 -1.2073
  187POPC  C21621494   2.682   5.327   4.430 -0.0019  0.1805  0.0585
  187POPC  H16R21495   2.638   5.303   4.330  2.4617 -1.1151 -0.8006
  187POPC  H16S21496   2.646   5.428   4.458  0.4490  1.0314 -2.1863
  187POPC  C21721497   2.630   5.225   4.538 -0.0010  0.3051 -0.1121
  187POPC  H17R21498   2.660   5.268   4.636  0.8288 -1.2574  0.3454
  187POPC  H17S21499   2.684   5.128   4.535 -0.0565  0.1754  1.6798
  187POPC  C21821500   2.475   5.206   4.533 -0.1080 -0.2636 -0.1012
  187POPC  H18R21501   2.423   5.289   4.584 -0.4255 -0.4013 -0.1952
  187POPC  H18S21502   2.452   5.112   4.588  0.8245 -1.4721 -1.6803
  187POPC  H18T21503   2.437   5.190   4.429 -1.5391  0.4021  0.2907
  187POPC   C3321504   2.706   5.883   3.558 -0.4448  0.3979 -0.3935
  187POPC   H3X21505   2.714   5.778   3.594 -0.7596  1.3798  2.8426
  187POPC   H3Y21506   2.601   5.911   3.536  0.3472  2.8335 -1.4608
  187POPC   C3421507   2.744   5.973   3.679 -0.5989  0.8355  0.3220
  187POPC   H4X21508   2.730   6.080   3.651 -0.2942  1.3124  1.8564
  187POPC   H4Y21509   2.853   5.973   3.703 -0.6457  0.6272  0.5303
  187POPC   C3521510   2.675   5.938   3.808 -0.0211  0.6172 -0.1688
  187POPC   H5X21511   2.708   5.836   3.840 -0.2386  0.9849  1.2887
  187POPC   H5Y21512   2.565   5.948   3.792  0.3278  0.5273 -3.3062
  187POPC   C3621513   2.732   6.034   3.914  0.3754  0.4132  0.2739
  187POPC   H6X21514   2.726   6.140   3.880 -1.0757  0.4194  0.5143
  187POPC   H6Y21515   2.840   6.015   3.933  0.6740  1.4679 -0.2236
  187POPC   C3721516   2.685   6.022   4.057 -0.1973 -0.0956  0.9726
  187POPC   H7X21517   2.580   6.057   4.069 -0.5019 -1.5524  3.1283
  187POPC   H7Y21518   2.760   6.074   4.120  1.5734  0.5761 -1.5121
  187POPC   C3821519   2.697   5.879   4.097 -0.1604 -0.8281  0.0017
  187POPC   H8X21520   2.800   5.840   4.080  0.1205  0.7066 -2.2844
  187POPC   H8Y21521   2.618   5.824   4.041 -3.3719  1.0388  2.3672
  187POPC   C3921522   2.668   5.871   4.249  0.3226  0.0994 -0.2271
  187POPC   H9X21523   2.640   5.764   4.253  0.5950  0.0671  1.2238
  187POPC   H9Y21524   2.581   5.927   4.290  0.2661 -1.7042  2.3043
  187POPC  C31021525   2.792   5.886   4.327 -0.2172  0.0874 -0.2869
  187POPC  H10X21526   2.829   5.987   4.301 -2.7906  0.7946 -1.5088
  187POPC  H10Y21527   2.879   5.823   4.300  1.5157  1.8214  0.9932
  187POPC  C31121528   2.773   5.875   4.479 -0.2256 -0.8189  0.4844
  187POPC  H11X21529   2.680   5.929   4.507 -1.1477 -1.4316 -1.2514
  187POPC  H11Y21530   2.852   5.915   4.547  1.0890  0.0766 -1.4714
  187POPC  C31221531   2.733   5.735   4.520  0.0468  0.0925 -0.5400
  187POPC  H12X21532   2.802   5.655   4.487 -1.0341 -1.2764  0.3698
  187POPC  H12Y21533   2.634   5.708   4.478  1.0182 -2.0619 -1.6066
  187POPC  C31321534   2.712   5.719   4.674  0.3688 -0.7644 -0.4056
  187POPC  H13X21535   2.665   5.816   4.700  2.2433  0.6165 -1.8660
  187POPC  H13Y21536   2.808   5.722   4.730 -0.0096  3.0377  0.3086
  187POPC  C31421537   2.629   5.592   4.708  0.3412 -0.4409  0.7596
  187POPC  H14X21538   2.680   5.504   4.663  1.7500  0.9148 -0.4226
  187POPC  H14Y21539   2.531   5.598   4.654  0.0078 -0.5807  1.3443
  187POPC  C31521540   2.582   5.585   4.852 -0.1352 -0.3650  0.6298
  187POPC  H15X21541   2.533   5.682   4.874  1.0046  0.1911  0.7593
  187POPC  H15Y21542   2.671   5.580   4.918  0.3005 -2.9368 -0.0625
  187POPC  C31621543   2.482   5.471   4.884 -0.1108 -0.1412  0.3288
  187POPC  H16X21544   2.540   5.376   4.888  1.7389  0.9379  0.2141
  187POPC  H16Y21545   2.396   5.454   4.815 -0.0397 -3.1439  0.8143
  187POPC  H16Z21546   2.448   5.489   4.988  1.6748 -0.9303  1.1042
  188POPC     N21547   3.726   5.451   2.346 -0.1034 -0.7063  0.5694
  188POPC   C1221548   3.756   5.541   2.468  0.1971  0.0479 -0.0582
  188POPC  H12A21549   3.712   5.636   2.442 -1.4651 -1.0667 -1.6034
  188POPC  H12B21550   3.863   5.553   2.476  0.3662 -1.4629  0.3473
  188POPC   C1321551   3.808   5.329   2.360  0.2101 -0.1567 -0.1611
  188POPC  H13A21552   3.811   5.274   2.268 -1.3045  2.3719 -1.8682
  188POPC  H13B21553   3.909   5.360   2.383  0.8141 -0.4117 -2.3340
  188POPC  H13C21554   3.772   5.270   2.444 -0.0752  1.3249  0.8075
  188POPC   C1421555   3.589   5.404   2.353  0.3295  0.2322  0.1823
  188POPC  H14A21556   3.567   5.331   2.276 -2.6438 -1.0545  2.0617
  188POPC  H14B21557   3.557   5.354   2.444 -1.7929  1.0637 -0.0563
  188POPC  H14C21558   3.520   5.486   2.342 -0.8669 -0.5653  1.4856
  188POPC   C1521559   3.752   5.525   2.217  0.2429 -0.2507  0.6259
  188POPC  H15A21560   3.738   5.455   2.136 -1.4574  1.2500 -0.4219
  188POPC  H15B21561   3.857   5.551   2.207  0.1121  0.4054  0.9483
  188POPC  H15C21562   3.695   5.615   2.204  0.5524 -0.1657 -0.2241
  188POPC   C1121563   3.712   5.501   2.607 -0.0904  0.1280 -0.4739
  188POPC  H11A21564   3.603   5.486   2.616  0.2899 -2.4760  0.7572
  188POPC  H11B21565   3.737   5.592   2.667  2.0990 -1.7929  1.7432
  188POPC     P21566   3.926   5.392   2.711  0.0511 -0.3972  0.3911
  188POPC   O1321567   4.020   5.458   2.622  0.1941 -0.2621  0.4132
  188POPC   O1421568   3.964   5.258   2.739  0.3614  0.2971  0.4838
  188POPC   O1221569   3.777   5.385   2.649 -0.2074  0.2696 -0.1719
  188POPC   O1121570   3.909   5.464   2.849  0.7794 -0.6825 -1.3030
  188POPC    C121571   3.810   5.414   2.947 -0.2184  0.1800  0.0155
  188POPC    HA21572   3.721   5.361   2.906 -0.9877 -0.5592  2.4816
  188POPC    HB21573   3.772   5.496   3.011 -1.8760 -0.0302 -0.6581
  188POPC    C221574   3.875   5.318   3.048  0.4468  0.4801  0.0958
  188POPC    HS21575   3.912   5.226   2.998 -0.0918  1.1470 -1.5922
  188POPC   O2121576   3.793   5.276   3.157 -0.3673 -0.2881 -0.5841
  188POPC   C2121577   3.685   5.214   3.120  0.8020 -0.3861 -0.3156
  188POPC   O2221578   3.658   5.157   3.014 -0.1078  0.1121  0.3409
  188POPC   C2221579   3.579   5.229   3.236 -0.3535  0.3320  0.5169
  188POPC   H2R21580   3.552   5.127   3.273  0.1527  0.3432  0.9158
  188POPC   H2S21581   3.490   5.270   3.184  0.2497  0.5478 -0.3759
  188POPC    C321582   4.013   5.380   3.103  0.2429  0.1625 -0.0367
  188POPC    HX21583   4.080   5.389   3.015  0.7564  0.5516  0.3954
  188POPC    HY21584   4.052   5.301   3.170  0.0697  0.1474  0.0471
  188POPC   O3121585   3.995   5.498   3.171  0.0117  0.7393 -0.1202
  188POPC   C3121586   4.090   5.588   3.175  0.2452 -0.0094 -0.1162
  188POPC   O3221587   4.194   5.581   3.119 -0.2763 -1.0621  0.6187
  188POPC   C3221588   4.051   5.709   3.259 -0.6559  0.0022 -0.2513
  188POPC   H2X21589   3.960   5.752   3.211 -2.1141 -1.8564  0.7334
  188POPC   H2Y21590   4.126   5.791   3.249 -1.7449  0.8486 -1.9422
  188POPC   C2321591   3.612   5.309   3.370 -0.0337 -1.4575  0.1908
  188POPC   H3R21592   3.643   5.409   3.331 -1.2338 -1.0333  0.2913
  188POPC   H3S21593   3.697   5.259   3.422 -0.6580 -1.3594  1.3430
  188POPC   C2421594   3.496   5.322   3.464  0.1011  0.0298 -0.1890
  188POPC   H4R21595   3.466   5.222   3.504 -0.8134 -0.7438 -2.6324
  188POPC   H4S21596   3.414   5.380   3.418 -2.0225 -1.7106  1.1534
  188POPC   C2521597   3.548   5.409   3.583  0.1133 -0.8255 -0.1728
  188POPC   H5R21598   3.605   5.497   3.546 -0.5349 -0.2833  0.1073
  188POPC   H5S21599   3.612   5.349   3.651 -1.2147 -1.6142  0.4175
  188POPC   C2621600   3.429   5.454   3.672  0.0746  0.3289  0.6948
  188POPC   H6R21601   3.377   5.370   3.724 -0.9605  0.9593  0.7110
  188POPC   H6S21602   3.346   5.482   3.604 -0.6839 -3.5026 -0.2201
  188POPC   C2721603   3.463   5.576   3.755  0.6791  0.3379 -0.7699
  188POPC   H7R21604   3.415   5.666   3.710  1.0411  0.3549 -1.1213
  188POPC   H7S21605   3.572   5.596   3.761  0.7112  0.3493 -1.3788
  188POPC   C2821606   3.429   5.553   3.905  0.1929 -0.5758 -0.2928
  188POPC   H8R21607   3.446   5.640   3.971  0.6392 -2.0818  1.6819
  188POPC   H8S21608   3.486   5.464   3.940 -2.9797 -2.4415  0.5922
  188POPC   C2921609   3.281   5.520   3.912  0.0930 -0.5663 -0.3718
  188POPC   H9121610   3.212   5.605   3.898  0.5106 -0.1619  0.0170
  188POPC  C21021611   3.227   5.411   3.966  0.1814  0.2423 -0.1366
  188POPC  H10121612   3.117   5.407   3.962  0.0805  2.2601 -1.1911
  188POPC  C21121613   3.295   5.283   4.010 -0.0597  0.0824  0.1008
  188POPC  H11R21614   3.402   5.295   4.038  0.5569 -0.3439 -1.8842
  188POPC  H11S21615   3.306   5.211   3.926  0.3355 -0.2359  0.4188
  188POPC  C21221616   3.231   5.208   4.118  0.1761 -0.6009  0.5953
  188POPC  H12R21617   3.261   5.101   4.116 -1.2732 -1.0365  0.8629
  188POPC  H12S21618   3.120   5.205   4.118  0.0458  1.6396  2.5027
  188POPC  C21321619   3.264   5.264   4.255 -0.3637  0.3746  0.0165
  188POPC  H13R21620   3.223   5.366   4.268 -0.7913  0.4735 -1.8318
  188POPC  H13S21621   3.373   5.257   4.274  0.0221 -6.0832 -2.0047
  188POPC  C21421622   3.207   5.183   4.371 -0.5169 -0.1896 -0.3081
  188POPC  H14R21623   3.258   5.085   4.378  0.8477  0.5507  0.7963
  188POPC  H14S21624   3.097   5.173   4.364 -1.2591  4.9904  0.1643
  188POPC  C21521625   3.247   5.248   4.509 -0.0347 -0.1844  1.2237
  188POPC  H15R21626   3.225   5.357   4.509 -2.5279 -0.6224  0.4174
  188POPC  H15S21627   3.353   5.230   4.538 -0.1281 -0.5181  1.3630
  188POPC  C21621628   3.151   5.199   4.628  0.5971 -0.1231 -0.5401
  188POPC  H16R21629   3.155   5.089   4.612 -0.3780 -0.3000  0.3182
  188POPC  H16S21630   3.049   5.235   4.603  0.9185  0.6378 -0.7761
  188POPC  C21721631   3.209   5.235   4.767 -0.0937 -0.1246  0.6407
  188POPC  H17R21632   3.318   5.218   4.780  0.1865  0.7386 -0.4341
  188POPC  H17S21633   3.169   5.149   4.824  0.6183 -0.4453  0.6612
  188POPC  C21821634   3.144   5.357   4.828  0.4293 -0.3131 -0.3214
  188POPC  H18R21635   3.038   5.341   4.857  1.1126 -2.3591  1.2904
  188POPC  H18S21636   3.155   5.443   4.759 -0.3255  1.3291  1.5147
  188POPC  H18T21637   3.211   5.388   4.911  0.3457  0.2911 -0.4732
  188POPC   C3321638   4.009   5.671   3.399  0.3372 -0.3037  0.0310
  188POPC   H3X21639   4.057   5.751   3.461 -0.3372  0.5214 -0.4960
  188POPC   H3Y21640   4.049   5.572   3.428 -2.5889 -2.1376 -1.7826
  188POPC   C3421641   3.859   5.667   3.431  0.2882  0.1843  0.2038
  188POPC   H4X21642   3.811   5.572   3.400  1.3328 -0.1638 -0.3896
  188POPC   H4Y21643   3.806   5.746   3.373  1.5382 -1.1722 -2.9707
  188POPC   C3521644   3.830   5.696   3.578 -0.4160  0.3285  0.3396
  188POPC   H5X21645   3.723   5.719   3.596 -0.3751  0.2628  0.6840
  188POPC   H5Y21646   3.890   5.789   3.590 -2.0354  1.4936 -0.3430
  188POPC   C3621647   3.890   5.601   3.683 -0.5006  0.6737  0.0233
  188POPC   H6X21648   3.993   5.570   3.659 -1.0327  0.0494 -1.5869
  188POPC   H6Y21649   3.835   5.504   3.678  1.3253 -0.3327 -1.5801
  188POPC   C3721650   3.887   5.647   3.832 -0.5203 -0.5187  0.3398
  188POPC   H7X21651   3.781   5.663   3.862 -0.1518  1.7676  0.6215
  188POPC   H7Y21652   3.937   5.745   3.847 -1.4598 -0.2714  2.1309
  188POPC   C3821653   3.943   5.541   3.936  0.1177  0.0552 -0.0050
  188POPC   H8X21654   4.005   5.601   4.006  0.8062  1.0744 -1.4457
  188POPC   H8Y21655   4.010   5.474   3.878 -0.1974  1.4592 -2.0752
  188POPC   C3921656   3.832   5.467   4.007  0.2693  0.4491  0.1942
  188POPC   H9X21657   3.773   5.408   3.933  1.6996 -3.8536  2.1440
  188POPC   H9Y21658   3.757   5.535   4.052 -0.3515  0.4341 -0.7746
  188POPC  C31021659   3.885   5.371   4.112  0.5092 -0.1062  0.2817
  188POPC  H10X21660   3.921   5.421   4.205 -0.0479 -1.2953  1.1728
  188POPC  H10Y21661   3.972   5.307   4.089  0.1160 -1.2953  1.8849
  188POPC  C31121662   3.771   5.278   4.163  0.3873  0.3270 -0.7242
  188POPC  H11X21663   3.747   5.211   4.078 -0.4832 -0.8854  0.4248
  188POPC  H11Y21664   3.678   5.333   4.189 -2.0547 -3.3135 -0.9717
  188POPC  C31221665   3.820   5.194   4.287  0.5028 -0.4091 -0.3874
  188POPC  H12X21666   3.857   5.273   4.355  0.1219 -0.0974 -0.5360
  188POPC  H12Y21667   3.896   5.119   4.257  0.5547 -0.4550 -0.1436
  188POPC  C31321668   3.705   5.130   4.356  0.8392  0.2360  0.1705
  188POPC  H13X21669   3.654   5.059   4.287 -1.7584  1.3318  0.8413
  188POPC  H13Y21670   3.633   5.205   4.395  0.5727 -1.0862  2.4005
  188POPC  C31421671   3.757   5.053   4.477 -0.0098  0.0955  0.0529
  188POPC  H14X21672   3.841   5.116   4.513 -0.3163 -0.3396  1.5909
  188POPC  H14Y21673   3.781   4.951   4.439  0.1573  0.9105 -2.1761
  188POPC  C31521674   3.653   5.057   4.591 -0.1459 -1.2099 -0.0700
  188POPC  H15X21675   3.627   5.163   4.615 -1.3018 -0.8708 -2.5631
  188POPC  H15Y21676   3.704   5.017   4.682 -0.0483 -1.3857 -0.2030
  188POPC  C31621677   3.523   4.983   4.559 -0.2902 -0.2328 -0.2489
  188POPC  H16X21678   3.554   4.879   4.534 -1.8721 -0.8622  0.2853
  188POPC  H16Y21679   3.471   5.029   4.473 -1.7441  1.4605  1.4361
  188POPC  H16Z21680   3.466   4.979   4.654  0.1208 -1.3262 -0.0256
  189SAPI   C1221681   6.525   0.266   7.222 -0.1693  0.5817  0.0392
  189SAPI    H221682   6.514   0.327   7.130  1.9975  2.8528  1.1785
  189SAPI    O221683   6.552   0.356   7.329 -0.9816 -0.3436 -0.6300
  189SAPI   HO221684   6.633   0.401   7.302  0.1440 -2.4208 -0.9647
  189SAPI   C1321685   6.393   0.195   7.252 -0.2885 -0.0191  0.8127
  189SAPI    H321686   6.370   0.145   7.156  0.3499  0.6132  0.3150
  189SAPI    O321687   6.285   0.285   7.279  0.0752  0.0816 -0.1592
  189SAPI   HO321688   6.279   0.357   7.216  3.1479  0.8327  0.2581
  189SAPI   C1421689   6.396   0.088   7.359  0.1474 -0.3507 -0.0546
  189SAPI    H421690   6.383   0.145   7.454 -1.5680  0.7275 -0.9026
  189SAPI    O421691   6.274   0.006   7.364  0.2957  0.4166 -0.4445
  189SAPI   HO421692   6.207   0.043   7.422  0.4479  0.8216 -0.5271
  189SAPI   C1521693   6.523   0.006   7.372 -0.1779  0.3439 -0.7431
  189SAPI    H521694   6.505  -0.083   7.308 -1.6943  1.3309 -1.7734
  189SAPI    O521695   6.536  -0.053   7.506 -0.2358 -1.1498 -0.4059
  189SAPI   HO521696   6.542  -0.147   7.491  1.8225 -1.0209 -0.7257
  189SAPI   C1621697   6.650   0.078   7.333 -0.6091  0.7494  0.0222
  189SAPI    H621698   6.682   0.145   7.415  0.5487  1.4773 -0.9836
  189SAPI    O621699   6.747  -0.027   7.329 -0.0007  0.2610 -0.7953
  189SAPI   HO621700   6.816   0.008   7.271  0.4785  1.2026  0.2966
  189SAPI   C1121701   6.641   0.161   7.207  0.5730 -0.4884 -0.2090
  189SAPI    H121702   6.612   0.095   7.122  1.6321 -0.4836 -0.5850
  189SAPI     P21703   6.880   0.183   7.076 -0.2002 -0.2906 -0.1408
  189SAPI   O1321704   6.886   0.038   7.103  0.3381 -0.2875  0.4968
  189SAPI   O1421705   7.004   0.266   7.093  0.6844  0.1963 -0.0401
  189SAPI   O1221706   6.755   0.237   7.169  0.2800  0.6268  0.5208
  189SAPI   O1121707   6.833   0.193   6.922  0.2397  0.4122 -0.1079
  189SAPI    C121708   6.742   0.304   6.889  0.0218 -0.3072 -0.0522
  189SAPI    HA21709   6.640   0.277   6.926  0.7321  0.9994  3.2253
  189SAPI    HB21710   6.765   0.403   6.933 -0.6706 -0.1629 -0.0091
  189SAPI    C221711   6.700   0.319   6.739  0.0150  1.0164  0.3046
  189SAPI    HS21712   6.621   0.242   6.724  0.7350  0.0156  1.4743
  189SAPI   O2121713   6.813   0.296   6.649  0.0506 -0.7038 -0.1863
  189SAPI   C2121714   6.785   0.236   6.538 -0.2895 -0.6290  0.3884
  189SAPI   O2221715   6.678   0.187   6.508 -0.1874  0.4412  0.3823
  189SAPI   C2221716   6.917   0.239   6.458 -0.3526 -0.5811 -0.4292
  189SAPI   H2R21717   6.942   0.341   6.423 -0.1318  0.2318  1.9589
  189SAPI   H2S21718   6.995   0.196   6.524 -2.3464 -1.7496  1.2924
  189SAPI    C321719   6.627   0.454   6.704 -0.4724 -0.0249  0.4110
  189SAPI    HX21720   6.538   0.461   6.770 -2.6940 -0.0853 -2.3837
  189SAPI    HY21721   6.581   0.463   6.603  0.2934  1.1780  0.1473
  189SAPI   O3121722   6.719   0.565   6.721 -0.3802 -0.7670 -0.4755
  189SAPI   C3121723   6.784   0.608   6.612 -0.5110  1.0147 -0.4107
  189SAPI   O3221724   6.787   0.559   6.500  0.2816 -0.2194  0.2796
  189SAPI   C3221725   6.856   0.736   6.653 -0.2127 -0.3064 -0.2241
  189SAPI   H2X21726   6.931   0.711   6.731  2.5756 -1.6939 -3.1330
  189SAPI   H2Y21727   6.776   0.800   6.696  1.0689  0.4762  1.0894
  189SAPI   C2321728   6.910   0.153   6.334 -0.2850  0.3328  0.5022
  189SAPI   H3R21729   6.847   0.206   6.259  2.2503  0.3384 -1.8034
  189SAPI   H3S21730   6.863   0.055   6.356  1.0588 -0.6885 -0.9161
  189SAPI   C2421731   7.043   0.123   6.269  0.4248 -0.1343  0.6144
  189SAPI   H4R21732   7.093   0.217   6.237 -1.2125  0.7386  0.5019
  189SAPI   H4S21733   7.020   0.072   6.173 -0.0446  1.0635  0.0702
  189SAPI   C2521734   7.144   0.045   6.345  0.1265  0.0922 -0.0542
  189SAPI   H5R21735   7.218   0.087   6.414 -1.2752  0.0060  1.5870
  189SAPI   C2621736   7.154  -0.090   6.331 -0.6468 -0.3244 -0.0929
  189SAPI   H6R21737   7.213  -0.150   6.402 -0.2501 -0.0205 -0.1635
  189SAPI   C2721738   7.062  -0.173   6.241 -0.5697 -0.2880 -0.4474
  189SAPI   H7R21739   7.079  -0.142   6.136 -0.2179 -0.1577 -0.3529
  189SAPI   H7S21740   6.956  -0.146   6.260 -0.0081  2.0421 -0.3562
  189SAPI   C2821741   7.099  -0.317   6.282 -0.0487 -0.3933  0.2551
  189SAPI   H8R21742   7.128  -0.324   6.388  1.2053  1.8954  0.1286
  189SAPI   C2921743   7.090  -0.433   6.209  0.2885 -0.4198  0.3172
  189SAPI   H9R21744   7.131  -0.525   6.252  1.4898  0.2938  0.7825
  189SAPI  C21021745   7.041  -0.430   6.065 -0.2997  0.1760  0.2715
  189SAPI  H10R21746   7.113  -0.366   6.009 -0.1897  1.3038  1.6600
  189SAPI  H10S21747   6.942  -0.379   6.063  0.6785  2.1513  0.1862
  189SAPI  C21121748   7.031  -0.567   5.997  0.6018 -1.0744  0.3832
  189SAPI  H11R21749   7.001  -0.652   6.060 -2.0909 -0.8831 -0.5085
  189SAPI  C21221750   7.034  -0.597   5.866  0.0560  0.0477 -0.1960
  189SAPI  H12R21751   7.014  -0.700   5.834 -0.2486 -0.2499  0.9259
  189SAPI  C21321752   7.047  -0.499   5.754  0.4450 -0.9961  0.5558
  189SAPI  H13R21753   7.122  -0.542   5.684 -0.1320 -0.8972 -0.1356
  189SAPI  H13S21754   7.092  -0.408   5.798 -1.0641  0.6277 -1.0972
  189SAPI  C21421755   6.922  -0.487   5.672  0.8700 -0.3674 -0.0800
  189SAPI  H14R21756   6.847  -0.566   5.690  1.2901 -1.2364 -1.9030
  189SAPI  C21521757   6.902  -0.396   5.575  0.0490  0.0469 -0.1953
  189SAPI  H15R21758   6.807  -0.400   5.521  0.7178 -1.3735 -1.3321
  189SAPI  C21621759   6.982  -0.266   5.560  0.5978  0.1824 -0.0269
  189SAPI  H16R21760   7.032  -0.240   5.655  1.2067 -1.4995  0.1502
  189SAPI  H16S21761   6.918  -0.180   5.533 -0.5173 -0.5084  0.3201
  189SAPI  C21721762   7.077  -0.285   5.444 -0.1235 -0.1832 -0.0145
  189SAPI  H17R21763   7.028  -0.327   5.354 -0.8408  2.0923 -0.7575
  189SAPI  H17S21764   7.166  -0.345   5.474  0.5940  1.0476  0.4196
  189SAPI  C21821765   7.121  -0.141   5.392 -0.4208 -0.0476 -0.2262
  189SAPI  H18R21766   7.200  -0.100   5.459 -1.5376 -1.9303  2.4413
  189SAPI  H18S21767   7.035  -0.070   5.392  0.9326  1.6841  1.1501
  189SAPI  C21921768   7.171  -0.146   5.252 -1.3657 -0.3447 -0.3906
  189SAPI  H19R21769   7.086  -0.170   5.184  0.3740 -0.2675 -2.7171
  189SAPI  H19S21770   7.248  -0.225   5.244  0.7382  1.5180  0.5352
  189SAPI  C22021771   7.227  -0.010   5.197  0.7971  0.2433 -0.0370
  189SAPI  H20R21772   7.237  -0.022   5.087  0.4121 -0.9078  0.0334
  189SAPI  H20S21773   7.325   0.008   5.246  1.5365 -2.5760 -0.3130
  189SAPI  H20T21774   7.149   0.068   5.214  1.1366  0.4923  0.4162
  189SAPI   C3321775   6.919   0.813   6.540  0.0693  0.2860  0.0275
  189SAPI   H3X21776   6.979   0.749   6.473  0.7729  0.0630  0.8503
  189SAPI   H3Y21777   6.980   0.899   6.574 -1.8028  1.9905 -0.7002
  189SAPI   C3421778   6.808   0.884   6.451 -1.1295  0.2322  0.1118
  189SAPI   H4X21779   6.742   0.946   6.515 -0.6867 -0.0405  0.8461
  189SAPI   H4Y21780   6.741   0.821   6.388  0.8495 -0.7572 -1.1295
  189SAPI   C3521781   6.876   0.977   6.342 -0.2300  0.4615 -0.3171
  189SAPI   H5X21782   6.985   0.969   6.357 -0.3162 -1.6150 -0.5107
  189SAPI   H5Y21783   6.856   1.086   6.349 -1.7477  0.2384 -0.7847
  189SAPI   C3621784   6.836   0.931   6.201 -0.1324 -0.0029  0.6962
  189SAPI   H6X21785   6.729   0.954   6.181  0.4644  1.9917 -0.4741
  189SAPI   H6Y21786   6.846   0.821   6.191  0.2583 -0.1973  2.7652
  189SAPI   C3721787   6.932   1.008   6.108 -0.3722 -0.4705 -0.0585
  189SAPI   H7X21788   7.017   1.034   6.175 -0.2751 -0.3916 -0.2123
  189SAPI   H7Y21789   6.881   1.097   6.067 -1.8646 -1.9805 -1.6585
  189SAPI   C3821790   6.976   0.925   5.988 -0.2315 -0.9854 -0.5449
  189SAPI   H8X21791   6.882   0.898   5.935 -0.4280 -4.1248  1.1627
  189SAPI   H8Y21792   7.035   0.841   6.030 -0.2774 -0.3478  0.8699
  189SAPI   C3921793   7.072   1.000   5.901 -0.4835 -0.4250  0.3117
  189SAPI   H9X21794   7.167   1.027   5.952 -0.0965  0.0926 -0.6588
  189SAPI   H9Y21795   7.014   1.084   5.857 -0.6811 -2.0123 -2.7258
  189SAPI  C31021796   7.122   0.911   5.779 -0.3723  0.0676 -0.1849
  189SAPI  H10X21797   7.040   0.877   5.712 -0.1798 -1.5486  0.3448
  189SAPI  H10Y21798   7.176   0.816   5.802  0.1988  0.0046 -1.6550
  189SAPI  C31121799   7.208   0.996   5.673 -0.4696 -0.5080 -0.3273
  189SAPI  H11X21800   7.287   1.057   5.721 -3.4412  3.6679 -0.2087
  189SAPI  H11Y21801   7.149   1.064   5.607  0.2505 -0.4354 -0.9089
  189SAPI  C31221802   7.274   0.898   5.570  0.3971  0.0682 -0.9842
  189SAPI  H12X21803   7.203   0.817   5.543 -1.0015  0.4227  1.3947
  189SAPI  H12Y21804   7.364   0.853   5.618  1.3011  2.3403 -0.4175
  189SAPI  C31321805   7.316   0.977   5.448 -0.0759 -0.5011  0.6906
  189SAPI  H13X21806   7.377   1.064   5.481 -1.1284  1.0456 -1.2388
  189SAPI  H13Y21807   7.218   1.021   5.418  1.2633  3.0657  1.0569
  189SAPI  C31421808   7.385   0.900   5.333 -0.2922 -0.6587 -0.3579
  189SAPI  H14X21809   7.318   0.815   5.308 -2.2692  1.0830 -1.2823
  189SAPI  H14Y21810   7.478   0.850   5.367 -0.1259 -0.2474 -0.1891
  189SAPI  C31521811   7.421   0.985   5.210  0.2879 -0.4439  0.2268
  189SAPI  H15X21812   7.500   1.052   5.249  1.9614 -0.8404 -2.2678
  189SAPI  H15Y21813   7.337   1.048   5.174  0.1049  0.3682  1.9863
  189SAPI  C31621814   7.491   0.904   5.100  0.8517  0.1536  0.7709
  189SAPI  H16X21815   7.413   0.841   5.054 -0.4108  1.5705  0.8699
  189SAPI  H16Y21816   7.574   0.845   5.145  2.6427  0.1858 -2.2009
  189SAPI  C31721817   7.539   0.997   4.992 -0.5134 -0.2977  0.0092
  189SAPI  H17X21818   7.624   1.063   5.018 -3.0189  2.6130  1.4593
  189SAPI  H17Y21819   7.454   1.066   4.972 -1.9958 -1.5248  1.7324
  189SAPI  C31821820   7.568   0.927   4.852  0.2187  0.2572  0.7953
  189SAPI  H18X21821   7.571   0.981   4.755 -0.7463 -1.9135 -0.5153
  189SAPI  H18Y21822   7.478   0.864   4.836 -0.3594  0.4824  2.8574
  189SAPI  H18Z21823   7.660   0.866   4.853 -0.7188 -1.2117  0.6575
  190SAPI   C1221824   5.861   3.661   7.038 -0.2160  0.3808  0.4481
  190SAPI    H221825   5.788   3.730   6.992  0.3709  0.2199 -0.7613
  190SAPI    O221826   5.898   3.706   7.165 -0.0246 -0.0913 -0.2700
  190SAPI   HO221827   5.843   3.783   7.179 -0.2085 -0.3800  0.6865
  190SAPI   C1321828   5.801   3.522   7.043  0.4439 -0.0602  0.1093
  190SAPI    H321829   5.801   3.483   6.939 -1.3431  3.4650 -1.3843
  190SAPI    O321830   5.666   3.534   7.091  0.2313  0.4454  0.2702
  190SAPI   HO321831   5.609   3.492   7.025 -0.2547 -1.6409  1.8907
  190SAPI   C1421832   5.896   3.432   7.126  0.2104 -0.2588 -0.3711
  190SAPI    H421833   5.896   3.465   7.232  0.2291 -0.0369 -0.4411
  190SAPI    O421834   5.849   3.295   7.122 -0.3559 -0.0134  0.2011
  190SAPI   HO421835   5.844   3.270   7.029  1.9996 -0.6704  0.1691
  190SAPI   C1521836   6.047   3.450   7.084 -0.2186  0.7390 -1.1443
  190SAPI    H521837   6.072   3.359   7.025  0.1421 -0.2165  0.4399
  190SAPI    O521838   6.139   3.432   7.197  0.0370  0.5310  0.0322
  190SAPI   HO521839   6.184   3.350   7.176 -0.3569  0.7501 -1.7754
  190SAPI   C1621840   6.091   3.571   6.994 -0.0373 -1.1171  0.1095
  190SAPI    H621841   6.147   3.633   7.067 -0.1474  0.4447 -1.0654
  190SAPI    O621842   6.179   3.539   6.882  0.8448 -0.3725  0.5233
  190SAPI   HO621843   6.187   3.625   6.841  1.8958  0.1128  1.7056
  190SAPI   C1121844   5.979   3.659   6.939  0.3876  0.1184  0.0239
  190SAPI    H121845   5.933   3.614   6.848  1.1557  0.5759 -0.6059
  190SAPI     P21846   6.037   3.858   6.763 -0.2059  0.3663 -0.3019
  190SAPI   O1321847   6.143   3.792   6.683  0.1789  0.6706 -0.7754
  190SAPI   O1421848   6.036   4.007   6.777 -0.1125 -0.1259 -0.3926
  190SAPI   O1221849   6.026   3.795   6.915 -0.6836 -0.3238  1.2948
  190SAPI   O1121850   5.896   3.828   6.698 -0.1310 -0.4639  0.2840
  190SAPI    C121851   5.791   3.903   6.648  0.6197  0.7210 -0.3800
  190SAPI    HA21852   5.697   3.849   6.670  2.0247 -2.7079 -2.0466
  190SAPI    HB21853   5.794   3.998   6.706  2.7721  1.0572 -0.9298
  190SAPI    C221854   5.798   3.935   6.500  0.5262 -0.4243  0.7301
  190SAPI    HS21855   5.805   3.838   6.445  1.4818 -0.0300  0.1138
  190SAPI   O2121856   5.909   4.031   6.484  0.2873 -0.3023 -0.3185
  190SAPI   C2121857   5.999   3.982   6.403 -0.2281  0.1346 -0.6418
  190SAPI   O2221858   6.008   3.865   6.362  0.2500 -0.2089 -0.5626
  190SAPI   C2221859   6.088   4.096   6.363  0.3209 -0.1308  0.5670
  190SAPI   H2R21860   6.033   4.166   6.297  1.3862 -0.3750 -0.6325
  190SAPI   H2S21861   6.127   4.162   6.443  3.0322  3.1069 -3.0253
  190SAPI    C321862   5.668   4.010   6.454  0.2309 -0.6493  0.9729
  190SAPI    HX21863   5.673   4.107   6.508  1.3425 -0.1933  0.1109
  190SAPI    HY21864   5.572   3.968   6.490 -0.5421  0.6875  0.5572
  190SAPI   O3121865   5.668   4.041   6.310  0.0472  0.3924  0.0144
  190SAPI   C3121866   5.655   3.927   6.235  0.7682  0.3353  0.2465
  190SAPI   O3221867   5.606   3.820   6.266 -0.4774  0.1713 -0.4286
  190SAPI   C3221868   5.707   3.968   6.093  0.3762  0.4786  0.1010
  190SAPI   H2X21869   5.818   3.973   6.084  0.4674 -2.4493 -1.9511
  190SAPI   H2Y21870   5.669   4.069   6.067 -3.8515 -1.2092 -1.2318
  190SAPI   C2321871   6.209   4.055   6.277  0.0218 -0.1009 -0.1359
  190SAPI   H3R21872   6.243   3.950   6.296 -2.0467 -0.6270  0.9498
  190SAPI   H3S21873   6.295   4.121   6.302 -0.6242  1.4548 -1.8139
  190SAPI   C2421874   6.182   4.063   6.124  0.3125 -0.3183 -0.2720
  190SAPI   H4R21875   6.283   4.050   6.081  1.1378  1.0469  1.1707
  190SAPI   H4S21876   6.159   4.169   6.098 -2.5238 -0.5577  0.8336
  190SAPI   C2521877   6.086   3.964   6.076  0.2603  0.0984  0.8268
  190SAPI   H5R21878   6.085   3.876   6.142 -0.9088 -0.7998 -0.3246
  190SAPI   C2621879   6.041   3.948   5.949 -0.7632 -0.4950 -0.1060
  190SAPI   H6R21880   5.979   3.857   5.943  1.5912 -2.1610 -0.3730
  190SAPI   C2721881   6.051   4.054   5.842 -0.2844 -0.0983  0.2102
  190SAPI   H7R21882   6.057   4.153   5.893 -0.5660 -0.4477  0.9247
  190SAPI   H7S21883   5.953   4.052   5.789  0.0268  0.0953 -0.3911
  190SAPI   C2821884   6.167   4.039   5.737  0.0892 -0.1979 -0.0197
  190SAPI   H8R21885   6.258   3.988   5.771  1.7815  2.0592 -0.8261
  190SAPI   C2921886   6.155   4.067   5.605  0.0180 -0.0629 -0.2954
  190SAPI   H9R21887   6.246   4.052   5.545  1.4170  0.6865  1.5479
  190SAPI  C21021888   6.023   4.116   5.539 -1.1414 -0.3189  0.6167
  190SAPI  H10R21889   6.042   4.225   5.530  1.5859 -0.7050  0.7207
  190SAPI  H10S21890   5.934   4.093   5.600 -1.4803  1.6857  0.9394
  190SAPI  C21121891   6.004   4.051   5.401 -0.1241  1.0616  0.8615
  190SAPI  H11R21892   5.966   3.948   5.399 -0.4586  1.1752 -1.4063
  190SAPI  C21221893   6.022   4.096   5.279 -0.3240  0.1788  0.0167
  190SAPI  H12R21894   6.004   4.031   5.192  0.0486 -1.3000  1.0048
  190SAPI  C21321895   6.075   4.232   5.234  0.0741  0.7721  0.0177
  190SAPI  H13R21896   6.056   4.304   5.317  1.6722 -0.3606  1.4305
  190SAPI  H13S21897   6.032   4.261   5.135 -0.5936  2.4177  0.7576
  190SAPI  C21421898   6.219   4.211   5.212 -0.5183 -0.3240  0.0930
  190SAPI  H14R21899   6.273   4.177   5.302  2.7680 -0.9755 -1.9711
  190SAPI  C21521900   6.296   4.236   5.101  0.3126 -0.2890 -0.2416
  190SAPI  H15R21901   6.404   4.214   5.105  0.3160 -0.2227  3.2437
  190SAPI  C21621902   6.237   4.289   4.975 -0.0770 -0.2192  0.6052
  190SAPI  H16R21903   6.317   4.359   4.942  0.2813 -0.9328 -0.0543
  190SAPI  H16S21904   6.139   4.342   4.977 -0.0304 -0.1453  2.1049
  190SAPI  C21721905   6.223   4.161   4.883 -0.4159 -0.3323 -0.7793
  190SAPI  H17R21906   6.186   4.197   4.784 -1.1019 -1.8387 -1.0893
  190SAPI  H17S21907   6.146   4.090   4.918  0.9488 -1.0561  0.8868
  190SAPI  C21821908   6.355   4.077   4.862  0.1876  0.1388  0.1262
  190SAPI  H18R21909   6.349   4.023   4.765 -0.8843  2.1779 -1.0313
  190SAPI  H18S21910   6.359   4.007   4.948  0.1570  0.2768  0.2413
  190SAPI  C21921911   6.490   4.153   4.852  0.4711  0.0041  0.2571
  190SAPI  H19R21912   6.513   4.216   4.941 -4.0450  2.6103 -0.0969
  190SAPI  H19S21913   6.472   4.223   4.767 -0.4293 -2.1791 -1.4631
  190SAPI  C22021914   6.603   4.069   4.795 -0.7274 -0.2626  0.1364
  190SAPI  H20R21915   6.689   4.137   4.779 -1.0910  0.5231  1.3461
  190SAPI  H20S21916   6.580   4.039   4.691 -2.2598 -0.4340  0.4965
  190SAPI  H20T21917   6.628   3.982   4.860 -1.3957 -1.2454 -0.8921
  190SAPI   C3321918   5.652   3.872   5.988 -0.6529  0.0346 -0.0380
  190SAPI   H3X21919   5.543   3.857   5.999 -0.4574 -0.5336  1.2600
  190SAPI   H3Y21920   5.702   3.781   6.025 -0.2477  0.4941  0.5759
  190SAPI   C3421921   5.687   3.913   5.839  0.6148  0.3923 -0.7774
  190SAPI   H4X21922   5.793   3.945   5.845  0.7699 -0.0392 -1.1592
  190SAPI   H4Y21923   5.622   4.000   5.816  0.8970  1.0175  0.7137
  190SAPI   C3521924   5.665   3.803   5.737  0.3710 -0.3746 -0.4895
  190SAPI   H5X21925   5.563   3.760   5.751  0.1498 -0.2947 -1.7212
  190SAPI   H5Y21926   5.728   3.717   5.770  2.3528  1.3784  0.5147
  190SAPI   C3621927   5.703   3.849   5.595  0.3925  0.5354 -0.6220
  190SAPI   H6X21928   5.814   3.847   5.589  0.4142  0.9806 -0.3731
  190SAPI   H6Y21929   5.656   3.946   5.570 -0.5799  0.4766  0.8327
  190SAPI   C3721930   5.636   3.761   5.490  0.2789  0.3090  0.9420
  190SAPI   H7X21931   5.530   3.792   5.494  1.0614  3.4598  0.2682
  190SAPI   H7Y21932   5.639   3.654   5.521  0.9257 -0.3399 -1.1728
  190SAPI   C3821933   5.694   3.784   5.352  0.2318 -0.5418  0.2349
  190SAPI   H8X21934   5.788   3.843   5.352 -0.0047 -0.1631  0.9300
  190SAPI   H8Y21935   5.624   3.849   5.296  2.3740  0.1968 -1.7749
  190SAPI   C3921936   5.710   3.652   5.270  0.3720 -0.0295  0.1672
  190SAPI   H9X21937   5.610   3.604   5.267  1.3608 -2.1146 -1.2390
  190SAPI   H9Y21938   5.764   3.565   5.313 -0.1721 -0.2391  0.4406
  190SAPI  C31021939   5.752   3.684   5.129  0.2095  0.0135  0.6980
  190SAPI  H10X21940   5.860   3.707   5.143 -0.1452  1.8329  0.7120
  190SAPI  H10Y21941   5.691   3.769   5.090  0.9740  0.5327  0.6150
  190SAPI  C31121942   5.731   3.568   5.030 -0.3252 -0.2795  0.5213
  190SAPI  H11X21943   5.784   3.474   5.060 -0.4764 -1.3231 -2.1731
  190SAPI  H11Y21944   5.799   3.590   4.945  0.2264 -0.3551  0.9371
  190SAPI  C31221945   5.582   3.553   4.986 -0.1048 -0.2570 -0.5121
  190SAPI  H12X21946   5.556   3.652   4.943  1.5315  0.1212 -0.7193
  190SAPI  H12Y21947   5.510   3.533   5.068 -0.7679 -0.7725 -1.2070
  190SAPI  C31321948   5.558   3.437   4.891 -0.1448 -0.8353 -0.1236
  190SAPI  H13X21949   5.451   3.439   4.859  0.5565 -0.0951 -2.7161
  190SAPI  H13Y21950   5.584   3.338   4.933  1.5828 -0.3132  0.1064
  190SAPI  C31421951   5.611   3.465   4.748 -0.1754 -0.7640 -0.3824
  190SAPI  H14X21952   5.716   3.499   4.761 -0.5725  0.1723  0.5315
  190SAPI  H14Y21953   5.555   3.551   4.706 -0.3396 -0.5723  0.2133
  190SAPI  C31521954   5.598   3.345   4.659  0.2797 -0.6788  0.3666
  190SAPI  H15X21955   5.661   3.266   4.704 -2.0276 -1.4587  2.4607
  190SAPI  H15Y21956   5.627   3.354   4.552 -0.3200  0.9811  0.3116
  190SAPI  C31621957   5.455   3.293   4.647  0.1720  1.3164  0.5081
  190SAPI  H16X21958   5.416   3.280   4.750  3.8357 -0.9559  1.8010
  190SAPI  H16Y21959   5.456   3.194   4.596 -0.8067  1.5846 -0.0640
  190SAPI  C31721960   5.361   3.385   4.569 -0.1869 -0.1801 -1.0551
  190SAPI  H17X21961   5.402   3.419   4.471 -1.4037  2.0103 -0.8625
  190SAPI  H17Y21962   5.352   3.484   4.618 -0.6358 -0.6606 -0.1371
  190SAPI  C31821963   5.223   3.330   4.548 -0.1536 -0.6207 -0.3418
  190SAPI  H18X21964   5.223   3.242   4.480 -0.6332  0.6913 -2.1283
  190SAPI  H18Y21965   5.165   3.407   4.493 -0.7398 -0.3794  0.5904
  190SAPI  H18Z21966   5.181   3.312   4.650  0.0507  2.4271  0.3884
  191SAPI   C1221967   2.435   4.683   2.719  0.8473  0.3288 -0.0450
  191SAPI    H221968   2.328   4.669   2.688  0.6717 -1.3834  1.1674
  191SAPI    O221969   2.446   4.641   2.861 -0.4278 -0.3524 -0.8629
  191SAPI   HO221970   2.368   4.657   2.916  0.1740  0.5492 -0.2339
  191SAPI   C1321971   2.517   4.610   2.622  0.5387  0.6357  0.0113
  191SAPI    H321972   2.496   4.659   2.524  1.6561 -0.9430 -1.0786
  191SAPI    O321973   2.478   4.472   2.602 -0.6726  0.2610  0.1243
  191SAPI   HO321974   2.470   4.458   2.508  0.5334  0.6369 -0.0617
  191SAPI   C1421975   2.666   4.628   2.652 -0.1328 -0.3745  0.7083
  191SAPI    H421976   2.674   4.563   2.741 -0.8091 -0.6632  0.5667
  191SAPI    O421977   2.741   4.565   2.550 -0.4914 -0.0455  0.0572
  191SAPI   HO421978   2.788   4.494   2.593  0.4505  1.1494  1.0469
  191SAPI   C1521979   2.713   4.766   2.693  0.4669  0.5482 -0.5613
  191SAPI    H521980   2.736   4.820   2.599 -0.7680  3.1154  0.5034
  191SAPI    O521981   2.827   4.752   2.772 -0.2798 -0.1076  0.1679
  191SAPI   HO521982   2.845   4.839   2.809 -0.9670  1.3845 -2.6558
  191SAPI   C1621983   2.602   4.861   2.750 -0.1228 -1.2203 -0.7752
  191SAPI    H621984   2.612   4.854   2.861  1.2038  0.9159 -0.7159
  191SAPI    O621985   2.627   4.996   2.715  0.2613 -0.2273 -0.0591
  191SAPI   HO621986   2.568   5.046   2.772 -1.2091 -1.7621 -0.1852
  191SAPI   C1121987   2.465   4.831   2.695 -0.3029 -0.0524 -0.1252
  191SAPI    H121988   2.467   4.848   2.585  0.6610 -0.7884 -0.2379
  191SAPI     P21989   2.238   4.976   2.704 -0.1106 -0.0455 -0.1014
  191SAPI   O1321990   2.166   4.858   2.647 -0.0506 -0.2101  0.1336
  191SAPI   O1421991   2.259   5.088   2.612 -0.1900  0.3015 -0.2580
  191SAPI   O1221992   2.377   4.917   2.767 -0.0005  0.6007  0.0817
  191SAPI   O1121993   2.159   5.021   2.830 -0.3019  0.6067  0.0498
  191SAPI    C121994   2.150   5.146   2.884 -0.0909 -0.9535  0.6382
  191SAPI    HA21995   2.105   5.213   2.808 -4.0094 -1.6963  2.0486
  191SAPI    HB21996   2.080   5.150   2.970 -0.6001  1.3987  0.1691
  191SAPI    C221997   2.289   5.199   2.925  0.2393  0.2073 -0.5880
  191SAPI    HS21998   2.355   5.199   2.836  1.4213  0.0818  0.2679
  191SAPI   O2121999   2.328   5.107   3.026 -0.2961  0.1250 -0.0160
  191SAPI   C2122000   2.458   5.102   3.036 -0.9037  1.0993  0.5799
  191SAPI   O2222001   2.543   5.175   2.980 -0.1017  0.5007  0.5379
  191SAPI   C2222002   2.500   4.996   3.136 -0.0097 -0.1116  0.5486
  191SAPI   H2R22003   2.418   4.923   3.153  0.4059 -0.6285  0.3907
  191SAPI   H2S22004   2.585   4.944   3.087  0.8769 -0.2810  2.1876
  191SAPI    C322005   2.281   5.344   2.965  0.5509 -0.0514  0.2854
  191SAPI    HX22006   2.247   5.401   2.877  0.6259 -1.3038 -0.5757
  191SAPI    HY22007   2.385   5.375   2.992  0.2728  2.7540 -1.5405
  191SAPI   O3122008   2.194   5.366   3.077  0.2230 -0.8329 -0.3039
  191SAPI   C3122009   2.249   5.376   3.203 -0.1282  0.3422 -0.5130
  191SAPI   O3222010   2.368   5.372   3.233  0.2665  0.2525 -0.4171
  191SAPI   C3222011   2.142   5.391   3.314  0.0171 -0.3493  0.0599
  191SAPI   H2X22012   2.105   5.496   3.317 -1.5001 -0.8737  0.7358
  191SAPI   H2Y22013   2.192   5.370   3.410 -1.5781  2.4277  1.6318
  191SAPI   C2322014   2.548   5.052   3.276  0.0931  0.3835  0.3199
  191SAPI   H3R22015   2.465   5.104   3.329 -0.3649  2.6201 -2.3840
  191SAPI   H3S22016   2.633   5.121   3.259  0.0393  0.2643 -0.4521
  191SAPI   C2422017   2.603   4.940   3.369 -0.1422 -0.0828 -0.1416
  191SAPI   H4R22018   2.668   4.869   3.314 -2.3164 -1.0747 -1.5609
  191SAPI   H4S22019   2.512   4.880   3.385 -1.8712  1.8313 -2.0533
  191SAPI   C2522020   2.666   4.988   3.505 -0.0320  0.1285 -0.0742
  191SAPI   H5R22021   2.765   5.036   3.498 -0.2222  1.1849  3.1063
  191SAPI   C2622022   2.620   4.976   3.627 -0.1612  0.1771 -0.3929
  191SAPI   H6R22023   2.672   5.022   3.712 -0.0404 -1.7040  0.6146
  191SAPI   C2722024   2.487   4.925   3.657  0.1057  0.0163  0.1001
  191SAPI   H7R22025   2.432   4.886   3.569  0.2375  1.4080 -0.6292
  191SAPI   H7S22026   2.415   5.007   3.676 -0.2542 -0.7267  2.2374
  191SAPI   C2822027   2.480   4.828   3.771  0.0325  0.3973  0.1151
  191SAPI   H8R22028   2.550   4.744   3.766 -0.4794 -0.1525  1.6528
  191SAPI   C2922029   2.386   4.820   3.867  0.1019 -0.2518 -1.2984
  191SAPI   H9R22030   2.405   4.741   3.941 -0.2592  0.3243 -0.5869
  191SAPI  C21022031   2.259   4.905   3.874 -0.3749 -0.4339 -0.2123
  191SAPI  H10R22032   2.192   4.887   3.787 -0.7037  1.6710 -0.4605
  191SAPI  H10S22033   2.278   5.014   3.874  0.9594 -0.6059  2.0604
  191SAPI  C21122034   2.172   4.871   3.990  0.6419  0.5161 -0.4121
  191SAPI  H11R22035   2.084   4.810   3.966  1.1216 -0.0922 -0.6305
  191SAPI  C21222036   2.177   4.935   4.108  0.2615  0.3284  0.0296
  191SAPI  H12R22037   2.102   4.898   4.179 -1.1055 -4.2311 -3.3135
  191SAPI  C21322038   2.286   5.034   4.158 -0.2274 -0.0872  0.5294
  191SAPI  H13R22039   2.242   5.134   4.180 -0.3663 -0.4027  1.7323
  191SAPI  H13S22040   2.360   5.046   4.076  0.5901  0.1973  1.3046
  191SAPI  C21422041   2.368   4.976   4.273  0.3776 -0.2096  0.8045
  191SAPI  H14R22042   2.461   4.935   4.231  0.4073 -1.5263  2.1134
  191SAPI  C21522043   2.337   4.947   4.396 -0.2900  0.7184 -0.5876
  191SAPI  H15R22044   2.426   4.911   4.450  0.0935 -0.5181 -1.9859
  191SAPI  C21622045   2.211   4.964   4.474 -0.3114 -0.4569  0.2026
  191SAPI  H16R22046   2.149   5.045   4.431  2.0433 -0.2838 -3.2207
  191SAPI  H16S22047   2.244   4.993   4.576 -0.0463  2.4336 -0.6199
  191SAPI  C21722048   2.130   4.826   4.469  0.1694 -0.4488  0.5325
  191SAPI  H17R22049   2.119   4.786   4.366  1.2409  1.1573 -0.2416
  191SAPI  H17S22050   2.027   4.844   4.506 -1.4446  0.1500 -3.7370
  191SAPI  C21822051   2.195   4.708   4.551  0.0846 -0.5456  0.1137
  191SAPI  H18R22052   2.218   4.737   4.656  2.7613  0.0351 -0.5459
  191SAPI  H18S22053   2.291   4.680   4.503 -0.1299 -1.5014  0.2275
  191SAPI  C21922054   2.105   4.590   4.560  0.1055 -0.0340 -0.2999
  191SAPI  H19R22055   2.167   4.502   4.587 -2.7549 -1.9406  0.3637
  191SAPI  H19S22056   2.067   4.563   4.459  2.7403 -0.3363 -1.2995
  191SAPI  C22022057   1.988   4.599   4.666  0.3347 -0.0733  0.0499
  191SAPI  H20R22058   1.906   4.654   4.616 -0.0564 -0.1673  0.5830
  191SAPI  H20S22059   2.016   4.660   4.755 -1.2428 -0.5200  0.8822
  191SAPI  H20T22060   1.953   4.499   4.698 -2.1762  1.2097  1.6584
  191SAPI   C3322061   2.027   5.292   3.298 -0.2840 -0.2966 -0.2458
  191SAPI   H3X22062   1.966   5.312   3.207 -0.2875  0.1973 -0.1408
  191SAPI   H3Y22063   1.956   5.295   3.384 -1.1887  2.4380 -0.9787
  191SAPI   C3422064   2.079   5.152   3.286 -0.0607 -0.5393  0.6645
  191SAPI   H4X22065   2.147   5.142   3.199  1.2507  1.2457  1.4314
  191SAPI   H4Y22066   1.997   5.083   3.255  0.6315 -0.6141 -1.0849
  191SAPI   C3522067   2.156   5.104   3.412  0.7805 -0.2994 -0.5364
  191SAPI   H5X22068   2.097   5.124   3.503  1.3165 -0.4376 -0.1521
  191SAPI   H5Y22069   2.245   5.168   3.431 -0.2667  0.7285  1.0604
  191SAPI   C3622070   2.194   4.953   3.404 -0.2726  0.1269 -0.4680
  191SAPI   H6X22071   2.241   4.923   3.499 -2.4075 -1.7163  0.0946
  191SAPI   H6Y22072   2.252   4.939   3.310 -0.0796  0.5414 -0.4090
  191SAPI   C3722073   2.071   4.857   3.382 -0.4667 -0.4569  0.5286
  191SAPI   H7X22074   2.036   4.865   3.277  0.5305 -1.3035  0.1121
  191SAPI   H7Y22075   1.994   4.872   3.460 -0.3652  1.2722  0.3346
  191SAPI   C3822076   2.113   4.711   3.404  0.3104  0.5693  0.3757
  191SAPI   H8X22077   2.177   4.679   3.319 -1.3585 -1.0106 -0.3519
  191SAPI   H8Y22078   2.019   4.655   3.384  1.5392 -1.1574 -0.8216
  191SAPI   C3922079   2.156   4.670   3.547 -0.2799  0.3236 -0.3029
  191SAPI   H9X22080   2.073   4.670   3.621 -0.8946 -1.7833 -0.9054
  191SAPI   H9Y22081   2.232   4.744   3.581 -0.5653  0.7271 -0.5482
  191SAPI  C31022082   2.211   4.529   3.550  0.2837  0.2570 -0.0620
  191SAPI  H10X22083   2.269   4.518   3.456  2.0114 -2.2178  1.1878
  191SAPI  H10Y22084   2.121   4.464   3.547 -1.4076  2.4907 -2.0584
  191SAPI  C31122085   2.312   4.506   3.661 -0.1144 -0.7388 -1.1491
  191SAPI  H11X22086   2.386   4.588   3.647 -1.1495  0.6576  1.1034
  191SAPI  H11Y22087   2.360   4.407   3.644 -1.8093 -1.5368 -1.4711
  191SAPI  C31222088   2.257   4.518   3.804 -0.0934 -0.2859  0.4743
  191SAPI  H12X22089   2.182   4.600   3.805  0.2328  0.0314 -0.3726
  191SAPI  H12Y22090   2.340   4.535   3.875  1.4347  1.7669 -1.6569
  191SAPI  C31322091   2.185   4.400   3.864 -0.8197 -0.0265  0.9581
  191SAPI  H13X22092   2.248   4.309   3.865 -3.8530 -2.2873  1.5645
  191SAPI  H13Y22093   2.091   4.388   3.805  0.6739 -0.8654 -1.4206
  191SAPI  C31422094   2.145   4.413   4.008  0.1836 -0.0999 -0.0220
  191SAPI  H14X22095   2.075   4.499   4.019 -1.1347 -1.1830  0.4368
  191SAPI  H14Y22096   2.235   4.435   4.069 -1.8054  0.9707  2.7271
  191SAPI  C31522097   2.077   4.299   4.077 -0.2160 -0.3827  0.3636
  191SAPI  H15X22098   2.153   4.242   4.136 -0.7456  0.9683  2.4460
  191SAPI  H15Y22099   2.032   4.228   4.003  1.9333 -0.1661 -1.2440
  191SAPI  C31622100   1.974   4.351   4.177  0.3728  0.0556 -0.2152
  191SAPI  H16X22101   1.888   4.390   4.119  0.6670  0.6941 -0.2231
  191SAPI  H16Y22102   2.007   4.440   4.234 -0.8085  0.3307  0.0575
  191SAPI  C31722103   1.927   4.242   4.267 -0.0120 -0.0914 -0.4996
  191SAPI  H17X22104   2.002   4.212   4.344 -2.1692 -1.6086  1.1089
  191SAPI  H17Y22105   1.924   4.150   4.205  2.2848  1.4531 -3.1542
  191SAPI  C31822106   1.792   4.271   4.323  0.0830  0.4544 -0.7064
  191SAPI  H18X22107   1.769   4.195   4.400  0.7148  0.1315 -0.8283
  191SAPI  H18Y22108   1.718   4.277   4.240  0.3820 -1.6489 -1.1645
  191SAPI  H18Z22109   1.789   4.369   4.375  3.5793  0.4751 -0.3238
  192SAPI   C1222110   3.463   3.465   2.475  0.1463 -0.9229  0.3610
  192SAPI    H222111   3.452   3.471   2.585  0.1188 -0.7413  0.3483
  192SAPI    O222112   3.341   3.414   2.422 -0.0435  0.3726  0.6230
  192SAPI   HO222113   3.336   3.324   2.454 -2.5806 -0.1663 -1.0610
  192SAPI   C1322114   3.491   3.602   2.420 -0.0387 -0.2135 -0.7514
  192SAPI    H322115   3.583   3.643   2.467 -0.9701  0.0052  0.9693
  192SAPI    O322116   3.389   3.696   2.466 -0.1115  0.4146  0.0556
  192SAPI   HO322117   3.438   3.753   2.527  0.5491  0.1510 -0.2269
  192SAPI   C1422118   3.511   3.589   2.271 -0.4248 -0.1192  0.4384
  192SAPI    H422119   3.411   3.579   2.224 -0.2850 -0.1137  0.1421
  192SAPI    O422120   3.560   3.712   2.222  0.2833 -0.1710  0.2184
  192SAPI   HO422121   3.494   3.759   2.171 -0.5691 -1.3329  0.2126
  192SAPI   C1522122   3.590   3.473   2.221  0.2281 -0.1130 -0.1564
  192SAPI    H522123   3.696   3.507   2.220  0.2593 -0.2289 -0.7771
  192SAPI    O522124   3.562   3.452   2.081 -0.3747 -0.1796 -0.3271
  192SAPI   HO522125   3.643   3.469   2.032 -0.1896 -0.4439 -0.1159
  192SAPI   C1622126   3.601   3.347   2.306 -0.1894 -0.2964  0.2453
  192SAPI    H622127   3.520   3.282   2.267 -0.6408  0.5214 -0.2026
  192SAPI    O622128   3.724   3.278   2.276  0.1804  0.2497  0.4723
  192SAPI   HO622129   3.740   3.213   2.345  1.8934  1.6545  1.4845
  192SAPI   C1122130   3.574   3.364   2.456 -0.0347  0.0056  0.1515
  192SAPI    H122131   3.660   3.413   2.506 -2.2770  2.6256  1.7113
  192SAPI     P22132   3.638   3.134   2.583 -0.5110 -0.0122  0.3204
  192SAPI   O1322133   3.735   3.104   2.478  0.3850  0.1725 -0.2368
  192SAPI   O1422134   3.559   3.021   2.643 -0.3150 -0.4878  0.2659
  192SAPI   O1222135   3.532   3.242   2.524 -0.3187  0.3563  0.8834
  192SAPI   O1122136   3.719   3.202   2.705  0.2318 -0.4013  0.3250
  192SAPI    C122137   3.650   3.294   2.793 -0.9414  0.6330 -0.2147
  192SAPI    HA22138   3.680   3.398   2.771  0.4899  0.1413 -0.7353
  192SAPI    HB22139   3.540   3.280   2.782 -1.0682  1.6349 -0.2356
  192SAPI    C222140   3.673   3.248   2.942  0.2503 -0.1805  1.0441
  192SAPI    HS22141   3.653   3.139   2.943  0.9583 -0.3210  0.7234
  192SAPI   O2122142   3.576   3.318   3.028  0.2105 -0.1953  0.1972
  192SAPI   C2122143   3.548   3.244   3.129  0.1175 -0.2835  0.4219
  192SAPI   O2222144   3.593   3.138   3.163 -0.7382  0.1636 -0.1685
  192SAPI   C2222145   3.436   3.314   3.207 -0.5818  0.2974  0.9258
  192SAPI   H2R22146   3.427   3.418   3.169  2.3936  0.2781 -0.0607
  192SAPI   H2S22147   3.341   3.261   3.183 -1.0429  1.9225 -1.1748
  192SAPI    C322148   3.822   3.281   2.981  0.0136  0.3607  0.3626
  192SAPI    HX22149   3.841   3.390   2.986  0.7969  0.4816 -2.8755
  192SAPI    HY22150   3.883   3.247   2.895  1.7990  0.1663  1.6456
  192SAPI   O3122151   3.871   3.206   3.099 -0.8201  0.1567 -0.3134
  192SAPI   C3122152   3.902   3.280   3.209 -0.1675 -0.0403 -0.1906
  192SAPI   O3222153   3.877   3.400   3.224  0.0177  0.1828  0.5051
  192SAPI   C3222154   3.960   3.190   3.322  0.6467 -0.0215 -0.3951
  192SAPI   H2X22155   4.005   3.102   3.271 -0.7174  1.4061 -4.4908
  192SAPI   H2Y22156   3.872   3.144   3.373 -0.1057 -0.2321 -1.8140
  192SAPI   C2322157   3.445   3.304   3.361  0.0337  0.1179  0.9703
  192SAPI   H3R22158   3.483   3.207   3.399 -2.3742 -1.5986 -0.7021
  192SAPI   H3S22159   3.342   3.322   3.398 -0.3578 -0.2343  0.0960
  192SAPI   C2422160   3.534   3.419   3.403 -0.0694 -0.5509 -0.6920
  192SAPI   H4R22161   3.504   3.514   3.353  0.1093 -0.8544 -1.3888
  192SAPI   H4S22162   3.637   3.398   3.368 -0.0612  1.3002 -1.9077
  192SAPI   C2522163   3.521   3.434   3.555  0.0041 -1.1343 -1.3090
  192SAPI   H5R22164   3.419   3.453   3.590  0.1319 -1.7685 -0.5798
  192SAPI   C2622165   3.622   3.433   3.646  0.3150  0.9098 -0.3743
  192SAPI   H6R22166   3.578   3.442   3.746  0.6136 -0.3889 -0.1026
  192SAPI   C2722167   3.767   3.400   3.636 -0.5564  0.8141  0.2462
  192SAPI   H7R22168   3.783   3.346   3.540 -3.8647  0.0994 -0.0024
  192SAPI   H7S22169   3.790   3.327   3.716 -2.7020  1.0477  1.1308
  192SAPI   C2822170   3.863   3.522   3.641 -0.3602  0.1821  0.1101
  192SAPI   H8R22171   3.880   3.578   3.548 -2.3144  0.6950  0.0101
  192SAPI   C2922172   3.927   3.563   3.755 -0.5084 -0.4146 -0.5199
  192SAPI   H9R22173   3.999   3.646   3.751  0.8664 -1.5436 -0.0748
  192SAPI  C21022174   3.919   3.512   3.897  0.1118 -0.2550 -0.6498
  192SAPI  H10R22175   3.852   3.423   3.898  1.5042 -1.3537 -1.2636
  192SAPI  H10S22176   3.869   3.598   3.946  2.5487 -0.2896  2.1513
  192SAPI  C21122177   4.047   3.481   3.972 -0.4232  0.6430  0.1341
  192SAPI  H11R22178   4.102   3.401   3.920  0.5357  2.0284 -1.0558
  192SAPI  C21222179   4.076   3.526   4.098  0.4537  0.2437  0.2758
  192SAPI  H12R22180   4.168   3.486   4.144  3.5229  2.3031 -3.3937
  192SAPI  C21322181   3.997   3.627   4.171  0.7407  0.0224 -0.2507
  192SAPI  H13R22182   3.895   3.585   4.181  0.0459  1.9443  1.1254
  192SAPI  H13S22183   3.975   3.714   4.106  2.5668  0.3597 -0.4663
  192SAPI  C21422184   4.053   3.673   4.307  0.2132 -0.4994 -0.4655
  192SAPI  H14R22185   4.124   3.603   4.353 -0.0140 -1.4426 -1.5174
  192SAPI  C21522186   4.042   3.799   4.366  0.9846 -0.5767  1.0176
  192SAPI  H15R22187   4.110   3.822   4.450  0.0200 -1.0131  1.9502
  192SAPI  C21622188   3.956   3.911   4.313 -0.5327  0.0420 -0.3444
  192SAPI  H16R22189   3.913   3.973   4.395  1.2836  1.0257 -0.0948
  192SAPI  H16S22190   3.871   3.875   4.252  0.2876 -0.6196 -1.1140
  192SAPI  C21722191   4.034   3.999   4.220  0.9629 -0.3901 -0.4095
  192SAPI  H17R22192   4.081   3.942   4.137  0.5613 -0.3152 -0.6934
  192SAPI  H17S22193   4.116   4.045   4.279 -0.2139  1.7164 -0.2947
  192SAPI  C21822194   3.960   4.115   4.148  0.7781  0.1506  0.2203
  192SAPI  H18R22195   3.928   4.193   4.221 -2.4115  0.5072 -1.4037
  192SAPI  H18S22196   3.874   4.071   4.093  0.0824  1.7603 -0.0441
  192SAPI  C21922197   4.056   4.192   4.056  0.3257 -0.2312  0.2172
  192SAPI  H19R22198   4.100   4.133   3.973  0.6262  0.3371 -0.0349
  192SAPI  H19S22199   4.144   4.216   4.120  1.6720 -0.3134 -1.5389
  192SAPI  C22022200   3.994   4.315   3.987 -0.1251  0.1059 -0.1121
  192SAPI  H20R22201   3.976   4.398   4.059  0.0474  1.6854 -1.8207
  192SAPI  H20S22202   3.902   4.287   3.933  1.1843 -2.7392 -1.0802
  192SAPI  H20T22203   4.068   4.346   3.910 -0.5326 -1.0436 -0.9966
  192SAPI   C3322204   4.061   3.257   3.417 -0.2537  0.7761  0.8891
  192SAPI   H3X22205   4.012   3.341   3.472 -3.1475  0.9826 -1.7385
  192SAPI   H3Y22206   4.136   3.311   3.356 -1.4621  1.0724 -0.3915
  192SAPI   C3422207   4.128   3.153   3.511 -0.0123  0.2295  0.1476
  192SAPI   H4X22208   4.225   3.202   3.532  1.2418 -2.9018  2.3109
  192SAPI   H4Y22209   4.158   3.055   3.467 -0.0458  0.4647 -0.4092
  192SAPI   C3522210   4.057   3.142   3.654 -0.2227  0.2068  0.6591
  192SAPI   H5X22211   3.957   3.093   3.647  0.3980 -0.9983 -0.2259
  192SAPI   H5Y22212   4.040   3.243   3.696 -2.0005  0.5091 -0.6439
  192SAPI   C3622213   4.148   3.059   3.747  0.4316 -0.0303 -0.7681
  192SAPI   H6X22214   4.245   3.113   3.751  1.0644 -1.1582 -0.4533
  192SAPI   H6Y22215   4.170   2.953   3.722 -0.2144 -0.0515 -1.2549
  192SAPI   C3722216   4.089   3.043   3.890  0.2231 -0.4742  0.6654
  192SAPI   H7X22217   4.004   2.971   3.889  0.6376 -0.9868  1.5868
  192SAPI   H7Y22218   4.047   3.139   3.926 -1.5433 -1.1459  0.4933
  192SAPI   C3822219   4.204   2.991   3.979 -0.4246  0.0772 -0.3125
  192SAPI   H8X22220   4.286   3.065   3.991  0.4897 -1.0389  0.3915
  192SAPI   H8Y22221   4.237   2.891   3.946 -2.2858 -0.3736 -0.9527
  192SAPI   C3922222   4.148   2.964   4.114 -0.3653 -0.5641  0.3155
  192SAPI   H9X22223   4.048   2.918   4.098 -0.7803  0.6830 -0.8701
  192SAPI   H9Y22224   4.127   3.061   4.164  2.3041 -0.1652  0.7894
  192SAPI  C31022225   4.246   2.894   4.208 -0.2624  0.0251  0.1537
  192SAPI  H10X22226   4.352   2.921   4.187 -0.0823  0.8444  1.9916
  192SAPI  H10Y22227   4.241   2.784   4.194  0.0296  0.0915 -0.5428
  192SAPI  C31122228   4.195   2.913   4.354 -0.6400  0.2150  0.6263
  192SAPI  H11X22229   4.090   2.877   4.342 -0.3013 -0.4241 -0.6678
  192SAPI  H11Y22230   4.201   3.019   4.387 -0.7236  0.2399  0.5612
  192SAPI  C31222231   4.272   2.832   4.457 -0.4326  0.2884  0.6647
  192SAPI  H12X22232   4.374   2.872   4.472 -0.0035 -0.9381  1.1516
  192SAPI  H12Y22233   4.285   2.732   4.409  0.7739  0.7974 -0.1196
  192SAPI  C31322234   4.199   2.808   4.586 -0.0658  0.1884  0.3028
  192SAPI  H13X22235   4.239   2.728   4.652  1.0129 -1.0344 -1.7119
  192SAPI  H13Y22236   4.093   2.790   4.559  0.0660  0.1750 -0.2248
  192SAPI  C31422237   4.204   2.939   4.680 -0.3049  0.0561  0.0230
  192SAPI  H14X22238   4.132   2.910   4.759  0.9566  1.2395  1.6607
  192SAPI  H14Y22239   4.161   3.018   4.614 -1.7239 -1.1760 -0.6015
  192SAPI  C31522240   4.334   2.973   4.746 -0.1714  0.0952  0.1033
  192SAPI  H15X22241   4.418   3.012   4.685 -0.2082 -0.7542 -0.5164
  192SAPI  H15Y22242   4.365   2.877   4.792  2.6399 -1.7736 -4.8163
  192SAPI  C31622243   4.301   3.072   4.855  0.1725 -0.3830 -0.0988
  192SAPI  H16X22244   4.255   3.027   4.945  0.8007  0.1288  0.4926
  192SAPI  H16Y22245   4.219   3.133   4.812  1.0414  0.0291 -1.2269
  192SAPI  C31722246   4.427   3.159   4.886  0.1836  0.5917  0.4408
  192SAPI  H17X22247   4.474   3.209   4.798  3.4982  0.2938  1.9095
  192SAPI  H17Y22248   4.504   3.089   4.925  2.3990  1.8647 -1.3764
  192SAPI  C31822249   4.405   3.261   4.995  0.3852 -0.1821  0.0475
  192SAPI  H18X22250   4.336   3.340   4.958  0.2533  0.0348  0.7406
  192SAPI  H18Y22251   4.505   3.306   5.015  0.5515 -0.8387  0.7632
  192SAPI  H18Z22252   4.369   3.218   5.091 -2.8897  2.1620  0.0297
  193SOD    SOD22253   3.421   5.874   8.096  0.1023 -0.2478 -0.1290
  194SOD    SOD22254   5.208   6.829   0.537  0.7981 -0.5037  0.1897
  195SOD    SOD22255   4.233   0.368   1.997 -0.0871  0.4021  0.1279
  196SOD    SOD22256   1.718   1.232   1.191  0.1319 -0.0333  0.2042
  197SOD    SOD22257   4.557   6.314   8.333 -0.1204  0.4113 -0.0701
  198SOD    SOD22258   3.415   6.542   7.295 -0.1317  0.0413  0.2843
  199SOD    SOD22259   6.829   5.282   8.288 -0.2141 -0.4586 -0.3337
  200SOD    SOD22260   3.942   4.176   1.722  0.5532  0.3635 -0.4602
  201SOD    SOD22261   6.056   6.835   1.432  0.1063 -0.3299 -0.4667
  202SOD    SOD22262   4.356   1.761   2.453  0.1817  0.2345  0.2554
  203SOD    SOD22263   3.930   1.313   7.170  0.2775  0.1074 -0.5076
  204SOD    SOD22264   6.526   2.299   8.191  0.1325 -0.1066  0.0317
  205SOD    SOD22265   3.561   6.441   1.105  0.3875  0.2199  0.4813
  206SOD    SOD22266   6.131   6.603   6.954  0.5619 -0.1406  0.2972
  207SOD    SOD22267   0.916   4.610   1.196 -0.2525  0.2878 -0.4081
  208SOD    SOD22268   4.224   2.474   2.938  0.1896 -0.0474 -0.4319
  209SOD    SOD22269   4.526   1.131   0.525 -0.2364 -0.1603 -0.2042
  210SOD    SOD22270   3.202   3.870   8.178  0.3028  0.1761  0.5242
  211SOD    SOD22271   2.291   3.221   2.018 -0.1649 -0.1876 -0.0948
  212SOD    SOD22272   3.351   5.208   8.255  0.1493  0.0108 -0.4774
  213SOD    SOD22273   3.773   3.225   8.469 -0.0853 -0.2902  0.3134
  214SOD    SOD22274   1.672   4.896   8.454  0.2487 -0.4806  0.3983
  215SOD    SOD22275   2.024   2.669   0.240  0.0024 -0.1620  0.4305
  216SOD    SOD22276   4.487   6.031   2.991  0.1843  0.4795  0.6116
  217SOD    SOD22277   4.934   0.844   7.895  0.5780 -0.1911  0.5853
  218SOD    SOD22278   6.067   2.886   1.909  0.0595 -0.3271  0.1729
  219SOD    SOD22279   0.410   5.488   7.806  0.5513 -0.1887  0.1198
  220SOD    SOD22280   4.331   0.007   0.883  0.1571 -0.0815  0.0789
  221SOD    SOD22281   0.069   5.280   1.197 -0.4929 -0.4655  0.0163
  222SOD    SOD22282   3.824   2.264   1.042 -0.5590  0.5765 -0.1492
  223SOD    SOD22283   3.944   1.154   0.220  0.3199 -0.4459  0.3125
  224SOD    SOD22284   6.369   5.572   0.104  0.3833 -0.1876  0.0367
  225SOD    SOD22285   4.923   2.992   1.708 -0.2301  0.5144 -0.1504
  226SOD    SOD22286   5.489   5.230   8.395 -0.1229 -0.2621  0.2479
  227SOD    SOD22287   2.424   4.802   7.358 -0.4988 -0.7007 -0.4155
  228SOD    SOD22288   3.026   4.893   1.866  0.2074  0.5294  0.0022
  229SOD    SOD22289   3.815   1.133   7.988 -0.3103 -0.2988 -0.3716
  230SOD    SOD22290   1.072   6.015   6.868  0.4265 -0.0081 -0.4898
  231SOD    SOD22291   4.847   1.043   1.877  0.2308  0.0941  0.3310
  232SOD    SOD22292   2.428   2.815   2.562  0.2360  0.3942  0.1966
  233SOD    SOD22293   0.197   1.016   7.159  0.5327  0.2233  0.0083
  234CLA    CLA22294   0.500   4.667   0.976 -0.1084 -0.3241  0.0481
  235CLA    CLA22295   2.395   5.695   0.748 -0.1030 -0.2078 -0.1133
  236CLA    CLA22296   1.052   4.553   8.411 -0.0818  0.1739  0.2600
  237CLA    CLA22297   4.430   2.597   8.140  0.5809  0.4233 -0.1080
  238CLA    CLA22298   4.239   0.812   0.203 -0.2675 -0.3744  0.0742
  239CLA    CLA22299   3.636   4.368   0.277 -0.2403 -0.1141 -0.0913
  240CLA    CLA22300   5.050   0.034   0.751 -0.3766 -0.0484 -0.1556
  241CLA    CLA22301   4.500   6.253   7.866 -0.4292  0.2651 -0.2147
  242CLA    CLA22302   0.926   2.030   1.283  0.4100 -0.0317 -0.3110
  243CLA    CLA22303   1.916   3.013   8.640 -0.0687 -0.2379  0.3368
  244CLA    CLA22304   4.328   6.669   0.681  0.3391  0.0428  0.0753
  245CLA    CLA22305   5.468   3.629   1.373  0.3500 -0.2420  0.1771
  246CLA    CLA22306   4.516   0.641   1.746 -0.0188  0.0099  0.2799
  247CLA    CLA22307   0.278   2.189   0.800 -0.0307 -0.7414 -0.3315
  248CLA    CLA22308   3.657   4.976   1.616 -0.0851 -0.2525 -0.1123
  249CLA    CLA22309   6.515   5.108   0.239 -0.4561  0.0003 -0.0246
  250CLA    CLA22310   4.057   5.300   8.036 -0.0257  0.2948 -0.0322
  251TIP3   OH222311   6.127   6.175   2.190 -0.7446  0.4265 -0.2337
  251TIP3    H122312   6.167   6.101   2.237 -2.5883  0.5245  1.6390
  251TIP3    H222313   6.198   6.209   2.135  1.1951 -0.5747  1.4742
  252TIP3   OH222314   4.009   3.087   6.721  0.0955 -0.3362  0.1489
  252TIP3    H122315   3.935   3.078   6.662 -0.6985  1.7102  0.7542
  252TIP3    H222316   4.084   3.105   6.664 -0.3822  0.1573 -0.3221
  253TIP3   OH222317   5.335   5.536   2.069  0.0688 -0.4237 -0.0159
  253TIP3    H122318   5.285   5.456   2.085  0.3840 -1.0142 -1.7280
  253TIP3    H222319   5.398   5.511   2.000  2.0356  0.5700  1.3442
  254TIP3   OH222320   2.861   2.524   8.450  0.3909  0.0440 -0.0875
  254TIP3    H122321   2.861   2.523   8.546 -0.1494  1.0412 -0.0631
  254TIP3    H222322   2.770   2.506   8.426  0.4361  0.2149 -0.4003
  255TIP3   OH222323   6.609   0.076   0.758 -0.0315  0.0796 -0.5022
  255TIP3    H122324   6.586   0.093   0.666  1.2493 -1.5514 -1.1783
  255TIP3    H222325   6.628   0.162   0.794  1.4174  0.6152 -2.3718
  256TIP3   OH222326   4.619   4.745   7.947 -0.4633  0.6988 -0.4761
  256TIP3    H122327   4.564   4.757   7.869 -3.0150 -0.2667  1.0432
  256TIP3    H222328   4.573   4.793   8.016  1.1289  0.6121  0.6947
  257TIP3   OH222329   2.484   3.825   2.274 -0.5095  0.1501 -0.0190
  257TIP3    H122330   2.494   3.764   2.201  0.9659  0.1629  0.1498
  257TIP3    H222331   2.525   3.780   2.348  0.7774  1.4117  0.0664
  258TIP3   OH222332   0.423   0.037   0.392  0.2767 -0.3930 -0.0826
  258TIP3    H122333   0.477   0.069   0.321  1.3918 -1.8741  0.0542
  258TIP3    H222334   0.438   0.098   0.464 -0.3313  0.7195 -0.8718
  259TIP3   OH222335   1.555   2.215   6.901  0.4786 -0.3816  0.1659
  259TIP3    H122336   1.483   2.215   6.964  0.4771 -0.2226  0.1630
  259TIP3    H222337   1.565   2.306   6.875  0.4033 -0.4623 -0.1513
  260TIP3   OH222338   1.792   3.642   1.352 -0.3626  0.2414 -0.0581
  260TIP3    H122339   1.833   3.630   1.266 -1.0680 -0.8950 -0.2640
  260TIP3    H222340   1.821   3.728   1.381  2.9357 -0.8306  0.2316
  261TIP3   OH222341   1.614   0.935   0.097  0.5031  0.0612 -0.2936
  261TIP3    H122342   1.610   0.985   0.178 -0.4913  0.3864 -0.5305
  261TIP3    H222343   1.662   0.855   0.120 -4.0462 -2.3510  2.0175
  262TIP3   OH222344   0.906   5.884   0.181  0.2825  0.3384  0.0878
  262TIP3    H122345   0.909   5.857   0.273 -2.4988 -0.2158  0.0986
  262TIP3    H222346   0.905   5.803   0.131  1.4636  0.6342 -0.4634
  263TIP3   OH222347   1.782   1.731   1.422 -0.0229  0.5670 -0.2929
  263TIP3    H122348   1.694   1.707   1.391 -0.3020  0.9857  0.1652
  263TIP3    H222349   1.820   1.779   1.348 -0.4001  0.8936 -0.2789
  264TIP3   OH222350   0.011   0.428   0.210 -0.2162 -0.5747 -0.3199
  264TIP3    H122351   0.084   0.382   0.170  0.5738 -0.0779  0.5129
  264TIP3    H222352   0.005   0.510   0.162  0.3011 -0.2674  0.1323
  265TIP3   OH222353   6.137   3.960   7.131 -0.0724  0.0059  0.5739
  265TIP3    H122354   6.208   3.973   7.068 -1.0257  1.0125 -0.3342
  265TIP3    H222355   6.074   3.905   7.085 -0.9606  1.0763  0.4647
  266TIP3   OH222356   0.670   1.862   2.246 -0.2756 -0.3784  0.4129
  266TIP3    H122357   0.747   1.806   2.246  0.3092  0.4081  0.2737
  266TIP3    H222358   0.665   1.897   2.335  0.0222  0.2228  0.1991
  267TIP3   OH222359   4.117   4.991   7.935  0.4576 -0.1563  0.3412
  267TIP3    H122360   4.104   4.946   8.018  0.6039 -0.1996  0.3417
  267TIP3    H222361   4.069   5.074   7.944 -0.8785 -0.8474 -0.1328
  268TIP3   OH222362   3.146   3.451   0.571 -0.2510 -0.4355 -0.3437
  268TIP3    H122363   3.123   3.486   0.485  0.9052  0.6788 -0.2253
  268TIP3    H222364   3.154   3.528   0.627 -0.5487 -1.1204  0.6710
  269TIP3   OH222365   2.026   1.930   2.499 -0.3621  1.0537 -0.2459
  269TIP3    H122366   2.120   1.912   2.494 -0.1770  1.9457 -0.1469
  269TIP3    H222367   2.020   2.015   2.542 -1.2635  0.6092  0.5371
  270TIP3   OH222368   4.652   5.281   2.414  0.7739 -0.4434 -0.3204
  270TIP3    H122369   4.672   5.357   2.469 -1.3513  0.7228 -1.0434
  270TIP3    H222370   4.654   5.207   2.474 -0.6408  0.6679  1.1875
  271TIP3   OH222371   4.440   2.547   2.982 -0.5321 -0.1287 -0.2769
  271TIP3    H122372   4.514   2.564   3.040 -1.5298  1.8823  0.5065
  271TIP3    H222373   4.463   2.590   2.900 -0.5955  0.0113 -0.2213
  272TIP3   OH222374   2.618   3.107   0.027  0.0656  0.1511 -0.1971
  272TIP3    H122375   2.598   3.055  -0.051 -0.7664  0.1931 -0.0293
  272TIP3    H222376   2.533   3.142   0.054  0.2688 -0.2320  0.9941
  273TIP3   OH222377   3.274   5.573   1.116 -0.1320  0.6182 -0.0526
  273TIP3    H122378   3.318   5.493   1.088 -0.1596  0.5808  0.0096
  273TIP3    H222379   3.278   5.631   1.040  0.2542  0.7128  0.0363
  274TIP3   OH222380   4.227   1.517   8.024  0.7599  0.1034  0.0290
  274TIP3    H122381   4.167   1.538   7.952  0.6654  0.7604  0.2924
  274TIP3    H222382   4.218   1.423   8.036 -1.6284  0.4021  1.2699
  275TIP3   OH222383   6.106   1.774   8.653 -0.1574 -0.2394  0.0561
  275TIP3    H122384   6.011   1.771   8.662 -0.1607 -0.8004 -0.1277
  275TIP3    H222385   6.135   1.686   8.675  0.5355  0.5205  2.4974
  276TIP3   OH222386   1.591   4.020   0.962 -0.6967 -0.3607  1.0967
  276TIP3    H122387   1.538   4.099   0.950  0.5581  0.5854  1.5796
  276TIP3    H222388   1.586   3.975   0.878  0.7072  1.5977 -0.1253
  277TIP3   OH222389   6.681   2.340   0.620 -0.2130 -0.0623  0.0531
  277TIP3    H122390   6.745   2.321   0.689 -0.8046 -0.3167  0.5413
  277TIP3    H222391   6.613   2.274   0.632 -0.2320 -0.2214 -0.8978
  278TIP3   OH222392   1.225   3.020   1.229 -0.8324 -0.3478  0.0574
  278TIP3    H122393   1.199   3.046   1.140  0.3947 -0.7005 -0.4341
  278TIP3    H222394   1.161   3.061   1.286 -0.7196  1.2256 -0.8914
  279TIP3   OH222395   2.617   4.529   1.862 -0.6227  0.3386 -0.2628
  279TIP3    H122396   2.692   4.469   1.869 -1.1877 -0.4485 -0.7539
  279TIP3    H222397   2.582   4.534   1.951 -1.4251 -1.2187 -0.4551
  280TIP3   OH222398   0.202   5.107   0.197 -0.1473  0.4646 -0.5368
  280TIP3    H122399   0.231   5.017   0.179  2.5916  1.2620 -0.5050
  280TIP3    H222400   0.116   5.113   0.156  0.2498 -1.7232 -1.8338
  281TIP3   OH222401   4.952   4.543   1.502 -0.0589 -0.0059 -0.3381
  281TIP3    H122402   4.930   4.460   1.460 -1.8838  0.3260 -0.1373
  281TIP3    H222403   5.045   4.554   1.486 -0.1778 -1.1220 -2.1037
  282TIP3   OH222404   4.918   1.848   0.765 -0.3978 -0.2064 -0.1595
  282TIP3    H122405   4.938   1.756   0.749 -0.7785 -0.3562  0.2139
  282TIP3    H222406   4.901   1.853   0.859 -1.8224 -0.0319 -0.4067
  283TIP3   OH222407   2.044   1.338   2.722  0.2274 -0.2267 -0.8006
  283TIP3    H122408   2.004   1.292   2.796  0.0936  0.2673 -0.5625
  283TIP3    H222409   1.971   1.375   2.673  0.2296 -1.6175 -1.9139
  284TIP3   OH222410   3.542   6.353   8.065  0.4243  0.0857 -0.3795
  284TIP3    H122411   3.482   6.371   7.993  0.5817 -0.8125 -0.7389
  284TIP3    H222412   3.612   6.302   8.027  0.1300 -1.0556  0.5509
  285TIP3   OH222413   6.815   1.461   0.559 -0.4847 -0.1456  0.2256
  285TIP3    H122414   6.811   1.468   0.654  0.6009 -0.7726  0.3402
  285TIP3    H222415   6.819   1.552   0.528 -1.2681  0.0725  0.7417
  286TIP3   OH222416   3.008   4.664   0.056  0.1532  0.1143 -0.0609
  286TIP3    H122417   3.104   4.661   0.059  0.1231 -0.8546  2.4499
  286TIP3    H222418   2.988   4.753   0.026  1.8221  0.2569 -0.8507
  287TIP3   OH222419   0.609   4.005   0.815 -0.1235  0.1793 -0.4914
  287TIP3    H122420   0.589   3.955   0.736  0.9485 -1.8011  0.4272
  287TIP3    H222421   0.686   3.962   0.852 -0.1439  1.5299  1.2534
  288TIP3   OH222422   0.257   2.835   7.957  0.4673 -0.1765  0.5898
  288TIP3    H122423   0.200   2.907   7.984  0.1534 -0.8540  1.8028
  288TIP3    H222424   0.200   2.776   7.907  0.3825 -0.2782  0.8057
  289TIP3   OH222425   6.840   5.804   1.266 -0.4197 -0.2709  0.1742
  289TIP3    H122426   6.808   5.782   1.179 -0.5281 -0.2655  0.2118
  289TIP3    H222427   6.851   5.719   1.309 -1.8756 -0.2254  0.6826
  290TIP3   OH222428   3.641   2.393   1.613 -0.1772 -0.0902 -0.0204
  290TIP3    H122429   3.657   2.407   1.706  0.9081  0.9491 -0.3498
  290TIP3    H222430   3.702   2.324   1.587 -1.3527 -1.2978  0.2786
  291TIP3   OH222431   3.686   0.873   0.423  0.0098 -0.6253 -0.3294
  291TIP3    H122432   3.657   0.791   0.383 -2.8140  0.4940 -0.8145
  291TIP3    H222433   3.669   0.862   0.516  2.7426 -1.7189  0.1230
  292TIP3   OH222434   0.766   4.102   7.125  0.0514 -0.0199  0.4903
  292TIP3    H122435   0.679   4.073   7.098  0.3330 -0.4249  0.0023
  292TIP3    H222436   0.823   4.078   7.052  0.5558  0.3369  0.7610
  293TIP3   OH222437   4.820   3.367   8.336  0.1171 -0.0381 -0.2081
  293TIP3    H122438   4.846   3.297   8.396  0.0413 -1.1317 -1.4050
  293TIP3    H222439   4.742   3.333   8.292 -0.7810  1.4063  0.2032
  294TIP3   OH222440   5.309   5.138   7.086  0.1296  0.8257 -0.4799
  294TIP3    H122441   5.243   5.175   7.028  0.1643  1.0873 -0.3554
  294TIP3    H222442   5.389   5.185   7.065  0.4115  0.1216 -1.0187
  295TIP3   OH222443   5.957   4.643   0.082 -0.2811 -0.0629 -0.2745
  295TIP3    H122444   6.012   4.716   0.054 -0.7059 -0.2344 -1.6282
  295TIP3    H222445   5.896   4.630   0.009 -0.5886 -1.3861  0.2002
  296TIP3   OH222446   2.041   1.955   1.025  0.4794 -0.5956 -0.4076
  296TIP3    H122447   2.069   2.030   0.972  0.6629 -1.0058 -0.8972
  296TIP3    H222448   2.036   1.882   0.963 -0.7064 -0.7575 -0.1328
  297TIP3   OH222449   2.204   4.788   0.028  0.3022  0.2616 -0.2537
  297TIP3    H122450   2.227   4.869   0.072  1.7324 -0.3296  0.1240
  297TIP3    H222451   2.122   4.760   0.070 -0.5261  1.7696 -0.7887
  298TIP3   OH222452   4.872   6.377   1.428  0.4207  0.3217  0.0816
  298TIP3    H122453   4.862   6.303   1.488 -0.1884  0.6429  0.3879
  298TIP3    H222454   4.827   6.349   1.348  0.2863  0.3198  0.1580
  299TIP3   OH222455   1.039   2.303   8.660  0.0106 -0.2093 -0.0649
  299TIP3    H122456   1.124   2.269   8.630 -0.3709 -1.0325 -0.2522
  299TIP3    H222457   1.061   2.381   8.711  1.0349 -1.3430  1.3149
  300TIP3   OH222458   6.031   6.431   6.790 -0.1789  0.4000 -0.4223
  300TIP3    H122459   5.936   6.425   6.790 -0.2051 -0.0421  2.1651
  300TIP3    H222460   6.061   6.341   6.804  0.6135  0.6487 -0.4397
  301TIP3   OH222461   5.443   3.742   0.825 -0.3373 -0.3834 -0.3866
  301TIP3    H122462   5.537   3.741   0.805 -0.4306 -0.5594 -0.8208
  301TIP3    H222463   5.438   3.784   0.911  0.3442 -2.4117  0.7125
  302TIP3   OH222464   6.224   3.535   8.610 -0.0415  0.0322 -0.3003
  302TIP3    H122465   6.143   3.584   8.622  0.2541  1.1023 -2.1769
  302TIP3    H222466   6.264   3.533   8.697 -0.6282  2.1956  0.0930
  303TIP3   OH222467   4.913   6.332   8.683 -0.3635  0.2849 -0.1329
  303TIP3    H122468   4.969   6.255   8.699  1.1945  1.0527 -1.5519
  303TIP3    H222469   4.824   6.301   8.699  0.2799 -1.6143  0.0301
  304TIP3   OH222470   2.131   6.087   7.434 -0.3218 -1.0484 -0.4901
  304TIP3    H122471   2.070   6.115   7.366 -0.2108  1.8867  0.4949
  304TIP3    H222472   2.216   6.082   7.390 -0.3495  0.2854 -0.7479
  305TIP3   OH222473   1.068   3.906   1.191  0.1174 -0.4143 -0.5770
  305TIP3    H122474   1.156   3.901   1.155 -0.8812  0.7830 -3.5010
  305TIP3    H222475   1.054   4.000   1.207  0.3359 -0.8358  2.7732
  306TIP3   OH222476   4.885   2.958   0.758 -0.2949 -0.2401  1.0414
  306TIP3    H122477   4.873   2.917   0.673 -2.9673  0.9015  0.7654
  306TIP3    H222478   4.857   2.891   0.821 -0.7512 -0.2219  0.8577
  307TIP3   OH222479   4.671   3.998   0.244 -0.0973  0.5139 -0.0104
  307TIP3    H122480   4.717   3.947   0.177 -0.7901  0.6538 -0.6102
  307TIP3    H222481   4.592   3.947   0.263 -0.5383  1.0907 -0.2388
  308TIP3   OH222482   4.086   3.080   1.050  0.3369 -0.0984 -0.5626
  308TIP3    H122483   4.019   3.041   0.994  0.9021 -0.5879 -0.9022
  308TIP3    H222484   4.054   3.169   1.067 -2.0914 -1.3058  2.0326
  309TIP3   OH222485   1.042   5.762   8.526  0.0158  0.4521 -0.0503
  309TIP3    H122486   1.077   5.719   8.603 -0.6436 -1.9031 -0.9718
  309TIP3    H222487   0.947   5.756   8.536 -0.0846  0.8218 -0.6740
  310TIP3   OH222488   2.996   3.987   1.736 -0.4917  0.0813 -0.8167
  310TIP3    H122489   2.919   3.967   1.682 -1.2364 -2.5232  0.9832
  310TIP3    H222490   3.065   3.930   1.701 -0.7780 -1.0811  0.3967
  311TIP3   OH222491   1.690   2.826   1.676 -0.0522  0.1724 -0.3468
  311TIP3    H122492   1.645   2.760   1.624  0.7401  0.1534 -1.0268
  311TIP3    H222493   1.679   2.907   1.626  0.4691  0.2109 -0.4059
  312TIP3   OH222494   5.758   3.826   2.575 -0.8654  0.2854  0.1201
  312TIP3    H122495   5.791   3.876   2.500 -1.5374  0.7951  0.1515
  312TIP3    H222496   5.685   3.878   2.607 -0.0831  0.4917  1.6410
  313TIP3   OH222497   1.670   3.159   0.622 -0.4352 -0.0990  0.1832
  313TIP3    H122498   1.669   3.063   0.626 -0.7850 -0.2799 -2.3621
  313TIP3    H222499   1.738   3.179   0.557 -2.1441  1.2059 -1.2946
  314TIP3   OH222500   1.723   6.100   7.234 -0.3720  0.0335  0.2723
  314TIP3    H122501   1.803   6.125   7.281 -0.6731  0.6192  0.4751
  314TIP3    H222502   1.754   6.060   7.153  0.1295  0.0564  0.4509
  315TIP3   OH222503   2.658   0.172   2.686 -0.4607  0.0682  0.0301
  315TIP3    H122504   2.674   0.265   2.700  0.7284  0.0673 -1.1098
  315TIP3    H222505   2.563   0.164   2.681 -0.5569  1.7324 -2.8156
  316TIP3   OH222506   5.354   4.321   7.678  0.1118  0.0012  0.5033
  316TIP3    H122507   5.278   4.267   7.702  0.9677 -2.1192 -1.2370
  316TIP3    H222508   5.323   4.374   7.605 -0.2048  0.5426  1.0199
  317TIP3   OH222509   6.642   4.414   1.485  0.2313  0.3360  0.2163
  317TIP3    H122510   6.589   4.346   1.527  0.5518 -1.0874 -1.5439
  317TIP3    H222511   6.666   4.473   1.556  0.9948 -2.0711  2.1014
  318TIP3   OH222512   1.234   4.050   7.971 -0.4281  0.2209  0.2971
  318TIP3    H122513   1.258   3.974   7.918  1.7195 -0.1671  1.6903
  318TIP3    H222514   1.155   4.023   8.018 -0.1204 -0.8919  0.1997
  319TIP3   OH222515   6.328   1.963   1.124  0.1825  0.0959  0.8919
  319TIP3    H122516   6.255   1.903   1.107  0.3079  0.3203 -0.5633
  319TIP3    H222517   6.285   2.046   1.147 -0.0552  0.2923 -0.1860
  320TIP3   OH222518   5.694   0.584   2.402 -0.4192 -0.5816  0.3462
  320TIP3    H122519   5.720   0.650   2.467 -2.3979 -0.3285  0.9486
  320TIP3    H222520   5.658   0.512   2.454 -0.5013 -1.1008 -0.4126
  321TIP3   OH222521   4.208   2.950   1.670 -0.3649  0.4130 -0.5429
  321TIP3    H122522   4.210   3.025   1.730  3.2359  0.8650 -0.9931
  321TIP3    H222523   4.217   2.874   1.726  0.3652  0.6563 -0.3157
  322TIP3   OH222524   4.158   3.309   2.893 -0.1037  0.0622 -0.1545
  322TIP3    H122525   4.204   3.250   2.834  0.3827  0.1720  0.1131
  322TIP3    H222526   4.165   3.266   2.979  1.6137  1.2471  0.3497
  323TIP3   OH222527   0.390   0.929   1.424 -0.0409  0.1717 -0.2350
  323TIP3    H122528   0.405   0.865   1.355 -2.2520 -1.8777  1.0217
  323TIP3    H222529   0.404   0.881   1.506 -0.8403  1.5485  0.7750
  324TIP3   OH222530   2.820   1.999   7.698  0.1259  0.3237 -0.2686
  324TIP3    H122531   2.873   1.943   7.755  2.7783  2.4965 -0.3834
  324TIP3    H222532   2.762   1.938   7.652 -0.9259 -1.7231  3.3264
  325TIP3   OH222533   0.829   1.136   1.382  0.0330  0.0048 -0.4015
  325TIP3    H122534   0.906   1.080   1.392  0.1799  0.5605  2.2695
  325TIP3    H222535   0.864   1.225   1.386 -0.4135  0.3574 -2.7731
  326TIP3   OH222536   6.020   1.116   0.768  0.4511 -0.2048  0.0849
  326TIP3    H122537   6.043   1.026   0.746  0.8168 -0.3524  1.0128
  326TIP3    H222538   6.033   1.165   0.687  0.2269 -0.9833 -0.4366
  327TIP3   OH222539   2.276   2.086   0.868 -0.4661  0.3194  0.3025
  327TIP3    H122540   2.345   2.149   0.885  0.1332 -0.3353  0.3329
  327TIP3    H222541   2.200   2.121   0.915 -0.1016  0.9319  0.4499
  328TIP3   OH222542   6.151   3.173   8.311 -0.0658 -0.1045 -0.5653
  328TIP3    H122543   6.149   3.213   8.224  0.2683  1.4156  0.0851
  328TIP3    H222544   6.103   3.234   8.367  1.5776  0.0758  0.7421
  329TIP3   OH222545   4.240   0.130   6.975  0.5761  0.1549 -0.3877
  329TIP3    H122546   4.296   0.195   7.017  0.0160  1.5881 -1.7803
  329TIP3    H222547   4.182   0.181   6.919 -0.7329 -1.4608 -0.5631
  330TIP3   OH222548   4.416   1.527   0.381  0.2020  0.4156  0.3749
  330TIP3    H122549   4.324   1.519   0.357  0.2945  1.6867 -0.5207
  330TIP3    H222550   4.418   1.595   0.449  0.5275  0.8782 -0.0833
  331TIP3   OH222551   0.982   1.947   1.762  0.4569  0.2271  0.0471
  331TIP3    H122552   0.894   1.976   1.739  0.0470 -0.5750  0.5234
  331TIP3    H222553   1.009   1.891   1.689  0.6142  0.5627 -0.1505
  332TIP3   OH222554   0.380   0.107   0.839 -0.0530  0.0121 -0.3867
  332TIP3    H122555   0.370   0.013   0.856 -0.1418  0.2062  0.7192
  332TIP3    H222556   0.291   0.138   0.823 -0.5817  0.5305  2.8608
  333TIP3   OH222557   3.618   1.404   0.722 -0.6305  0.5467  0.0656
  333TIP3    H122558   3.592   1.427   0.633 -0.7683  0.9107  0.1966
  333TIP3    H222559   3.586   1.315   0.734  1.1857 -0.3001 -0.9569
  334TIP3   OH222560   0.138   3.079   2.817  0.2547  0.6371 -0.3139
  334TIP3    H122561   0.204   3.115   2.757  0.7535 -0.6674 -0.6027
  334TIP3    H222562   0.109   3.153   2.869  2.5250  1.1378  0.3551
  335TIP3   OH222563   4.325   1.036   1.518 -0.5829  0.0471  0.2829
  335TIP3    H122564   4.355   1.016   1.607 -0.4062 -0.1405  0.1806
  335TIP3    H222565   4.324   0.951   1.474 -2.3811 -0.1615  0.6280
  336TIP3   OH222566   5.337   2.441   0.335 -0.0317 -0.3061  0.1376
  336TIP3    H122567   5.325   2.501   0.261  0.2125 -0.5110 -0.0709
  336TIP3    H222568   5.417   2.393   0.314 -0.0362 -0.4616  0.4709
  337TIP3   OH222569   4.652   0.118   7.223  0.9330 -0.6983  0.1839
  337TIP3    H122570   4.634   0.025   7.209  1.3937 -0.8327  0.4426
  337TIP3    H222571   4.624   0.160   7.142  0.7909 -1.0746  0.0338
  338TIP3   OH222572   5.626   3.625   1.071 -0.1538 -0.2301 -0.0413
  338TIP3    H122573   5.547   3.601   1.023  0.1679  2.4336 -2.1432
  338TIP3    H222574   5.597   3.633   1.162 -2.4517  1.0747 -0.8118
  339TIP3   OH222575   4.492   4.814   8.203  0.2813  0.3673 -0.2042
  339TIP3    H122576   4.478   4.867   8.124  1.2842  1.6696  0.4665
  339TIP3    H222577   4.523   4.876   8.269  0.8269 -0.9380  0.8115
  340TIP3   OH222578   0.389   1.877   1.149  0.1454 -0.1614  0.5285
  340TIP3    H122579   0.420   1.963   1.176 -0.5236  0.0853  0.5390
  340TIP3    H222580   0.406   1.873   1.055  1.9196 -0.7798  0.8406
  341TIP3   OH222581   4.557   1.950   1.851 -0.1400 -0.7669  0.3141
  341TIP3    H122582   4.481   1.975   1.798  0.3584 -2.4067 -1.2481
  341TIP3    H222583   4.522   1.889   1.916 -0.1037 -2.0486 -0.8242
  342TIP3   OH222584   4.682   5.889   2.942 -0.7767  0.2810 -0.2018
  342TIP3    H122585   4.695   5.796   2.922 -3.5131  0.1969 -2.1242
  342TIP3    H222586   4.736   5.934   2.877  0.7636  0.1089  0.8984
  343TIP3   OH222587   5.513   2.266   8.071  0.2440 -0.6326  0.3123
  343TIP3    H122588   5.573   2.269   7.996 -0.8517  0.9037 -0.5651
  343TIP3    H222589   5.447   2.201   8.045  0.2760 -0.6470  0.2671
  344TIP3   OH222590   4.142   1.132   0.098 -0.3877 -0.2031  0.3888
  344TIP3    H122591   4.191   1.049   0.095  0.7668  0.4879 -1.0012
  344TIP3    H222592   4.201   1.196   0.058 -2.5124  0.6380 -1.5843
  345TIP3   OH222593   4.313   1.448   7.728 -0.1834  1.1828  0.1093
  345TIP3    H122594   4.400   1.446   7.688 -0.4570  1.1886 -0.5028
  345TIP3    H222595   4.321   1.393   7.805  0.2565  0.8554 -0.1623
  346TIP3   OH222596   2.241   2.788   1.324  0.0990 -0.4151  0.3161
  346TIP3    H122597   2.199   2.866   1.359  0.4190  1.4271 -2.9366
  346TIP3    H222598   2.192   2.714   1.361 -0.9031  1.3237  2.6732
  347TIP3   OH222599   2.240   3.299   0.742  0.3109 -0.4479  0.1586
  347TIP3    H122600   2.235   3.382   0.790 -1.2417 -0.8068  0.6756
  347TIP3    H222601   2.155   3.291   0.698  0.0447 -2.2265  0.9142
  348TIP3   OH222602   5.142   3.589   7.957  0.1894  0.0641 -0.5811
  348TIP3    H122603   5.206   3.596   8.028 -0.6509 -0.7321  0.2960
  348TIP3    H222604   5.164   3.508   7.911 -1.9099 -1.9299  1.6124
  349TIP3   OH222605   3.923   5.544   0.934  0.2248  1.1340  0.2464
  349TIP3    H122606   3.928   5.451   0.958 -2.1819  0.8325 -0.1128
  349TIP3    H222607   3.928   5.544   0.838  0.5545  1.4287  0.2593
  350TIP3   OH222608   4.617   2.731   0.631 -0.1266 -0.6212 -0.8626
  350TIP3    H122609   4.630   2.669   0.703  0.5718 -0.8460 -1.1803
  350TIP3    H222610   4.591   2.812   0.674  2.0922 -0.2038 -0.1974
  351TIP3   OH222611   1.020   1.613   3.186  0.2103  0.3427  0.1969
  351TIP3    H122612   1.039   1.523   3.160  0.6484  0.5649 -0.2559
  351TIP3    H222613   0.926   1.622   3.174 -0.1016 -0.5182  1.6850
  352TIP3   OH222614   3.299   0.328   0.705  0.0046 -0.0067  0.5011
  352TIP3    H122615   3.385   0.286   0.697 -0.2038 -0.6171  1.2782
  352TIP3    H222616   3.291   0.384   0.628  0.6180 -0.8229 -0.1628
  353TIP3   OH222617   3.980   4.953   2.871  0.6137 -0.2825 -0.1241
  353TIP3    H122618   3.947   4.908   2.949  0.4988  0.6274  0.3697
  353TIP3    H222619   3.907   5.007   2.841  0.6245 -0.6953 -0.9306
  354TIP3   OH222620   3.951   2.152   8.180 -0.1817  0.3152  0.2782
  354TIP3    H122621   3.887   2.086   8.207 -1.1705  2.2566  3.1217
  354TIP3    H222622   4.035   2.118   8.210 -0.5601 -0.0577  0.9386
  355TIP3   OH222623   2.154   4.096   1.700 -0.6624  0.1061  0.4213
  355TIP3    H122624   2.072   4.098   1.650 -1.2329 -0.8375  1.2971
  355TIP3    H222625   2.217   4.143   1.644 -2.0168  1.7439  0.1730
  356TIP3   OH222626   4.914   6.431   2.532 -0.2564 -0.2832  0.1208
  356TIP3    H122627   4.890   6.522   2.514 -0.8392  0.1480  2.7236
  356TIP3    H222628   4.848   6.400   2.593 -0.7063 -2.8614 -1.5178
  357TIP3   OH222629   4.522   6.312   0.549 -0.1824  0.3918  0.1139
  357TIP3    H122630   4.524   6.265   0.633 -0.8978  2.6466  1.5022
  357TIP3    H222631   4.452   6.376   0.560  1.2270  2.2761 -1.3354
  358TIP3   OH222632   4.080   4.960   1.433 -0.1019  0.4509 -0.2537
  358TIP3    H122633   4.070   4.906   1.511 -0.2710  0.8274 -0.0104
  358TIP3    H222634   4.146   5.024   1.456  1.8041 -1.0304 -1.3199
  359TIP3   OH222635   1.042   4.220   2.129  0.3247  0.0060 -0.0687
  359TIP3    H122636   1.025   4.136   2.171  1.5107 -0.8275 -1.1608
  359TIP3    H222637   1.134   4.216   2.103 -0.2048  0.6651 -2.2700
  360TIP3   OH222638   1.128   4.898   7.521 -0.0251 -0.0935  0.4600
  360TIP3    H122639   1.059   4.903   7.587  0.9769  1.1177  1.4745
  360TIP3    H222640   1.208   4.883   7.571  0.6090 -0.3090 -0.5902
  361TIP3   OH222641   0.984   1.311   0.855  0.2322  0.4217  0.0569
  361TIP3    H122642   1.022   1.392   0.822  1.1581  0.0849  0.2927
  361TIP3    H222643   0.940   1.336   0.936  1.6659  0.4541  0.8447
  362TIP3   OH222644   1.503   4.305   0.993  0.2496  0.1348  0.1341
  362TIP3    H122645   1.489   4.268   1.080  0.2198  0.5072  0.2897
  362TIP3    H222646   1.573   4.369   1.005  0.1477  0.2913 -0.0871
  363TIP3   OH222647   2.092   5.450   2.460  0.5052 -0.3675  0.4062
  363TIP3    H122648   2.085   5.535   2.505 -1.3104 -0.5091  0.4834
  363TIP3    H222649   2.004   5.434   2.428  0.8402 -2.2123  0.3422
  364TIP3   OH222650   3.314   2.450   7.552  0.0766  0.1778  0.5201
  364TIP3    H122651   3.241   2.463   7.613 -0.4089 -1.5676  0.3499
  364TIP3    H222652   3.300   2.516   7.484 -0.5481  0.7679  1.1959
  365TIP3   OH222653   6.530   1.528   8.166 -0.3021 -0.5249 -0.1623
  365TIP3    H122654   6.497   1.492   8.084  0.3648 -1.1219 -0.1796
  365TIP3    H222655   6.619   1.492   8.174 -0.1268  0.0398  0.5000
  366TIP3   OH222656   2.412   3.062   0.649  0.8124  0.1326  0.0612
  366TIP3    H122657   2.359   3.004   0.705 -0.1459 -1.0226 -1.9376
  366TIP3    H222658   2.383   3.150   0.672 -2.4136 -0.4496 -1.2399
  367TIP3   OH222659   0.436   6.623   0.919  0.2065  0.2703 -0.5670
  367TIP3    H122660   0.374   6.564   0.875  1.2336 -0.2299 -1.3786
  367TIP3    H222661   0.500   6.565   0.959  0.3950  0.8004 -0.0877
  368TIP3   OH222662   2.174   0.906   8.691  0.1675 -0.1063 -0.5508
  368TIP3    H122663   2.104   0.923   8.754  1.2776  0.6810  0.4979
  368TIP3    H222664   2.252   0.946   8.729  1.0813 -0.4457 -1.9748
  369TIP3   OH222665   4.818   2.873   8.034 -0.1774  0.4594  0.0867
  369TIP3    H122666   4.825   2.786   8.072 -0.4451  1.5569  2.8243
  369TIP3    H222667   4.741   2.912   8.075  0.8483  2.5544  0.1839
  370TIP3   OH222668   1.837   6.222   1.823  0.3290  0.0973  0.0129
  370TIP3    H122669   1.812   6.130   1.817  0.2545  0.0867  0.4554
  370TIP3    H222670   1.896   6.236   1.749  1.7795 -0.7549  0.9706
  371TIP3   OH222671   1.099   2.391   1.709 -0.4856 -0.4701  0.8794
  371TIP3    H122672   1.071   2.323   1.770 -0.7856 -0.9437  0.2357
  371TIP3    H222673   1.104   2.471   1.762 -1.7089 -0.6630  1.3230
  372TIP3   OH222674   6.515   1.414   7.463  0.4152 -0.3201  0.2226
  372TIP3    H122675   6.429   1.426   7.503  0.4651  0.2035  0.1877
  372TIP3    H222676   6.540   1.324   7.484 -0.4141 -0.6883 -0.2972
  373TIP3   OH222677   5.487   6.183   7.408  0.0626  0.2478  0.0560
  373TIP3    H122678   5.567   6.137   7.433 -0.3361 -0.8401 -0.6328
  373TIP3    H222679   5.518   6.258   7.357  0.6031 -0.8492 -1.2658
  374TIP3   OH222680   6.719   2.063   7.678 -0.6144 -0.1879  0.3438
  374TIP3    H122681   6.803   2.029   7.711  0.0511  0.0897 -0.9786
  374TIP3    H222682   6.656   1.994   7.698  0.3935 -1.4883 -0.7585
  375TIP3   OH222683   6.217   1.897   7.216  0.2616  0.7475 -0.0041
  375TIP3    H122684   6.243   1.974   7.166 -0.0708  0.9219  0.0887
  375TIP3    H222685   6.149   1.856   7.163  0.4798  0.4839 -0.0818
  376TIP3   OH222686   1.331   3.651   2.658  0.3976 -0.1691  0.0601
  376TIP3    H122687   1.418   3.677   2.687  0.7255 -2.3980  1.3318
  376TIP3    H222688   1.272   3.686   2.724  0.1210  2.3824 -1.4359
  377TIP3   OH222689   2.263   4.144   7.534  1.0356  0.6193  0.0849
  377TIP3    H122690   2.213   4.170   7.456 -1.6580 -2.4534  0.5548
  377TIP3    H222691   2.310   4.065   7.506  0.9608  0.1609  1.2254
  378TIP3   OH222692   4.312   2.916   0.823  0.2039 -0.0696  0.4906
  378TIP3    H122693   4.297   2.933   0.916  1.5706 -1.0952  0.9367
  378TIP3    H222694   4.262   2.983   0.777 -0.4256  0.4993  1.9692
  379TIP3   OH222695   4.665   4.444   7.966  0.2600  0.3834  0.2250
  379TIP3    H122696   4.717   4.519   7.936  0.7858 -0.6252 -1.5178
  379TIP3    H222697   4.663   4.385   7.891 -0.4541 -1.1909  1.4361
  380TIP3   OH222698   0.032   5.064   7.868  0.1852 -0.6658  0.3038
  380TIP3    H122699   0.058   5.088   7.779  3.2988 -0.6856  1.0706
  380TIP3    H222700  -0.046   5.010   7.857  0.0454 -0.0286 -2.3406
  381TIP3   OH222701   1.008   5.451   2.349  0.4822 -0.1494  0.0265
  381TIP3    H122702   0.988   5.513   2.279  2.0861  0.2010 -0.1761
  381TIP3    H222703   1.018   5.505   2.427  1.5891 -0.1465 -0.0918
  382TIP3   OH222704   0.813   0.681   8.091  0.0738  0.2227 -0.0521
  382TIP3    H122705   0.844   0.591   8.089  0.2958  0.2581  1.2036
  382TIP3    H222706   0.720   0.675   8.069  0.1424 -0.2741 -0.2151
  383TIP3   OH222707   1.183   2.171   1.399  0.3909  0.8355  0.2825
  383TIP3    H122708   1.102   2.120   1.396  0.1020  1.2503  0.7450
  383TIP3    H222709   1.155   2.261   1.379  0.9451  0.7571 -0.8669
  384TIP3   OH222710   4.552   5.094   8.449  0.5871 -0.1595 -0.0277
  384TIP3    H122711   4.499   5.038   8.505 -0.7037  3.3593  2.6527
  384TIP3    H222712   4.496   5.111   8.372  0.1129 -0.8116  0.1657
  385TIP3   OH222713   5.036   1.617   0.685 -0.0608 -0.0995  0.5021
  385TIP3    H122714   4.960   1.560   0.697 -0.3369  0.0032 -0.5869
  385TIP3    H222715   5.091   1.570   0.622 -0.7845  1.2575 -1.2151
  386TIP3   OH222716   5.696   6.570   8.270 -0.3466 -0.3623 -0.0341
  386TIP3    H122717   5.784   6.534   8.257 -0.3662 -0.8665  1.1134
  386TIP3    H222718   5.703   6.661   8.240  0.3840 -0.5844 -0.5718
  387TIP3   OH222719   1.336   2.927   2.242 -0.2395  0.3657  0.3007
  387TIP3    H122720   1.390   2.993   2.285  0.1652 -0.5065  1.1772
  387TIP3    H222721   1.257   2.923   2.295 -0.5751  0.6464 -0.1704
  388TIP3   OH222722   2.214   2.019   8.326  0.2333 -0.6563 -0.4509
  388TIP3    H122723   2.166   1.961   8.385  0.7562 -1.1758 -0.5375
  388TIP3    H222724   2.287   2.051   8.378 -1.6749  2.3858  0.6547
  389TIP3   OH222725   6.048   0.844   0.691  0.7697 -0.6193  0.4003
  389TIP3    H122726   6.097   0.795   0.626  1.5445 -0.0588  0.5413
  389TIP3    H222727   6.049   0.789   0.770 -0.0142 -1.2139  0.0139
  390TIP3   OH222728   5.185   0.133   7.854 -0.1195 -0.0763  0.0812
  390TIP3    H122729   5.184   0.209   7.796  0.4935 -0.2675 -0.1921
  390TIP3    H222730   5.269   0.140   7.901  0.2466 -0.9250 -0.4165
  391TIP3   OH222731   3.635   1.963   8.589 -0.3862 -0.2380 -0.1043
  391TIP3    H122732   3.595   1.906   8.524 -0.1189  0.6417 -1.0716
  391TIP3    H222733   3.571   2.032   8.603 -0.9830 -1.0828  1.5438
  392TIP3   OH222734   5.504   6.343   2.082 -0.1653 -0.7865  0.5113
  392TIP3    H122735   5.543   6.388   2.157  2.1467  0.0704 -1.0877
  392TIP3    H222736   5.477   6.258   2.116  1.7564 -0.8205  2.1082
  393TIP3   OH222737   1.189   2.526   8.133  0.0584  0.2557 -0.3545
  393TIP3    H122738   1.238   2.531   8.215  1.0268 -1.3756 -0.7974
  393TIP3    H222739   1.240   2.466   8.078 -1.4762 -0.0329 -1.5243
  394TIP3   OH222740   5.462   4.132   7.039 -0.6396 -0.4218  0.6634
  394TIP3    H122741   5.537   4.188   7.023 -1.7266  0.8685 -0.0720
  394TIP3    H222742   5.446   4.088   6.956 -0.9139 -0.4339  0.7210
  395TIP3   OH222743   6.673   0.125   2.272  1.1153 -0.0580 -0.0877
  395TIP3    H122744   6.677   0.030   2.259 -1.4054 -0.2605  0.1810
  395TIP3    H222745   6.640   0.136   2.361 -2.5061  0.9085 -1.3953
  396TIP3   OH222746   0.394   3.542   0.154 -0.1654  0.3625  0.7843
  396TIP3    H122747   0.430   3.502   0.075  0.4261 -0.5906  1.5106
  396TIP3    H222748   0.326   3.602   0.122 -0.3860 -0.4806 -0.4026
  397TIP3   OH222749   5.843   0.847   8.040 -0.8494  0.0258 -0.0842
  397TIP3    H122750   5.748   0.843   8.030 -0.9134  0.8141  0.1568
  397TIP3    H222751   5.874   0.890   7.960 -0.7373  0.1947  0.0501
  398TIP3   OH222752   5.287   5.173   2.855 -0.1779 -0.2048  0.0594
  398TIP3    H122753   5.324   5.087   2.876  0.7045  0.4125  1.0966
  398TIP3    H222754   5.286   5.220   2.938 -1.2117  0.5876 -0.3872
  399TIP3   OH222755   2.210   6.784   7.299 -0.3897 -0.1858  0.1339
  399TIP3    H122756   2.207   6.689   7.313 -1.8000 -0.1580  0.2006
  399TIP3    H222757   2.118   6.811   7.300  0.0217  1.3114  0.9583
  400TIP3   OH222758   6.353   1.040   8.068  0.4821  0.4365  0.0364
  400TIP3    H122759   6.395   1.098   8.132  0.1517  1.1566 -0.3825
  400TIP3    H222760   6.260   1.046   8.089  0.5512 -1.0415  0.8717
  401TIP3   OH222761   5.162   3.971   7.660  0.2444 -0.1282 -0.5305
  401TIP3    H122762   5.253   3.999   7.646  0.8868 -1.2680  1.0328
  401TIP3    H222763   5.169   3.879   7.686 -1.2929 -0.0117  0.3968
  402TIP3   OH222764   0.644   0.373   0.130  0.5786 -0.1268  0.2237
  402TIP3    H122765   0.549   0.368   0.120  0.3436  2.7652  0.3510
  402TIP3    H222766   0.659   0.450   0.184  3.0283 -0.5725  0.3040
  403TIP3   OH222767   2.904   1.674   2.237  0.1534 -0.9305  0.6263
  403TIP3    H122768   2.905   1.611   2.165  1.1741  0.2835 -0.4662
  403TIP3    H222769   2.903   1.620   2.316 -1.6457 -2.2983 -0.2476
  404TIP3   OH222770   3.829   2.645   8.294  0.9176  0.1673 -0.9175
  404TIP3    H122771   3.784   2.567   8.260 -1.4573  1.2352 -0.4721
  404TIP3    H222772   3.922   2.622   8.294  0.3556 -2.3730 -1.4932
  405TIP3   OH222773   4.766   0.195   0.826 -0.1997 -0.0390 -0.0737
  405TIP3    H122774   4.763   0.153   0.912 -0.5541  1.1173  0.4984
  405TIP3    H222775   4.829   0.144   0.776 -1.6730 -2.1541  0.0849
  406TIP3   OH222776   6.213   6.097   1.876  0.4751 -0.1454  0.0822
  406TIP3    H122777   6.182   6.017   1.918  0.8996 -0.6875 -0.6101
  406TIP3    H222778   6.137   6.130   1.829  1.3321 -2.7996 -3.6723
  407TIP3   OH222779   3.571   1.648   1.723  0.0063  0.1141 -0.1356
  407TIP3    H122780   3.542   1.573   1.775 -0.5469  0.1689 -0.3616
  407TIP3    H222781   3.614   1.610   1.647  1.2189  0.0299  0.5643
  408TIP3   OH222782   2.989   3.042   0.098  0.4066  0.1161  0.1388
  408TIP3    H122783   2.902   3.069   0.126  1.0639  0.2513  2.2263
  408TIP3    H222784   3.048   3.081   0.161  1.8829 -1.0780 -0.4300
  409TIP3   OH222785   3.292   3.261   0.697 -0.6915 -0.2844 -0.0788
  409TIP3    H122786   3.347   3.326   0.739 -4.1981  0.2794  4.3861
  409TIP3    H222787   3.225   3.313   0.651 -0.6327 -0.8622 -0.8413
  410TIP3   OH222788   0.780   2.153   0.719  0.0451  0.1172 -0.0181
  410TIP3    H122789   0.807   2.205   0.795 -0.6670 -0.9605  1.0076
  410TIP3    H222790   0.688   2.175   0.707  0.2519  0.5677 -0.8249
  411TIP3   OH222791   0.086   1.839   0.724  0.0135  0.0479  0.4385
  411TIP3    H122792   0.083   1.843   0.819 -1.5730  2.3504  0.3538
  411TIP3    H222793   0.078   1.930   0.695 -0.6451 -0.6838 -1.9217
  412TIP3   OH222794   2.289   0.640   2.843 -0.1187 -0.0253  0.3044
  412TIP3    H122795   2.379   0.665   2.863 -0.3099  0.2339  0.8555
  412TIP3    H222796   2.279   0.658   2.750  0.7007 -0.9756  0.0136
  413TIP3   OH222797   1.489   1.366   1.120 -0.2813  0.1704  0.1922
  413TIP3    H122798   1.446   1.344   1.037 -0.2462  0.4051  0.1120
  413TIP3    H222799   1.425   1.344   1.187 -0.5420  0.5554  0.0718
  414TIP3   OH222800   1.047   6.301   0.043 -0.7181  0.4428 -0.3100
  414TIP3    H122801   1.077   6.215   0.073 -2.1057  0.4192  1.1374
  414TIP3    H222802   1.128   6.352   0.032  0.0299 -0.5570  0.3770
  415TIP3   OH222803   1.025   4.632   1.599  0.5431 -0.1398 -0.0499
  415TIP3    H122804   0.930   4.641   1.588  0.4559 -1.8197 -1.2227
  415TIP3    H222805   1.045   4.679   1.679 -1.2848  0.2618  0.2204
  416TIP3   OH222806   4.176   4.848   8.581 -0.1899 -0.0217 -0.0113
  416TIP3    H122807   4.124   4.810   8.510 -1.4841 -1.1014  1.4407
  416TIP3    H222808   4.119   4.916   8.618  0.7284  0.9761 -0.3780
  417TIP3   OH222809   2.947   3.489   2.642 -0.5312  0.4259 -0.7685
  417TIP3    H122810   3.032   3.521   2.671 -0.6272  0.0988 -0.1214
  417TIP3    H222811   2.897   3.568   2.620 -0.5655  0.6911  0.2393
  418TIP3   OH222812   2.883   4.797   1.711 -0.0736  0.4800 -0.0818
  418TIP3    H122813   2.900   4.705   1.687  0.6635  0.3487  0.9067
  418TIP3    H222814   2.787   4.803   1.711 -0.1327 -0.2246 -0.3778
  419TIP3   OH222815   4.152   4.207   1.626 -0.2837  0.1970 -0.3799
  419TIP3    H122816   4.171   4.291   1.584 -1.1252 -0.0062 -1.1936
  419TIP3    H222817   4.237   4.161   1.626  0.2953  1.2375  0.5519
  420TIP3   OH222818   3.985   2.791   7.295 -0.7081  0.0045  0.2628
  420TIP3    H122819   3.992   2.702   7.261 -1.2241 -0.0630  0.3289
  420TIP3    H222820   3.897   2.820   7.270 -1.0921 -0.0341  1.4982
  421TIP3   OH222821   2.502   3.935   8.126  0.0490  0.5854 -0.3418
  421TIP3    H122822   2.422   3.960   8.079  0.2389  1.9224  0.0195
  421TIP3    H222823   2.515   4.005   8.189 -0.0323 -1.0258  1.5461
  422TIP3   OH222824   4.635   0.026   8.605  0.5374 -0.2293 -0.3641
  422TIP3    H122825   4.725   0.056   8.588  0.5297 -1.3276 -2.7260
  422TIP3    H222826   4.598   0.011   8.518 -1.9247  0.0476  0.5627
  423TIP3   OH222827   5.787   0.255   0.574 -0.2986 -0.1968 -0.1324
  423TIP3    H122828   5.748   0.171   0.552  0.5741 -0.6194 -0.1163
  423TIP3    H222829   5.774   0.310   0.496  1.0432 -1.0533 -1.0078
  424TIP3   OH222830   6.825   1.400   7.419  0.0355 -0.4807  0.0652
  424TIP3    H122831   6.753   1.390   7.356  1.2644 -0.6356 -1.3868
  424TIP3    H222832   6.893   1.447   7.371  0.6813  0.2277  1.5987
  425TIP3   OH222833   3.775   1.455   0.414  0.0986  0.1710  0.0124
  425TIP3    H122834   3.728   1.372   0.408 -0.7436  0.5442  1.1431
  425TIP3    H222835   3.716   1.520   0.374  1.1171  0.1212 -1.6676
  426TIP3   OH222836   4.715   2.615   2.114  0.0177  0.2179  0.0865
  426TIP3    H122837   4.775   2.599   2.187  0.0105 -0.7564 -0.1085
  426TIP3    H222838   4.698   2.710   2.118 -1.2244 -0.0231  2.2964
  427TIP3   OH222839   5.425   5.492   0.156  0.3261  0.0883  0.0209
  427TIP3    H122840   5.408   5.510   0.248  0.1276  1.1214 -0.2092
  427TIP3    H222841   5.513   5.454   0.154 -0.3289 -1.5375  0.7989
  428TIP3   OH222842   1.931   5.146   8.529  0.0618  0.0729  0.6894
  428TIP3    H122843   1.903   5.081   8.593  4.1044 -3.8053 -0.9484
  428TIP3    H222844   1.884   5.123   8.449  0.3100  0.2127  0.5015
  429TIP3   OH222845   4.045   3.636   1.777 -0.2094 -0.3224  0.0693
  429TIP3    H122846   4.004   3.595   1.853 -1.5574 -0.2941 -0.6234
  429TIP3    H222847   3.975   3.685   1.735  0.9373  1.1702 -0.1844
  430TIP3   OH222848   4.265   0.176   0.737 -0.3235 -0.9613  0.0364
  430TIP3    H122849   4.186   0.227   0.719 -0.5936 -1.1499  0.6666
  430TIP3    H222850   4.336   0.241   0.740 -0.7144 -0.5664  1.1701
  431TIP3   OH222851   1.988   0.984   0.213  0.3409 -0.7165 -0.4487
  431TIP3    H122852   2.002   1.000   0.306  1.1453 -0.0657 -0.6645
  431TIP3    H222853   2.015   1.066   0.170  2.0251 -1.7061 -1.4075
  432TIP3   OH222854   5.534   3.660   8.011  0.4715 -0.0118 -0.0461
  432TIP3    H122855   5.460   3.645   8.068  0.7334  0.5340  0.4486
  432TIP3    H222856   5.500   3.715   7.940  0.3727  0.1211  0.1061
  433TIP3   OH222857   3.981   1.649   3.014  0.2325  0.2590 -0.6120
  433TIP3    H122858   3.975   1.555   3.034  1.3027  0.1676 -0.6335
  433TIP3    H222859   4.066   1.658   2.971  0.8009  1.4794  0.7250
  434TIP3   OH222860   2.527   4.963   1.961 -0.1098 -0.0657 -0.2567
  434TIP3    H122861   2.560   5.047   1.929  0.8171 -0.7298 -1.1120
  434TIP3    H222862   2.550   4.962   2.054 -0.5580  0.8226 -0.1333
  435TIP3   OH222863   6.236   6.814   6.765  0.3468  0.1444 -0.0866
  435TIP3    H122864   6.324   6.829   6.730  0.2926 -0.4318 -0.4881
  435TIP3    H222865   6.187   6.778   6.691  0.2780 -1.2998  0.6339
  436TIP3   OH222866   5.194   5.368   0.767  0.6634 -0.7326  0.5002
  436TIP3    H122867   5.128   5.412   0.821  1.1273 -0.0452  0.5331
  436TIP3    H222868   5.149   5.292   0.730 -0.4983  0.3512 -0.4157
  437TIP3   OH222869   0.020   5.853   8.136 -0.1109 -0.4280 -0.6567
  437TIP3    H122870   0.100   5.807   8.160  0.6565  1.5824  0.9250
  437TIP3    H222871   0.025   5.862   8.041  0.8324 -1.5684 -0.7320
  438TIP3   OH222872   6.620   3.258   1.690 -0.1428 -0.5931  0.3301
  438TIP3    H122873   6.652   3.201   1.760  1.3941 -2.3397 -1.6635
  438TIP3    H222874   6.699   3.287   1.645 -1.1106 -0.3509 -1.2809
  439TIP3   OH222875   3.036   5.891   1.646 -0.1912 -0.1993  0.3225
  439TIP3    H122876   3.014   5.884   1.553 -4.8420  1.1726  1.0756
  439TIP3    H222877   3.022   5.802   1.680  0.2593 -0.4218 -0.0609
  440TIP3   OH222878   0.559   2.121   2.600  0.1024  0.4257 -0.2487
  440TIP3    H122879   0.500   2.064   2.551  0.2351  2.1143 -2.5622
  440TIP3    H222880   0.641   2.072   2.606 -0.4445 -0.4982 -0.1685
  441TIP3   OH222881   3.693   3.534   7.878  0.3988  0.1824  0.2094
  441TIP3    H122882   3.751   3.493   7.814  0.6224  0.0660  0.4841
  441TIP3    H222883   3.724   3.502   7.963 -0.2850 -0.1541  0.3375
  442TIP3   OH222884   6.713   4.383   7.364  0.2467  0.0365  0.2965
  442TIP3    H122885   6.724   4.407   7.456 -0.4991  2.8417 -0.2506
  442TIP3    H222886   6.796   4.343   7.340  2.6222  4.0208  0.9348
  443TIP3   OH222887   6.639   2.868   0.285  0.4027 -0.0028  0.2802
  443TIP3    H122888   6.581   2.795   0.264  0.7255  0.1200 -1.1141
  443TIP3    H222889   6.659   2.856   0.378 -2.4698  0.4203  1.0450
  444TIP3   OH222890   1.075   1.639   0.286  0.3133 -0.3176 -0.0302
  444TIP3    H122891   1.038   1.634   0.374  0.6345  0.5707  0.1584
  444TIP3    H222892   1.132   1.562   0.279 -1.2379 -1.5234 -0.1969
  445TIP3   OH222893   3.969   1.995   2.200 -0.0432  0.3732  0.1246
  445TIP3    H122894   4.022   2.074   2.205  0.1604  0.2695 -0.3731
  445TIP3    H222895   4.028   1.927   2.168 -0.4437  0.2278 -0.3209
  446TIP3   OH222896   5.940   4.193   7.090  0.0128 -0.3852  0.0156
  446TIP3    H122897   5.933   4.242   7.172 -0.0712 -0.1429 -0.1363
  446TIP3    H222898   6.004   4.124   7.109 -0.5285 -0.7648  0.4993
  447TIP3   OH222899   2.774   2.174   1.521  0.7869 -0.1987 -0.3151
  447TIP3    H122900   2.704   2.145   1.580  1.5851 -0.8664  0.3188
  447TIP3    H222901   2.802   2.258   1.557  1.0309 -0.4354  0.0455
  448TIP3   OH222902   3.582   3.096   1.604  0.7016  0.2687 -0.6262
  448TIP3    H122903   3.560   3.151   1.679  1.4852  1.7371 -1.4425
  448TIP3    H222904   3.678   3.093   1.604  0.6781 -0.9888 -0.6922
  449TIP3   OH222905   0.169   3.584   1.485 -0.5436 -0.1669  0.7441
  449TIP3    H122906   0.250   3.545   1.452  0.1092  1.1505  0.7117
  449TIP3    H222907   0.138   3.639   1.413 -1.2590 -0.3539  0.9027
  450TIP3   OH222908   2.240   2.175   7.213  0.2796  0.7908  0.0260
  450TIP3    H122909   2.183   2.230   7.267 -1.0376  0.4503 -0.9848
  450TIP3    H222910   2.222   2.203   7.123  1.1808  0.1635 -0.3632
  451TIP3   OH222911   1.038   3.861   7.961  0.3012 -0.2891 -0.5794
  451TIP3    H122912   0.998   3.775   7.949 -0.1940 -0.0331 -0.8004
  451TIP3    H222913   0.968   3.923   7.942  0.7515  0.1706 -0.7757
  452TIP3   OH222914   4.662   6.696   0.265 -0.2832 -0.4114 -0.4279
  452TIP3    H122915   4.651   6.655   0.350  0.8909  0.2297  0.0584
  452TIP3    H222916   4.588   6.756   0.257 -0.1923 -0.1897  0.3293
  453TIP3   OH222917   2.779   0.496   1.562  0.3453 -0.2285  0.2219
  453TIP3    H122918   2.853   0.522   1.507  1.1080 -0.0084  1.3327
  453TIP3    H222919   2.791   0.543   1.644 -0.4450 -1.0137  0.8168
  454TIP3   OH222920   6.702   4.752   2.710 -0.0720 -0.2292 -0.5092
  454TIP3    H122921   6.750   4.707   2.780  1.6146  2.1136 -0.0285
  454TIP3    H222922   6.706   4.692   2.636  0.6181 -1.5625  0.5568
  455TIP3   OH222923   3.269   6.849   1.231 -0.8893 -0.2679  0.5989
  455TIP3    H122924   3.190   6.828   1.282 -0.5684  0.4780  1.4295
  455TIP3    H222925   3.320   6.906   1.289 -1.1171  1.6989 -1.0377
  456TIP3   OH222926   3.122   4.335   2.926  0.0790  0.2385 -0.8796
  456TIP3    H122927   3.171   4.257   2.952 -0.9545 -0.2299 -0.2725
  456TIP3    H222928   3.072   4.359   3.004 -0.9054  0.5010 -1.5743
  457TIP3   OH222929   4.686   4.257   1.892  0.0001  0.3952 -0.2989
  457TIP3    H122930   4.736   4.294   1.819  1.0634 -1.4879 -0.5742
  457TIP3    H222931   4.654   4.173   1.861  1.3558 -0.9468  1.6879
  458TIP3   OH222932   1.468   6.688   0.732  0.5244  0.1658 -0.5022
  458TIP3    H122933   1.495   6.597   0.739  3.2866  0.8342 -1.1862
  458TIP3    H222934   1.449   6.715   0.822 -0.5964 -1.0883 -0.3218
  459TIP3   OH222935   5.034   5.815   1.796 -0.4064 -0.0316 -0.4631
  459TIP3    H122936   5.115   5.842   1.752 -0.1309 -1.7307 -1.0729
  459TIP3    H222937   5.035   5.863   1.879  1.3230 -0.1512 -0.3684
  460TIP3   OH222938   2.302   0.411   1.184  0.0160 -0.2482  0.0827
  460TIP3    H122939   2.230   0.473   1.197  0.1358 -0.0628 -0.1263
  460TIP3    H222940   2.349   0.445   1.108  2.3765  1.6108  2.2085
  461TIP3   OH222941   2.388   6.428   1.156 -0.9111 -0.5811  0.7833
  461TIP3    H122942   2.458   6.374   1.192  0.9888  0.7279 -0.7478
  461TIP3    H222943   2.390   6.508   1.208 -0.7147 -0.2246  0.2409
  462TIP3   OH222944   6.086   4.728   8.303  0.0740  0.3985  0.3313
  462TIP3    H122945   6.114   4.737   8.212 -1.0802 -0.7118 -0.1469
  462TIP3    H222946   6.163   4.755   8.354  1.1627 -0.1769 -0.9489
  463TIP3   OH222947   6.833   2.559   1.896  0.0402  0.3143  0.9760
  463TIP3    H122948   6.797   2.487   1.948  0.4795 -1.7414 -1.3234
  463TIP3    H222949   6.913   2.523   1.858 -0.1388  1.7172 -0.9063
  464TIP3   OH222950   0.067   6.701   0.818  0.0415  0.1541 -0.6413
  464TIP3    H122951   0.081   6.687   0.911 -1.1612 -1.0176 -0.5897
  464TIP3    H222952   0.092   6.792   0.802  2.6202 -0.3095  0.3040
  465TIP3   OH222953   1.866   4.786   0.797  0.6246 -0.2693 -0.5898
  465TIP3    H122954   1.931   4.744   0.853 -0.2181 -0.6228  0.1394
  465TIP3    H222955   1.917   4.822   0.724  1.7933  0.4939  0.5598
  466TIP3   OH222956   4.889   2.817   0.521  0.1002  0.0583 -0.0779
  466TIP3    H122957   4.817   2.850   0.467 -0.4027 -1.3869 -0.3149
  466TIP3    H222958   4.858   2.733   0.554  1.4488 -0.3022  0.3308
  467TIP3   OH222959   2.094   0.830   2.228 -0.0398 -0.3296  0.5706
  467TIP3    H122960   2.131   0.827   2.140 -2.1518 -1.1001 -0.3583
  467TIP3    H222961   2.050   0.914   2.232 -1.3128 -0.9636  0.2671
  468TIP3   OH222962   4.896   3.507   8.047  0.3312  0.1442  0.0437
  468TIP3    H122963   4.926   3.470   8.130 -1.1285 -1.5369 -0.1043
  468TIP3    H222964   4.975   3.540   8.005  1.8394 -2.9313  0.1931
  469TIP3   OH222965   4.167   1.078   1.956 -0.1993 -0.2441 -0.2584
  469TIP3    H122966   4.155   1.041   2.043 -0.2382 -1.0074 -0.5768
  469TIP3    H222967   4.218   1.012   1.909 -0.5607 -0.0501 -0.9415
  470TIP3   OH222968   6.366   2.463   1.109 -0.2195  0.1146 -0.4870
  470TIP3    H122969   6.430   2.531   1.090 -1.9379  1.8341 -0.5284
  470TIP3    H222970   6.293   2.510   1.150 -0.6315 -2.0273  1.4722
  471TIP3   OH222971   4.536   1.525   1.355  0.5146 -0.6608  0.2797
  471TIP3    H122972   4.501   1.471   1.426 -0.3697 -1.5251 -0.7894
  471TIP3    H222973   4.601   1.470   1.312 -0.4110 -0.9235 -0.8327
  472TIP3   OH222974   3.948   5.645   8.371  0.0649  0.0056  0.1177
  472TIP3    H122975   3.998   5.674   8.295  2.3657  0.3040  1.6400
  472TIP3    H222976   3.876   5.707   8.378  0.3723  0.5473 -1.2589
  473TIP3   OH222977   4.954   1.228   0.862 -0.7514  0.4272 -0.2831
  473TIP3    H122978   5.020   1.261   0.923 -1.8536  0.2046  1.0822
  473TIP3    H222979   4.888   1.297   0.858 -0.8785  0.2764 -0.9354
  474TIP3   OH222980   4.672   5.960   0.588  0.3509 -0.3764  0.2030
  474TIP3    H122981   4.764   5.935   0.593  0.4137 -0.0155  0.9764
  474TIP3    H222982   4.669   6.047   0.627  0.1276  0.8728 -2.3436
  475TIP3   OH222983   5.937   2.086   6.775  0.1569  0.1694 -0.1301
  475TIP3    H122984   5.970   2.171   6.803 -1.8748  1.1405 -0.5514
  475TIP3    H222985   5.987   2.022   6.827  0.5489  1.6623  1.3957
  476TIP3   OH222986   0.671   2.680   0.268  0.2161 -0.2256 -0.2079
  476TIP3    H122987   0.626   2.687   0.183 -1.4422  0.1693  0.6608
  476TIP3    H222988   0.743   2.743   0.262 -1.7442  2.1883 -0.2562
  477TIP3   OH222989   3.784   0.476   1.131  0.0867  0.0925  0.2012
  477TIP3    H122990   3.761   0.415   1.201  1.2995  0.3193  0.8256
  477TIP3    H222991   3.815   0.555   1.177  0.6755  0.3295 -0.5836
  478TIP3   OH222992   5.776   4.913   8.478  0.3091 -0.2909  0.5914
  478TIP3    H122993   5.824   4.995   8.492  0.7894 -0.5958  0.7340
  478TIP3    H222994   5.838   4.857   8.432 -0.5539 -0.0135 -0.9815
  479TIP3   OH222995   0.582   1.894   1.896 -1.0003 -0.3156  0.3707
  479TIP3    H122996   0.622   1.963   1.948  0.1801 -0.2154 -0.6305
  479TIP3    H222997   0.619   1.905   1.808 -1.2596 -1.8232  0.0401
  480TIP3   OH222998   6.088   4.975   1.038 -0.4558 -0.1325 -0.3581
  480TIP3    H122999   6.030   4.899   1.032 -2.5546  1.1488  1.8019
  480TIP3    H223000   6.036   5.041   1.083  2.0458  1.8497 -0.1372
  481TIP3   OH223001   4.507   5.583   0.210 -0.3737 -0.8536 -0.3944
  481TIP3    H123002   4.488   5.677   0.207 -1.9043 -1.1523 -2.1044
  481TIP3    H223003   4.436   5.546   0.263  0.2515 -1.0602  0.3127
  482TIP3   OH223004   4.842   4.487   1.140 -0.0417  1.2172  0.1156
  482TIP3    H123005   4.867   4.441   1.221 -0.8121 -1.1625 -0.9198
  482TIP3    H223006   4.746   4.483   1.139 -0.0430 -1.6194 -2.3307
  483TIP3   OH223007   3.333   4.059   8.100  0.1543 -0.1717  0.6716
  483TIP3    H123008   3.420   4.075   8.134  0.5135  0.6120 -0.5311
  483TIP3    H223009   3.281   4.133   8.132  0.1994 -0.0749  0.5248
  484TIP3   OH223010   0.053   5.921   7.858 -1.3378 -1.1445  0.3355
  484TIP3    H123011   0.022   5.994   7.804  0.5675  0.7179  1.5971
  484TIP3    H223012   0.131   5.889   7.813 -1.3566 -1.4686  0.5299
  485TIP3   OH223013   4.404   3.597   8.385 -0.1760 -0.2118 -0.1650
  485TIP3    H123014   4.459   3.600   8.463 -0.2391 -0.1725 -0.1225
  485TIP3    H223015   4.419   3.680   8.341 -2.7595  1.3143  1.5814
  486TIP3   OH223016   0.097   2.447   8.494  0.3695 -0.0761  0.0832
  486TIP3    H123017   0.009   2.462   8.458 -0.0416 -0.7638  0.7563
  486TIP3    H223018   0.148   2.415   8.420 -0.7785 -2.6075  0.2786
  487TIP3   OH223019   4.073   0.768   0.580  0.0171 -0.1116  0.3352
  487TIP3    H123020   4.032   0.682   0.592 -0.5477  0.4556  2.8949
  487TIP3    H223021   4.159   0.748   0.541 -0.4388 -1.7597  0.1017
  488TIP3   OH223022   0.512   3.820   2.068 -0.0193 -0.3873 -0.4323
  488TIP3    H123023   0.513   3.853   2.158  0.7010 -1.7912  0.1032
  488TIP3    H223024   0.601   3.837   2.036  0.3056 -1.6158 -0.2092
  489TIP3   OH223025   0.164   6.294   7.032  0.0363 -0.1496  0.0712
  489TIP3    H123026   0.118   6.241   6.966 -0.5219 -1.3619  1.3916
  489TIP3    H223027   0.254   6.300   6.999 -0.2355 -0.7319 -0.8163
  490TIP3   OH223028   2.536   5.966   0.015 -0.8375  0.1435 -0.0394
  490TIP3    H123029   2.496   5.954   0.101  1.2629 -0.4967  0.9368
  490TIP3    H223030   2.487   5.909  -0.043 -1.6645 -0.1927  0.9535
  491TIP3   OH223031   4.084   0.100   7.986  0.1725 -0.4135  0.1786
  491TIP3    H123032   4.124   0.053   7.913 -0.6641 -2.1509  0.7847
  491TIP3    H223033   4.014   0.151   7.947  1.5455  0.9780 -0.5913
  492TIP3   OH223034   2.526   5.823   7.764 -0.1177 -0.0078  0.3220
  492TIP3    H123035   2.557   5.893   7.706 -2.0929  2.2256  1.7842
  492TIP3    H223036   2.443   5.856   7.798 -0.0355 -2.1242  2.8291
  493TIP3   OH223037   0.528   6.827   2.959 -0.7410  0.0517  0.1458
  493TIP3    H123038   0.620   6.851   2.962 -0.9288  0.9169 -0.5180
  493TIP3    H223039   0.521   6.765   2.887 -0.7118  0.1585  0.0507
  494TIP3   OH223040   6.799   3.374   7.693  0.4511 -0.4207  0.1106
  494TIP3    H123041   6.714   3.332   7.684  0.6730 -0.5582 -1.7224
  494TIP3    H223042   6.839   3.331   7.768 -0.8613 -0.7596  0.6360
  495TIP3   OH223043   0.288   3.095   7.576  0.1939  0.2608  0.1410
  495TIP3    H123044   0.217   3.158   7.562 -0.2175 -0.0106  0.9769
  495TIP3    H223045   0.368   3.143   7.554 -0.2224  0.6228 -0.6432
  496TIP3   OH223046   2.205   1.552   6.926 -0.7241 -0.1353  0.0402
  496TIP3    H123047   2.117   1.570   6.959 -0.9113 -0.0621 -0.4904
  496TIP3    H223048   2.246   1.638   6.921 -0.7134 -0.1410  0.0308
  497TIP3   OH223049   0.708   0.735   1.430  0.0741  0.1560 -0.5226
  497TIP3    H123050   0.686   0.816   1.384 -1.9915 -0.6406 -1.0550
  497TIP3    H223051   0.775   0.694   1.375 -1.1178  0.0466 -1.9622
  498TIP3   OH223052   3.377   6.855   2.218  0.2222  0.3520  0.3162
  498TIP3    H123053   3.339   6.782   2.265 -0.6259 -0.6119 -1.7264
  498TIP3    H223054   3.304   6.917   2.207 -0.5942 -0.9464 -2.5323
  499TIP3   OH223055   5.910   2.656   8.239  0.3023  0.0010  0.4608
  499TIP3    H123056   5.972   2.662   8.167 -0.0286  2.3101  0.2727
  499TIP3    H223057   5.829   2.624   8.199  0.1683  1.1062 -0.1981
  500TIP3   OH223058   0.636   2.315   2.351  0.2725 -0.3881  0.3469
  500TIP3    H123059   0.548   2.281   2.333 -0.4651  1.3323  0.4887
  500TIP3    H223060   0.685   2.238   2.381 -0.7236 -1.6952 -1.2062
  501TIP3   OH223061   4.877   5.230   0.948 -0.4055 -0.2244  0.2646
  501TIP3    H123062   4.791   5.258   0.981  0.0466  0.7244  0.6879
  501TIP3    H223063   4.882   5.270   0.861 -0.3197 -0.1376  0.3100
  502TIP3   OH223064   1.296   4.797   0.871 -0.2971 -0.4887 -0.4903
  502TIP3    H123065   1.212   4.803   0.825 -0.7119 -0.0901  0.3008
  502TIP3    H223066   1.279   4.738   0.944  0.1841 -0.6123 -0.4756
  503TIP3   OH223067   3.606   0.961   7.419 -0.4286 -0.1406 -0.2217
  503TIP3    H123068   3.635   0.986   7.332 -0.3937 -0.1922 -0.2249
  503TIP3    H223069   3.530   1.016   7.436 -0.1821  0.1674 -0.1149
  504TIP3   OH223070   5.828   6.385   0.607  0.0858  0.2590 -0.0915
  504TIP3    H123071   5.907   6.404   0.556 -0.7954  2.5420 -0.7377
  504TIP3    H223072   5.756   6.416   0.552 -1.1510 -0.2656  1.1675
  505TIP3   OH223073   4.174   6.779   1.977  0.2058  0.3181 -0.9546
  505TIP3    H123074   4.125   6.772   2.058 -0.8130  1.8221 -1.3868
  505TIP3    H223075   4.264   6.799   2.004  0.0931 -0.1806 -0.1988
  506TIP3   OH223076   5.261   5.675   8.394  0.6144  0.5876  0.0093
  506TIP3    H123077   5.227   5.586   8.390  1.6277  0.1992 -0.3590
  506TIP3    H223078   5.314   5.684   8.315  1.0148  1.3089  0.3435
  507TIP3   OH223079   1.295   2.896   1.693 -0.2642 -0.1937 -0.3878
  507TIP3    H123080   1.350   2.828   1.655 -0.9367 -0.8342 -0.2345
  507TIP3    H223081   1.305   2.885   1.788 -0.1904  0.0668 -0.3656
  508TIP3   OH223082   6.222   6.244   0.915  0.0718 -0.3190  0.3014
  508TIP3    H123083   6.299   6.189   0.902  0.1133 -0.5352  1.3655
  508TIP3    H223084   6.149   6.181   0.917 -0.0474 -0.1887  0.0275
  509TIP3   OH223085   3.698   1.199   7.813  0.4961  0.0066 -0.0023
  509TIP3    H123086   3.734   1.219   7.727  0.6025  1.6420  0.3930
  509TIP3    H223087   3.617   1.249   7.817 -1.1366 -2.4329 -0.2847
  510TIP3   OH223088   4.421   6.650   1.295  0.5465  0.4417 -0.6096
  510TIP3    H123089   4.335   6.674   1.329  1.5433  2.1839  0.8965
  510TIP3    H223090   4.456   6.732   1.259  1.8074 -0.0568 -0.5808
  511TIP3   OH223091   2.814   3.571   1.336 -0.4512  0.0775  0.0727
  511TIP3    H123092   2.793   3.477   1.336 -0.1166 -0.0170 -1.4881
  511TIP3    H223093   2.826   3.592   1.429  1.6565 -1.9208  0.3462
  512TIP3   OH223094   0.199   6.322   8.575  0.7372  0.3909  0.4417
  512TIP3    H123095   0.247   6.388   8.624 -1.1379  1.6676  0.6650
  512TIP3    H223096   0.236   6.326   8.486  0.4604  1.9543  0.3815
  513TIP3   OH223097   4.919   2.217   1.611  0.1336 -1.1808 -0.0015
  513TIP3    H123098   4.977   2.284   1.647 -0.2336  0.8250 -2.8629
  513TIP3    H223099   4.889   2.167   1.688 -0.4960  2.6565  2.4954
  514TIP3   OH223100   4.407   3.995   8.199  0.4776 -0.5310 -0.2274
  514TIP3    H123101   4.397   4.089   8.214 -0.3082 -0.7327  0.5731
  514TIP3    H223102   4.321   3.966   8.169  0.6044 -1.0653 -0.0846
  515TIP3   OH223103   4.429   2.211   0.566 -0.2698  0.5316 -0.3965
  515TIP3    H123104   4.496   2.270   0.602 -0.7453  0.7510  0.1441
  515TIP3    H223105   4.435   2.133   0.621  1.2238 -0.4818 -1.8888
  516TIP3   OH223106   4.657   1.406   2.309  0.2742 -0.3092 -0.1108
  516TIP3    H123107   4.671   1.404   2.403  0.7165 -3.2751 -0.1260
  516TIP3    H223108   4.741   1.431   2.272  0.7596 -1.3311  0.2613
  517TIP3   OH223109   5.081   0.812   1.026  0.3941 -0.1844 -0.4807
  517TIP3    H123110   5.159   0.837   1.074  0.3812  0.9080 -0.9978
  517TIP3    H223111   5.040   0.744   1.079  2.0011 -1.2059 -0.5030
  518TIP3   OH223112   1.405   5.784   0.374  0.4552  0.1405 -0.1670
  518TIP3    H123113   1.425   5.877   0.388  0.2971  0.4438 -1.7757
  518TIP3    H223114   1.345   5.784   0.300  0.0364 -1.2254  0.1604
  519TIP3   OH223115   1.200   4.287   2.482 -0.0300 -0.2185  0.0764
  519TIP3    H123116   1.138   4.217   2.463  0.7415 -0.9751  0.2975
  519TIP3    H223117   1.242   4.261   2.564  1.0909 -0.0851 -0.4319
  520TIP3   OH223118   1.096   6.623   0.841  0.6158 -0.4947  0.1254
  520TIP3    H123119   1.015   6.626   0.791  0.8886  0.2725 -0.2836
  520TIP3    H223120   1.163   6.597   0.778  0.9657  0.4891  0.0714
  521TIP3   OH223121   5.242   5.347   6.941 -0.8161 -0.7459  0.5297
  521TIP3    H123122   5.273   5.435   6.965  0.0431 -0.9718  0.2757
  521TIP3    H223123   5.285   5.329   6.857 -2.6187 -0.5696 -0.4841
  522TIP3   OH223124   2.151   5.143   6.635  0.0447  0.0080 -0.8960
  522TIP3    H123125   2.128   5.172   6.723  0.9110 -1.6236 -0.0754
  522TIP3    H223126   2.227   5.197   6.611  0.1966  0.0301 -0.3790
  523TIP3   OH223127   0.544   5.693   0.010 -0.3374  0.9570 -0.6220
  523TIP3    H123128   0.519   5.606   0.041  0.4655  0.5703 -1.0266
  523TIP3    H223129   0.476   5.716  -0.053 -0.7206  0.7586 -0.2876
  524TIP3   OH223130   4.584   6.166   8.529  0.4572 -0.0655  0.5572
  524TIP3    H123131   4.619   6.209   8.606 -1.4312  0.3711  1.1996
  524TIP3    H223132   4.567   6.076   8.557  1.5213 -0.4350  0.0851
  525TIP3   OH223133   1.423   0.116   7.834 -0.5734  0.3033 -0.0055
  525TIP3    H123134   1.330   0.092   7.832 -0.9168  1.5480 -0.1030
  525TIP3    H223135   1.461   0.072   7.759 -1.1068 -0.1217 -0.0352
  526TIP3   OH223136   4.541   0.945   2.283  0.2622 -0.2509  0.7618
  526TIP3    H123137   4.566   0.988   2.365 -0.7496  0.4868  0.6924
  526TIP3    H223138   4.545   1.014   2.217  0.3544 -0.6767  0.3122
  527TIP3   OH223139   5.614   6.082   8.532 -0.0213 -0.7951  0.2799
  527TIP3    H123140   5.528   6.043   8.547 -0.8151 -0.1657 -2.1859
  527TIP3    H223141   5.596   6.161   8.481  1.9517 -0.0499  0.6613
  528TIP3   OH223142   4.748   2.087   8.664 -0.1654  0.5431 -0.2560
  528TIP3    H123143   4.724   2.157   8.603 -1.7076 -1.1470 -1.7643
  528TIP3    H223144   4.664   2.047   8.688  0.6838 -1.5924 -0.5490
  529TIP3   OH223145   5.519   3.711   0.108  0.2382  0.2629 -0.8653
  529TIP3    H123146   5.544   3.798   0.139  0.8830  0.2510 -1.3208
  529TIP3    H223147   5.432   3.697   0.144  1.5852 -0.4748  2.4022
  530TIP3   OH223148   2.298   6.421   1.513 -0.3201 -0.1266  0.2733
  530TIP3    H123149   2.259   6.463   1.436  0.7210 -2.9550 -1.9943
  530TIP3    H223150   2.389   6.406   1.489  0.2706 -0.3261  2.4477
  531TIP3   OH223151   3.705   2.476   7.886 -0.1199  0.4264  0.2222
  531TIP3    H123152   3.696   2.466   7.981 -0.3105  0.7842  0.2443
  531TIP3    H223153   3.705   2.387   7.852  1.4080  0.2124  0.6903
  532TIP3   OH223154   3.520   0.969   0.131 -0.0392  0.6900  0.1132
  532TIP3    H123155   3.431   1.003   0.121  0.3261  1.4772 -0.5822
  532TIP3    H223156   3.508   0.882   0.168 -1.1113  0.6954 -0.1846
  533TIP3   OH223157   6.648   4.520   0.167 -0.3572  0.1423  0.4652
  533TIP3    H123158   6.623   4.464   0.240  0.4348  0.5745  1.0852
  533TIP3    H223159   6.628   4.609   0.198 -0.3782  0.2977  0.0035
  534TIP3   OH223160   6.237   1.487   1.507  0.3991  0.4149 -0.5164
  534TIP3    H123161   6.276   1.494   1.594 -1.1772  0.0553  0.2618
  534TIP3    H223162   6.151   1.529   1.516  0.4264  0.8751 -2.0635
  535TIP3   OH223163   3.115   1.220   1.700  0.0660  0.5166 -0.1934
  535TIP3    H123164   3.046   1.210   1.634 -1.4515 -0.2050  1.4368
  535TIP3    H223165   3.162   1.300   1.673 -1.6347  1.2579 -1.1277
  536TIP3   OH223166   5.009   3.062   8.089  0.4031  0.2448 -0.1144
  536TIP3    H123167   5.056   2.979   8.097 -1.7532 -1.1042 -0.7885
  536TIP3    H223168   4.944   3.047   8.021 -0.7339  2.1792  0.4584
  537TIP3   OH223169   6.677   5.551   1.312  0.6649  0.4298 -0.7225
  537TIP3    H123170   6.635   5.527   1.395 -0.5862  1.1425 -1.1126
  537TIP3    H223171   6.605   5.582   1.257  1.4347 -0.2292 -2.1640
  538TIP3   OH223172   0.153   1.509   7.276  0.3379  0.2602  0.5330
  538TIP3    H123173   0.245   1.483   7.283 -0.0053 -0.9825  0.7007
  538TIP3    H223174   0.155   1.604   7.283  1.6663  0.3014 -0.0694
  539TIP3   OH223175   6.573   0.544   2.277 -0.0040  0.3142 -0.2864
  539TIP3    H123176   6.610   0.519   2.362  1.3815 -0.9633 -1.2310
  539TIP3    H223177   6.492   0.492   2.271 -0.7017  1.2350  0.6943
  540TIP3   OH223178   1.227   2.515   7.181  0.2038 -0.4855  0.3470
  540TIP3    H123179   1.275   2.581   7.131 -0.0439 -0.6992 -0.1766
  540TIP3    H223180   1.229   2.547   7.271 -0.2769  0.4552  0.0344
  541TIP3   OH223181   1.910   2.153   7.142 -0.2824  0.9702  0.4692
  541TIP3    H123182   1.956   2.217   7.088  0.1331  0.1094 -0.2370
  541TIP3    H223183   1.892   2.199   7.224  1.1664  1.5906  0.4805
  542TIP3   OH223184   6.294   4.798   1.718 -0.0356 -0.6462  0.1656
  542TIP3    H123185   6.297   4.819   1.811 -0.3487  0.5686 -0.0794
  542TIP3    H223186   6.370   4.843   1.681 -0.3932 -0.4098 -0.2911
  543TIP3   OH223187   4.889   1.274   1.858 -0.2267  0.2723 -0.0139
  543TIP3    H123188   4.965   1.322   1.891  1.5045 -1.5581 -1.1569
  543TIP3    H223189   4.834   1.342   1.819  0.1512  1.8019  1.9509
  544TIP3   OH223190   6.270   1.852   7.820  0.6292 -0.0135 -0.4467
  544TIP3    H123191   6.288   1.880   7.909 -0.2503 -1.6237  0.2815
  544TIP3    H223192   6.181   1.881   7.802  0.5421 -0.3237 -0.5292
  545TIP3   OH223193   0.857   0.016   0.753  0.3743  0.0146  0.7367
  545TIP3    H123194   0.795   0.075   0.797  1.4347  1.2706  0.6166
  545TIP3    H223195   0.841  -0.069   0.792 -3.1580 -0.3043 -1.0465
  546TIP3   OH223196   4.796   1.868   1.006  0.0379 -0.2475 -0.6874
  546TIP3    H123197   4.776   1.932   1.075  0.1144 -0.1216 -0.7818
  546TIP3    H223198   4.712   1.828   0.985  0.0882 -0.6379 -0.1710
  547TIP3   OH223199   1.181   4.112   0.207  0.4055  0.0554 -0.3113
  547TIP3    H123200   1.110   4.083   0.150  0.3751 -0.1092 -0.1938
  547TIP3    H223201   1.257   4.120   0.149  0.1610  0.7627 -0.5334
  548TIP3   OH223202   3.796   1.620   7.528  0.9450 -0.6422  0.4876
  548TIP3    H123203   3.766   1.657   7.610  1.9396  0.1237  0.5257
  548TIP3    H223204   3.773   1.685   7.462 -0.4811 -1.5623  0.0324
  549TIP3   OH223205   6.379   1.063   7.541 -0.1259  0.0636 -0.0301
  549TIP3    H123206   6.368   1.102   7.627 -0.1148  0.4730 -0.2109
  549TIP3    H223207   6.474   1.068   7.524  0.4387 -3.2935  1.4530
  550TIP3   OH223208   1.411   5.591   8.269  0.5741  0.3913  0.4890
  550TIP3    H123209   1.334   5.648   8.259 -1.1789 -1.9093  0.0245
  550TIP3    H223210   1.485   5.649   8.253 -1.0780  2.5430  0.0378
  551TIP3   OH223211   2.411   5.077   7.721  0.0078  0.0112  0.0480
  551TIP3    H123212   2.377   5.000   7.767 -1.0422  0.3764 -0.0877
  551TIP3    H223213   2.498   5.051   7.692 -1.7346 -2.7183 -3.6092
  552TIP3   OH223214   5.384   1.518   1.702 -0.3611 -0.3810  0.3570
  552TIP3    H123215   5.434   1.442   1.674  1.5797  0.3699  1.6134
  552TIP3    H223216   5.360   1.562   1.620  0.2246 -1.2653 -0.3099
  553TIP3   OH223217   2.979   3.214   2.636 -1.0090 -0.4527  0.1648
  553TIP3    H123218   2.941   3.301   2.646  0.1925  0.4442 -2.2259
  553TIP3    H223219   2.907   3.154   2.655 -2.2051  1.0712  0.6758
  554TIP3   OH223220   1.836   6.243   1.166 -0.6372  0.3096 -0.0008
  554TIP3    H123221   1.896   6.312   1.194  0.1753  0.1436 -1.2597
  554TIP3    H223222   1.788   6.219   1.246  0.2784  1.1221  0.8218
  555TIP3   OH223223   4.432   0.619   6.943 -0.4049  0.1884 -0.1725
  555TIP3    H123224   4.491   0.682   6.902 -1.5198 -0.1735 -2.4847
  555TIP3    H223225   4.346   0.660   6.937 -0.7814 -0.4229  0.7767
  556TIP3   OH223226   4.313   6.427   2.239 -0.1674  0.6100 -0.7751
  556TIP3    H123227   4.217   6.432   2.241 -0.1599  1.1734  1.6280
  556TIP3    H223228   4.341   6.519   2.234  0.2889  0.4177 -2.1990
  557TIP3   OH223229   2.918   6.683   8.604  0.0523 -0.1114  0.6801
  557TIP3    H123230   2.875   6.755   8.650  0.4132  0.4118  0.2092
  557TIP3    H223231   2.889   6.604   8.651  0.1215  0.3794  1.5702
  558TIP3   OH223232   1.446   1.637   0.256 -0.0511  0.3493  0.0883
  558TIP3    H123233   1.405   1.709   0.209  0.3425  0.9228  0.5992
  558TIP3    H223234   1.506   1.680   0.318 -0.5038 -0.3710  1.0599
  559TIP3   OH223235   2.477   2.578   2.618 -0.0059  0.1946  0.4662
  559TIP3    H123236   2.446   2.591   2.708 -0.0701  0.5503  0.3919
  559TIP3    H223237   2.516   2.490   2.619  0.1861  0.2806  0.8954
  560TIP3   OH223238   4.581   2.933   8.174  0.2245  0.2745 -0.1838
  560TIP3    H123239   4.540   2.993   8.236  0.5578  1.8569 -1.4522
  560TIP3    H223240   4.513   2.867   8.158 -0.3819  0.6356  0.7561
  561TIP3   OH223241   6.182   5.436   0.102 -0.1620 -1.0329 -0.0658
  561TIP3    H123242   6.159   5.453   0.011 -0.3621 -1.2603 -0.0583
  561TIP3    H223243   6.183   5.340   0.109  2.0883 -1.0811 -0.4036
  562TIP3   OH223244   0.772   3.656   7.698 -0.0513  0.4515 -0.5237
  562TIP3    H123245   0.684   3.691   7.682 -0.5850 -0.2433  0.7566
  562TIP3    H223246   0.796   3.615   7.615 -0.7374  1.0436 -1.0352
  563TIP3   OH223247   0.471   5.643   3.167 -0.3359 -0.5461  0.1566
  563TIP3    H123248   0.402   5.704   3.192  1.2232  1.4370 -0.1971
  563TIP3    H223249   0.508   5.613   3.250  1.6503  2.3220  0.4502
  564TIP3   OH223250   6.662   5.828   8.350  0.2331  0.6596 -0.2559
  564TIP3    H123251   6.694   5.869   8.430 -0.2012  0.6279 -0.0677
  564TIP3    H223252   6.737   5.833   8.289  1.6033 -1.8729  1.0466
  565TIP3   OH223253   1.256   3.684   7.511 -0.2579 -0.2448  0.1684
  565TIP3    H123254   1.208   3.645   7.438 -0.3642 -0.3253  0.2808
  565TIP3    H223255   1.190   3.736   7.558 -0.1926 -0.2024  0.2129
  566TIP3   OH223256   2.645   4.941   7.010  0.0486 -0.1067  0.1333
  566TIP3    H123257   2.630   5.032   7.033 -0.1406  0.0970 -0.7550
  566TIP3    H223258   2.669   4.943   6.917 -0.2584 -0.9851  0.0220
  567TIP3   OH223259   4.724   6.011   7.936  0.0076 -0.2420 -0.2171
  567TIP3    H123260   4.648   6.054   7.897  0.1830  0.6604  0.3801
  567TIP3    H223261   4.771   6.083   7.980  0.8733 -0.8879 -0.0716
  568TIP3   OH223262   0.702   2.442   0.383  0.4411  0.1545 -0.2306
  568TIP3    H123263   0.628   2.400   0.339  0.4200  1.2190 -1.2539
  568TIP3    H223264   0.701   2.532   0.352  0.5604  0.9188  1.8238
  569TIP3   OH223265   6.473   5.045   7.328  0.0295  0.1300  0.4666
  569TIP3    H123266   6.491   4.994   7.407 -2.6442 -1.3743  0.2037
  569TIP3    H223267   6.424   5.121   7.360 -0.3665 -0.0728  0.3457
  570TIP3   OH223268   3.678   0.893   7.662  0.0449 -0.4158  0.2069
  570TIP3    H123269   3.639   0.807   7.678 -0.5838 -0.2129 -0.2242
  570TIP3    H223270   3.658   0.913   7.571 -0.9042  0.7356  0.6422
  571TIP3   OH223271   5.173   6.811   6.850 -0.1183 -0.3896  0.3319
  571TIP3    H123272   5.191   6.865   6.773  1.2914 -1.8761 -0.4400
  571TIP3    H223273   5.116   6.865   6.904  1.8732  2.2311  0.0229
  572TIP3   OH223274   1.338   2.321   8.036 -0.1640 -1.0964 -0.4630
  572TIP3    H123275   1.308   2.280   7.955 -1.5589 -1.3248  0.1557
  572TIP3    H223276   1.397   2.391   8.007 -0.1137 -1.6068 -1.6343
  573TIP3   OH223277   4.565   3.438   7.095 -0.3817 -0.5425  0.0770
  573TIP3    H123278   4.503   3.372   7.063 -0.6101 -1.0992  1.5808
  573TIP3    H223279   4.561   3.508   7.030 -2.5991 -0.5594  0.1113
  574TIP3   OH223280   5.012   3.313   0.491  0.2197  0.0105 -0.4465
  574TIP3    H123281   4.922   3.320   0.462  0.3080  0.8129 -0.5328
  574TIP3    H223282   5.056   3.265   0.420  0.7208  3.0490 -2.3613
  575TIP3   OH223283   2.741   6.845   0.087  0.1839  0.3498  0.7379
  575TIP3    H123284   2.756   6.935   0.116  2.8900 -0.3259  1.7224
  575TIP3    H223285   2.701   6.801   0.162  0.8536  0.2500  1.0468
  576TIP3   OH223286   0.253   4.351   1.002 -0.4836 -0.0231  0.1516
  576TIP3    H123287   0.211   4.426   1.042  1.6962  0.7290  1.1557
  576TIP3    H223288   0.192   4.322   0.934 -2.1722  1.5062  0.9662
  577TIP3   OH223289   0.564   4.358   1.178  0.2672 -0.4703 -0.7264
  577TIP3    H123290   0.578   4.452   1.184  0.7996 -0.5676 -0.3967
  577TIP3    H223291   0.469   4.348   1.176  0.1976  0.0482 -0.3085
  578TIP3   OH223292   3.376   5.215   1.298 -0.4126  0.1580  0.4585
  578TIP3    H123293   3.461   5.233   1.338 -0.0139 -0.1332 -0.2540
  578TIP3    H223294   3.318   5.282   1.334 -0.5472 -1.2225  3.0432
  579TIP3   OH223295   5.191   4.240   7.879 -0.0964  0.1072  0.0103
  579TIP3    H123296   5.251   4.214   7.948 -0.5392  2.4103  1.3705
  579TIP3    H223297   5.154   4.323   7.909 -0.5610  1.0607 -2.8552
  580TIP3   OH223298   2.425   5.686   8.651  0.3288 -0.3736 -0.3890
  580TIP3    H123299   2.387   5.625   8.714  0.3011  0.2442  0.2028
  580TIP3    H223300   2.377   5.671   8.570  0.5334 -1.3549 -0.3367
  581TIP3   OH223301   3.356   4.535   0.333 -0.3873  0.0459 -0.1876
  581TIP3    H123302   3.308   4.486   0.400 -0.4763  1.1946  0.6216
  581TIP3    H223303   3.446   4.506   0.342 -0.2130  0.9189  1.1497
  582TIP3   OH223304   3.866   0.626   2.200 -0.7455  0.4022  0.7785
  582TIP3    H123305   3.911   0.699   2.242  0.5654  0.3204 -0.3934
  582TIP3    H223306   3.911   0.548   2.232 -0.3791  0.2854  0.0048
  583TIP3   OH223307   2.957   2.379   2.234  0.2304 -0.0069 -0.0873
  583TIP3    H123308   2.966   2.474   2.246  1.8121 -0.2602  1.0418
  583TIP3    H223309   2.994   2.341   2.313 -0.0890 -1.5940 -0.6560
  584TIP3   OH223310   2.145   4.535   8.482  0.3766  0.2306  0.2733
  584TIP3    H123311   2.139   4.630   8.488 -1.5361  0.2023 -0.6706
  584TIP3    H223312   2.055   4.504   8.479  0.8782 -1.3632 -2.7300
  585TIP3   OH223313   1.982   0.208   1.844  0.0138  0.1327  0.8080
  585TIP3    H123314   2.026   0.130   1.880 -0.3605 -0.7141 -0.4929
  585TIP3    H223315   2.027   0.226   1.762 -2.7886 -1.6131 -1.3000
  586TIP3   OH223316   5.900   4.703   8.104  0.6857  0.2974 -1.0800
  586TIP3    H123317   5.926   4.712   8.196 -0.1387  0.4327 -0.8539
  586TIP3    H223318   5.919   4.612   8.082 -1.4564 -0.4926  0.0013
  587TIP3   OH223319   5.058   0.617   8.683  0.0332 -0.1404  0.7592
  587TIP3    H123320   5.123   0.547   8.684  0.3147  0.1165  0.5111
  587TIP3    H223321   5.069   0.661   8.768  3.2586  2.6901 -0.8538
  588TIP3   OH223322   1.598   6.328   1.821  0.7291 -0.0685  0.2680
  588TIP3    H123323   1.671   6.267   1.805  0.5964 -0.1910  0.1332
  588TIP3    H223324   1.595   6.336   1.916 -1.6671 -3.2585  0.6189
  589TIP3   OH223325   0.178   2.650   1.421  0.6103  0.2811  0.1123
  589TIP3    H123326   0.132   2.585   1.369  0.0312  1.0478 -0.3631
  589TIP3    H223327   0.156   2.630   1.511  1.4270 -0.9172  0.0739
  590TIP3   OH223328   0.584   1.400   8.522 -0.0038 -0.7289 -0.5722
  590TIP3    H123329   0.537   1.454   8.586  0.9803  0.8403 -1.1170
  590TIP3    H223330   0.518   1.336   8.493 -1.4933  0.6971 -0.5084
  591TIP3   OH223331   1.538   4.818   6.873 -0.4433 -0.2508  0.2272
  591TIP3    H123332   1.616   4.791   6.825 -0.8086  0.7055 -0.9534
  591TIP3    H223333   1.539   4.764   6.952  2.1735  0.7517  0.9690
  592TIP3   OH223334   0.287   2.782   0.750  0.0807  0.0957  0.1655
  592TIP3    H123335   0.263   2.694   0.721 -0.0713  0.0448  0.4393
  592TIP3    H223336   0.383   2.780   0.758  0.3657  0.6908 -2.2192
  593TIP3   OH223337   1.912   2.887   8.334  0.0895  0.2022  0.5511
  593TIP3    H123338   2.005   2.865   8.326  0.6268  2.6705 -1.6665
  593TIP3    H223339   1.905   2.928   8.420  1.4100  1.1201  0.2714
  594TIP3   OH223340   5.189   3.848   1.020  0.3201 -0.3677  0.3458
  594TIP3    H123341   5.275   3.824   1.054  0.4182 -0.1793  0.2330
  594TIP3    H223342   5.133   3.774   1.042  1.0889 -1.7492 -1.9362
  595TIP3   OH223343   4.097   3.652   1.393  0.3383  0.7139 -0.7197
  595TIP3    H123344   4.006   3.653   1.423  0.5906  0.4846  0.0527
  595TIP3    H223345   4.137   3.728   1.436  0.1711  1.6725 -2.1700
  596TIP3   OH223346   4.471   3.290   3.022 -0.4457  0.3760  0.5368
  596TIP3    H123347   4.561   3.261   3.038 -0.5615  0.6279  1.7275
  596TIP3    H223348   4.418   3.233   3.078 -1.1000 -0.1736 -0.6077
  597TIP3   OH223349   1.889   5.336   0.339  0.3542 -0.1341  0.4394
  597TIP3    H123350   1.799   5.360   0.317  1.0450  1.8217 -0.5308
  597TIP3    H223351   1.883   5.247   0.374 -1.9277 -0.0728  0.3327
  598TIP3   OH223352   3.105   2.078   0.749  0.1237 -0.3963 -0.3944
  598TIP3    H123353   3.015   2.093   0.721 -0.0612  1.5807  1.0641
  598TIP3    H223354   3.111   1.983   0.758 -1.1986 -0.7290 -2.3901
  599TIP3   OH223355   1.241   5.525   7.715 -0.0003 -0.1056  0.6503
  599TIP3    H123356   1.160   5.548   7.669  0.3661  2.5175  1.1131
  599TIP3    H223357   1.303   5.505   7.645 -0.3225  0.6442  0.1258
  600TIP3   OH223358   1.307   3.931   8.418  0.5023 -0.2027 -0.6349
  600TIP3    H123359   1.377   3.993   8.441 -0.4597  0.3436  0.9900
  600TIP3    H223360   1.310   3.865   8.488 -0.3944 -0.3420 -0.7144
  601TIP3   OH223361   5.408   6.303   2.883  0.0793 -0.0663  0.0039
  601TIP3    H123362   5.398   6.370   2.815  0.0526  0.7136  0.7685
  601TIP3    H223363   5.357   6.335   2.957  1.3062 -0.1824  0.9322
  602TIP3   OH223364   0.624   1.565   2.234  0.0460  0.2178 -0.1604
  602TIP3    H123365   0.560   1.616   2.283  1.0941  1.2766  0.1721
  602TIP3    H223366   0.625   1.480   2.277  0.4781  0.9174  1.2953
  603TIP3   OH223367   1.438   2.318   0.117  0.4328  0.1983 -0.3205
  603TIP3    H123368   1.452   2.409   0.091  1.0758  0.1534 -0.1403
  603TIP3    H223369   1.350   2.317   0.154  0.3735  0.7217 -0.4408
  604TIP3   OH223370   0.823   6.840   7.722 -0.7111 -0.9437  0.3757
  604TIP3    H123371   0.812   6.785   7.645  1.2758 -0.4250 -0.3335
  604TIP3    H223372   0.816   6.929   7.690 -1.4743 -0.7310  1.0930
  605TIP3   OH223373   1.856   3.643   1.087 -0.1434 -0.5855 -0.0675
  605TIP3    H123374   1.770   3.633   1.046  0.7789 -0.8403 -2.0805
  605TIP3    H223375   1.906   3.698   1.026  0.2953  2.0231  2.4320
  606TIP3   OH223376   3.379   6.486   7.882 -0.1894  0.1769 -0.5201
  606TIP3    H123377   3.303   6.508   7.829 -0.3220  0.6428 -0.1500
  606TIP3    H223378   3.451   6.478   7.819 -0.3800  0.5520 -0.7886
  607TIP3   OH223379   2.481   5.678   8.274 -0.6390 -0.3153 -0.5398
  607TIP3    H123380   2.416   5.679   8.344  1.1228  0.1251  1.1824
  607TIP3    H223381   2.516   5.768   8.272 -1.4497  0.0050 -2.8148
  608TIP3   OH223382   1.020   6.845   1.934  0.4159 -0.9901  0.0848
  608TIP3    H123383   1.059   6.925   1.898  0.7591 -0.9523  0.5208
  608TIP3    H223384   0.933   6.872   1.962 -0.1426 -1.1991 -1.3772
  609TIP3   OH223385   0.705   0.629   0.354  0.0735 -0.7987  0.2405
  609TIP3    H123386   0.727   0.651   0.445 -1.4269 -1.6443  0.8472
  609TIP3    H223387   0.768   0.679   0.302 -0.6635  1.8369  1.6555
  610TIP3   OH223388   0.927   5.658   2.182 -0.4264 -0.3007 -1.2045
  610TIP3    H123389   0.968   5.744   2.175 -0.8798  0.1161  0.7967
  610TIP3    H223390   0.844   5.673   2.227 -1.1984 -1.6082 -2.1149
  611TIP3   OH223391   2.945   6.697   7.737  0.2992  0.5930 -0.3733
  611TIP3    H123392   3.008   6.747   7.686 -0.6098  0.3448 -1.7979
  611TIP3    H223393   2.943   6.611   7.695 -1.2516  0.7138 -0.6191
  612TIP3   OH223394   5.160   5.801   1.213 -0.3247  0.4023  0.2637
  612TIP3    H123395   5.231   5.752   1.255  0.2913 -0.0988 -1.2823
  612TIP3    H223396   5.204   5.873   1.169 -0.6562 -0.2858 -1.2674
  613TIP3   OH223397   3.799   6.634   7.061  0.6211  0.3739 -0.4714
  613TIP3    H123398   3.866   6.611   7.125 -0.3443 -1.9645 -0.1798
  613TIP3    H223399   3.805   6.729   7.053  3.0541  0.3832  0.5094
  614TIP3   OH223400   5.969   0.405   8.129  0.3846 -0.4163  0.0384
  614TIP3    H123401   5.991   0.478   8.071  1.5191 -0.7141  0.0699
  614TIP3    H223402   5.983   0.327   8.076 -0.9699 -0.6272 -0.0421
  615TIP3   OH223403   4.023   1.822   7.561  0.0308  0.2470 -0.2879
  615TIP3    H123404   4.088   1.828   7.491  0.2817 -0.7923 -0.1514
  615TIP3    H223405   4.002   1.729   7.567  0.3719  0.2610  1.3561
  616TIP3   OH223406   4.212   5.647   2.578 -0.0685  0.3119  0.4699
  616TIP3    H123407   4.149   5.575   2.587 -0.2979  0.3124 -0.9956
  616TIP3    H223408   4.170   5.721   2.622 -0.5887  0.0177  0.4801
  617TIP3   OH223409   0.266   1.689   0.589  0.0641  0.2948  0.7164
  617TIP3    H123410   0.352   1.708   0.627  0.5241 -1.1997  0.4842
  617TIP3    H223411   0.207   1.752   0.630  1.4234  2.0260  0.1355
  618TIP3   OH223412   3.900   6.367   1.392  0.1483  0.7145  0.7428
  618TIP3    H123413   3.958   6.310   1.443  1.3719  1.5023  0.2660
  618TIP3    H223414   3.959   6.426   1.346 -0.9992  0.8184 -0.6428
  619TIP3   OH223415   0.254   5.633   2.754 -0.2604 -0.4244  0.0555
  619TIP3    H123416   0.170   5.678   2.767 -0.6276 -1.0338 -0.1670
  619TIP3    H223417   0.262   5.575   2.829 -0.5699 -1.1771 -0.4868
  620TIP3   OH223418   5.604   4.648   7.942 -0.5526  0.2552  0.3448
  620TIP3    H123419   5.648   4.731   7.963 -0.9133  0.0094  2.2808
  620TIP3    H223420   5.663   4.581   7.977 -1.2310 -0.1916  0.6460
  621TIP3   OH223421   0.548   5.735   0.386 -0.4939  0.1615 -0.4325
  621TIP3    H123422   0.614   5.794   0.349 -1.4622  2.0264  0.6694
  621TIP3    H223423   0.589   5.700   0.465 -1.1975  2.4218  1.0531
  622TIP3   OH223424   1.878   5.445   7.329 -0.3410  0.2673 -0.3814
  622TIP3    H123425   1.814   5.417   7.395 -0.0253 -0.8102 -0.5159
  622TIP3    H223426   1.835   5.428   7.245 -0.9958  2.2244 -0.5020
  623TIP3   OH223427   4.522   3.729   8.163 -0.1335 -0.3561  0.6307
  623TIP3    H123428   4.495   3.815   8.193  1.2200 -0.3974  2.1186
  623TIP3    H223429   4.612   3.741   8.133 -0.1593 -1.1169  0.2145
  624TIP3   OH223430   2.256   2.658   7.549 -0.0967  0.0982  0.4230
  624TIP3    H123431   2.235   2.589   7.486  0.2633  1.5242 -1.3470
  624TIP3    H223432   2.294   2.612   7.623  0.9558 -1.5613 -1.0594
  625TIP3   OH223433   1.434   5.982   7.922 -0.3989 -0.3824  0.4791
  625TIP3    H123434   1.496   5.909   7.926 -0.5256 -0.7683 -2.2889
  625TIP3    H223435   1.349   5.943   7.939 -0.4134 -0.8500 -0.5728
  626TIP3   OH223436   4.311   1.333   1.941 -0.0857 -0.4718 -0.0351
  626TIP3    H123437   4.227   1.287   1.938 -1.1215  1.3416 -0.7788
  626TIP3    H223438   4.333   1.337   2.034 -0.1240 -2.1457  0.0626
  627TIP3   OH223439   6.661   3.164   1.940  0.4270 -0.0399 -0.0524
  627TIP3    H123440   6.601   3.090   1.943 -0.6827  0.7956 -0.8543
  627TIP3    H223441   6.653   3.205   2.026  1.1551 -0.9058  0.4481
  628TIP3   OH223442   1.028   3.723   0.891  0.4495  0.0381  0.0964
  628TIP3    H123443   1.104   3.715   0.949  1.1836 -0.8219 -0.9411
  628TIP3    H223444   1.021   3.638   0.848 -0.7579  0.2923 -0.2654
  629TIP3   OH223445   5.321   4.908   2.375 -0.2525 -0.1280 -0.0072
  629TIP3    H123446   5.247   4.894   2.434  0.6764 -2.1610  0.7772
  629TIP3    H223447   5.397   4.875   2.424  0.9810  0.7160 -1.2786
  630TIP3   OH223448   1.375   6.779   1.714 -0.3708 -0.2641  0.3828
  630TIP3    H123449   1.359   6.685   1.719  2.2002 -0.8046  0.1291
  630TIP3    H223450   1.359   6.802   1.622 -0.4154 -0.5851  0.3094
  631TIP3   OH223451   6.431   3.942   2.393  0.3231 -0.2558 -0.6203
  631TIP3    H123452   6.516   3.960   2.435  0.4526 -0.3624 -0.8363
  631TIP3    H223453   6.369   3.940   2.466  0.3873  0.5406 -0.5279
  632TIP3   OH223454   5.658   1.263   8.361 -0.0392  1.2643 -0.0302
  632TIP3    H123455   5.724   1.239   8.425  1.2534 -2.1256 -2.3325
  632TIP3    H223456   5.576   1.229   8.396  0.3213  1.0884  0.6511
  633TIP3   OH223457   2.929   3.023   1.199 -0.4594 -0.0498 -0.1705
  633TIP3    H123458   2.858   3.012   1.262  0.7689 -0.1070  1.2698
  633TIP3    H223459   2.910   2.960   1.130 -1.8849  0.0550  0.1019
  634TIP3   OH223460   5.625   0.469   2.658 -0.2266 -0.5440 -0.1486
  634TIP3    H123461   5.692   0.436   2.717 -1.0527 -1.0414  0.5417
  634TIP3    H223462   5.630   0.564   2.666 -0.9400 -0.6220  1.4451
  635TIP3   OH223463   2.662   6.577   1.228  0.4946  0.0938 -1.0955
  635TIP3    H123464   2.712   6.517   1.282  0.7692  1.0596 -0.2438
  635TIP3    H223465   2.720   6.599   1.155  0.4377 -0.5620 -1.3426
  636TIP3   OH223466   4.137   3.941   8.201  0.8204  0.0105 -0.0297
  636TIP3    H123467   4.118   4.026   8.161 -1.5877 -0.4098  0.0786
  636TIP3    H223468   4.097   3.946   8.288  3.5298 -0.1019  1.3084
  637TIP3   OH223469   5.065   2.348   2.251 -0.0626  0.0179 -0.1860
  637TIP3    H123470   5.122   2.326   2.326 -0.9782 -1.5048  0.1007
  637TIP3    H223471   5.110   2.311   2.175 -0.3252 -0.6023 -0.0467
  638TIP3   OH223472   2.690   1.278   0.364  0.0438 -0.1623  0.3255
  638TIP3    H123473   2.784   1.269   0.351 -0.3768 -1.8360 -2.3826
  638TIP3    H223474   2.680   1.356   0.418  2.9672 -0.0387  0.8329
  639TIP3   OH223475   4.356   1.959   1.031  0.8693  0.4828  0.1124
  639TIP3    H123476   4.276   1.923   0.995  1.2451  0.7157 -0.9996
  639TIP3    H223477   4.327   2.024   1.095  0.1578  0.8957 -0.6149
  640TIP3   OH223478   6.706   6.416   1.081  0.3553  0.2662 -0.4806
  640TIP3    H123479   6.625   6.464   1.062  0.2525  0.4476  0.3818
  640TIP3    H223480   6.758   6.425   1.001 -0.7221 -0.3868 -1.2863
  641TIP3   OH223481   2.491   0.529   8.542  0.4513  0.1046  0.6298
  641TIP3    H123482   2.420   0.505   8.483 -0.6531 -0.6892  2.1981
  641TIP3    H223483   2.523   0.446   8.577  2.0661  0.4658  0.0940
  642TIP3   OH223484   5.082   1.952   1.991  0.1564 -0.2357 -0.9094
  642TIP3    H123485   5.040   1.895   1.927  1.1296  0.0175 -1.8067
  642TIP3    H223486   5.043   2.038   1.975  1.9402  0.3146 -2.7166
  643TIP3   OH223487   6.309   4.674   1.054 -0.4335  0.1581  0.7591
  643TIP3    H123488   6.225   4.635   1.031 -0.5520  0.6668  0.2966
  643TIP3    H223489   6.331   4.637   1.139 -0.6370 -0.7577  0.4272
  644TIP3   OH223490   1.890   2.561   0.412  0.0476 -0.2791 -0.4242
  644TIP3    H123491   1.890   2.553   0.508  0.9632 -0.6855 -0.4457
  644TIP3    H223492   1.798   2.577   0.389 -0.0911  0.5181  0.5729
  645TIP3   OH223493   4.566   1.742   0.970 -0.0923  0.8165 -0.3091
  645TIP3    H123494   4.507   1.775   1.038  0.8404 -0.0051  0.9362
  645TIP3    H223495   4.553   1.647   0.971  1.9431  0.4869  0.7287
  646TIP3   OH223496   2.067   4.791   8.122  0.3882  0.3279 -0.6486
  646TIP3    H123497   2.049   4.698   8.129 -1.9758  0.8557  2.8796
  646TIP3    H223498   2.030   4.816   8.037 -1.8136 -1.4980 -0.3376
  647TIP3   OH223499   0.283   5.008   7.984  0.4593  0.7709  0.4923
  647TIP3    H123500   0.360   4.984   7.932 -0.3847 -1.7195  0.2597
  647TIP3    H223501   0.208   4.983   7.930 -0.4703 -0.2418  2.1545
  648TIP3   OH223502   1.078   6.254   6.937  0.4951  0.1853 -0.2284
  648TIP3    H123503   1.062   6.296   7.022  0.2969 -1.0995  0.3847
  648TIP3    H223504   1.132   6.318   6.889  0.4780  0.9985  0.7924
  649TIP3   OH223505   0.177   5.443   1.053 -0.1364 -0.4564  0.1376
  649TIP3    H123506   0.167   5.527   1.007  0.3385  0.1367  1.0750
  649TIP3    H223507   0.270   5.440   1.076 -0.8137  0.7303  3.6813
  650TIP3   OH223508   4.642   3.404   8.077 -0.0412  0.0728  0.2486
  650TIP3    H123509   4.729   3.437   8.057  0.4143  0.8235  3.0612
  650TIP3    H223510   4.584   3.451   8.017  1.3183  0.7108 -0.6036
  651TIP3   OH223511   4.806   0.758   7.389 -0.3166  0.4274  0.3144
  651TIP3    H123512   4.873   0.826   7.396  0.9643 -0.7792 -0.0181
  651TIP3    H223513   4.752   0.786   7.314  1.0504  0.3697 -0.7289
  652TIP3   OH223514   5.786   1.271   8.119  0.1131 -0.0395  0.2183
  652TIP3    H123515   5.730   1.286   8.196  0.5625 -1.4684  0.8542
  652TIP3    H223516   5.725   1.264   8.046 -0.5723 -1.4988  0.8902
  653TIP3   OH223517   2.396   3.035   2.617 -0.9113 -0.0991  0.1029
  653TIP3    H123518   2.309   3.070   2.596 -0.7471  0.4362  0.2949
  653TIP3    H223519   2.422   3.082   2.695 -0.8839 -1.0136  0.6585
  654TIP3   OH223520   0.705   4.860   2.058 -0.1394  1.0437  0.4725
  654TIP3    H123521   0.797   4.861   2.082  0.8201 -2.4021 -2.1505
  654TIP3    H223522   0.663   4.808   2.126  0.8638 -1.2635 -0.5534
  655TIP3   OH223523   5.714   3.602   2.147  0.2361 -0.1731  0.2912
  655TIP3    H123524   5.783   3.613   2.213  0.4065 -1.1432  0.2863
  655TIP3    H223525   5.670   3.521   2.172 -0.6726  0.2411  0.0728
  656TIP3   OH223526   1.295   0.390   0.874 -0.2001  0.2884  0.2177
  656TIP3    H123527   1.202   0.373   0.891 -0.6702  2.6589  0.3244
  656TIP3    H223528   1.338   0.368   0.957 -0.8292  0.3834  0.5818
  657TIP3   OH223529   5.254   4.362   2.429  0.4993  0.1005  0.7721
  657TIP3    H123530   5.269   4.274   2.464  0.6531  0.0227  0.5105
  657TIP3    H223531   5.328   4.377   2.371  0.5346  0.4523  0.9091
  658TIP3   OH223532   1.594   1.720   0.808 -0.4334  0.3231 -0.2919
  658TIP3    H123533   1.670   1.670   0.779  0.1546  0.9256  0.1798
  658TIP3    H223534   1.557   1.668   0.879 -0.4717  0.0268 -0.5262
  659TIP3   OH223535   1.570   1.166   7.491  0.1178 -0.4095  0.5378
  659TIP3    H123536   1.478   1.188   7.477  0.9374  2.5871 -0.8957
  659TIP3    H223537   1.614   1.192   7.410  2.4295 -0.3970  1.7144
  660TIP3   OH223538   3.775   6.611   0.243 -0.8655  0.3651  0.2113
  660TIP3    H123539   3.803   6.700   0.224 -1.2780  0.7463  1.2957
  660TIP3    H223540   3.847   6.573   0.293 -0.8568  0.2164  0.0876
  661TIP3   OH223541   1.671   4.491   7.620  0.3698 -0.4458 -0.5689
  661TIP3    H123542   1.675   4.526   7.531 -0.9898 -0.8443 -0.8057
  661TIP3    H223543   1.707   4.561   7.675 -2.8608  1.7137 -0.9359
  662TIP3   OH223544   0.085   6.020   0.508  0.0706  0.1821  0.0896
  662TIP3    H123545   0.175   5.993   0.488  0.8938  2.0287  1.0957
  662TIP3    H223546   0.069   6.094   0.450 -0.0399  1.1564  1.3372
  663TIP3   OH223547   5.968   5.423   2.791 -0.0668 -0.3936  0.2025
  663TIP3    H123548   5.941   5.495   2.849  0.9632 -0.1311  0.3685
  663TIP3    H223549   5.886   5.380   2.767 -0.6562  0.5313  0.5064
  664TIP3   OH223550   6.472   0.893   8.391 -0.2967  0.2481 -0.2760
  664TIP3    H123551   6.386   0.923   8.362  0.7390  2.5039 -1.3029
  664TIP3    H223552   6.531   0.965   8.368  1.8697 -1.2030  0.4319
  665TIP3   OH223553   1.000   1.779   2.457 -0.1128 -1.1606  0.1849
  665TIP3    H123554   0.921   1.772   2.511 -1.2157  0.2051 -1.1364
  665TIP3    H223555   0.971   1.758   2.369  0.6166  0.7587 -0.5818
  666TIP3   OH223556   5.734   6.174   7.056 -0.0630 -0.1701  0.2029
  666TIP3    H123557   5.828   6.188   7.048  0.0558  0.7217  2.3403
  666TIP3    H223558   5.725   6.081   7.077  0.0873 -0.8523 -2.4525
  667TIP3   OH223559   1.053   3.555   8.437  0.1537 -0.5051 -0.2947
  667TIP3    H123560   1.099   3.483   8.479 -1.7353 -1.7999 -0.3173
  667TIP3    H223561   1.115   3.588   8.371  2.7274  0.8151  2.5620
  668TIP3   OH223562   6.527   4.795   7.519  0.1256  0.0665  0.0593
  668TIP3    H123563   6.557   4.778   7.430 -0.4444  2.9205 -0.8032
  668TIP3    H223564   6.599   4.766   7.575  0.8344 -1.0440 -1.3637
  669TIP3   OH223565   5.521   0.210   0.055  0.6071  0.4728  0.4307
  669TIP3    H123566   5.430   0.194   0.027  1.0681  1.3055 -1.7309
  669TIP3    H223567   5.517   0.205   0.151 -1.4115 -1.0554  0.3555
  670TIP3   OH223568   5.147   5.526   1.059 -0.1285 -0.0284 -0.5173
  670TIP3    H123569   5.144   5.592   1.129  2.6225 -1.0179  0.6721
  670TIP3    H223570   5.214   5.558   0.999  0.3290 -1.0965 -0.5969
  671TIP3   OH223571   5.986   5.540   7.595 -0.0810  0.0928 -0.5670
  671TIP3    H123572   5.912   5.598   7.576  0.4447  1.4416  1.2778
  671TIP3    H223573   6.063   5.594   7.577  0.4232  0.3607  2.1188
  672TIP3   OH223574   6.482   5.405   0.255  0.0277 -0.4382 -0.4832
  672TIP3    H123575   6.459   5.312   0.260  0.1615 -0.4768 -0.5857
  672TIP3    H223576   6.564   5.407   0.205 -0.8650 -0.1225 -2.0106
  673TIP3   OH223577   4.949   0.370   8.107 -0.5015 -0.2816 -0.0806
  673TIP3    H123578   4.874   0.316   8.084 -0.8992 -0.0531  0.6187
  673TIP3    H223579   4.937   0.389   8.200  0.4470 -0.2706  0.0500
  674TIP3   OH223580   2.800   1.751   7.283  0.1189 -0.0788 -0.5897
  674TIP3    H123581   2.746   1.709   7.216 -1.1860 -1.4441  1.2272
  674TIP3    H223582   2.890   1.739   7.253 -0.2585 -3.0466 -0.8440
  675TIP3   OH223583   2.465   3.907   8.478 -0.4217 -0.3195 -0.2622
  675TIP3    H123584   2.421   3.845   8.537 -0.6504 -0.6341 -0.7535
  675TIP3    H223585   2.510   3.851   8.415  1.3470 -0.0305  0.6658
  676TIP3   OH223586   1.646   4.796   1.688 -0.0789 -0.5714 -0.7655
  676TIP3    H123587   1.737   4.771   1.672 -0.4326 -0.8427 -2.5985
  676TIP3    H223588   1.650   4.857   1.761  1.7951  0.7213 -1.8675
  677TIP3   OH223589   4.898   5.040   1.123  0.6066  0.4003  0.1210
  677TIP3    H123590   4.852   5.107   1.174  0.2938  0.9345 -0.8410
  677TIP3    H223591   4.909   5.079   1.037 -0.6839 -1.2442 -0.8510
  678TIP3   OH223592   3.634   3.057   8.608  0.1807 -0.7018 -0.0866
  678TIP3    H123593   3.559   3.092   8.656  1.2915  0.3096  1.0037
  678TIP3    H223594   3.597   3.023   8.527 -1.6840 -1.8804  1.1737
  679TIP3   OH223595   2.617   4.585   6.870 -0.3892  0.0500  0.0667
  679TIP3    H123596   2.594   4.589   6.778  0.9106  2.9473 -0.2507
  679TIP3    H223597   2.712   4.581   6.872 -0.2812  1.6702  1.1924
  680TIP3   OH223598   4.253   2.360   7.754  0.0325 -0.2780 -0.2719
  680TIP3    H123599   4.254   2.405   7.669  0.1125 -1.5042 -0.9424
  680TIP3    H223600   4.161   2.359   7.780  0.1235  1.0180  0.1847
  681TIP3   OH223601   5.845   2.017   7.244  0.1156  0.7861 -0.2279
  681TIP3    H123602   5.877   1.930   7.224 -1.5485  0.1533 -0.3200
  681TIP3    H223603   5.890   2.042   7.325  1.2031  0.1972 -0.6365
  682TIP3   OH223604   3.123   4.304   7.187  0.0975 -0.6416  0.2853
  682TIP3    H123605   3.156   4.352   7.111 -1.8816  0.4706  0.0732
  682TIP3    H223606   3.066   4.237   7.150  0.8954 -1.5993  0.7213
  683TIP3   OH223607   0.074   0.854   0.859 -0.2422  0.2887 -0.3597
  683TIP3    H123608   0.027   0.885   0.936 -0.4171  0.3848 -0.5056
  683TIP3    H223609   0.012   0.865   0.787  0.8376  2.8779 -1.0249
  684TIP3   OH223610   0.774   2.761   0.530 -0.1052 -0.9241 -0.0757
  684TIP3    H123611   0.715   2.709   0.476 -1.8174  0.3178  0.5037
  684TIP3    H223612   0.822   2.815   0.468 -0.3233 -1.2061 -0.4919
  685TIP3   OH223613   3.311   6.698   1.511  0.5319  0.2633 -0.2054
  685TIP3    H123614   3.368   6.731   1.441 -0.3868 -1.8853 -2.0801
  685TIP3    H223615   3.225   6.734   1.489 -0.0911 -1.7073 -1.1981
  686TIP3   OH223616   3.582   5.251   7.778 -0.5265 -0.1895 -0.2774
  686TIP3    H123617   3.527   5.173   7.786 -1.4657  0.1619 -2.4453
  686TIP3    H223618   3.562   5.302   7.856 -2.5249 -0.5706 -0.4715
  687TIP3   OH223619   4.356   3.888   7.649  0.1004  0.2130  0.3942
  687TIP3    H123620   4.285   3.947   7.674  0.0868  0.6162 -0.5625
  687TIP3    H223621   4.406   3.877   7.730 -0.4020  0.8305  0.8066
  688TIP3   OH223622   6.324   3.281   1.253  0.6288  0.0304 -0.6769
  688TIP3    H123623   6.237   3.244   1.238 -0.1098  1.1849  0.5972
  688TIP3    H223624   6.383   3.219   1.211 -0.8088 -0.6666 -1.7662
  689TIP3   OH223625   0.420   2.549   1.774  0.1613  0.1406 -0.1210
  689TIP3    H123626   0.499   2.554   1.829  0.2488  0.8333 -0.2993
  689TIP3    H223627   0.429   2.466   1.727  1.8227  1.1134 -1.6568
  690TIP3   OH223628   4.687   1.509   0.159  0.1910 -0.0189  0.2764
  690TIP3    H123629   4.653   1.524   0.247 -1.3553  1.5586 -0.5248
  690TIP3    H223630   4.782   1.521   0.168 -0.1513  2.6215  1.3097
  691TIP3   OH223631   3.336   4.565   8.264 -0.0672  0.2487 -0.0238
  691TIP3    H123632   3.361   4.598   8.178 -0.1032  0.6620  0.1224
  691TIP3    H223633   3.283   4.635   8.303 -0.2257 -0.0198  0.2512
  692TIP3   OH223634   5.488   3.941   1.398  0.2046 -0.1670 -0.2171
  692TIP3    H123635   5.580   3.967   1.403  0.5910 -1.5240  0.0232
  692TIP3    H223636   5.490   3.848   1.377 -1.1433  0.0906 -1.6425
  693TIP3   OH223637   2.397   5.635   2.934  0.2440 -0.4208  0.2811
  693TIP3    H123638   2.439   5.623   3.019  1.8532 -1.2844 -0.5840
  693TIP3    H223639   2.470   5.653   2.874 -0.8774  0.4604 -0.8820
  694TIP3   OH223640   1.509   5.526   1.673 -0.4067 -0.3851  0.0251
  694TIP3    H123641   1.558   5.607   1.692 -0.0170 -0.1724 -1.7380
  694TIP3    H223642   1.433   5.531   1.730 -0.3639  1.2155  0.0085
  695TIP3   OH223643   0.406   6.708   2.568 -0.3628 -0.0973  0.0901
  695TIP3    H123644   0.477   6.700   2.631  0.6404 -0.7669 -1.0756
  695TIP3    H223645   0.399   6.621   2.528  0.1962  0.7348 -1.9088
  696TIP3   OH223646   4.956   5.645   8.412 -0.2788 -0.2511  0.3232
  696TIP3    H123647   5.034   5.598   8.384 -0.8127 -0.5692 -0.6979
  696TIP3    H223648   4.894   5.635   8.340 -1.2822 -0.0415  1.1137
  697TIP3   OH223649   0.738   3.162   2.378 -0.6394  0.4473  0.4862
  697TIP3    H123650   0.668   3.116   2.332 -1.4599  0.8223  1.3106
  697TIP3    H223651   0.712   3.158   2.470  0.3886  0.6720  0.7915
  698TIP3   OH223652   6.119   6.262   1.213  0.3459 -0.5003  0.4168
  698TIP3    H123653   6.173   6.187   1.238 -1.7245 -2.0569  0.4881
  698TIP3    H223654   6.030   6.226   1.208 -0.6014  1.8104 -0.2739
  699TIP3   OH223655   6.840   4.381   0.019 -0.2178 -0.1945  0.2478
  699TIP3    H123656   6.887   4.440  -0.039  1.7372 -1.6540  0.2230
  699TIP3    H223657   6.789   4.438   0.077 -2.0948  1.3290 -2.6565
  700TIP3   OH223658   0.567   2.566   7.752 -0.0304 -0.2963  0.2173
  700TIP3    H123659   0.563   2.657   7.783  0.2101 -0.0456 -0.4528
  700TIP3    H223660   0.484   2.528   7.780 -1.2923  0.8809 -1.6870
  701TIP3   OH223661   2.133   5.341   0.638  0.1356 -0.5091 -0.4693
  701TIP3    H123662   2.218   5.346   0.682  0.6400 -2.7814 -1.0591
  701TIP3    H223663   2.148   5.383   0.553 -0.1672  1.6582  0.4923
  702TIP3   OH223664   1.201   6.510   0.254 -0.1272 -0.0055 -0.5254
  702TIP3    H123665   1.281   6.525   0.306 -0.0005  2.6699 -1.3533
  702TIP3    H223666   1.225   6.535   0.165 -1.4682 -0.7243 -1.1152
  703TIP3   OH223667   1.987   1.498   0.925  0.0097 -0.2816  0.0580
  703TIP3    H123668   2.049   1.499   0.852 -0.7895  1.4765 -0.6539
  703TIP3    H223669   2.040   1.476   1.001  1.0735 -1.0359 -0.8764
  704TIP3   OH223670   4.516   3.287   7.378  0.4297  0.0181  0.3441
  704TIP3    H123671   4.488   3.267   7.289 -2.0742 -0.0640  1.0562
  704TIP3    H223672   4.438   3.325   7.419  1.0418 -1.3095  2.9253
  705TIP3   OH223673   4.364   1.749   0.539  0.5599  0.2797 -0.4820
  705TIP3    H123674   4.272   1.725   0.542 -0.4285  3.5106  2.0032
  705TIP3    H223675   4.373   1.803   0.460  0.6635 -0.9729 -1.3489
  706TIP3   OH223676   3.499   1.379   7.774  0.1103  0.2111  0.0821
  706TIP3    H123677   3.492   1.425   7.690 -1.5973 -1.4413 -0.7602
  706TIP3    H223678   3.409   1.352   7.793  0.3883  0.8447  2.6687
  707TIP3   OH223679   5.142   4.080   0.511  0.7568 -0.3064  0.2187
  707TIP3    H123680   5.188   4.083   0.427 -0.4262 -1.7879 -0.5459
  707TIP3    H223681   5.141   3.987   0.535 -4.1105 -0.9268 -1.2691
  708TIP3   OH223682   5.720   3.218   7.457 -0.1251 -0.4191 -0.6175
  708TIP3    H123683   5.788   3.165   7.415  1.6387  0.5572  0.8689
  708TIP3    H223684   5.677   3.263   7.385  0.2227 -1.6820 -1.6710
  709TIP3   OH223685   0.495   2.615   0.032 -0.0008  0.6271  0.0360
  709TIP3    H123686   0.400   2.605   0.033  0.1254 -0.6564  0.6267
  709TIP3    H223687   0.526   2.553  -0.033  0.5402 -0.1864  1.0390
  710TIP3   OH223688   2.713   1.002   1.938  0.1574  0.1183  0.1568
  710TIP3    H123689   2.711   0.947   2.016 -0.8443 -0.1433 -0.0373
  710TIP3    H223690   2.806   1.014   1.919  0.4002 -1.4006  0.2774
  711TIP3   OH223691   2.462   2.769   0.183 -0.4142 -0.0386  0.7057
  711TIP3    H123692   2.549   2.789   0.217 -0.4697  1.7120 -0.0816
  711TIP3    H223693   2.415   2.852   0.186 -2.3646 -1.1228  1.8999
  712TIP3   OH223694   2.278   3.429   1.327 -0.7177 -0.3137  0.2622
  712TIP3    H123695   2.188   3.438   1.298 -0.4930  0.5538 -0.1942
  712TIP3    H223696   2.319   3.513   1.308 -0.1248 -0.2661  1.5958
  713TIP3   OH223697   4.871   2.398   0.156 -0.5470 -0.6965  0.1616
  713TIP3    H123698   4.882   2.331   0.224  0.2839  0.9451  1.7211
  713TIP3    H223699   4.945   2.384   0.097 -0.2325 -1.0097  0.6195
  714TIP3   OH223700   5.781   0.080   1.061  0.0953  0.1476  0.2594
  714TIP3    H123701   5.694   0.120   1.061  0.7304  1.6539  1.1687
  714TIP3    H223702   5.831   0.131   0.997 -0.0298 -1.6400 -1.3463
  715TIP3   OH223703   5.048   6.697   0.433  0.5887  0.2988  0.0773
  715TIP3    H123704   4.997   6.620   0.458  0.5916 -0.3219 -1.6536
  715TIP3    H223705   5.000   6.734   0.359  2.2720  0.0627 -1.1925
  716TIP3   OH223706   2.267   6.206   8.363  0.0370 -0.1815 -1.1584
  716TIP3    H123707   2.212   6.205   8.442 -1.7008  1.6602 -2.2430
  716TIP3    H223708   2.287   6.299   8.349  0.5538 -0.5007 -2.6998
  717TIP3   OH223709   2.380   5.219   8.178  0.1591 -0.5659  0.1283
  717TIP3    H123710   2.319   5.286   8.208  1.4208  0.5189  0.3692
  717TIP3    H223711   2.335   5.136   8.194 -1.8613  0.2218 -1.1253
  718TIP3   OH223712   5.054   1.942   8.326 -0.1396  0.3152  0.0625
  718TIP3    H123713   5.000   1.926   8.249 -2.4997  0.1354  1.6562
  718TIP3    H223714   5.099   1.859   8.341  0.6495  0.4657 -1.2887
  719TIP3   OH223715   3.801   6.555   6.761  0.5418  0.2012  0.0058
  719TIP3    H123716   3.772   6.548   6.852 -1.5309 -2.3785 -0.7408
  719TIP3    H223717   3.772   6.641   6.732 -1.8317 -0.2614  0.8553
  720TIP3   OH223718   3.372   1.103   8.027 -1.0335 -0.2481  0.1673
  720TIP3    H123719   3.388   1.065   7.941 -1.3560 -0.5553  0.2444
  720TIP3    H223720   3.301   1.165   8.014 -1.7246 -0.9768  0.3920
  721TIP3   OH223721   5.020   1.948   7.701 -0.2604 -0.1187 -0.0969
  721TIP3    H123722   5.106   1.960   7.659  0.0789  1.7059  0.9621
  721TIP3    H223723   4.957   1.977   7.635  0.1479  1.1083  0.0172
  722TIP3   OH223724   1.313   0.308   2.414 -0.1043  0.9592  0.1415
  722TIP3    H123725   1.278   0.234   2.463 -0.1822 -0.0691 -1.3854
  722TIP3    H223726   1.261   0.383   2.443  0.2281  0.5039  1.9880
  723TIP3   OH223727   1.053   6.306   0.380 -0.6676 -0.0579 -0.4384
  723TIP3    H123728   1.091   6.382   0.336  0.7686 -1.1522 -1.1787
  723TIP3    H223729   1.005   6.343   0.454  0.5097  1.5280 -0.4066
  724TIP3   OH223730   4.405   5.871   3.145 -0.2173 -0.2055  0.0985
  724TIP3    H123731   4.335   5.816   3.110 -0.3862  1.0422 -1.6994
  724TIP3    H223732   4.460   5.811   3.195 -1.8615 -1.4517  0.5014
  725TIP3   OH223733   3.723   0.480   2.767 -0.5222 -0.7363 -0.0938
  725TIP3    H123734   3.740   0.558   2.821 -1.1288 -1.1086  0.6581
  725TIP3    H223735   3.753   0.407   2.821  0.3245 -1.0126 -0.9194
  726TIP3   OH223736   2.824   4.754   7.438  0.1509  0.0432 -0.5360
  726TIP3    H123737   2.845   4.671   7.479  0.3857  0.2774 -0.1761
  726TIP3    H223738   2.909   4.798   7.429 -0.0738  0.6309  0.1264
  727TIP3   OH223739   3.976   1.939   3.179  0.1320 -0.2932  0.7403
  727TIP3    H123740   3.961   1.886   3.101 -1.2102  0.1375  0.6865
  727TIP3    H223741   4.066   1.918   3.205 -0.2452 -2.3254  0.5371
  728TIP3   OH223742   6.002   4.546   8.483  0.3315 -0.4647  0.3490
  728TIP3    H123743   6.035   4.604   8.414  1.3011 -0.8486  0.4734
  728TIP3    H223744   6.067   4.553   8.553  0.6723 -2.0026  0.2095
  729TIP3   OH223745   0.578   1.204   0.558 -0.6053 -0.3114  0.3205
  729TIP3    H123746   0.537   1.209   0.644 -1.2977  0.7107 -0.0460
  729TIP3    H223747   0.509   1.234   0.497 -0.2521 -1.3671 -0.6267
  730TIP3   OH223748   5.440   1.033   8.195  0.2496 -0.5958 -0.3190
  730TIP3    H123749   5.485   1.057   8.276  2.4513  1.7401 -2.0718
  730TIP3    H223750   5.365   1.092   8.191  0.6571 -0.0759 -0.3979
  731TIP3   OH223751   2.696   6.679   1.568 -0.1866 -0.1382  0.0331
  731TIP3    H123752   2.643   6.611   1.610  0.7095 -1.1312 -0.3847
  731TIP3    H223753   2.786   6.655   1.590  0.1779  0.5519 -0.6727
  732TIP3   OH223754   0.966   5.507   1.648 -0.1468  0.5201  0.1749
  732TIP3    H123755   1.044   5.553   1.680  1.4518 -1.0839 -1.2512
  732TIP3    H223756   0.999   5.427   1.608 -2.6757 -1.0021  0.8912
  733TIP3   OH223757   1.839   3.440   1.771 -0.6594 -0.0688 -0.5248
  733TIP3    H123758   1.805   3.523   1.803  1.2026  0.1602  1.0938
  733TIP3    H223759   1.875   3.459   1.685 -1.6760  0.3883 -0.8658
  734TIP3   OH223760   1.788   1.625   7.583  0.3761 -0.1378 -0.3026
  734TIP3    H123761   1.726   1.696   7.566  0.9752  0.0619 -1.7955
  734TIP3    H223762   1.792   1.577   7.500  0.2280 -1.7459  0.5829
  735TIP3   OH223763   2.176   2.071   2.010 -0.5237 -0.4013  0.0611
  735TIP3    H123764   2.107   2.005   2.007 -1.9119  0.8831  1.7610
  735TIP3    H223765   2.141   2.141   2.066  1.8025  0.7266  0.2480
  736TIP3   OH223766   0.044   6.113   8.220 -0.0357 -0.3403 -0.1437
  736TIP3    H123767   0.049   6.025   8.183  1.3346 -0.1212 -0.5318
  736TIP3    H223768   0.035   6.099   8.314  1.6566 -0.9287 -0.0352
  737TIP3   OH223769   2.991   6.168   1.561 -0.5409 -0.3698 -0.5336
  737TIP3    H123770   3.030   6.181   1.474 -1.2443 -1.3643 -1.0154
  737TIP3    H223771   3.065   6.149   1.618 -0.0410  0.5558 -0.8483
  738TIP3   OH223772   2.944   1.490   2.426 -0.0939  0.1641 -0.1327
  738TIP3    H123773   3.021   1.462   2.476  0.2340  1.9963  0.4496
  738TIP3    H223774   2.876   1.504   2.492 -0.2200  0.8175 -0.3966
  739TIP3   OH223775   2.046   1.308   0.080  0.1794  0.2068 -0.0223
  739TIP3    H123776   1.964   1.287   0.037 -1.7789  2.0040  2.4808
  739TIP3    H223777   2.048   1.404   0.083  0.8443  0.1918  2.5298
  740TIP3   OH223778   3.716   6.549   1.957 -0.4603  0.0374 -0.3626
  740TIP3    H123779   3.735   6.557   2.051 -0.6067  0.8221 -0.3936
  740TIP3    H223780   3.657   6.474   1.951  0.1251 -0.4782  0.0878
  741TIP3   OH223781   2.432   6.098   2.230  0.0165 -0.1355  0.4275
  741TIP3    H123782   2.418   6.161   2.301 -0.9811  0.8084 -0.5706
  741TIP3    H223783   2.524   6.109   2.205 -0.1975  1.0902  0.1295
  742TIP3   OH223784   2.247   0.230   0.027 -0.5024 -0.4030 -0.4965
  742TIP3    H123785   2.154   0.250   0.039 -0.3816 -1.2652  2.8756
  742TIP3    H223786   2.291   0.275   0.099  1.3984 -1.9017 -0.6354
  743TIP3   OH223787   5.418   4.522   2.778 -0.4540 -0.1117  0.3615
  743TIP3    H123788   5.448   4.469   2.852 -0.7759 -0.1144  0.4900
  743TIP3    H223789   5.334   4.484   2.753 -0.3527 -0.1015  0.0029
  744TIP3   OH223790   0.380   2.763   8.311  0.3385  0.3201 -0.0754
  744TIP3    H123791   0.458   2.709   8.302  0.6372  0.5197  1.1643
  744TIP3    H223792   0.341   2.736   8.394  0.0292  1.4013  0.1521
  745TIP3   OH223793   3.954   0.041   1.883 -0.0763 -0.6682  0.0183
  745TIP3    H123794   3.885  -0.011   1.841 -1.4570 -0.3868  1.8238
  745TIP3    H223795   4.023  -0.022   1.903 -1.6068 -1.8772  1.9205
  746TIP3   OH223796   1.054   2.287   2.307  0.2628  0.9878  0.4368
  746TIP3    H123797   1.062   2.261   2.399 -2.9698 -1.5300  0.1830
  746TIP3    H223798   0.989   2.357   2.308 -0.5602  0.2412  0.0112
  747TIP3   OH223799   0.045   5.464   2.072  0.2344  0.0025 -0.0913
  747TIP3    H123800   0.117   5.521   2.046 -0.0524  1.0500  1.3001
  747TIP3    H223801   0.078   5.415   2.147 -0.1207 -0.3881 -0.1821
  748TIP3   OH223802   0.364   2.132   8.454  0.5460  0.7755  0.0030
  748TIP3    H123803   0.441   2.152   8.402  1.2181  1.2718  1.1538
  748TIP3    H223804   0.298   2.195   8.424  0.1443 -0.4276 -1.8389
  749TIP3   OH223805   3.575   5.171   8.243  0.7828  0.0447 -0.1099
  749TIP3    H123806   3.581   5.078   8.221 -0.5307 -0.3328  0.9748
  749TIP3    H223807   3.646   5.185   8.305  0.3578 -0.4966  0.5145
  750TIP3   OH223808   1.459   5.253   1.607  0.1003  0.1169  0.6742
  750TIP3    H123809   1.489   5.193   1.675 -1.0185 -0.2371  0.8724
  750TIP3    H223810   1.489   5.339   1.636  1.5559 -0.2974  0.4790
  751TIP3   OH223811   0.695   5.316   2.160  0.5858 -0.1963 -0.2260
  751TIP3    H123812   0.657   5.321   2.248 -1.7859  1.4499 -1.2170
  751TIP3    H223813   0.706   5.407   2.133  1.4118 -0.6613 -1.5819
  752TIP3   OH223814   4.510   3.936   3.088 -0.3391  0.2974 -0.2095
  752TIP3    H123815   4.439   3.920   3.149 -0.1444  0.8399  0.1715
  752TIP3    H223816   4.511   4.031   3.077 -0.4087  0.2026 -1.1037
  753TIP3   OH223817   4.702   2.436   6.999  1.0322 -0.2846  0.3699
  753TIP3    H123818   4.643   2.392   6.937 -0.4153  1.8598  0.1041
  753TIP3    H223819   4.776   2.463   6.945  0.2146  0.7502 -0.2728
  754TIP3   OH223820   2.499   4.000   7.697 -0.4753  0.4950 -0.3691
  754TIP3    H123821   2.425   3.948   7.729 -1.0446  0.5848 -1.5094
  754TIP3    H223822   2.550   4.020   7.776 -1.3506 -0.0545  0.3534
  755TIP3   OH223823   1.969   4.480   0.853  0.5294 -0.0822 -0.2711
  755TIP3    H123824   1.919   4.532   0.790  0.6871  0.4307  0.0239
  755TIP3    H223825   2.013   4.545   0.909 -0.4169 -0.5068  1.0190
  756TIP3   OH223826   6.203   3.300   8.077  0.4696  0.3684  0.2611
  756TIP3    H123827   6.149   3.378   8.063 -0.3437 -0.2280 -0.0176
  756TIP3    H223828   6.293   3.333   8.083  0.0819  1.3717  0.6556
  757TIP3   OH223829   4.808   4.815   1.273  0.0854  0.5117  0.3352
  757TIP3    H123830   4.833   4.732   1.233  0.3128  0.0720  1.3639
  757TIP3    H223831   4.824   4.880   1.205  0.4815 -0.2138 -0.2804
  758TIP3   OH223832   6.688   4.918   0.661 -0.1118  0.4679 -0.2329
  758TIP3    H123833   6.723   4.829   0.655 -1.0071  0.1004 -0.0928
  758TIP3    H223834   6.597   4.910   0.635 -0.1117  1.4174 -0.5895
  759TIP3   OH223835   2.488   0.548   0.888 -0.3345 -0.1312  0.5570
  759TIP3    H123836   2.567   0.502   0.918 -0.3298 -0.7100 -0.2845
  759TIP3    H223837   2.521   0.622   0.837 -0.3247 -0.2470  0.3913
  760TIP3   OH223838   3.409   0.112   0.126 -0.3085 -0.3402 -0.1703
  760TIP3    H123839   3.401   0.207   0.117 -2.8284 -0.5654 -1.2461
  760TIP3    H223840   3.452   0.083   0.046  0.4772 -0.1281  0.1660
  761TIP3   OH223841   5.823   0.375   7.737 -0.3970  0.2983  0.8197
  761TIP3    H123842   5.880   0.410   7.806 -0.1279 -1.8648  1.7942
  761TIP3    H223843   5.878   0.312   7.691 -1.7282 -1.2490  1.2638
  762TIP3   OH223844   1.788   1.460   1.279  0.3583  0.3650 -0.1138
  762TIP3    H123845   1.705   1.508   1.271 -0.8365 -1.8644 -2.6047
  762TIP3    H223846   1.854   1.519   1.243 -0.3705  1.5920  0.4923
  763TIP3   OH223847   6.421   0.624   0.098 -0.2696 -0.3944  0.5406
  763TIP3    H123848   6.441   0.534   0.122  1.8879 -0.2458 -0.4817
  763TIP3    H223849   6.498   0.654   0.050  0.8032  3.2158  3.9689
  764TIP3   OH223850   3.222   4.301   8.193  0.3826 -0.0246 -0.2385
  764TIP3    H123851   3.188   4.374   8.141  1.0628  0.7445  0.3524
  764TIP3    H223852   3.294   4.340   8.244 -0.4439 -0.6610  1.4883
  765TIP3   OH223853   1.416   6.077   0.391 -0.1700  0.0333  0.9126
  765TIP3    H123854   1.326   6.053   0.417 -0.8328  0.1033 -1.1733
  765TIP3    H223855   1.405   6.147   0.328  1.2943 -0.7575 -0.2887
  766TIP3   OH223856   0.781   1.044   0.430  0.1673 -0.0760  0.5146
  766TIP3    H123857   0.712   1.101   0.464  1.5746  2.8490 -1.1390
  766TIP3    H223858   0.841   1.033   0.503  1.1782  2.8874  0.2821
  767TIP3   OH223859   3.160   3.611   2.290  0.3063 -0.8189  0.0152
  767TIP3    H123860   3.246   3.595   2.328  0.7220 -0.3413 -0.6995
  767TIP3    H223861   3.119   3.675   2.349  0.9603 -0.0548 -0.3414
  768TIP3   OH223862   1.151   0.251   1.846 -0.3697 -0.1070 -0.1936
  768TIP3    H123863   1.225   0.265   1.905 -2.0100  2.8182  1.4257
  768TIP3    H223864   1.181   0.284   1.761  0.8049 -0.8355 -0.0735
  769TIP3   OH223865   3.782   4.495   7.633 -0.0940  0.4957  0.2543
  769TIP3    H123866   3.854   4.550   7.603 -0.8771  2.2069  1.3624
  769TIP3    H223867   3.821   4.408   7.643  2.1516  1.5824  1.9055
  770TIP3   OH223868   5.352   5.178   0.152  0.3435  0.0941 -0.2852
  770TIP3    H123869   5.269   5.149   0.188  0.5370  0.1382  0.2054
  770TIP3    H223870   5.384   5.243   0.214 -0.5345  2.0910 -1.8483
  771TIP3   OH223871   1.971   1.766   7.354 -0.0553  0.6870  0.4143
  771TIP3    H123872   1.893   1.744   7.302  0.6278  1.5428 -1.0431
  771TIP3    H223873   1.937   1.796   7.438 -1.3392  1.7834 -0.4652
  772TIP3   OH223874   4.370   5.990   0.456  0.4916  0.1350 -0.1145
  772TIP3    H123875   4.290   5.943   0.479  0.3105  0.0526 -0.8981
  772TIP3    H223876   4.425   5.982   0.534  0.4999 -1.4733 -0.2486
  773TIP3   OH223877   0.561   3.287   1.772 -0.2032 -0.3321 -0.0876
  773TIP3    H123878   0.479   3.251   1.805 -1.2630  0.7689 -1.3920
  773TIP3    H223879   0.558   3.380   1.798  0.1724 -0.0631 -0.9784
  774TIP3   OH223880   2.375   5.251   0.930 -0.1707  0.0542  0.3706
  774TIP3    H123881   2.367   5.341   0.961 -1.5014 -0.0832  0.4513
  774TIP3    H223882   2.341   5.198   1.001 -0.7020 -0.4298 -0.2342
  775TIP3   OH223883   6.449   1.307   1.490  0.2107 -0.1315  0.1426
  775TIP3    H123884   6.365   1.353   1.483  0.2663 -0.1195 -0.4530
  775TIP3    H223885   6.432   1.220   1.455  0.0802 -0.6172  1.3558
  776TIP3   OH223886   0.647   4.765   0.030 -0.5108  0.0514  0.4639
  776TIP3    H123887   0.651   4.676   0.066  0.1437  0.0377  0.3762
  776TIP3    H223888   0.715   4.812   0.077 -2.6984  1.3019  2.5719
  777TIP3   OH223889   3.208   5.434   0.220  0.2455  0.3837  0.0031
  777TIP3    H123890   3.144   5.505   0.215 -2.4593 -1.8270  0.2005
  777TIP3    H223891   3.197   5.386   0.138 -0.4814 -1.6369  1.2088
  778TIP3   OH223892   2.176   3.011   1.501  0.1028 -0.1225 -0.4478
  778TIP3    H123893   2.206   3.055   1.580 -0.7207  0.3291 -0.3741
  778TIP3    H223894   2.091   3.051   1.482  0.1091 -0.5052 -1.3359
  779TIP3   OH223895   0.268   2.942   0.288  0.0385 -0.1616  0.0553
  779TIP3    H123896   0.249   2.957   0.381  0.4837 -0.9272  0.2819
  779TIP3    H223897   0.239   3.022   0.245  1.7969  1.1403  1.1278
  780TIP3   OH223898   5.959   2.560   2.708 -0.2740 -0.0376 -0.5141
  780TIP3    H123899   5.890   2.606   2.757  1.0118  0.5983  0.7557
  780TIP3    H223900   5.956   2.470   2.740 -0.8783 -0.1711 -0.9060
  781TIP3   OH223901   3.717   3.749   1.171 -0.1390 -0.5988  0.4188
  781TIP3    H123902   3.650   3.794   1.222 -1.7513  0.6934 -2.6039
  781TIP3    H223903   3.797   3.798   1.187 -0.5521 -0.3097  1.7239
  782TIP3   OH223904   3.965   6.165   2.131  0.8743 -0.1500  0.5887
  782TIP3    H123905   3.920   6.189   2.051  1.2888  1.6077  0.8351
  782TIP3    H223906   4.004   6.080   2.112 -1.3983 -1.1293 -0.0628
  783TIP3   OH223907   4.062   0.728   1.780  0.1837  0.2350  0.4393
  783TIP3    H123908   3.975   0.725   1.819  0.7190  2.3070  1.9934
  783TIP3    H223909   4.062   0.807   1.726  0.2940 -1.2206 -1.8435
  784TIP3   OH223910   2.099   1.373   7.395  0.2207 -0.2137 -0.1103
  784TIP3    H123911   2.057   1.289   7.416  0.0735 -0.0164  0.3988
  784TIP3    H223912   2.029   1.426   7.357  0.4174 -0.4690 -0.8390
  785TIP3   OH223913   1.287   1.740   1.505  0.3229 -0.1719  0.2071
  785TIP3    H123914   1.311   1.792   1.582  0.4694 -0.9223  0.6825
  785TIP3    H223915   1.196   1.762   1.488  0.1995 -0.2259  0.7855
  786TIP3   OH223916   0.109   5.983   0.769 -0.0890 -0.4745  0.4421
  786TIP3    H123917   0.079   5.988   0.679  0.4040  2.0613  0.3420
  786TIP3    H223918   0.200   5.954   0.763 -0.1655 -0.6481  0.1432
  787TIP3   OH223919   1.089   4.397   2.830 -0.0230 -0.1108 -0.9616
  787TIP3    H123920   1.159   4.338   2.803 -0.0299 -0.0603 -1.0926
  787TIP3    H223921   1.009   4.347   2.817 -0.1058  0.2819 -2.0742
  788TIP3   OH223922   2.859   5.677   0.782  0.3596 -0.6399  0.2805
  788TIP3    H123923   2.948   5.655   0.752  0.8847 -0.1127  1.3962
  788TIP3    H223924   2.820   5.724   0.709  0.5199 -2.0040 -0.7298
  789TIP3   OH223925   2.909   4.610   1.003 -0.1449  0.0943 -0.5932
  789TIP3    H123926   2.905   4.662   1.083  2.0784  0.4935 -0.6584
  789TIP3    H223927   2.983   4.648   0.954 -0.7732 -0.8177 -2.3361
  790TIP3   OH223928   6.731   1.766   0.370  0.0432 -0.3074  0.5443
  790TIP3    H123929   6.657   1.781   0.312  0.4201  2.2921  0.6306
  790TIP3    H223930   6.782   1.697   0.326 -0.1815  0.9036 -1.7701
  791TIP3   OH223931   1.129   5.220   8.537  0.7539  0.2529  0.5718
  791TIP3    H123932   1.041   5.184   8.529 -0.1524  2.4002  0.2558
  791TIP3    H223933   1.167   5.211   8.449  0.5051  0.2008  0.4689
  792TIP3   OH223934   2.409   2.563   7.754 -0.1392 -0.3030  0.2179
  792TIP3    H123935   2.475   2.525   7.696  1.4691 -0.5888  2.0881
  792TIP3    H223936   2.384   2.490   7.811  0.8726  0.6750  2.0210
  793TIP3   OH223937   5.423   4.304   2.231  0.2220  0.2433  0.1527
  793TIP3    H123938   5.511   4.338   2.245  0.8151 -1.7476  1.7916
  793TIP3    H223939   5.428   4.260   2.146 -0.0375  2.4540 -1.0768
  794TIP3   OH223940   2.156   1.806   1.789 -0.4397  0.4374  0.2513
  794TIP3    H123941   2.077   1.788   1.737 -0.7030 -2.2594  1.4268
  794TIP3    H223942   2.123   1.852   1.867 -0.5145  1.2812 -0.2618
  795TIP3   OH223943   3.274   4.303   0.120  0.1711 -0.5156 -0.3796
  795TIP3    H123944   3.304   4.242   0.188 -0.3885 -0.0454  0.3022
  795TIP3    H223945   3.281   4.389   0.160 -1.0178 -0.3065 -0.5926
  796TIP3   OH223946   1.191   2.436   1.335  0.4479  0.0009  0.1499
  796TIP3    H123947   1.103   2.442   1.299  0.1603  0.6129  0.9295
  796TIP3    H223948   1.203   2.518   1.383 -0.2014 -1.8130  3.7091
  797TIP3   OH223949   1.930   6.823   0.014 -0.2836 -0.4266 -0.0381
  797TIP3    H123950   1.910   6.859   0.101  0.5700  0.4948 -0.1986
  797TIP3    H223951   1.845   6.805  -0.024 -0.6881 -0.3040  0.7802
  798TIP3   OH223952   2.110   2.797   7.814 -0.0485  0.0631 -0.0175
  798TIP3    H123953   2.150   2.770   7.731  1.9008  0.2343  0.8219
  798TIP3    H223954   2.063   2.719   7.844 -1.9516  0.3962 -1.8918
  799TIP3   OH223955   2.664   0.180   1.614  0.1135  0.0954  0.4510
  799TIP3    H123956   2.654   0.254   1.674  0.5345 -0.1974  0.8844
  799TIP3    H223957   2.708   0.112   1.666  2.1695  0.4761 -0.6936
  800TIP3   OH223958   5.428   6.524   8.491  0.2562 -0.1272  0.6717
  800TIP3    H123959   5.409   6.582   8.417 -0.1626 -0.0374  0.8479
  800TIP3    H223960   5.344   6.483   8.511  0.3403 -0.0510  1.1855
  801TIP3   OH223961   2.459   0.893   0.639 -0.0110 -0.0968  0.1723
  801TIP3    H123962   2.364   0.892   0.643 -0.0067  1.2291  1.4461
  801TIP3    H223963   2.483   0.981   0.667  1.6449 -0.8502  1.2824
  802TIP3   OH223964   0.280   5.438   2.388 -0.9913 -0.0122 -0.3617
  802TIP3    H123965   0.226   5.364   2.362 -0.9836 -0.3377  0.5118
  802TIP3    H223966   0.351   5.399   2.438 -1.1704  0.6096  0.3917
  803TIP3   OH223967   1.725   6.022   7.855 -0.4664  0.0814 -0.5327
  803TIP3    H123968   1.708   6.066   7.939 -1.8899 -0.9556 -0.2510
  803TIP3    H223969   1.782   5.949   7.878  1.3868  1.3407 -0.9115
  804TIP3   OH223970   6.805   2.621   0.741 -0.1698 -0.0490  0.7511
  804TIP3    H123971   6.743   2.602   0.670  0.8980  1.8586 -0.8008
  804TIP3    H223972   6.882   2.568   0.722  0.5394  1.2731 -0.2001
  805TIP3   OH223973   6.616   0.696   1.679  0.0110 -0.0186  0.2079
  805TIP3    H123974   6.575   0.765   1.731  1.5046  1.0733 -0.0096
  805TIP3    H223975   6.607   0.727   1.589  0.1221 -0.4306  0.0570
  806TIP3   OH223976   0.682   1.156   7.343  0.0748 -0.8570 -0.2537
  806TIP3    H123977   0.679   1.171   7.437 -0.9515  0.5461 -0.4671
  806TIP3    H223978   0.671   1.062   7.332  2.0228 -1.2923  1.0697
  807TIP3   OH223979   1.170   6.681   8.495  0.1649 -0.2093  0.3130
  807TIP3    H123980   1.174   6.625   8.418  1.7344 -0.8553  0.8242
  807TIP3    H223981   1.209   6.763   8.467  1.9875 -0.8901  0.7394
  808TIP3   OH223982   4.976   3.453   0.133  0.0450 -0.4387 -0.2984
  808TIP3    H123983   5.010   3.447   0.044 -0.4486  0.3615 -0.5568
  808TIP3    H223984   5.031   3.519   0.176  0.5379 -1.1070  0.1235
  809TIP3   OH223985   6.576   5.817   7.003  0.2513  0.5415  0.0262
  809TIP3    H123986   6.560   5.723   7.013 -0.9007  0.4264 -2.2242
  809TIP3    H223987   6.516   5.858   7.065  0.7286 -0.1920  0.9957
  810TIP3   OH223988   3.315   5.836   1.819  0.1009 -0.1762 -0.5891
  810TIP3    H123989   3.387   5.861   1.761 -1.3334  1.7569 -1.6482
  810TIP3    H223990   3.305   5.741   1.805 -0.3665  0.2332 -3.8016
  811TIP3   OH223991   5.276   4.406   8.423  0.0218  0.1118 -0.3501
  811TIP3    H123992   5.348   4.461   8.456  0.5288 -1.2296  0.8802
  811TIP3    H223993   5.200   4.464   8.424  0.6240  0.9235  0.5254
  812TIP3   OH223994   0.211   5.300   1.891 -0.6951  0.4369  0.2084
  812TIP3    H123995   0.148   5.351   1.943  0.0086  1.5317  0.0104
  812TIP3    H223996   0.289   5.297   1.946 -0.9328 -1.0468  0.5151
  813TIP3   OH223997   1.358   5.190   2.389  0.0099  0.4815  0.0682
  813TIP3    H123998   1.274   5.160   2.424  0.3952 -0.5269  0.1328
  813TIP3    H223999   1.424   5.153   2.447  0.5630  0.3145 -0.6452
  814TIP3   OH224000   3.759   4.696   8.205  0.0615 -0.3694 -0.1994
  814TIP3    H124001   3.848   4.696   8.171 -0.2312 -0.6201 -0.9766
  814TIP3    H224002   3.757   4.620   8.264  1.6187  2.0538  3.3122
  815TIP3   OH224003   1.463   0.731   8.610 -0.1556 -0.1521  0.0486
  815TIP3    H124004   1.376   0.725   8.649 -0.3752  1.8500 -0.0150
  815TIP3    H224005   1.512   0.790   8.668  1.8367 -2.6971  1.1618
  816TIP3   OH224006   5.898   5.573   1.061  0.3643 -0.3933 -0.3066
  816TIP3    H124007   5.873   5.489   1.099 -0.6168  0.1193  0.2076
  816TIP3    H224008   5.931   5.551   0.974 -0.8935 -1.2195 -0.5973
  817TIP3   OH224009   1.609   1.415   7.177 -0.2487 -0.5344 -0.3309
  817TIP3    H124010   1.671   1.429   7.106 -1.0738 -0.9742 -1.1483
  817TIP3    H224011   1.627   1.326   7.207 -0.3172 -0.5686 -0.3929
  818TIP3   OH224012   2.431   3.335   7.372  0.0567 -0.0501  1.0029
  818TIP3    H124013   2.498   3.270   7.351  0.8595  0.5337  1.6519
  818TIP3    H224014   2.370   3.333   7.298 -0.0495 -1.6657  1.0963
  819TIP3   OH224015   3.718   6.237   0.802  0.1250 -0.1712  0.1434
  819TIP3    H124016   3.703   6.165   0.864 -0.8891  0.2950  0.4672
  819TIP3    H224017   3.787   6.289   0.842  1.6739 -1.5436 -0.6302
  820TIP3   OH224018   3.206   0.982   7.578 -0.2767  0.3847 -0.0217
  820TIP3    H124019   3.133   1.023   7.531 -0.9359 -2.1635 -1.4388
  820TIP3    H224020   3.213   0.895   7.539  2.1624 -0.2329  1.5729
  821TIP3   OH224021   3.369   6.351   0.663  0.1508 -0.1892 -0.4990
  821TIP3    H124022   3.407   6.267   0.640 -0.4677 -0.5826 -0.0938
  821TIP3    H224023   3.276   6.342   0.644  0.1877  0.6449 -1.1415
  822TIP3   OH224024   0.622   2.513   1.391  0.1102 -0.5056  0.1842
  822TIP3    H124025   0.540   2.513   1.341 -0.1633  0.0599  0.6155
  822TIP3    H224026   0.689   2.537   1.327 -0.4529  1.8388  0.3895
  823TIP3   OH224027   1.112   3.328   8.640 -0.4243 -0.4449 -0.2094
  823TIP3    H124028   1.201   3.363   8.652 -0.8303  0.6994 -0.3787
  823TIP3    H224029   1.103   3.262   8.708  0.9028 -1.2846 -0.8118
  824TIP3   OH224030   1.872   3.776   0.833 -0.3447 -0.0042 -0.3357
  824TIP3    H124031   1.941   3.775   0.767 -2.0517  1.0109 -2.2703
  824TIP3    H224032   1.887   3.857   0.882 -0.0803  0.1447 -0.6540
  825TIP3   OH224033   4.734   2.046   0.729  0.8278  0.4144  0.2831
  825TIP3    H124034   4.739   1.951   0.728 -0.0324  0.3226  1.8146
  825TIP3    H224035   4.824   2.075   0.746  0.8573 -0.1887  1.2145
  826TIP3   OH224036   2.471   3.503   2.334  0.4669 -0.0787 -0.2364
  826TIP3    H124037   2.389   3.527   2.377  0.4846 -0.8371  0.2382
  826TIP3    H224038   2.471   3.553   2.252  0.5217  1.5359  0.7016
  827TIP3   OH224039   6.713   5.645   2.049 -0.0940 -0.6417  0.4452
  827TIP3    H124040   6.780   5.579   2.066 -0.2524 -1.4687 -1.8029
  827TIP3    H224041   6.759   5.714   2.000 -0.5814 -0.5951  0.0401
  828TIP3   OH224042   3.107   1.806   0.767  0.5540 -0.0929 -1.0172
  828TIP3    H124043   3.105   1.746   0.842  1.9758 -1.5117 -2.0386
  828TIP3    H224044   3.049   1.766   0.703 -0.9615  1.3190 -0.5703
  829TIP3   OH224045   4.999   3.427   1.429 -0.3564 -1.0912  0.0438
  829TIP3    H124046   4.948   3.461   1.503  0.3442 -1.9226  0.9412
  829TIP3    H224047   4.934   3.409   1.361 -0.9243  0.4125  0.1594
  830TIP3   OH224048   4.349   2.716   2.417 -0.0445 -0.0879  0.5965
  830TIP3    H124049   4.256   2.690   2.416  0.0751 -0.5151 -0.0455
  830TIP3    H224050   4.358   2.767   2.498 -1.8216  3.5268 -1.2500
  831TIP3   OH224051   5.744   5.715   2.044  0.2956  0.2501 -0.3542
  831TIP3    H124052   5.714   5.735   2.133 -0.1726  0.3748 -0.5373
  831TIP3    H224053   5.780   5.627   2.050 -0.8301 -0.2227 -0.2968
  832TIP3   OH224054   0.903   3.798   2.763  0.2881 -0.6059 -0.2087
  832TIP3    H124055   0.993   3.797   2.794  0.4689  1.3850 -0.5911
  832TIP3    H224056   0.888   3.887   2.733 -0.9155 -1.5666 -2.8055
  833TIP3   OH224057   6.045   4.684   0.348  0.0597 -0.2910  0.4302
  833TIP3    H124058   6.053   4.615   0.415 -0.8531 -1.1280 -0.3037
  833TIP3    H224059   6.026   4.637   0.267  0.5626  0.7565 -0.3196
  834TIP3   OH224060   3.067   5.772   2.637 -0.0007 -0.2846  0.0388
  834TIP3    H124061   3.035   5.862   2.636 -0.0315 -0.2649  1.5397
  834TIP3    H224062   2.988   5.718   2.630  0.1228 -0.2692 -3.2325
  835TIP3   OH224063   0.420   0.626   8.397  0.5798 -0.8851  0.8041
  835TIP3    H124064   0.509   0.618   8.362 -0.1316 -1.6453 -0.9628
  835TIP3    H224065   0.419   0.710   8.443  1.3008  0.8630 -2.1201
  836TIP3   OH224066   5.990   4.109   1.554  0.4943 -0.1013  0.0475
  836TIP3    H124067   6.056   4.178   1.559 -0.3169  0.6331  1.5433
  836TIP3    H224068   5.907   4.156   1.546 -0.1544 -0.8198  1.9460
  837TIP3   OH224069   2.153   5.152   2.097 -0.5741  0.1269  0.9732
  837TIP3    H124070   2.142   5.080   2.159  1.0502 -1.6233 -0.6137
  837TIP3    H224071   2.068   5.160   2.054 -1.3142  0.4481  2.4430
  838TIP3   OH224072   2.533   4.240   7.847  0.8106 -0.0983 -0.1189
  838TIP3    H124073   2.460   4.278   7.896  0.2181 -0.0704 -0.9986
  838TIP3    H224074   2.563   4.311   7.790  1.9002  0.0644  0.6105
  839TIP3   OH224075   6.070   2.604   1.510  0.1048 -0.1124 -0.1739
  839TIP3    H124076   6.004   2.537   1.496  0.9543 -1.3155  1.3157
  839TIP3    H224077   6.025   2.686   1.490 -1.7246 -0.9180  0.4443
  840TIP3   OH224078   1.476   4.118   7.816 -0.3346  0.0602 -0.2375
  840TIP3    H124079   1.396   4.086   7.858  0.0752 -0.5906  0.0543
  840TIP3    H224080   1.478   4.211   7.838  0.4901 -0.4722  2.2727
  841TIP3   OH224081   3.311   4.183   7.845 -0.2499 -0.2261 -0.3090
  841TIP3    H124082   3.320   4.122   7.918  1.6469  1.0203  0.5531
  841TIP3    H224083   3.219   4.174   7.818 -0.3035 -2.6577  0.4473
  842TIP3   OH224084   0.660   2.846   1.430 -0.0522  0.1783 -0.8212
  842TIP3    H124085   0.631   2.923   1.478  1.8944 -0.0755  0.8355
  842TIP3    H224086   0.643   2.773   1.489 -1.7873 -0.7358 -2.3333
  843TIP3   OH224087   6.834   6.766   0.499  0.3863 -0.0694  0.1887
  843TIP3    H124088   6.888   6.799   0.427 -0.6293 -0.8196 -0.9639
  843TIP3    H224089   6.830   6.838   0.561  2.9589 -0.1025  0.4733
  844TIP3   OH224090   5.372   4.214   0.589 -0.4313  0.9544 -0.2863
  844TIP3    H124091   5.402   4.177   0.673  0.4315  0.6214 -0.7238
  844TIP3    H224092   5.277   4.207   0.593 -0.3372 -1.7972 -0.5173
  845TIP3   OH224093   5.508   3.665   6.857  0.4201  0.9132  0.0525
  845TIP3    H124094   5.425   3.682   6.900  0.8173 -0.2959  1.3598
  845TIP3    H224095   5.522   3.571   6.868  1.8173  1.0478 -0.4065
  846TIP3   OH224096   4.360   5.798   7.334  0.0262 -0.3391 -0.3196
  846TIP3    H124097   4.394   5.879   7.373  0.4699 -0.5940 -0.1742
  846TIP3    H224098   4.293   5.828   7.272 -1.5817  0.0287  1.4911
  847TIP3   OH224099   3.467   1.183   0.826 -0.0486 -0.2564 -0.1844
  847TIP3    H124100   3.416   1.103   0.833 -1.7000  0.8606  1.8898
  847TIP3    H224101   3.465   1.220   0.915 -1.1448  3.1091 -1.4555
  848TIP3   OH224102   1.006   0.381   3.144 -0.0403 -0.2227 -0.1803
  848TIP3    H124103   0.957   0.299   3.141 -1.0703  0.3799 -2.5229
  848TIP3    H224104   1.058   0.380   3.063 -1.0271  1.9540 -0.9050
  849TIP3   OH224105   3.299   6.096   2.463  0.6328 -0.1546  0.6338
  849TIP3    H124106   3.237   6.109   2.391  0.2404 -0.6210  0.8849
  849TIP3    H224107   3.296   6.178   2.512 -0.1077 -0.3276  0.8867
  850TIP3   OH224108   4.773   5.218   1.266  0.2150 -1.1863 -0.2405
  850TIP3    H124109   4.746   5.193   1.354  0.1987 -0.0224  0.0971
  850TIP3    H224110   4.768   5.313   1.265  3.0109 -0.9600 -0.5792
  851TIP3   OH224111   3.506   2.649   2.245  0.4374  0.8317  0.6625
  851TIP3    H124112   3.471   2.658   2.334  0.6765  2.2622  0.6345
  851TIP3    H224113   3.431   2.660   2.188  0.7491  3.0713  0.6253
  852TIP3   OH224114   1.489   2.992   6.894  0.0073  0.2019 -0.1460
  852TIP3    H124115   1.532   2.907   6.899 -0.4367  0.0275  1.3705
  852TIP3    H224116   1.555   3.055   6.924  0.5659  0.5307 -1.9179
  853TIP3   OH224117   4.681   5.988   8.247 -0.0558  0.1227 -0.0230
  853TIP3    H124118   4.720   5.972   8.161 -0.6518  2.7047 -0.8555
  853TIP3    H224119   4.751   6.030   8.298 -0.4457  0.8774 -0.1012
  854TIP3   OH224120   2.204   4.375   2.198  0.3925  0.3756 -0.0558
  854TIP3    H124121   2.239   4.452   2.243  1.0288 -0.0213  0.1549
  854TIP3    H224122   2.227   4.302   2.256  2.2059 -0.2892 -1.5021
  855TIP3   OH224123   4.815   2.395   2.678 -0.0661  0.7681 -1.0061
  855TIP3    H124124   4.846   2.308   2.652 -1.0672  0.3086 -0.7005
  855TIP3    H224125   4.779   2.382   2.766 -3.3332  0.7288 -2.2351
  856TIP3   OH224126   5.947   0.459   7.201  0.6182  0.3249 -0.1208
  856TIP3    H124127   5.978   0.370   7.189  0.4218  0.4810 -1.9995
  856TIP3    H224128   5.979   0.507   7.125 -2.8888  0.8297 -1.4548
  857TIP3   OH224129   4.360   1.284   1.091  0.1622 -0.5367  0.0979
  857TIP3    H124130   4.412   1.206   1.110 -0.9988 -1.0979  1.1045
  857TIP3    H224131   4.281   1.251   1.048  0.4211  0.2599 -1.0360
  858TIP3   OH224132   0.846   1.362   8.426  0.1503  0.0027 -0.1112
  858TIP3    H124133   0.896   1.376   8.506 -0.6590  1.2695  0.1912
  858TIP3    H224134   0.756   1.350   8.455 -0.0907  0.0775 -0.8054
  859TIP3   OH224135   2.823   4.047   7.322 -0.1260  0.0816  0.1893
  859TIP3    H124136   2.831   4.126   7.376 -2.5948 -0.0807  0.8966
  859TIP3    H224137   2.855   4.074   7.236  1.7685  0.9845  1.0954
  860TIP3   OH224138   5.437   4.673   1.582  0.5532  0.4351 -0.0172
  860TIP3    H124139   5.421   4.580   1.568  0.4612  0.1572  1.6868
  860TIP3    H224140   5.518   4.691   1.535  0.5538 -0.5045 -0.3915
  861TIP3   OH224141   2.335   5.493   1.072 -0.3908 -0.5418 -0.0795
  861TIP3    H124142   2.273   5.556   1.034 -0.6611 -1.9722 -2.2375
  861TIP3    H224143   2.404   5.546   1.111  0.1349  1.1770 -3.0472
  862TIP3   OH224144   4.512   0.015   6.947  0.2429 -0.1911 -0.2913
  862TIP3    H124145   4.418   0.027   6.934  0.1371  0.3306  0.9013
  862TIP3    H224146   4.520  -0.075   6.980 -0.0973  0.5137  1.8625
  863TIP3   OH224147   0.018   3.762   2.618 -0.0008  0.0237  0.3590
  863TIP3    H124148   0.111   3.780   2.606 -0.2599  1.2025 -0.0173
  863TIP3    H224149   0.015   3.677   2.662  1.3137  0.7225  1.9206
  864TIP3   OH224150   0.571   2.829   1.115 -0.3057  0.1612 -0.4039
  864TIP3    H124151   0.498   2.778   1.149 -1.7770  2.3208 -0.0856
  864TIP3    H224152   0.642   2.816   1.178 -0.6534 -1.3501 -0.2956
  865TIP3   OH224153   3.523   5.498   1.420  0.2692  0.1283  0.4338
  865TIP3    H124154   3.598   5.438   1.417 -0.0080 -0.2098 -1.6529
  865TIP3    H224155   3.561   5.582   1.446  1.4303 -0.0098 -0.7127
  866TIP3   OH224156   3.075   6.238   2.315 -0.0222 -0.7657 -0.4071
  866TIP3    H124157   3.125   6.262   2.237  0.3230  0.2214  0.0954
  866TIP3    H224158   3.103   6.301   2.381 -2.1768  0.0201 -0.1826
  867TIP3   OH224159   4.929   3.156   1.523  0.1478 -0.2866  0.3220
  867TIP3    H124160   4.887   3.139   1.439  0.4932 -0.9471  0.2779
  867TIP3    H224161   4.967   3.243   1.513  2.0290 -1.1767 -0.9966
  868TIP3   OH224162   0.955   2.967   1.752 -0.8826 -0.4205 -0.2517
  868TIP3    H124163   0.891   3.000   1.815 -2.4234 -3.3246 -0.1071
  868TIP3    H224164   1.040   2.987   1.791 -1.7446  0.7714  1.1124
  869TIP3   OH224165   5.164   4.422   1.774  0.2148  0.1670  0.0806
  869TIP3    H124166   5.221   4.417   1.851  0.2945 -0.1853 -0.0016
  869TIP3    H224167   5.154   4.516   1.759 -1.7274  0.3299  1.9324
  870TIP3   OH224168   2.565   2.014   0.721 -0.1805 -0.0641  0.3531
  870TIP3    H124169   2.594   1.928   0.689 -0.8309 -0.3653  0.5364
  870TIP3    H224170   2.493   1.993   0.781  0.1670  0.5674  1.0091
  871TIP3   OH224171   0.876   2.485   2.346  0.1589 -1.0175  0.0503
  871TIP3    H124172   0.784   2.465   2.333 -0.2926  0.3745  0.9074
  871TIP3    H224173   0.877   2.551   2.415  1.6648  0.3650 -1.2047
  872TIP3   OH224174   0.309   4.912   0.851  0.2163  0.2276 -0.3805
  872TIP3    H124175   0.366   4.847   0.892  0.2380  0.2141 -0.4324
  872TIP3    H224176   0.252   4.861   0.793  0.2340  0.2543 -0.4222
  873TIP3   OH224177   4.825   0.814   1.282 -0.0911  0.7815  0.0013
  873TIP3    H124178   4.785   0.819   1.195 -1.1481 -2.8173  0.1153
  873TIP3    H224179   4.910   0.773   1.268  0.2572  1.2969  0.5501
  874TIP3   OH224180   6.646   0.508   2.556  0.2798  0.3669  0.1710
  874TIP3    H124181   6.730   0.463   2.565  0.0270 -0.1548 -0.0507
  874TIP3    H224182   6.663   0.596   2.590  1.6007  1.1289 -2.2603
  875TIP3   OH224183   6.491   3.048   1.594  0.3659  0.5327  0.0636
  875TIP3    H124184   6.553   3.031   1.523 -0.0548  2.0772 -0.7085
  875TIP3    H224185   6.515   3.135   1.626 -1.4515  1.2004 -0.3037
  876TIP3   OH224186   6.592   6.214   8.578 -0.1880 -0.1556 -0.1123
  876TIP3    H124187   6.648   6.261   8.639  0.7695  1.1958 -1.9262
  876TIP3    H224188   6.505   6.252   8.591  0.1697  0.6872 -0.1135
  877TIP3   OH224189   1.390   1.699   8.567 -0.1092  0.0945  0.2608
  877TIP3    H124190   1.350   1.616   8.593  2.0728 -1.1772 -0.2497
  877TIP3    H224191   1.448   1.677   8.494 -0.5950  2.3424 -0.9147
  878TIP3   OH224192   4.705   3.419   1.910  0.2807  0.3690 -0.4245
  878TIP3    H124193   4.611   3.423   1.890 -0.2856  0.2216  1.9357
  878TIP3    H224194   4.725   3.506   1.946  0.2847 -0.5252  1.8999
  879TIP3   OH224195   1.681   5.624   2.520 -0.1687  0.2380 -0.3947
  879TIP3    H124196   1.666   5.596   2.430 -1.2504  0.4430 -0.3015
  879TIP3    H224197   1.729   5.552   2.560 -2.1111 -1.1534 -0.4086
  880TIP3   OH224198   5.210   3.219   1.661 -0.9216 -0.0248 -0.0334
  880TIP3    H124199   5.265   3.152   1.702 -1.3503 -0.8316 -0.7456
  880TIP3    H224200   5.271   3.273   1.612 -0.8961 -2.4774 -3.0150
  881TIP3   OH224201   0.193   2.331   7.255  0.7476 -0.6022 -0.3412
  881TIP3    H124202   0.114   2.299   7.300  2.2002 -1.5885  1.6459
  881TIP3    H224203   0.247   2.366   7.325  0.8132  3.0421 -2.0029
  882TIP3   OH224204   2.888   3.502   8.624  0.0602 -0.3849  0.1039
  882TIP3    H124205   2.803   3.476   8.661 -0.0756  1.4596  1.2263
  882TIP3    H224206   2.889   3.598   8.634  2.1116 -0.3420 -0.2638
  883TIP3   OH224207   6.367   0.495   7.487 -0.0053  0.2579 -0.2550
  883TIP3    H124208   6.418   0.436   7.431  1.7144 -0.3287  1.7942
  883TIP3    H224209   6.393   0.583   7.459 -0.2987  0.0049 -1.3442
  884TIP3   OH224210   5.919   3.953   2.354 -0.2595  0.1498 -0.7262
  884TIP3    H124211   5.995   3.937   2.299 -1.7272 -1.1430 -2.4758
  884TIP3    H224212   5.889   4.041   2.330 -0.6046 -0.2163 -1.6580
  885TIP3   OH224213   5.196   2.058   0.095  0.6109 -0.6503 -0.1072
  885TIP3    H124214   5.202   2.153   0.085  0.5545 -0.5040  1.1355
  885TIP3    H224215   5.120   2.033   0.042  0.2951  0.0746 -0.0038
  886TIP3   OH224216   5.462   5.716   2.427  0.0877  0.3535  0.1747
  886TIP3    H124217   5.495   5.629   2.449 -0.9374  0.1724  1.0635
  886TIP3    H224218   5.470   5.767   2.508  0.5042  1.0391 -0.2827
  887TIP3   OH224219   5.172   0.564   7.760 -0.6609  0.0786 -0.3301
  887TIP3    H124220   5.229   0.641   7.769 -0.3115 -0.3019  0.9555
  887TIP3    H224221   5.135   0.572   7.672 -0.0956  1.3460 -0.4826
  888TIP3   OH224222   0.392   2.443   8.120 -0.1275 -0.3875  0.1165
  888TIP3    H124223   0.466   2.504   8.123  0.6503 -1.2673 -0.2991
  888TIP3    H224224   0.364   2.444   8.028 -1.9277  1.3922  0.6353
  889TIP3   OH224225   0.393   6.489   2.344 -0.4219 -0.3373  0.6638
  889TIP3    H124226   0.367   6.526   2.260 -1.4926  1.3048  1.6574
  889TIP3    H224227   0.443   6.411   2.321 -0.9464 -0.1166 -1.4768
  890TIP3   OH224228   6.467   0.114   1.351  0.0289  0.1014 -0.0537
  890TIP3    H124229   6.533   0.052   1.382 -0.1436  0.3038  0.7629
  890TIP3    H224230   6.505   0.155   1.274  2.6070  3.0460  2.4832
  891TIP3   OH224231   1.650   2.148   8.130  0.6802  0.6911 -0.0302
  891TIP3    H124232   1.654   2.061   8.090  1.7816  1.1528 -0.9857
  891TIP3    H224233   1.676   2.208   8.060 -1.0361  1.9031  0.3142
  892TIP3   OH224234   4.707   2.062   0.424  0.2507 -0.1270 -0.2459
  892TIP3    H124235   4.770   2.134   0.428  0.0943  0.0720 -1.1494
  892TIP3    H224236   4.691   2.039   0.516  0.6582  0.6723  0.0338
  893TIP3   OH224237   5.843   2.032   1.483 -0.3143 -0.0674  0.3406
  893TIP3    H124238   5.791   2.104   1.519 -0.6596 -0.7971  1.3429
  893TIP3    H224239   5.826   2.035   1.389 -0.4094  1.0894  0.3840
  894TIP3   OH224240   0.333   1.241   7.573 -0.1248 -0.4391  0.5154
  894TIP3    H124241   0.346   1.335   7.586  1.6497 -0.5473 -0.1423
  894TIP3    H224242   0.321   1.206   7.661  0.4382  0.2592  0.8817
  895TIP3   OH224243   0.008   5.720   2.810  0.4999  0.6867 -0.3782
  895TIP3    H124244  -0.068   5.694   2.863  0.3342  1.5884 -0.1590
  895TIP3    H224245  -0.005   5.813   2.794  0.0681  0.2741 -2.8176
  896TIP3   OH224246   4.842   3.420   0.888 -0.2971  1.0237 -0.3244
  896TIP3    H124247   4.891   3.365   0.827  0.8873  2.9749 -1.2144
  896TIP3    H224248   4.753   3.421   0.853 -0.8535 -1.7429  0.7513
  897TIP3   OH224249   2.157   4.210   7.771 -0.0053 -0.2183  0.1718
  897TIP3    H124250   2.209   4.183   7.695  2.7112 -3.1270  2.7967
  897TIP3    H224251   2.080   4.153   7.769  0.3117 -0.6370 -0.1239
  898TIP3   OH224252   0.522   1.235   2.271  0.2576  0.5482 -0.0010
  898TIP3    H124253   0.486   1.256   2.185  0.1910  1.3841  0.2197
  898TIP3    H224254   0.492   1.145   2.288 -0.1839  0.5711 -0.6106
  899TIP3   OH224255   3.654   0.419   2.363  0.2531 -0.0528 -0.0463
  899TIP3    H124256   3.747   0.430   2.345  0.6358  0.5349  1.9960
  899TIP3    H224257   3.639   0.324   2.358  1.0285 -0.1769 -0.1231
  900TIP3   OH224258   0.500   5.324   2.481 -0.7749  0.3928  0.2054
  900TIP3    H124259   0.547   5.333   2.564  2.1085  1.0621 -1.3343
  900TIP3    H224260   0.513   5.232   2.456 -2.9517 -0.2160  1.1426
  901TIP3   OH224261   2.656   1.730   2.105 -0.5491  0.8939 -0.1410
  901TIP3    H124262   2.688   1.784   2.033  1.6832 -0.7209 -0.4619
  901TIP3    H224263   2.733   1.714   2.159 -1.5541 -0.4113  0.9641
  902TIP3   OH224264   5.655   3.908   0.712  0.5378 -0.4550  0.3273
  902TIP3    H124265   5.657   3.916   0.616  2.5632  0.0355  0.3631
  902TIP3    H224266   5.584   3.966   0.739  1.1659  0.9082 -0.7900
  903TIP3   OH224267   5.096   5.019   8.293 -0.6199  0.5308 -0.0817
  903TIP3    H124268   5.013   5.025   8.341 -0.3610 -2.6035  0.9997
  903TIP3    H224269   5.087   4.939   8.240  2.4027 -1.2217  1.7573
  904TIP3   OH224270   1.628   3.486   0.120  0.3191  0.0277 -0.2933
  904TIP3    H124271   1.622   3.460   0.212 -1.7722  1.6275  0.0856
  904TIP3    H224272   1.566   3.429   0.074 -1.1565  1.4419 -0.1261
  905TIP3   OH224273   1.598   1.176   1.379 -0.8366  0.1900  0.2002
  905TIP3    H124274   1.558   1.096   1.413 -1.0300 -0.1589 -0.8168
  905TIP3    H224275   1.555   1.247   1.427 -1.5675 -0.2586  0.2135
  906TIP3   OH224276   4.502   2.857   7.913 -0.5403  0.1762  0.0081
  906TIP3    H124277   4.539   2.938   7.947 -0.0791  0.1469 -0.4050
  906TIP3    H224278   4.536   2.789   7.972  1.8123 -0.1119 -1.5235
  907TIP3   OH224279   2.536   5.477   8.096 -0.8362 -0.8852 -0.4823
  907TIP3    H124280   2.516   5.527   8.175 -1.1025 -0.7399 -0.6395
  907TIP3    H224281   2.593   5.406   8.126  1.6394  0.9127 -0.5979
  908TIP3   OH224282   6.596   0.416   0.137 -0.1971 -0.2760 -0.9883
  908TIP3    H124283   6.615   0.429   0.044  0.3805  0.8531 -0.7289
  908TIP3    H224284   6.679   0.434   0.181 -0.5191 -0.6130 -0.2266
  909TIP3   OH224285   5.731   5.613   8.518 -0.3755  0.1201  0.2306
  909TIP3    H124286   5.708   5.661   8.597  1.5235 -0.1813  1.0242
  909TIP3    H224287   5.726   5.679   8.448  0.8055  1.1530  1.0805
  910TIP3   OH224288   2.435   6.679   8.284  0.1851 -0.6298 -0.0441
  910TIP3    H124289   2.498   6.674   8.212  0.3978 -1.9858  0.2185
  910TIP3    H224290   2.483   6.720   8.356  0.3938 -0.5552 -0.2255
  911TIP3   OH224291   3.834   4.728   1.309 -0.4861  0.1324  0.0590
  911TIP3    H124292   3.825   4.696   1.219 -0.4294 -0.4635  0.2676
  911TIP3    H224293   3.835   4.824   1.300 -3.9267  0.2520 -0.2799
  912TIP3   OH224294   3.776   6.110   1.608 -0.0194  0.3688  0.5735
  912TIP3    H124295   3.725   6.177   1.654  0.0594 -0.1496  1.4287
  912TIP3    H224296   3.866   6.143   1.612  0.0155  0.2319  0.9706
  913TIP3   OH224297   2.604   5.199   2.241  0.5902 -0.4143 -0.0845
  913TIP3    H124298   2.519   5.233   2.269 -0.3170 -1.4693 -1.4563
  913TIP3    H224299   2.642   5.161   2.321 -0.7448 -0.9676  0.3152
  914TIP3   OH224300   6.232   2.604   0.028 -0.1034  0.4762  0.2373
  914TIP3    H124301   6.178   2.637  -0.044 -0.3301  0.4230  0.3825
  914TIP3    H224302   6.244   2.511   0.008  0.4889  0.6313 -0.1422
  915TIP3   OH224303   1.526   3.467   1.969 -0.4376  0.2574  0.6452
  915TIP3    H124304   1.598   3.522   1.938 -0.2202  0.3746  1.3232
  915TIP3    H224305   1.477   3.524   2.029 -0.9894  0.1235  0.3277
  916TIP3   OH224306   5.158   1.423   7.451  0.3747  0.3190  0.2768
  916TIP3    H124307   5.131   1.349   7.397  2.4654 -0.2020 -0.1441
  916TIP3    H224308   5.100   1.494   7.426  0.1637 -0.4045 -1.3921
  917TIP3   OH224309   2.479   0.198   0.965 -0.6213  0.3092  0.3642
  917TIP3    H124310   2.481   0.155   1.050  1.5955 -0.2200  0.0820
  917TIP3    H224311   2.534   0.276   0.975  1.2951 -0.7872 -1.0688
  918TIP3   OH224312   2.442   5.995   8.411 -0.2086 -0.0380  0.3158
  918TIP3    H124313   2.535   6.019   8.419 -0.0856 -0.4989  0.2798
  918TIP3    H224314   2.396   6.079   8.415  0.1560  0.1342  1.1729
  919TIP3   OH224315   6.010   3.898   0.122 -0.4963 -0.3850  0.4206
  919TIP3    H124316   6.001   3.988   0.153 -2.7155 -0.6822  0.7680
  919TIP3    H224317   5.987   3.902   0.029 -0.9756 -0.6554  0.5268
  920TIP3   OH224318   0.022   2.588   7.934 -0.0676  0.0378 -0.2169
  920TIP3    H124319  -0.002   2.631   8.016  1.0268 -2.7275  1.6997
  920TIP3    H224320  -0.055   2.538   7.909  0.0723 -0.2461 -0.0819
  921TIP3   OH224321   5.850   0.739   0.448  0.5364 -0.2453  0.0833
  921TIP3    H124322   5.920   0.797   0.418  1.6045 -0.5856  1.7922
  921TIP3    H224323   5.883   0.700   0.529 -1.0387 -1.5699  0.1583
  922TIP3   OH224324   3.716   4.918   2.022 -0.2296  0.1367 -0.1393
  922TIP3    H124325   3.670   4.878   1.948  0.4015 -0.4334 -0.2303
  922TIP3    H224326   3.801   4.945   1.985  0.5257 -1.1165  0.6060
  923TIP3   OH224327   0.607   3.259   0.051 -0.0567 -0.0696  0.1973
  923TIP3    H124328   0.523   3.264   0.097 -1.2700  2.4305 -1.9823
  923TIP3    H224329   0.626   3.350   0.028  1.4054 -0.9714 -2.5061
  924TIP3   OH224330   4.218   4.358   7.931 -1.0956  0.3675  0.1563
  924TIP3    H124331   4.302   4.317   7.911  0.0725  1.7171  1.9985
  924TIP3    H224332   4.229   4.450   7.905 -2.1505  0.4900  0.0914
  925TIP3   OH224333   5.541   1.942   0.873  0.0662  0.7339 -0.8110
  925TIP3    H124334   5.502   1.860   0.842  0.0437 -0.1497  1.3737
  925TIP3    H224335   5.487   2.010   0.833 -2.0234 -0.4082 -0.0876
  926TIP3   OH224336   4.261   3.587   0.374 -0.5968 -0.6335 -0.3747
  926TIP3    H124337   4.200   3.559   0.442 -0.2705  1.1695  0.7096
  926TIP3    H224338   4.219   3.660   0.331 -0.2673 -0.9807 -1.3172
  927TIP3   OH224339   3.302   4.697   1.897  0.2072 -0.1844 -0.1348
  927TIP3    H124340   3.224   4.644   1.881  1.2583 -1.1950 -2.3680
  927TIP3    H224341   3.373   4.633   1.905  1.1751  0.7757 -0.7185
  928TIP3   OH224342   4.563   2.359   7.449  0.1105 -0.1819 -0.1989
  928TIP3    H124343   4.596   2.447   7.468 -0.9662  0.2466 -0.2317
  928TIP3    H224344   4.626   2.322   7.388  0.5069  0.6253 -0.2885
  929TIP3   OH224345   3.767   4.272   7.849 -0.1496 -0.1810  0.0175
  929TIP3    H124346   3.738   4.231   7.767 -0.7171  0.9230 -0.3451
  929TIP3    H224347   3.687   4.288   7.898  0.0360  0.7155  0.0439
  930TIP3   OH224348   1.819   5.620   0.704 -0.1743  0.1204 -0.3313
  930TIP3    H124349   1.841   5.573   0.785  1.4655 -0.2628 -0.9670
  930TIP3    H224350   1.864   5.704   0.713  1.9539 -0.7951 -1.7955
  931TIP3   OH224351   6.193   0.809   1.679 -0.8195 -0.0173 -0.0445
  931TIP3    H124352   6.121   0.746   1.681  0.7771 -1.9228  0.4440
  931TIP3    H224353   6.233   0.802   1.765  1.3376 -0.7333 -1.0488
  932TIP3   OH224354   3.386   6.657   8.666  0.2279  0.1631  0.3302
  932TIP3    H124355   3.470   6.703   8.661  0.7002 -0.7534 -0.4206
  932TIP3    H224356   3.355   6.652   8.576 -0.2391 -0.2346  0.5032
  933TIP3   OH224357   5.228   6.110   8.119 -0.4487 -0.7542 -0.2476
  933TIP3    H124358   5.165   6.048   8.157 -0.5949 -1.0149 -0.9003
  933TIP3    H224359   5.312   6.085   8.157 -0.7255 -0.4520  0.5726
  934TIP3   OH224360   5.250   0.939   8.501 -0.8375 -0.0702  0.9820
  934TIP3    H124361   5.302   0.872   8.456  1.1052  0.4583  2.3143
  934TIP3    H224362   5.160   0.907   8.495 -0.3727 -1.2328 -1.0808
  935TIP3   OH224363   2.591   2.656   0.555 -0.3129  0.6204  0.1107
  935TIP3    H124364   2.591   2.723   0.487 -1.3447 -0.1710 -0.7187
  935TIP3    H224365   2.620   2.576   0.511 -0.7125  0.1582  0.6584
  936TIP3   OH224366   1.046   5.419   8.223  0.0993 -0.3914 -0.0631
  936TIP3    H124367   1.061   5.457   8.137  0.6758  0.1363  0.2665
  936TIP3    H224368   1.104   5.343   8.226 -0.3044 -0.7190 -0.3303
  937TIP3   OH224369   4.933   2.320   7.386  0.3254  0.1312 -0.2971
  937TIP3    H124370   4.857   2.321   7.329 -0.2002 -0.5515  0.3734
  937TIP3    H224371   5.007   2.337   7.327 -0.2998  0.4418 -1.0109
  938TIP3   OH224372   3.183   2.573   8.640 -0.2442  0.4809 -0.3501
  938TIP3    H124373   3.230   2.572   8.723 -0.9006  2.3810  0.0849
  938TIP3    H224374   3.222   2.502   8.590  0.8780 -0.0370  1.1805
  939TIP3   OH224375   3.458   0.948   1.662 -0.2371 -0.5153 -0.2626
  939TIP3    H124376   3.527   0.916   1.604  0.0392 -0.7056  0.1625
  939TIP3    H224377   3.497   1.022   1.707 -1.5842  1.9715 -2.8594
  940TIP3   OH224378   4.512   0.409   2.710  0.2886  0.7243 -0.1579
  940TIP3    H124379   4.427   0.440   2.741 -0.3191  0.1746 -1.2363
  940TIP3    H224380   4.509   0.315   2.724 -0.2383  0.3670 -2.3552
  941TIP3   OH224381   2.600   2.416   0.084 -0.1305 -0.1753  0.4224
  941TIP3    H124382   2.682   2.455   0.055  0.4177 -1.0674  0.7531
  941TIP3    H224383   2.625   2.352   0.150 -1.1652  0.1370  1.1503
  942TIP3   OH224384   5.723   3.603   8.629  0.5072  0.1374  0.5225
  942TIP3    H124385   5.693   3.513   8.619  0.8895  0.1628 -1.0593
  942TIP3    H224386   5.668   3.638   8.699 -2.4207 -0.1629 -1.4354
  943TIP3   OH224387   4.506   3.792   0.263  0.4167 -0.0650 -0.0427
  943TIP3    H124388   4.426   3.792   0.209 -2.5856  1.8171  3.8569
  943TIP3    H224389   4.545   3.706   0.247 -2.1001 -0.9347 -2.5505
  944TIP3   OH224390   0.135   3.339   0.188  0.3245  0.2160  0.3466
  944TIP3    H124391   0.123   3.273   0.256 -1.4988  1.1715  1.0191
  944TIP3    H224392   0.117   3.422   0.231 -0.0182  0.9185 -1.0834
  945TIP3   OH224393   5.764   2.067   1.850  0.1140 -0.3139 -0.5017
  945TIP3    H124394   5.798   2.109   1.930  1.9340 -2.0616 -0.2734
  945TIP3    H224395   5.762   1.974   1.871 -0.5900 -0.6858 -2.0942
  946TIP3   OH224396   4.399   4.551   0.637  0.0995 -0.4190  0.0791
  946TIP3    H124397   4.471   4.613   0.647 -0.4804  0.2972 -0.1397
  946TIP3    H224398   4.403   4.497   0.717 -1.1851  1.7913  1.7530
  947TIP3   OH224399   6.632   0.773   8.669  0.6777 -0.0777  0.0857
  947TIP3    H124400   6.635   0.864   8.639 -2.0156  0.5767  1.4652
  947TIP3    H224401   6.705   0.765   8.729  1.9606  0.6251 -1.3101
  948TIP3   OH224402   3.425   6.043   0.819  0.5322  0.5121  0.0480
  948TIP3    H124403   3.361   5.978   0.847  0.3148  0.7949  0.2089
  948TIP3    H224404   3.409   6.053   0.725  1.3620 -0.5487 -0.2378
  949TIP3   OH224405   2.633   5.162   1.808  0.4435 -0.1221 -0.0752
  949TIP3    H124406   2.721   5.198   1.820 -0.7011  2.4100  1.4058
  949TIP3    H224407   2.588   5.227   1.754 -0.9881 -0.5526  0.5576
  950TIP3   OH224408   6.639   3.878   8.293 -0.5413  0.0541 -0.1091
  950TIP3    H124409   6.591   3.820   8.234 -3.3474  2.9442 -0.9492
  950TIP3    H224410   6.649   3.828   8.374 -1.8542 -1.9417 -1.1052
  951TIP3   OH224411   6.256   1.444   7.559 -0.1368  0.3671  0.3195
  951TIP3    H124412   6.165   1.436   7.587 -0.1388 -0.5327  0.0871
  951TIP3    H224413   6.258   1.522   7.505 -0.8431  0.2097  0.0613
  952TIP3   OH224414   5.837   2.649   7.301 -0.0792  0.2053  0.0608
  952TIP3    H124415   5.859   2.718   7.364 -1.2374  0.4236  0.2593
  952TIP3    H224416   5.870   2.682   7.217  0.5084  0.4117  0.3664
  953TIP3   OH224417   5.582   6.313   8.403 -0.3939 -0.3613 -0.0906
  953TIP3    H124418   5.518   6.383   8.414 -0.6552 -0.8023  1.2979
  953TIP3    H224419   5.648   6.350   8.344  1.1159  2.2501  2.9437
  954TIP3   OH224420   4.266   4.834   2.352  0.0225 -0.2069  0.1437
  954TIP3    H124421   4.233   4.892   2.420  0.6366  1.3437 -0.8301
  954TIP3    H224422   4.255   4.746   2.388 -1.3279  0.4759  1.4869
  955TIP3   OH224423   6.763   6.088   1.415 -0.8883  0.6425 -0.0144
  955TIP3    H124424   6.668   6.085   1.408 -1.0126  0.3159  1.4942
  955TIP3    H224425   6.793   6.012   1.365 -1.3902  0.9503 -0.7965
  956TIP3   OH224426   0.254   4.399   0.121  0.5279  0.1723  0.2534
  956TIP3    H124427   0.230   4.404   0.213  1.3429 -0.5666  0.5243
  956TIP3    H224428   0.232   4.485   0.085  2.3125  1.2967  1.6915
  957TIP3   OH224429   4.270   3.607   2.626  0.2838 -0.3510 -0.3010
  957TIP3    H124430   4.315   3.540   2.677 -0.4574 -0.1017  0.7096
  957TIP3    H224431   4.341   3.660   2.588  0.9183  0.7282  2.1738
  958TIP3   OH224432   4.527   3.277   0.660  0.4106  0.0017 -0.1650
  958TIP3    H124433   4.584   3.251   0.588  1.3784 -1.3779  1.0236
  958TIP3    H224434   4.568   3.356   0.696  1.1654 -0.5487  0.2055
  959TIP3   OH224435   6.276   5.951   0.144  0.3024 -0.5096  0.0957
  959TIP3    H124436   6.282   5.866   0.188  0.3628 -0.7827 -0.4425
  959TIP3    H224437   6.368   5.978   0.133  0.3018 -0.6787 -0.3254
  960TIP3   OH224438   3.432   4.136   0.270  0.0412 -0.0979 -0.2030
  960TIP3    H124439   3.472   4.078   0.335  1.6413  0.1286 -0.9292
  960TIP3    H224440   3.493   4.210   0.265 -0.4921  0.2816 -1.3375
  961TIP3   OH224441   1.623   1.496   0.092 -0.0356  0.2356 -0.0468
  961TIP3    H124442   1.639   1.564   0.027  3.3990  1.2117  1.5759
  961TIP3    H224443   1.575   1.540   0.162  0.0765  0.3611 -0.0480
  962TIP3   OH224444   3.096   2.406   0.342  0.3787  0.0519 -0.2436
  962TIP3    H124445   3.172   2.357   0.373  0.7097 -0.0408 -1.1852
  962TIP3    H224446   3.132   2.486   0.303  0.1678 -0.7963 -2.2937
  963TIP3   OH224447   6.550   6.399   1.614 -0.3464 -0.5037 -0.2592
  963TIP3    H124448   6.559   6.387   1.519 -2.5288 -1.5513 -0.4175
  963TIP3    H224449   6.558   6.311   1.650  0.9382 -0.0562  0.6183
  964TIP3   OH224450   6.607   0.692   7.724 -0.2059 -0.2840 -0.2297
  964TIP3    H124451   6.529   0.748   7.721 -0.3102 -0.4581 -0.9346
  964TIP3    H224452   6.680   0.753   7.734 -0.5351 -0.2096  2.2371
  965TIP3   OH224453   5.674   0.906   1.599  0.6753  0.4950  0.1898
  965TIP3    H124454   5.701   0.898   1.690 -1.9235 -0.7372  0.9562
  965TIP3    H224455   5.719   0.836   1.553  0.7556  0.0921  0.8794
  966TIP3   OH224456   0.943   0.436   1.882  0.2447 -0.6282  0.0868
  966TIP3    H124457   0.921   0.482   1.802 -1.0716  0.3557  0.9695
  966TIP3    H224458   1.000   0.364   1.854 -1.5079 -1.3195 -1.9152
  967TIP3   OH224459   5.186   0.628   2.691 -0.1347 -0.4449 -0.3086
  967TIP3    H124460   5.136   0.593   2.765  2.8810 -0.3736  1.9160
  967TIP3    H224461   5.252   0.561   2.673  0.9496  0.7786 -1.0700
  968TIP3   OH224462   2.798   0.776   7.176  0.3085 -0.4014  0.1450
  968TIP3    H124463   2.890   0.770   7.202 -0.4874 -2.2706  3.0337
  968TIP3    H224464   2.767   0.686   7.176 -1.2795  0.0369 -2.1634
  969TIP3   OH224465   3.427   3.538   7.791  0.3308 -0.4665 -0.0775
  969TIP3    H124466   3.512   3.541   7.835  0.2145 -0.2395  0.1336
  969TIP3    H224467   3.411   3.628   7.763 -1.2729  0.2176  2.6515
  970TIP3   OH224468   3.090   4.760   2.244  0.1324  0.2663 -0.4591
  970TIP3    H124469   3.147   4.781   2.170  0.2938  0.9475 -0.1436
  970TIP3    H224470   3.085   4.665   2.244  1.1930  0.2077 -0.5361
  971TIP3   OH224471   6.087   3.324   7.468 -0.7966  0.6373 -0.2894
  971TIP3    H124472   6.094   3.265   7.393  1.1569 -1.6247  1.4967
  971TIP3    H224473   6.132   3.404   7.440 -0.0627 -0.1716 -1.5309
  972TIP3   OH224474   2.121   6.270   7.650  0.5010  0.3254  0.0553
  972TIP3    H124475   2.146   6.231   7.566 -0.1092 -0.7132  0.3255
  972TIP3    H224476   2.182   6.342   7.662 -0.7593  1.9179 -2.3141
  973TIP3   OH224477   0.373   6.487   1.572  0.1164  0.3618 -0.3380
  973TIP3    H124478   0.329   6.537   1.641  0.7161  1.7341 -0.9091
  973TIP3    H224479   0.318   6.410   1.559 -0.4693  0.5074  1.0604
  974TIP3   OH224480   2.362   4.856   8.193 -0.6948 -0.3246 -0.4707
  974TIP3    H124481   2.327   4.799   8.261 -0.2370 -0.5429 -0.4162
  974TIP3    H224482   2.300   4.847   8.120 -1.2422 -0.0081 -0.0519
  975TIP3   OH224483   0.638   0.163   0.874 -0.1524 -0.2820  0.2890
  975TIP3    H124484   0.646   0.201   0.962  1.5874  0.3961 -0.1084
  975TIP3    H224485   0.546   0.138   0.867 -0.9227  1.9303  1.3894
  976TIP3   OH224486   5.507   5.987   7.881 -0.0057 -0.4869 -1.1560
  976TIP3    H124487   5.438   5.939   7.927  0.6109 -0.8076 -0.5439
  976TIP3    H224488   5.517   6.068   7.930  1.5460 -1.3819  0.1204
  977TIP3   OH224489   2.444   3.894   0.175  0.1960 -0.1746 -0.4397
  977TIP3    H124490   2.350   3.886   0.188  0.1270  0.0141 -0.8013
  977TIP3    H224491   2.473   3.805   0.156  0.5531 -0.7673  2.4216
  978TIP3   OH224492   6.419   3.478   0.133 -0.0834 -0.6642 -0.4634
  978TIP3    H124493   6.418   3.474   0.228 -1.9664  0.4741 -0.3784
  978TIP3    H224494   6.444   3.390   0.105 -0.5679 -1.3294  1.0767
  979TIP3   OH224495   0.939   6.218   1.661 -0.2935 -0.0611  0.3146
  979TIP3    H124496   0.896   6.288   1.709 -0.2696 -1.0153  1.7964
  979TIP3    H224497   0.889   6.208   1.580 -0.6321  1.2567  0.3517
  980TIP3   OH224498   5.098   0.883   8.045  0.3425  0.1678 -0.3045
  980TIP3    H124499   5.125   0.958   8.098  0.0255 -0.1630  0.3288
  980TIP3    H224500   5.108   0.808   8.103 -1.9041  0.0128 -0.0199
  981TIP3   OH224501   1.071   3.861   0.426 -0.0559  0.1555 -0.7137
  981TIP3    H124502   1.040   3.876   0.515  0.5572  1.9447 -0.7601
  981TIP3    H224503   0.994   3.876   0.371 -1.1593 -3.5478 -0.4368
  982TIP3   OH224504   1.144   5.532   7.975 -0.2469  0.4350  0.7000
  982TIP3    H124505   1.154   5.552   7.882 -2.1916 -0.1776  0.3134
  982TIP3    H224506   1.233   5.521   8.007  0.4839  1.2904 -0.9443
  983TIP3   OH224507   4.891   4.974   0.193  0.1503  0.3877  0.0448
  983TIP3    H124508   4.887   4.889   0.150 -2.2797  0.0297  0.8355
  983TIP3    H224509   4.832   5.031   0.143  1.8532  1.6986 -0.5673
  984TIP3   OH224510   0.599   1.426   1.437  0.1688  0.2279  0.2244
  984TIP3    H124511   0.670   1.368   1.408 -0.7190 -1.2651  0.9370
  984TIP3    H224512   0.594   1.493   1.369  2.3691  0.5003  0.2422
  985TIP3   OH224513   5.711   3.778   0.390 -0.0752  0.3503  0.2668
  985TIP3    H124514   5.740   3.858   0.347 -1.4386  0.5873 -0.2609
  985TIP3    H224515   5.618   3.770   0.367 -0.2466 -0.7850  1.2266
  986TIP3   OH224516   2.114   2.776   0.051  0.2633 -0.2339  0.7455
  986TIP3    H124517   2.201   2.782   0.012  0.2118 -0.0775  0.6563
  986TIP3    H224518   2.057   2.828  -0.006  0.3070  0.5352  1.3775
  987TIP3   OH224519   6.466   2.164   8.639  0.5586 -0.8246  0.0997
  987TIP3    H124520   6.509   2.158   8.724  0.8702 -2.4177 -0.1422
  987TIP3    H224521   6.533   2.138   8.576  0.2747  0.1466 -0.6388
  988TIP3   OH224522   1.606   3.909   2.870 -0.4034 -0.1140 -0.7366
  988TIP3    H124523   1.542   3.935   2.936  1.2813  2.8022 -0.0518
  988TIP3    H224524   1.580   3.956   2.791  1.0403  1.5094 -0.3148
  989TIP3   OH224525   3.586   0.673   1.840  0.5347 -0.3101  0.0409
  989TIP3    H124526   3.545   0.749   1.881 -2.5462  0.0271 -3.1410
  989TIP3    H224527   3.554   0.599   1.891 -0.5372  0.2686  0.2491
  990TIP3   OH224528   1.885   2.303   1.430  0.5175 -0.5671 -0.0439
  990TIP3    H124529   1.840   2.352   1.499  1.6741 -1.6793  1.5919
  990TIP3    H224530   1.849   2.214   1.437  1.5121 -0.9830 -0.0279
  991TIP3   OH224531   2.042   5.678   7.344 -0.6257  0.6552  0.3760
  991TIP3    H124532   1.987   5.602   7.326 -0.7774  1.1628 -1.4430
  991TIP3    H224533   2.009   5.712   7.427 -1.1900 -0.6803  0.7176
  992TIP3   OH224534   4.771   2.348   8.529  0.2316 -0.4254  0.1086
  992TIP3    H124535   4.748   2.373   8.619  0.2850  0.1151 -0.0221
  992TIP3    H224536   4.800   2.430   8.489  0.7646 -0.7812 -0.2288
  993TIP3   OH224537   4.124   0.634   8.684 -0.2859  0.3706  0.6533
  993TIP3    H124538   4.079   0.702   8.633  1.0974 -0.0768 -1.2654
  993TIP3    H224539   4.162   0.681   8.758 -3.0559  0.9110  1.8877
  994TIP3   OH224540   0.609   0.359   0.430  0.0162  0.6643  0.2203
  994TIP3    H124541   0.665   0.430   0.398  0.1479  0.5259  0.1431
  994TIP3    H224542   0.671   0.293   0.462 -0.1013  1.1137  1.4624
  995TIP3   OH224543   1.352   4.079   1.809 -0.2335  0.1213 -0.5438
  995TIP3    H124544   1.399   4.161   1.793 -0.4295  0.8761  2.1548
  995TIP3    H224545   1.275   4.105   1.859 -0.8955 -1.6100 -0.6019
  996TIP3   OH224546   0.438   0.083   2.391 -0.2954  0.1094 -0.1689
  996TIP3    H124547   0.416   0.002   2.436  1.2429 -0.8270 -1.0416
  996TIP3    H224548   0.392   0.151   2.441 -0.5215 -1.1286  1.3848
  997TIP3   OH224549   1.360   0.360   2.015 -0.6377  0.4878 -0.0770
  997TIP3    H124550   1.396   0.360   2.104 -0.8965  0.7431  0.0266
  997TIP3    H224551   1.319   0.445   2.005 -0.8053  0.3756 -0.3659
  998TIP3   OH224552   5.400   4.572   0.642 -0.2091  0.2052  0.2235
  998TIP3    H124553   5.398   4.530   0.555  1.6972 -0.3561  0.4042
  998TIP3    H224554   5.329   4.636   0.639 -0.3701  0.0114 -1.6575
  999TIP3   OH224555   0.832   2.338   0.931 -0.3659 -0.0418  0.9858
  999TIP3    H124556   0.807   2.327   1.023 -0.4478 -1.2478  0.8364
  999TIP3    H224557   0.896   2.409   0.931  0.9771 -1.2264  2.2115
 1000TIP3   OH224558   3.779   5.637   8.639  0.2623 -0.0729 -0.5832
 1000TIP3    H124559   3.824   5.565   8.683  2.9564  1.3066 -0.8609
 1000TIP3    H224560   3.849   5.697   8.614 -1.6220  1.4820 -2.5427
 1001TIP3   OH224561   5.377   6.387   0.791  0.3124 -0.2898 -0.2593
 1001TIP3    H124562   5.309   6.321   0.803  0.0966  0.0519  0.5048
 1001TIP3    H224563   5.425   6.386   0.874 -0.3393  1.2167  0.1776
 1002TIP3   OH224564   5.093   5.557   0.241  0.4217 -0.0897  0.1377
 1002TIP3    H124565   5.003   5.580   0.218 -0.3942 -1.2986  1.9355
 1002TIP3    H224566   5.135   5.537   0.157 -0.6444  1.4891 -0.8375
 1003TIP3   OH224567   5.028   4.813   1.548 -0.2937  0.3713  0.0807
 1003TIP3    H124568   4.982   4.730   1.535  0.5488 -0.3026  1.2404
 1003TIP3    H224569   5.010   4.862   1.468 -0.4972 -1.0783 -0.8099
 1004TIP3   OH224570   0.940   1.649   2.794 -0.0902  0.1912  0.4552
 1004TIP3    H124571   0.901   1.704   2.726 -0.8184  0.7821  1.3252
 1004TIP3    H224572   0.954   1.709   2.867  3.2353  0.2121 -0.0473
 1005TIP3   OH224573   6.770   4.802   2.159 -0.2683  0.2425  0.7238
 1005TIP3    H124574   6.855   4.802   2.115 -1.4236 -0.2595 -1.7294
 1005TIP3    H224575   6.763   4.889   2.198  1.3952  0.2389  1.0850
 1006TIP3   OH224576   1.310   0.676   0.566  0.1581  0.0345  0.2194
 1006TIP3    H124577   1.258   0.679   0.646 -0.5273 -0.8796 -0.1779
 1006TIP3    H224578   1.248   0.656   0.497  0.8783 -0.0436 -0.4229
 1007TIP3   OH224579   3.139   4.945   1.679  0.0907  0.1050 -0.8096
 1007TIP3    H124580   3.176   4.858   1.662 -0.2882 -0.7385  2.1342
 1007TIP3    H224581   3.214   5.004   1.675  0.7455 -0.6941 -0.6345
 1008TIP3   OH224582   0.009   2.788   8.150  0.0256  0.0805 -0.4356
 1008TIP3    H124583   0.101   2.796   8.178  0.0393 -0.7720 -0.1948
 1008TIP3    H224584  -0.033   2.739   8.221 -0.0644 -1.6862 -1.6652
 1009TIP3   OH224585   6.710   3.301   2.728  0.1890  0.1238 -0.3666
 1009TIP3    H124586   6.710   3.239   2.801  0.5211 -0.3789 -0.7867
 1009TIP3    H224587   6.650   3.371   2.756  0.1956 -0.1371  0.3185
 1010TIP3   OH224588   2.944   6.103   7.602 -0.1418  0.1761 -0.4567
 1010TIP3    H124589   2.865   6.126   7.554  0.6586  2.3850 -0.8455
 1010TIP3    H224590   2.969   6.183   7.648  2.1325 -0.2725 -0.7547
 1011TIP3   OH224591   6.713   4.691   1.242  0.2474 -0.0218 -0.0115
 1011TIP3    H124592   6.768   4.694   1.163  1.8126 -0.6984  1.0059
 1011TIP3    H224593   6.697   4.598   1.257 -2.4471  0.1893 -1.0701
 1012TIP3   OH224594   1.234   6.856   0.279  0.1591  0.8684 -0.1818
 1012TIP3    H124595   1.268   6.848   0.368  1.3811  0.9458 -0.6212
 1012TIP3    H224596   1.307   6.895   0.229 -0.6732  1.2804 -1.1070
 1013TIP3   OH224597   4.168   2.893   7.113 -0.4869  0.1067 -0.1151
 1013TIP3    H124598   4.110   2.868   7.184  1.4994 -1.5630  1.0576
 1013TIP3    H224599   4.166   2.989   7.112 -1.3500  0.1372  1.5148
 1014TIP3   OH224600   6.715   2.350   2.810  0.1656  0.1739  0.6315
 1014TIP3    H124601   6.652   2.331   2.740  0.8902  0.2859 -0.0694
 1014TIP3    H224602   6.677   2.424   2.857 -0.3191  0.1217  0.3364
 1015TIP3   OH224603   0.641   3.446   8.033  0.3275  0.1870  0.0340
 1015TIP3    H124604   0.562   3.466   7.982 -0.0232  0.1925  0.5813
 1015TIP3    H224605   0.624   3.483   8.119 -0.0263 -1.8018  0.8550
 1016TIP3   OH224606   2.025   6.648   7.052 -0.7180 -0.7947 -0.1497
 1016TIP3    H124607   1.954   6.657   6.988 -2.7344 -2.4162  1.7106
 1016TIP3    H224608   2.007   6.715   7.118  1.2326  0.7328 -1.0392
 1017TIP3   OH224609   4.655   0.695   2.023 -0.1640 -0.3425  0.2602
 1017TIP3    H124610   4.593   0.647   1.967  0.3208 -1.6704  0.8213
 1017TIP3    H224611   4.739   0.688   1.978 -0.1487  0.2481  0.1969
 1018TIP3   OH224612   6.041   1.164   7.582  0.8467  0.0633  0.0014
 1018TIP3    H124613   6.000   1.237   7.536  1.4694  1.4524  1.5365
 1018TIP3    H224614   6.046   1.094   7.517 -0.6699  1.0394 -1.2391
 1019TIP3   OH224615   5.640   4.302   8.266 -0.1486  0.0773  0.2453
 1019TIP3    H124616   5.726   4.273   8.235  0.6848  0.9173  1.6810
 1019TIP3    H224617   5.634   4.393   8.235 -0.3068  0.1711  0.5544
 1020TIP3   OH224618   3.052   2.352   8.018  0.4798 -0.3566  0.6713
 1020TIP3    H124619   3.071   2.446   8.027 -0.3486 -0.1565  0.4291
 1020TIP3    H224620   3.099   2.311   8.091  2.6719 -0.0302 -0.4754
 1021TIP3   OH224621   3.809   0.857   2.463 -0.0895  0.2898 -0.3064
 1021TIP3    H124622   3.751   0.870   2.388  0.7376 -2.6313 -1.5715
 1021TIP3    H224623   3.791   0.767   2.492  1.1603  0.6133  1.6467
 1022TIP3   OH224624   6.204   4.475   8.686 -0.1295 -0.0127 -0.0525
 1022TIP3    H124625   6.296   4.491   8.668  0.0970  0.5466  1.5145
 1022TIP3    H224626   6.183   4.533   8.759 -1.8190  0.1340 -0.6009
 1023TIP3   OH224627   3.118   2.774   8.441  0.9132 -0.4787 -0.0380
 1023TIP3    H124628   3.129   2.711   8.512  0.7344  0.3338  0.7168
 1023TIP3    H224629   3.188   2.838   8.454 -0.1187  0.5992  0.4099
 1024TIP3   OH224630   0.022   4.574   2.818  0.0428 -0.6371 -0.8595
 1024TIP3    H124631  -0.023   4.501   2.775  0.6414 -0.2755 -2.1513
 1024TIP3    H224632   0.106   4.537   2.846 -0.7690 -1.1555  1.0206
 1025TIP3   OH224633   4.551   4.970   0.984  0.4750 -0.3831  0.4442
 1025TIP3    H124634   4.615   4.905   1.012  0.2110 -0.7284  0.2605
 1025TIP3    H224635   4.468   4.922   0.983  0.3156 -0.1057  0.0940
 1026TIP3   OH224636   1.865   1.464   2.576  0.0936 -0.6233 -0.0893
 1026TIP3    H124637   1.802   1.524   2.615 -0.0436  0.3850 -1.7487
 1026TIP3    H224638   1.812   1.402   2.525  0.2927 -1.6191  0.8727
 1027TIP3   OH224639   2.952   2.226   0.506  0.5178 -0.5676  0.0445
 1027TIP3    H124640   2.981   2.277   0.431  0.1523 -0.4106  0.0074
 1027TIP3    H224641   2.873   2.182   0.476  0.8399 -1.1770  0.0691
 1028TIP3   OH224642   3.131   5.682   8.333  0.3043 -0.2707  0.7897
 1028TIP3    H124643   3.043   5.648   8.347 -0.4442  1.4038  0.3889
 1028TIP3    H224644   3.125   5.775   8.352  2.0150 -0.1221  0.8201
 1029TIP3   OH224645   0.660   2.006   1.432  0.2191 -0.6010  0.0166
 1029TIP3    H124646   0.610   2.064   1.374  1.3792  1.3782  0.8895
 1029TIP3    H224647   0.741   1.989   1.385 -0.0028 -1.3310 -0.1173
 1030TIP3   OH224648   6.582   0.664   0.936 -0.1750 -0.4345 -0.1928
 1030TIP3    H124649   6.560   0.650   1.028 -1.2169  1.3642 -0.1204
 1030TIP3    H224650   6.677   0.651   0.932 -0.1206 -0.5707  1.1188
 1031TIP3   OH224651   2.700   4.291   2.055  0.1227 -0.0475 -0.7756
 1031TIP3    H124652   2.663   4.254   1.975 -0.8147  1.0116 -0.8575
 1031TIP3    H224653   2.680   4.226   2.123 -1.8284  0.4209 -0.8441
 1032TIP3   OH224654   1.774   4.045   0.177 -0.3467  0.5375  0.2956
 1032TIP3    H124655   1.868   4.062   0.166 -0.5729  1.4544 -0.3625
 1032TIP3    H224656   1.756   4.065   0.268 -0.2782  2.3666 -0.0530
 1033TIP3   OH224657   2.623   4.773   1.747  0.8565 -0.0439  0.0452
 1033TIP3    H124658   2.602   4.685   1.780 -2.7433  1.0841  1.1780
 1033TIP3    H224659   2.603   4.831   1.820 -2.7828  2.1504 -2.3888
 1034TIP3   OH224660   1.349   0.408   7.883 -0.0351 -0.1056  0.2070
 1034TIP3    H124661   1.341   0.427   7.977  0.4872 -1.3247  0.5286
 1034TIP3    H224662   1.330   0.314   7.877 -0.6486  0.0850 -1.0029
 1035TIP3   OH224663   5.679   1.696   2.448 -0.0180  0.0559 -0.3999
 1035TIP3    H124664   5.626   1.713   2.526  1.0089  0.6431  0.1839
 1035TIP3    H224665   5.759   1.745   2.462  0.7865 -0.9983 -1.1708
 1036TIP3   OH224666   4.542   6.386   0.286  0.1987 -0.1141  0.5670
 1036TIP3    H124667   4.594   6.354   0.359 -0.3219 -0.8026  0.6519
 1036TIP3    H224668   4.456   6.406   0.324  0.0590 -0.0614  0.2312
 1037TIP3   OH224669   4.890   2.603   1.241 -0.1482 -0.0534 -0.0603
 1037TIP3    H124670   4.952   2.551   1.190  0.1866  0.9679 -0.7157
 1037TIP3    H224671   4.911   2.694   1.220 -1.5269  0.3269  0.0992
 1038TIP3   OH224672   2.108   4.087   1.976  0.1580 -0.2279 -0.2980
 1038TIP3    H124673   2.201   4.076   1.961  0.4900 -0.0549  1.4215
 1038TIP3    H224674   2.067   4.066   1.892  1.8681  2.0720 -1.8213
 1039TIP3   OH224675   1.225   2.483   3.393  0.3298  0.2855 -0.9420
 1039TIP3    H124676   1.191   2.519   3.310 -1.9397  0.1855 -0.1382
 1039TIP3    H224677   1.149   2.440   3.432  1.1926  0.8285  1.4704
 1040TIP3   OH224678   0.476   5.235   1.958 -0.0429 -0.3965 -0.2388
 1040TIP3    H124679   0.455   5.143   1.942 -0.7779 -0.3160  0.2162
 1040TIP3    H224680   0.530   5.233   2.037 -3.1213 -0.2030  2.0380
 1041TIP3   OH224681   0.339   0.347   0.362  0.4301 -0.1584 -0.3187
 1041TIP3    H124682   0.431   0.359   0.384 -0.0622  2.7938  0.4650
 1041TIP3    H224683   0.294   0.418   0.407 -2.3311 -1.7931 -0.2995
 1042TIP3   OH224684   3.450   5.264   0.200 -0.5735 -0.1357  0.3674
 1042TIP3    H124685   3.486   5.193   0.254 -1.3552  0.5544  1.8567
 1042TIP3    H224686   3.508   5.339   0.218 -2.3343  0.8553  2.4276
 1043TIP3   OH224687   3.891   0.698   1.274  0.4170 -0.1598  0.4231
 1043TIP3    H124688   3.939   0.677   1.354 -0.7275 -1.7607  0.7594
 1043TIP3    H224689   3.916   0.788   1.254 -0.3064  0.8302  3.3688
 1044TIP3   OH224690   2.106   3.437   2.724 -0.0736 -0.0376 -0.1350
 1044TIP3    H124691   2.052   3.421   2.802  1.6196 -1.6280  0.7852
 1044TIP3    H224692   2.121   3.532   2.725 -3.2835  0.5876 -0.8070
 1045TIP3   OH224693   0.814   1.424   0.189 -0.6880 -0.2279 -0.3434
 1045TIP3    H124694   0.818   1.514   0.158 -0.3561  0.0427  0.4564
 1045TIP3    H224695   0.795   1.432   0.283 -1.8461 -1.0207 -0.4946
 1046TIP3   OH224696   0.312   3.648   1.101  0.8140  0.1874 -0.0185
 1046TIP3    H124697   0.353   3.632   1.016  1.2963 -1.1977  0.4570
 1046TIP3    H224698   0.368   3.713   1.143  2.0010 -0.9248  0.2042
 1047TIP3   OH224699   6.485   4.448   8.612 -0.4496 -0.1280 -0.4220
 1047TIP3    H124700   6.550   4.452   8.543 -1.0025  0.6231 -0.9228
 1047TIP3    H224701   6.492   4.533   8.656 -1.2054  0.0384 -0.6055
 1048TIP3   OH224702   4.712   2.902   1.672 -0.1411  0.1322 -0.0291
 1048TIP3    H124703   4.631   2.950   1.652 -0.7452 -0.9335 -0.2138
 1048TIP3    H224704   4.681   2.819   1.708  0.8654 -0.6185 -0.8548
 1049TIP3   OH224705   1.867   3.404   8.658 -0.5509 -0.2621  0.2254
 1049TIP3    H124706   1.782   3.404   8.702 -1.3324 -2.7062 -1.1249
 1049TIP3    H224707   1.872   3.490   8.616 -2.1522  0.1018  0.7042
 1050TIP3   OH224708   1.270   2.296   8.503  0.4257 -0.3159  0.3307
 1050TIP3    H124709   1.265   2.388   8.477 -0.5933 -0.2060  0.8598
 1050TIP3    H224710   1.297   2.250   8.423  0.7072  0.4075  0.0006
 1051TIP3   OH224711   0.962   2.047   7.834  0.2816  0.0600 -0.2979
 1051TIP3    H124712   1.010   2.046   7.917  0.0025  1.3083 -0.1028
 1051TIP3    H224713   1.029   2.068   7.768  0.7793 -2.2552 -0.6248
 1052TIP3   OH224714   6.066   2.301   6.881 -0.6655 -0.0842  0.6032
 1052TIP3    H124715   6.087   2.264   6.967 -2.3783  0.2196  1.2040
 1052TIP3    H224716   6.148   2.339   6.850 -0.1977  0.6366  2.5483
 1053TIP3   OH224717   2.516   1.051   1.033 -0.1451 -0.0991  0.4188
 1053TIP3    H124718   2.564   0.995   0.973 -0.1611 -1.5350  1.6841
 1053TIP3    H224719   2.427   1.054   0.997  0.4548  1.2709 -1.0562
 1054TIP3   OH224720   6.550   2.042   1.986  0.1449  0.3200  0.3385
 1054TIP3    H124721   6.623   2.023   2.045  1.1509  1.0654 -0.6173
 1054TIP3    H224722   6.532   2.135   2.001  0.0483  0.3778 -0.1235
 1055TIP3   OH224723   4.793   1.023   1.062  0.7047 -0.4747 -0.2591
 1055TIP3    H124724   4.865   1.071   1.101 -1.0820  1.4165  0.9075
 1055TIP3    H224725   4.830   0.985   0.982  2.4807  2.0931 -0.7809
 1056TIP3   OH224726   5.097   4.808   8.131  0.3025  0.4065  0.1109
 1056TIP3    H124727   5.167   4.822   8.067  1.1447 -0.1110  0.8744
 1056TIP3    H224728   5.116   4.721   8.167 -0.0893  0.7288  1.1163
 1057TIP3   OH224729   0.829   4.859   1.578 -0.3072 -0.2697 -0.1211
 1057TIP3    H124730   0.888   4.889   1.647 -0.3183  0.5429 -0.4535
 1057TIP3    H224731   0.766   4.804   1.623  1.8155 -2.8082 -0.0301
 1058TIP3   OH224732   3.191   5.970   1.020  0.2230  0.2823  0.2379
 1058TIP3    H124733   3.236   5.965   1.105  0.8701  0.1448 -0.1096
 1058TIP3    H224734   3.156   5.882   1.007  0.7889  0.0859  0.0062
 1059TIP3   OH224735   1.165   4.399   0.225  0.5875  0.3712 -0.5936
 1059TIP3    H124736   1.069   4.409   0.225  0.6425  1.4079 -2.2353
 1059TIP3    H224737   1.179   4.306   0.207 -0.1264  0.2704 -0.6685
 1060TIP3   OH224738   4.969   1.457   2.567 -0.3884  0.0155 -1.0254
 1060TIP3    H124739   5.059   1.442   2.538 -0.7782  0.0637 -2.3282
 1060TIP3    H224740   4.942   1.536   2.519 -0.5688  1.0233  0.6508
 1061TIP3   OH224741   5.744   1.821   8.005  0.1402 -0.2919  0.8139
 1061TIP3    H124742   5.657   1.861   7.998  0.9539  1.7378  1.3433
 1061TIP3    H224743   5.728   1.730   8.028 -1.8618 -0.2797 -0.3500
 1062TIP3   OH224744   5.176   0.317   0.618  0.1767  0.6964  0.1728
 1062TIP3    H124745   5.171   0.269   0.535  1.7239 -1.0320  1.0156
 1062TIP3    H224746   5.118   0.269   0.677 -2.2815  2.9047 -0.2429
 1063TIP3   OH224747   1.256   5.191   8.294 -0.5736  0.0442 -0.5514
 1063TIP3    H124748   1.232   5.111   8.247  0.3083 -0.8471  0.4574
 1063TIP3    H224749   1.305   5.242   8.230 -0.1558 -0.7458 -0.8866
 1064TIP3   OH224750   3.862   2.636   2.374  0.5062 -0.0147  0.5754
 1064TIP3    H124751   3.816   2.611   2.454  0.8254  0.9134  1.0577
 1064TIP3    H224752   3.830   2.724   2.355  1.2001  0.1692  0.2547
 1065TIP3   OH224753   3.202   6.777   0.176 -0.2624 -0.2648  0.5233
 1065TIP3    H124754   3.267   6.845   0.158  1.4046 -1.7801  0.5408
 1065TIP3    H224755   3.244   6.696   0.148 -2.3797 -1.2577  0.0393
 1066TIP3   OH224756   5.795   0.157   1.648  0.0375  0.8370 -0.0677
 1066TIP3    H124757   5.845   0.148   1.729  0.6327 -1.0697 -0.6089
 1066TIP3    H224758   5.860   0.176   1.581 -0.1716  0.1993 -0.4610
 1067TIP3   OH224759   1.957   3.746   7.848  0.2732 -0.0787  0.3973
 1067TIP3    H124760   1.871   3.704   7.854 -0.1153  0.7984  1.2356
 1067TIP3    H224761   1.985   3.731   7.758  0.0132 -1.8654  0.5765
 1068TIP3   OH224762   6.668   6.356   8.220 -1.0516 -0.1510 -0.0993
 1068TIP3    H124763   6.636   6.439   8.184  0.1859  1.2147  1.7053
 1068TIP3    H224764   6.746   6.381   8.269 -2.4861 -1.7625  3.3587
 1069TIP3   OH224765   2.178   6.133   1.851 -0.1867 -0.8396  0.0824
 1069TIP3    H124766   2.192   6.051   1.899 -1.1084 -0.8622  0.3273
 1069TIP3    H224767   2.137   6.191   1.914  1.6000  0.2653  0.2986
 1070TIP3   OH224768   0.075   4.465   8.453  0.0425 -0.7534 -0.0829
 1070TIP3    H124769   0.108   4.460   8.363  0.8560 -1.3627  0.2280
 1070TIP3    H224770   0.150   4.495   8.504 -0.6710  0.4729  0.2738
 1071TIP3   OH224771   3.711   2.419   8.193 -0.0199  0.6025  0.5748
 1071TIP3    H124772   3.763   2.343   8.167 -0.4869  1.1673 -2.3378
 1071TIP3    H224773   3.664   2.391   8.272 -1.1399 -2.5871 -1.0623
 1072TIP3   OH224774   1.639   5.909   2.305  0.1109 -0.1320  0.1084
 1072TIP3    H124775   1.733   5.918   2.320 -0.0781 -0.5013  1.6762
 1072TIP3    H224776   1.629   5.820   2.270  0.5412  0.6850 -2.2779
 1073TIP3   OH224777   3.880   1.707   0.975  0.3009 -0.5349  0.2846
 1073TIP3    H124778   3.798   1.685   0.930 -1.6104  0.6724  2.9296
 1073TIP3    H224779   3.874   1.663   1.059  1.5284  1.0365  1.2536
 1074TIP3   OH224780   5.801   2.926   7.496  0.6141 -0.4815  0.1409
 1074TIP3    H124781   5.886   2.883   7.484  0.8220  0.3104 -1.4351
 1074TIP3    H224782   5.792   2.984   7.420 -1.9589 -1.5600 -0.4834
 1075TIP3   OH224783   0.349   3.079   0.884 -0.2056  0.1382  0.1056
 1075TIP3    H124784   0.425   3.049   0.833 -0.7008  1.6647 -1.6690
 1075TIP3    H224785   0.289   3.005   0.883  0.5301 -0.4721 -0.0187
 1076TIP3   OH224786   1.700   2.146   8.389 -0.1146  0.5432 -0.0970
 1076TIP3    H124787   1.786   2.106   8.376 -0.8669 -1.6378  1.0644
 1076TIP3    H224788   1.662   2.152   8.302  0.1663 -1.0821 -0.3642
 1077TIP3   OH224789   4.853   6.139   1.576  0.0986  0.1367  0.2648
 1077TIP3    H124790   4.894   6.076   1.516  0.7335 -0.7532  1.5977
 1077TIP3    H224791   4.765   6.104   1.592 -0.2653  0.6558 -0.5364
 1078TIP3   OH224792   3.811   5.506   8.058  0.6024 -0.0989 -0.5316
 1078TIP3    H124793   3.855   5.589   8.039  1.1131 -0.2121  0.1103
 1078TIP3    H224794   3.881   5.447   8.085  0.1447 -0.4959 -0.1857
 1079TIP3   OH224795   0.463   1.930   0.894  0.0069  0.7162  0.6135
 1079TIP3    H124796   0.421   2.007   0.858  0.3678  0.6012 -0.0709
 1079TIP3    H224797   0.553   1.958   0.912  0.7627 -0.0840 -1.6109
 1080TIP3   OH224798   1.303   3.772   0.324 -0.5801  0.7610  0.2239
 1080TIP3    H124799   1.391   3.810   0.326 -1.0046  1.8068 -0.4609
 1080TIP3    H224800   1.247   3.841   0.358 -0.8756 -0.7670  3.1701
 1081TIP3   OH224801   5.684   2.643   6.777  0.1663 -0.6551  0.0369
 1081TIP3    H124802   5.698   2.558   6.736 -0.3888 -0.2529 -1.0346
 1081TIP3    H224803   5.662   2.701   6.705 -0.9601  0.0658  0.9254
 1082TIP3   OH224804   1.618   0.571   1.818 -0.5422  0.6222 -0.1647
 1082TIP3    H124805   1.655   0.545   1.902 -1.3549  1.9684  0.6529
 1082TIP3    H224806   1.668   0.521   1.753  1.3000  0.8438  1.0038
 1083TIP3   OH224807   5.400   6.663   6.911  0.2324 -0.3944 -0.0176
 1083TIP3    H124808   5.316   6.705   6.899  1.0332  1.8175  1.4901
 1083TIP3    H224809   5.465   6.727   6.882  1.5057 -0.4503  2.3788
 1084TIP3   OH224810   0.667   3.029   6.886  0.4166 -0.7328  0.2388
 1084TIP3    H124811   0.705   2.951   6.847 -0.2625 -0.6235 -0.6782
 1084TIP3    H224812   0.573   3.010   6.891  0.4510 -0.6244  1.5628
 1085TIP3   OH224813   0.366   4.965   1.930  0.1642  0.5609 -0.2606
 1085TIP3    H124814   0.270   4.973   1.933  0.0057 -1.2154  0.9041
 1085TIP3    H224815   0.393   4.967   2.022  0.9047 -1.8672 -0.3446
 1086TIP3   OH224816   2.973   1.011   1.865  0.4969  0.4743 -0.0527
 1086TIP3    H124817   3.026   0.933   1.855  1.6295  1.1527  0.4592
 1086TIP3    H224818   3.030   1.083   1.838 -0.4247  1.1581 -0.2426
 1087TIP3   OH224819   3.511   4.734   3.030 -0.2069  0.8003 -0.0451
 1087TIP3    H124820   3.462   4.654   3.008  1.0166 -0.6947  2.3331
 1087TIP3    H224821   3.455   4.780   3.093 -1.4563  2.5637 -2.2647
 1088TIP3   OH224822   3.314   5.373   1.539  0.2547  0.5724 -0.0934
 1088TIP3    H124823   3.384   5.415   1.489  2.6566 -1.5158  1.2987
 1088TIP3    H224824   3.312   5.421   1.621 -0.2094  0.8618 -0.2739
 1089TIP3   OH224825   2.439   1.209   8.016  0.2211  0.4921  0.5971
 1089TIP3    H124826   2.351   1.229   8.047  1.2434  2.4154  2.6103
 1089TIP3    H224827   2.434   1.119   7.985 -1.9484 -0.2476  2.7257
 1090TIP3   OH224828   1.972   6.465   0.369 -0.3638  0.5439 -0.1545
 1090TIP3    H124829   1.940   6.518   0.297  1.6425 -0.6057 -2.0152
 1090TIP3    H224830   2.064   6.489   0.378 -0.2490 -0.2602  1.1812
 1091TIP3   OH224831   0.701   1.970   1.040 -0.7963  0.5268 -0.3882
 1091TIP3    H124832   0.665   2.056   1.063  1.1421  1.2657  0.0341
 1091TIP3    H224833   0.776   1.959   1.098 -0.5394 -1.1198 -0.9866
 1092TIP3   OH224834   1.812   2.013   0.012  0.2627  0.4203  0.0761
 1092TIP3    H124835   1.785   2.056  -0.069  0.0997  0.2121  0.0185
 1092TIP3    H224836   1.745   2.037   0.076  0.0315  0.0459 -0.0220
 1093TIP3   OH224837   6.011   6.428   1.026  0.3091 -0.1857  0.8274
 1093TIP3    H124838   6.060   6.372   1.086  0.9252  0.9016  1.3703
 1093TIP3    H224839   5.985   6.371   0.955  2.0819 -0.8707  0.6991
 1094TIP3   OH224840   5.410   2.439   1.021 -0.3293  0.5343  0.2136
 1094TIP3    H124841   5.421   2.524   1.065 -3.7188  1.9238 -1.2873
 1094TIP3    H224842   5.494   2.423   0.979  1.4055  1.5871  3.0085
 1095TIP3   OH224843   6.314   2.044   0.528 -0.7285 -0.2986 -0.0835
 1095TIP3    H124844   6.237   1.998   0.560 -1.2680 -0.4711 -1.5365
 1095TIP3    H224845   6.350   1.986   0.461 -0.1075  0.3748 -0.3493
 1096TIP3   OH224846   1.891   0.357   7.857 -0.2695  0.3446  0.2419
 1096TIP3    H124847   1.806   0.389   7.888 -1.2796 -1.0171 -1.0416
 1096TIP3    H224848   1.882   0.354   7.762  0.1138 -2.7205  0.2315
 1097TIP3   OH224849   5.747   6.075   7.352 -0.1132  0.1746  0.0374
 1097TIP3    H124850   5.705   6.057   7.267 -1.4672 -2.3580  1.1227
 1097TIP3    H224851   5.745   5.991   7.397  3.0795  0.7918  1.5696
 1098TIP3   OH224852   5.140   2.988   0.439 -0.7467  0.0486 -0.7613
 1098TIP3    H124853   5.179   3.009   0.523 -0.3121 -2.7337 -0.1813
 1098TIP3    H224854   5.059   2.941   0.461  0.3127 -2.4295 -1.7475
 1099TIP3   OH224855   0.809   4.271   2.025  0.5526  0.4177  0.1910
 1099TIP3    H124856   0.811   4.191   1.972  0.9810  1.4183 -1.3831
 1099TIP3    H224857   0.901   4.286   2.048  0.3125 -0.2842  1.7007
 1100TIP3   OH224858   4.126   2.747   0.348  0.2799  0.5083  0.3070
 1100TIP3    H124859   4.211   2.753   0.391  0.7334  1.6321 -0.6972
 1100TIP3    H224860   4.145   2.707   0.263 -0.0842  1.3381 -0.1751
 1101TIP3   OH224861   3.461   0.557   2.236  0.4431 -0.9130  0.7049
 1101TIP3    H124862   3.527   0.506   2.282 -0.0472 -3.3071 -1.0556
 1101TIP3    H224863   3.462   0.523   2.147 -1.4294  0.7311 -0.0146
 1102TIP3   OH224864   4.519   0.107   0.129  0.1079  0.3065 -1.0990
 1102TIP3    H124865   4.555   0.196   0.136  0.9783 -0.1038 -0.0216
 1102TIP3    H224866   4.556   0.073   0.047  2.6971 -0.2840  0.2314
 1103TIP3   OH224867   6.176   0.132   1.541 -0.3926  0.3107  0.1972
 1103TIP3    H124868   6.238   0.165   1.476  0.2607 -1.1345  0.0460
 1103TIP3    H224869   6.158   0.208   1.597 -0.0244  1.2591 -0.9245
 1104TIP3   OH224870   1.879   2.351   6.819  0.2897 -0.2048  0.1685
 1104TIP3    H124871   1.956   2.331   6.872  1.1039 -0.0044 -0.9104
 1104TIP3    H224872   1.817   2.392   6.881  1.2980  0.2403  0.9090
 1105TIP3   OH224873   6.230   6.408   0.259  0.4145  0.2038  0.0260
 1105TIP3    H124874   6.279   6.464   0.199  0.9100  0.9516  1.0815
 1105TIP3    H224875   6.197   6.337   0.205  2.0814  0.0512 -0.8414
 1106TIP3   OH224876   5.594   5.474   2.466  0.3008 -0.9546 -0.5521
 1106TIP3    H124877   5.572   5.445   2.555  0.1963  2.2366  0.5721
 1106TIP3    H224878   5.670   5.422   2.442  1.2282 -0.9228  2.0229
 1107TIP3   OH224879   6.750   1.400   7.020  0.8003  0.9403  0.4648
 1107TIP3    H124880   6.669   1.379   7.065  0.2072  0.5451 -0.7322
 1107TIP3    H224881   6.729   1.476   6.966  1.0950  0.5771 -0.1805
 1108TIP3   OH224882   2.781   5.367   3.237  0.0690  0.1862  1.1852
 1108TIP3    H124883   2.841   5.302   3.273  0.1251 -1.1231 -1.0914
 1108TIP3    H224884   2.717   5.381   3.306 -1.0812 -3.8134  1.1846
 1109TIP3   OH224885   4.067   0.081   2.480  0.0521  0.4065 -0.7613
 1109TIP3    H124886   3.995   0.136   2.512 -1.0233 -1.3749  0.0686
 1109TIP3    H224887   4.137   0.095   2.544 -0.9674 -0.7139  0.6991
 1110TIP3   OH224888   0.758   0.202   2.614 -0.3887  0.0188 -0.0765
 1110TIP3    H124889   0.700   0.160   2.677  2.2734 -1.7915  1.3634
 1110TIP3    H224890   0.754   0.147   2.536 -1.8308  0.8733 -0.6337
 1111TIP3   OH224891   3.306   4.739   1.590  0.1182  0.2373 -0.1950
 1111TIP3    H124892   3.263   4.656   1.568  0.0901  0.4460 -0.9472
 1111TIP3    H224893   3.393   4.732   1.552  1.9600 -1.4053  3.7740
 1112TIP3   OH224894   2.097   5.379   0.182 -0.4347 -0.3358 -0.4133
 1112TIP3    H124895   2.032   5.328   0.231  0.6969  0.2710  1.8620
 1112TIP3    H224896   2.069   5.470   0.192  0.1737 -0.1537 -0.3293
 1113TIP3   OH224897   1.635   1.106   8.121 -0.7049 -0.1901  0.0253
 1113TIP3    H124898   1.560   1.162   8.139 -0.9190 -0.1756 -0.8280
 1113TIP3    H224899   1.619   1.074   8.032 -0.2323 -1.0432  0.2389
 1114TIP3   OH224900   6.348   1.061   0.902 -0.1629 -0.2815 -0.0744
 1114TIP3    H124901   6.328   0.985   0.848  1.1688 -0.2581 -0.6353
 1114TIP3    H224902   6.269   1.114   0.899 -0.6304 -0.9976 -0.7778
 1115TIP3   OH224903   6.450   5.436   8.649  0.1898  0.0994 -0.0829
 1115TIP3    H124904   6.441   5.456   8.556  0.4213  0.0851 -0.1104
 1115TIP3    H224905   6.474   5.343   8.652  1.3580  0.3849 -0.0764
 1116TIP3   OH224906   5.811   2.551   2.147 -0.1224  0.2178 -0.0483
 1116TIP3    H124907   5.734   2.568   2.202 -0.4519 -0.2184 -0.3724
 1116TIP3    H224908   5.874   2.510   2.206 -0.1674  0.4918  0.1957
 1117TIP3   OH224909   4.474   0.387   1.993 -0.6933  0.4524 -0.2784
 1117TIP3    H124910   4.465   0.441   1.914 -1.0602  1.0955  0.1861
 1117TIP3    H224911   4.529   0.440   2.051 -1.6897  0.6904  0.4805
 1118TIP3   OH224912   4.046   3.355   7.929  0.3468  0.5745 -0.0006
 1118TIP3    H124913   3.962   3.353   7.973  0.6438  1.9959  0.6637
 1118TIP3    H224914   4.025   3.366   7.836 -0.2035  0.2308  0.0813
 1119TIP3   OH224915   6.479   4.657   0.463 -0.0741 -0.1850 -0.3455
 1119TIP3    H124916   6.457   4.590   0.527  0.8012  1.1780  1.4693
 1119TIP3    H224917   6.470   4.740   0.511  1.0760  0.8722 -1.8563
 1120TIP3   OH224918   3.754   2.673   0.301  0.4599 -0.0493  0.7776
 1120TIP3    H124919   3.825   2.645   0.359  0.2694 -0.6799  0.7229
 1120TIP3    H224920   3.675   2.641   0.345  0.1865  0.8631  0.9667
 1121TIP3   OH224921   0.407   0.762   0.625 -0.2697  0.5474  0.0988
 1121TIP3    H124922   0.401   0.741   0.532  0.4646  0.9983 -0.0664
 1121TIP3    H224923   0.435   0.680   0.666  1.7287  0.8996 -0.4179
 1122TIP3   OH224924   2.702   1.534   0.409 -0.2674 -0.0991  0.2779
 1122TIP3    H124925   2.628   1.545   0.350  0.7448 -1.6666 -1.3689
 1122TIP3    H224926   2.765   1.601   0.381  0.0324 -0.5454 -0.1091
 1123TIP3   OH224927   4.713   2.815   2.415  0.6898 -0.0807 -0.5700
 1123TIP3    H124928   4.804   2.789   2.405  0.9288  0.5909 -0.2350
 1123TIP3    H224929   4.664   2.733   2.417  1.5721 -0.6597  2.0661
 1124TIP3   OH224930   1.642   6.197   2.525  0.8453  0.7470  0.1324
 1124TIP3    H124931   1.675   6.183   2.613  1.2156  0.6385 -0.0219
 1124TIP3    H224932   1.621   6.108   2.493 -0.0148  0.8489  0.3885
 1125TIP3   OH224933   4.999   3.883   1.565  0.0799 -0.1941  0.5509
 1125TIP3    H124934   5.077   3.909   1.516  0.2227 -2.2464 -0.4243
 1125TIP3    H224935   4.943   3.961   1.563 -0.1951 -0.2737 -3.4864
 1126TIP3   OH224936   3.154   1.173   1.248 -0.0438 -0.2212 -0.4155
 1126TIP3    H124937   3.183   1.133   1.330 -1.8712 -1.0316 -0.1128
 1126TIP3    H224938   3.122   1.260   1.273 -1.8724 -0.9687  0.0286
 1127TIP3   OH224939   1.196   4.695   7.349  0.4664  0.1686 -0.3917
 1127TIP3    H124940   1.159   4.759   7.410 -0.5511 -1.1666  0.4382
 1127TIP3    H224941   1.203   4.742   7.266  0.3226  1.5320  0.3440
 1128TIP3   OH224942   5.680   1.429   0.969  0.8554 -0.2914  0.1187
 1128TIP3    H124943   5.767   1.405   0.938  0.4854 -2.2600  0.4766
 1128TIP3    H224944   5.623   1.360   0.935 -0.5921  1.0185 -0.1959
 1129TIP3   OH224945   1.985   6.589   7.545 -0.4440 -0.6209 -0.0065
 1129TIP3    H124946   2.055   6.596   7.610 -0.9566  0.5080  0.4454
 1129TIP3    H224947   2.028   6.552   7.467  1.2788  2.3452 -0.6255
 1130TIP3   OH224948   5.960   4.103   1.832 -0.7237  0.9577 -0.0336
 1130TIP3    H124949   5.979   4.066   1.745 -1.1387  0.4104  0.0990
 1130TIP3    H224950   6.037   4.156   1.853  1.0557 -1.7344  0.8184
 1131TIP3   OH224951   2.125   0.969   8.421 -0.2796 -0.6645 -0.2023
 1131TIP3    H124952   2.097   1.061   8.423  0.2549 -0.4602 -1.4186
 1131TIP3    H224953   2.141   0.947   8.513 -0.4237  0.4533  0.1057
 1132TIP3   OH224954   3.794   4.058   8.340 -0.2505 -0.3281  0.4024
 1132TIP3    H124955   3.849   4.125   8.299  0.6892  0.3486  2.6349
 1132TIP3    H224956   3.856   3.996   8.379 -0.9732  0.3412  2.8047
 1133TIP3   OH224957   5.590   4.266   0.283 -0.0455 -0.0165  0.1452
 1133TIP3    H124958   5.668   4.261   0.227 -0.6278 -0.8611 -0.6354
 1133TIP3    H224959   5.518   4.282   0.222 -0.7145 -1.0841  0.6202
 1134TIP3   OH224960   3.400   0.934   0.557 -0.3661 -0.2413 -0.4468
 1134TIP3    H124961   3.445   0.913   0.474 -0.9463 -0.7174 -0.6536
 1134TIP3    H224962   3.466   0.918   0.624 -0.1111 -0.5826 -0.7703
 1135TIP3   OH224963   4.248   1.962   2.437 -0.2472  0.3386 -0.3478
 1135TIP3    H124964   4.153   1.959   2.442 -0.2882 -0.2292 -1.2196
 1135TIP3    H224965   4.271   2.048   2.471 -0.8196 -0.6473  2.8717
 1136TIP3   OH224966   1.615   0.042   0.528 -0.4992 -0.1249  0.4343
 1136TIP3    H124967   1.587   0.085   0.608  2.7369 -0.8474  2.1121
 1136TIP3    H224968   1.573  -0.045   0.532  0.3759 -0.5141  1.8974
 1137TIP3   OH224969   3.140   0.467   3.182 -0.1328  0.3036  0.1668
 1137TIP3    H124970   3.208   0.422   3.233 -1.0415 -0.6405  0.5814
 1137TIP3    H224971   3.112   0.402   3.117 -1.0122  0.4679  0.3607
 1138TIP3   OH224972   2.702   4.704   6.552  0.6679  0.2766  1.0145
 1138TIP3    H124973   2.755   4.680   6.477 -0.8013  1.0809 -0.3500
 1138TIP3    H224974   2.637   4.633   6.559 -2.6658  2.6213 -2.0341
 1139TIP3   OH224975   3.034   5.562   0.536  0.1804  0.1178  0.1225
 1139TIP3    H124976   3.105   5.521   0.586 -1.3275 -0.5981  1.7999
 1139TIP3    H224977   3.026   5.508   0.457  0.8719 -0.3587  0.3677
 1140TIP3   OH224978   1.426   0.235   0.384 -0.0075 -0.2387 -0.6083
 1140TIP3    H124979   1.391   0.238   0.473  0.0847 -1.1792 -0.5337
 1140TIP3    H224980   1.521   0.233   0.396  0.0400  0.6735 -0.7659
 1141TIP3   OH224981   2.848   3.723   0.203  0.2984 -0.5638  0.0247
 1141TIP3    H124982   2.937   3.749   0.228 -0.1400  0.8866  0.1244
 1141TIP3    H224983   2.845   3.737   0.109  0.0646 -0.2889  0.0745
 1142TIP3   OH224984   4.547   4.458   1.427 -0.3467  0.4750  0.0401
 1142TIP3    H124985   4.491   4.514   1.480  0.2579  1.9009 -0.7633
 1142TIP3    H224986   4.624   4.442   1.481 -0.6321  0.1981  0.3686
 1143TIP3   OH224987   3.297   2.953   1.856 -0.5403 -0.1781 -0.6921
 1143TIP3    H124988   3.276   3.006   1.780  1.0157  1.0469 -0.3151
 1143TIP3    H224989   3.391   2.963   1.868 -0.6054 -1.0204  0.8963
 1144TIP3   OH224990   2.131   0.868   1.925  0.8990 -0.2895  0.1660
 1144TIP3    H124991   2.173   0.877   1.839 -0.2539  1.1159 -0.2871
 1144TIP3    H224992   2.041   0.895   1.910  0.0991 -2.0891  1.3839
 1145TIP3   OH224993   4.292   1.301   2.497  0.0482 -0.2300  0.0301
 1145TIP3    H124994   4.212   1.350   2.516  0.7173  0.6152  0.7938
 1145TIP3    H224995   4.295   1.295   2.402 -1.5302 -1.3281  0.0253
 1146TIP3   OH224996   5.936   0.983   2.675 -0.7699  0.1690  0.4737
 1146TIP3    H124997   5.842   0.996   2.667 -0.5989  1.7737  0.6544
 1146TIP3    H224998   5.974   1.053   2.622  0.3111  0.5440  1.6806
 1147TIP3   OH224999   4.456   5.862   1.864 -0.0303 -0.1026 -0.2376
 1147TIP3    H125000   4.441   5.833   1.954  1.9045 -0.4610 -0.0015
 1147TIP3    H225001   4.522   5.931   1.871  0.6893 -0.6350 -1.4213
 1148TIP3   OH225002   1.862   5.692   7.567 -0.4536  0.1477  0.4811
 1148TIP3    H125003   1.885   5.773   7.611 -1.8744  2.1598 -2.1973
 1148TIP3    H225004   1.770   5.703   7.542 -0.1842 -1.4861 -1.5312
 1149TIP3   OH225005   4.199   5.563   8.060 -0.1661 -0.2016 -0.0351
 1149TIP3    H125006   4.264   5.534   8.123  0.4050 -1.4381 -1.1418
 1149TIP3    H225007   4.141   5.487   8.050 -1.4134  0.6600  0.4477
 1150TIP3   OH225008   2.619   1.030   3.096 -0.1197 -0.1055 -0.5019
 1150TIP3    H125009   2.553   1.082   3.142 -0.1149 -0.7453  0.2528
 1150TIP3    H225010   2.636   0.956   3.155  2.1623  0.6602 -0.0722
 1151TIP3   OH225011   2.427   1.347   7.692 -0.5977  0.0830  0.2637
 1151TIP3    H125012   2.403   1.350   7.599  1.7803 -1.7175 -0.4927
 1151TIP3    H225013   2.425   1.254   7.714  2.1422  0.1341  1.0184
 1152TIP3   OH225014   3.106   2.711   6.667 -0.7747 -0.3417  0.2948
 1152TIP3    H125015   3.151   2.788   6.699 -0.1601 -0.1906 -0.8904
 1152TIP3    H225016   3.038   2.745   6.608 -1.6070 -0.6315  1.0610
 1153TIP3   OH225017   2.389   4.654   1.135  0.4469  0.4871  0.0127
 1153TIP3    H125018   2.342   4.736   1.152  0.6652  0.4487  0.8481
 1153TIP3    H225019   2.409   4.619   1.222  0.0404 -0.6405 -0.3322
 1154TIP3   OH225020   4.798   5.896   0.336  0.4162  0.2247  0.0588
 1154TIP3    H125021   4.731   5.902   0.405  0.9439  0.2725  0.5701
 1154TIP3    H225022   4.869   5.952   0.367  0.4108  0.7210 -0.8152
 1155TIP3   OH225023   6.318   6.815   8.285  0.2504 -0.0449  0.2120
 1155TIP3    H125024   6.253   6.864   8.336  0.4895  0.5937 -0.0818
 1155TIP3    H225025   6.309   6.849   8.196  1.8073  0.9362  0.4014
 1156TIP3   OH225026   0.611   3.349   1.454  0.2096 -0.5201  0.2192
 1156TIP3    H125027   0.637   3.303   1.374  1.3464  0.1062  0.2025
 1156TIP3    H225028   0.530   3.306   1.482  0.2332 -1.2705 -0.8257
 1157TIP3   OH225029   4.229   2.987   0.142  0.4641 -0.1797  0.4907
 1157TIP3    H125030   4.140   2.967   0.171  0.4642 -1.5324 -0.3340
 1157TIP3    H225031   4.286   2.947   0.208  0.4524 -0.7646  0.1549
 1158TIP3   OH225032   1.346   0.997   1.606  0.0882 -0.3869  0.4964
 1158TIP3    H125033   1.310   0.964   1.688 -0.4093 -0.4913  0.2397
 1158TIP3    H225034   1.399   0.925   1.572 -2.0719 -1.5191 -0.7474
 1159TIP3   OH225035   2.240   0.231   2.066  0.6866  0.0695  0.2482
 1159TIP3    H125036   2.233   0.259   1.975  1.4032 -0.1243  0.1315
 1159TIP3    H225037   2.306   0.162   2.066 -0.9138 -1.5469  0.5714
 1160TIP3   OH225038   1.855   2.392   8.179  0.9771  0.0112 -0.3855
 1160TIP3    H125039   1.766   2.374   8.210  0.5644  1.2221 -0.8229
 1160TIP3    H225040   1.911   2.346   8.241  0.1152  0.9562  1.1721
 1161TIP3   OH225041   2.834   4.837   2.002  0.4857 -0.2670  0.1017
 1161TIP3    H125042   2.790   4.800   2.079 -1.6218 -0.6273 -1.2006
 1161TIP3    H225043   2.819   4.931   2.008  0.3915 -0.2870  0.1728
 1162TIP3   OH225044   2.121   0.536   1.874  0.0116  0.5568  0.3376
 1162TIP3    H125045   2.188   0.468   1.872 -1.5189 -1.0089  0.2574
 1162TIP3    H225046   2.089   0.536   1.964 -0.0260  1.1677  0.3278
 1163TIP3   OH225047   6.813   1.488   0.822  0.3192 -0.0452 -0.1216
 1163TIP3    H125048   6.907   1.473   0.818  0.3793  0.0218  0.8507
 1163TIP3    H225049   6.804   1.574   0.864 -0.1852 -0.1987  0.0937
 1164TIP3   OH225050   0.321   0.745   0.126  0.1355 -0.7537 -0.1867
 1164TIP3    H125051   0.354   0.826   0.086  1.9754 -0.7840  1.1446
 1164TIP3    H225052   0.230   0.764   0.147  0.5380  0.9911  0.1226
 1165TIP3   OH225053   5.773   4.875   1.238 -0.1946 -0.1729  0.0898
 1165TIP3    H125054   5.733   4.937   1.299 -2.4811 -1.3135 -0.1577
 1165TIP3    H225055   5.824   4.816   1.294 -0.2777  0.2450  0.6145
 1166TIP3   OH225056   4.973   2.356   8.108  0.1464  0.5729  0.7254
 1166TIP3    H125057   4.937   2.287   8.053  0.3457 -0.3407  1.7004
 1166TIP3    H225058   4.901   2.418   8.119 -0.3397  0.0372  0.6151
 1167TIP3   OH225059   2.497   4.667   0.405 -0.5275  0.2479 -0.4702
 1167TIP3    H125060   2.524   4.757   0.427  0.7901 -0.0370 -0.8374
 1167TIP3    H225061   2.480   4.670   0.311 -1.4149  0.3121 -0.3238
 1168TIP3   OH225062   2.174   4.675   1.324  0.1831 -0.4228 -0.6735
 1168TIP3    H125063   2.092   4.629   1.343  0.5876 -1.1382 -0.6362
 1168TIP3    H225064   2.216   4.685   1.410  0.8541 -1.4487 -0.8669
 1169TIP3   OH225065   3.894   2.931   0.081  0.3551  0.4462 -0.2060
 1169TIP3    H125066   3.912   2.905  -0.010  1.6364  1.0361 -0.1323
 1169TIP3    H225067   3.885   2.848   0.128  1.5258  0.1142 -0.5329
 1170TIP3   OH225068   5.007   6.297   1.763  0.2630 -0.6442  0.1006
 1170TIP3    H125069   4.965   6.239   1.827 -4.2907  1.1994 -0.8452
 1170TIP3    H225070   5.057   6.238   1.706  1.5408 -2.7118  3.0961
 1171TIP3   OH225071   4.421   4.996   2.212  0.6438  0.3193 -0.4165
 1171TIP3    H125072   4.378   4.931   2.268  0.8849  0.2548 -0.3062
 1171TIP3    H225073   4.356   5.066   2.203  0.5320  0.2438 -0.2149
 1172TIP3   OH225074   0.476   2.583   2.193  0.4049 -0.3521  0.4097
 1172TIP3    H125075   0.495   2.659   2.248 -0.0555  0.0680 -0.0047
 1172TIP3    H225076   0.556   2.567   2.144  0.3745  0.0959  0.2206
 1173TIP3   OH225077   0.139   2.697   7.739  0.3128 -0.7789  0.5210
 1173TIP3    H125078   0.095   2.728   7.660  0.6604 -2.0051 -0.1833
 1173TIP3    H225079   0.089   2.619   7.766  0.5020 -0.6696  1.2087
 1174TIP3   OH225080   0.722   4.644   1.348 -0.5415  0.2553  0.2024
 1174TIP3    H125081   0.710   4.617   1.439  0.3549 -1.8635 -0.2262
 1174TIP3    H225082   0.633   4.650   1.313 -0.8476 -0.6086  0.7919
 1175TIP3   OH225083   5.655   2.254   8.616  0.3304 -0.1735 -0.1958
 1175TIP3    H125084   5.631   2.195   8.543 -1.4156 -1.3995  1.2627
 1175TIP3    H225085   5.743   2.227   8.640  1.2744  0.7800 -2.2847
 1176TIP3   OH225086   1.718   2.971   1.896 -0.2486  0.4618  0.2706
 1176TIP3    H125087   1.742   3.051   1.849 -1.2749 -0.4676 -1.9649
 1176TIP3    H225088   1.696   2.908   1.827 -2.9661 -0.6575  2.0010
 1177TIP3   OH225089   5.815   0.296   1.997  0.0956  0.0836  0.3385
 1177TIP3    H125090   5.745   0.245   2.038 -1.5668 -0.0565 -2.4483
 1177TIP3    H225091   5.868   0.231   1.951  0.2276  0.5051 -0.1117
 1178TIP3   OH225092   4.720   5.354   7.637  0.2664  0.8378  0.3205
 1178TIP3    H125093   4.755   5.315   7.557  0.6144  3.5774 -0.9915
 1178TIP3    H225094   4.636   5.392   7.611 -0.0131  1.0393  1.4665
 1179TIP3   OH225095   3.925   5.084   1.713 -0.3005  0.5666  0.2928
 1179TIP3    H125096   3.839   5.060   1.681 -1.0989  1.8344  1.3734
 1179TIP3    H225097   3.956   5.007   1.760  0.0735 -0.6227 -1.7632
 1180TIP3   OH225098   4.778   3.233   7.516 -0.7476  0.0047 -0.5256
 1180TIP3    H125099   4.726   3.161   7.551 -1.1810  0.4187 -0.3096
 1180TIP3    H225100   4.716   3.283   7.463 -0.5344  0.4221 -0.3766
 1181TIP3   OH225101   3.111   6.623   8.397  0.5062 -0.3565 -0.5619
 1181TIP3    H125102   3.045   6.634   8.466  1.7819  1.3573  0.4636
 1181TIP3    H225103   3.161   6.546   8.426 -0.1805 -0.8375 -0.6278
 1182TIP3   OH225104   5.048   4.442   7.967  0.2285 -0.3626  0.2662
 1182TIP3    H125105   5.112   4.506   7.934  0.0884 -1.2497 -1.8585
 1182TIP3    H225106   4.965   4.467   7.926  0.1937 -1.9398 -0.7082
 1183TIP3   OH225107   0.366   1.497   0.994 -0.6792  0.5619 -0.4580
 1183TIP3    H125108   0.381   1.557   1.067 -1.6453  3.3523 -2.3966
 1183TIP3    H225109   0.426   1.424   1.011  0.1325  1.7379  2.3492
 1184TIP3   OH225110   5.334   3.481   1.911 -0.1594 -0.0094  0.1506
 1184TIP3    H125111   5.369   3.493   1.823  2.9729 -0.1172  1.2454
 1184TIP3    H225112   5.326   3.386   1.920 -1.6703  0.0471 -0.3898
 1185TIP3   OH225113   4.867   5.791   8.624 -0.5642 -0.3143  0.8068
 1185TIP3    H125114   4.805   5.741   8.678 -0.0403 -0.0834  1.6289
 1185TIP3    H225115   4.894   5.729   8.557 -2.3168 -0.1827 -0.0905
 1186TIP3   OH225116   6.577   0.620   8.387  0.1383 -0.1256  0.1403
 1186TIP3    H125117   6.543   0.706   8.409 -2.8118 -0.7688 -1.4123
 1186TIP3    H225118   6.592   0.577   8.471 -2.3284  0.5096  0.9748
 1187TIP3   OH225119   2.744   4.602   1.359  0.2317  0.2611 -0.2728
 1187TIP3    H125120   2.768   4.671   1.296  1.8923  1.1605  1.2405
 1187TIP3    H225121   2.658   4.571   1.329  0.1596  1.8706 -1.9355
 1188TIP3   OH225122   2.980   0.976   2.242  0.1622 -0.3834  0.0673
 1188TIP3    H125123   2.967   0.944   2.331 -0.6484  0.2089  0.1685
 1188TIP3    H225124   2.926   1.055   2.237  2.6624  1.4437  0.0703
 1189TIP3   OH225125   6.119   2.521   0.552 -0.1838  0.0733  0.1325
 1189TIP3    H125126   6.030   2.555   0.562  0.0753  0.9808 -0.4782
 1189TIP3    H225127   6.128   2.506   0.458  1.0396  2.1946 -0.1794
 1190TIP3   OH225128   1.416   4.263   0.420  0.6089 -0.1050 -0.2551
 1190TIP3    H125129   1.435   4.285   0.511 -1.3197 -1.8241  0.6463
 1190TIP3    H225130   1.369   4.339   0.387  1.4434  0.5936  0.1433
 1191TIP3   OH225131   2.051   1.755   0.299  0.0690  0.3440 -0.5320
 1191TIP3    H125132   2.085   1.835   0.339 -1.1508  0.3437  0.5948
 1191TIP3    H225133   2.027   1.782   0.210 -0.9469  1.4581  0.0315
 1192TIP3   OH225134   3.976   4.297   2.398 -0.5691  0.1601  0.1906
 1192TIP3    H125135   3.930   4.270   2.477  0.2476 -0.5022  0.4515
 1192TIP3    H225136   4.020   4.378   2.423 -1.4612  0.7291 -0.0235
 1193TIP3   OH225137   3.903   0.112   6.899 -0.0547  0.0473 -0.0922
 1193TIP3    H125138   3.955   0.185   6.867  0.1657 -0.4550 -0.9186
 1193TIP3    H225139   3.888   0.131   6.991 -0.1461  1.2173 -0.3317
 1194TIP3   OH225140   4.343   4.228   7.436 -0.0369  0.8160  0.4961
 1194TIP3    H125141   4.287   4.199   7.363  0.5659 -0.2437  0.4366
 1194TIP3    H225142   4.281   4.250   7.506 -0.6013  1.3861 -0.1668
 1195TIP3   OH225143   0.103   4.580   7.291  0.3470  0.3216 -0.1543
 1195TIP3    H125144   0.160   4.519   7.337 -0.5755  0.5241  1.3248
 1195TIP3    H225145   0.094   4.543   7.203  0.6883 -1.0806  0.3758
 1196TIP3   OH225146   6.283   2.285   2.047  0.1655  0.7812 -0.3233
 1196TIP3    H125147   6.371   2.312   2.073 -0.5770  1.7104  1.3938
 1196TIP3    H225148   6.277   2.310   1.955  2.2531 -0.8889 -0.9923
 1197TIP3   OH225149   6.138   1.306   7.873  0.4143  0.8767  0.3074
 1197TIP3    H125150   6.163   1.242   7.807  0.7194  1.1348  0.1675
 1197TIP3    H225151   6.052   1.338   7.845 -0.9441 -1.2856  1.7276
 1198TIP3   OH225152   1.237   6.443   6.834  0.1349 -0.2801  0.0983
 1198TIP3    H125153   1.190   6.445   6.751 -1.7160 -0.5613  1.0891
 1198TIP3    H225154   1.329   6.453   6.809 -0.2880 -1.0594 -2.0206
 1199TIP3   OH225155   0.930   3.569   7.477  0.0837  0.3065 -0.3243
 1199TIP3    H125156   0.996   3.603   7.417 -0.4669  0.2618 -0.9578
 1199TIP3    H225157   0.936   3.474   7.467 -1.0092  0.3362 -1.4051
 1200TIP3   OH225158   5.159   2.833   2.080 -0.5393 -0.4820 -0.4502
 1200TIP3    H125159   5.212   2.776   2.024 -0.0709  0.0992 -0.6096
 1200TIP3    H225160   5.114   2.773   2.140  0.1038 -1.0066 -0.4799
 1201TIP3   OH225161   4.002   3.160   2.198  0.5769 -0.5156  0.3056
 1201TIP3    H125162   3.952   3.241   2.211  2.4966  0.5331  1.5986
 1201TIP3    H225163   4.047   3.146   2.281  2.6633 -1.2192 -0.8645
 1202TIP3   OH225164   0.519   5.476   0.888 -0.0363  0.0428  0.5621
 1202TIP3    H125165   0.498   5.563   0.921  0.3087 -0.1457  1.2984
 1202TIP3    H225166   0.541   5.425   0.966  2.8194  0.1205 -0.0900
 1203TIP3   OH225167   2.110   3.204   1.089  0.4139  0.3140 -0.2649
 1203TIP3    H125168   2.101   3.298   1.105  0.0555  0.3844 -0.8592
 1203TIP3    H225169   2.190   3.197   1.038  0.3345  0.3167 -0.3899
 1204TIP3   OH225170   0.386   1.883   2.320 -0.1796 -0.1252 -0.0212
 1204TIP3    H125171   0.449   1.863   2.250 -0.1888 -2.4258  0.5329
 1204TIP3    H225172   0.440   1.897   2.398 -0.2826 -1.0676  0.2318
 1205TIP3   OH225173   5.333   5.178   8.009  0.0479  0.5151  0.1611
 1205TIP3    H125174   5.401   5.217   7.955  1.3102  0.2739  1.5084
 1205TIP3    H225175   5.348   5.084   8.001 -0.0069  0.4671  0.5969
 1206TIP3   OH225176   3.952   4.566   2.523 -0.4240  0.5819 -0.1260
 1206TIP3    H125177   3.876   4.551   2.579 -0.8212  1.2230 -0.4885
 1206TIP3    H225178   4.000   4.636   2.565 -0.5478  0.8386 -0.4094
 1207TIP3   OH225179   6.390   3.348   2.272 -0.5436  0.3103  0.4464
 1207TIP3    H125180   6.306   3.393   2.260 -0.6792 -0.0755 -0.0773
 1207TIP3    H225181   6.367   3.262   2.307 -0.4783 -0.2755 -0.8731
 1208TIP3   OH225182   0.073   5.135   8.451  0.0868  0.2850 -0.0120
 1208TIP3    H125183   0.128   5.061   8.427  0.2088  0.1244  0.7294
 1208TIP3    H225184   0.129   5.190   8.506 -1.0911 -0.9701  2.5856
 1209TIP3   OH225185   3.266   5.566   8.566 -0.1108 -0.3244  0.0039
 1209TIP3    H125186   3.236   5.636   8.624 -2.6934 -0.4582 -1.0448
 1209TIP3    H225187   3.209   5.573   8.489  1.2422 -2.0194 -1.2276
 1210TIP3   OH225188   0.393   5.097   8.211  0.3965  0.0655  0.0477
 1210TIP3    H125189   0.337   5.066   8.282 -0.3589  2.4974  0.6140
 1210TIP3    H225190   0.350   5.066   8.131 -1.0333  0.7188  0.5312
 1211TIP3   OH225191   5.712   4.268   1.749  0.1961  0.2915  0.3530
 1211TIP3    H125192   5.771   4.267   1.674 -0.7212  0.7547 -0.3941
 1211TIP3    H225193   5.703   4.175   1.773  1.7669  0.2625  0.9407
 1212TIP3   OH225194   1.497   0.165   2.750  0.3032 -0.1150  0.3523
 1212TIP3    H125195   1.522   0.078   2.719  1.9414  1.0265 -1.7704
 1212TIP3    H225196   1.557   0.183   2.822  0.9114 -0.1761 -0.1390
 1213TIP3   OH225197   6.729   2.963   1.036 -0.1057  0.2468 -0.4315
 1213TIP3    H125198   6.748   2.883   0.986 -1.8279 -0.3388 -0.1879
 1213TIP3    H225199   6.812   2.985   1.078 -0.2287 -3.2065  2.0594
 1214TIP3   OH225200   5.586   4.330   7.822 -0.0573 -0.0990 -0.1024
 1214TIP3    H125201   5.637   4.302   7.746  1.6454  0.3950  0.7974
 1214TIP3    H225202   5.495   4.327   7.793  0.1529 -4.0925 -0.8087
 1215TIP3   OH225203   5.132   6.517   2.312 -0.7706 -0.2840  0.0812
 1215TIP3    H125204   5.152   6.456   2.241 -2.2899  0.5176 -1.0991
 1215TIP3    H225205   5.198   6.585   2.305 -0.6437 -0.4431 -0.2839
 1216TIP3   OH225206   6.006   0.635   7.001 -0.0831  0.5295  0.4917
 1216TIP3    H125207   6.078   0.694   7.020  0.5347  0.1321 -0.5023
 1216TIP3    H225208   5.956   0.679   6.933  0.1911  0.0694 -0.0162
 1217TIP3   OH225209   3.132   5.716   2.355 -0.1093 -0.1041 -0.1181
 1217TIP3    H125210   3.073   5.788   2.331  0.9823  0.6288 -0.7132
 1217TIP3    H225211   3.134   5.718   2.451  0.6218  1.2978 -0.1328
 1218TIP3   OH225212   3.519   6.821   6.915  0.4995  0.2554 -0.1996
 1218TIP3    H125213   3.563   6.786   6.837 -0.0703  0.5834 -0.6863
 1218TIP3    H225214   3.486   6.906   6.887  0.4730  0.4681  0.4737
 1219TIP3   OH225215   0.384   5.891   1.141 -0.0928 -0.1486 -0.2185
 1219TIP3    H125216   0.312   5.942   1.178 -0.1165 -2.1302  2.8096
 1219TIP3    H225217   0.461   5.918   1.191  0.4250 -1.0516 -0.4970
 1220TIP3   OH225218   4.889   3.209   0.242 -1.0155  0.2159 -0.2462
 1220TIP3    H125219   4.943   3.282   0.213 -0.6066 -0.4810 -1.3105
 1220TIP3    H225220   4.806   3.219   0.194 -0.6128 -0.5197 -1.1364
 1221TIP3   OH225221   3.837   2.037   1.051  0.2172  0.6607  0.8536
 1221TIP3    H125222   3.874   1.968   0.996  0.6380  0.3421  1.5260
 1221TIP3    H225223   3.773   1.993   1.107 -0.0629  0.9457  0.7621
 1222TIP3   OH225224   0.642   5.391   7.778  0.7889 -0.1441 -0.1976
 1222TIP3    H125225   0.716   5.391   7.839  0.2833  1.5614  0.4665
 1222TIP3    H225226   0.674   5.341   7.703  2.8062  0.9341 -0.1347
 1223TIP3   OH225227   0.007   1.850   8.343  0.0901  0.1257  0.0998
 1223TIP3    H125228  -0.003   1.899   8.261 -1.3260  0.9654  0.7446
 1223TIP3    H225229   0.089   1.802   8.332  0.1189  0.5187 -1.6531
 1224TIP3   OH225230   0.804   3.840   0.275  0.1960  0.0760 -0.1873
 1224TIP3    H125231   0.820   3.846   0.180 -3.4719  0.2037 -0.9409
 1224TIP3    H225232   0.750   3.917   0.295 -0.6411 -0.9144  1.6071
 1225TIP3   OH225233   5.772   1.698   1.235  0.4561  0.1726 -0.2117
 1225TIP3    H125234   5.784   1.693   1.140  1.4869  1.5548 -0.1922
 1225TIP3    H225235   5.682   1.728   1.247 -0.7382 -2.9071 -0.6216
 1226TIP3   OH225236   1.429   1.303   0.141  0.0134 -0.1383 -0.2121
 1226TIP3    H125237   1.418   1.234   0.076  0.6446 -1.5368  1.1019
 1226TIP3    H225238   1.495   1.362   0.103 -0.0581 -0.6027 -1.0694
 1227TIP3   OH225239   3.473   4.440   8.655 -0.5345 -0.2662  0.5872
 1227TIP3    H125240   3.408   4.463   8.722 -0.2709  1.6726  0.2486
 1227TIP3    H225241   3.530   4.377   8.698 -1.7965 -0.9426  1.3566
 1228TIP3   OH225242   4.832   1.416   8.133  0.0688  0.1207 -0.3678
 1228TIP3    H125243   4.765   1.472   8.173 -0.2276 -0.0765 -0.5861
 1228TIP3    H225244   4.802   1.403   8.043  0.8669  0.7679 -0.7408
 1229TIP3   OH225245   5.719   3.994   6.943 -0.3334 -0.7156 -0.8898
 1229TIP3    H125246   5.806   3.989   6.904 -1.3009 -0.4703 -3.2766
 1229TIP3    H225247   5.702   4.088   6.952  0.5568 -0.7626  1.9069
 1230TIP3   OH225248   4.892   2.441   0.828 -0.0466 -0.2061  0.6723
 1230TIP3    H125249   4.969   2.495   0.846 -0.3065  0.2485  0.4482
 1230TIP3    H225250   4.879   2.450   0.733 -0.5306 -0.0592  0.7498
 1231TIP3   OH225251   5.797   6.565   1.634  0.1656  0.6353  0.3044
 1231TIP3    H125252   5.858   6.633   1.605  1.1800  0.5852  2.1767
 1231TIP3    H225253   5.768   6.593   1.720  0.0328 -0.9206  0.8093
 1232TIP3   OH225254   2.271   4.317   1.500 -0.4408 -0.0486  0.5731
 1232TIP3    H125255   2.355   4.310   1.544 -0.3731 -0.1230  0.4351
 1232TIP3    H225256   2.222   4.383   1.550 -1.0403 -1.3974  1.8497
 1233TIP3   OH225257   6.500   6.060   1.313  0.1002 -0.1830 -0.2860
 1233TIP3    H125258   6.465   6.145   1.340 -1.1501 -0.6294 -0.4382
 1233TIP3    H225259   6.436   6.027   1.250  0.1951 -1.5453  0.2968
 1234TIP3   OH225260   3.714   3.583   6.982 -0.2063  0.1326  0.0383
 1234TIP3    H125261   3.641   3.633   7.019 -0.3755 -0.0217 -0.0797
 1234TIP3    H225262   3.688   3.491   6.994 -1.9877 -0.0236 -3.6333
 1235TIP3   OH225263   2.538   5.389   2.736  0.2973  0.2894 -0.0708
 1235TIP3    H125264   2.447   5.369   2.712  0.3812  1.8151 -1.8876
 1235TIP3    H225265   2.554   5.476   2.699  2.9643 -0.5589 -1.1415
 1236TIP3   OH225266   3.818   1.335   0.015  0.4503 -0.5735  0.3623
 1236TIP3    H125267   3.730   1.302   0.033  0.6538 -1.3941 -0.1005
 1236TIP3    H225268   3.850   1.280  -0.056  0.4856  1.1767 -1.0443
 1237TIP3   OH225269   5.571   4.382   1.298  0.3498  0.5430 -0.2924
 1237TIP3    H125270   5.523   4.430   1.230  0.1125  0.2993 -0.3023
 1237TIP3    H225271   5.516   4.390   1.376  1.1611  1.7584  0.1768
 1238TIP3   OH225272   5.864   1.968   0.244 -0.2613 -0.5812 -0.1763
 1238TIP3    H125273   5.924   1.933   0.310  0.7735 -0.1266 -0.8516
 1238TIP3    H225274   5.812   1.892   0.218 -0.3751 -0.8654  0.8267
 1239TIP3   OH225275   0.499   0.570   2.361 -0.1569 -0.0640  0.1559
 1239TIP3    H125276   0.580   0.584   2.411  1.5014  0.1350 -2.4238
 1239TIP3    H225277   0.443   0.519   2.420  1.2114  1.0422  2.5820
 1240TIP3   OH225278   6.012   1.261   0.195  0.2485 -0.3525  0.0327
 1240TIP3    H125279   5.999   1.178   0.241 -0.2967  0.8528  2.2343
 1240TIP3    H225280   6.104   1.260   0.169  0.9069 -0.7227  2.1358
 1241TIP3   OH225281   2.406   3.255   0.120 -0.2439 -0.3480  0.1765
 1241TIP3    H125282   2.343   3.186   0.099  0.0739 -0.5340 -0.1799
 1241TIP3    H225283   2.387   3.325   0.057  0.6238 -0.8527 -0.6644
 1242TIP3   OH225284   5.669   0.009   0.524  0.0953 -0.3235  0.0844
 1242TIP3    H125285   5.661  -0.060   0.589  0.0523 -0.3313  0.0708
 1242TIP3    H225286   5.754  -0.007   0.482  0.4782  0.1315  0.6652
 1243TIP3   OH225287   1.776   0.425   0.574 -0.3900 -0.1279 -0.3639
 1243TIP3    H125288   1.801   0.446   0.664 -2.1126 -0.6655  0.2672
 1243TIP3    H225289   1.717   0.496   0.549 -2.9322 -1.8818  0.3106
 1244TIP3   OH225290   3.004   5.317   0.415 -0.1722 -0.7711 -0.1308
 1244TIP3    H125291   3.088   5.274   0.400  0.2616 -0.0433  0.1532
 1244TIP3    H225292   2.941   5.263   0.368  0.1069 -2.6133  1.4741
 1245TIP3   OH225293   4.365   3.018   1.076 -0.0300  0.3046  0.3872
 1245TIP3    H125294   4.275   3.051   1.078  0.9235  3.1608  1.7248
 1245TIP3    H225295   4.380   2.985   1.164  0.4602  0.6106  0.4251
 1246TIP3   OH225296   0.904   5.299   7.571 -0.1170  0.0572 -0.2630
 1246TIP3    H125297   0.897   5.394   7.569  1.2428  0.1965  0.6965
 1246TIP3    H225298   0.966   5.278   7.501 -0.8897 -0.2015 -0.8939
 1247TIP3   OH225299   0.322   0.062   3.115 -0.3906 -0.3789 -0.2026
 1247TIP3    H125300   0.254   0.079   3.050 -0.8811 -1.0462  0.1278
 1247TIP3    H225301   0.381  -0.000   3.073 -0.1566 -0.0541 -0.3652
 1248TIP3   OH225302   2.941   4.900   8.649 -0.0332 -0.2779  0.2028
 1248TIP3    H125303   2.992   4.938   8.577  0.7320 -0.6964  0.5072
 1248TIP3    H225304   2.850   4.918   8.626  0.2875  1.8527  0.4047
 1249TIP3   OH225305   4.855   1.705   0.497  0.4727  0.7359  0.5401
 1249TIP3    H125306   4.917   1.709   0.570 -0.6971 -0.6151  1.6436
 1249TIP3    H225307   4.770   1.688   0.538  0.0606 -1.9835 -1.2396
 1250TIP3   OH225308   4.555   1.185   2.164 -0.1405 -0.3995  0.8009
 1250TIP3    H125309   4.597   1.264   2.198 -0.2742 -0.7354  1.7909
 1250TIP3    H225310   4.617   1.149   2.102  3.0827 -3.0899  5.0011
 1251TIP3   OH225311   5.886   0.028   8.219 -0.8382 -0.2812  0.9656
 1251TIP3    H125312   5.835   0.081   8.158  0.8674  1.9137  1.3131
 1251TIP3    H225313   5.939  -0.029   8.163 -1.5404 -0.4938  0.5102
 1252TIP3   OH225314   4.024   4.614   7.545 -0.2514  0.0405  0.3144
 1252TIP3    H125315   4.047   4.645   7.633  0.7561 -0.1078  0.1208
 1252TIP3    H225316   4.048   4.687   7.487  1.9429 -0.9410 -0.1253
 1253TIP3   OH225317   1.456   1.516   1.547  0.1590  0.3406  0.1381
 1253TIP3    H125318   1.503   1.531   1.629 -2.5988 -0.2474  1.9793
 1253TIP3    H225319   1.393   1.588   1.542 -1.6338 -1.1182  0.1330
 1254TIP3   OH225320   1.515   0.909   7.593  0.4442 -0.1216  0.3874
 1254TIP3    H125321   1.521   0.847   7.520 -1.7180 -1.5440  1.2691
 1254TIP3    H225322   1.526   0.995   7.554  1.4336 -0.9557 -1.2556
 1255TIP3   OH225323   2.419   5.568   1.933 -0.5929 -0.4484 -0.2554
 1255TIP3    H125324   2.383   5.592   1.848 -0.0050 -1.9831 -0.9542
 1255TIP3    H225325   2.410   5.473   1.938  0.8574 -0.5693  0.7137
 1256TIP3   OH225326   2.668   4.928   6.725 -0.0415 -0.4468  0.2054
 1256TIP3    H125327   2.700   5.015   6.702 -1.6137  0.7199  2.1214
 1256TIP3    H225328   2.677   4.877   6.644  2.4020  0.9751 -0.5391
 1257TIP3   OH225329   3.228   6.640   2.328 -0.9991  0.1311 -0.1161
 1257TIP3    H125330   3.157   6.632   2.391 -0.1196  1.3177  1.0719
 1257TIP3    H225331   3.299   6.589   2.366 -0.5192  0.7079 -0.2283
 1258TIP3   OH225332   3.081   2.984   8.265  0.2040 -0.4867  0.3648
 1258TIP3    H125333   3.085   3.053   8.330  1.7558 -0.4754  0.2943
 1258TIP3    H225334   3.068   2.904   8.315  3.0839 -0.7135  0.9501
 1259TIP3   OH225335   6.677   6.825   0.996  0.0751  0.5916  0.4621
 1259TIP3    H125336   6.677   6.868   0.911  4.5658  0.1451  0.0000
 1259TIP3    H225337   6.660   6.733   0.976 -3.4536  1.0551  0.7497
 1260TIP3   OH225338   0.147   1.687   8.105 -0.4970 -0.0399  0.0913
 1260TIP3    H125339   0.136   1.683   8.010  0.2887  1.4014 -0.0815
 1260TIP3    H225340   0.089   1.618   8.138 -1.2422 -0.1730 -1.3883
 1261TIP3   OH225341   6.309   4.647   1.425  0.2243  0.5866 -0.2031
 1261TIP3    H125342   6.376   4.677   1.486  1.2495 -0.9712 -0.5132
 1261TIP3    H225343   6.331   4.688   1.342  0.1047  0.9973 -0.0314
 1262TIP3   OH225344   2.817   1.786   1.654 -0.5005 -0.2595 -0.1724
 1262TIP3    H125345   2.766   1.822   1.727  1.7395  0.5317  1.1093
 1262TIP3    H225346   2.775   1.822   1.576 -0.8301  1.8591  0.9087
 1263TIP3   OH225347   6.621   0.545   1.346 -0.1561 -0.0179  0.1881
 1263TIP3    H125348   6.631   0.450   1.347 -1.2473 -0.1536  1.5886
 1263TIP3    H225349   6.696   0.578   1.394  0.1304 -0.1764 -0.1458
 1264TIP3   OH225350   6.116   2.219   7.155 -0.1566  0.4952 -0.2142
 1264TIP3    H125351   6.208   2.197   7.165 -0.2436  1.0489  3.1017
 1264TIP3    H225352   6.070   2.136   7.164 -0.0250  0.4926  0.5613
 1265TIP3   OH225353   2.301   0.007   6.869  0.1752 -0.7224  0.2307
 1265TIP3    H125354   2.336   0.051   6.946 -0.1977 -0.8913  0.5000
 1265TIP3    H225355   2.293  -0.085   6.895  2.2514 -1.2683 -0.7546
 1266TIP3   OH225356   4.385   6.576   0.389  0.3441 -0.5119  0.2466
 1266TIP3    H125357   4.304   6.596   0.341  0.8926 -0.4870 -0.6940
 1266TIP3    H225358   4.372   6.616   0.475 -0.6629 -0.5487  0.1224
 1267TIP3   OH225359   5.412   3.224   1.918 -0.2574  0.0003 -0.7641
 1267TIP3    H125360   5.471   3.193   1.850  0.1325 -0.7081 -0.1204
 1267TIP3    H225361   5.347   3.154   1.926  0.7363 -0.7961  0.8324
 1268TIP3   OH225362   2.527   0.504   1.712 -0.3860  0.4707 -0.4922
 1268TIP3    H125363   2.572   0.477   1.631  0.2641 -1.8801  0.5440
 1268TIP3    H225364   2.549   0.596   1.722  0.5975  0.4939 -2.3218
 1269TIP3   OH225365   0.358   0.861   7.265 -0.4475 -0.5917  0.6168
 1269TIP3    H125366   0.453   0.861   7.256 -0.4280  0.3362  0.7230
 1269TIP3    H225367   0.336   0.771   7.285  0.2336 -1.1953 -1.1612
 1270TIP3   OH225368   6.184   0.372   8.677 -0.6399  0.3265 -0.0672
 1270TIP3    H125369   6.210   0.309   8.610  0.4104 -0.1185  0.7191
 1270TIP3    H225370   6.095   0.398   8.653  0.5260  1.9914 -2.9540
 1271TIP3   OH225371   1.426   2.105   7.208 -0.4602  0.6241  0.2918
 1271TIP3    H125372   1.384   2.126   7.125  0.5659 -1.0114 -0.7074
 1271TIP3    H225373   1.443   2.190   7.249 -2.2278  1.4057 -0.5101
 1272TIP3   OH225374   6.465   1.836   1.809  0.0971 -0.1250 -0.7745
 1272TIP3    H125375   6.375   1.865   1.789  0.6656  0.1989 -3.2352
 1272TIP3    H225376   6.499   1.904   1.867 -1.3542 -0.4913  0.5920
 1273TIP3   OH225377   1.636   1.028   7.848 -0.2607 -0.4473 -0.1635
 1273TIP3    H125378   1.658   1.080   7.770 -0.4996  0.0215  0.0828
 1273TIP3    H225379   1.606   0.945   7.812 -0.8843 -0.0437 -0.5939
 1274TIP3   OH225380   3.337   2.340   1.150  0.4254  0.1797  0.3027
 1274TIP3    H125381   3.242   2.340   1.141  0.1494 -1.1374  2.5586
 1274TIP3    H225382   3.353   2.300   1.235  2.9756  1.3589  0.4664
 1275TIP3   OH225383   4.771   5.158   7.433 -0.0072  0.0249  0.1768
 1275TIP3    H125384   4.681   5.132   7.454  0.2544 -0.0873  1.2226
 1275TIP3    H225385   4.809   5.081   7.390 -0.9523  0.7103 -2.0532
 1276TIP3   OH225386   2.874   2.427   1.581  0.2149  0.0916  0.8804
 1276TIP3    H125387   2.887   2.522   1.581 -0.6611  0.2304 -0.1997
 1276TIP3    H225388   2.953   2.392   1.621 -0.4316  1.3919  3.5270
 1277TIP3   OH225389   3.084   5.074   2.298  0.8951  0.4410 -0.1457
 1277TIP3    H125390   3.073   5.067   2.393  0.6416 -0.2991 -0.2226
 1277TIP3    H225391   3.074   4.984   2.266 -0.6228  0.8948 -1.0517
 1278TIP3   OH225392   5.635   1.242   0.189 -0.1405 -0.1238  0.6551
 1278TIP3    H125393   5.555   1.293   0.198 -0.5972 -0.7613  0.3069
 1278TIP3    H225394   5.605   1.154   0.165  0.4625 -1.2995  3.7338
 1279TIP3   OH225395   1.024   2.330   7.688 -0.2673  0.1112 -0.2508
 1279TIP3    H125396   0.931   2.332   7.668 -0.0907  0.4013 -1.0631
 1279TIP3    H225397   1.059   2.411   7.652  0.1423  0.4463  0.8754
 1280TIP3   OH225398   1.381   6.126   7.667 -0.1784 -0.2432  0.1702
 1280TIP3    H125399   1.463   6.120   7.618 -0.0275  0.4197  0.3386
 1280TIP3    H225400   1.408   6.127   7.758 -0.4117 -0.5606  0.2457
 1281TIP3   OH225401   3.662   2.396   7.342  0.2008 -0.0048 -0.4707
 1281TIP3    H125402   3.719   2.324   7.313  0.4472  0.2802 -0.6913
 1281TIP3    H225403   3.602   2.410   7.269  1.3120  1.2303 -1.1863
 1282TIP3   OH225404   0.451   0.098   1.338  0.6222  0.1512  0.3421
 1282TIP3    H125405   0.384   0.073   1.402  0.9954  0.2046  0.7573
 1282TIP3    H225406   0.473   0.015   1.295 -0.1447  0.2270 -0.2308
 1283TIP3   OH225407   5.953   3.835   2.032  0.3139 -0.7947  0.4824
 1283TIP3    H125408   6.047   3.816   2.036  0.7311  1.0891  0.6789
 1283TIP3    H225409   5.944   3.917   2.080 -1.3737 -0.7137  0.0622
 1284TIP3   OH225410   5.964   6.745   0.654 -0.1855  0.0019  0.1985
 1284TIP3    H125411   6.055   6.715   0.654  0.1292  0.8918 -0.3238
 1284TIP3    H225412   5.914   6.673   0.693  0.9465  0.1604  2.0443
 1285TIP3   OH225413   6.724   4.062   0.638  0.7866 -0.2545 -0.0413
 1285TIP3    H125414   6.788   4.073   0.567  0.7543 -0.5809 -0.1245
 1285TIP3    H225415   6.640   4.086   0.597  0.8248 -0.0336  0.0073
 1286TIP3   OH225416   0.838   2.902   7.892 -0.2047 -0.2604  0.0239
 1286TIP3    H125417   0.816   2.909   7.799  0.0958  1.3539  0.0405
 1286TIP3    H225418   0.818   2.988   7.927 -1.4092 -1.1780  1.7316
 1287TIP3   OH225419   0.657   5.023   8.337 -0.4352 -0.2323 -0.2264
 1287TIP3    H125420   0.658   4.930   8.357  1.2315  0.5392  4.8193
 1287TIP3    H225421   0.564   5.046   8.334 -0.8658 -1.9452 -1.3853
 1288TIP3   OH225422   2.992   2.296   0.107  0.3360  0.1442  0.2253
 1288TIP3    H125423   3.034   2.217   0.075  0.7161 -1.1727  3.5317
 1288TIP3    H225424   3.056   2.336   0.166 -1.0747  1.0016  1.2634
 1289TIP3   OH225425   3.228   6.596   0.834  0.0809 -0.1279 -0.1619
 1289TIP3    H125426   3.151   6.643   0.865 -0.4050 -1.2492  0.3767
 1289TIP3    H225427   3.192   6.524   0.782  0.7087 -1.1870  0.8216
 1290TIP3   OH225428   3.421   3.465   0.831  0.4348  0.7040  0.6940
 1290TIP3    H125429   3.381   3.526   0.769  1.3986 -1.0707 -1.8416
 1290TIP3    H225430   3.511   3.495   0.841  0.1165  1.3559  1.8252
 1291TIP3   OH225431   0.463   3.736   1.515 -0.0656  0.1181  0.4448
 1291TIP3    H125432   0.532   3.699   1.460 -0.8211 -1.0846  0.2677
 1291TIP3    H225433   0.440   3.665   1.576 -0.0383  1.0426  1.5718
 1292TIP3   OH225434   2.466   2.016   0.391  0.1440 -0.6418  0.8394
 1292TIP3    H125435   2.403   1.953   0.426 -0.3064 -0.3206  0.6242
 1292TIP3    H225436   2.412   2.089   0.362  0.5810 -0.5375  0.2717
 1293TIP3   OH225437   1.914   3.518   6.528  0.1006 -0.3644  0.0584
 1293TIP3    H125438   1.876   3.596   6.488  0.6310 -0.1384 -0.0172
 1293TIP3    H225439   1.967   3.551   6.600  1.4538 -0.5150 -0.8272
 1294TIP3   OH225440   5.843   2.219   2.558 -0.2544  0.3941 -0.3590
 1294TIP3    H125441   5.929   2.217   2.516 -0.8128 -0.2565 -1.5354
 1294TIP3    H225442   5.855   2.171   2.640  0.4613  0.1594 -0.5960
 1295TIP3   OH225443   3.081   4.084   2.341 -0.4268  0.0424  0.6829
 1295TIP3    H125444   3.121   4.169   2.362  0.4995 -0.4720  1.0756
 1295TIP3    H225445   3.021   4.103   2.269 -0.1249  1.0070  0.6682
 1296TIP3   OH225446   3.025   6.704   8.039 -0.0540 -0.0677 -0.2561
 1296TIP3    H125447   3.069   6.762   7.977 -0.4974  1.3891  0.7196
 1296TIP3    H225448   2.960   6.761   8.082 -1.3440 -1.6002 -0.1041
 1297TIP3   OH225449   5.888   6.132   7.894  0.2807  0.2330  0.6591
 1297TIP3    H125450   5.926   6.220   7.888  0.9929 -0.0911  0.3038
 1297TIP3    H225451   5.963   6.073   7.891 -0.1304 -0.3725  1.6508
 1298TIP3   OH225452   2.296   1.252   0.225  0.0778  0.5024  0.0541
 1298TIP3    H125453   2.305   1.330   0.281 -3.1464 -0.1774  1.7508
 1298TIP3    H225454   2.224   1.274   0.166  0.4784 -0.4945 -0.8280
 1299TIP3   OH225455   5.518   2.737   8.167  0.1018 -0.0406 -0.1605
 1299TIP3    H125456   5.555   2.649   8.179 -0.2814  0.0304  1.8013
 1299TIP3    H225457   5.439   2.737   8.220 -0.6519  1.0790 -1.2315
 1300TIP3   OH225458   5.126   0.812   2.484  0.0957  0.3691  0.2430
 1300TIP3    H125459   5.137   0.748   2.555  1.9356 -0.3061 -0.5936
 1300TIP3    H225460   5.128   0.759   2.404 -1.9996  1.1177 -0.3787
 1301TIP3   OH225461   3.555   5.237   2.676 -0.2285 -0.5648  0.1344
 1301TIP3    H125462   3.612   5.307   2.708 -1.1178  0.8400 -1.2225
 1301TIP3    H225463   3.467   5.275   2.677 -0.8952 -2.0271  0.3312
 1302TIP3   OH225464   3.401   1.282   1.087  0.3625 -0.1281  0.1152
 1302TIP3    H125465   3.401   1.284   1.182 -0.8501 -0.8739  0.1518
 1302TIP3    H225466   3.308   1.281   1.062  0.6494 -0.8357 -1.0349
 1303TIP3   OH225467   2.863   1.596   0.741 -0.6044  0.1648  0.2881
 1303TIP3    H125468   2.819   1.669   0.785 -0.5995 -0.1663  0.8553
 1303TIP3    H225469   2.810   1.519   0.763 -1.3492  0.1650 -1.3552
 1304TIP3   OH225470   3.270   0.750   1.693 -0.6768 -0.0346 -0.1070
 1304TIP3    H125471   3.312   0.836   1.691 -0.4793 -0.1355 -0.4275
 1304TIP3    H225472   3.321   0.698   1.632 -0.1838 -0.6606  0.8076
 1305TIP3   OH225473   6.492   4.891   0.898  0.0623 -0.0576 -0.3825
 1305TIP3    H125474   6.554   4.926   0.962 -2.0998  1.7073  0.9040
 1305TIP3    H225475   6.529   4.807   0.872  2.4385  0.4429  1.0672
 1306TIP3   OH225476   4.286   0.424   0.309  0.3718  0.6694 -0.2926
 1306TIP3    H125477   4.331   0.466   0.236 -2.1468  1.2121 -1.6014
 1306TIP3    H225478   4.224   0.364   0.269 -2.2147  2.1060  1.2581
 1307TIP3   OH225479   1.277   5.934   2.032 -0.2616 -0.1067  0.4797
 1307TIP3    H125480   1.358   5.983   2.047  0.1334 -0.1125 -1.4825
 1307TIP3    H225481   1.282   5.860   2.093  1.0436  0.0916  0.6284
 1308TIP3   OH225482   4.272   6.197   1.332  0.0574 -0.1789  0.6622
 1308TIP3    H125483   4.232   6.230   1.251 -0.1160 -1.3041  0.2769
 1308TIP3    H225484   4.292   6.276   1.382 -0.5139  0.5072 -0.1557
 1309TIP3   OH225485   2.735   6.544   1.964 -0.2132 -0.0804  0.5602
 1309TIP3    H125486   2.749   6.638   1.946 -0.8074  0.8904  4.3366
 1309TIP3    H225487   2.823   6.506   1.962  0.2488  0.9378  0.6581
 1310TIP3   OH225488   1.529   3.659   7.600  0.4605 -0.3882  0.3839
 1310TIP3    H125489   1.481   3.697   7.527  2.0194 -0.0275 -0.4980
 1310TIP3    H225490   1.461   3.628   7.660 -0.8553 -0.5547 -1.1232
 1311TIP3   OH225491   3.205   5.124   0.812 -0.0675  1.0299  0.0847
 1311TIP3    H125492   3.242   5.118   0.900 -1.3114 -0.9746  0.5429
 1311TIP3    H225493   3.117   5.161   0.826  0.8726  3.8745 -0.7637
 1312TIP3   OH225494   2.724   5.124   2.475 -0.1254  0.1450 -0.4501
 1312TIP3    H125495   2.702   5.069   2.550 -1.4884  0.8097 -0.3356
 1312TIP3    H225496   2.819   5.135   2.480 -0.0317 -0.9146  0.3997
 1313TIP3   OH225497   0.010   0.632   1.473  0.1345 -0.4403 -0.1731
 1313TIP3    H125498   0.037   0.566   1.537 -0.4907  0.0721  0.6448
 1313TIP3    H225499  -0.007   0.710   1.525 -0.4059 -0.0131 -0.9668
 1314TIP3   OH225500   6.547   1.571   1.974  0.5005  0.1764 -0.3520
 1314TIP3    H125501   6.591   1.627   1.910 -0.0442  0.1615 -0.7506
 1314TIP3    H225502   6.530   1.629   2.049 -1.2459  0.9316 -1.2802
 1315TIP3   OH225503   5.294   5.178   8.280  0.3112 -0.1690 -0.2958
 1315TIP3    H125504   5.328   5.190   8.191  0.3666  1.0022 -0.1300
 1315TIP3    H225505   5.216   5.124   8.269 -2.3334  3.5314 -1.6581
 1316TIP3   OH225506   6.204   3.638   1.064 -0.5332  0.1177 -0.3693
 1316TIP3    H125507   6.183   3.633   0.971 -1.6032  0.8955 -0.1860
 1316TIP3    H225508   6.190   3.730   1.087 -0.3540 -0.0801  0.5734
 1317TIP3   OH225509   4.499   1.361   8.274  0.1147  0.1007 -0.3892
 1317TIP3    H125510   4.518   1.447   8.236 -0.2153  0.1521 -0.4357
 1317TIP3    H225511   4.561   1.353   8.347  0.3671  0.2393 -0.5850
 1318TIP3   OH225512   3.097   0.250   3.033  0.0632  0.2448  0.0906
 1318TIP3    H125513   3.064   0.176   2.983  0.2564 -0.0030  0.3287
 1318TIP3    H225514   3.181   0.272   2.993  0.5201 -0.3600  0.7015
 1319TIP3   OH225515   4.131   5.503   7.305  0.4955 -0.0967 -0.0167
 1319TIP3    H125516   4.084   5.584   7.325  0.3680 -0.6263  2.0533
 1319TIP3    H225517   4.160   5.514   7.214  0.5344  2.2779  0.2179
 1320TIP3   OH225518   6.426   3.039   1.895 -0.8088 -0.7493 -0.2497
 1320TIP3    H125519   6.411   2.946   1.911 -0.4752 -1.0641 -1.6975
 1320TIP3    H225520   6.473   3.043   1.813 -1.5137  0.7454 -0.6239
 1321TIP3   OH225521   4.281   0.996   1.231  0.3737 -0.5263  0.5966
 1321TIP3    H125522   4.370   1.008   1.198  0.4131 -1.2809  0.4248
 1321TIP3    H225523   4.262   0.904   1.217 -0.0754 -0.5896  1.5377
 1322TIP3   OH225524   5.748   0.640   1.034  0.4997 -0.0394  0.2898
 1322TIP3    H125525   5.818   0.576   1.038  1.5555  1.0720  3.5789
 1322TIP3    H225526   5.762   0.688   0.953  1.5853 -1.8889 -0.6568
 1323TIP3   OH225527   2.685   6.021   0.408 -0.1968  0.4068 -0.6607
 1323TIP3    H125528   2.645   5.989   0.490 -0.6576  1.1535 -0.5798
 1323TIP3    H225529   2.778   6.029   0.428 -0.3166  0.6463 -0.1866
 1324TIP3   OH225530   6.281   0.525   1.086 -0.6149 -0.2066  0.3498
 1324TIP3    H125531   6.322   0.608   1.110 -2.0968  0.2802  1.3494
 1324TIP3    H225532   6.300   0.516   0.993  0.9221  0.4422  0.5546
 1325TIP3   OH225533   0.600   1.186   7.586 -0.0064  0.0923 -0.3838
 1325TIP3    H125534   0.520   1.239   7.591  1.1634  1.9577 -0.2608
 1325TIP3    H225535   0.618   1.162   7.676 -0.8130 -0.9960 -0.4922
 1326TIP3   OH225536   5.743   4.904   7.705 -0.2403 -0.3368  0.0840
 1326TIP3    H125537   5.750   4.959   7.627  2.0118  0.4152  0.7465
 1326TIP3    H225538   5.737   4.815   7.670  0.5626  0.0011 -0.9583
 1327TIP3   OH225539   2.163   0.998   1.611  0.3839  0.2090 -0.4886
 1327TIP3    H125540   2.111   0.930   1.569  0.5762 -0.7789  0.8395
 1327TIP3    H225541   2.229   0.950   1.662  0.5438  1.3847  0.4454
 1328TIP3   OH225542   1.376   4.866   8.058 -0.3457 -0.3438  1.1989
 1328TIP3    H125543   1.332   4.862   7.973  0.6810  2.9851  0.3780
 1328TIP3    H225544   1.337   4.941   8.102  3.0244  1.5950  1.1963
 1329TIP3   OH225545   3.425   0.192   7.685  0.4868 -0.0945  0.1638
 1329TIP3    H125546   3.456   0.277   7.716  0.9365 -0.8018  1.7172
 1329TIP3    H225547   3.352   0.213   7.626  1.8902  1.4469 -1.0992
 1330TIP3   OH225548   0.305   2.394   8.660  0.4959 -0.5144  0.1105
 1330TIP3    H125549   0.238   2.424   8.599  0.8534 -0.3083 -0.1871
 1330TIP3    H225550   0.388   2.407   8.613  0.8140  0.1606  0.8388
 1331TIP3   OH225551   6.682   1.746   0.701  0.0590  0.4689 -0.0158
 1331TIP3    H125552   6.772   1.770   0.680 -0.0663  0.5588 -0.4491
 1331TIP3    H225553   6.643   1.721   0.617 -0.2798  0.2950  0.1896
 1332TIP3   OH225554   3.643   6.028   7.810  0.1317 -0.1393  0.8869
 1332TIP3    H125555   3.549   6.043   7.814  0.3672  1.7393  0.3265
 1332TIP3    H225556   3.654   5.957   7.747 -0.9223 -0.6877  1.2985
 1333TIP3   OH225557   3.248   3.343   7.806 -0.5464 -0.0019  0.6836
 1333TIP3    H125558   3.305   3.416   7.782 -0.7973 -0.0593 -0.1057
 1333TIP3    H225559   3.183   3.339   7.736 -0.0969 -1.4593  0.3174
 1334TIP3   OH225560   4.376   2.092   2.914 -0.8707  0.0037 -0.6729
 1334TIP3    H125561   4.287   2.071   2.888 -1.6058  1.9299  0.1166
 1334TIP3    H225562   4.409   2.148   2.844 -0.4104 -0.3757 -0.7657
 1335TIP3   OH225563   1.502   1.789   2.273 -0.3223 -0.0768 -0.3817
 1335TIP3    H125564   1.433   1.798   2.340 -1.4272  0.8000 -1.5783
 1335TIP3    H225565   1.476   1.712   2.222 -1.3607  1.1683 -1.8241
 1336TIP3   OH225566   0.654   3.232   1.225  0.3291 -0.1076 -0.2736
 1336TIP3    H125567   0.593   3.164   1.196  1.0426 -1.0357  0.3540
 1336TIP3    H225568   0.666   3.288   1.148 -1.5896  0.3278 -0.3158
 1337TIP3   OH225569   6.294   4.262   6.664  0.1715 -0.4217 -0.0293
 1337TIP3    H125570   6.358   4.299   6.725 -0.1433  1.1705 -0.6118
 1337TIP3    H225571   6.213   4.256   6.716  0.7803 -2.6610  0.7780
 1338TIP3   OH225572   4.107   1.998   8.370 -0.1018 -0.2120  0.3378
 1338TIP3    H125573   4.072   1.936   8.434 -0.7018  0.0106  0.2303
 1338TIP3    H225574   4.194   1.964   8.349 -0.2669 -0.7940  0.5791
 1339TIP3   OH225575   0.935   3.932   6.938 -0.1958  0.2470  0.3670
 1339TIP3    H125576   0.922   3.857   6.996  0.6608 -0.7193 -0.6316
 1339TIP3    H225577   0.868   3.921   6.871 -0.3876  0.6610  0.4900
 1340TIP3   OH225578   1.161   3.009   2.544  0.0805  0.3486 -0.1439
 1340TIP3    H125579   1.199   2.922   2.556  1.3741  0.7711 -0.9641
 1340TIP3    H225580   1.229   3.069   2.574 -0.3667  1.1059 -0.6020
 1341TIP3   OH225581   0.121   6.364   8.123 -0.0892 -0.4216  0.4407
 1341TIP3    H125582   0.067   6.289   8.147 -0.0972 -0.8436 -0.8273
 1341TIP3    H225583   0.147   6.347   8.032 -0.6196  1.4284 -0.0982
 1342TIP3   OH225584   4.040   4.853   6.909  0.0664  0.0420  0.5417
 1342TIP3    H125585   3.963   4.869   6.854  0.6422 -0.9458 -0.6026
 1342TIP3    H225586   4.114   4.878   6.853  0.6264 -0.2142  1.1663
 1343TIP3   OH225587   0.827   4.026   8.430  0.0577 -0.5474  0.2369
 1343TIP3    H125588   0.844   4.090   8.499  2.0795 -2.1335  1.3336
 1343TIP3    H225589   0.837   3.941   8.473 -1.4202 -1.6240 -1.4072
 1344TIP3   OH225590   4.167   4.721   1.272  0.0962 -0.6521  0.1870
 1344TIP3    H125591   4.086   4.722   1.324  0.1218  0.0383  0.2308
 1344TIP3    H225592   4.157   4.646   1.213  0.5404 -2.1186  1.8901
 1345TIP3   OH225593   1.514   3.296   1.757 -0.2589 -0.1745 -0.1089
 1345TIP3    H125594   1.589   3.342   1.718  0.8751 -0.8193  1.2462
 1345TIP3    H225595   1.481   3.356   1.823 -0.2855 -0.3316  0.0195
 1346TIP3   OH225596   2.235   3.720   3.005  0.2744  0.4304 -0.3064
 1346TIP3    H125597   2.304   3.721   3.072  1.3847 -1.7431 -1.2839
 1346TIP3    H225598   2.161   3.678   3.048  0.5881  0.0685 -0.1095
 1347TIP3   OH225599   1.048   0.120   0.590  0.2179  0.1622 -0.4483
 1347TIP3    H125600   0.988   0.104   0.518  0.6129  0.8448 -0.9447
 1347TIP3    H225601   1.004   0.082   0.667  0.3195 -1.5740 -1.2223
 1348TIP3   OH225602   2.523   2.944   7.211 -0.0743  0.7786  0.3535
 1348TIP3    H125603   2.492   3.007   7.147  1.8878 -0.8846 -2.4456
 1348TIP3    H225604   2.467   2.867   7.198  0.9249  0.1044 -0.0705
 1349TIP3   OH225605   6.145   2.378   8.436  0.0706  0.3876  0.2659
 1349TIP3    H125606   6.052   2.395   8.454  0.3203  2.4271 -0.0879
 1349TIP3    H225607   6.180   2.348   8.520 -0.8840 -0.3177  0.4264
 1350TIP3   OH225608   1.278   3.987   2.088 -0.0630  1.2292 -0.0620
 1350TIP3    H125609   1.287   3.921   2.157 -0.0812 -0.5491 -1.6767
 1350TIP3    H225610   1.365   3.995   2.050 -0.5294  0.3646 -1.3824
 1351TIP3   OH225611   1.685   1.708   8.606  0.3422 -0.4085  0.2328
 1351TIP3    H125612   1.727   1.699   8.520  1.7330  0.9147  0.7212
 1351TIP3    H225613   1.608   1.762   8.590  1.5876  1.4092  0.0362
 1352TIP3   OH225614   0.088   4.483   1.549 -0.4379  0.6462 -0.1588
 1352TIP3    H125615   0.046   4.418   1.493  1.2242 -0.1352 -0.5381
 1352TIP3    H225616   0.054   4.464   1.637  0.0211 -0.7413 -0.2663
 1353TIP3   OH225617   0.732   4.684   7.905 -0.3372  0.4359  0.8210
 1353TIP3    H125618   0.776   4.746   7.962 -0.3518  2.2050 -1.0004
 1353TIP3    H225619   0.793   4.610   7.898  1.0334  1.5458  0.6857
 1354TIP3   OH225620   2.094   6.773   1.513 -0.5100  0.0217  0.5844
 1354TIP3    H125621   2.126   6.848   1.565  0.7561 -0.5460  0.6459
 1354TIP3    H225622   2.081   6.704   1.578 -2.3455  0.3551  0.6307
 1355TIP3   OH225623   3.915   1.908   8.567 -0.0597  0.4275 -0.1988
 1355TIP3    H125624   3.823   1.924   8.546  0.0513 -0.9638 -1.9510
 1355TIP3    H225625   3.941   1.983   8.621 -1.8450  1.5049 -0.7657
 1356TIP3   OH225626   5.468   5.883   1.309 -0.2148 -0.0740 -0.1181
 1356TIP3    H125627   5.555   5.852   1.334 -0.3051  0.0085  0.2965
 1356TIP3    H225628   5.474   5.896   1.214 -0.0586 -0.9517 -0.2333
 1357TIP3   OH225629   5.685   5.847   1.591  0.1802 -0.4502  0.1199
 1357TIP3    H125630   5.610   5.905   1.578  0.9942  0.7685  0.5652
 1357TIP3    H225631   5.708   5.817   1.503 -0.0305  0.2399 -0.1823
 1358TIP3   OH225632   2.066   6.272   1.609 -0.0933 -0.5218 -0.2357
 1358TIP3    H125633   2.102   6.243   1.693 -2.1421  0.5563  1.1025
 1358TIP3    H225634   2.127   6.338   1.578 -0.7800  1.2885  1.9792
 1359TIP3   OH225635   5.417   0.192   8.000  0.1642 -0.0832 -0.2947
 1359TIP3    H125636   5.508   0.219   7.989  0.2160  0.0754  0.4637
 1359TIP3    H225637   5.369   0.274   8.012  0.5223 -0.2722  3.4815
 1360TIP3   OH225638   1.317   0.035   1.120  0.1899 -0.2210 -0.5589
 1360TIP3    H125639   1.319  -0.048   1.167 -0.4929  0.0036 -0.1257
 1360TIP3    H225640   1.408   0.065   1.120  0.1557 -0.0416  0.9552
 1361TIP3   OH225641   2.826   4.343   7.372 -0.2288  0.0216  0.0972
 1361TIP3    H125642   2.853   4.402   7.302  1.0277 -0.4094  0.1905
 1361TIP3    H225643   2.804   4.401   7.445 -1.5595  0.4717 -0.6412
 1362TIP3   OH225644   4.247   5.189   2.108 -0.0861 -0.6909 -0.2480
 1362TIP3    H125645   4.319   5.236   2.152  0.8970 -2.1953 -0.1793
 1362TIP3    H225646   4.249   5.223   2.018  0.5829 -0.5735 -0.1986
 1363TIP3   OH225647   6.020   6.425   1.742 -0.1422 -0.4209  0.1116
 1363TIP3    H125648   6.017   6.336   1.707 -1.0590 -0.7415  0.9494
 1363TIP3    H225649   5.948   6.471   1.699 -1.1056 -0.7424  1.3225
 1364TIP3   OH225650   4.744   3.701   1.074  0.0516  0.1843 -0.4116
 1364TIP3    H125651   4.836   3.680   1.059 -0.1149  0.5092 -2.0675
 1364TIP3    H225652   4.714   3.633   1.135  1.1209 -0.5692 -0.6958
 1365TIP3   OH225653   1.822   3.337   7.658 -0.1922  0.1518  0.1168
 1365TIP3    H125654   1.782   3.352   7.572 -1.2696 -0.0658  0.5633
 1365TIP3    H225655   1.916   3.350   7.644 -0.1069 -1.7448 -1.5388
 1366TIP3   OH225656   1.015   2.072   0.975  0.8737  0.1766  0.2104
 1366TIP3    H125657   1.005   2.137   0.906 -1.9939  0.0484  0.3650
 1366TIP3    H225658   1.002   2.121   1.056 -0.5159 -0.4013  0.3669
 1367TIP3   OH225659   4.955   4.952   7.331  0.4978  0.4130 -0.2511
 1367TIP3    H125660   4.993   5.035   7.303  1.9132 -0.9037 -2.5039
 1367TIP3    H225661   5.004   4.885   7.283 -0.7679 -1.7413  1.2634
 1368TIP3   OH225662   1.485   2.306   7.382  0.0399  0.1221  0.2424
 1368TIP3    H125663   1.555   2.307   7.447 -0.0138  0.0504  0.3013
 1368TIP3    H225664   1.461   2.398   7.371  0.4075  0.1831 -0.0625
 1369TIP3   OH225665   2.713   3.362   2.375  0.1563  0.1881 -0.3228
 1369TIP3    H125666   2.640   3.423   2.390 -0.4874 -0.9455  1.4262
 1369TIP3    H225667   2.674   3.276   2.388  1.7340 -0.4629  0.2175
 1370TIP3   OH225668   1.914   2.539   0.088 -0.2978  0.1919  0.4036
 1370TIP3    H125669   1.941   2.466   0.032  0.8831  0.6424  0.3667
 1370TIP3    H225670   1.887   2.607   0.027  2.0611  1.0998  0.2956
 1371TIP3   OH225671   2.686   1.240   0.684 -0.4824 -0.2254 -0.2333
 1371TIP3    H125672   2.708   1.310   0.746 -0.2064 -0.0569 -0.5226
 1371TIP3    H225673   2.760   1.180   0.689 -0.3462 -0.0875 -0.5803
 1372TIP3   OH225674   2.222   4.159   1.046 -0.0656  0.1492 -0.1741
 1372TIP3    H125675   2.230   4.178   0.953  0.1301 -1.8639 -0.6286
 1372TIP3    H225676   2.252   4.238   1.090  1.0371  0.7015 -1.8221
 1373TIP3   OH225677   1.669   2.277   2.185  0.1775  0.2219  0.1731
 1373TIP3    H125678   1.728   2.349   2.162  1.5803 -1.5971 -2.5444
 1373TIP3    H225679   1.599   2.282   2.120 -0.0495 -0.4381  0.3639
 1374TIP3   OH225680   6.081   4.202   7.426  0.1291  0.0955 -0.1979
 1374TIP3    H125681   6.021   4.177   7.496 -1.6823  1.5399 -1.1507
 1374TIP3    H225682   6.074   4.297   7.421  1.9177  0.2189 -0.8886
 1375TIP3   OH225683   4.029   2.827   1.236 -0.1152  0.2223 -0.1086
 1375TIP3    H125684   4.086   2.835   1.159 -0.4390 -0.8899 -0.4806
 1375TIP3    H225685   3.989   2.914   1.246  1.3262  0.9085 -0.0754
 1376TIP3   OH225686   3.154   5.123   7.504 -0.2341 -0.1285  0.2531
 1376TIP3    H125687   3.139   5.209   7.465 -0.4311 -0.9325 -1.5692
 1376TIP3    H225688   3.224   5.085   7.451 -3.1061 -2.7973 -2.0748
 1377TIP3   OH225689   4.287   6.399   1.571  0.1861 -0.2722  0.3991
 1377TIP3    H125690   4.327   6.340   1.635  0.3876  0.8117  1.3023
 1377TIP3    H225691   4.259   6.475   1.622  1.0333  0.9670 -0.8940
 1378TIP3   OH225692   5.082   1.316   2.849  0.0503  0.3491  0.7656
 1378TIP3    H125693   5.128   1.322   2.765 -0.3301  2.0409  0.6391
 1378TIP3    H225694   5.129   1.247   2.897  0.4531 -0.4376 -0.7073
 1379TIP3   OH225695   1.418   2.123   1.228  0.8759 -0.6976 -0.0310
 1379TIP3    H125696   1.470   2.204   1.227 -0.4412  0.1788 -1.1888
 1379TIP3    H225697   1.362   2.131   1.304  0.4823 -0.3353 -0.3565
 1380TIP3   OH225698   4.561   4.003   6.764  0.1003 -0.1614  0.0587
 1380TIP3    H125699   4.520   3.918   6.749 -1.6028  0.8774 -1.7288
 1380TIP3    H225700   4.655   3.985   6.766 -0.2843 -2.3437  2.0250
 1381TIP3   OH225701   2.799   1.744   8.332 -0.0315 -0.2133 -0.2301
 1381TIP3    H125702   2.869   1.807   8.317  0.7449 -0.6811  1.2870
 1381TIP3    H225703   2.844   1.664   8.359 -1.1686 -0.2593  1.6885
 1382TIP3   OH225704   2.887   6.372   2.185 -0.1839  0.1491 -0.3689
 1382TIP3    H125705   2.802   6.415   2.177  1.4263  4.1825  1.4452
 1382TIP3    H225706   2.905   6.372   2.279  2.0861  0.0605 -0.7424
 1383TIP3   OH225707   0.377   6.378   7.445  0.4126 -0.1578 -0.2182
 1383TIP3    H125708   0.339   6.460   7.413  2.1136  0.8838  0.2918
 1383TIP3    H225709   0.380   6.389   7.540  1.7319 -0.2879 -0.2285
 1384TIP3   OH225710   4.879   2.078   7.485 -0.0010  0.8565  0.0873
 1384TIP3    H125711   4.885   2.064   7.390 -2.3253  0.6450 -0.0914
 1384TIP3    H225712   4.908   2.168   7.497 -0.7115  1.2657 -1.0085
 1385TIP3   OH225713   4.438   3.457   2.802 -0.8364  0.0949  0.5298
 1385TIP3    H125714   4.440   3.543   2.844 -2.8297 -0.4738  1.9004
 1385TIP3    H225715   4.443   3.395   2.874  2.3283 -1.0541 -0.5305
 1386TIP3   OH225716   3.842   4.522   2.011  0.3738  0.1281  0.2058
 1386TIP3    H125717   3.928   4.482   2.027 -0.5288 -1.9709 -0.0305
 1386TIP3    H225718   3.795   4.511   2.093 -0.2028 -0.1102 -0.1537
 1387TIP3   OH225719   4.216   6.812   7.433  0.3775  0.4951 -0.4213
 1387TIP3    H125720   4.275   6.761   7.488  0.2760 -0.2236 -0.9684
 1387TIP3    H225721   4.234   6.782   7.344  0.8640  1.9627 -0.8474
 1388TIP3   OH225722   1.375   5.936   2.321 -0.7571  0.0045 -0.0064
 1388TIP3    H125723   1.465   5.924   2.351 -0.9445 -0.4836  0.3777
 1388TIP3    H225724   1.365   6.030   2.313  0.0955  0.0183 -1.0127
 1389TIP3   OH225725   4.407   5.460   8.231 -0.9033 -0.5972 -0.3012
 1389TIP3    H125726   4.426   5.407   8.308 -1.8679 -0.1131  0.2864
 1389TIP3    H225727   4.445   5.546   8.252 -0.1982 -0.7687 -0.8391
 1390TIP3   OH225728   3.660   3.530   0.989 -0.1524  0.4877  0.4127
 1390TIP3    H125729   3.709   3.531   0.907 -0.2553  0.7184  0.3552
 1390TIP3    H225730   3.701   3.598   1.042 -1.7706  2.1760 -0.4255
 1391TIP3   OH225731   2.943   5.842   7.747  0.1710 -0.4621 -0.1455
 1391TIP3    H125732   2.921   5.908   7.681  0.6240  1.5937  1.6257
 1391TIP3    H225733   2.859   5.806   7.774 -0.1831  0.2094 -0.3387
 1392TIP3   OH225734   1.104   4.037   8.639  0.1147  0.2206  0.1674
 1392TIP3    H125735   1.070   4.099   8.574  0.8454  0.9055  0.4199
 1392TIP3    H225736   1.195   4.022   8.613 -0.2441 -1.3353 -0.3117
 1393TIP3   OH225737   3.960   1.358   1.711  0.2951  0.5413  0.5552
 1393TIP3    H125738   3.958   1.262   1.717  2.5301  0.4642  1.2128
 1393TIP3    H225739   3.982   1.375   1.620 -4.0208  0.6512 -0.6338
 1394TIP3   OH225740   1.708   6.225   0.771 -0.7484  0.2282 -0.8513
 1394TIP3    H125741   1.754   6.207   0.689 -2.0383 -0.5387 -1.4479
 1394TIP3    H225742   1.668   6.141   0.794 -0.4423  0.4465  0.5577
 1395TIP3   OH225743   4.575   2.943   0.807 -0.1386 -0.4560  0.6952
 1395TIP3    H125744   4.487   2.973   0.830 -1.0251 -0.5261 -2.2205
 1395TIP3    H225745   4.618   3.020   0.771  1.3186 -0.2473  2.7215
 1396TIP3   OH225746   2.274   1.824   6.939 -0.7972  0.0619 -0.0749
 1396TIP3    H125747   2.302   1.910   6.908 -1.0884  0.5050  0.8607
 1396TIP3    H225748   2.195   1.841   6.991  0.0921 -0.5469  1.5462
 1397TIP3   OH225749   1.695   2.441   6.621  0.2172 -0.1651 -0.3294
 1397TIP3    H125750   1.768   2.423   6.563  0.9291 -0.4013  0.6283
 1397TIP3    H225751   1.720   2.402   6.705 -0.3073  1.1123  0.4461
 1398TIP3   OH225752   6.354   0.858   0.748 -0.2137 -0.2898  0.1952
 1398TIP3    H125753   6.350   0.789   0.682  0.5431  0.8193 -1.0628
 1398TIP3    H225754   6.441   0.847   0.788 -0.9830 -1.4790  1.6529
 1399TIP3   OH225755   0.512   3.870   2.323  0.3036 -0.4449  1.0054
 1399TIP3    H125756   0.477   3.933   2.387  4.3755  0.6555  2.4316
 1399TIP3    H225757   0.544   3.798   2.376 -1.3563 -2.3369 -0.3980
 1400TIP3   OH225758   0.217   6.010   6.745 -0.2150 -0.2984 -0.4906
 1400TIP3    H125759   0.310   6.026   6.728 -0.3522  0.7155 -0.3556
 1400TIP3    H225760   0.187   5.957   6.672  0.6002 -1.1305 -0.2397
 1401TIP3   OH225761   4.934   3.819   0.390 -0.0310  0.7612 -0.3399
 1401TIP3    H125762   4.981   3.750   0.437 -0.0875  1.4194  0.7308
 1401TIP3    H225763   4.886   3.773   0.321  0.2563 -0.2169  0.0922
 1402TIP3   OH225764   5.103   3.593   0.467 -0.3028 -0.1113  0.0550
 1402TIP3    H125765   5.109   3.507   0.507 -0.8265 -0.1962 -0.0452
 1402TIP3    H225766   5.169   3.645   0.512  0.8384 -0.8769 -0.6953
 1403TIP3   OH225767   1.997   2.504   2.345  0.8187  0.7422  0.1557
 1403TIP3    H125768   2.049   2.515   2.425  1.0456 -0.5061  0.1921
 1403TIP3    H225769   2.049   2.545   2.277  1.9830 -0.6693  0.1549
 1404TIP3   OH225770   3.463   4.780   8.452  0.0779 -0.0912 -0.3790
 1404TIP3    H125771   3.552   4.743   8.445  0.0873 -0.3226  0.7850
 1404TIP3    H225772   3.470   4.847   8.520 -0.2868  1.0377 -1.4358
 1405TIP3   OH225773   5.936   0.084   1.888 -0.6537  0.9008 -0.0639
 1405TIP3    H125774   6.029   0.061   1.877 -0.5557  1.5760 -0.7760
 1405TIP3    H225775   5.898   0.009   1.933  0.3126  0.7531  0.5432
 1406TIP3   OH225776   6.386   3.405   1.737  0.0212  0.5120  0.0000
 1406TIP3    H125777   6.477   3.376   1.742 -0.0287  0.2179 -0.6866
 1406TIP3    H225778   6.346   3.349   1.670  0.0715  2.5415 -1.8609
 1407TIP3   OH225779   1.019   0.742   0.693  0.1367 -0.3360 -0.0554
 1407TIP3    H125780   1.022   0.697   0.609 -0.0415  1.1123 -0.8608
 1407TIP3    H225781   1.097   0.711   0.740 -0.0954 -1.6179 -0.4896
 1408TIP3   OH225782   2.165   5.901   1.973  0.5987  0.1858  0.3587
 1408TIP3    H125783   2.135   5.902   2.064 -0.3973 -2.0334  0.1270
 1408TIP3    H225784   2.259   5.887   1.979  0.8032  1.6394  1.0303
 1409TIP3   OH225785   1.215   3.327   0.474 -0.3143 -0.3681 -0.3118
 1409TIP3    H125786   1.153   3.390   0.508  0.1854  0.0749 -0.1998
 1409TIP3    H225787   1.262   3.296   0.551 -0.7608 -1.1040 -0.3316
 1410TIP3   OH225788   4.986   3.224   0.746  0.1580 -0.5463 -0.0769
 1410TIP3    H125789   4.946   3.137   0.743 -0.4579 -0.2726 -0.0937
 1410TIP3    H225790   4.994   3.249   0.654  1.1388 -0.9340 -0.1070
 1411TIP3   OH225791   2.125   0.361   2.294  0.8106 -0.1250 -0.0293
 1411TIP3    H125792   2.193   0.419   2.329  1.0141  0.0287 -0.6689
 1411TIP3    H225793   2.169   0.312   2.225  1.3819 -2.9773  2.1635
 1412TIP3   OH225794   0.728   5.124   1.592  0.1133  0.2488 -0.2009
 1412TIP3    H125795   0.633   5.120   1.582 -0.0750 -0.1732  1.4625
 1412TIP3    H225796   0.757   5.034   1.577 -0.1071 -0.2573  2.0169
 1413TIP3   OH225797   5.936   1.878   2.425  0.1023  0.0892 -0.3706
 1413TIP3    H125798   6.028   1.907   2.423 -0.0526  0.5596 -1.0873
 1413TIP3    H225799   5.911   1.885   2.517  0.5310  0.7781 -0.2980
 1414TIP3   OH225800   0.825   5.695   8.045 -0.0455  0.2672 -0.1944
 1414TIP3    H125801   0.791   5.727   7.962 -0.0729  1.2139  0.1680
 1414TIP3    H225802   0.844   5.602   8.029  0.8371  0.6485 -1.5332
 1415TIP3   OH225803   0.090   5.433   1.590  0.9922  0.0769 -0.0981
 1415TIP3    H125804   0.100   5.512   1.536 -0.8662  0.4745  0.0758
 1415TIP3    H225805   0.173   5.427   1.638  1.0346  2.2008  0.2237
 1416TIP3   OH225806   6.472   3.823   1.408  0.3271 -0.2472  0.0236
 1416TIP3    H125807   6.566   3.824   1.422  0.1728  1.1088  1.1180
 1416TIP3    H225808   6.435   3.802   1.494 -0.3889 -0.7862 -0.3947
 1417TIP3   OH225809   3.294   5.718   1.362 -0.7248  0.2179 -0.3670
 1417TIP3    H125810   3.358   5.665   1.411 -0.1303  0.7300 -0.5794
 1417TIP3    H225811   3.287   5.674   1.277 -0.9793 -0.0804 -0.1941
 1418TIP3   OH225812   3.417   3.463   8.544  0.1560  0.3468 -0.3223
 1418TIP3    H125813   3.423   3.462   8.449  0.6119 -1.4235 -0.3107
 1418TIP3    H225814   3.324   3.470   8.563 -0.0343 -0.4604 -0.9227
 1419TIP3   OH225815   1.299   4.034   0.685 -0.2539  0.0949  0.0913
 1419TIP3    H125816   1.211   4.005   0.711 -0.4536  0.8297  0.2669
 1419TIP3    H225817   1.336   3.959   0.639 -0.9140 -0.2840  0.1538
 1420TIP3   OH225818   0.686   5.675   0.649 -0.3597  0.1994  0.9553
 1420TIP3    H125819   0.715   5.585   0.641 -2.0722 -0.2906 -0.2688
 1420TIP3    H225820   0.706   5.699   0.740  0.9836 -1.0655  1.0255
 1421TIP3   OH225821   3.695   0.345   7.590 -0.3513 -0.1269 -0.2405
 1421TIP3    H125822   3.623   0.394   7.630 -0.2260 -0.6465  0.6621
 1421TIP3    H225823   3.750   0.411   7.550  0.0668  0.5505  1.3604
 1422TIP3   OH225824   1.691   3.097   7.240  0.7937  0.1690 -0.0772
 1422TIP3    H125825   1.693   3.184   7.278  1.7652  0.9430 -1.7513
 1422TIP3    H225826   1.608   3.059   7.268 -0.0740  1.9930 -0.0829
 1423TIP3   OH225827   3.429   3.289   0.386 -0.3464  0.2699  0.0844
 1423TIP3    H125828   3.334   3.285   0.390 -0.3695  1.1892  0.5580
 1423TIP3    H225829   3.453   3.219   0.325 -1.3149 -0.0130  0.0157
 1424TIP3   OH225830   6.159   0.109   6.973  0.1336  0.9167 -0.3210
 1424TIP3    H125831   6.179   0.048   6.902 -1.3257  0.3183 -0.2457
 1424TIP3    H225832   6.074   0.146   6.949 -2.9778 -2.8595  3.3000
 1425TIP3   OH225833   3.896   0.034   0.883 -0.2436 -0.1604  0.3701
 1425TIP3    H125834   3.941  -0.024   0.821 -0.9050  0.1694 -0.4299
 1425TIP3    H225835   3.804   0.029   0.858 -0.8918 -1.7439  2.7105
 1426TIP3   OH225836   0.071   2.354   2.100 -0.4846 -0.4778 -0.3339
 1426TIP3    H125837   0.161   2.385   2.111 -0.7295 -0.1577  1.1138
 1426TIP3    H225838   0.076   2.285   2.034  0.7648 -0.2327 -0.5166
 1427TIP3   OH225839   2.674   4.971   7.646 -0.0559  0.3195 -0.0165
 1427TIP3    H125840   2.732   4.922   7.588  0.0933 -0.7864  1.0223
 1427TIP3    H225841   2.733   5.025   7.698 -0.1538  0.9825 -0.5922
 1428TIP3   OH225842   5.517   5.840   0.339 -0.4570  0.4655  0.3103
 1428TIP3    H125843   5.574   5.781   0.290 -1.1867  2.1570 -2.8024
 1428TIP3    H225844   5.544   5.927   0.312 -2.7262  1.4025  0.8602
 1429TIP3   OH225845   2.336   1.409   0.469  0.8985 -0.4735 -0.1615
 1429TIP3    H125846   2.249   1.447   0.457  0.3315 -1.2842  1.0952
 1429TIP3    H225847   2.393   1.483   0.486 -0.0738 -0.0853  1.6483
 1430TIP3   OH225848   6.296   6.525   1.674 -0.1000  0.1660  0.3665
 1430TIP3    H125849   6.211   6.482   1.687 -0.8950  1.1083 -1.4076
 1430TIP3    H225850   6.359   6.453   1.680 -0.7505 -0.2980  3.5857
 1431TIP3   OH225851   3.549   6.754   1.383 -0.0512 -0.2621  0.8776
 1431TIP3    H125852   3.577   6.662   1.385 -0.5574 -0.4209  2.3740
 1431TIP3    H225853   3.623   6.801   1.346  0.4723 -1.1968  0.7006
 1432TIP3   OH225854   1.609   6.717   1.855 -0.4271 -0.8997  0.3307
 1432TIP3    H125855   1.621   6.805   1.819  0.5447 -1.8445 -1.7875
 1432TIP3    H225856   1.522   6.690   1.826  0.9718 -2.3174 -3.0859
 1433TIP3   OH225857   0.221   0.447   0.633 -0.1866  0.5355 -0.0700
 1433TIP3    H125858   0.178   0.528   0.604  1.7790  2.0403  1.0173
 1433TIP3    H225859   0.239   0.462   0.726  0.5716 -1.0041  0.0476
 1434TIP3   OH225860   0.397   5.573   1.215 -0.0420 -0.0872  0.0317
 1434TIP3    H125861   0.474   5.599   1.266 -0.6050 -0.8952  1.3387
 1434TIP3    H225862   0.370   5.653   1.170  1.5383  0.2115 -0.4466
 1435TIP3   OH225863   3.502   3.538   1.475  0.3229 -0.3095 -0.2677
 1435TIP3    H125864   3.591   3.574   1.471  1.5717 -3.0178  0.7507
 1435TIP3    H225865   3.480   3.517   1.385  0.4804  0.8412 -0.5902
 1436TIP3   OH225866   1.491   3.638   7.291 -0.1332 -0.2357  0.1490
 1436TIP3    H125867   1.414   3.596   7.253 -0.0716 -0.7399  0.5646
 1436TIP3    H225868   1.488   3.728   7.259  0.1649 -0.7534 -1.4102
 1437TIP3   OH225869   1.312   5.673   2.120 -0.0943  0.0624 -0.6385
 1437TIP3    H125870   1.303   5.617   2.197  0.4050  0.6063 -0.1797
 1437TIP3    H225871   1.240   5.645   2.062 -0.0610 -0.8096 -0.2758
 1438TIP3   OH225872   5.103   0.158   1.791 -0.1776  0.2908 -0.1051
 1438TIP3    H125873   5.091   0.066   1.770 -0.2162  0.0990  0.7397
 1438TIP3    H225874   5.196   0.175   1.773  0.1433 -0.2446  0.9372
 1439TIP3   OH225875   5.209   0.388   8.672  0.4002  0.0185  0.5455
 1439TIP3    H125876   5.198   0.334   8.594 -1.7690  1.3770 -0.1928
 1439TIP3    H225877   5.277   0.451   8.649 -0.5560  0.7181 -0.5001
 1440TIP3   OH225878   3.358   5.597   0.375 -0.6923 -0.0697 -0.4996
 1440TIP3    H125879   3.310   5.673   0.345 -1.2726 -0.4742 -0.6165
 1440TIP3    H225880   3.326   5.525   0.320 -1.8315 -0.8423  1.0849
 1441TIP3   OH225881   0.252   3.473   8.244  0.2628 -0.3598 -0.0755
 1441TIP3    H125882   0.309   3.396   8.247 -0.5429 -1.0451 -1.4552
 1441TIP3    H225883   0.300   3.537   8.192  0.8929  0.0464  0.9915
 1442TIP3   OH225884   4.407   4.926   0.578 -0.0025  0.4431  0.4438
 1442TIP3    H125885   4.349   4.871   0.630 -0.1654  0.9509  0.8155
 1442TIP3    H225886   4.396   4.896   0.488  0.7921 -0.9092  0.7736
 1443TIP3   OH225887   0.184   1.378   2.163 -0.0479  0.0557 -0.1334
 1443TIP3    H125888   0.249   1.319   2.124 -1.5672 -1.3501 -0.6706
 1443TIP3    H225889   0.236   1.448   2.203  1.8656 -1.6022  0.4939
 1444TIP3   OH225890   3.528   0.156   0.664  0.0284 -0.3423  0.9154
 1444TIP3    H125891   3.603   0.164   0.605 -1.5903  0.9704 -1.1008
 1444TIP3    H225892   3.487   0.073   0.638 -0.6072  0.1689  0.2687
 1445TIP3   OH225893   5.229   1.982   0.355  0.0932 -0.4141 -0.1830
 1445TIP3    H125894   5.304   2.025   0.396  0.2842 -0.5031 -0.4342
 1445TIP3    H225895   5.226   2.019   0.266  0.2269 -0.8763 -0.3824
 1446TIP3   OH225896   5.236   6.046   1.862  0.0465  0.6554  0.5696
 1446TIP3    H125897   5.218   6.077   1.774 -0.2737 -1.2658 -0.0946
 1446TIP3    H225898   5.327   6.015   1.858 -0.3121 -0.4221  0.5991
 1447TIP3   OH225899   5.440   5.241   0.874 -0.0908 -0.0404 -0.3636
 1447TIP3    H125900   5.383   5.262   0.800 -1.9366 -1.2896  0.6085
 1447TIP3    H225901   5.379   5.213   0.943  1.6884 -0.6864  1.0102
 1448TIP3   OH225902   4.809   4.652   0.457  0.0638 -0.1607  0.0654
 1448TIP3    H125903   4.762   4.572   0.433 -0.2866  0.0128  0.1645
 1448TIP3    H225904   4.887   4.621   0.504  0.4328 -0.4777 -0.7302
 1449TIP3   OH225905   2.084   2.493   1.243 -0.0388  0.4438  0.2079
 1449TIP3    H125906   2.026   2.419   1.225  0.7321 -0.2385  0.4644
 1449TIP3    H225907   2.038   2.544   1.310  0.2122 -0.7646  1.3183
 1450TIP3   OH225908   6.823   0.626   1.862  0.0790  0.0276 -0.2199
 1450TIP3    H125909   6.825   0.695   1.796 -0.4392  1.7474  1.4834
 1450TIP3    H225910   6.745   0.575   1.842 -0.1905  0.6649 -0.8004
 1451TIP3   OH225911   0.010   0.326   1.308 -0.1820  0.0201 -0.2031
 1451TIP3    H125912  -0.052   0.286   1.368 -0.2284 -0.1923 -0.3933
 1451TIP3    H225913   0.052   0.395   1.360 -0.3529 -0.0409  0.0173
 1452TIP3   OH225914   0.442   0.793   7.836 -0.1990 -0.1360  0.2016
 1452TIP3    H125915   0.427   0.732   7.764 -0.4947 -0.9120  0.9040
 1452TIP3    H225916   0.498   0.861   7.799  0.4812 -1.0502 -0.4924
 1453TIP3   OH225917   6.172   0.053   7.755 -0.3365  0.0803 -0.3932
 1453TIP3    H125918   6.204   0.082   7.669  2.4957 -0.5683  0.3383
 1453TIP3    H225919   6.087   0.095   7.764  0.8419  3.1154 -1.9878
 1454TIP3   OH225920   2.265   0.911   7.159 -0.0560  0.5226 -0.5151
 1454TIP3    H125921   2.263   0.936   7.066 -2.2600 -0.1638 -0.7134
 1454TIP3    H225922   2.335   0.846   7.165  0.2513  0.7247 -1.6658
 1455TIP3   OH225923   6.697   6.258   0.807 -0.1442 -0.5753  0.5430
 1455TIP3    H125924   6.791   6.239   0.811 -0.2938 -1.5732 -0.3293
 1455TIP3    H225925   6.692   6.342   0.762  0.3117 -0.7213  0.2104
 1456TIP3   OH225926   5.692   3.031   7.887 -0.7040  0.3007  0.1203
 1456TIP3    H125927   5.787   3.029   7.899 -0.8797 -0.1949  1.6114
 1456TIP3    H225928   5.678   3.094   7.816  0.9044 -1.6181 -2.0763
 1457TIP3   OH225929   5.582   3.213   7.699 -0.4674  0.0762  0.3147
 1457TIP3    H125930   5.595   3.222   7.605 -0.3231 -1.4454  0.1606
 1457TIP3    H225931   5.521   3.284   7.722  0.2240  1.0415 -0.7374
 1458TIP3   OH225932   0.334   5.317   8.378 -0.4812 -0.3895 -0.8698
 1458TIP3    H125933   0.337   5.261   8.300  2.5020  0.7236 -1.6954
 1458TIP3    H225934   0.366   5.262   8.449  0.4829 -0.3510 -1.2589
 1459TIP3   OH225935   5.196   0.423   8.012  0.0203 -0.2998 -0.4251
 1459TIP3    H125936   5.109   0.400   8.046 -0.1683  2.5277  1.3746
 1459TIP3    H225937   5.179   0.477   7.935  0.1369  0.3604  0.0003
 1460TIP3   OH225938   5.430   0.325   0.741  1.0153 -0.2983 -0.2332
 1460TIP3    H125939   5.384   0.384   0.800  1.4637 -0.9996  0.8422
 1460TIP3    H225940   5.370   0.314   0.667 -0.1526 -0.4416  0.6975
 1461TIP3   OH225941   1.252   0.598   2.364 -0.7276 -0.2140  0.1101
 1461TIP3    H125942   1.167   0.586   2.404 -0.5825  0.4162  0.6282
 1461TIP3    H225943   1.307   0.634   2.434 -0.2490  0.1146 -0.4239
 1462TIP3   OH225944   3.286   1.378   2.485 -0.4246 -0.5782  0.5927
 1462TIP3    H125945   3.377   1.358   2.510  0.1601  1.2357  0.0628
 1462TIP3    H225946   3.288   1.378   2.389 -1.0061 -0.5617  0.5778
 1463TIP3   OH225947   0.894   3.624   7.941 -0.0081 -0.1461 -0.3282
 1463TIP3    H125948   0.838   3.556   7.977 -0.8847  0.4440 -0.5519
 1463TIP3    H225949   0.854   3.646   7.856 -1.5162  2.6991  0.9875
 1464TIP3   OH225950   5.296   4.466   7.436  0.1491  0.2274  0.0122
 1464TIP3    H125951   5.228   4.512   7.387  0.0011  0.5832  0.5482
 1464TIP3    H225952   5.374   4.474   7.382 -0.2526 -0.2653 -0.6548
 1465TIP3   OH225953   3.321   2.111   7.066  0.8492 -0.1508 -0.4030
 1465TIP3    H125954   3.314   2.160   7.147  0.5553 -0.4160 -0.2663
 1465TIP3    H225955   3.289   2.171   6.999 -1.0628 -0.6955 -0.0295
 1466TIP3   OH225956   2.636   6.518   7.575 -0.1762 -0.5528  0.0946
 1466TIP3    H125957   2.629   6.461   7.498  0.9031  1.5064 -1.6443
 1466TIP3    H225958   2.618   6.605   7.541  1.6135  0.6080  1.9299
 1467TIP3   OH225959   4.565   5.365   7.136  0.1832 -0.0057  0.3745
 1467TIP3    H125960   4.477   5.343   7.106  0.0774 -0.3595  0.9297
 1467TIP3    H225961   4.551   5.432   7.204  0.1908 -1.3823  1.7962
 1468TIP3   OH225962   1.799   3.638   2.089  0.5565 -0.6564  0.1445
 1468TIP3    H125963   1.780   3.617   1.998 -0.0971  0.5703 -0.0110
 1468TIP3    H225964   1.890   3.669   2.088  0.7717 -1.2783  0.0263
 1469TIP3   OH225965   2.993   2.698   1.597 -0.3556  0.0224 -0.3216
 1469TIP3    H125966   3.050   2.672   1.670  0.5357  1.9194 -0.2893
 1469TIP3    H225967   2.916   2.734   1.640 -0.5464 -0.3426 -0.3505
 1470TIP3   OH225968   1.084   5.800   7.144  0.3634 -0.1076  0.5422
 1470TIP3    H125969   1.162   5.830   7.096  0.4017 -1.7534 -0.5204
 1470TIP3    H225970   1.090   5.705   7.140 -2.6665 -0.3418 -1.2435
 1471TIP3   OH225971   2.229   3.079   7.696  0.4431 -0.0737 -0.9587
 1471TIP3    H125972   2.192   3.049   7.779  3.1522 -0.0433  0.3791
 1471TIP3    H225973   2.214   3.173   7.695 -1.3048 -0.3224 -1.4919
 1472TIP3   OH225974   3.957   0.170   1.272  0.8528 -0.2223 -0.3541
 1472TIP3    H125975   3.866   0.197   1.281  0.6667 -1.1709  0.8066
 1472TIP3    H225976   4.002   0.212   1.345  1.4955  0.7474 -1.2716
 1473TIP3   OH225977   6.569   1.839   7.809 -0.1517 -0.4502 -0.1174
 1473TIP3    H125978   6.597   1.780   7.878 -1.2080  1.3884  2.0167
 1473TIP3    H225979   6.484   1.805   7.780 -1.0858  0.2864  1.5794
 1474TIP3   OH225980   4.522   6.774   8.381 -0.1183  0.0002 -0.1535
 1474TIP3    H125981   4.491   6.808   8.297 -1.3617  0.2320  0.3826
 1474TIP3    H225982   4.582   6.703   8.358  2.7048  2.5430 -1.3329
 1475TIP3   OH225983   5.484   3.988   6.769  0.6049  0.2565 -0.2418
 1475TIP3    H125984   5.440   3.974   6.685  1.0025 -0.8819 -0.2716
 1475TIP3    H225985   5.543   3.913   6.778 -0.0664 -0.1044  1.4600
 1476TIP3   OH225986   3.492   5.424   0.784 -0.2632  0.3094  0.4362
 1476TIP3    H125987   3.439   5.406   0.706 -0.1925  1.8881 -0.0113
 1476TIP3    H225988   3.579   5.391   0.762 -0.2612  0.6841 -0.1225
 1477TIP3   OH225989   4.748   4.325   7.744 -0.2704 -0.1436  0.3504
 1477TIP3    H125990   4.828   4.273   7.733 -0.0835  0.5037 -1.8504
 1477TIP3    H225991   4.759   4.398   7.683 -3.2003 -0.8770 -1.2011
 1478TIP3   OH225992   3.848   4.588   7.879 -0.3581 -0.0596 -0.7307
 1478TIP3    H125993   3.824   4.551   7.794  0.3525  1.2236 -1.5349
 1478TIP3    H225994   3.767   4.626   7.913 -0.3396  0.7350 -1.5476
 1479TIP3   OH225995   6.787   6.428   0.270 -0.0192 -0.1077  0.8343
 1479TIP3    H125996   6.751   6.401   0.185  0.4090  0.3523  0.4954
 1479TIP3    H225997   6.803   6.522   0.259  0.7990 -0.2061  1.1545
 1480TIP3   OH225998   4.727   1.999   1.476  0.0133  0.3807  0.0585
 1480TIP3    H125999   4.734   2.049   1.394 -1.3195  0.0438 -0.2890
 1480TIP3    H226000   4.817   1.992   1.508  0.5060  0.8869 -1.1611
 1481TIP3   OH226001   5.344   4.538   7.918  0.1227 -0.1767 -0.2265
 1481TIP3    H126002   5.322   4.492   7.999 -0.4375  0.6851  0.1274
 1481TIP3    H226003   5.437   4.557   7.926 -0.0983  0.6344  0.6174
 1482TIP3   OH226004   3.237   0.878   2.112  0.2219 -0.0562  0.8407
 1482TIP3    H126005   3.162   0.937   2.117  1.1864  1.2694  0.1791
 1482TIP3    H226006   3.249   0.845   2.201 -2.0203 -1.4573  0.6945
 1483TIP3   OH226007   5.779   4.278   1.466 -0.0064  0.0222 -0.3733
 1483TIP3    H126008   5.698   4.267   1.416  0.2752  0.0159 -0.8263
 1483TIP3    H226009   5.780   4.370   1.490 -0.1545  0.0201 -0.3553
 1484TIP3   OH226010   0.479   0.965   8.113 -0.2782 -0.2395  0.2353
 1484TIP3    H126011   0.492   1.060   8.123 -0.5232 -0.1342 -0.3738
 1484TIP3    H226012   0.493   0.929   8.200  3.2325 -0.0358 -0.1028
 1485TIP3   OH226013   5.766   1.517   1.711 -0.6720 -0.2252  0.2648
 1485TIP3    H126014   5.714   1.440   1.687  0.7193 -2.1522  2.8672
 1485TIP3    H226015   5.702   1.579   1.747 -1.4591 -1.9523  2.0530
 1486TIP3   OH226016   2.336   2.792   1.001  0.4960  0.6605  0.2845
 1486TIP3    H126017   2.353   2.733   1.074 -0.7325  0.3325  0.3250
 1486TIP3    H226018   2.362   2.742   0.923 -0.2201  0.1839  0.3446
 1487TIP3   OH226019   1.226   2.804   8.266  0.2044 -0.4908 -0.1026
 1487TIP3    H126020   1.268   2.789   8.181  1.5845  0.3323  0.4163
 1487TIP3    H226021   1.132   2.806   8.246  0.5190 -0.0921 -1.6451
 1488TIP3   OH226022   3.445   3.153   7.876  0.7620 -0.1428 -0.2440
 1488TIP3    H126023   3.396   3.073   7.857 -1.2439  1.2175 -1.0982
 1488TIP3    H226024   3.386   3.224   7.851  2.1153  1.6387  1.3386
 1489TIP3   OH226025   0.112   3.107   1.110 -0.8382 -0.2666  0.2905
 1489TIP3    H126026   0.119   3.183   1.053 -1.5461  0.1822  0.7891
 1489TIP3    H226027   0.200   3.069   1.111 -0.3701  0.7985  0.3821
 1490TIP3   OH226028   4.488   3.476   1.024 -0.7299  0.0211  0.3525
 1490TIP3    H126029   4.493   3.499   1.117  2.4456 -2.5096  0.9841
 1490TIP3    H226030   4.518   3.385   1.021 -0.7644  0.0162 -3.1789
 1491TIP3   OH226031   5.391   5.081   0.489 -0.2594  0.2751  0.0116
 1491TIP3    H126032   5.358   5.001   0.449  0.4686  0.2703 -0.5990
 1491TIP3    H226033   5.486   5.073   0.486 -0.1789  0.9914  0.2902
 1492TIP3   OH226034   6.161   0.764   0.938 -0.4378 -0.0487 -0.5520
 1492TIP3    H126035   6.234   0.781   0.878 -1.5295 -1.0568 -2.2462
 1492TIP3    H226036   6.178   0.821   1.013  1.9061 -0.0185 -1.0232
 1493TIP3   OH226037   1.813   4.902   1.100 -0.6700 -0.1160 -0.2912
 1493TIP3    H126038   1.835   4.994   1.112 -0.1287 -0.0663 -1.4792
 1493TIP3    H226039   1.896   4.855   1.109 -1.4488 -1.0275  4.3273
 1494TIP3   OH226040   4.478   0.772   7.801  0.6909  0.0311 -0.2720
 1494TIP3    H126041   4.462   0.797   7.711  0.1062  1.5702  0.2372
 1494TIP3    H226042   4.399   0.727   7.829  0.6285  0.0994 -0.3405
 1495TIP3   OH226043   5.052   3.405   7.320  0.2695 -0.1556  0.5324
 1495TIP3    H126044   4.957   3.408   7.308  0.4381  1.6522 -0.8002
 1495TIP3    H226045   5.069   3.318   7.356 -1.7946 -0.8621 -0.0543
 1496TIP3   OH226046   6.369   2.621   0.534 -0.3165 -0.1291  0.0680
 1496TIP3    H126047   6.282   2.580   0.529 -0.9586  1.2901 -1.2047
 1496TIP3    H226048   6.390   2.619   0.627 -1.5360 -0.8707  0.3600
 1497TIP3   OH226049   0.799   1.310   2.287  0.3263  0.1925  0.3440
 1497TIP3    H126050   0.816   1.341   2.198  0.1261  0.7622  0.4993
 1497TIP3    H226051   0.707   1.283   2.286  0.6198 -0.8440  0.0877
 1498TIP3   OH226052   1.460   1.932   0.680 -0.4965 -0.2569  0.0340
 1498TIP3    H126053   1.503   1.871   0.740  0.0138  1.4451  1.4840
 1498TIP3    H226054   1.412   1.992   0.737 -1.3464  0.4395 -1.3577
 1499TIP3   OH226055   4.387   4.988   7.992 -0.0846 -0.1358  0.0616
 1499TIP3    H126056   4.296   4.995   7.963  0.2207  2.1416 -0.5316
 1499TIP3    H226057   4.437   4.977   7.911  0.3156  0.6845  0.1853
 1500TIP3   OH226058   1.412   2.687   0.271  0.4594  0.2994  0.6239
 1500TIP3    H126059   1.366   2.769   0.290 -2.6637 -1.4473  1.2762
 1500TIP3    H226060   1.407   2.679   0.176 -1.1535 -0.0691  0.7004
 1501TIP3   OH226061   0.811   5.270   2.439 -0.4337  0.3054  0.6472
 1501TIP3    H126062   0.896   5.314   2.433  0.5386 -1.4380  1.0059
 1501TIP3    H226063   0.823   5.201   2.504 -1.4869 -1.3238 -0.7713
 1502TIP3   OH226064   4.228   5.148   0.387  0.5087 -0.0833  0.0835
 1502TIP3    H126065   4.322   5.144   0.368  0.1915 -0.6610 -1.5153
 1502TIP3    H226066   4.195   5.216   0.328 -0.1073  0.0384  0.5622
 1503TIP3   OH226067   0.235   6.622   7.330  0.2202  0.3392  0.4195
 1503TIP3    H126068   0.219   6.704   7.378  1.3590  0.1397  1.1847
 1503TIP3    H226069   0.285   6.649   7.253  0.1943  0.4170  0.4300
 1504TIP3   OH226070   5.310   5.814   0.501 -0.3256 -0.3908  0.3649
 1504TIP3    H126071   5.377   5.803   0.434 -0.9945  1.7102 -0.7394
 1504TIP3    H226072   5.358   5.835   0.581  0.3669 -0.2163 -0.0998
 1505TIP3   OH226073   5.075   4.571   8.521  0.4667  0.3381 -0.4656
 1505TIP3    H126074   5.126   4.651   8.509 -0.8393  1.4067  0.6764
 1505TIP3    H226075   5.098   4.540   8.608  0.5265 -0.2001 -0.6685
 1506TIP3   OH226076   6.125   4.468   7.344  0.0685  0.3689  0.0071
 1506TIP3    H126077   6.210   4.511   7.351 -0.7151  1.6614  2.7996
 1506TIP3    H226078   6.064   4.538   7.323 -0.7677  0.1115  1.4627
 1507TIP3   OH226079   3.051   6.789   0.872 -0.2034  0.0896 -0.7923
 1507TIP3    H126080   3.070   6.840   0.793 -2.8214  0.5101 -1.2487
 1507TIP3    H226081   2.978   6.836   0.913 -0.1538 -1.1982  0.8548
 1508TIP3   OH226082   3.964   2.824   7.786  0.0086 -0.4440  0.5177
 1508TIP3    H126083   3.962   2.877   7.706  0.9016  1.2186  1.5326
 1508TIP3    H226084   3.968   2.734   7.755 -1.9652  0.0032 -1.3021
 1509TIP3   OH226085   2.555   3.126   2.427 -0.0549 -0.1042  0.1443
 1509TIP3    H126086   2.500   3.095   2.498 -0.0369 -0.5148 -0.0152
 1509TIP3    H226087   2.606   3.049   2.401  0.3033  0.1688  0.0269
 1510TIP3   OH226088   6.708   3.033   1.426  0.4470  0.1578  1.1415
 1510TIP3    H126089   6.797   3.067   1.436  0.0434  2.1144 -1.0750
 1510TIP3    H226090   6.718   2.956   1.370  0.6092  2.2675 -2.0411
 1511TIP3   OH226091   2.281   5.101   1.711 -0.0041  0.6644  0.0474
 1511TIP3    H126092   2.355   5.055   1.672 -0.7398 -0.5569  0.0671
 1511TIP3    H226093   2.204   5.051   1.685 -0.5369 -0.5030  3.4138
 1512TIP3   OH226094   6.562   6.358   1.335  0.0589 -0.0938 -0.1907
 1512TIP3    H126095   6.484   6.365   1.281 -0.3193 -0.5083  0.2942
 1512TIP3    H226096   6.635   6.371   1.274 -0.3942  1.0767 -0.5199
 1513TIP3   OH226097   1.568   4.491   1.573  0.1353 -0.2343 -0.2672
 1513TIP3    H126098   1.507   4.461   1.505  0.2249 -0.1726 -0.3762
 1513TIP3    H226099   1.523   4.563   1.616  0.1608 -0.1406 -0.3966
 1514TIP3   OH226100   1.126   6.030   0.399 -0.0422 -0.2187  0.2306
 1514TIP3    H126101   1.086   6.115   0.381  1.1545  0.7898  2.0426
 1514TIP3    H226102   1.076   5.996   0.473  0.1575 -0.6176  0.1811
 1515TIP3   OH226103   5.428   1.163   8.475 -0.0789  0.0246 -0.2347
 1515TIP3    H126104   5.447   1.158   8.569  1.7385  0.5531 -0.5571
 1515TIP3    H226105   5.374   1.086   8.458  0.4504 -0.6554  1.0508
 1516TIP3   OH226106   4.694   6.427   2.748 -0.1281  0.6893  0.2271
 1516TIP3    H126107   4.764   6.493   2.755  0.3498  0.4095 -1.5645
 1516TIP3    H226108   4.614   6.478   2.736  0.0793  0.9584 -0.0037
 1517TIP3   OH226109   4.171   6.331   0.004 -0.9293  0.1348  0.3059
 1517TIP3    H126110   4.216   6.293   0.079 -0.6966 -0.3195 -0.0517
 1517TIP3    H226111   4.190   6.424   0.008  0.4591 -0.1112 -0.1024
 1518TIP3   OH226112   0.386   1.191   1.308 -0.4195  0.2587 -0.0135
 1518TIP3    H126113   0.384   1.223   1.398 -3.8346 -0.2775  0.2309
 1518TIP3    H226114   0.391   1.096   1.316  0.7604  0.2588 -0.4868
 1519TIP3   OH226115   0.111   3.099   1.378 -0.5827  0.1129  0.4618
 1519TIP3    H126116   0.177   3.030   1.388 -0.2321  0.3266 -0.2752
 1519TIP3    H226117   0.110   3.117   1.284 -0.9154  0.8739  0.6048
 1520TIP3   OH226118   2.171   3.463   8.620  0.1543 -0.2626  0.3749
 1520TIP3    H126119   2.080   3.453   8.592 -0.0529  0.9759  0.5651
 1520TIP3    H226120   2.219   3.402   8.564 -0.6195  0.0899 -0.7182
 1521TIP3   OH226121   6.841   5.972   0.214  0.2317  0.4555  0.4873
 1521TIP3    H126122   6.857   6.058   0.253  0.6968  0.7123 -0.2602
 1521TIP3    H226123   6.928   5.943   0.185 -0.0503  0.0981 -0.0079
 1522TIP3   OH226124   1.826   6.560   0.137  0.0007 -0.5391 -0.0293
 1522TIP3    H126125   1.732   6.538   0.138 -0.1108 -0.0710  0.8072
 1522TIP3    H226126   1.835   6.621   0.064 -0.0645 -1.7412 -1.0597
 1523TIP3   OH226127   4.877   4.641   8.331  0.1777  0.3517 -0.1035
 1523TIP3    H126128   4.949   4.613   8.388  0.6282  0.0906 -0.7900
 1523TIP3    H226129   4.905   4.616   8.243 -0.4747  0.8257 -0.4532
 1524TIP3   OH226130   0.230   1.190   8.036  0.2825 -0.7820 -0.0289
 1524TIP3    H126131   0.236   1.094   8.037  0.7566 -0.7504  0.6529
 1524TIP3    H226132   0.284   1.217   7.962  0.3348 -1.0342 -0.0839
 1525TIP3   OH226133   1.656   2.774   6.958  0.0388  0.1420 -0.0276
 1525TIP3    H126134   1.721   2.789   7.027  0.0163  0.9856 -0.1692
 1525TIP3    H226135   1.701   2.797   6.877  1.0781 -3.7543 -0.7496
 1526TIP3   OH226136   2.668   6.758   0.967 -0.3369  0.2361  0.0559
 1526TIP3    H126137   2.677   6.812   0.889 -0.9522 -2.0390 -1.6941
 1526TIP3    H226138   2.630   6.676   0.935 -0.1322 -0.9735  2.6781
 1527TIP3   OH226139   5.725   0.650   2.127  0.1301  0.1174 -0.3439
 1527TIP3    H126140   5.804   0.606   2.094  0.1168 -0.3469  0.2340
 1527TIP3    H226141   5.723   0.630   2.220  1.1879  2.9911  0.3754
 1528TIP3   OH226142   4.477   1.704   0.097 -0.0426 -0.6135 -0.0897
 1528TIP3    H126143   4.547   1.651   0.133 -0.1168 -0.7021 -0.0776
 1528TIP3    H226144   4.431   1.739   0.173 -0.0939 -0.6621 -0.0986
 1529TIP3   OH226145   1.576   2.397   8.262 -0.4756 -0.5391 -0.5659
 1529TIP3    H126146   1.535   2.321   8.220  1.0114 -1.3821 -0.6014
 1529TIP3    H226147   1.591   2.368   8.352 -1.0110  0.1722 -0.2493
 1530TIP3   OH226148   5.214   2.026   7.529  0.0109 -0.3423  0.2559
 1530TIP3    H126149   5.213   2.113   7.490 -0.0234 -0.6516 -0.4589
 1530TIP3    H226150   5.292   1.984   7.492 -0.1516 -0.7217  0.3401
 1531TIP3   OH226151   3.749   1.817   2.220 -0.3808 -0.3001 -0.4213
 1531TIP3    H126152   3.709   1.830   2.133 -1.2861  0.2963  0.0719
 1531TIP3    H226153   3.820   1.881   2.223  0.1333 -0.8300 -1.0015
 1532TIP3   OH226154   4.631   1.162   8.060  0.0385 -0.1964 -0.1515
 1532TIP3    H126155   4.668   1.220   7.993  1.2207 -1.4407 -0.6179
 1532TIP3    H226156   4.589   1.221   8.122  2.9633  1.4026  0.5205
 1533TIP3   OH226157   1.387   1.215   7.781  0.6291 -0.0059  0.2513
 1533TIP3    H126158   1.388   1.308   7.759  0.6240 -0.1117 -0.2095
 1533TIP3    H226159   1.430   1.172   7.707  1.3072 -0.3009  0.8020
 1534TIP3   OH226160   0.179   5.542   7.816 -0.2756 -0.1053  0.0933
 1534TIP3    H126161   0.164   5.616   7.757 -1.0091 -0.0206  0.3732
 1534TIP3    H226162   0.129   5.470   7.777 -1.2354  0.1033  0.8944
 1535TIP3   OH226163   2.891   1.502   2.031 -0.3570  0.2640  0.6330
 1535TIP3    H126164   2.929   1.539   1.952  1.9123 -3.2561 -0.1288
 1535TIP3    H226165   2.819   1.447   2.001 -0.0811 -0.3640  1.0970
 1536TIP3   OH226166   1.106   5.226   2.154 -0.4569 -0.3715  0.1002
 1536TIP3    H126167   1.114   5.145   2.205  0.8100 -0.9415 -0.9655
 1536TIP3    H226168   1.071   5.289   2.217  3.0752 -0.4334  2.4021
 1537TIP3   OH226169   4.646   4.187   0.652  0.1715 -0.0396 -0.0026
 1537TIP3    H126170   4.716   4.139   0.609 -1.3512  0.8784 -3.9430
 1537TIP3    H226171   4.686   4.271   0.677  0.6232  0.3769 -1.9622
 1538TIP3   OH226172   5.240   6.615   7.326 -0.2776 -0.1822  0.2147
 1538TIP3    H126173   5.194   6.531   7.326 -1.4421  0.3687  2.3870
 1538TIP3    H226174   5.170   6.681   7.322  0.5048  0.6787  0.2692
 1539TIP3   OH226175   4.353   3.327   8.596 -0.1732  0.4966 -0.0038
 1539TIP3    H126176   4.373   3.245   8.551  0.2159  0.2278  0.6452
 1539TIP3    H226177   4.267   3.352   8.563 -0.8593 -0.8277  0.6919
 1540TIP3   OH226178   1.122   5.505   1.273 -0.7242 -0.2981 -0.2560
 1540TIP3    H126179   1.170   5.587   1.286 -2.0930  0.3766  0.7587
 1540TIP3    H226180   1.145   5.451   1.349  0.7899 -1.1996 -1.3147
 1541TIP3   OH226181   1.147   2.766   0.561 -0.2424  0.0175  0.0182
 1541TIP3    H126182   1.129   2.854   0.593 -2.1054 -0.0760 -0.6203
 1541TIP3    H226183   1.096   2.709   0.618  1.8737 -0.8097  1.1802
 1542TIP3   OH226184   2.648   0.277   1.931  0.1528 -0.2993 -0.0612
 1542TIP3    H126185   2.736   0.303   1.902  0.9954 -0.8454  1.8335
 1542TIP3    H226186   2.637   0.321   2.015 -1.6241  0.1369 -0.4793
 1543TIP3   OH226187   5.725   4.308   0.771 -0.0501  0.4206  0.1730
 1543TIP3    H126188   5.750   4.325   0.861  0.6982 -0.1923  0.0888
 1543TIP3    H226189   5.630   4.323   0.769 -0.1933 -0.2317  1.2178
 1544TIP3   OH226190   4.912   1.916   2.231 -0.3760  0.2628  0.1766
 1544TIP3    H126191   4.967   1.919   2.153 -0.4823 -0.9057  0.0387
 1544TIP3    H226192   4.829   1.956   2.203 -0.4385 -0.2135 -0.3313
 1545TIP3   OH226193   5.268   2.474   8.132  0.0148 -0.1007  0.5797
 1545TIP3    H126194   5.199   2.488   8.068 -0.9325 -0.9417  1.3903
 1545TIP3    H226195   5.339   2.433   8.082  0.9533  2.8765 -0.7921
 1546TIP3   OH226196   5.631   6.005   0.135  0.2477 -0.1155  0.3933
 1546TIP3    H126197   5.694   6.063   0.178 -1.0573  1.1278  0.7002
 1546TIP3    H226198   5.591   6.059   0.067 -0.5404 -0.8690  0.2425
 1547TIP3   OH226199   3.460   2.240   1.842  0.3882  0.4530  0.1452
 1547TIP3    H126200   3.537   2.288   1.812  0.2244 -0.5097 -1.9633
 1547TIP3    H226201   3.409   2.223   1.763 -0.3444 -1.8036  1.0115
 1548TIP3   OH226202   4.900   3.105   8.369 -0.0167  0.3618  0.0041
 1548TIP3    H126203   4.994   3.117   8.361  0.4320 -2.2241  0.6532
 1548TIP3    H226204   4.870   3.087   8.279  0.2505  0.2676 -0.0648
 1549TIP3   OH226205   5.366   1.406   6.875 -0.2862 -0.2876  0.1379
 1549TIP3    H126206   5.313   1.424   6.796  1.4047 -0.6793 -1.1453
 1549TIP3    H226207   5.400   1.492   6.901 -2.2547  0.1292  1.5674
 1550TIP3   OH226208   6.096   2.603   0.276  0.1142  0.3219 -0.3821
 1550TIP3    H126209   6.091   2.690   0.315  0.6048  0.6457 -1.0124
 1550TIP3    H226210   6.133   2.618   0.189  1.5877 -0.6497  0.0238
 1551TIP3   OH226211   0.902   4.562   7.139  0.0173 -0.2412  0.1391
 1551TIP3    H126212   0.905   4.651   7.105 -0.5034 -0.4965 -0.6079
 1551TIP3    H226213   0.966   4.514   7.087 -0.7277 -0.6184 -0.4540
 1552TIP3   OH226214   1.948   2.108   1.716  0.1572  0.4910  0.2384
 1552TIP3    H126215   1.881   2.163   1.755  0.7349  0.5553  1.1714
 1552TIP3    H226216   2.002   2.168   1.664  1.0411  0.9148  1.5932
 1553TIP3   OH226217   5.006   2.095   7.958  0.1603  0.3326 -1.0594
 1553TIP3    H126218   4.964   2.051   7.885 -3.2138  0.1703  0.7871
 1553TIP3    H226219   5.089   2.049   7.970 -1.9147 -3.7712 -0.9982
 1554TIP3   OH226220   0.866   0.589   1.655  0.7854  0.5979  0.0619
 1554TIP3    H126221   0.895   0.563   1.568  1.1213  0.0085  0.3430
 1554TIP3    H226222   0.790   0.644   1.639 -0.2798 -0.9655 -0.5641
 1555TIP3   OH226223   2.884   6.234   8.582 -0.1148 -0.4971 -0.1204
 1555TIP3    H126224   2.960   6.279   8.620  1.4788 -2.2016 -1.1191
 1555TIP3    H226225   2.813   6.250   8.644  1.4945 -0.2798  1.7755
 1556TIP3   OH226226   1.347   1.825   1.833  0.1604  0.2336 -0.1333
 1556TIP3    H126227   1.339   1.920   1.835 -0.0005  0.2150  0.0913
 1556TIP3    H226228   1.333   1.797   1.923 -0.9813 -0.0933 -0.3920
 1557TIP3   OH226229   0.993   3.033   8.631 -0.4463  0.4168 -0.4683
 1557TIP3    H126230   1.038   2.954   8.659 -1.7516 -0.4226 -0.6364
 1557TIP3    H226231   0.941   3.006   8.555  1.2133  2.1079 -2.3156
 1558TIP3   OH226232   4.542   5.995   7.369  0.2078  0.3089  0.9794
 1558TIP3    H126233   4.626   5.998   7.323  0.4528  3.3069  1.4497
 1558TIP3    H226234   4.562   6.028   7.457 -1.2550 -0.1521  1.5108
 1559TIP3   OH226235   4.435   5.983   1.378  0.2561  0.6644 -0.4805
 1559TIP3    H126236   4.396   5.896   1.377  0.9360  0.3473 -0.3640
 1559TIP3    H226237   4.361   6.043   1.369 -0.4321  0.1526  1.2753
 1560TIP3   OH226238   4.743   4.454   0.695  0.2827  0.1086 -0.1295
 1560TIP3    H126239   4.834   4.466   0.720  0.5620  0.4996 -1.2827
 1560TIP3    H226240   4.699   4.535   0.719  0.3823  0.1828 -0.2009
 1561TIP3   OH226241   0.987   0.197   2.377 -0.6188 -0.1983  0.2383
 1561TIP3    H126242   1.006   0.253   2.452  3.2384 -1.6648  0.5389
 1561TIP3    H226243   0.998   0.254   2.301  1.7200 -0.1046  0.5975
 1562TIP3   OH226244   5.313   2.509   2.191  0.0623 -0.1414  1.1569
 1562TIP3    H126245   5.256   2.558   2.250  0.2997 -0.6681  1.8358
 1562TIP3    H226246   5.402   2.535   2.216  0.1740 -0.5690  1.2186
 1563TIP3   OH226247   2.415   6.352   2.336  0.1638 -0.6124  0.4802
 1563TIP3    H126248   2.503   6.373   2.369 -0.3766 -0.0952  1.6483
 1563TIP3    H226249   2.362   6.340   2.414 -1.0453  0.0650 -0.2053
 1564TIP3   OH226250   6.850   0.304   8.093  0.4724 -0.0270  0.2587
 1564TIP3    H126251   6.929   0.299   8.039  1.2439 -0.0269  1.3648
 1564TIP3    H226252   6.791   0.362   8.044  1.3849  0.4598 -0.2914
 1565TIP3   OH226253   0.618   2.136   8.310  0.0047  0.1170  0.6206
 1565TIP3    H126254   0.652   2.082   8.239 -0.5901  0.3364  0.1598
 1565TIP3    H226255   0.685   2.203   8.323  0.8742 -0.8688  1.3801
 1566TIP3   OH226256   5.309   1.036   0.852  0.0605  0.2900 -0.3530
 1566TIP3    H126257   5.235   1.007   0.905 -0.0722 -1.2815 -1.3299
 1566TIP3    H226258   5.386   0.998   0.897  0.0819  0.2262 -0.4424
 1567TIP3   OH226259   6.022   6.772   2.210 -0.1256 -0.4129 -0.1422
 1567TIP3    H126260   5.946   6.812   2.168  0.3223  0.2882 -0.2923
 1567TIP3    H226261   6.007   6.784   2.304  0.4600  0.9922 -0.2041
 1568TIP3   OH226262   4.546   2.611   8.445 -0.0620 -0.3376 -0.0325
 1568TIP3    H126263   4.640   2.597   8.437 -0.0822 -0.2651 -0.4119
 1568TIP3    H226264   4.514   2.617   8.354 -0.2317  0.9649  0.0847
 1569TIP3   OH226265   4.809   0.241   2.407  0.4863 -0.0233  0.1224
 1569TIP3    H126266   4.863   0.313   2.439  0.5434  0.2523 -0.5807
 1569TIP3    H226267   4.810   0.177   2.478  1.7216 -0.0214  0.1247
 1570TIP3   OH226268   2.830   4.868   8.339  0.1889  0.1135  0.0808
 1570TIP3    H126269   2.771   4.912   8.278 -0.5234  0.0516  0.7238
 1570TIP3    H226270   2.849   4.784   8.297  1.3030  0.8617 -1.0019
 1571TIP3   OH226271   0.799   3.589   0.097  0.4008 -0.0398 -0.4284
 1571TIP3    H126272   0.839   3.572   0.182 -2.5698 -0.3262  1.0454
 1571TIP3    H226273   0.709   3.617   0.117 -0.6297 -0.7141 -3.4802
 1572TIP3   OH226274   2.478   3.024   7.926  0.5836 -0.0632  0.1536
 1572TIP3    H126275   2.545   2.986   7.984  0.4330  0.4838  0.7036
 1572TIP3    H226276   2.398   3.022   7.979  0.7607  1.8639  0.5744
 1573TIP3   OH226277   2.856   3.965   7.631 -0.0724 -0.0013 -0.8745
 1573TIP3    H126278   2.823   4.029   7.694 -2.6368 -1.7185 -0.3009
 1573TIP3    H226279   2.931   4.007   7.590  0.4471  1.9882  1.8678
 1574TIP3   OH226280   5.908   4.144   0.609  0.0531  0.1941  0.5430
 1574TIP3    H126281   5.865   4.074   0.657 -2.5035  0.6866 -0.8608
 1574TIP3    H226282   5.878   4.224   0.652  0.4829  0.5354  0.2156
 1575TIP3   OH226283   3.318   4.734   7.795  0.1114  0.7783  0.3127
 1575TIP3    H126284   3.359   4.711   7.711 -0.4983 -1.4168  0.5463
 1575TIP3    H226285   3.225   4.712   7.783 -0.2474  1.7698  1.1314
 1576TIP3   OH226286   2.477   6.213   0.265 -0.0830 -0.1765  0.2414
 1576TIP3    H126287   2.551   6.160   0.295  1.7426  1.6686 -0.7306
 1576TIP3    H226288   2.517   6.294   0.233 -2.3490  0.1317 -2.1584
 1577TIP3   OH226289   6.073   0.030   8.433  0.0367  0.1014 -0.0692
 1577TIP3    H126290   6.079  -0.063   8.457 -0.6556 -0.3848 -1.6288
 1577TIP3    H226291   6.001   0.033   8.370  0.4135  1.6159 -0.4502
 1578TIP3   OH226292   1.562   1.388   3.198 -0.1657  0.2192 -0.1213
 1578TIP3    H126293   1.586   1.439   3.276 -0.4458 -1.4279  1.0871
 1578TIP3    H226294   1.641   1.338   3.177  0.8584  2.5902 -2.6230
 1579TIP3   OH226295   2.607   5.190   7.998 -0.0763 -0.1909 -0.2669
 1579TIP3    H126296   2.517   5.175   8.028  0.2906  0.6373  1.3112
 1579TIP3    H226297   2.600   5.265   7.938 -0.2035  1.1175  1.3312
 1580TIP3   OH226298   2.432   1.687   7.503  0.2031 -0.4889 -0.0076
 1580TIP3    H126299   2.434   1.641   7.419 -1.2960 -0.7383  0.0661
 1580TIP3    H226300   2.509   1.654   7.550  1.6374  0.4015 -1.6280
 1581TIP3   OH226301   2.654   5.500   0.887 -0.2935  0.1887  0.4165
 1581TIP3    H126302   2.574   5.552   0.876 -0.3945 -0.2209 -0.9713
 1581TIP3    H226303   2.724   5.557   0.857 -0.4303 -0.5085 -1.3377
 1582TIP3   OH226304   5.393   1.453   0.280 -0.0356 -0.0238  0.0649
 1582TIP3    H126305   5.335   1.508   0.227 -0.1732 -1.2572 -1.1177
 1582TIP3    H226306   5.376   1.364   0.250  2.0744 -0.4892  0.0507
 1583TIP3   OH226307   0.730   6.115   1.508 -0.0682 -0.0083  0.1015
 1583TIP3    H126308   0.698   6.057   1.439  1.4646 -0.6345 -0.1310
 1583TIP3    H226309   0.702   6.073   1.589  1.3564 -1.3508 -0.0500
 1584TIP3   OH226310   4.133   1.924   1.410  0.3310  0.0476 -0.6324
 1584TIP3    H126311   4.139   1.851   1.472 -1.0401  0.9127  0.5875
 1584TIP3    H226312   4.223   1.957   1.404  0.2383  1.2364  2.5932
 1585TIP3   OH226313   1.107   0.114   7.532 -0.2179 -0.5346 -0.3021
 1585TIP3    H126314   1.017   0.114   7.502  0.0371 -1.6553 -1.1255
 1585TIP3    H226315   1.155   0.065   7.465  0.5866 -1.9861  1.2562
 1586TIP3   OH226316   5.060   4.232   8.464  0.0137  0.5303  0.5004
 1586TIP3    H126317   5.129   4.296   8.451 -0.7468  1.4702  0.9695
 1586TIP3    H226318   5.006   4.239   8.385 -0.5871  1.1356  0.9572
 1587TIP3   OH226319   5.908   3.910   0.789  0.4510 -0.1064 -0.7784
 1587TIP3    H126320   5.819   3.929   0.758  0.5563  1.9772  0.0787
 1587TIP3    H226321   5.899   3.826   0.834 -1.2579  0.4027 -0.0696
 1588TIP3   OH226322   3.262   4.270   1.302  0.7714  1.1588  0.0900
 1588TIP3    H126323   3.353   4.293   1.318  0.4229  1.6688  1.5279
 1588TIP3    H226324   3.215   4.353   1.308  0.0359  0.7025  0.9606
 1589TIP3   OH226325   3.355   5.927   2.770  0.1167 -0.5420  0.4865
 1589TIP3    H126326   3.264   5.944   2.793  0.4024 -0.8137  1.8897
 1589TIP3    H226327   3.376   5.994   2.705 -1.3417 -1.0427 -0.5654
 1590TIP3   OH226328   1.050   6.849   1.045 -0.6238 -0.8179  0.3226
 1590TIP3    H126329   1.139   6.882   1.054 -1.0822  0.5889 -0.0782
 1590TIP3    H226330   1.050   6.800   0.962 -0.4696  0.0670 -0.2116
 1591TIP3   OH226331   4.810   0.852   0.352 -0.3933 -0.3464 -0.4523
 1591TIP3    H126332   4.753   0.807   0.414 -1.8039  2.3846  0.4118
 1591TIP3    H226333   4.894   0.860   0.398 -0.2823 -1.5325 -0.4198
 1592TIP3   OH226334   1.773   6.214   2.236  0.8597  0.4577 -0.3507
 1592TIP3    H126335   1.776   6.292   2.181 -1.4308  0.2689 -0.8196
 1592TIP3    H226336   1.743   6.247   2.321 -3.6759 -0.1995 -1.4560
 1593TIP3   OH226337   3.247   6.002   8.186  0.9044  0.5363 -0.4106
 1593TIP3    H126338   3.205   5.959   8.261  1.2719  0.9410  0.0323
 1593TIP3    H226339   3.206   6.088   8.181  0.7017  0.4182 -0.8361
 1594TIP3   OH226340   1.364   2.183   8.257  0.0310 -0.8690 -0.2868
 1594TIP3    H126341   1.358   2.089   8.241 -1.1532 -0.6661 -1.2058
 1594TIP3    H226342   1.360   2.223   8.169 -0.0313  0.0617  0.1215
 1595TIP3   OH226343   4.670   4.014   1.787  0.4580  0.1382  0.3448
 1595TIP3    H126344   4.726   3.983   1.858  0.4327 -2.0075 -0.4961
 1595TIP3    H226345   4.602   3.947   1.779 -1.3355  1.8523  0.2591
 1596TIP3   OH226346   3.677   6.836   1.896  0.0378 -0.2225 -0.2041
 1596TIP3    H126347   3.677   6.745   1.925  0.6224 -0.6920 -1.5731
 1596TIP3    H226348   3.621   6.836   1.818  2.2223 -0.0190 -1.8782
 1597TIP3   OH226349   5.848   0.224   7.445 -0.4238 -0.4151  0.0379
 1597TIP3    H126350   5.898   0.189   7.372  1.3144  0.5105  0.7096
 1597TIP3    H226351   5.832   0.316   7.421 -0.2343 -0.2284  0.6089
 1598TIP3   OH226352   3.122   1.297   8.370 -0.3796  0.6211  0.0664
 1598TIP3    H126353   3.151   1.279   8.280 -1.0439 -0.2288  0.0070
 1598TIP3    H226354   3.048   1.238   8.383  1.9020 -2.0501  2.4093
 1599TIP3   OH226355   2.503   2.854   1.644  0.1759 -0.1725  0.3901
 1599TIP3    H126356   2.486   2.877   1.735  2.6999 -0.8181  1.1012
 1599TIP3    H226357   2.491   2.937   1.596  0.6819  0.6240  1.6040
 1600TIP3   OH226358   3.179   0.585   8.214  0.2789 -0.0394  0.6407
 1600TIP3    H126359   3.104   0.539   8.176  0.7892  0.6165 -1.2569
 1600TIP3    H226360   3.143   0.669   8.243  0.3789  0.6263 -1.0351
 1601TIP3   OH226361   6.711   5.661   8.646 -0.3839 -0.0707 -0.0034
 1601TIP3    H126362   6.680   5.607   8.574  0.5878 -0.4935 -0.1182
 1601TIP3    H226363   6.632   5.686   8.693 -1.0549  0.3994 -1.3321
 1602TIP3   OH226364   2.384   4.757   6.979 -0.3328  0.0720 -0.0093
 1602TIP3    H126365   2.358   4.824   6.915  0.4132 -1.4998 -2.0984
 1602TIP3    H226366   2.472   4.782   7.005 -0.1991  0.1319 -0.4990
 1603TIP3   OH226367   5.095   4.925   2.540 -0.2916 -0.4024  0.0981
 1603TIP3    H126368   5.042   5.002   2.521  0.2060  0.2350  1.2718
 1603TIP3    H226369   5.075   4.903   2.631 -0.3522 -1.6122 -0.1808
 1604TIP3   OH226370   6.297   5.127   0.467  0.0762  0.3414 -0.1453
 1604TIP3    H126371   6.299   5.214   0.508 -0.0609  0.6226 -0.7344
 1604TIP3    H226372   6.380   5.120   0.421  0.7854 -0.4767  1.1795
 1605TIP3   OH226373   0.143   2.572   1.678 -0.0898 -0.6150 -0.0771
 1605TIP3    H126374   0.223   2.535   1.716  0.9757  0.9558 -0.6659
 1605TIP3    H226375   0.075   2.507   1.696  1.1911 -1.7248  0.9730
 1606TIP3   OH226376   4.753   0.882   0.046  0.2566  0.6785  0.2873
 1606TIP3    H126377   4.724   0.834  -0.032  1.1702  0.5106  0.0343
 1606TIP3    H226378   4.678   0.936   0.070 -0.0494  0.7191 -0.7079
 1607TIP3   OH226379   6.093   6.260   2.678  0.0058  0.4487  0.2088
 1607TIP3    H126380   6.054   6.175   2.659 -0.3614  0.4265  1.0352
 1607TIP3    H226381   6.140   6.247   2.760  1.3998  0.5959 -0.5368
 1608TIP3   OH226382   3.374   2.961   2.810  0.2625 -0.0132  0.2939
 1608TIP3    H126383   3.442   2.991   2.750  2.0924 -0.3612  2.0712
 1608TIP3    H226384   3.317   3.037   2.822  0.1674  0.2238 -1.4053
 1609TIP3   OH226385   0.157   6.417   0.524 -0.0884  0.5167 -0.1950
 1609TIP3    H126386   0.116   6.502   0.512 -1.6970 -0.0237  1.0831
 1609TIP3    H226387   0.110   6.378   0.598  0.8029 -1.3510 -0.5506
 1610TIP3   OH226388   5.414   1.295   7.850 -0.0780 -0.5294  0.0216
 1610TIP3    H126389   5.468   1.225   7.815  0.2622  0.1018 -0.7390
 1610TIP3    H226390   5.358   1.252   7.915 -0.3701 -1.6371 -0.9262
 1611TIP3   OH226391   6.500   5.033   1.381  0.2600  0.4935 -0.5306
 1611TIP3    H126392   6.479   5.108   1.325 -2.5257  0.3281  0.1159
 1611TIP3    H226393   6.420   4.980   1.380 -0.0569  0.5948  3.7350
 1612TIP3   OH226394   6.111   3.010   7.234  0.2037 -0.4764  0.2596
 1612TIP3    H126395   6.163   3.086   7.207  2.0521 -0.5358  3.2071
 1612TIP3    H226396   6.108   2.954   7.156 -0.8049  2.2996 -1.8690
 1613TIP3   OH226397   2.949   5.894   0.330  0.4854 -0.1664 -0.3545
 1613TIP3    H126398   2.906   5.918   0.247 -1.1357  0.9936  0.7596
 1613TIP3    H226399   3.034   5.938   0.326 -0.1591  1.0944 -0.7986
 1614TIP3   OH226400   6.824   0.109   0.081 -0.2810 -0.2000  0.2105
 1614TIP3    H126401   6.824   0.065  -0.004 -0.6542 -0.9484  0.5944
 1614TIP3    H226402   6.890   0.178   0.072  0.6265 -1.1103 -0.2525
 1615TIP3   OH226403   6.013   5.819   0.069  0.0017 -0.0848  0.7246
 1615TIP3    H126404   5.965   5.899   0.051 -0.4595 -0.2691  1.1248
 1615TIP3    H226405   6.071   5.841   0.142 -0.1258 -0.1137  0.8351
 1616TIP3   OH226406   6.752   3.834   1.416  0.4802 -0.0567 -0.0167
 1616TIP3    H126407   6.837   3.818   1.374  0.2325 -2.2484  0.2121
 1616TIP3    H226408   6.741   3.761   1.476 -1.1714  0.6949  0.6415
 1617TIP3   OH226409   0.338   0.447   1.736 -0.0442  0.3239  0.1719
 1617TIP3    H126410   0.308   0.501   1.809 -0.0687 -1.2915  1.4064
 1617TIP3    H226411   0.431   0.433   1.752  0.0761  0.3977 -0.4176
 1618TIP3   OH226412   2.708   3.676   7.384  0.0725  0.5547  0.4667
 1618TIP3    H126413   2.676   3.766   7.381 -1.7626  0.0360  2.2013
 1618TIP3    H226414   2.690   3.647   7.473  2.8032 -0.8085  0.6823
 1619TIP3   OH226415   3.746   4.876   0.433  0.1536  0.4038 -0.5615
 1619TIP3    H126416   3.705   4.817   0.371  0.9397  0.9184 -1.5972
 1619TIP3    H226417   3.840   4.865   0.419  0.3386  0.7092  0.3628
 1620TIP3   OH226418   0.392   6.128   6.483 -0.3097 -0.5882  0.3288
 1620TIP3    H126419   0.421   6.096   6.568  0.2063 -1.2544 -0.0831
 1620TIP3    H226420   0.317   6.073   6.460 -0.6770 -0.1677  0.5131
 1621TIP3   OH226421   4.265   6.060   1.952  0.0365 -0.5648 -0.1436
 1621TIP3    H126422   4.299   5.985   1.902  2.9472  0.2613  0.4261
 1621TIP3    H226423   4.235   6.022   2.035 -0.5472 -1.3446 -0.6946
 1622TIP3   OH226424   5.625   5.748   0.065 -0.9125  0.2930 -0.5247
 1622TIP3    H126425   5.647   5.841   0.071  0.0475  0.0147  1.1233
 1622TIP3    H226426   5.531   5.744   0.080 -1.1779  1.0752 -1.8686
 1623TIP3   OH226427   6.511   2.755   6.510 -0.3109  0.2102 -0.2703
 1623TIP3    H126428   6.447   2.756   6.440 -0.3101 -1.0505 -0.3159
 1623TIP3    H226429   6.475   2.814   6.577 -0.5423  1.0380 -1.1097
 1624TIP3   OH226430   4.344   0.730   1.159 -0.4253 -0.2977 -0.5498
 1624TIP3    H126431   4.433   0.752   1.129 -0.1613 -0.7789 -0.1397
 1624TIP3    H226432   4.356   0.650   1.210 -1.1315 -0.4869 -0.6742
 1625TIP3   OH226433   5.992   3.388   8.417 -0.2694 -0.1384  0.3707
 1625TIP3    H126434   6.045   3.424   8.488  0.9181 -0.4784 -0.3269
 1625TIP3    H226435   5.902   3.392   8.451  0.2394 -0.0672  1.7955
 1626TIP3   OH226436   4.271   4.630   8.104 -0.5390  0.0558  0.0170
 1626TIP3    H126437   4.305   4.713   8.138 -0.8087 -0.3719  1.3951
 1626TIP3    H226438   4.334   4.564   8.134 -0.8838 -0.3669 -0.1739
 1627TIP3   OH226439   5.921   1.350   0.872 -0.4926  0.2263 -0.5414
 1627TIP3    H126440   5.936   1.277   0.813 -0.4757  1.1309 -1.6759
 1627TIP3    H226441   6.008   1.375   0.904 -0.4987 -0.2279 -0.1509
 1628TIP3   OH226442   1.679   6.640   8.257  0.2008 -0.1485  0.7239
 1628TIP3    H126443   1.773   6.653   8.247  0.0691  0.6376  0.4887
 1628TIP3    H226444   1.640   6.724   8.234 -0.4366  0.2708  3.0895
 1629TIP3   OH226445   2.903   4.403   0.635 -0.1966 -0.6093 -0.2361
 1629TIP3    H126446   2.948   4.470   0.582 -0.3157  1.2430  1.8374
 1629TIP3    H226447   2.810   4.415   0.615 -0.1640 -0.6638 -0.4200
 1630TIP3   OH226448   6.097   5.561   1.918 -0.2108  0.0988  0.5394
 1630TIP3    H126449   6.190   5.552   1.938 -0.2979  1.5622  1.7751
 1630TIP3    H226450   6.085   5.511   1.837  1.1133 -2.1956  1.6606
 1631TIP3   OH226451   5.717   3.057   1.333 -0.1498  0.1392 -0.5513
 1631TIP3    H126452   5.756   3.063   1.246  0.8042 -0.9411 -0.2187
 1631TIP3    H226453   5.764   3.121   1.385 -0.3457  0.3932 -0.6808
 1632TIP3   OH226454   6.364   1.549   1.750 -0.0880  0.1225  0.2109
 1632TIP3    H126455   6.408   1.634   1.744 -2.2572  1.2354 -1.1838
 1632TIP3    H226456   6.414   1.501   1.816  0.9939  2.5967  1.3214
 1633TIP3   OH226457   3.485   1.450   1.884 -0.5243 -0.2943 -0.3518
 1633TIP3    H126458   3.482   1.395   1.962 -1.7802 -0.9407 -0.8258
 1633TIP3    H226459   3.394   1.475   1.869 -0.0635  1.4993 -0.4658
 1634TIP3   OH226460   4.254   3.018   8.571 -0.3551 -0.5343 -0.0745
 1634TIP3    H126461   4.249   2.929   8.536 -1.1281 -0.8285  0.7324
 1634TIP3    H226462   4.254   3.007   8.666 -0.7919  0.3381  0.0419
 1635TIP3   OH226463   1.824   5.277   1.905 -0.1606  0.0414 -0.0145
 1635TIP3    H126464   1.906   5.301   1.862  0.9628 -2.5436  0.5009
 1635TIP3    H226465   1.850   5.246   1.991 -1.6245 -1.1588  0.0310
 1636TIP3   OH226466   1.238   5.003   1.106  0.4059  0.2451  0.6621
 1636TIP3    H126467   1.332   5.016   1.097  0.1288  1.2164 -1.2237
 1636TIP3    H226468   1.198   5.063   1.043 -1.4959 -0.1160  1.4254
 1637TIP3   OH226469   2.472   4.203   0.373  0.0399 -0.6249 -0.0590
 1637TIP3    H126470   2.546   4.144   0.384  0.5086  0.0603  0.5963
 1637TIP3    H226471   2.512   4.290   0.367 -0.3942 -0.5216 -3.7769
 1638TIP3   OH226472   0.696   6.589   0.033  0.6520  0.4642  0.3932
 1638TIP3    H126473   0.693   6.559   0.124  0.1318  0.9110  0.5263
 1638TIP3    H226474   0.767   6.654   0.033 -1.4992  2.9767  1.2803
 1639TIP3   OH226475   6.252   3.370   7.772  0.8233 -0.0281  0.3037
 1639TIP3    H126476   6.250   3.464   7.785 -0.4809  0.1990 -1.1785
 1639TIP3    H226477   6.220   3.358   7.682 -0.2972 -1.9524  0.9097
 1640TIP3   OH226478   4.301   2.489   7.507 -0.0900  0.2984 -0.2872
 1640TIP3    H126479   4.390   2.488   7.470  0.2544  1.3575  0.4545
 1640TIP3    H226480   4.244   2.471   7.432  0.6839  0.7790 -1.0106
 1641TIP3   OH226481   2.969   5.549   7.701 -0.4913  0.0798 -0.6638
 1641TIP3    H126482   2.974   5.466   7.750  0.4953 -0.3460 -1.4499
 1641TIP3    H226483   2.897   5.597   7.743 -0.6118 -0.8686  0.2696
 1642TIP3   OH226484   1.584   1.135   2.457 -0.2997 -0.2636  0.2999
 1642TIP3    H126485   1.605   1.074   2.387 -0.7389 -0.4018  0.2853
 1642TIP3    H226486   1.501   1.102   2.493  0.4975 -0.8962  1.6578
 1643TIP3   OH226487   0.331   1.251   0.454 -0.0100 -0.1738  0.3014
 1643TIP3    H126488   0.276   1.178   0.484  0.8765 -0.8025  0.4355
 1643TIP3    H226489   0.294   1.328   0.497  1.6187 -1.0940  3.6463
 1644TIP3   OH226490   2.285   4.054   0.781 -0.1756  0.2422  0.0325
 1644TIP3    H126491   2.314   4.049   0.690  0.3468  0.8711  0.1622
 1644TIP3    H226492   2.365   4.060   0.832 -0.4901  1.5663  0.4210
 1645TIP3   OH226493   1.808   1.117   1.665 -0.2345 -0.3598 -0.2794
 1645TIP3    H126494   1.838   1.190   1.610  0.7244  0.2180  0.9384
 1645TIP3    H226495   1.716   1.136   1.682 -0.6662 -0.7546 -1.9424
 1646TIP3   OH226496   6.799   2.055   1.084 -0.1689 -0.8514 -0.3606
 1646TIP3    H126497   6.715   2.090   1.116  0.4037 -0.5979  0.9304
 1646TIP3    H226498   6.775   1.976   1.036 -1.4879  1.0349 -3.0862
 1647TIP3   OH226499   0.792   6.793   8.238  0.0554 -0.2141  0.3043
 1647TIP3    H126500   0.760   6.835   8.158 -0.0692  1.7832  1.3606
 1647TIP3    H226501   0.886   6.810   8.238 -0.2154  1.4936  1.5032
 1648TIP3   OH226502   1.192   2.126   0.442 -0.4609  0.1737  0.0549
 1648TIP3    H126503   1.223   2.037   0.423  0.8185 -0.0460  2.7250
 1648TIP3    H226504   1.141   2.150   0.365  1.8617 -1.5801 -2.2196
 1649TIP3   OH226505   0.477   4.364   0.844  0.0210  0.5744  0.0220
 1649TIP3    H126506   0.398   4.362   0.898  1.1206  1.1134  1.7313
 1649TIP3    H226507   0.500   4.457   0.839  1.4258  0.3163  0.9437
 1650TIP3   OH226508   4.670   0.344   0.208  0.5719  0.2065  0.1977
 1650TIP3    H126509   4.700   0.434   0.200 -1.1976  0.7315 -1.1005
 1650TIP3    H226510   4.608   0.345   0.281 -0.3712  0.3236 -0.5923
 1651TIP3   OH226511   1.938   0.517   8.177  0.6880 -0.7120 -0.1423
 1651TIP3    H126512   1.983   0.550   8.254 -1.3850 -0.7458  1.1836
 1651TIP3    H226513   1.992   0.444   8.147  2.3568  0.2996  0.3014
 1652TIP3   OH226514   4.634   4.741   8.685  0.3050  0.2733 -0.6391
 1652TIP3    H126515   4.634   4.647   8.665 -0.3414  0.4035 -1.2856
 1652TIP3    H226516   4.634   4.745   8.781  0.7135 -0.3815 -0.6064
 1653TIP3   OH226517   1.549   4.121   2.073 -0.4007 -0.4705  0.1442
 1653TIP3    H126518   1.569   4.161   2.158  0.4449 -1.0904  0.2437
 1653TIP3    H226519   1.581   4.031   2.080  0.3823 -0.3127 -1.0948
 1654TIP3   OH226520   3.076   2.654   1.094 -0.2968 -0.0224  0.1622
 1654TIP3    H126521   3.064   2.559   1.103 -0.8803  0.1367  1.2191
 1654TIP3    H226522   3.091   2.685   1.183 -0.8461  0.9780 -0.0782
 1655TIP3   OH226523   1.254   0.791   0.273  0.2760 -0.0714 -0.2614
 1655TIP3    H126524   1.231   0.877   0.307  2.4312  0.6976 -0.5330
 1655TIP3    H226525   1.338   0.771   0.314  0.4750 -1.4171 -1.2548
 1656TIP3   OH226526   6.129   1.792   1.168  0.1637  0.1944 -0.0059
 1656TIP3    H126527   6.150   1.736   1.093  0.0115 -0.6399  0.5521
 1656TIP3    H226528   6.071   1.859   1.133 -0.1400 -0.3584 -0.5765
 1657TIP3   OH226529   4.917   4.302   1.756 -0.1665  0.2443 -0.2969
 1657TIP3    H126530   4.938   4.211   1.734 -0.0498  0.5640 -1.5700
 1657TIP3    H226531   4.997   4.350   1.735 -0.7564  0.8666 -1.1497
 1658TIP3   OH226532   5.855   6.234   1.384  0.2804 -0.1147  0.3590
 1658TIP3    H126533   5.869   6.147   1.420 -1.0254 -0.8794 -0.8620
 1658TIP3    H226534   5.932   6.284   1.410  0.5951 -1.3320  1.9388
 1659TIP3   OH226535   0.408   4.816   8.646 -0.0561 -0.3177 -0.2825
 1659TIP3    H126536   0.381   4.855   8.730  0.7952  0.1765 -0.2262
 1659TIP3    H226537   0.499   4.791   8.659 -0.4221 -1.8611 -0.5103
 1660TIP3   OH226538   2.114   4.807   8.467 -0.1074  0.5694 -0.2013
 1660TIP3    H126539   2.121   4.899   8.440 -2.1607  1.2758  1.4460
 1660TIP3    H226540   2.160   4.803   8.551 -1.1989  0.4344  0.4035
 1661TIP3   OH226541   1.847   3.225   0.164 -0.0236  0.4340 -0.3195
 1661TIP3    H126542   1.874   3.145   0.118  0.8254  0.0848  0.7523
 1661TIP3    H226543   1.856   3.294   0.098 -2.8841 -0.5806 -1.9774
 1662TIP3   OH226544   6.549   4.792   0.211 -0.0260  0.1787 -0.4817
 1662TIP3    H126545   6.510   4.768   0.295  1.1990  0.1792  0.1066
 1662TIP3    H226546   6.552   4.887   0.212 -0.3073  0.1902 -0.6684
 1663TIP3   OH226547   6.360   6.418   0.708  0.7717  0.1579  0.3498
 1663TIP3    H126548   6.300   6.347   0.733  1.4909 -0.3313  0.7240
 1663TIP3    H226549   6.366   6.412   0.613  0.7484 -0.2276  0.3678
 1664TIP3   OH226550   0.119   1.014   0.255  0.3968  0.6283  0.0734
 1664TIP3    H126551   0.122   0.996   0.349 -0.1580  0.2612  0.0231
 1664TIP3    H226552   0.208   1.043   0.234  0.7558 -0.0861  0.5522
 1665TIP3   OH226553   4.227   0.447   8.539 -0.2072  0.2742  0.1063
 1665TIP3    H126554   4.173   0.494   8.603 -0.2374 -0.2077  0.4431
 1665TIP3    H226555   4.193   0.357   8.541 -1.5858  0.6790 -2.1019
 1666TIP3   OH226556   0.226   5.090   1.171 -0.1359 -0.2661  0.2073
 1666TIP3    H126557   0.189   5.019   1.224 -1.5216 -0.3475 -0.7990
 1666TIP3    H226558   0.320   5.070   1.166 -0.5841 -2.4218 -0.5949
 1667TIP3   OH226559   0.552   1.086   1.802  0.1565  0.1831  0.2471
 1667TIP3    H126560   0.616   1.024   1.768  0.3962  1.1725 -1.1781
 1667TIP3    H226561   0.527   1.139   1.726 -0.6463  1.2966  1.2552
 1668TIP3   OH226562   1.048   5.155   7.142  0.7602  0.5600 -0.4135
 1668TIP3    H126563   1.076   5.162   7.050  0.3227  3.5774 -0.4031
 1668TIP3    H226564   0.971   5.098   7.139  1.5738 -0.5404 -1.6910
 1669TIP3   OH226565   0.465   3.082   7.820 -0.1138 -0.1950 -0.5458
 1669TIP3    H126566   0.442   3.135   7.896  0.4427  1.6882 -1.6291
 1669TIP3    H226567   0.394   3.097   7.758 -1.7243 -3.4436  0.3049
 1670TIP3   OH226568   3.285   4.641   0.088  0.3427 -0.4250  0.4716
 1670TIP3    H126569   3.283   4.616   0.181  0.5368  0.0610  0.6095
 1670TIP3    H226570   3.331   4.725   0.087 -1.7016  0.7525  0.2261
 1671TIP3   OH226571   1.337   1.858   0.105 -0.0509  0.3936 -0.4175
 1671TIP3    H126572   1.350   1.811   0.023 -2.0838 -0.6261 -0.2208
 1671TIP3    H226573   1.361   1.949   0.084  1.4017 -0.2173 -1.5460
 1672TIP3   OH226574   3.494   6.063   1.804 -0.3497  0.5886 -0.3078
 1672TIP3    H126575   3.574   6.045   1.755 -0.6353  5.5983 -3.4070
 1672TIP3    H226576   3.523   6.116   1.878 -0.6286  1.1284 -0.5780
 1673TIP3   OH226577   4.830   6.642   1.295 -0.1822 -0.1497  0.4962
 1673TIP3    H126578   4.841   6.549   1.315 -2.4464 -0.6363 -0.2242
 1673TIP3    H226579   4.836   6.647   1.200  2.3822  0.8872  0.6404
 1674TIP3   OH226580   0.751   5.882   7.537  0.2030  0.4659 -0.0964
 1674TIP3    H126581   0.822   5.946   7.539  1.4087 -0.8484  1.2984
 1674TIP3    H226582   0.776   5.820   7.468  0.9174 -0.4927  0.9851
 1675TIP3   OH226583   4.464   4.476   7.557  0.2477 -0.3454  0.0609
 1675TIP3    H126584   4.494   4.548   7.613 -0.6600 -1.5616  2.2593
 1675TIP3    H226585   4.488   4.397   7.606  0.0154 -1.5115 -1.6397
 1676TIP3   OH226586   1.264   2.838   1.977  0.3257  0.0356  0.0107
 1676TIP3    H126587   1.188   2.876   2.022 -0.3896 -1.4325  0.0950
 1676TIP3    H226588   1.318   2.802   2.047 -0.1864 -1.1863 -0.2086
 1677TIP3   OH226589   3.650   2.220   8.389 -0.1228 -0.0625 -0.2534
 1677TIP3    H126590   3.676   2.134   8.355  0.7478  0.6898 -1.5814
 1677TIP3    H226591   3.725   2.249   8.441 -0.3655 -0.0373  0.0898
 1678TIP3   OH226592   0.876   2.868   0.296  0.0113 -0.1210  0.2062
 1678TIP3    H126593   0.861   2.953   0.255 -1.2286 -0.2443  0.3747
 1678TIP3    H226594   0.954   2.834   0.253 -0.2840  0.4914 -0.8352
 1679TIP3   OH226595   5.921   1.423   8.683 -0.1632 -0.2761  0.4534
 1679TIP3    H126596   5.900   1.362   8.753 -0.4580 -1.1265 -0.3468
 1679TIP3    H226597   5.987   1.482   8.720  0.2110 -1.1596  1.2099
 1680TIP3   OH226598   4.450   5.922   8.135  0.2723 -0.5565 -0.6241
 1680TIP3    H126599   4.395   5.868   8.191  0.6859 -0.8293 -0.4803
 1680TIP3    H226600   4.519   5.953   8.192  1.4050 -1.8408 -1.2405
 1681TIP3   OH226601   2.192   0.416   7.830 -0.1626 -0.0682  0.2516
 1681TIP3    H126602   2.126   0.483   7.850 -0.9032 -0.2624 -1.3641
 1681TIP3    H226603   2.276   0.462   7.838 -0.5168  0.3750  1.6066
 1682TIP3   OH226604   3.475   1.609   2.570  0.1557  0.5815  0.6899
 1682TIP3    H126605   3.559   1.653   2.588  0.6448 -0.7274  1.7776
 1682TIP3    H226606   3.479   1.529   2.622 -1.6729  0.3608  0.5342
 1683TIP3   OH226607   5.424   3.848   1.141  0.3715 -0.5324 -0.4461
 1683TIP3    H126608   5.445   3.789   1.214  0.2201  0.5682  0.5210
 1683TIP3    H226609   5.451   3.934   1.172 -3.0389  0.6029 -0.1383
 1684TIP3   OH226610   2.641   6.704   7.807 -0.4925 -0.0002  0.3391
 1684TIP3    H126611   2.664   6.665   7.723  0.3097 -0.1125  0.5964
 1684TIP3    H226612   2.724   6.737   7.841 -0.7099 -0.4438  1.3384
 1685TIP3   OH226613   4.753   3.745   0.776 -0.2133 -0.3368 -0.4200
 1685TIP3    H126614   4.735   3.655   0.801 -3.0493 -0.1546 -1.5057
 1685TIP3    H226615   4.719   3.798   0.848  1.1610 -0.0745  0.0699
 1686TIP3   OH226616   0.749   3.190   7.644 -0.2644 -0.4298 -0.3084
 1686TIP3    H126617   0.659   3.215   7.664  0.2646  1.1881  0.2213
 1686TIP3    H226618   0.767   3.228   7.558 -0.2402 -1.1868 -0.6455
 1687TIP3   OH226619   0.406   4.975   2.199  0.0524  0.1013 -0.6325
 1687TIP3    H126620   0.342   5.004   2.265  0.7886  0.4325 -0.0455
 1687TIP3    H226621   0.491   4.993   2.239  0.5234 -0.9480 -1.1299
 1688TIP3   OH226622   6.457   4.490   1.246 -0.2059  0.2840 -0.8159
 1688TIP3    H126623   6.368   4.456   1.253  0.3563 -1.0359  0.1902
 1688TIP3    H226624   6.495   4.476   1.332  1.5183 -0.7828 -1.6899
 1689TIP3   OH226625   4.169   0.334   3.186 -0.5683  0.1193 -0.1762
 1689TIP3    H126626   4.080   0.359   3.208 -0.7976 -0.0162 -0.9451
 1689TIP3    H226627   4.217   0.417   3.180  0.1895  0.1520  3.4554
 1690TIP3   OH226628   5.666   1.013   0.695 -0.1905 -0.1439 -0.1612
 1690TIP3    H126629   5.758   1.035   0.676 -0.3468  2.0835  1.3076
 1690TIP3    H226630   5.616   1.071   0.638 -0.6987 -0.5370 -0.1195
 1691TIP3   OH226631   2.913   6.460   0.877 -0.0393  0.0091 -0.3004
 1691TIP3    H126632   2.969   6.389   0.909  0.4009  0.7488  0.5954
 1691TIP3    H226633   2.824   6.425   0.882  0.1279 -0.3102  0.6340
 1692TIP3   OH226634   2.368   4.589   7.915  0.0436  0.4395  0.0262
 1692TIP3    H126635   2.280   4.553   7.908  0.0610  0.4979 -0.6036
 1692TIP3    H226636   2.417   4.524   7.966  0.4404 -1.1760 -2.2201
 1693TIP3   OH226637   6.826   0.949   1.945 -0.4948 -0.1471  0.0663
 1693TIP3    H126638   6.842   1.012   2.014  1.2397  0.0788 -0.5141
 1693TIP3    H226639   6.766   0.993   1.885  1.8990  1.6314 -1.1590
 1694TIP3   OH226640   3.366   2.303   0.338  0.9366 -0.4785  0.5193
 1694TIP3    H126641   3.440   2.261   0.294  0.6259 -0.6578  0.1563
 1694TIP3    H226642   3.291   2.246   0.318  0.9462 -1.0707  2.0551
 1695TIP3   OH226643   6.273   1.259   0.120 -0.0232 -0.0933 -0.8455
 1695TIP3    H126644   6.266   1.180   0.066 -1.7611 -0.6682  0.1553
 1695TIP3    H226645   6.366   1.264   0.142  0.2673 -1.3594 -1.6582
 1696TIP3   OH226646   4.394   1.371   6.982 -0.2621 -0.0332 -0.2848
 1696TIP3    H126647   4.435   1.403   7.062  0.8564  0.3382 -0.9688
 1696TIP3    H226648   4.309   1.338   7.009  1.1500 -2.5077  1.5277
 1697TIP3   OH226649   4.137   1.473   7.522  0.0322  0.3909  0.3541
 1697TIP3    H126650   4.192   1.456   7.598  0.3879  0.8046  0.1940
 1697TIP3    H226651   4.196   1.512   7.458 -0.7561  2.3256  0.7507
 1698TIP3   OH226652   4.914   0.287   1.620 -0.6407 -0.5294  0.3155
 1698TIP3    H126653   4.849   0.329   1.677 -0.1670 -0.1894  0.6057
 1698TIP3    H226654   4.976   0.246   1.680 -0.5878 -0.8693  0.0346
 1699TIP3   OH226655   3.775   6.678   7.819  0.2252  0.1945 -0.1612
 1699TIP3    H126656   3.754   6.759   7.772 -0.1896  0.5846  0.6840
 1699TIP3    H226657   3.787   6.706   7.910  2.5661 -0.2916 -0.2499
 1700TIP3   OH226658   1.623   5.965   0.933  0.2360  0.0932 -0.0237
 1700TIP3    H126659   1.710   5.986   0.968 -0.2681 -0.1184  1.4472
 1700TIP3    H226660   1.632   5.880   0.892  0.3190 -0.8643  1.8786
 1701TIP3   OH226661   0.066   0.493   2.327  0.3312 -0.6021 -0.2703
 1701TIP3    H126662   0.026   0.546   2.258  0.1151 -0.2867  0.0911
 1701TIP3    H226663   0.085   0.556   2.396  0.7155 -0.8864 -0.1152
 1702TIP3   OH226664   2.057   6.468   8.594 -0.2849 -0.9638 -0.2009
 1702TIP3    H126665   2.020   6.489   8.680  1.2895 -0.9880  0.5358
 1702TIP3    H226666   2.131   6.410   8.614  0.5501 -0.4000 -1.4941
 1703TIP3   OH226667   1.806   5.901   2.787 -0.1511  0.2733  0.3730
 1703TIP3    H126668   1.885   5.862   2.751 -0.4850 -0.2958  0.2522
 1703TIP3    H226669   1.741   5.892   2.718 -0.6287 -0.2775  0.8924
 1704TIP3   OH226670   4.655   5.484   1.350  0.0579  0.2307  0.2959
 1704TIP3    H126671   4.569   5.524   1.355  1.4692  3.7833 -0.8047
 1704TIP3    H226672   4.673   5.453   1.439 -1.2442  2.0002  1.2190
 1705TIP3   OH226673   3.767   2.110   7.275 -0.6414 -0.2469 -0.3911
 1705TIP3    H126674   3.802   2.085   7.189 -0.3691 -0.2903 -0.2661
 1705TIP3    H226675   3.843   2.135   7.326 -0.9149  1.1370 -0.5999
 1706TIP3   OH226676   6.384   2.504   7.761 -0.3171 -0.3283  0.7008
 1706TIP3    H126677   6.340   2.427   7.798 -0.7048  0.1446  1.2543
 1706TIP3    H226678   6.316   2.550   7.713 -0.2854  0.0731  1.0279
 1707TIP3   OH226679   3.931   5.363   7.190 -0.3198  0.2795 -0.1359
 1707TIP3    H126680   4.002   5.372   7.253  0.0002  0.4804 -0.5236
 1707TIP3    H226681   3.917   5.451   7.155 -1.7189  0.5302  0.9552
 1708TIP3   OH226682   3.679   1.988   8.252 -0.4206 -0.7798 -0.2844
 1708TIP3    H126683   3.595   1.965   8.213 -0.8405  1.0983 -0.6034
 1708TIP3    H226684   3.719   1.904   8.274 -1.5786 -1.7930 -1.7896
 1709TIP3   OH226685   6.574   2.207   1.160  0.3026  0.2545  0.5017
 1709TIP3    H126686   6.547   2.165   1.242 -0.1347  0.2762  0.3707
 1709TIP3    H226687   6.556   2.300   1.174  0.1667  0.2498  0.3561
 1710TIP3   OH226688   1.326   4.961   2.777  0.5109  0.2330  0.7782
 1710TIP3    H126689   1.233   4.944   2.763  0.3216  1.7889 -0.0758
 1710TIP3    H226690   1.359   4.984   2.690  1.5014  0.5830  1.2322
 1711TIP3   OH226691   1.378   1.188   8.171  0.1566 -0.2694 -0.0638
 1711TIP3    H126692   1.379   1.117   8.235 -0.7649  0.0978  0.3806
 1711TIP3    H226693   1.335   1.260   8.216  1.5111  0.7436 -0.3497
 1712TIP3   OH226694   3.067   0.570   1.675  0.2594 -0.0169  0.3003
 1712TIP3    H126695   3.101   0.514   1.605  1.0440 -0.7011  1.1950
 1712TIP3    H226696   3.136   0.635   1.688  0.0846  0.1506  0.3828
 1713TIP3   OH226697   5.240   5.314   7.704  0.8457  0.1874  0.6783
 1713TIP3    H126698   5.190   5.393   7.682 -1.8620 -1.8294 -1.0737
 1713TIP3    H226699   5.205   5.286   7.788  1.8052  0.7970  1.2986
 1714TIP3   OH226700   6.545   6.707   7.920  0.4633 -0.6879 -0.3633
 1714TIP3    H126701   6.603   6.652   7.867  0.5178 -0.6283 -0.3647
 1714TIP3    H226702   6.569   6.687   8.011  1.4836  0.4084 -0.3794
 1715TIP3   OH226703   2.276   3.461   8.268  0.4231  0.1878 -0.0928
 1715TIP3    H126704   2.336   3.529   8.239 -0.6336  1.3423  0.3120
 1715TIP3    H226705   2.237   3.428   8.187  1.7871 -0.7922 -0.3818
 1716TIP3   OH226706   0.026   1.190   8.239 -0.2387  0.0959  0.3486
 1716TIP3    H126707   0.047   1.100   8.265 -0.3129 -0.1102 -0.2856
 1716TIP3    H226708   0.081   1.206   8.163  0.8868  1.1289  1.3518
 1717TIP3   OH226709   0.487   2.146   1.270  0.5013 -0.4217  0.0229
 1717TIP3    H126710   0.450   2.210   1.331 -1.6593 -2.5902  1.2221
 1717TIP3    H226711   0.492   2.191   1.187  0.5887  1.7536  1.1450
 1718TIP3   OH226712   4.570   0.849   1.041 -0.3033  0.2699  0.0730
 1718TIP3    H126713   4.508   0.913   1.008  0.4554  0.4268 -1.0803
 1718TIP3    H226714   4.651   0.898   1.056  0.9869 -0.6973 -2.8835
 1719TIP3   OH226715   2.043   5.986   0.144  0.6143  0.1346  0.5105
 1719TIP3    H126716   2.071   6.075   0.163  0.6528 -0.1134  1.6956
 1719TIP3    H226717   2.076   5.934   0.217 -0.8077 -0.5862  0.6771
 1720TIP3   OH226718   1.064   1.057   1.144 -0.4864  0.2219 -0.2725
 1720TIP3    H126719   1.084   1.148   1.123  0.7702 -0.2938 -1.4246
 1720TIP3    H226720   1.071   1.053   1.240  0.9035  1.0200 -0.3184
 1721TIP3   OH226721   5.336   1.540   8.040 -0.4687 -0.1639  0.2662
 1721TIP3    H126722   5.294   1.512   8.121 -1.5974 -0.1222 -0.2780
 1721TIP3    H226723   5.265   1.577   7.988  0.5468  1.5087 -0.0096
 1722TIP3   OH226724   1.754   3.943   1.894  0.6271 -0.0381  0.4963
 1722TIP3    H126725   1.704   3.896   1.961  1.1170 -1.6226 -0.2040
 1722TIP3    H226726   1.693   3.953   1.821  0.7597 -0.2977  0.3488
 1723TIP3   OH226727   5.587   5.823   2.647 -0.4898 -0.0694 -0.3819
 1723TIP3    H126728   5.682   5.828   2.656 -0.5083  1.3817 -0.6254
 1723TIP3    H226729   5.554   5.820   2.736 -0.2627  1.5204 -0.2160
 1724TIP3   OH226730   4.422   2.830   7.652 -0.0192 -0.3670 -0.5986
 1724TIP3    H126731   4.435   2.826   7.747  0.2360  2.0387 -0.4709
 1724TIP3    H226732   4.329   2.811   7.640 -0.5631  1.4626  0.3846
 1725TIP3   OH226733   2.242   5.826   7.230 -0.2740 -0.3706  0.1007
 1725TIP3    H126734   2.295   5.756   7.192  0.8407  0.3322  0.3050
 1725TIP3    H226735   2.181   5.781   7.288  1.2715 -1.1215  1.2332
 1726TIP3   OH226736   6.047   5.983   1.450  0.7823 -0.0351  0.6841
 1726TIP3    H126737   5.996   5.964   1.528 -0.2527 -2.3848 -0.4740
 1726TIP3    H226738   6.138   5.970   1.477  0.4894 -0.1559  1.6507
 1727TIP3   OH226739   3.482   0.435   0.071  0.5615 -0.2651 -0.0209
 1727TIP3    H126740   3.542   0.509   0.080  0.8409 -0.2935 -1.4205
 1727TIP3    H226741   3.458   0.435  -0.022  0.2533 -1.6970  0.0405
 1728TIP3   OH226742   4.286   0.085   0.275  0.0661 -0.2827 -0.9108
 1728TIP3    H126743   4.357   0.088   0.211  1.5398  0.9321  0.6765
 1728TIP3    H226744   4.330   0.066   0.358 -1.6678 -0.8983 -0.0900
 1729TIP3   OH226745   0.818   3.940   7.335 -0.8766 -0.2258  0.0741
 1729TIP3    H126746   0.805   3.993   7.257 -1.0077 -0.6057 -0.1652
 1729TIP3    H226747   0.843   3.854   7.302 -1.3480 -0.5078  0.4335
 1730TIP3   OH226748   5.147   0.640   8.183  0.2807  0.0893 -0.4591
 1730TIP3    H126749   5.180   0.552   8.168  0.0969 -0.6898  2.9165
 1730TIP3    H226750   5.052   0.631   8.184  0.2429  0.4474 -0.6619
 1731TIP3   OH226751   4.659   0.906   1.475 -0.0233 -0.3473 -0.6032
 1731TIP3    H126752   4.704   0.871   1.398  0.2170  1.7280 -1.4721
 1731TIP3    H226753   4.574   0.863   1.475  0.9078 -2.2792 -0.5120
 1732TIP3   OH226754   1.763   1.917   7.906 -0.6236 -0.5011 -0.3059
 1732TIP3    H126755   1.727   1.998   7.869 -2.3980 -0.6821  0.9336
 1732TIP3    H226756   1.778   1.861   7.830 -0.9682  0.3687 -1.0419
 1733TIP3   OH226757   1.847   2.301   0.274  0.9233  0.0294  0.3131
 1733TIP3    H126758   1.864   2.394   0.285 -1.1645  0.4056  0.8793
 1733TIP3    H226759   1.812   2.273   0.358 -1.1597 -0.5510 -0.6552
 1734TIP3   OH226760   4.870   2.746   0.957  0.4609  0.5896  0.5315
 1734TIP3    H126761   4.919   2.801   1.019  2.1172  0.2061 -0.3883
 1734TIP3    H226762   4.909   2.659   0.966 -2.1208 -0.5177  1.9567
 1735TIP3   OH226763   0.955   6.373   7.242  0.4254 -0.5159  0.0071
 1735TIP3    H126764   0.990   6.429   7.172 -0.8758  0.2174 -0.1036
 1735TIP3    H226765   0.866   6.353   7.212 -0.2393 -0.0017  1.5460
 1736TIP3   OH226766   3.924   1.647   1.897 -0.2015  1.0366  0.0723
 1736TIP3    H126767   3.848   1.691   1.858 -0.6276 -1.1287 -1.7074
 1736TIP3    H226768   3.991   1.649   1.829  0.2463  0.1532  0.4806
 1737TIP3   OH226769   2.296   5.339   2.612 -0.1177  0.1132  0.4885
 1737TIP3    H126770   2.264   5.249   2.621  0.1573 -0.0927 -0.5216
 1737TIP3    H226771   2.223   5.387   2.573  0.3341 -0.0746 -0.6236
 1738TIP3   OH226772   0.981   1.011   0.589  0.0492  0.4005 -0.0310
 1738TIP3    H126773   1.018   1.088   0.633  0.0672 -0.7380  2.0771
 1738TIP3    H226774   0.997   0.939   0.650 -3.6726 -0.5656  0.0270
 1739TIP3   OH226775   0.206   4.103   0.764 -0.1587  0.4889  0.3157
 1739TIP3    H126776   0.136   4.070   0.820 -0.7215 -0.3953 -0.8759
 1739TIP3    H226777   0.278   4.040   0.777 -1.2206 -1.3447 -1.9321
 1740TIP3   OH226778   5.191   3.223   1.265  0.2015  0.1200 -0.6463
 1740TIP3    H126779   5.147   3.210   1.181  0.1528 -0.7059 -0.4994
 1740TIP3    H226780   5.135   3.285   1.312 -1.2930 -1.5589 -0.1299
 1741TIP3   OH226781   3.342   4.271   7.546 -0.0773 -0.2474  0.0253
 1741TIP3    H126782   3.280   4.269   7.619 -0.1718  0.7254 -0.0171
 1741TIP3    H226783   3.421   4.310   7.582  0.3740 -1.0912 -0.0323
 1742TIP3   OH226784   0.053   3.908   1.720 -0.1371  0.2346  0.0406
 1742TIP3    H126785   0.075   4.000   1.737 -1.9046  1.2567 -2.6891
 1742TIP3    H226786   0.102   3.886   1.641 -2.6650  0.1429 -1.6059
 1743TIP3   OH226787   0.940   1.508   7.127 -0.0455  0.1741 -0.7418
 1743TIP3    H126788   0.971   1.599   7.127  1.6938 -0.3601 -2.1475
 1743TIP3    H226789   0.998   1.463   7.066 -1.1811 -1.8005 -0.4516
 1744TIP3   OH226790   5.261   0.286   2.148 -0.4213  0.3901 -0.2323
 1744TIP3    H126791   5.235   0.360   2.203 -0.1131  0.6851 -0.4818
 1744TIP3    H226792   5.226   0.307   2.062 -1.1721 -0.2208 -0.0837
 1745TIP3   OH226793   4.849   4.815   1.925  0.9916 -0.5607  0.3462
 1745TIP3    H126794   4.852   4.734   1.874 -0.5391 -0.3498 -0.1334
 1745TIP3    H226795   4.940   4.833   1.947  1.3839 -2.2554  0.2209
 1746TIP3   OH226796   2.869   5.680   8.138  0.0730  0.0498 -0.3070
 1746TIP3    H126797   2.813   5.751   8.170 -0.8381 -0.8315  0.0884
 1746TIP3    H226798   2.876   5.620   8.213 -0.6235 -1.1617 -1.1875
 1747TIP3   OH226799   1.029   5.231   1.147  0.0879 -0.0902 -0.0435
 1747TIP3    H126800   1.003   5.210   1.058  0.7582  0.3119 -0.3445
 1747TIP3    H226801   0.956   5.283   1.181  0.7218  1.5879 -1.0964
 1748TIP3   OH226802   5.998   6.753   1.645 -0.7143 -0.3188  0.1011
 1748TIP3    H126803   5.959   6.806   1.714 -1.0086 -2.1284  1.4020
 1748TIP3    H226804   6.061   6.697   1.691 -0.5016 -1.1700 -1.1810
 1749TIP3   OH226805   6.267   0.028   2.202  0.0598 -0.2784 -0.6585
 1749TIP3    H126806   6.177  -0.003   2.216  0.9180 -2.0405  1.3870
 1749TIP3    H226807   6.302   0.040   2.290  1.6379  1.1134 -1.4267
 1750TIP3   OH226808   1.716   0.113   1.832  0.3653 -0.2093  0.0996
 1750TIP3    H126809   1.649   0.174   1.863 -0.2151 -1.0317  0.4889
 1750TIP3    H226810   1.798   0.161   1.841 -0.0922  0.5450  0.3212
 1751TIP3   OH226811   1.842   3.700   0.160 -0.0971 -0.0031  0.5010
 1751TIP3    H126812   1.769   3.637   0.158 -0.9188  0.9221  0.5819
 1751TIP3    H226813   1.866   3.704   0.252 -1.8580  1.7847  0.9529
 1752TIP3   OH226814   4.390   4.218   1.385 -0.0473 -0.5534 -0.5993
 1752TIP3    H126815   4.369   4.203   1.293 -0.9703  0.4117 -0.5662
 1752TIP3    H226816   4.439   4.300   1.386  0.4074 -0.8192 -0.2656
 1753TIP3   OH226817   5.306   1.865   8.596  0.5822  0.1138  0.6173
 1753TIP3    H126818   5.283   1.928   8.665 -0.4318 -0.0150  0.4079
 1753TIP3    H226819   5.247   1.791   8.611  0.5475 -0.0312 -0.2155
 1754TIP3   OH226820   2.107   0.934   8.073  0.1423  0.2281  0.1113
 1754TIP3    H126821   2.047   0.972   8.137  0.1823  1.4160 -0.5154
 1754TIP3    H226822   2.060   0.941   7.989  0.5701 -0.1698 -0.1635
 1755TIP3   OH226823   1.495   6.671   0.102 -0.1085 -0.3920  0.1072
 1755TIP3    H126824   1.471   6.764   0.104  1.0201 -0.0827  2.1872
 1755TIP3    H226825   1.548   6.662   0.023  1.5667  1.2781  0.9434
 1756TIP3   OH226826   6.256   5.992   1.217 -0.2005  0.2631  0.0525
 1756TIP3    H126827   6.225   5.918   1.269 -0.7939  0.7684  0.4432
 1756TIP3    H226828   6.239   5.968   1.126 -1.0470  0.2055  0.2194
 1757TIP3   OH226829   1.583   5.717   7.259  0.5938  0.2566 -0.1691
 1757TIP3    H126830   1.520   5.780   7.225  0.0177 -0.1641  0.1022
 1757TIP3    H226831   1.633   5.689   7.183 -0.8625 -0.8814 -0.7318
 1758TIP3   OH226832   1.145   1.313   1.209  0.2432 -0.1162 -0.4132
 1758TIP3    H126833   1.118   1.398   1.244 -0.1752  0.2037 -1.4747
 1758TIP3    H226834   1.229   1.296   1.251  1.0586  1.5349 -1.2708
 1759TIP3   OH226835   5.138   3.320   7.874 -0.1322  0.1004  0.5371
 1759TIP3    H126836   5.211   3.265   7.902 -0.7609 -1.3289 -0.5458
 1759TIP3    H226837   5.131   3.305   7.780 -1.7137  0.3238  0.5930
 1760TIP3   OH226838   3.233   1.546   0.557 -0.0142 -0.2312  0.0589
 1760TIP3    H126839   3.180   1.617   0.521 -1.3555 -0.3607  1.6483
 1760TIP3    H226840   3.170   1.491   0.605  1.3147 -1.3265  0.6303
 1761TIP3   OH226841   0.023   3.933   7.968 -0.4927  0.0926  0.1970
 1761TIP3    H126842   0.088   3.998   7.995  0.0677 -0.1754 -0.4726
 1761TIP3    H226843   0.014   3.874   8.043 -2.6888  2.1860  1.7175
 1762TIP3   OH226844   0.808   4.634   0.542  0.3641  0.4772  0.2294
 1762TIP3    H126845   0.750   4.640   0.618  1.1072  0.2531  0.8290
 1762TIP3    H226846   0.849   4.548   0.550 -0.1189  0.1343 -0.8515
 1763TIP3   OH226847   0.461   4.047   7.501  0.1912  0.9136  0.6407
 1763TIP3    H126848   0.369   4.072   7.495  0.2922  1.1168 -0.1225
 1763TIP3    H226849   0.461   3.952   7.485  0.2542  1.1391 -0.7712
 1764TIP3   OH226850   3.953   6.497   8.305  0.2628  0.1887 -0.5537
 1764TIP3    H126851   3.916   6.415   8.272  1.1646 -1.3193  1.9494
 1764TIP3    H226852   3.881   6.538   8.354 -0.4867  1.4758 -2.5914
 1765TIP3   OH226853   4.406   1.495   0.775 -0.7196  0.0453 -0.0524
 1765TIP3    H126854   4.349   1.571   0.786 -1.1583 -0.4764  1.4805
 1765TIP3    H226855   4.403   1.449   0.859 -0.6273 -1.7899 -0.9895
 1766TIP3   OH226856   0.450   4.419   8.120 -0.0215  0.1553 -0.2205
 1766TIP3    H126857   0.404   4.407   8.036 -0.4769  0.4647 -0.0173
 1766TIP3    H226858   0.519   4.352   8.118 -2.6390 -2.8628  0.9939
 1767TIP3   OH226859   2.967   3.940   6.783 -0.1460  0.2812 -1.0114
 1767TIP3    H126860   2.990   4.020   6.737 -1.0482  0.1755 -1.6931
 1767TIP3    H226861   2.877   3.922   6.755  0.3416 -1.4441 -1.5857
 1768TIP3   OH226862   4.887   5.444   7.030  0.2007  0.7391  0.1012
 1768TIP3    H126863   4.842   5.360   7.036  0.1598  0.8475  2.3553
 1768TIP3    H226864   4.979   5.421   7.019 -0.1002  0.4964 -2.5376
 1769TIP3   OH226865   1.727   3.036   1.015  0.5145 -0.2272  0.5400
 1769TIP3    H126866   1.799   3.059   1.074 -0.4698  2.9716  0.6711
 1769TIP3    H226867   1.648   3.063   1.061 -0.8078 -2.8608  0.0320
 1770TIP3   OH226868   1.351   0.570   7.032 -0.4092 -0.2467 -0.6790
 1770TIP3    H126869   1.361   0.665   7.039 -1.0563 -0.2464  0.6572
 1770TIP3    H226870   1.257   0.555   7.043 -0.5544 -0.9416 -2.5841
 1771TIP3   OH226871   3.176   1.630   8.555 -0.5996  0.1332  0.1933
 1771TIP3    H126872   3.204   1.708   8.506 -2.7218  0.5499 -0.4941
 1771TIP3    H226873   3.255   1.598   8.597  0.6192  1.8412 -0.6655
 1772TIP3   OH226874   2.817   1.707   1.039 -0.2652  0.1716 -0.3393
 1772TIP3    H126875   2.749   1.705   1.107  0.2491  0.1204  0.1819
 1772TIP3    H226876   2.867   1.786   1.058 -0.1452  0.1807 -0.6920
 1773TIP3   OH226877   4.290   2.700   0.636  0.6565  0.4474 -0.0709
 1773TIP3    H126878   4.373   2.718   0.591  0.8773  0.6869  0.4290
 1773TIP3    H226879   4.289   2.760   0.710  0.7482 -0.6004  0.8021
 1774TIP3   OH226880   5.974   5.485   1.377 -0.4327  0.5040 -0.1486
 1774TIP3    H126881   5.964   5.580   1.366 -2.5971  0.3388  0.0167
 1774TIP3    H226882   5.947   5.448   1.293  1.4927  0.0220 -0.6179
 1775TIP3   OH226883   5.580   1.003   0.078 -0.5353  0.1105 -0.4095
 1775TIP3    H126884   5.604   0.922   0.122 -0.1710  0.2462 -0.3535
 1775TIP3    H226885   5.611   0.993  -0.012  4.3465  2.1640  0.7206
 1776TIP3   OH226886   1.555   6.775   2.657 -0.3953  0.0084 -0.0218
 1776TIP3    H126887   1.565   6.722   2.578 -1.2082 -0.1404 -0.0377
 1776TIP3    H226888   1.620   6.741   2.718 -0.9119 -1.0120 -0.0306
 1777TIP3   OH226889   4.679   1.016   7.555 -0.0543 -0.2564 -0.4457
 1777TIP3    H126890   4.722   0.967   7.625 -1.0597  0.0160  0.3821
 1777TIP3    H226891   4.589   1.029   7.585 -0.1607  1.0055 -1.2016
 1778TIP3   OH226892   3.527   0.988   8.554  0.4949 -0.0364 -0.5702
 1778TIP3    H126893   3.524   0.990   8.649  2.9645  1.4230 -0.4499
 1778TIP3    H226894   3.468   0.916   8.529  0.0222 -0.6283  2.0213
 1779TIP3   OH226895   1.221   0.490   2.619 -1.1552  0.1389 -0.3909
 1779TIP3    H126896   1.290   0.470   2.682 -0.1018  0.4845 -1.3956
 1779TIP3    H226897   1.160   0.417   2.625  0.1303 -0.9957 -0.5992
 1780TIP3   OH226898   3.035   2.598   2.021  0.2554 -0.2680  0.1312
 1780TIP3    H126899   2.997   2.598   2.109 -1.3840  0.0453 -0.5519
 1780TIP3    H226900   2.975   2.546   1.968 -0.6664  2.2841 -1.5363
 1781TIP3   OH226901   3.763   1.934   0.179 -0.3913 -0.0018  0.2151
 1781TIP3    H126902   3.761   1.950   0.085  0.2029 -0.6086  0.0894
 1781TIP3    H226903   3.686   1.879   0.195 -0.3287 -0.1467  0.0289
 1782TIP3   OH226904   1.288   4.583   0.414 -0.0965  0.1054 -0.4817
 1782TIP3    H126905   1.232   4.591   0.491  0.3239 -1.4549  0.0120
 1782TIP3    H226906   1.235   4.534   0.351 -0.0063  0.3675 -0.7669
 1783TIP3   OH226907   3.998   2.318   1.207  0.1824  0.1313  0.2750
 1783TIP3    H126908   3.983   2.388   1.271 -0.7564 -3.1235  4.0188
 1783TIP3    H226909   4.093   2.305   1.207  0.3786  1.3956 -0.5631
 1784TIP3   OH226910   6.469   1.691   8.573  0.5513  1.0396  0.0493
 1784TIP3    H126911   6.483   1.776   8.531  0.0573  0.9802 -0.2408
 1784TIP3    H226912   6.404   1.647   8.518  0.6224  0.5707  0.3328
 1785TIP3   OH226913   1.287   2.317   0.815  0.4546  0.0435 -0.0638
 1785TIP3    H126914   1.335   2.244   0.855  1.2987  1.0753  0.8563
 1785TIP3    H226915   1.211   2.275   0.773  2.0279 -1.6067 -1.4216
 1786TIP3   OH226916   0.214   3.473   0.589  0.3603 -0.4042 -0.2237
 1786TIP3    H126917   0.295   3.523   0.580  0.8049 -1.1275 -0.2304
 1786TIP3    H226918   0.155   3.514   0.525  0.1029  1.2845  1.0128
 1787TIP3   OH226919   1.504   0.265   1.527 -0.1481 -0.1563 -0.0353
 1787TIP3    H126920   1.514   0.231   1.616 -0.1096  1.9473  0.8340
 1787TIP3    H226921   1.413   0.248   1.504 -0.2123 -0.5323  0.4924
 1788TIP3   OH226922   6.424   1.917   8.360  0.4855  0.8628  0.1507
 1788TIP3    H126923   6.436   1.882   8.272  0.8158 -0.8901  0.8484
 1788TIP3    H226924   6.330   1.908   8.377  0.8857 -2.9445  1.4847
 1789TIP3   OH226925   6.224   5.149   0.184 -0.1759 -0.0776  0.5282
 1789TIP3    H126926   6.210   5.132   0.277 -0.0716 -0.5130  0.4676
 1789TIP3    H226927   6.316   5.124   0.169 -0.3128 -0.4134  0.2214
 1790TIP3   OH226928   1.391   0.535   8.150 -0.4261 -0.3181 -0.1167
 1790TIP3    H126929   1.342   0.550   8.231 -0.8736  0.8885 -0.5813
 1790TIP3    H226930   1.482   0.527   8.178 -0.3539  1.6982  0.4130
 1791TIP3   OH226931   4.795   5.581   8.207  0.3492  0.4696 -0.2275
 1791TIP3    H126932   4.784   5.489   8.183 -3.7426  0.8084 -0.3610
 1791TIP3    H226933   4.790   5.628   8.124  1.7984  0.9032 -0.0961
 1792TIP3   OH226934   4.282   3.668   2.094  0.3046  0.2423 -0.2446
 1792TIP3    H126935   4.194   3.704   2.092  0.2836  0.1655 -0.9462
 1792TIP3    H226936   4.273   3.587   2.144 -0.1831 -0.1681 -0.9783
 1793TIP3   OH226937   3.204   0.243   1.084 -0.0020  0.0463 -0.0371
 1793TIP3    H126938   3.282   0.235   1.030 -0.9842  1.2923 -1.7354
 1793TIP3    H226939   3.192   0.157   1.123  1.2021 -0.6620 -1.1817
 1794TIP3   OH226940   1.309   6.195   2.288  0.4160  0.0701  0.0758
 1794TIP3    H126941   1.315   6.197   2.192  1.7637 -0.0416  0.1378
 1794TIP3    H226942   1.343   6.280   2.316  1.6023 -0.5378  0.5106
 1795TIP3   OH226943   0.814   1.390   0.457  0.3517  0.2012  0.2772
 1795TIP3    H126944   0.899   1.351   0.479 -0.2129 -0.9672  0.4864
 1795TIP3    H226945   0.752   1.345   0.514 -0.8412 -1.3035 -2.0248
 1796TIP3   OH226946   5.146   4.285   0.764  0.1284 -0.2765 -0.2107
 1796TIP3    H126947   5.162   4.205   0.814 -0.6460  0.4641  1.3003
 1796TIP3    H226948   5.056   4.310   0.787  0.9494  2.0139  0.8421
 1797TIP3   OH226949   1.817   1.621   0.678 -0.0167  0.2695 -0.6295
 1797TIP3    H126950   1.899   1.571   0.682 -0.0897  0.1943  0.0197
 1797TIP3    H226951   1.793   1.619   0.586  1.0341  0.8240 -0.9274
 1798TIP3   OH226952   6.306   3.774   1.961  0.3050  0.6764 -0.2248
 1798TIP3    H126953   6.282   3.685   1.985  1.0711  0.3116 -0.7514
 1798TIP3    H226954   6.331   3.815   2.044 -0.3635  0.5110  0.0657
 1799TIP3   OH226955   5.242   6.600   0.634  0.1664  0.2174 -0.1101
 1799TIP3    H126956   5.286   6.524   0.594  0.6613  0.8118 -0.7292
 1799TIP3    H226957   5.285   6.611   0.719 -0.2965 -0.5358  0.2260
 1800TIP3   OH226958   5.167   6.113   1.602 -0.3635  0.1398 -0.2042
 1800TIP3    H126959   5.118   6.037   1.569  1.0334 -0.6758 -0.4588
 1800TIP3    H226960   5.235   6.128   1.537 -0.1521  1.1435  0.2323
 1801TIP3   OH226961   5.202   4.022   0.828 -0.2509 -0.5342  0.5897
 1801TIP3    H126962   5.176   3.974   0.749 -0.6552  0.5581  0.0287
 1801TIP3    H226963   5.208   3.955   0.896 -2.2358 -1.1883  0.1945
 1802TIP3   OH226964   3.802   0.245   8.682 -0.6601  0.5855 -0.3234
 1802TIP3    H126965   3.805   0.259   8.587 -0.5467  0.3077 -0.3621
 1802TIP3    H226966   3.725   0.294   8.711 -0.6887  0.6799 -0.5583
 1803TIP3   OH226967   2.954   0.953   7.415 -0.5306  0.1352 -0.5518
 1803TIP3    H126968   2.991   0.901   7.345 -1.2903  1.4547 -1.9964
 1803TIP3    H226969   2.866   0.918   7.428 -0.2508 -0.3664  0.0431
 1804TIP3   OH226970   2.578   0.169   7.858 -0.2706 -0.2875  0.7484
 1804TIP3    H126971   2.640   0.108   7.897 -0.2584 -1.0238 -0.3844
 1804TIP3    H226972   2.625   0.208   7.785 -1.1942 -1.0410 -0.2825
 1805TIP3   OH226973   0.860   5.105   0.938 -0.0510 -0.0377 -0.2538
 1805TIP3    H126974   0.817   5.191   0.932  1.8997  0.9117 -2.2148
 1805TIP3    H226975   0.800   5.046   0.893 -1.9443 -0.0091  2.0666
 1806TIP3   OH226976   6.642   6.854   6.847  0.8853  0.3518  0.4253
 1806TIP3    H126977   6.703   6.924   6.869  2.3596 -0.2996 -1.3649
 1806TIP3    H226978   6.658   6.786   6.912  2.8613 -0.2277 -0.5979
 1807TIP3   OH226979   2.689   1.821   8.597  0.0184 -0.3157  0.3846
 1807TIP3    H126980   2.677   1.800   8.505  0.2577  1.3234 -0.0480
 1807TIP3    H226981   2.698   1.736   8.640  0.4985 -1.0895 -1.1781
 1808TIP3   OH226982   2.896   2.149   7.959  0.6421 -0.9159 -0.0591
 1808TIP3    H126983   2.942   2.232   7.970 -0.6644 -0.2186  0.4267
 1808TIP3    H226984   2.902   2.130   7.865  1.5722 -0.6624 -0.0624
 1809TIP3   OH226985   5.927   5.209   7.128  0.7279 -0.1739  0.0353
 1809TIP3    H126986   5.875   5.145   7.078  0.2955  0.3656 -0.2201
 1809TIP3    H226987   5.998   5.234   7.068  1.0661 -0.6325  0.2445
 1810TIP3   OH226988   4.180   4.158   7.013 -0.0377 -0.4269 -0.0880
 1810TIP3    H126989   4.148   4.207   6.938  0.7346 -0.6210 -0.5561
 1810TIP3    H226990   4.206   4.074   6.977  1.6236 -0.0425  0.1256
 1811TIP3   OH226991   5.304   5.773   7.920 -0.4058  0.2624  0.4402
 1811TIP3    H126992   5.222   5.750   7.964 -1.6687  2.1868 -0.7531
 1811TIP3    H226993   5.306   5.719   7.841  0.4990 -1.1963  1.4142
 1812TIP3   OH226994   0.147   3.804   7.698 -0.1276 -0.2184 -0.0290
 1812TIP3    H126995   0.073   3.845   7.743 -0.7254 -0.9693 -0.2990
 1812TIP3    H226996   0.144   3.841   7.610  0.9857  1.1804  0.4878
 1813TIP3   OH226997   4.492   2.436   2.027  0.3009 -0.1175  0.6230
 1813TIP3    H126998   4.513   2.527   2.047  0.9273 -0.5160  1.9015
 1813TIP3    H226999   4.561   2.408   1.967  0.2240  0.1932  0.3893
 1814TIP3   OH227000   5.104   2.495   2.688  0.0178  0.2598  0.1013
 1814TIP3    H127001   5.019   2.535   2.669  0.5278  0.7325 -1.3617
 1814TIP3    H227002   5.131   2.534   2.772 -1.2104  0.0670  0.5967
 1815TIP3   OH227003   1.961   2.240   7.820 -0.0124 -0.2751  0.6684
 1815TIP3    H127004   2.004   2.161   7.851 -1.3756 -2.2566 -2.1589
 1815TIP3    H227005   1.931   2.219   7.732 -1.3105  3.0800  0.1592
 1816TIP3   OH227006   2.485   5.412   1.675 -0.7476  0.2405  0.2467
 1816TIP3    H127007   2.565   5.438   1.629 -0.2871 -0.6061  0.5500
 1816TIP3    H227008   2.435   5.493   1.684  0.6663  1.0448  1.2149
 1817TIP3   OH227009   5.453   3.938   8.443 -0.5259 -0.1566  0.2494
 1817TIP3    H127010   5.433   4.031   8.442 -1.5257 -0.3456 -1.8484
 1817TIP3    H227011   5.519   3.929   8.512  0.4641  2.2843 -0.2681
 1818TIP3   OH227012   1.106   4.849   0.650  0.2179 -0.3021  0.1675
 1818TIP3    H127013   1.069   4.891   0.573 -0.0783 -0.1916  0.3664
 1818TIP3    H227014   1.099   4.755   0.633  2.2330 -0.3129 -0.9294
 1819TIP3   OH227015   4.468   6.806   7.919 -0.3832  0.4264  0.2219
 1819TIP3    H127016   4.479   6.715   7.892  1.1060  0.2476  1.3099
 1819TIP3    H227017   4.392   6.837   7.869 -0.7695 -1.3266 -0.3444
 1820TIP3   OH227018   1.445   0.081   0.125  0.4104 -0.7608  0.5110
 1820TIP3    H127019   1.493   0.106   0.046 -0.8230 -2.3158 -0.7922
 1820TIP3    H227020   1.425   0.164   0.168  0.4653  0.1678 -1.1928
 1821TIP3   OH227021   0.834   6.826   2.955  0.1776 -0.1779 -0.3669
 1821TIP3    H127022   0.895   6.847   2.885  0.8061 -0.9362 -0.0627
 1821TIP3    H227023   0.839   6.730   2.963  0.3370 -0.0816  0.9063
 1822TIP3   OH227024   6.504   5.873   0.936  0.7682  0.1056 -0.2183
 1822TIP3    H127025   6.499   5.967   0.950 -0.3032 -0.1433  1.2219
 1822TIP3    H227026   6.598   5.856   0.925  0.9966  1.2924 -0.2306
 1823TIP3   OH227027   3.381   5.357   1.022  0.0211  0.1360 -0.5801
 1823TIP3    H127028   3.450   5.300   1.057 -1.6546 -0.8819  1.2436
 1823TIP3    H227029   3.411   5.379   0.933  1.5956 -2.1191 -0.6877
 1824TIP3   OH227030   0.383   6.365   0.669 -0.2989 -0.2950  0.5670
 1824TIP3    H127031   0.448   6.391   0.603 -0.4191  2.3475  1.3751
 1824TIP3    H227032   0.299   6.395   0.633 -0.6819 -0.8926  0.9394
 1825TIP3   OH227033   2.844   5.074   7.346  0.4008 -0.6718 -0.4289
 1825TIP3    H127034   2.926   5.030   7.321  1.1591 -0.4207  1.4274
 1825TIP3    H227035   2.872   5.161   7.376 -0.7075 -0.1140 -0.9514
 1826TIP3   OH227036   5.012   4.295   7.270 -0.2566  0.2647 -0.4902
 1826TIP3    H127037   5.084   4.248   7.228  0.1812 -0.1406  0.6762
 1826TIP3    H227038   5.025   4.386   7.245  0.0053  0.0446 -1.1920
 1827TIP3   OH227039   5.880   1.408   1.943 -0.1636  0.0091  0.2958
 1827TIP3    H127040   5.974   1.417   1.929 -0.3184  1.7659  0.0832
 1827TIP3    H227041   5.841   1.446   1.864 -1.0359  1.0684  1.2056
 1828TIP3   OH227042   1.723   2.007   6.957 -0.0206  0.0959 -0.1627
 1828TIP3    H127043   1.660   2.071   6.924  1.5263  1.3099 -0.9371
 1828TIP3    H227044   1.797   2.061   6.987  1.0336 -1.3160 -0.1605
 1829TIP3   OH227045   0.872   4.331   7.637 -0.1408  0.0948 -0.3219
 1829TIP3    H127046   0.881   4.347   7.543  0.6845  0.0885 -0.2453
 1829TIP3    H227047   0.888   4.238   7.647 -0.3563  0.0716 -0.1839
 1830TIP3   OH227048   5.101   5.900   0.897  0.4287 -0.1200  0.1151
 1830TIP3    H127049   5.074   5.860   0.814 -0.3514 -0.1981  0.3982
 1830TIP3    H227050   5.097   5.829   0.961  1.2237 -0.1064  0.1875
 1831TIP3   OH227051   3.331   4.676   7.287 -0.1658  0.0885 -0.2899
 1831TIP3    H127052   3.293   4.623   7.217 -0.9827  0.0609  0.1616
 1831TIP3    H227053   3.388   4.738   7.242  0.3405 -0.7748 -0.8724
 1832TIP3   OH227054   5.105   0.372   7.146 -0.0851  0.6258 -0.2017
 1832TIP3    H127055   5.141   0.443   7.092  2.6530  0.0231  0.6778
 1832TIP3    H227056   5.019   0.404   7.173 -1.3853  1.2438 -4.2818
 1833TIP3   OH227057   0.785   5.440   8.329  0.5233  0.1488 -0.0405
 1833TIP3    H127058   0.773   5.409   8.419 -0.2569  0.4734 -0.0235
 1833TIP3    H227059   0.878   5.426   8.311  0.3094 -1.6801  0.1530
 1834TIP3   OH227060   5.908   6.693   7.815 -0.2125 -0.2873 -0.0524
 1834TIP3    H127061   5.860   6.772   7.790  1.2650  0.8780  0.6470
 1834TIP3    H227062   5.936   6.655   7.732 -1.4884 -0.4690 -0.4263
 1835TIP3   OH227063   2.087   6.510   7.936 -0.0186 -0.1451  0.2667
 1835TIP3    H127064   2.060   6.547   8.020 -0.4681 -1.3300  0.6601
 1835TIP3    H227065   2.103   6.586   7.881 -2.7003  0.6799  0.4712
 1836TIP3   OH227066   5.306   0.795   1.986 -0.2707 -0.2577 -0.2251
 1836TIP3    H127067   5.357   0.714   1.981 -1.3365 -0.9229 -0.7960
 1836TIP3    H227068   5.219   0.767   2.014 -0.3041  0.8684  0.8774
 1837TIP3   OH227069   1.052   2.334   7.318  0.2854 -0.6521  0.6631
 1837TIP3    H127070   1.065   2.251   7.272  0.6522 -0.4031  0.2957
 1837TIP3    H227071   1.103   2.397   7.266  0.0510 -0.2113  0.9647
 1838TIP3   OH227072   1.166   2.698   2.362 -0.4594 -0.2479 -0.1119
 1838TIP3    H127073   1.093   2.696   2.423 -0.5421  0.6280 -0.1757
 1838TIP3    H227074   1.219   2.621   2.385 -1.3693 -0.8595 -0.0373
 1839TIP3   OH227075   5.725   5.838   7.470  0.0822  0.3330  0.7912
 1839TIP3    H127076   5.638   5.829   7.509  1.3725 -1.3134  3.6216
 1839TIP3    H227077   5.783   5.854   7.545  2.2823  1.1154 -0.9637
 1840TIP3   OH227078   2.140   0.690   0.860  0.0798  0.6013 -0.2863
 1840TIP3    H127079   2.216   0.669   0.913  0.1523  0.1057 -0.5778
 1840TIP3    H227080   2.175   0.737   0.784  0.3772 -1.5165 -1.5203
 1841TIP3   OH227081   5.214   3.930   6.915 -0.1248 -0.3824  0.0824
 1841TIP3    H127082   5.164   3.945   6.835  0.0765 -1.9288 -0.3625
 1841TIP3    H227083   5.305   3.936   6.887 -0.0520 -0.3288  0.3315
 1842TIP3   OH227084   3.451   4.890   0.189 -0.0702  0.3685 -0.2635
 1842TIP3    H127085   3.398   4.884   0.269 -0.0166  0.3348 -0.2304
 1842TIP3    H227086   3.525   4.831   0.205  0.5518  1.2377  0.1249
 1843TIP3   OH227087   5.148   5.114   0.651  0.1840  0.3157  0.3044
 1843TIP3    H127088   5.225   5.103   0.596 -1.0791 -0.6021 -1.3919
 1843TIP3    H227089   5.158   5.048   0.720  0.7601 -0.0318 -0.1038
 1844TIP3   OH227090   5.567   1.874   2.129  0.3676  0.3160  0.7413
 1844TIP3    H127091   5.640   1.835   2.081  0.3217 -0.0274  0.9458
 1844TIP3    H227092   5.609   1.936   2.189  0.3396  1.7069 -0.6168
 1845TIP3   OH227093   5.612   4.271   7.542  0.1710  0.3254  0.5538
 1845TIP3    H127094   5.529   4.285   7.587 -0.2982 -2.6540  0.7838
 1845TIP3    H227095   5.588   4.253   7.451  0.5403 -0.7184  0.6574
 1846TIP3   OH227096   3.328   5.413   0.568  0.1296 -0.4334  0.2386
 1846TIP3    H127097   3.340   5.486   0.508  1.7310 -1.2785 -0.5165
 1846TIP3    H227098   3.303   5.339   0.512  0.7738 -1.0135  0.6982
 1847TIP3   OH227099   5.419   3.355   1.529  0.3616 -0.0170 -0.3541
 1847TIP3    H127100   5.441   3.428   1.471  0.1257 -1.0118 -1.7566
 1847TIP3    H227101   5.418   3.279   1.471 -2.2888 -0.7027  0.4645
 1848TIP3   OH227102   1.202   3.804   7.073 -0.2008 -0.2192 -0.2031
 1848TIP3    H127103   1.297   3.807   7.074  0.0715 -3.9152  0.3206
 1848TIP3    H227104   1.175   3.889   7.038  3.2381  1.0016 -0.2223
 1849TIP3   OH227105   6.825   4.370   0.794  0.0049 -0.1427 -0.4395
 1849TIP3    H127106   6.801   4.294   0.847 -0.4459  0.2033 -0.1429
 1849TIP3    H227107   6.774   4.361   0.714 -2.3658  1.3898  0.8052
 1850TIP3   OH227108   5.768   4.781   2.121  0.0399 -0.6242 -0.1496
 1850TIP3    H127109   5.787   4.798   2.028  0.4066 -0.5700 -0.0662
 1850TIP3    H227110   5.852   4.792   2.165 -0.1294 -0.6740  0.1885
 1851TIP3   OH227111   5.231   5.708   2.669  0.2912 -0.3211  0.1861
 1851TIP3    H127112   5.234   5.621   2.709 -0.4423 -1.2725 -1.6822
 1851TIP3    H227113   5.248   5.692   2.576 -1.4982  1.3123 -0.4888
 1852TIP3   OH227114   2.728   2.167   8.518 -0.1073 -0.4902  0.0420
 1852TIP3    H127115   2.664   2.144   8.451  0.0566 -1.1774  0.1142
 1852TIP3    H227116   2.676   2.191   8.595 -0.2849 -0.5602 -0.0577
 1853TIP3   OH227117   0.024   1.745   1.553  0.4493 -0.7214 -0.8371
 1853TIP3    H127118   0.072   1.667   1.524  0.4686 -0.4500 -1.5552
 1853TIP3    H227119  -0.015   1.781   1.474 -2.7238 -2.0771 -0.0386
 1854TIP3   OH227120   2.066   2.028   1.294  0.3238  0.0126  0.1656
 1854TIP3    H127121   1.975   2.040   1.321  0.9513  1.2666  1.9221
 1854TIP3    H227122   2.060   1.996   1.203 -1.8283  1.8495 -0.4384
 1855TIP3   OH227123   2.283   3.759   8.631  0.2114 -0.4712 -0.1872
 1855TIP3    H127124   2.260   3.716   8.549 -0.2539  1.5487 -1.1976
 1855TIP3    H227125   2.230   3.715   8.698 -0.0238 -1.5967 -1.0900
 1856TIP3   OH227126   2.357   0.092   7.141 -0.2632 -0.0823  0.1769
 1856TIP3    H127127   2.350   0.185   7.163  1.0086  0.4169 -1.2926
 1856TIP3    H227128   2.284   0.050   7.187  0.2118  1.3362  2.3675
 1857TIP3   OH227129   4.248   3.514   1.597 -0.2095 -0.3456  0.6408
 1857TIP3    H127130   4.201   3.528   1.515 -0.8432  1.0545  1.2049
 1857TIP3    H227131   4.192   3.554   1.664  1.6884  1.3249  1.3410
 1858TIP3   OH227132   4.397   5.891   7.621  0.1854 -0.6241  0.0066
 1858TIP3    H127133   4.475   5.945   7.634  0.0306 -0.4040  0.0264
 1858TIP3    H227134   4.406   5.819   7.683  0.1717 -0.3784  0.2916
 1859TIP3   OH227135   3.322   2.625   0.172 -0.1381  0.6023  0.4269
 1859TIP3    H127136   3.311   2.714   0.138 -1.2120  0.0005 -0.8636
 1859TIP3    H227137   3.289   2.631   0.262 -2.6871  0.9821 -0.4391
 1860TIP3   OH227138   3.705   5.894   1.937 -0.1614 -0.0922 -0.4236
 1860TIP3    H127139   3.634   5.955   1.956 -0.3385  0.3060 -2.1882
 1860TIP3    H227140   3.668   5.807   1.953 -0.5855  0.1721  0.0365
 1861TIP3   OH227141   4.808   3.368   2.490  0.5428 -0.4062 -0.0175
 1861TIP3    H127142   4.826   3.456   2.457  2.3969 -0.9646 -0.6538
 1861TIP3    H227143   4.890   3.342   2.533  0.2096 -2.0079 -0.3014
 1862TIP3   OH227144   1.941   2.617   1.436  0.2416 -0.6858  0.0932
 1862TIP3    H127145   1.890   2.693   1.407 -0.6970 -0.5471  1.9461
 1862TIP3    H227146   1.896   2.587   1.514  1.9020 -1.7912  0.6744
 1863TIP3   OH227147   1.899   5.329   2.150  0.2635 -0.0228 -0.1067
 1863TIP3    H127148   1.939   5.405   2.107 -1.5741  1.4861  0.6736
 1863TIP3    H227149   1.890   5.355   2.241  2.0295 -2.2942  0.7914
 1864TIP3   OH227150   1.183   6.104   6.679 -0.1551  0.0429 -1.0683
 1864TIP3    H127151   1.265   6.083   6.635  1.6346  1.7685  1.1656
 1864TIP3    H227152   1.167   6.196   6.658  0.0075  0.5008  0.6502
 1865TIP3   OH227153   5.728   3.325   8.561  0.0995 -0.5286  0.1085
 1865TIP3    H127154   5.718   3.274   8.642 -2.7279 -0.9897 -0.4280
 1865TIP3    H227155   5.703   3.265   8.491 -0.7072  0.8072 -0.7931
 1866TIP3   OH227156   4.730   6.358   1.215 -0.3915  0.4940 -0.1870
 1866TIP3    H127157   4.637   6.373   1.233 -1.8137 -3.8663 -2.5606
 1866TIP3    H227158   4.738   6.370   1.120  1.8224  1.7873  0.0835
 1867TIP3   OH227159   1.545   0.829   7.329 -0.1243 -0.4135  0.3092
 1867TIP3    H127160   1.558   0.754   7.271  1.4049  0.1086 -0.0719
 1867TIP3    H227161   1.629   0.875   7.329 -0.4028  0.1830  2.1349
 1868TIP3   OH227162   5.700   5.238   0.778 -0.3916  0.2887 -0.1034
 1868TIP3    H127163   5.718   5.147   0.754 -0.9843  0.0695  0.2599
 1868TIP3    H227164   5.613   5.235   0.818  1.3248  0.2432  4.0903
 1869TIP3   OH227165   4.796   5.125   7.770  0.2933 -0.3044 -0.4147
 1869TIP3    H127166   4.733   5.160   7.832  2.6592  1.0202  1.4062
 1869TIP3    H227167   4.808   5.194   7.705  1.2131  0.2049  0.2896
 1870TIP3   OH227168   0.083   4.026   1.032 -0.2759  0.0311  0.3204
 1870TIP3    H127169   0.064   3.974   1.109  2.8030 -2.1264 -0.1835
 1870TIP3    H227170   0.173   4.002   1.008  0.0168  2.9096 -2.1364
 1871TIP3   OH227171   6.371   0.514   0.830  0.3880 -0.1880 -0.1041
 1871TIP3    H127172   6.382   0.522   0.735 -1.7851  0.7410 -0.3488
 1871TIP3    H227173   6.447   0.557   0.867  1.2672 -0.5560 -1.4165
 1872TIP3   OH227174   3.134   3.196   1.142 -0.2107  0.0703  0.3870
 1872TIP3    H127175   3.061   3.135   1.153 -0.6975 -0.0457 -2.6126
 1872TIP3    H227176   3.206   3.156   1.192 -1.0177 -2.0492 -0.0191
 1873TIP3   OH227177   5.897   4.776   0.891 -0.9256 -1.0174  0.3216
 1873TIP3    H127178   5.940   4.717   0.951 -0.1345  0.0356  0.8190
 1873TIP3    H227179   5.803   4.765   0.909 -0.8147 -2.3035  0.1936
 1874TIP3   OH227180   1.988   3.294   8.142  0.3200  0.5173  0.0241
 1874TIP3    H127181   1.978   3.286   8.237 -2.1786 -0.8372 -0.2618
 1874TIP3    H227182   2.060   3.235   8.121 -1.6311 -2.3512  0.7609
 1875TIP3   OH227183   3.127   4.615   8.438  0.3383 -0.1953 -0.2410
 1875TIP3    H127184   3.182   4.648   8.509  3.7027 -1.6886 -1.9576
 1875TIP3    H227185   3.146   4.521   8.434 -0.8092 -0.4127 -2.2563
 1876TIP3   OH227186   0.679   6.684   0.593 -0.1275  0.1961 -0.2273
 1876TIP3    H127187   0.708   6.596   0.569 -1.9268 -0.9277  1.4462
 1876TIP3    H227188   0.635   6.673   0.677  0.0631  2.8099  0.2981
 1877TIP3   OH227189   2.403   4.280   8.573 -0.1460 -0.3497  0.3235
 1877TIP3    H127190   2.360   4.295   8.657 -0.8432 -1.0881  0.1056
 1877TIP3    H227191   2.453   4.199   8.586  1.0573  0.3908  0.5164
 1878TIP3   OH227192   6.343   3.992   6.709  0.0458  0.5883 -0.6407
 1878TIP3    H127193   6.330   4.084   6.687 -0.5343  0.6381 -0.1032
 1878TIP3    H227194   6.257   3.951   6.696  0.2808  0.1369 -0.8033
 1879TIP3   OH227195   1.171   1.786   0.614 -0.0863 -0.2177 -0.9863
 1879TIP3    H127196   1.258   1.813   0.641  0.0688 -0.1245 -1.5639
 1879TIP3    H227197   1.142   1.855   0.554 -0.0339 -0.8865 -1.8024
 1880TIP3   OH227198   3.230   3.200   7.312  0.2456 -0.0374  0.5337
 1880TIP3    H127199   3.171   3.198   7.236  2.5847 -2.6998 -1.4500
 1880TIP3    H227200   3.293   3.270   7.291  1.0421 -0.9395 -0.2046
 1881TIP3   OH227201   4.542   2.922   0.092  0.6173  0.6589 -0.6249
 1881TIP3    H127202   4.548   2.960   0.004 -0.0571  1.3567 -0.3823
 1881TIP3    H227203   4.550   2.828   0.078  0.1448  0.7348 -1.4835
 1882TIP3   OH227204   4.208   1.932   0.737  0.4631  0.3835  0.3906
 1882TIP3    H127205   4.304   1.931   0.737  0.4683  0.1658  0.9530
 1882TIP3    H227206   4.185   2.001   0.799  0.2411  1.1598 -0.5284
 1883TIP3   OH227207   0.340   3.217   1.488 -0.2266 -0.1363 -0.1885
 1883TIP3    H127208   0.347   3.304   1.449 -1.6283  0.4752  0.8395
 1883TIP3    H227209   0.254   3.185   1.461 -0.5371 -0.3759  1.0028
 1884TIP3   OH227210   5.503   3.491   7.776  0.7926  0.2290 -0.0920
 1884TIP3    H127211   5.532   3.580   7.756  0.6125  0.1916 -0.5312
 1884TIP3    H227212   5.436   3.472   7.710 -0.6126  0.4946  1.2010
 1885TIP3   OH227213   4.350   2.469   0.305 -0.2474  0.5571  0.0656
 1885TIP3    H127214   4.385   2.545   0.351 -2.7475  2.4873 -1.0265
 1885TIP3    H227215   4.270   2.446   0.353 -0.0843 -0.7848 -0.2453
 1886TIP3   OH227216   4.648   3.482   1.582 -0.3787 -0.4038  0.0691
 1886TIP3    H127217   4.642   3.572   1.612 -1.3517  0.2527 -1.9531
 1886TIP3    H227218   4.738   3.456   1.602 -0.5872  0.3814  2.2682
 1887TIP3   OH227219   6.743   0.540   0.685  0.3518 -0.4621  0.4746
 1887TIP3    H127220   6.740   0.445   0.693  1.1705 -0.4861  0.6394
 1887TIP3    H227221   6.787   0.569   0.766 -0.4179  0.1016  0.7011
 1888TIP3   OH227222   6.315   5.315   8.342  0.3014 -0.0090 -0.6189
 1888TIP3    H127223   6.400   5.342   8.308  1.4708 -2.7123 -0.0983
 1888TIP3    H227224   6.252   5.368   8.294  2.2523  2.7353 -0.4014
 1889TIP3   OH227225   1.317   6.048   0.672  0.3327  0.2775  0.5255
 1889TIP3    H127226   1.363   6.132   0.667  0.3011  0.3174  0.9218
 1889TIP3    H227227   1.226   6.072   0.689  0.6079  0.1192  2.4422
 1890TIP3   OH227228   4.670   5.524   1.641 -0.3227 -0.2936  0.4713
 1890TIP3    H127229   4.720   5.604   1.621  0.5262 -0.9609 -0.1463
 1890TIP3    H227230   4.737   5.458   1.657 -1.0127 -0.7419  1.6498
 1891TIP3   OH227231   0.595   6.384   0.473 -0.0322  0.2747 -0.1277
 1891TIP3    H127232   0.619   6.455   0.412  0.2500 -0.6835 -1.1782
 1891TIP3    H227233   0.623   6.304   0.428 -4.2949 -0.9503 -1.0702
 1892TIP3   OH227234   4.091   5.599   1.721  0.2578  0.0236  0.4801
 1892TIP3    H127235   4.091   5.571   1.812  0.7196  0.0988  0.5036
 1892TIP3    H227236   4.184   5.607   1.698  0.1492  2.3455  0.7054
 1893TIP3   OH227237   6.148   1.536   0.097 -0.0381 -0.3195 -0.4063
 1893TIP3    H127238   6.165   1.561   0.188 -0.9873  1.0579 -0.5621
 1893TIP3    H227239   6.191   1.452   0.087  0.0142 -0.5544  1.3507
 1894TIP3   OH227240   0.047   3.174   7.850  0.7339  0.1998  0.5234
 1894TIP3    H127241   0.065   3.211   7.937 -0.3147  2.0404  0.0292
 1894TIP3    H227242   0.011   3.087   7.868  1.6250  0.0739  1.8638
 1895TIP3   OH227243   3.483   2.812   7.468 -0.1464 -0.2993  0.1685
 1895TIP3    H127244   3.485   2.852   7.381 -0.8235  0.5030  0.5001
 1895TIP3    H227245   3.550   2.744   7.465 -0.3891 -0.5133 -1.0840
 1896TIP3   OH227246   4.799   3.444   1.244 -0.4031 -1.1131  0.1312
 1896TIP3    H127247   4.778   3.378   1.178 -0.9342 -0.7116 -0.1004
 1896TIP3    H227248   4.715   3.470   1.282 -0.0690 -1.7791  1.4065
 1897TIP3   OH227249   2.833   1.199   7.328 -0.3768 -0.6375  0.1993
 1897TIP3    H127250   2.754   1.152   7.302 -0.1475 -0.7392 -0.3322
 1897TIP3    H227251   2.885   1.134   7.375  0.7030 -1.4744 -1.9771
 1898TIP3   OH227252   5.860   2.412   8.395  0.3739  0.7798 -0.6679
 1898TIP3    H127253   5.769   2.390   8.374  0.3849  0.3513 -0.2738
 1898TIP3    H227254   5.860   2.507   8.402 -0.5071  0.6830  1.4366
 1899TIP3   OH227255   3.088   1.001   0.254  0.2233 -0.5644  0.2560
 1899TIP3    H127256   3.078   0.912   0.288 -0.9781 -0.3936  0.3802
 1899TIP3    H227257   3.013   1.049   0.290 -0.3706 -0.0492 -1.5545
 1900TIP3   OH227258   0.248   0.303   7.944  0.0293  0.1809  0.3261
 1900TIP3    H127259   0.318   0.361   7.913  0.4832 -0.7814 -0.5182
 1900TIP3    H227260   0.277   0.274   8.030  0.6428 -0.1478  0.0157
 1901TIP3   OH227261   3.412   1.993   2.640 -0.2296 -1.0196 -0.0083
 1901TIP3    H127262   3.336   2.039   2.603 -0.0979  0.8135  1.8192
 1901TIP3    H227263   3.375   1.937   2.709  0.0192 -0.2312  0.7891
 1902TIP3   OH227264   2.846   4.449   8.419 -0.0404  0.0975  0.0095
 1902TIP3    H127265   2.841   4.389   8.494  0.3901 -0.2980 -0.2804
 1902TIP3    H227266   2.938   4.475   8.415  0.2950 -1.1658 -1.3830
 1903TIP3   OH227267   2.473   2.601   6.960  0.8431  0.0219 -0.2576
 1903TIP3    H127268   2.433   2.688   6.963  0.5095 -0.1527  0.5634
 1903TIP3    H227269   2.564   2.616   6.985  0.7147  0.0926  0.1661
 1904TIP3   OH227270   1.817   3.174   7.893  0.2969 -0.3543 -0.3691
 1904TIP3    H127271   1.723   3.175   7.879  0.3605  1.4445 -0.9163
 1904TIP3    H227272   1.853   3.221   7.817  1.4549  0.6824  0.7690
 1905TIP3   OH227273   3.843   5.763   7.931  0.2812  0.1334 -0.1678
 1905TIP3    H127274   3.891   5.842   7.956  0.4751  0.1951 -0.7204
 1905TIP3    H227275   3.850   5.760   7.836  1.3008 -1.2039 -0.0838
 1906TIP3   OH227276   6.179   5.923   7.619 -0.4747  0.5766 -0.3022
 1906TIP3    H127277   6.173   5.974   7.538  2.3656  1.5309 -0.0475
 1906TIP3    H227278   6.198   5.834   7.590  2.3960  1.2531 -0.8106
 1907TIP3   OH227279   5.747   4.012   1.275 -0.3457 -0.0498 -0.1813
 1907TIP3    H127280   5.737   3.927   1.231 -0.2010  0.9727 -2.3204
 1907TIP3    H227281   5.814   3.996   1.342  1.0802 -1.2397 -1.7796
 1908TIP3   OH227282   6.853   2.285   0.329  0.2776  0.1835 -0.5679
 1908TIP3    H127283   6.941   2.310   0.301  0.6909  2.0864  1.9873
 1908TIP3    H227284   6.868   2.225   0.402 -0.4858  0.9002  0.2073
 1909TIP3   OH227285   0.670   1.421   7.245 -0.6666  0.4012 -0.3374
 1909TIP3    H127286   0.670   1.329   7.272  0.9613  0.1378 -1.0928
 1909TIP3    H227287   0.752   1.431   7.195 -0.6393  2.3488  0.0273
 1910TIP3   OH227288   0.956   1.947   2.895  0.2616  0.0205 -0.6714
 1910TIP3    H127289   0.923   1.961   2.984  0.6832  0.3471 -0.5617
 1910TIP3    H227290   1.024   2.013   2.884 -0.2417  0.4234 -1.4837
 1911TIP3   OH227291   1.621   4.499   1.150 -0.0035  0.1517  0.4949
 1911TIP3    H127292   1.589   4.563   1.085 -0.6673 -1.1043 -0.4641
 1911TIP3    H227293   1.590   4.532   1.234  0.3569  1.5032  0.1214
 1912TIP3   OH227294   2.668   5.747   1.959  0.1307  0.3953 -0.4495
 1912TIP3    H127295   2.591   5.707   1.919 -2.5039  3.4133  1.0815
 1912TIP3    H227296   2.701   5.807   1.892  0.6955 -0.2993 -0.8101
 1913TIP3   OH227297   1.995   4.569   0.581  0.1307  0.1003  0.1688
 1913TIP3    H127298   2.022   4.499   0.640 -0.6972 -1.4344 -1.1851
 1913TIP3    H227299   2.063   4.636   0.591  0.2654 -0.3070  2.4551
 1914TIP3   OH227300   0.445   2.750   2.401 -0.9199  0.7711  0.1430
 1914TIP3    H127301   0.375   2.813   2.418 -1.9985 -0.3005 -0.1687
 1914TIP3    H227302   0.518   2.779   2.454 -0.9344  3.0357 -0.9823
 1915TIP3   OH227303   6.542   5.813   1.410 -0.2728  0.7991  0.1422
 1915TIP3    H127304   6.500   5.888   1.369  1.1063  0.6824 -1.5947
 1915TIP3    H227305   6.602   5.780   1.344 -0.5127 -1.5820  1.0239
 1916TIP3   OH227306   3.855   1.907   0.528 -0.2252 -0.6035 -0.3361
 1916TIP3    H127307   3.875   1.909   0.622  1.8114 -5.2824 -0.4063
 1916TIP3    H227308   3.759   1.913   0.524 -0.2563  4.0861  1.4960
 1917TIP3   OH227309   0.798   1.675   8.431  0.3818 -0.1475 -0.2636
 1917TIP3    H127310   0.801   1.599   8.490  0.3458 -0.8832 -1.1800
 1917TIP3    H227311   0.879   1.668   8.380  0.1969  0.2337 -0.6060
 1918TIP3   OH227312   3.936   3.178   8.636 -0.3714  0.6343  0.4416
 1918TIP3    H127313   4.008   3.139   8.586 -1.0627  2.5378 -2.2576
 1918TIP3    H227314   3.904   3.106   8.692  2.8818 -0.5504  1.0019
 1919TIP3   OH227315   3.494   6.722   7.440  0.5858  0.4455 -0.2488
 1919TIP3    H127316   3.433   6.702   7.511  1.7623 -0.0072  0.6748
 1919TIP3    H227317   3.571   6.756   7.485  0.8802  1.3401 -1.4190
 1920TIP3   OH227318   3.913   1.828   6.804  0.2428 -0.3351 -0.3150
 1920TIP3    H127319   3.824   1.808   6.774 -0.7743  1.9765  0.8732
 1920TIP3    H227320   3.945   1.746   6.841 -1.7702 -1.0270  0.0462
 1921TIP3   OH227321   4.088   4.776   2.663 -0.0864  0.0542  0.0162
 1921TIP3    H127322   4.182   4.767   2.650 -0.3307  0.6384 -2.4878
 1921TIP3    H227323   4.080   4.841   2.733  1.3338 -0.0070  0.2688
 1922TIP3   OH227324   4.703   2.221   8.261  0.1825 -0.2183  0.1855
 1922TIP3    H127325   4.708   2.265   8.346 -1.5021  0.5460 -0.0755
 1922TIP3    H227326   4.754   2.277   8.202 -1.0700  0.8680  0.0868
 1923TIP3   OH227327   5.723   2.502   8.121 -0.0442 -0.5377  0.8585
 1923TIP3    H127328   5.691   2.455   8.198 -1.6301  1.1876  1.3369
 1923TIP3    H227329   5.677   2.463   8.047 -0.7777 -0.2717  1.1633
 1924TIP3   OH227330   4.540   2.164   1.579 -0.2654  0.2577  0.0993
 1924TIP3    H127331   4.572   2.254   1.573 -0.8926  0.5589  1.0351
 1924TIP3    H227332   4.598   2.114   1.522 -0.8105  1.4867 -1.6107
 1925TIP3   OH227333   0.450   6.220   2.920  0.1439  0.0613  0.2498
 1925TIP3    H127334   0.522   6.277   2.894  0.0036 -0.7350 -2.0545
 1925TIP3    H227335   0.379   6.280   2.941  0.2474  0.7840 -1.3426
 1926TIP3   OH227336   2.361   3.195   0.957  0.2201  0.5776 -0.0083
 1926TIP3    H127337   2.316   3.219   0.876 -0.7009 -1.0891 -0.0228
 1926TIP3    H227338   2.453   3.188   0.931  0.1986  1.7996 -0.4891
 1927TIP3   OH227339   2.892   1.100   7.957 -0.3792  0.2961 -0.0913
 1927TIP3    H127340   2.936   1.031   7.907 -1.8707 -0.5986 -0.2424
 1927TIP3    H227341   2.818   1.126   7.901 -1.9999 -0.6178  1.5006
 1928TIP3   OH227342   5.996   4.880   7.906 -0.3446 -0.0133  0.1254
 1928TIP3    H127343   5.972   4.793   7.940  1.0826 -1.4589 -2.2888
 1928TIP3    H227344   5.965   4.879   7.815  1.4665  1.2243 -0.5504
 1929TIP3   OH227345   4.079   3.069   1.455 -0.3561  0.2277  0.6351
 1929TIP3    H127346   4.154   3.095   1.401 -0.8047  0.9461  0.3344
 1929TIP3    H227347   4.116   3.014   1.523  0.3738  0.1574  0.1917
 1930TIP3   OH227348   5.093   5.558   7.718 -0.4969  0.2064 -0.2147
 1930TIP3    H127349   5.085   5.609   7.638  0.0354  0.7213  0.0522
 1930TIP3    H227350   5.009   5.569   7.762 -0.7282  0.0627 -0.6125
 1931TIP3   OH227351   6.445   4.755   2.848 -0.0606  0.5188 -0.0825
 1931TIP3    H127352   6.478   4.671   2.882 -0.9545 -0.0785 -0.6440
 1931TIP3    H227353   6.521   4.794   2.805  0.1279 -0.4896 -0.7118
 1932TIP3   OH227354   5.934   5.763   1.323 -0.2613  0.3017 -0.1225
 1932TIP3    H127355   5.948   5.749   1.230  1.3937 -0.8941  0.2694
 1932TIP3    H227356   5.987   5.840   1.344 -0.3286  0.3418 -0.1006
 1933TIP3   OH227357   0.135   6.790   2.378  0.1446  0.3982 -0.5339
 1933TIP3    H127358   0.151   6.884   2.376 -0.4770  0.5111 -0.4169
 1933TIP3    H227359   0.043   6.781   2.354 -0.4280 -0.0235  1.5957
 1934TIP3   OH227360   0.364   3.932   1.643  0.4225  0.2158  0.0071
 1934TIP3    H127361   0.390   3.866   1.579 -1.0572  1.5381 -2.0953
 1934TIP3    H227362   0.369   3.888   1.728 -0.0996 -2.4438 -1.2703
 1935TIP3   OH227363   5.137   2.576   0.733  0.5844 -0.0392 -0.1843
 1935TIP3    H127364   5.224   2.612   0.754  0.9725 -1.0401 -0.0006
 1935TIP3    H227365   5.118   2.608   0.645  2.9955 -3.0509 -2.0032
 1936TIP3   OH227366   4.405   0.788   1.519  0.4151 -0.4057 -0.5255
 1936TIP3    H127367   4.446   0.730   1.583  0.1476  0.4372  0.4319
 1936TIP3    H227368   4.369   0.729   1.452  0.1376 -1.3377  0.4254
 1937TIP3   OH227369   2.846   0.022   8.145 -0.1574  0.2156  0.0052
 1937TIP3    H127370   2.799  -0.056   8.174 -0.3193  0.4178  0.2933
 1937TIP3    H227371   2.795   0.095   8.179  0.0575  0.4476 -0.1609
 1938TIP3   OH227372   4.329   4.821   0.321 -0.5787  0.0360  0.1297
 1938TIP3    H127373   4.339   4.762   0.246 -0.6482  1.9619 -1.4573
 1938TIP3    H227374   4.327   4.909   0.283 -2.5691  0.9970  2.1991
 1939TIP3   OH227375   0.070   6.212   0.305 -1.2674 -0.0901  0.5653
 1939TIP3    H127376  -0.001   6.273   0.323 -0.3906  0.7485  1.2442
 1939TIP3    H227377   0.140   6.266   0.268 -1.9720 -1.3125 -2.9821
 1940TIP3   OH227378   5.544   5.241   7.002 -0.2395  0.2588  0.3720
 1940TIP3    H127379   5.600   5.313   6.974  2.0859 -1.5575  0.0155
 1940TIP3    H227380   5.605   5.175   7.037 -2.2249 -1.5997  0.5532
 1941TIP3   OH227381   2.534   4.247   7.531  0.3819 -0.2075 -0.2490
 1941TIP3    H127382   2.482   4.179   7.573  1.1413  0.2448  1.4848
 1941TIP3    H227383   2.514   4.327   7.580  2.0761  0.1295 -0.0402
 1942TIP3   OH227384   6.337   0.816   2.667 -0.0978  0.6056  0.1487
 1942TIP3    H127385   6.261   0.806   2.725 -0.3343  1.8325  0.0659
 1942TIP3    H227386   6.353   0.727   2.635 -1.8153  0.3773 -0.2151
 1943TIP3   OH227387   1.632   2.342   0.846 -0.1574  0.3737  0.3668
 1943TIP3    H127388   1.545   2.355   0.807 -0.3035 -1.8611 -0.1993
 1943TIP3    H227389   1.639   2.411   0.912 -2.1102  0.9709  0.0333
 1944TIP3   OH227390   0.743   3.696   2.476  0.3289 -0.2851 -0.4299
 1944TIP3    H127391   0.749   3.687   2.380  0.1651 -0.4779 -0.4232
 1944TIP3    H227392   0.762   3.788   2.493 -1.6022  0.2396 -0.8150
 1945TIP3   OH227393   5.133   0.525   1.696  0.2265 -0.2666  1.0754
 1945TIP3    H127394   5.160   0.580   1.623 -3.5258  1.6615  0.9190
 1945TIP3    H227395   5.165   0.438   1.673  2.4796  0.9854 -0.9075
 1946TIP3   OH227396   1.491   2.839   7.456 -0.3776  0.8928  0.1890
 1946TIP3    H127397   1.456   2.846   7.367  0.2868  0.7285 -0.0963
 1946TIP3    H227398   1.586   2.829   7.443 -0.4516 -0.9662  0.8434
 1947TIP3   OH227399   0.649   0.891   7.358  0.2540 -0.3163  0.3061
 1947TIP3    H127400   0.739   0.908   7.386  0.3684 -0.3599 -0.0238
 1947TIP3    H227401   0.653   0.803   7.320  1.1741  1.3779 -4.1308
 1948TIP3   OH227402   0.111   5.220   8.085  0.4344  0.0488  0.4055
 1948TIP3    H127403   0.192   5.262   8.057  1.0570 -0.6475  1.0953
 1948TIP3    H227404   0.086   5.163   8.013 -0.0118  1.0061 -0.2269
 1949TIP3   OH227405   5.058   0.654   1.279  0.0994  0.1399 -0.3480
 1949TIP3    H127406   5.133   0.666   1.337 -0.5689  1.8340  0.2333
 1949TIP3    H227407   5.002   0.590   1.325 -0.3197  1.2932  0.8262
 1950TIP3   OH227408   1.224   2.174   7.781 -0.4262 -0.4234 -0.1003
 1950TIP3    H127409   1.291   2.212   7.724  0.7423 -0.2293  1.3464
 1950TIP3    H227410   1.142   2.213   7.750  0.1847 -0.2085 -1.5276
 1951TIP3   OH227411   5.186   3.836   0.617  0.4216 -0.0714  0.5255
 1951TIP3    H127412   5.133   3.770   0.661 -0.7664 -1.1448 -2.2270
 1951TIP3    H227413   5.276   3.808   0.633 -0.0168 -3.1507 -1.3231
 1952TIP3   OH227414   5.572   4.610   0.307 -0.1151  0.2978 -0.2364
 1952TIP3    H127415   5.635   4.593   0.237  0.1374 -0.3825  0.1429
 1952TIP3    H227416   5.626   4.621   0.386 -0.4252  0.5547 -0.0548
 1953TIP3   OH227417   1.475   3.892   7.165  0.2807 -0.1934 -0.2122
 1953TIP3    H127418   1.475   3.987   7.170  0.2912 -0.2545  1.4109
 1953TIP3    H227419   1.567   3.869   7.148  0.3177  0.0656 -0.3698
 1954TIP3   OH227420   4.637   6.165   2.855 -0.0243  0.1994 -0.5598
 1954TIP3    H127421   4.689   6.116   2.791  0.0126 -0.0460 -0.3388
 1954TIP3    H227422   4.646   6.257   2.827 -0.9552 -0.0042 -1.6000
 1955TIP3   OH227423   1.851   0.580   7.623 -0.1496 -0.0084  0.0337
 1955TIP3    H127424   1.918   0.634   7.664  0.1003 -1.6427  1.9109
 1955TIP3    H227425   1.769   0.613   7.658 -0.1845  0.5542 -0.5514
 1956TIP3   OH227426   3.647   5.282   1.675  0.0316  0.0313 -0.0816
 1956TIP3    H127427   3.648   5.193   1.639  1.1518 -0.4292  1.0509
 1956TIP3    H227428   3.733   5.318   1.653 -0.3047  0.7444 -0.2704
 1957TIP3   OH227429   1.779   5.058   0.767 -0.1355  0.4115 -0.0708
 1957TIP3    H127430   1.686   5.073   0.784  0.0728  0.1407  1.4560
 1957TIP3    H227431   1.791   4.964   0.781 -0.2956 -0.3095 -3.8148
 1958TIP3   OH227432   2.956   0.239   0.137 -0.3792  0.4623  0.1477
 1958TIP3    H127433   2.969   0.156   0.091 -0.8992 -1.4121  3.1735
 1958TIP3    H227434   2.974   0.306   0.070 -1.1662 -2.0077 -2.7487
 1959TIP3   OH227435   5.497   1.536   2.097  0.8408  0.0735  0.6988
 1959TIP3    H127436   5.427   1.571   2.153  0.9631 -0.6286  1.3061
 1959TIP3    H227437   5.493   1.589   2.018 -0.3580  0.0627  0.7383
 1960TIP3   OH227438   6.790   4.087   0.036  0.2584 -0.1450  0.0014
 1960TIP3    H127439   6.753   4.175   0.031 -0.1677 -0.3472 -0.6618
 1960TIP3    H227440   6.884   4.100   0.032  0.2201  0.3138  0.4841
 1961TIP3   OH227441   2.032   0.057   2.151  0.2077 -0.3591 -0.1275
 1961TIP3    H127442   2.104   0.099   2.104  0.6564  1.5725  2.0593
 1961TIP3    H227443   2.075   0.008   2.222 -0.5440 -0.0780  0.5397
 1962TIP3   OH227444   1.898   5.105   0.497 -0.2376 -0.1287  0.0493
 1962TIP3    H127445   1.839   5.039   0.459 -0.6487  0.2517  0.0199
 1962TIP3    H227446   1.850   5.140   0.572  0.0391  0.0418  0.1495
 1963TIP3   OH227447   1.181   1.573   7.930 -0.2436 -0.0940 -0.1035
 1963TIP3    H127448   1.085   1.576   7.928 -0.2141  1.1930 -1.3537
 1963TIP3    H227449   1.208   1.652   7.883  1.4446 -0.2920  0.4700
 1964TIP3   OH227450   1.986   4.689   1.990  0.1689  0.2502  0.0916
 1964TIP3    H127451   1.949   4.611   1.950 -2.1885  0.3265  1.8574
 1964TIP3    H227452   1.924   4.759   1.969  0.9871  1.1287  0.5095
 1965TIP3   OH227453   5.168   0.997   2.258  0.4373  0.2252  0.1096
 1965TIP3    H127454   5.195   1.014   2.349 -1.0029 -0.6023  0.7261
 1965TIP3    H227455   5.186   1.078   2.212 -0.3516  1.2521  1.5260
 1966TIP3   OH227456   6.693   5.913   2.138  0.3511  0.2118 -0.0616
 1966TIP3    H127457   6.768   5.934   2.081  1.4803 -0.4094  1.1342
 1966TIP3    H227458   6.704   5.820   2.157 -1.3362 -0.1371 -0.6807
 1967TIP3   OH227459   2.045   4.635   2.731  0.3578 -0.3953 -0.3007
 1967TIP3    H127460   2.093   4.717   2.722 -0.3653  0.0417 -0.2439
 1967TIP3    H227461   1.955   4.657   2.710 -0.4502 -0.4932  2.6196
 1968TIP3   OH227462   1.667   6.216   8.332 -0.2610  0.9019 -0.1778
 1968TIP3    H127463   1.665   6.130   8.374 -0.3294  0.7381 -0.5177
 1968TIP3    H227464   1.749   6.256   8.363  0.5792  0.0766 -1.2805
 1969TIP3   OH227465   5.356   4.367   8.132  0.2178  0.0675  0.6852
 1969TIP3    H127466   5.342   4.275   8.155  1.6337 -0.6725 -1.1822
 1969TIP3    H227467   5.441   4.389   8.170  0.0867  0.4727  0.7532
 1970TIP3   OH227468   0.381   6.014   2.037 -0.0553  0.4493  0.0408
 1970TIP3    H127469   0.365   5.977   2.124  0.3352  0.9035  0.3155
 1970TIP3    H227470   0.297   6.051   2.011  0.1697  1.6323  0.8868
 1971TIP3   OH227471   6.665   3.216   0.488 -0.6398  1.1245 -0.2107
 1971TIP3    H127472   6.600   3.189   0.423  0.0629  1.1056 -0.9312
 1971TIP3    H227473   6.646   3.163   0.565 -0.1291 -0.4997 -1.1428
 1972TIP3   OH227474   3.239   3.741   1.114 -0.8907  0.1549  0.0135
 1972TIP3    H127475   3.176   3.670   1.112 -0.5040 -0.2142  0.5266
 1972TIP3    H227476   3.281   3.734   1.200 -0.2542  0.4794 -0.2581
 1973TIP3   OH227477   4.535   4.343   6.812 -0.1033 -0.5419 -0.5409
 1973TIP3    H127478   4.560   4.251   6.817 -0.0743 -0.5066  0.0472
 1973TIP3    H227479   4.602   4.383   6.756  0.1857 -0.7802 -0.3707
 1974TIP3   OH227480   3.581   3.099   2.073  0.1669  0.3568  0.3005
 1974TIP3    H127481   3.623   3.173   2.116 -2.4753  1.8455  0.5128
 1974TIP3    H227482   3.519   3.065   2.137 -1.4500  0.5065 -1.0856
 1975TIP3   OH227483   1.887   0.499   0.794 -0.4003  0.1816 -0.0126
 1975TIP3    H127484   1.812   0.518   0.849 -0.3888  1.3307 -0.3559
 1975TIP3    H227485   1.962   0.504   0.853 -0.5681 -0.9232  0.3207
 1976TIP3   OH227486   0.558   6.394   8.168  0.6332 -0.2708  0.3635
 1976TIP3    H127487   0.651   6.382   8.186  0.4135 -1.4662  0.7957
 1976TIP3    H227488   0.519   6.416   8.253  0.2954 -1.3397  0.5008
 1977TIP3   OH227489   1.944   0.200   6.507 -0.0260 -0.1875  0.2946
 1977TIP3    H127490   1.947   0.219   6.414 -0.8163  1.1228  0.5100
 1977TIP3    H227491   2.028   0.157   6.525 -0.2044 -1.2101 -1.1408
 1978TIP3   OH227492   0.771   3.243   0.649 -0.0110  0.4599 -0.2526
 1978TIP3    H127493   0.710   3.178   0.612 -0.4881 -0.2589  1.6224
 1978TIP3    H227494   0.851   3.233   0.598 -1.1756  0.8156 -2.2252
 1979TIP3   OH227495   1.099   0.767   1.135  0.4845  0.0588 -0.1779
 1979TIP3    H127496   1.022   0.711   1.130  0.0465  0.6162  0.1730
 1979TIP3    H227497   1.064   0.856   1.139  1.1353  0.3071  0.1793
 1980TIP3   OH227498   0.348   2.482   7.062 -0.1819 -0.4109 -0.2887
 1980TIP3    H127499   0.420   2.427   7.030  0.0504 -0.0737 -0.3569
 1980TIP3    H227500   0.308   2.431   7.133  1.9576  0.5629  1.7821
 1981TIP3   OH227501   3.206   4.063   0.532  0.2647 -0.3552  0.2708
 1981TIP3    H127502   3.193   4.044   0.625  2.7290 -0.8983  0.5571
 1981TIP3    H227503   3.286   4.114   0.528 -0.1403  0.2117 -1.5315
 1982TIP3   OH227504   2.639   4.662   8.052 -0.0815 -0.2123 -0.3924
 1982TIP3    H127505   2.556   4.710   8.060 -1.7001 -2.9682  0.6885
 1982TIP3    H227506   2.672   4.656   8.142 -0.4388 -1.8677 -0.3333
 1983TIP3   OH227507   2.635   3.926   1.907  0.4022 -0.0852 -0.6073
 1983TIP3    H127508   2.636   3.942   1.812 -1.4906 -0.0655 -0.6562
 1983TIP3    H227509   2.645   3.831   1.915 -1.6647 -0.3772 -0.9746
 1984TIP3   OH227510   0.220   0.676   1.109 -0.4198 -0.3062 -0.7041
 1984TIP3    H127511   0.182   0.738   1.171  0.9477  0.1638 -0.2986
 1984TIP3    H227512   0.266   0.730   1.045 -0.9124 -0.8342 -1.5349
 1985TIP3   OH227513   4.649   0.431   2.243 -0.3134 -0.7035 -0.7056
 1985TIP3    H127514   4.587   0.463   2.308 -0.6440  0.7563 -1.7045
 1985TIP3    H227515   4.684   0.350   2.282 -0.7040 -0.0425  1.1481
 1986TIP3   OH227516   3.374   2.853   8.521  0.2701 -0.1470 -0.2544
 1986TIP3    H127517   3.392   2.862   8.615  1.1053  1.4615 -0.5310
 1986TIP3    H227518   3.445   2.797   8.489  0.6202  0.2183 -0.1192
 1987TIP3   OH227519   4.790   5.736   1.977 -0.2303  0.4835  0.6115
 1987TIP3    H127520   4.807   5.727   1.883 -0.3693  2.5418  0.3381
 1987TIP3    H227521   4.869   5.704   2.019  0.8621  1.7989 -0.3359
 1988TIP3   OH227522   1.202   5.771   1.041 -0.2021  0.2132 -0.5688
 1988TIP3    H127523   1.223   5.778   1.133 -0.5223 -0.0057 -0.4742
 1988TIP3    H227524   1.254   5.839   0.998  0.0147  0.2543 -0.2407
 1989TIP3   OH227525   0.126   2.311   1.784 -0.0783 -0.2842 -0.0032
 1989TIP3    H127526   0.147   2.289   1.693  2.1772  1.0082  0.1350
 1989TIP3    H227527   0.155   2.235   1.834 -0.9352 -0.8206 -0.2979
 1990TIP3   OH227528   1.831   5.555   1.515 -0.3127 -0.5376 -0.0739
 1990TIP3    H127529   1.793   5.477   1.555 -1.4906 -0.0865 -0.2842
 1990TIP3    H227530   1.767   5.624   1.532 -0.3248 -0.0999 -1.7670
 1991TIP3   OH227531   3.811   2.634   1.462  0.1331  0.5824  0.3947
 1991TIP3    H127532   3.905   2.640   1.480  0.0536  0.5217  0.8395
 1991TIP3    H227533   3.772   2.605   1.544 -0.2556  0.4182  0.1566
 1992TIP3   OH227534   5.585   6.624   8.668 -0.1639 -0.1694 -0.1481
 1992TIP3    H127535   5.530   6.651   8.741 -0.7099 -0.4362 -0.4510
 1992TIP3    H227536   5.528   6.630   8.591 -0.0471 -1.3297 -0.3430
 1993TIP3   OH227537   2.246   4.384   1.159  0.6002 -0.1639  0.0115
 1993TIP3    H127538   2.179   4.395   1.226 -0.6005 -2.0373 -0.7910
 1993TIP3    H227539   2.264   4.473   1.128 -0.0695  0.5622  1.6047
 1994TIP3   OH227540   4.966   1.021   0.147 -0.5053  0.1292 -0.5025
 1994TIP3    H127541   4.968   1.013   0.242  1.6806 -0.2775 -0.5378
 1994TIP3    H227542   4.895   0.962   0.119  0.4482 -1.6785  0.7317
 1995TIP3   OH227543   4.188   6.023   0.111  0.6350 -0.2594 -0.1414
 1995TIP3    H127544   4.126   6.016   0.183 -1.1437  0.7539 -1.4766
 1995TIP3    H227545   4.230   6.108   0.124 -0.0328  0.1406 -0.5199
 1996TIP3   OH227546   6.317   0.005   7.981  0.0322 -0.0487 -0.1454
 1996TIP3    H127547   6.258   0.034   7.911  1.7277  0.7669 -1.3104
 1996TIP3    H227548   6.368  -0.066   7.942  1.7037  1.0849 -0.1677
 1997TIP3   OH227549   5.448   0.559   1.989 -0.3775  0.1676  0.5156
 1997TIP3    H127550   5.513   0.503   1.947 -0.7560  1.0400 -1.3051
 1997TIP3    H227551   5.431   0.516   2.073  1.1322 -1.0996  0.2313
 1998TIP3   OH227552   5.227   1.885   1.642 -0.7787  0.2405 -0.2481
 1998TIP3    H127553   5.257   1.976   1.650 -2.1244  0.7865 -1.0411
 1998TIP3    H227554   5.307   1.835   1.624 -0.1396  1.4238 -0.8665
 1999TIP3   OH227555   6.285   6.855   0.275 -0.0652 -0.7697  0.1373
 1999TIP3    H127556   6.278   6.950   0.263 -3.1173 -0.8587  0.4657
 1999TIP3    H227557   6.293   6.820   0.186  0.0996 -0.2707 -0.0478
 2000TIP3   OH227558   0.428   6.227   0.902  0.3399  0.1343  0.5506
 2000TIP3    H127559   0.386   6.279   0.971  2.0943  1.9339  0.3556
 2000TIP3    H227560   0.408   6.274   0.821  0.7700 -0.3075  0.1829
 2001TIP3   OH227561   2.506   4.928   0.161  0.2791 -0.5548 -0.1209
 2001TIP3    H127562   2.424   4.977   0.151  1.6238  2.0555  0.9123
 2001TIP3    H227563   2.480   4.836   0.146 -2.9807  0.0356  1.0141
 2002TIP3   OH227564   3.475   0.222   0.970 -0.4691 -0.2461  0.2943
 2002TIP3    H127565   3.474   0.249   0.878  1.1349 -0.2227  0.2539
 2002TIP3    H227566   3.489   0.304   1.018 -1.3407 -0.2541  0.5777
 2003TIP3   OH227567   4.154   2.714   1.783  0.2241 -0.2047 -0.4915
 2003TIP3    H127568   4.064   2.748   1.783  0.1333 -0.4412 -0.3106
 2003TIP3    H227569   4.159   2.662   1.703 -0.2600 -1.3760  0.2178
 2004TIP3   OH227570   2.018   3.464   7.933 -0.5653  0.2977 -0.7545
 2004TIP3    H127571   1.997   3.411   8.010  0.6243  1.5562  0.4765
 2004TIP3    H227572   1.941   3.518   7.919  0.3922  2.4918  1.6905
 2005TIP3   OH227573   6.513   1.652   1.108  0.0067 -0.0212 -0.2838
 2005TIP3    H127574   6.469   1.709   1.170 -1.4536 -0.8187 -0.5421
 2005TIP3    H227575   6.590   1.620   1.156 -1.0059 -0.5170  1.0834
 2006TIP3   OH227576   6.204   3.209   0.512 -0.0295  0.5560 -0.3894
 2006TIP3    H127577   6.131   3.153   0.486  0.4687 -0.1478 -0.2993
 2006TIP3    H227578   6.165   3.275   0.570 -0.5684  0.0999 -0.2281
 2007TIP3   OH227579   5.330   2.373   1.952 -0.5133  0.6041 -0.5060
 2007TIP3    H127580   5.244   2.338   1.929 -0.6817  0.1651  0.7108
 2007TIP3    H227581   5.320   2.406   2.041  0.3049  1.5279 -0.7380
 2008TIP3   OH227582   4.998   4.456   2.327 -0.4639  0.5097  0.2142
 2008TIP3    H127583   5.002   4.509   2.247  0.5611  0.2898  0.1045
 2008TIP3    H227584   5.079   4.405   2.326  0.8367  2.3016  2.6519
 2009TIP3   OH227585   6.666   0.696   0.322 -0.1711 -0.1730 -0.7334
 2009TIP3    H127586   6.590   0.749   0.345  0.2755 -0.6423  2.1002
 2009TIP3    H227587   6.632   0.606   0.318  0.3282 -0.5314  1.5997
 2010TIP3   OH227588   6.119   0.308   0.424 -0.1882  0.2291  0.3409
 2010TIP3    H127589   6.106   0.251   0.349  0.8999  1.2123 -0.6423
 2010TIP3    H227590   6.041   0.364   0.426 -0.0720  0.4186 -0.2696
 2011TIP3   OH227591   2.156   0.155   0.663 -0.0844 -0.2116  0.1580
 2011TIP3    H127592   2.231   0.210   0.685  0.4874 -0.2388 -1.5342
 2011TIP3    H227593   2.126   0.120   0.747  0.9569  0.8619  1.0165
 2012TIP3   OH227594   3.910   3.195   1.938  0.2286 -0.2392  0.1044
 2012TIP3    H127595   3.918   3.287   1.962 -3.2826  0.3797 -0.5565
 2012TIP3    H227596   3.887   3.151   2.020 -1.3814  0.0965 -0.1351
 2013TIP3   OH227597   2.591   6.010   7.577  0.3551  0.2565  0.2279
 2013TIP3    H127598   2.662   6.062   7.539  2.4950 -1.7897  1.1773
 2013TIP3    H227599   2.516   6.026   7.520  2.0903  1.0638 -1.9567
 2014TIP3   OH227600   2.399   0.471   1.445 -0.4416  0.1135 -0.2002
 2014TIP3    H127601   2.354   0.423   1.375  0.0496  0.9087 -1.0876
 2014TIP3    H227602   2.474   0.512   1.402  1.2376 -1.2736  1.2681
 2015TIP3   OH227603   6.856   6.537   8.475  0.6322  0.0510  0.0751
 2015TIP3    H127604   6.919   6.485   8.525  0.0606 -1.3534 -0.6169
 2015TIP3    H227605   6.901   6.554   8.392 -0.5515 -2.7827 -1.3075
 2016TIP3   OH227606   4.136   4.337   7.613 -0.4351 -0.1135 -1.0079
 2016TIP3    H127607   4.146   4.430   7.594 -0.8512 -0.0034 -0.6897
 2016TIP3    H227608   4.145   4.330   7.708 -0.0629 -0.4450 -1.0643
 2017TIP3   OH227609   2.128   2.540   1.796 -0.6350 -0.6063  0.0038
 2017TIP3    H127610   2.115   2.477   1.867 -0.8410 -0.2931  0.2487
 2017TIP3    H227611   2.044   2.543   1.751 -0.0182 -2.0952 -1.3440
 2018TIP3   OH227612   2.637   1.852   2.872  0.2023 -0.3433 -0.2515
 2018TIP3    H127613   2.570   1.845   2.805 -0.9696 -0.8419  0.9245
 2018TIP3    H227614   2.711   1.802   2.837 -0.9148 -1.8552 -0.5847
 2019TIP3   OH227615   3.905   1.379   7.682 -0.2043  0.0544  0.2163
 2019TIP3    H127616   3.897   1.474   7.670 -0.9234  0.0621  0.6492
 2019TIP3    H227617   3.858   1.342   7.608  1.3655 -0.0003 -0.7926
 2020TIP3   OH227618   1.934   3.876   0.001  0.4652 -0.4963  0.3873
 2020TIP3    H127619   1.907   3.800   0.052 -0.9237 -0.9432 -0.9414
 2020TIP3    H227620   1.990   3.926   0.060  0.4656 -1.9507  1.6791
 2021TIP3   OH227621   5.829   3.345   1.773  0.2930 -0.6993  0.3558
 2021TIP3    H127622   5.900   3.347   1.709 -0.9971  0.7290 -1.1249
 2021TIP3    H227623   5.811   3.437   1.792 -1.7798 -0.9609 -0.0844
 2022TIP3   OH227624   3.998   2.841   8.544  0.2475  0.2759 -0.0145
 2022TIP3    H127625   4.074   2.794   8.510  0.3099  0.2920  0.1032
 2022TIP3    H227626   3.925   2.779   8.536 -0.1299  0.8917 -1.9054
 2023TIP3   OH227627   1.487   3.281   7.628 -0.1308  0.4953  0.2978
 2023TIP3    H127628   1.527   3.245   7.707 -0.5938 -2.2957 -0.6332
 2023TIP3    H227629   1.543   3.252   7.556 -1.2743  0.4906 -0.6331
 2024TIP3   OH227630   3.529   6.021   8.519 -0.1229  0.0655  0.6818
 2024TIP3    H127631   3.505   6.094   8.462  1.7214  0.1500 -0.0445
 2024TIP3    H227632   3.568   6.062   8.596  1.3827 -0.1383  0.0491
 2025TIP3   OH227633   4.553   2.585   0.858  0.2878  0.1151 -0.3014
 2025TIP3    H127634   4.462   2.590   0.888 -0.4716 -2.7481 -1.8295
 2025TIP3    H227635   4.604   2.620   0.931 -1.9320  0.4438  1.1780
 2026TIP3   OH227636   0.371   2.352   0.444  0.6355 -0.5593 -0.0130
 2026TIP3    H127637   0.297   2.294   0.466  1.0296 -0.5370  1.4782
 2026TIP3    H227638   0.342   2.398   0.366 -0.1395 -1.9677 -0.5995
 2027TIP3   OH227639   5.534   4.655   1.818  0.0920  0.0029 -0.7164
 2027TIP3    H127640   5.514   4.739   1.859 -1.7858 -1.2608  1.1361
 2027TIP3    H227641   5.526   4.671   1.724  0.3493  2.0051 -0.4281
 2028TIP3   OH227642   5.724   5.024   7.038 -0.3308 -0.1579 -0.1715
 2028TIP3    H127643   5.735   4.994   6.948 -1.6638 -1.4185  0.0614
 2028TIP3    H227644   5.761   4.954   7.092 -0.1764  0.2672  0.2837
 2029TIP3   OH227645   3.450   3.902   7.072  0.3809  0.2237  0.3681
 2029TIP3    H127646   3.427   3.837   7.006 -1.1436 -0.2236  1.2844
 2029TIP3    H227647   3.503   3.854   7.136  1.7097  0.6157 -0.3905
 2030TIP3   OH227648   0.165   2.205   1.155  0.4897 -0.1621  0.2681
 2030TIP3    H127649   0.217   2.188   1.077  0.5770 -0.2920  0.3561
 2030TIP3    H227650   0.084   2.157   1.140 -0.3580  1.4439 -0.6848
 2031TIP3   OH227651   6.404   3.428   0.405  1.1794 -0.2449 -0.1785
 2031TIP3    H127652   6.471   3.366   0.432 -0.2985 -0.8529  2.4127
 2031TIP3    H227653   6.322   3.379   0.411  0.1361  1.4676  0.3815
 2032TIP3   OH227654   4.910   0.920   0.849 -0.1215  0.1524 -0.5352
 2032TIP3    H127655   4.940   0.888   0.764 -0.5251  0.5089 -0.8170
 2032TIP3    H227656   4.975   0.888   0.912  0.3548  0.1701 -1.0192
 2033TIP3   OH227657   6.189   1.380   0.954  0.4266  0.2582 -0.5150
 2033TIP3    H127658   6.213   1.472   0.968 -1.6275  0.6629  0.7266
 2033TIP3    H227659   6.197   1.340   1.040 -3.1648  0.4595  0.0625
 2034TIP3   OH227660   4.127   0.191   8.551 -0.8402 -0.4151 -0.0898
 2034TIP3    H127661   4.159   0.162   8.466 -1.7092 -1.1126 -0.1916
 2034TIP3    H227662   4.032   0.186   8.544 -0.9193 -1.7532  1.3429
 2035TIP3   OH227663   1.701   2.897   0.769 -0.0283 -0.2981 -0.6821
 2035TIP3    H127664   1.628   2.841   0.795 -0.3442 -0.4945 -1.9414
 2035TIP3    H227665   1.713   2.957   0.843  0.2849 -1.9749  0.6806
 2036TIP3   OH227666   3.673   1.668   0.794  0.0920  0.7410 -0.2836
 2036TIP3    H127667   3.594   1.708   0.759  0.0232 -0.1052 -1.1432
 2036TIP3    H227668   3.661   1.574   0.779  0.2980  0.3827  1.5572
 2037TIP3   OH227669   3.144   2.613   0.731  0.0028 -0.5115 -0.1000
 2037TIP3    H127670   3.084   2.552   0.773 -1.6838  0.1713 -1.3973
 2037TIP3    H227671   3.178   2.566   0.655  1.5838 -1.0701  0.8843
 2038TIP3   OH227672   1.753   3.518   7.458  0.2345 -0.0940 -0.0597
 2038TIP3    H127673   1.686   3.564   7.507  0.8443  0.4044  0.3258
 2038TIP3    H227674   1.772   3.575   7.383  0.5801  0.0146  0.1059
 2039TIP3   OH227675   1.800   4.284   1.172 -0.1602 -0.1415 -0.4103
 2039TIP3    H127676   1.745   4.362   1.182  0.4229  0.1195  1.0835
 2039TIP3    H227677   1.738   4.212   1.163 -0.7701  0.2120  0.7058
 2040TIP3   OH227678   2.984   0.635   1.281  0.1684  0.4923  0.3361
 2040TIP3    H127679   2.901   0.682   1.270 -0.4560 -0.2640  1.5196
 2040TIP3    H227680   3.044   0.699   1.319 -0.1535  0.8034  0.3218
 2041TIP3   OH227681   3.262   3.661   1.390 -0.5182  0.0479  0.0492
 2041TIP3    H127682   3.348   3.636   1.425 -0.2502 -0.1313 -0.7182
 2041TIP3    H227683   3.238   3.588   1.333  0.6330  1.7896 -2.8542
 2042TIP3   OH227684   4.819   4.074   1.555  0.6464  0.0612 -0.2424
 2042TIP3    H127685   4.749   4.090   1.492  0.0595 -0.5072  0.2519
 2042TIP3    H227686   4.775   4.066   1.639  1.3931  0.5151  0.2051
 2043TIP3   OH227687   2.348   6.839   0.107  0.2048  0.2438  0.4058
 2043TIP3    H127688   2.311   6.925   0.090 -0.6348  0.3474  2.4903
 2043TIP3    H227689   2.315   6.784   0.036  1.0096  1.6613 -1.1354
 2044TIP3   OH227690   3.474   4.861   7.175  0.2635 -0.8732  0.1979
 2044TIP3    H127691   3.566   4.836   7.187 -0.0747 -1.9472  0.6707
 2044TIP3    H227692   3.472   4.901   7.088  1.1870 -0.8134  0.1889
 2045TIP3   OH227693   1.884   0.111   1.091  0.0408 -0.0291  0.5625
 2045TIP3    H127694   1.840   0.030   1.115 -1.3696  0.8659  1.1614
 2045TIP3    H227695   1.931   0.137   1.171  0.5118 -0.2697  0.3638
 2046TIP3   OH227696   0.860   4.762   7.493 -0.2463  0.0071 -0.8142
 2046TIP3    H127697   0.925   4.724   7.552 -0.4610 -0.9222 -1.1526
 2046TIP3    H227698   0.811   4.824   7.548 -1.1048 -1.5726  0.2868
 2047TIP3   OH227699   4.506   3.509   0.057 -0.4333  0.0791  0.4494
 2047TIP3    H127700   4.472   3.598   0.061 -1.2962 -0.2387  0.3929
 2047TIP3    H227701   4.443   3.462   0.003 -0.0617 -0.6019  0.5970
 2048TIP3   OH227702   1.294   3.332   7.808  0.0568  0.6509 -0.0513
 2048TIP3    H127703   1.207   3.363   7.785 -0.5694 -0.1820  1.0359
 2048TIP3    H227704   1.346   3.340   7.728 -1.3631 -0.0026 -1.0644
 2049TIP3   OH227705   1.644   6.294   8.691  0.0600 -0.4368 -0.4642
 2049TIP3    H127706   1.691   6.217   8.659  0.9339 -0.2727  0.3944
 2049TIP3    H227707   1.649   6.357   8.619 -1.0476 -1.3103 -1.3518
 2050TIP3   OH227708   0.109   0.147   1.105 -0.1061  0.2004  0.5392
 2050TIP3    H127709   0.022   0.156   1.066 -1.0777 -0.7599  2.3531
 2050TIP3    H227710   0.111   0.212   1.175  0.5887  0.1168  0.6093
 2051TIP3   OH227711   2.767   4.641   0.214 -0.2087 -0.2314  0.2020
 2051TIP3    H127712   2.698   4.611   0.154  0.5381 -0.1805 -0.7048
 2051TIP3    H227713   2.845   4.648   0.159  0.4031  0.2112  1.1059
 2052TIP3   OH227714   3.871   4.443   0.055 -0.3087 -0.3374 -0.2304
 2052TIP3    H127715   3.892   4.536   0.065  0.0229 -0.5041  0.6886
 2052TIP3    H227716   3.803   4.427   0.121 -0.9511 -0.5660 -0.9382
 2053TIP3   OH227717   2.618   6.446   0.259 -0.1859 -0.7317  0.3365
 2053TIP3    H127718   2.682   6.462   0.329 -1.0084 -1.4880  1.2798
 2053TIP3    H227719   2.580   6.532   0.242 -1.5372 -0.8437  2.3913
 2054TIP3   OH227720   0.107   5.301   0.705 -0.4836 -0.3990 -0.2396
 2054TIP3    H127721   0.128   5.244   0.631 -1.6113 -0.3423 -0.6253
 2054TIP3    H227722   0.108   5.244   0.781 -2.2974 -1.1277 -0.7095
 2055TIP3   OH227723   2.432   2.334   2.139  0.1030 -0.2614  0.0610
 2055TIP3    H127724   2.373   2.283   2.195 -0.8229  0.6304 -0.0639
 2055TIP3    H227725   2.508   2.278   2.127 -0.6637 -1.3996  0.3361
 2056TIP3   OH227726   1.039   4.452   7.361  0.9159  0.1060  0.2159
 2056TIP3    H127727   1.015   4.493   7.278  2.8379 -2.7031 -1.9432
 2056TIP3    H227728   1.117   4.499   7.389  0.5832  0.7108  0.1368
 2057TIP3   OH227729   5.297   2.471   3.012 -0.0501 -0.0171 -1.1659
 2057TIP3    H127730   5.268   2.548   2.964  0.7295  1.5968  0.7718
 2057TIP3    H227731   5.225   2.452   3.072 -0.2123 -0.7714 -1.5930
 2058TIP3   OH227732   5.865   1.013   0.994 -0.1462  0.0533  0.3422
 2058TIP3    H127733   5.932   1.035   0.929 -0.1359 -0.3181  0.2235
 2058TIP3    H227734   5.839   1.097   1.031  1.0432  0.1322  1.0444
 2059TIP3   OH227735   2.222   4.684   2.121 -0.0943  0.1746  0.0026
 2059TIP3    H127736   2.135   4.691   2.082  0.8463  2.1960 -1.9998
 2059TIP3    H227737   2.206   4.659   2.212 -2.6533 -0.8616 -0.6458
 2060TIP3   OH227738   1.468   4.522   8.070 -0.1669 -0.1062  0.4191
 2060TIP3    H127739   1.531   4.450   8.065 -0.9098 -0.7509  0.1411
 2060TIP3    H227740   1.430   4.515   8.157 -1.9240 -1.5351 -0.3957
 2061TIP3   OH227741   5.148   6.277   0.998  0.3612 -0.2471 -0.1891
 2061TIP3    H127742   5.080   6.278   1.065  0.0334 -0.0072 -0.5198
 2061TIP3    H227743   5.222   6.324   1.037  1.5998 -3.2720  1.4381
 2062TIP3   OH227744   3.332   0.882   0.852  0.3914 -0.1202 -0.0112
 2062TIP3    H127745   3.252   0.899   0.801  1.4095  2.8186 -0.8081
 2062TIP3    H227746   3.387   0.831   0.793 -0.0737 -0.3704 -0.2374
 2063TIP3   OH227747   3.965   2.952   8.033  0.0587  0.2597  0.7624
 2063TIP3    H127748   4.050   2.987   8.060  0.8722 -0.0101 -1.3259
 2063TIP3    H227749   3.983   2.902   7.954 -1.4145 -3.2379  2.4214
 2064TIP3   OH227750   1.865   3.206   0.438 -0.0104  0.3427  0.7451
 2064TIP3    H127751   1.857   3.247   0.352 -1.2141 -1.7082 -0.2105
 2064TIP3    H227752   1.943   3.151   0.431 -0.3811 -0.1988  0.7671
 2065TIP3   OH227753   1.054   6.202   7.881 -0.3581 -0.8599  0.0107
 2065TIP3    H127754   1.097   6.241   7.805 -0.8506  1.4785  0.8443
 2065TIP3    H227755   0.961   6.218   7.868 -0.4088  0.0587  1.3283
 2066TIP3   OH227756   1.773   2.898   7.827  0.3523  0.3481 -0.0261
 2066TIP3    H127757   1.800   2.884   7.918  0.2398  1.6105  0.2256
 2066TIP3    H227758   1.771   2.993   7.817 -1.0138  0.2588 -0.9268
 2067TIP3   OH227759   2.179   3.718   2.731  0.0543 -0.1077  0.3060
 2067TIP3    H127760   2.103   3.775   2.723  1.0152  1.4961  1.7341
 2067TIP3    H227761   2.198   3.717   2.825  2.0749 -0.0546 -0.0613
 2068TIP3   OH227762   2.375   6.675   1.960  0.8669 -0.3016 -0.2850
 2068TIP3    H127763   2.389   6.586   1.991  0.6609 -0.0769  0.4762
 2068TIP3    H227764   2.376   6.668   1.865  2.0432 -0.9222 -0.2372
 2069TIP3   OH227765   3.156   0.873   2.512  0.0563  0.0926 -0.2342
 2069TIP3    H127766   3.072   0.830   2.532  0.3623 -0.3862  0.0438
 2069TIP3    H227767   3.162   0.944   2.577 -0.1407  0.1401 -0.2668
 2070TIP3   OH227768   5.465   4.389   1.624  0.1816 -0.7891  0.5011
 2070TIP3    H127769   5.476   4.418   1.715  0.1312 -2.5649  1.1029
 2070TIP3    H227770   5.484   4.296   1.625  0.0765 -0.8780 -1.3115
 2071TIP3   OH227771   6.284   3.981   7.372  0.0648 -0.1799  0.9171
 2071TIP3    H127772   6.270   3.982   7.467 -1.9020  1.8934  0.6740
 2071TIP3    H227773   6.197   3.965   7.335  0.6749 -0.2638 -0.5644
 2072TIP3   OH227774   1.850   0.917   2.651  0.4860 -0.0708  0.2021
 2072TIP3    H127775   1.849   1.010   2.627  3.3578 -0.1263 -0.5004
 2072TIP3    H227776   1.842   0.871   2.568 -0.8975 -0.4994  0.5461
 2073TIP3   OH227777   6.395   2.770   0.855 -0.1917  0.0811 -0.0274
 2073TIP3    H127778   6.444   2.692   0.829 -0.4637  0.5578 -2.1011
 2073TIP3    H227779   6.432   2.793   0.940  0.3599 -1.8984  0.3214
 2074TIP3   OH227780   1.961   2.179   7.560  0.4126 -0.3806 -0.6855
 2074TIP3    H127781   1.936   2.094   7.524  0.6129 -0.4121 -0.7541
 2074TIP3    H227782   1.935   2.243   7.494 -1.4380 -0.2069  0.1569
 2075TIP3   OH227783   2.863   3.825   2.186 -0.4365 -0.6597  0.3265
 2075TIP3    H127784   2.932   3.826   2.252  0.6500  1.4999 -0.7664
 2075TIP3    H227785   2.812   3.746   2.207  1.3169 -1.3916  2.1946
 2076TIP3   OH227786   4.598   5.855   2.591 -0.2331 -0.2881 -0.0171
 2076TIP3    H127787   4.628   5.940   2.624 -0.1145 -0.6874  0.9381
 2076TIP3    H227788   4.675   5.798   2.598  0.1330 -0.1238 -2.0619
 2077TIP3   OH227789   4.084   5.460   2.200 -0.2867 -0.0827 -0.2792
 2077TIP3    H127790   4.100   5.370   2.228 -0.9706 -0.1509 -0.0903
 2077TIP3    H227791   4.167   5.488   2.160 -0.3811 -1.1517 -1.2819
 2078TIP3   OH227792   0.291   2.897   1.400  0.5595 -0.1930  0.1607
 2078TIP3    H127793   0.355   2.875   1.468  1.5604 -0.4584 -0.8414
 2078TIP3    H227794   0.250   2.814   1.378  1.6790 -0.4825 -0.9647
 2079TIP3   OH227795   5.184   4.622   0.091 -0.0013 -0.0707 -0.0582
 2079TIP3    H127796   5.219   4.688   0.031  1.0313 -0.1902  0.3828
 2079TIP3    H227797   5.094   4.648   0.106 -0.7484 -0.8197 -2.7341
 2080TIP3   OH227798   3.251   4.999   1.073 -0.4565  0.4117 -0.0719
 2080TIP3    H127799   3.278   5.021   1.162 -0.9197 -0.5538  0.3287
 2080TIP3    H227800   3.155   5.007   1.074 -0.7325 -2.0235  0.2777
 2081TIP3   OH227801   6.251   4.164   2.206  0.1052  0.6852  0.0008
 2081TIP3    H127802   6.336   4.158   2.163  0.9183  0.5119  1.5828
 2081TIP3    H227803   6.260   4.234   2.269 -0.1986 -0.7379  1.7008
 2082TIP3   OH227804   6.474   4.303   0.877 -0.3529  0.1141  0.2578
 2082TIP3    H127805   6.434   4.269   0.957 -0.3150 -1.8279 -0.4753
 2082TIP3    H227806   6.556   4.254   0.868 -0.0139  0.8135 -0.5879
 2083TIP3   OH227807   0.691   5.834   7.801  0.4291  0.2084 -0.6071
 2083TIP3    H127808   0.693   5.922   7.839 -1.0289  0.4149 -0.9435
 2083TIP3    H227809   0.722   5.847   7.711 -1.3259  0.7048 -1.1829
 2084TIP3   OH227810   6.243   0.342   8.209 -0.0199 -0.2298 -0.5394
 2084TIP3    H127811   6.295   0.414   8.173 -0.2076  1.2241  1.8506
 2084TIP3    H227812   6.152   0.367   8.191 -0.0481 -0.3860 -0.6089
 2085TIP3   OH227813   1.731   3.912   1.202 -0.4694  0.6192 -0.5431
 2085TIP3    H127814   1.723   3.947   1.113 -0.4274  2.4434  0.1146
 2085TIP3    H227815   1.641   3.895   1.229 -0.4946  0.2297 -0.8681
 2086TIP3   OH227816   5.995   0.500   1.985  0.3352 -0.0523 -0.0353
 2086TIP3    H127817   6.019   0.507   2.077  0.2612 -0.2452 -0.0014
 2086TIP3    H227818   5.922   0.438   1.983  0.9674 -0.8063 -0.3246
 2087TIP3   OH227819   0.429   0.923   8.483  0.0881  0.1915 -0.0300
 2087TIP3    H127820   0.460   1.014   8.481  0.3888  0.0765 -0.8560
 2087TIP3    H227821   0.354   0.925   8.544  1.6609  0.4596  2.0011
 2088TIP3   OH227822   6.279   2.519   1.849  0.4550 -0.8811 -0.0510
 2088TIP3    H127823   6.340   2.546   1.918 -0.0365 -2.0645  0.8870
 2088TIP3    H227824   6.326   2.450   1.802  0.0237 -1.5394  0.4460
 2089TIP3   OH227825   6.436   4.390   7.421  0.1441 -0.1441  0.6351
 2089TIP3    H127826   6.398   4.310   7.384  0.8943  0.2138 -1.0142
 2089TIP3    H227827   6.520   4.399   7.376  1.0892  0.4032  2.4145
 2090TIP3   OH227828   3.496   6.836   1.704 -0.6004 -0.6595  0.4176
 2090TIP3    H127829   3.461   6.795   1.625 -1.4289 -2.0380  1.4521
 2090TIP3    H227830   3.423   6.835   1.766  0.0012  0.4769  1.1770
 2091TIP3   OH227831   0.052   1.780   7.561  0.1143  0.6512  0.2965
 2091TIP3    H127832   0.113   1.750   7.493 -0.2833  2.5046 -0.9521
 2091TIP3    H227833  -0.002   1.704   7.580  0.4515 -0.0122 -1.2555
 2092TIP3   OH227834   4.518   3.767   2.554 -0.4211  0.2266  0.9140
 2092TIP3    H127835   4.521   3.862   2.545  1.0019  0.2284  1.1386
 2092TIP3    H227836   4.589   3.747   2.616 -0.5915 -0.9871  0.7391
 2093TIP3   OH227837   5.692   4.870   8.087 -0.9026  0.2105  0.8564
 2093TIP3    H127838   5.731   4.957   8.087  1.9578 -0.8929 -1.4421
 2093TIP3    H227839   5.767   4.810   8.084 -2.7623 -2.2615  0.4033
 2094TIP3   OH227840   0.135   4.111   0.488 -0.3331  0.5016 -0.2116
 2094TIP3    H127841   0.161   4.180   0.427 -0.6679  0.3032 -0.5912
 2094TIP3    H227842   0.137   4.152   0.574  0.4907  0.6935 -0.3163
 2095TIP3   OH227843   4.156   4.479   1.526  0.3768 -0.2925  0.1735
 2095TIP3    H127844   4.151   4.506   1.434  0.6597 -2.5399 -0.5873
 2095TIP3    H227845   4.229   4.529   1.562 -0.4064  1.4188 -0.4868
 2096TIP3   OH227846   0.863   6.443   6.791  0.0141  0.3359 -0.5376
 2096TIP3    H127847   0.938   6.424   6.848 -0.3881  0.3649  0.0177
 2096TIP3    H227848   0.845   6.536   6.805 -1.2252 -0.0577  0.7171
 2097TIP3   OH227849   4.384   6.314   8.169  0.2223  0.1248  0.3085
 2097TIP3    H127850   4.303   6.344   8.127  0.9187  2.0831  0.2759
 2097TIP3    H227851   4.443   6.296   8.095 -0.2117 -1.5359  0.3224
 2098TIP3   OH227852   4.218   1.569   1.784 -0.5996 -0.2148  0.5068
 2098TIP3    H127853   4.225   1.481   1.822 -0.5189  0.1382  1.3150
 2098TIP3    H227854   4.290   1.618   1.824  2.2572 -0.9279 -3.1665
 2099TIP3   OH227855   4.926   6.183   8.068  0.0148 -0.8650 -0.0374
 2099TIP3    H127856   4.987   6.254   8.087 -0.5551 -0.6390  1.0704
 2099TIP3    H227857   4.973   6.104   8.095 -0.4161 -0.6298  1.5429
 2100TIP3   OH227858   4.844   0.433   8.651  0.1587 -0.3455  0.3942
 2100TIP3    H127859   4.752   0.444   8.677 -0.6782  1.2497 -2.7723
 2100TIP3    H227860   4.890   0.506   8.694 -0.9520  1.4935 -1.3391
 2101TIP3   OH227861   1.972   2.865   0.634  0.8970  0.4447  0.2584
 2101TIP3    H127862   1.967   2.798   0.565  1.1650  1.3927 -0.7004
 2101TIP3    H227863   1.894   2.850   0.687 -1.0430  1.6711 -2.0956
 2102TIP3   OH227864   4.209   5.111   7.643  0.5264 -0.9189  0.2283
 2102TIP3    H127865   4.231   5.145   7.729  0.1545 -2.8127  1.1066
 2102TIP3    H227866   4.261   5.032   7.634  3.3638  1.0124 -2.8446
 2103TIP3   OH227867   4.864   0.480   7.403  0.0198  0.3275  0.5777
 2103TIP3    H127868   4.858   0.575   7.406 -0.3225  0.3324 -0.0609
 2103TIP3    H227869   4.777   0.450   7.431  0.6250  0.1499  2.4421
 2104TIP3   OH227870   1.663   2.493   6.950  0.4101 -0.0348 -0.5511
 2104TIP3    H127871   1.574   2.528   6.957  0.7173  0.8572 -0.9484
 2104TIP3    H227872   1.720   2.570   6.955  1.1492 -0.5580 -0.6650
 2105TIP3   OH227873   1.206   5.752   8.190 -0.5419  0.5547  0.2038
 2105TIP3    H127874   1.218   5.826   8.129  1.2348  0.6223  0.5960
 2105TIP3    H227875   1.112   5.736   8.188 -0.6806  1.2674 -1.7272
 2106TIP3   OH227876   4.486   4.346   2.068  0.0427 -0.2387  0.2127
 2106TIP3    H127877   4.555   4.310   2.012  1.4283  1.7480  0.5454
 2106TIP3    H227878   4.447   4.269   2.109  0.9511 -1.5398 -1.2230
 2107TIP3   OH227879   1.496   4.814   8.323  0.0149 -0.1296 -0.0914
 2107TIP3    H127880   1.473   4.810   8.230  2.0387 -0.5519 -0.6214
 2107TIP3    H227881   1.449   4.741   8.362  0.4040 -0.9678 -1.1205
 2108TIP3   OH227882   3.979   1.533   8.556 -0.1599 -0.3770  1.0168
 2108TIP3    H127883   4.047   1.576   8.608 -1.7481  0.3580  2.6195
 2108TIP3    H227884   3.931   1.480   8.620 -1.7305 -0.0530  0.1570
 2109TIP3   OH227885   1.896   1.363   1.497  0.2397 -0.2786  0.7850
 2109TIP3    H127886   1.892   1.441   1.553 -1.5890  0.1994  0.0423
 2109TIP3    H227887   1.861   1.392   1.413  0.3125 -1.7150  0.2356
 2110TIP3   OH227888   0.438   6.836   2.102 -0.5405  0.4921 -0.0840
 2110TIP3    H127889   0.397   6.923   2.096 -0.9896  0.1833 -2.2512
 2110TIP3    H227890   0.471   6.831   2.191 -2.7567  1.8939  0.8992
 2111TIP3   OH227891   5.916   0.049   6.640  0.2207  0.0892 -0.5850
 2111TIP3    H127892   5.968  -0.026   6.612 -1.1031 -0.8142 -0.7378
 2111TIP3    H227893   5.863   0.071   6.563  1.6339  2.1667 -1.0465
 2112TIP3   OH227894   3.889   2.585   1.725 -0.6696 -0.3346  0.1124
 2112TIP3    H127895   3.869   2.542   1.808 -1.9458 -4.5105 -2.0624
 2112TIP3    H227896   3.894   2.678   1.747 -2.2558 -1.0431  4.5651
 2113TIP3   OH227897   5.141   2.913   2.783  0.7890 -0.4508  0.5553
 2113TIP3    H127898   5.098   2.932   2.700 -0.0779 -1.1844  0.8254
 2113TIP3    H227899   5.222   2.964   2.780 -0.2208  1.1942  0.1499
 2114TIP3   OH227900   2.261   3.723   0.670  0.5840  0.2348 -0.0527
 2114TIP3    H127901   2.279   3.808   0.630  1.9545  0.0210  0.0411
 2114TIP3    H227902   2.225   3.670   0.599  0.3289  0.7007 -0.2761
 2115TIP3   OH227903   6.464   2.251   2.662  0.1796 -0.0856  0.2954
 2115TIP3    H127904   6.420   2.195   2.726  2.1848 -0.7549  1.1692
 2115TIP3    H227905   6.436   2.216   2.577 -0.3272 -0.9920  0.8150
 2116TIP3   OH227906   4.971   1.629   7.404 -0.0802 -0.4832 -0.0743
 2116TIP3    H127907   4.889   1.591   7.373 -0.0747 -2.1679  1.7461
 2116TIP3    H227908   4.947   1.714   7.439 -0.3887  0.6341 -2.7268
 2117TIP3   OH227909   4.183   2.271   0.470 -0.0923 -0.0787 -0.0726
 2117TIP3    H127910   4.273   2.245   0.489  0.6039 -1.0424 -3.8160
 2117TIP3    H227911   4.135   2.188   0.465 -0.2355  0.0712 -1.8936
 2118TIP3   OH227912   2.224   0.665   8.576  0.7915 -0.0230  0.1869
 2118TIP3    H127913   2.282   0.636   8.646  1.0472  1.3575  0.5755
 2118TIP3    H227914   2.189   0.748   8.607  0.5554  0.3937 -1.1391
 2119TIP3   OH227915   0.912   6.415   0.600 -0.0434 -0.2930 -0.2021
 2119TIP3    H127916   0.866   6.388   0.679 -0.6949  1.2789 -0.0008
 2119TIP3    H227917   0.950   6.500   0.622 -1.0399  0.6345 -1.8379
 2120TIP3   OH227918   2.878   1.184   8.393  0.3207 -0.0111  0.4621
 2120TIP3    H127919   2.814   1.194   8.322 -0.8397  2.4556  1.7360
 2120TIP3    H227920   2.826   1.152   8.466 -0.2094  4.2169  2.2324
 2121TIP3   OH227921   4.642   6.594   0.654 -0.0760  0.0333 -0.4611
 2121TIP3    H127922   4.671   6.682   0.630 -0.3461  0.7930  1.7746
 2121TIP3    H227923   4.546   6.598   0.650 -0.0759 -0.5445 -1.4977
 2122TIP3   OH227924   1.181   5.035   1.947  0.0986  0.2701 -0.1805
 2122TIP3    H127925   1.265   5.009   1.983 -0.2719  0.8022  1.1173
 2122TIP3    H227926   1.147   5.099   2.009 -1.0533  0.4157 -0.9305
 2123TIP3   OH227927   5.975   4.737   2.808 -0.3700 -0.4629 -0.8477
 2123TIP3    H127928   5.982   4.642   2.821  1.0977 -0.1016  1.5224
 2123TIP3    H227929   6.057   4.762   2.767  1.1658  0.2225  2.3130
 2124TIP3   OH227930   0.144   2.158   7.019 -0.2598 -0.3003 -0.1265
 2124TIP3    H127931   0.130   2.223   7.088 -0.2114  0.6740 -1.0089
 2124TIP3    H227932   0.060   2.149   6.976 -0.0655 -0.1973 -0.5347
 2125TIP3   OH227933   0.761   4.618   2.215 -0.1984 -0.2959 -0.0996
 2125TIP3    H127934   0.753   4.593   2.307  0.4066  0.8550  0.2908
 2125TIP3    H227935   0.845   4.663   2.209 -0.9030  0.9891 -0.8751
 2126TIP3   OH227936   1.055   1.232   1.836  0.4162 -0.0469 -0.0552
 2126TIP3    H127937   1.127   1.281   1.797  0.4740 -0.4472 -0.4628
 2126TIP3    H227938   0.993   1.219   1.764 -0.6068  1.2756  0.5529
 2127TIP3   OH227939   6.471   6.215   1.817  0.6291 -0.6861 -0.2651
 2127TIP3    H127940   6.525   6.265   1.878 -1.3135  2.1517 -0.6433
 2127TIP3    H227941   6.413   6.164   1.873  1.1132 -0.7480  0.1903
 2128TIP3   OH227942   5.584   2.929   1.822 -0.2755  1.0364 -0.0478
 2128TIP3    H127943   5.513   2.900   1.766 -1.8396  2.2189  1.1975
 2128TIP3    H227944   5.593   3.022   1.802 -0.1159  1.2227  0.8414
 2129TIP3   OH227945   2.204   0.725   8.287 -0.6209  0.0937  0.4207
 2129TIP3    H127946   2.214   0.701   8.379  0.6686 -0.5196  0.1400
 2129TIP3    H227947   2.172   0.815   8.289 -0.5099  0.1204  1.4655
 2130TIP3   OH227948   4.060   2.551   0.082 -0.0748 -0.1814 -0.6312
 2130TIP3    H127949   4.075   2.484   0.149  1.9996  0.5489 -0.2863
 2130TIP3    H227950   4.103   2.516   0.003  1.9035  1.0698 -0.1892
 2131TIP3   OH227951   6.301   0.349   2.078 -0.0762 -0.2737 -0.3611
 2131TIP3    H127952   6.233   0.314   2.136 -0.5782  1.9851  0.5399
 2131TIP3    H227953   6.259   0.425   2.037  1.5440  0.5023 -0.6384
 2132TIP3   OH227954   3.671   1.265   7.519 -0.7237  0.8292 -0.2929
 2132TIP3    H127955   3.658   1.250   7.425  0.5673 -0.8313 -0.2610
 2132TIP3    H227956   3.587   1.244   7.559 -1.1725  1.1839 -1.0414
 2133TIP3   OH227957   4.633   1.780   0.704  0.1501 -0.6849 -0.1819
 2133TIP3    H127958   4.553   1.801   0.656 -0.5877  0.4510  1.4623
 2133TIP3    H227959   4.604   1.764   0.794  1.7997  0.3336  0.5902
 2134TIP3   OH227960   1.058   2.537   0.952  0.9000  0.3915  0.6589
 2134TIP3    H127961   1.026   2.585   0.875 -1.6158 -0.4269  1.1170
 2134TIP3    H227962   1.082   2.606   1.014 -1.5600  1.1484  0.8701
 2135TIP3   OH227963   6.540   4.620   0.838 -0.1631  0.2309  0.2985
 2135TIP3    H127964   6.531   4.565   0.916  0.2520  0.9153  0.8412
 2135TIP3    H227965   6.470   4.589   0.779 -0.0767 -0.7192  0.6688
 2136TIP3   OH227966   1.616   4.266   8.070  0.0216  0.3820  0.0792
 2136TIP3    H127967   1.536   4.228   8.105 -0.1283 -0.2268 -0.8703
 2136TIP3    H227968   1.653   4.197   8.014  0.5929  1.0656 -0.4150
 2137TIP3   OH227969   0.418   0.631   7.604 -0.2681 -0.2101 -0.2754
 2137TIP3    H127970   0.470   0.551   7.608 -0.9759 -0.8093 -1.9639
 2137TIP3    H227971   0.400   0.642   7.510 -0.2210  1.9072 -0.0852
 2138TIP3   OH227972   4.888   4.672   7.881 -0.3788  0.0388 -0.9093
 2138TIP3    H127973   4.929   4.749   7.841 -0.9536 -0.1343 -1.8595
 2138TIP3    H227974   4.809   4.707   7.922 -0.8102 -0.0900 -1.6221
 2139TIP3   OH227975   1.361   1.202   3.247  0.0549  0.2660 -0.0392
 2139TIP3    H127976   1.420   1.271   3.218  0.7064 -0.3154 -0.1314
 2139TIP3    H227977   1.298   1.246   3.304  0.1346  1.0236 -0.5218
 2140TIP3   OH227978   1.176   6.846   7.310 -0.2934 -0.1183  0.4081
 2140TIP3    H127979   1.118   6.769   7.310  1.1343 -1.2375  0.0166
 2140TIP3    H227980   1.211   6.850   7.221 -1.1211  1.6331  0.1265
 2141TIP3   OH227981   5.123   0.082   2.481 -0.0316 -0.3061  0.4419
 2141TIP3    H127982   5.148   0.174   2.472  1.0394 -0.6314 -0.1288
 2141TIP3    H227983   5.031   0.085   2.508 -1.0731  0.9290 -2.7130
 2142TIP3   OH227984   0.209   4.153   0.020  0.4189 -0.3605  0.3252
 2142TIP3    H127985   0.236   4.103   0.096 -3.8966  0.5055  2.7606
 2142TIP3    H227986   0.246   4.240   0.033  1.6671 -0.8276  0.0651
 2143TIP3   OH227987   2.559   5.010   7.338  0.3296  0.0459  0.3778
 2143TIP3    H127988   2.544   5.061   7.259  1.0576  2.4475  1.7020
 2143TIP3    H227989   2.649   5.032   7.364  1.3047 -3.1574  0.2237
 2144TIP3   OH227990   3.800   5.257   1.976 -0.6544  1.2410  0.1296
 2144TIP3    H127991   3.805   5.214   1.891 -2.4920  0.9028  0.1451
 2144TIP3    H227992   3.845   5.198   2.036 -2.8182 -0.5777  0.0885
 2145TIP3   OH227993   4.446   2.174   8.177  0.3817 -0.3921 -0.3153
 2145TIP3    H127994   4.455   2.233   8.101 -1.1151  0.8281  0.4042
 2145TIP3    H227995   4.534   2.168   8.213  0.9157 -0.1231 -1.5221
 2146TIP3   OH227996   1.447   1.109   8.652 -0.0524  0.2659  0.0527
 2146TIP3    H127997   1.504   1.044   8.693  0.5941  0.7107 -0.1396
 2146TIP3    H227998   1.368   1.060   8.629  0.8537 -0.7281 -1.0938
 2147TIP3   OH227999   3.215   6.240   7.926  0.2221  0.0263  0.4695
 2147TIP3    H128000   3.132   6.195   7.942 -0.6223  0.8930 -1.1396
 2147TIP3    H228001   3.207   6.323   7.973  1.0321 -0.6882  1.9406
 2148TIP3   OH228002   4.428   6.466   0.885 -0.7185 -0.1012 -0.5733
 2148TIP3    H128003   4.514   6.458   0.842  0.4044 -1.5932  1.7685
 2148TIP3    H228004   4.392   6.547   0.849  0.7888 -0.4236 -3.0832
 2149TIP3   OH228005   1.470   0.553   7.695 -0.3549  0.5698 -0.1504
 2149TIP3    H128006   1.552   0.577   7.739  0.1403 -0.0550 -0.6980
 2149TIP3    H228007   1.429   0.491   7.755 -1.2546  2.1029  0.8968
 2150TIP3   OH228008   3.919   2.849   1.836 -0.0243  0.3180  0.3601
 2150TIP3    H128009   3.920   2.923   1.775  2.5358 -0.1902 -0.3699
 2150TIP3    H228010   3.920   2.889   1.923  0.9943  1.1759 -0.0189
 2151TIP3   OH228011   5.172   3.770   2.763  0.6807 -0.6795 -0.6268
 2151TIP3    H128012   5.257   3.735   2.789  0.1668 -1.6168 -0.1332
 2151TIP3    H228013   5.113   3.695   2.768 -0.3798  0.1645  0.0360
 2152TIP3   OH228014   2.651   3.445   8.220 -0.3016 -0.2817 -0.0424
 2152TIP3    H128015   2.680   3.356   8.200 -1.9370 -0.9189  0.3099
 2152TIP3    H228016   2.597   3.470   8.145 -1.5936 -0.4152  0.8230
 2153TIP3   OH228017   4.696   1.120   1.668  0.5104 -0.3077  0.6043
 2153TIP3    H128018   4.675   1.049   1.608  0.5351  1.2169 -1.3083
 2153TIP3    H228019   4.613   1.165   1.683  0.0047 -1.9882  3.6826
 2154TIP3   OH228020   3.329   4.983   8.336 -0.2369  0.0392  0.2078
 2154TIP3    H128021   3.250   4.977   8.390  0.1030  2.8823  1.1603
 2154TIP3    H228022   3.383   4.909   8.363 -1.3218 -0.2603  1.6722
 2155TIP3   OH228023   3.227   3.617   0.060  0.2335  0.3102 -0.3868
 2155TIP3    H128024   3.210   3.667   0.140 -1.0422  1.8738 -1.5818
 2155TIP3    H228025   3.214   3.679  -0.011  1.4473 -1.0218 -1.8397
 2156TIP3   OH228026   6.488   6.575   7.152 -0.0648  0.2385 -0.2487
 2156TIP3    H128027   6.521   6.499   7.200 -0.6655 -0.6476 -1.1962
 2156TIP3    H228028   6.565   6.612   7.110  0.1796 -0.0407 -0.0498
 2157TIP3   OH228029   5.670   6.461   7.533  0.0696 -0.6775 -0.6377
 2157TIP3    H128030   5.680   6.544   7.485 -0.3401 -0.6652 -0.7088
 2157TIP3    H228031   5.600   6.415   7.485 -0.8102 -0.3830  0.3315
 2158TIP3   OH228032   4.014   2.586   0.940 -0.1295  0.5308 -0.1277
 2158TIP3    H128033   3.987   2.663   0.890  0.1959  1.0913  0.5517
 2158TIP3    H228034   3.936   2.559   0.987 -0.2946  0.3218 -0.5129
 2159TIP3   OH228035   5.336   6.560   3.174 -0.8501 -0.0833  0.1443
 2159TIP3    H128036   5.333   6.633   3.112 -0.6350  0.3934  0.6877
 2159TIP3    H228037   5.279   6.494   3.136 -1.0870  0.3878 -0.3332
 2160TIP3   OH228038   4.741   3.980   8.287  0.2094  0.3800 -0.4008
 2160TIP3    H128039   4.765   3.931   8.208 -1.0482  0.2259 -0.7115
 2160TIP3    H228040   4.700   4.060   8.253 -0.9571 -0.0012  0.0844
 2161TIP3   OH228041   4.567   1.442   1.006 -0.2627 -0.0475 -0.1561
 2161TIP3    H128042   4.627   1.437   1.080 -0.4712  1.0556  0.1081
 2161TIP3    H228043   4.506   1.370   1.020  0.5615 -0.7459 -0.0485
 2162TIP3   OH228044   4.063   6.640   7.942 -0.1867 -0.6112 -0.9808
 2162TIP3    H128045   3.983   6.680   7.973 -0.7288 -1.3827 -1.3552
 2162TIP3    H228046   4.099   6.704   7.880  1.2463  1.2458  1.5743
 2163TIP3   OH228047   5.531   4.557   8.216 -0.9204 -0.3366 -0.1962
 2163TIP3    H128048   5.499   4.578   8.303 -4.0808 -2.3297 -0.6744
 2163TIP3    H228049   5.527   4.640   8.168 -2.1380  0.2194  0.7962
 2164TIP3   OH228050   5.912   0.461   2.560  0.5351  0.0376 -0.2442
 2164TIP3    H128051   5.888   0.539   2.610  1.0853 -0.9099  1.5573
 2164TIP3    H228052   5.996   0.433   2.597  1.5609 -0.1049 -2.4498
 2165TIP3   OH228053   5.729   0.051   8.439  0.2485  0.7147  0.0160
 2165TIP3    H128054   5.775  -0.006   8.500  1.2049  1.0223 -0.3792
 2165TIP3    H228055   5.772   0.034   8.354  0.2693  1.6924 -0.1826
 2166TIP3   OH228056   2.302   4.855   0.712 -0.2770  0.0924  0.2334
 2166TIP3    H128057   2.325   4.792   0.781 -1.5959  1.0889  1.6298
 2166TIP3    H228058   2.377   4.915   0.708  1.2633 -1.7519 -1.4996
 2167TIP3   OH228059   6.266   6.700   7.122 -0.0955  0.2620 -0.2286
 2167TIP3    H128060   6.352   6.660   7.132 -0.7703 -0.8729  1.5734
 2167TIP3    H228061   6.261   6.764   7.194 -0.5171  0.7708 -0.7051
 2168TIP3   OH228062   0.548   2.394   8.552 -0.0389  0.6280 -0.0867
 2168TIP3    H128063   0.557   2.330   8.482 -1.6167 -0.3116  0.5310
 2168TIP3    H228064   0.621   2.374   8.611  0.9164  1.0123 -1.1025
 2169TIP3   OH228065   1.939   6.305   8.365  0.4996  0.2399 -0.3451
 2169TIP3    H128066   1.976   6.301   8.277  1.6436 -0.3830  0.1554
 2169TIP3    H228067   2.014   6.312   8.423 -0.2554  1.0372  0.5815
 2170TIP3   OH228068   5.765   5.901   7.940 -0.1810  0.1994 -0.4618
 2170TIP3    H128069   5.677   5.935   7.921 -0.8937 -1.5514 -0.5117
 2170TIP3    H228070   5.823   5.976   7.928 -1.3264  0.7713 -3.2457
 2171TIP3   OH228071   0.743   4.416   1.560  0.1120  0.1556 -0.4737
 2171TIP3    H128072   0.681   4.478   1.599  0.5896  0.8778 -0.8355
 2171TIP3    H228073   0.758   4.351   1.629  0.6536  1.1979  0.4336
 2172TIP3   OH228074   6.754   3.611   7.538  0.0617 -0.2545 -0.9343
 2172TIP3    H128075   6.732   3.533   7.588  1.4245  0.2691  0.5676
 2172TIP3    H228076   6.728   3.684   7.594  0.6504  0.3542 -1.4355
 2173TIP3   OH228077   2.140   2.444   0.266  0.2851  0.2711  0.2228
 2173TIP3    H128078   2.229   2.411   0.272  1.3051  3.0116  2.3899
 2173TIP3    H228079   2.099   2.417   0.348 -0.7493 -0.5257 -0.5293
 2174TIP3   OH228080   1.406   2.975   0.608  0.0755 -0.1263 -0.4966
 2174TIP3    H128081   1.486   2.995   0.558 -0.1496  3.8757  0.3522
 2174TIP3    H228082   1.335   3.002   0.550 -0.6381 -2.2366 -0.6567
 2175TIP3   OH228083   0.381   3.207   8.064  0.0461  0.2830 -0.1218
 2175TIP3    H128084   0.293   3.182   8.092  0.6825 -0.8644  0.9582
 2175TIP3    H228085   0.428   3.224   8.145  1.1873 -0.3985 -0.6196
 2176TIP3   OH228086   3.867   5.177   8.531  0.0051 -0.0627 -0.4490
 2176TIP3    H128087   3.889   5.225   8.451  0.8045  0.5678  0.1387
 2176TIP3    H228088   3.801   5.232   8.574  0.8248  0.4565  0.1602
 2177TIP3   OH228089   3.826   4.723   0.020  0.7541 -0.4991 -1.0080
 2177TIP3    H128090   3.922   4.729   0.016  0.7779  0.8496  0.5148
 2177TIP3    H228091   3.796   4.794  -0.035  0.7096  0.7086  0.5018
 2178TIP3   OH228092   3.412   4.884   2.149 -0.1680 -0.4854  0.2239
 2178TIP3    H128093   3.487   4.887   2.090 -1.1936  1.0750 -1.0879
 2178TIP3    H228094   3.413   4.795   2.185  1.4798 -0.9295 -0.8163
 2179TIP3   OH228095   4.780   5.797   7.701 -0.4785  0.0785  0.0707
 2179TIP3    H128096   4.759   5.749   7.621 -0.2967 -0.1962  0.1872
 2179TIP3    H228097   4.706   5.857   7.713 -0.3267  0.3845 -0.5082
 2180TIP3   OH228098   5.486   5.170   2.020 -0.3827  0.4722  0.2220
 2180TIP3    H128099   5.456   5.169   1.929  1.7803  1.1888 -0.5555
 2180TIP3    H228100   5.570   5.216   2.017 -0.1117  0.2409  2.5503
 2181TIP3   OH228101   1.877   4.860   8.379 -0.1382 -0.1813  0.3587
 2181TIP3    H128102   1.942   4.817   8.434  0.7298 -0.2660 -0.7114
 2181TIP3    H228103   1.874   4.808   8.299  0.2657  1.1750 -0.5849
 2182TIP3   OH228104   5.124   5.112   0.297  0.4049 -0.1189  0.1872
 2182TIP3    H128105   5.080   5.036   0.261  0.9580 -0.5155  0.3291
 2182TIP3    H228106   5.054   5.165   0.335 -0.1109 -0.0241 -0.8463
 2183TIP3   OH228107   5.967   3.269   6.568  0.5205  0.0387 -0.0724
 2183TIP3    H128108   6.036   3.330   6.542  0.7696 -0.0697  0.3281
 2183TIP3    H228109   5.904   3.272   6.495  1.3547 -0.4911 -0.8392
 2184TIP3   OH228110   0.752   4.526   1.046 -0.5593  0.6097  0.4085
 2184TIP3    H128111   0.718   4.439   1.065  1.0901 -0.3421 -0.7813
 2184TIP3    H228112   0.683   4.569   0.996 -0.8990 -0.4934 -0.0973
 2185TIP3   OH228113   1.894   6.694   0.788 -0.2181  0.6821 -0.2396
 2185TIP3    H128114   1.938   6.733   0.864  0.3345  0.6492 -0.5424
 2185TIP3    H228115   1.922   6.747   0.714 -0.8756  0.8041 -0.4111
 2186TIP3   OH228116   4.924   5.175   2.503 -0.5119  0.6402 -0.2881
 2186TIP3    H128117   4.877   5.223   2.434 -0.9358  0.0935 -0.3877
 2186TIP3    H228118   4.856   5.155   2.568 -0.2903  0.3895 -0.1327
 2187TIP3   OH228119   3.380   6.444   1.897 -0.4034  0.0767  0.7128
 2187TIP3    H128120   3.456   6.385   1.903 -2.0408 -2.1882  0.3219
 2187TIP3    H228121   3.404   6.518   1.953  1.5020 -1.2257  1.7587
 2188TIP3   OH228122   3.344   1.548   1.197  0.2424  0.0702 -0.2123
 2188TIP3    H128123   3.336   1.552   1.293 -2.8973 -2.0174 -0.2289
 2188TIP3    H228124   3.373   1.459   1.180 -0.3180  0.0638 -1.2057
 2189TIP3   OH228125   3.317   0.716   0.258 -0.4501  0.3303  0.4949
 2189TIP3    H128126   3.250   0.672   0.206 -0.3989  0.9978 -0.1536
 2189TIP3    H228127   3.327   0.662   0.336 -2.7432  0.9293  1.2811
 2190TIP3   OH228128   1.864   2.525   1.713  0.2181  0.2922 -0.0512
 2190TIP3    H128129   1.870   2.453   1.775  0.5037  0.2265 -0.1525
 2190TIP3    H228130   1.817   2.594   1.760  0.3718  0.2179  0.2122
 2191TIP3   OH228131   2.757   3.226   8.068 -0.3238 -0.7695 -0.0690
 2191TIP3    H128132   2.823   3.252   8.003 -0.5763 -0.6974 -0.3003
 2191TIP3    H228133   2.727   3.140   8.037 -0.0338 -0.9967  0.2730
 2192TIP3   OH228134   1.297   5.436   8.509 -0.2494 -0.4308  0.2937
 2192TIP3    H128135   1.218   5.387   8.489 -0.4822  0.1710 -0.2922
 2192TIP3    H228136   1.321   5.479   8.427  1.0563 -1.1076  0.2823
 2193TIP3   OH228137   6.241   3.549   1.339 -0.5247  0.3217 -0.2322
 2193TIP3    H128138   6.293   3.473   1.312 -1.1640 -0.6212  1.0438
 2193TIP3    H228139   6.199   3.579   1.259 -0.2169 -0.6586 -0.7816
 2194TIP3   OH228140   2.298   4.350   3.031  0.3123 -0.1818  0.3123
 2194TIP3    H128141   2.256   4.436   3.039 -0.1835 -0.5052  1.3952
 2194TIP3    H228142   2.383   4.369   2.992  0.3485  0.8518  0.8451
 2195TIP3   OH228143   3.890   4.261   7.522  0.0941 -0.1462 -0.1150
 2195TIP3    H128144   3.894   4.220   7.435  0.2077 -1.8767  0.6578
 2195TIP3    H228145   3.979   4.253   7.556 -0.5634 -2.3364  1.3424
 2196TIP3   OH228146   1.571   1.002   3.192  0.2399 -0.6075 -0.2928
 2196TIP3    H128147   1.640   0.980   3.255  0.4066  0.7322  0.0202
 2196TIP3    H228148   1.533   1.083   3.225 -1.0979 -1.0082 -0.7915
 2197TIP3   OH228149   4.964   0.613   7.946  0.5356 -0.0788 -0.3040
 2197TIP3    H128150   4.916   0.535   7.972 -0.9054  0.7445 -0.3814
 2197TIP3    H228151   5.043   0.580   7.903  1.6657 -1.4724  2.5731
 2198TIP3   OH228152   2.868   4.341   1.321 -0.3456  0.4346 -0.2567
 2198TIP3    H128153   2.836   4.432   1.318 -0.8135  0.2925  0.2573
 2198TIP3    H228154   2.900   4.324   1.233  0.2514  1.2817 -0.2150
 2199TIP3   OH228155   2.914   3.454   7.398 -0.4356 -0.0899 -0.1443
 2199TIP3    H128156   2.908   3.388   7.330 -1.2482 -0.1800  0.0095
 2199TIP3    H228157   2.843   3.516   7.379  2.2050  2.6093 -2.2042
 2200TIP3   OH228158   3.882   5.019   2.431  0.4918  0.7148 -0.4622
 2200TIP3    H128159   3.857   5.028   2.523  2.0731  0.7260 -0.0028
 2200TIP3    H228160   3.868   4.927   2.411 -2.3130  1.1584 -1.0222
 2201TIP3   OH228161   3.880   6.471   2.383  0.0274 -0.1451  0.4752
 2201TIP3    H128162   3.786   6.455   2.382  0.1816 -1.1036  0.2771
 2201TIP3    H228163   3.918   6.390   2.416  1.0453 -1.3718 -3.2789
 2202TIP3   OH228164   2.919   6.607   1.119  0.2118  0.4701  0.1756
 2202TIP3    H128165   2.939   6.568   1.034  1.0300 -0.5327  0.7987
 2202TIP3    H228166   2.964   6.551   1.182 -1.6415  0.2603  1.4027
 2203TIP3   OH228167   6.066   0.686   0.004  0.0339  0.0380  0.7492
 2203TIP3    H128168   6.017   0.606  -0.012  2.9209 -2.0430  1.5271
 2203TIP3    H228169   6.115   0.701  -0.076 -1.8733  2.2365 -0.1178
 2204TIP3   OH228170   1.645   2.605   8.084 -0.7371  0.4249 -0.1538
 2204TIP3    H128171   1.673   2.683   8.133  0.9710 -0.7549  0.8803
 2204TIP3    H228172   1.672   2.532   8.140  1.1138 -0.9910 -2.7105
 2205TIP3   OH228173   0.205   2.401   0.229 -0.2402  0.3665  0.0138
 2205TIP3    H128174   0.201   2.497   0.232 -1.5475  0.3485 -0.6452
 2205TIP3    H228175   0.226   2.381   0.138  0.9907  0.0299  0.3524
 2206TIP3   OH228176   0.688   2.310   1.724  0.1116  0.2952  0.3925
 2206TIP3    H128177   0.609   2.302   1.671 -0.5992  2.5985  0.9716
 2206TIP3    H228178   0.753   2.348   1.665  0.5076 -0.6875  0.1804
 2207TIP3   OH228179   0.922   1.026   1.991  0.0522 -0.0430 -0.7749
 2207TIP3    H128180   0.954   1.083   1.921 -0.6060  1.4794  0.1264
 2207TIP3    H228181   0.830   1.013   1.971  0.4589 -1.9770 -1.7125
 2208TIP3   OH228182   0.672   6.837   7.479 -0.3344 -0.5524  0.9543
 2208TIP3    H128183   0.660   6.750   7.442 -0.7752 -0.4743  0.9105
 2208TIP3    H228184   0.627   6.835   7.563  1.1159 -0.8964  1.7648
 2209TIP3   OH228185   2.544   6.526   1.748  0.0697  0.2905  0.5145
 2209TIP3    H128186   2.485   6.451   1.749 -2.0113  1.8682  0.9432
 2209TIP3    H228187   2.623   6.494   1.793 -0.2691 -1.9576 -0.3350
 2210TIP3   OH228188   3.957   5.839   0.294 -0.2071 -0.3218 -0.0862
 2210TIP3    H128189   3.887   5.873   0.351  0.8169 -0.7227  1.4829
 2210TIP3    H228190   4.034   5.836   0.351  1.1842  0.3749 -1.8555
 2211TIP3   OH228191   5.320   2.957   2.297  0.5545 -0.0543 -0.0001
 2211TIP3    H128192   5.266   3.035   2.290  1.0499  0.3080  0.1271
 2211TIP3    H228193   5.342   2.934   2.207  0.0936 -0.2729 -0.0573
 2212TIP3   OH228194   4.425   2.455   2.306 -0.3012  0.2727  0.3849
 2212TIP3    H128195   4.403   2.548   2.315 -1.2117  0.1137 -0.0914
 2212TIP3    H228196   4.437   2.443   2.211  1.5746  0.2775  0.5784
 2213TIP3   OH228197   5.752   4.807   2.636  0.0981 -0.6924  0.1506
 2213TIP3    H128198   5.818   4.769   2.694  0.6889 -1.8516 -1.2349
 2213TIP3    H228199   5.766   4.902   2.644  1.1465 -0.8809  0.7567
 2214TIP3   OH228200   3.484   4.520   1.697 -0.3482 -0.4215 -0.2245
 2214TIP3    H128201   3.527   4.600   1.665 -0.6840 -0.3719 -0.5656
 2214TIP3    H228202   3.550   4.477   1.751  0.3816 -0.7145 -1.3206
 2215TIP3   OH228203   2.317   1.823   0.487 -0.3687  0.2181  0.1203
 2215TIP3    H128204   2.238   1.850   0.534  1.1850  1.6146  2.1474
 2215TIP3    H228205   2.348   1.745   0.534 -0.5810 -0.3962 -0.7369
 2216TIP3   OH228206   3.952   5.734   2.908 -0.3994  0.0614  0.7323
 2216TIP3    H128207   3.873   5.770   2.949 -0.0531  1.2658  0.3858
 2216TIP3    H228208   3.932   5.641   2.895 -1.3389  0.1220  1.6323
 2217TIP3   OH228209   3.543   1.589   7.263 -0.1692 -0.4098 -0.1589
 2217TIP3    H128210   3.470   1.650   7.258 -0.2040 -0.5339 -1.4666
 2217TIP3    H228211   3.619   1.644   7.282 -0.6392 -0.3405  1.7709
 2218TIP3   OH228212   6.310   6.605   7.644  0.1337 -0.3786  0.6334
 2218TIP3    H128213   6.260   6.661   7.585  1.2201 -0.1055 -0.0675
 2218TIP3    H228214   6.278   6.626   7.731 -0.7751 -0.0231  0.2214
 2219TIP3   OH228215   1.174   0.339   2.924 -0.7796  0.4346 -0.3885
 2219TIP3    H128216   1.236   0.268   2.909 -0.9231  0.0002  0.9523
 2219TIP3    H228217   1.229   0.416   2.941 -0.5943  0.1213  0.4681
 2220TIP3   OH228218   1.023   0.461   0.907 -0.0840  0.1574  0.2299
 2220TIP3    H128219   0.979   0.544   0.926  1.0086  0.8021  0.0604
 2220TIP3    H228220   0.993   0.401   0.975 -0.0404  1.0186  1.0258
 2221TIP3   OH228221   0.658   6.039   7.180  0.4352  0.6466  0.3109
 2221TIP3    H128222   0.596   6.064   7.249  0.3492 -0.1614  0.5379
 2221TIP3    H228223   0.685   6.122   7.142 -0.3381  1.0509  0.6021
 2222TIP3   OH228224   6.113   1.585   2.296  0.0490 -0.2833 -0.3951
 2222TIP3    H128225   6.202   1.550   2.306  0.9463  1.7865 -0.5076
 2222TIP3    H228226   6.076   1.581   2.384  1.0525  0.7338  0.1088
 2223TIP3   OH228227   4.277   2.525   0.907 -0.4101  0.3357  0.4400
 2223TIP3    H128228   4.190   2.562   0.919 -0.2094  1.2282 -0.6263
 2223TIP3    H228229   4.273   2.478   0.823  0.5110  1.7292 -0.4450
 2224TIP3   OH228230   0.805   4.966   2.836  0.5263 -0.6732  0.0093
 2224TIP3    H128231   0.772   4.878   2.820 -0.6969  0.0258 -1.6635
 2224TIP3    H228232   0.893   4.953   2.871  0.9644 -2.5413 -1.6132
 2225TIP3   OH228233   0.289   4.780   7.381 -0.3030  0.1799 -0.3528
 2225TIP3    H128234   0.313   4.854   7.325  0.4065 -0.2180 -0.5876
 2225TIP3    H228235   0.211   4.742   7.339 -1.4724  1.5533  0.4785
 2226TIP3   OH228236   2.762   0.807   1.294  0.2563  0.0342  0.2546
 2226TIP3    H128237   2.690   0.868   1.277 -0.1309 -0.7986 -1.2981
 2226TIP3    H228238   2.841   0.856   1.272 -0.0842 -0.1501 -1.4997
 2227TIP3   OH228239   5.497   0.121   2.254  0.4184  0.1746 -0.0581
 2227TIP3    H128240   5.418   0.173   2.239  0.9757  1.1061  0.1429
 2227TIP3    H228241   5.505   0.116   2.349 -0.8951 -2.3029  0.0212
 2228TIP3   OH228242   3.872   3.257   0.530 -0.0965  0.1355 -0.1261
 2228TIP3    H128243   3.894   3.196   0.460 -0.1257 -0.8671  0.7124
 2228TIP3    H228244   3.795   3.219   0.572  0.4516  0.2409  1.0045
 2229TIP3   OH228245   0.029   0.420   3.174 -0.5905 -0.1919 -0.2236
 2229TIP3    H128246   0.036   0.328   3.146 -2.1258 -0.8749  1.4476
 2229TIP3    H228247   0.107   0.434   3.228 -0.7275 -0.7724  0.1438
 2230TIP3   OH228248   5.407   5.577   6.940 -0.4444  0.2052 -0.3260
 2230TIP3    H128249   5.363   5.661   6.933 -0.5823  0.5720  3.0278
 2230TIP3    H228250   5.481   5.594   6.999 -0.0465 -1.8592 -0.1627
 2231TIP3   OH228251   6.825   5.080   0.094  0.0455 -0.6038 -0.2571
 2231TIP3    H128252   6.740   5.104   0.129  0.4621  0.4916  0.0379
 2231TIP3    H228253   6.808   5.056   0.003 -0.1890  2.6190 -1.1736
 2232TIP3   OH228254   3.912   1.977   7.078  0.4431 -0.0079  0.1674
 2232TIP3    H128255   3.942   1.901   7.128 -0.3769 -1.1148 -0.9591
 2232TIP3    H228256   3.925   1.952   6.986  2.3589  2.1496 -0.2245
 2233TIP3   OH228257   5.703   6.185   2.722 -0.4360  0.3266  0.1352
 2233TIP3    H128258   5.766   6.150   2.659  0.5472 -0.0349  1.2891
 2233TIP3    H228259   5.755   6.206   2.799 -1.8921 -1.2719  1.6499
 2234TIP3   OH228260   1.878   6.011   1.008 -0.3623 -0.4568  0.7351
 2234TIP3    H128261   1.868   6.095   1.053  0.2172 -0.3481  0.6743
 2234TIP3    H228262   1.912   5.951   1.075  1.8696  0.0594  0.1553
 2235TIP3   OH228263   3.109   4.680   0.838  0.4358  0.4837 -0.1720
 2235TIP3    H128264   3.166   4.750   0.871  0.8297 -0.5756  1.5344
 2235TIP3    H228265   3.162   4.638   0.770  2.1030 -0.9372  1.8665
 2236TIP3   OH228266   0.442   0.309   3.157  0.1520 -0.2434 -0.3667
 2236TIP3    H128267   0.396   0.225   3.150 -0.6723  0.0068  1.4966
 2236TIP3    H228268   0.534   0.287   3.143  0.0325 -1.5865  0.7915
 2237TIP3   OH228269   3.910   1.676   1.238 -0.9013  0.2569 -0.2018
 2237TIP3    H128270   3.976   1.727   1.192 -0.5075  1.3664  1.5023
 2237TIP3    H228271   3.933   1.585   1.219  0.0351  0.6639 -1.0847
 2238TIP3   OH228272   1.495   3.516   0.377  0.3143 -0.1614  0.4335
 2238TIP3    H128273   1.409   3.476   0.389  0.0852  0.1583 -0.1556
 2238TIP3    H228274   1.480   3.589   0.318  1.2265 -0.9665 -0.8570
 2239TIP3   OH228275   5.144   2.563   1.060  0.4816  0.7296  0.5793
 2239TIP3    H128276   5.207   2.558   1.132 -0.0222 -2.2819  0.9200
 2239TIP3    H228277   5.191   2.610   0.991  2.3515  0.3870  1.5414
 2240TIP3   OH228278   1.963   3.883   6.932  0.2549  0.0156  0.2794
 2240TIP3    H128279   2.048   3.885   6.976 -0.8076  2.3732  2.4804
 2240TIP3    H228280   1.944   3.975   6.913 -1.5292 -0.5238 -0.6965
 2241TIP3   OH228281   6.572   0.062   8.319  0.1911 -0.2015 -0.1074
 2241TIP3    H128282   6.586   0.109   8.237  0.5197  1.1142  0.6750
 2241TIP3    H228283   6.480   0.036   8.317  0.3466 -0.7223 -1.1479
 2242TIP3   OH228284   5.299   1.786   2.041  0.4287 -0.0628  0.0407
 2242TIP3    H128285   5.242   1.847   1.994  0.8383  0.7743  0.5940
 2242TIP3    H228286   5.382   1.831   2.048  1.0721 -1.1374 -0.4514
 2243TIP3   OH228287   2.662   1.562   0.020 -0.1543 -0.4204  0.4347
 2243TIP3    H128288   2.727   1.492   0.022 -0.6601 -0.8951  0.6475
 2243TIP3    H228289   2.595   1.534   0.083 -0.5582  0.0605  0.2252
 2244TIP3   OH228290   1.585   5.550   2.265 -0.4629  0.5154  0.0290
 2244TIP3    H128291   1.491   5.534   2.252 -0.7320  1.5144  0.6583
 2244TIP3    H228292   1.628   5.481   2.214 -1.5405 -1.4974  1.6413
 2245TIP3   OH228293   4.340   0.242   2.442  0.6222 -0.2007  0.7501
 2245TIP3    H128294   4.407   0.187   2.482  2.4784  0.9442 -0.6631
 2245TIP3    H228295   4.351   0.327   2.483 -1.0619 -0.3426  1.6201
 2246TIP3   OH228296   0.844   0.043   1.228  0.5549 -0.3001  0.5266
 2246TIP3    H128297   0.847  -0.027   1.293  0.4129 -1.6496 -0.8401
 2246TIP3    H228298   0.889   0.006   1.152 -0.9940  0.4579 -0.8199
 2247TIP3   OH228299   6.717   1.243   0.918  0.0959  0.1940 -0.7116
 2247TIP3    H128300   6.656   1.292   0.972  1.4365  0.3659  0.7023
 2247TIP3    H228301   6.778   1.308   0.884  1.3064 -0.3250  0.3928
 2248TIP3   OH228302   0.198   5.116   7.431  0.1202  0.3892  0.2159
 2248TIP3    H128303   0.265   5.084   7.371  0.0013 -1.4130  0.9811
 2248TIP3    H228304   0.231   5.094   7.518 -0.5406  1.3251  0.7282
 2249TIP3   OH228305   3.941   1.760   0.311  0.4732 -0.3361  0.3205
 2249TIP3    H128306   3.907   1.798   0.391  0.7916  0.0685  0.2685
 2249TIP3    H228307   3.892   1.803   0.241 -0.0016 -0.8933  0.3064
 2250TIP3   OH228308   3.734   5.325   0.526 -0.6118 -0.0780  0.4094
 2250TIP3    H128309   3.701   5.415   0.529  0.9801  0.6223 -1.0900
 2250TIP3    H228310   3.682   5.283   0.457 -0.1455  0.2700 -0.1724
 2251TIP3   OH228311   0.835   3.771   1.262  0.7255  0.0822  0.1414
 2251TIP3    H128312   0.776   3.839   1.293 -0.2549 -0.2123 -1.0056
 2251TIP3    H228313   0.916   3.817   1.239  0.8132  0.5442  1.3325
 2252TIP3   OH228314   5.735   0.931   8.553  0.0963 -0.0901 -0.0822
 2252TIP3    H128315   5.799   0.866   8.526  1.7212  1.1407  0.6183
 2252TIP3    H228316   5.786   1.011   8.566 -1.6170  0.9903  0.3773
 2253TIP3   OH228317   3.709   6.568   0.992 -0.4861  0.1252  0.8580
 2253TIP3    H128318   3.662   6.645   0.958  0.0274 -0.2774 -0.8617
 2253TIP3    H228319   3.800   6.583   0.967 -0.4212 -1.1376  0.2726
 2254TIP3   OH228320   0.575   4.199   2.234 -0.0119  0.4449  0.1034
 2254TIP3    H128321   0.638   4.177   2.164 -0.2593  1.4888 -0.4631
 2254TIP3    H228322   0.490   4.198   2.190 -0.3785 -0.6284  0.7947
 2255TIP3   OH228323   5.310   3.154   7.999  0.5750  0.7763  0.6462
 2255TIP3    H128324   5.253   3.096   8.050  1.5420 -0.2292  0.6275
 2255TIP3    H228325   5.398   3.134   8.029  1.0726  0.9634 -0.6232
 2256TIP3   OH228326   5.464   2.426   0.678  0.4583  0.1373 -0.8228
 2256TIP3    H128327   5.521   2.369   0.627 -1.4313 -1.7946 -0.8921
 2256TIP3    H228328   5.424   2.368   0.744  1.1715  2.1102  1.5077
 2257TIP3   OH228329   1.053   4.368   0.939 -0.3314 -0.4194 -0.3294
 2257TIP3    H128330   0.961   4.392   0.946 -0.0387  0.8704 -0.7629
 2257TIP3    H228331   1.053   4.272   0.939 -1.6620 -0.4292 -0.3486
 2258TIP3   OH228332   0.015   5.821   1.915  0.2943 -0.0579  0.4527
 2258TIP3    H128333  -0.036   5.795   1.839 -0.4138 -0.0305  0.9058
 2258TIP3    H228334   0.045   5.910   1.895  0.9850 -0.4371 -0.2243
 2259TIP3   OH228335   2.384   3.961   0.515  0.1628 -0.2810 -0.3397
 2259TIP3    H128336   2.474   3.993   0.516 -0.2454  0.8794  0.8820
 2259TIP3    H228337   2.365   3.948   0.422  1.7565 -1.1167 -0.6046
 2260TIP3   OH228338   2.450   1.454   1.004  0.5359  0.1643  0.1442
 2260TIP3    H128339   2.408   1.384   1.054 -1.0113  2.4656  2.3127
 2260TIP3    H228340   2.380   1.489   0.949  1.2976  0.0321 -0.9319
 2261TIP3   OH228341   4.152   0.573   2.401 -0.2017 -0.1708 -0.0694
 2261TIP3    H128342   4.116   0.522   2.474  0.7771 -1.5417 -0.5102
 2261TIP3    H228343   4.245   0.550   2.399 -0.2325 -0.2645 -1.8160
 2262TIP3   OH228344   1.826   2.285   2.447 -0.0025  0.1610 -0.8840
 2262TIP3    H128345   1.840   2.237   2.365  1.4918  0.8081 -1.0377
 2262TIP3    H228346   1.783   2.366   2.420 -0.7148 -0.1955 -0.8534
 2263TIP3   OH228347   5.358   6.733   0.124 -0.0212 -0.3581  0.5060
 2263TIP3    H128348   5.363   6.771   0.212 -0.8791 -0.0320  0.4252
 2263TIP3    H228349   5.305   6.654   0.136  0.2023 -0.5354  0.3438
 2264TIP3   OH228350   1.251   6.727   2.516  0.8031  0.4979  0.0164
 2264TIP3    H128351   1.285   6.650   2.561 -1.1422 -1.2766 -1.3359
 2264TIP3    H228352   1.295   6.727   2.431 -0.5554 -0.2543 -0.7082
 2265TIP3   OH228353   0.213   2.085   8.116  0.1284  0.1626  0.1234
 2265TIP3    H128354   0.230   2.011   8.058 -2.3290  0.2831 -0.8923
 2265TIP3    H228355   0.211   2.046   8.204  3.6171 -0.0594  0.2325
 2266TIP3   OH228356   0.063   2.065   1.592 -0.1043  0.2940 -0.3163
 2266TIP3    H128357   0.095   2.005   1.658  0.1538  1.5088  0.6961
 2266TIP3    H228358   0.016   2.009   1.529  0.5460 -0.9988  0.3120
 2267TIP3   OH228359   4.454   0.284   8.085  0.3359  0.0960 -0.0005
 2267TIP3    H128360   4.414   0.204   8.119 -0.8898  0.5826 -0.2344
 2267TIP3    H228361   4.511   0.314   8.155  0.3066 -0.6300  0.3458
 2268TIP3   OH228362   6.143   5.704   1.635 -0.1792  0.3247 -0.3749
 2268TIP3    H128363   6.187   5.700   1.549  0.1070  4.2691 -0.5838
 2268TIP3    H228364   6.113   5.614   1.650  0.4156 -0.7273 -4.2400
 2269TIP3   OH228365   6.253   5.691   0.294  0.2197  0.0572  0.0317
 2269TIP3    H128366   6.163   5.713   0.320 -0.4386 -1.2827 -1.0028
 2269TIP3    H228367   6.303   5.698   0.375 -0.9195  0.3114  0.7429
 2270TIP3   OH228368   0.135   5.439   8.629  0.3260 -0.2804  0.0399
 2270TIP3    H128369   0.188   5.475   8.700  0.0894  0.4830 -0.1618
 2270TIP3    H228370   0.097   5.515   8.586  0.6872 -0.7134 -1.0863
 2271TIP3   OH228371   4.355   6.799   7.204 -0.1286  1.0773 -0.0960
 2271TIP3    H128372   4.377   6.748   7.125  1.3138  0.2851  0.7529
 2271TIP3    H228373   4.347   6.889   7.173  0.0678  0.7341 -1.2053
 2272TIP3   OH228374   0.302   4.403   1.308  0.2175 -0.6822 -0.5314
 2272TIP3    H128375   0.211   4.389   1.284 -1.0403  2.7415  1.5527
 2272TIP3    H228376   0.313   4.355   1.391  0.4129 -1.2709 -0.8910
 2273TIP3   OH228377   3.546   4.369   1.328 -0.7300 -0.3477 -0.1482
 2273TIP3    H128378   3.589   4.354   1.244  1.5074 -1.6844  1.1142
 2273TIP3    H228379   3.616   4.402   1.385 -1.7988 -0.8811  1.5572
 2274TIP3   OH228380   5.607   6.673   0.726 -0.3073 -0.4369 -0.8611
 2274TIP3    H128381   5.677   6.625   0.770  1.3720  2.3974 -0.1618
 2274TIP3    H228382   5.535   6.673   0.789  1.7069  2.6999  1.7763
 2275TIP3   OH228383   2.715   2.691   1.820 -0.1240  0.2822  0.0618
 2275TIP3    H128384   2.634   2.721   1.778 -0.7418 -0.4159  0.7318
 2275TIP3    H228385   2.688   2.664   1.908  0.6561 -0.9006 -0.0455
 2276TIP3   OH228386   6.783   0.636   2.139 -0.3008 -0.4228 -0.2037
 2276TIP3    H128387   6.797   0.612   2.048 -0.4974 -3.2073  0.4041
 2276TIP3    H228388   6.693   0.610   2.158 -0.8140  1.5849  0.4234
 2277TIP3   OH228389   5.472   1.139   1.172 -0.0799  0.1292 -0.0882
 2277TIP3    H128390   5.498   1.136   1.080 -0.3089  1.9671 -0.2586
 2277TIP3    H228391   5.544   1.096   1.219  1.6148  1.9388 -0.8691
 2278TIP3   OH228392   0.936   5.169   7.936 -0.8350  0.2365 -0.0821
 2278TIP3    H128393   0.905   5.079   7.948  1.4366 -0.5528  0.3273
 2278TIP3    H228394   0.977   5.169   7.850 -0.2481  0.7038  0.1968
 2279TIP3   OH228395   4.287   3.021   8.040 -0.3848 -0.2657  0.3875
 2279TIP3    H128396   4.355   2.975   7.990  0.6297  0.8822  0.6474
 2279TIP3    H228397   4.306   3.114   8.026 -2.9412  0.1405 -0.8782
 2280TIP3   OH228398   0.838   2.916   8.458  0.3382 -0.2866 -0.3796
 2280TIP3    H128399   0.757   2.879   8.492  0.3525 -0.8928 -0.9796
 2280TIP3    H228400   0.820   3.009   8.449 -0.9079 -0.6452 -2.1320
 2281TIP3   OH228401   1.093   5.521   2.017 -0.2546  0.7822 -0.2358
 2281TIP3    H128402   1.023   5.576   2.055  0.9288  2.3248 -0.2101
 2281TIP3    H228403   1.053   5.435   2.010 -2.8083  1.9786 -1.9292
 2282TIP3   OH228404   5.123   3.127   7.385  0.0517  0.1040  0.3778
 2282TIP3    H128405   5.111   3.052   7.443  0.7864  0.2230  0.6962
 2282TIP3    H228406   5.215   3.123   7.359 -0.0698  0.5155 -0.1347
 2283TIP3   OH228407   5.465   1.346   6.514  0.2714  0.9394 -0.7288
 2283TIP3    H128408   5.494   1.265   6.556 -2.5196 -0.6106 -1.5676
 2283TIP3    H228409   5.383   1.367   6.558 -0.6318  1.5492 -2.6137
 2284TIP3   OH228410   4.521   6.128   1.085 -0.0482 -0.3186  0.2343
 2284TIP3    H128411   4.511   6.181   1.164  1.0528 -0.7502  0.6799
 2284TIP3    H228412   4.592   6.068   1.106 -0.2563 -0.9468 -0.8211
 2285TIP3   OH228413   4.185   1.486   0.213  0.4243 -0.0720  0.6115
 2285TIP3    H128414   4.177   1.576   0.180  1.8520  0.5827  1.9370
 2285TIP3    H228415   4.245   1.443   0.152  0.4912  0.1502  0.5204
 2286TIP3   OH228416   5.758   0.434   6.887  0.0756  0.4403 -0.3413
 2286TIP3    H128417   5.786   0.516   6.846 -0.6800  0.7638 -0.2170
 2286TIP3    H228418   5.822   0.369   6.856  0.9691  1.1633 -0.0530
 2287TIP3   OH228419   0.072   6.251   6.725 -0.5267  0.5204  0.0121
 2287TIP3    H128420  -0.008   6.214   6.762 -0.7917 -1.0659 -1.9668
 2287TIP3    H228421   0.138   6.183   6.736  0.2897  1.3898  0.6544
 2288TIP3   OH228422   0.572   5.968   1.307  0.8022 -0.5047  0.0041
 2288TIP3    H128423   0.579   6.062   1.294 -0.3370 -0.4134 -0.0330
 2288TIP3    H228424   0.651   5.932   1.268 -0.6632  0.0449 -3.9329
 2289TIP3   OH228425   3.591   2.535   0.104 -0.0473  0.4988 -0.0594
 2289TIP3    H128426   3.498   2.545   0.121  0.2264  0.5491  1.5311
 2289TIP3    H228427   3.634   2.575   0.179  1.2456 -0.3236 -0.3239
 2290TIP3   OH228428   3.273   2.252   1.388 -0.4645 -0.0740 -0.2343
 2290TIP3    H128429   3.177   2.254   1.396 -0.5317 -2.3961  0.2198
 2290TIP3    H228430   3.299   2.344   1.392 -2.7195  0.6801 -1.1143
 2291TIP3   OH228431   3.830   4.032   0.731 -0.8340  0.7330  0.1360
 2291TIP3    H128432   3.748   3.984   0.743 -0.9758  0.4891 -1.4983
 2291TIP3    H228433   3.814   4.089   0.656  0.3352  1.0302  0.0841
 2292TIP3   OH228434   6.490   1.537   0.817 -0.3556 -0.8013 -0.5956
 2292TIP3    H128435   6.495   1.498   0.905  0.4817  0.5975  0.0024
 2292TIP3    H228436   6.581   1.553   0.793 -0.6593  1.8635 -0.2847
 2293TIP3   OH228437   4.462   6.271   7.386  0.1171  0.2037  0.1107
 2293TIP3    H128438   4.444   6.265   7.292 -0.5147 -0.1392  0.2489
 2293TIP3    H228439   4.473   6.180   7.414  0.1575  0.2948  0.3913
 2294TIP3   OH228440   0.049   3.813   8.223  0.9341  0.6017  0.7131
 2294TIP3    H128441   0.025   3.722   8.203  2.2537  0.4534 -0.3944
 2294TIP3    H228442  -0.032   3.853   8.252 -0.3215 -0.2512 -1.3489
 2295TIP3   OH228443   6.398   4.888   0.594 -0.1876  0.2243 -0.2127
 2295TIP3    H128444   6.376   4.966   0.542  0.6148  0.3546 -0.3632
 2295TIP3    H228445   6.354   4.902   0.678 -1.5806 -0.0285 -0.8614
 2296TIP3   OH228446   5.903   3.785   1.734 -0.7742  0.0594 -0.3138
 2296TIP3    H128447   5.873   3.710   1.785 -1.8618  0.4977 -0.2860
 2296TIP3    H228448   5.909   3.857   1.798  1.0088 -0.1584 -0.1793
 2297TIP3   OH228449   5.983   1.855   7.853 -0.4175  0.3412  0.0389
 2297TIP3    H128450   5.953   1.826   7.766 -0.8712  1.8173 -0.3311
 2297TIP3    H228451   5.902   1.872   7.901 -0.1879  1.7995 -0.0614
 2298TIP3   OH228452   1.377   0.941   1.296  0.3582 -0.3775 -0.4186
 2298TIP3    H128453   1.292   0.917   1.333  1.1088 -1.2919  0.7682
 2298TIP3    H228454   1.441   0.910   1.360  1.5969  0.3086 -1.2827
 2299TIP3   OH228455   0.855   6.607   1.150 -0.3083  0.1676  0.1782
 2299TIP3    H128456   0.855   6.572   1.239  0.8494 -2.5503 -0.7390
 2299TIP3    H228457   0.947   6.629   1.133 -0.5861  1.0659 -0.1995
 2300TIP3   OH228458   0.348   6.406   2.699 -0.5180 -0.6143 -0.1046
 2300TIP3    H128459   0.425   6.450   2.737 -1.1286 -0.1799  0.6548
 2300TIP3    H228460   0.298   6.375   2.775 -0.6652 -1.6610 -0.6071
 2301TIP3   OH228461   0.820   0.944   2.494  0.2997  0.5043  0.1861
 2301TIP3    H128462   0.792   0.962   2.404  0.8974  0.9289  0.0745
 2301TIP3    H228463   0.742   0.908   2.537  0.0123  0.2827 -0.5030
 2302TIP3   OH228464   4.272   2.614   2.754  0.2209  0.2680 -0.3700
 2302TIP3    H128465   4.262   2.570   2.670  0.8774  0.8715 -0.7725
 2302TIP3    H228466   4.310   2.699   2.733 -0.7522  0.9240  0.4233
 2303TIP3   OH228467   4.830   0.623   3.015 -0.1151 -0.7716  0.5166
 2303TIP3    H128468   4.874   0.686   3.072  1.0300 -1.7565  0.7630
 2303TIP3    H228469   4.901   0.572   2.977 -0.8071  0.0560 -2.0752
 2304TIP3   OH228470   6.784   1.997   0.541 -0.1242 -0.4892 -0.4872
 2304TIP3    H128471   6.757   1.934   0.475 -0.4067 -1.9578  0.9941
 2304TIP3    H228472   6.704   2.021   0.587 -0.3034  2.1722 -1.9599
 2305TIP3   OH228473   2.535   1.860   8.178  0.1719  0.2995 -0.0226
 2305TIP3    H128474   2.600   1.886   8.113 -0.9008 -0.4846 -1.4757
 2305TIP3    H228475   2.452   1.861   8.130 -0.6179 -0.5362  1.2749
 2306TIP3   OH228476   4.226   5.429   1.244  0.0534  0.4667  0.2462
 2306TIP3    H128477   4.161   5.368   1.210 -1.1133  1.1244  1.2125
 2306TIP3    H228478   4.181   5.474   1.316  1.4671  1.1921  0.7138
 2307TIP3   OH228479   5.034   6.695   8.448  0.2550 -0.5455 -0.0199
 2307TIP3    H128480   4.986   6.710   8.530  0.7824  0.3007  0.1431
 2307TIP3    H228481   5.089   6.620   8.466  2.7810  1.5082  1.5319
 2308TIP3   OH228482   3.293   0.613   2.553  0.1014 -0.5265  0.7154
 2308TIP3    H128483   3.329   0.659   2.478 -0.9962 -3.6084 -1.9476
 2308TIP3    H228484   3.220   0.667   2.582  0.1653  0.4642 -0.8673
 2309TIP3   OH228485   2.315   6.614   7.058 -0.0797 -0.3669 -0.0460
 2309TIP3    H128486   2.388   6.574   7.107 -0.7708 -0.6325  0.7892
 2309TIP3    H228487   2.240   6.606   7.117 -0.7206  0.1771 -0.7803
 2310TIP3   OH228488   3.952   2.264   7.727  0.5360 -0.4812  0.4701
 2310TIP3    H128489   4.009   2.191   7.753  0.4200 -0.7785 -0.0779
 2310TIP3    H228490   3.871   2.221   7.699  1.4425 -0.4398 -2.6520
 2311TIP3   OH228491   1.803   0.770   0.355 -0.1720 -0.2702  0.3722
 2311TIP3    H128492   1.847   0.714   0.291  1.3115 -0.5826  1.5955
 2311TIP3    H228493   1.842   0.856   0.343 -0.3193 -0.1944  0.4401
 2312TIP3   OH228494   2.744   5.512   0.262 -0.3023 -0.5365 -0.4400
 2312TIP3    H128495   2.698   5.592   0.289  2.0035  0.1787  1.7939
 2312TIP3    H228496   2.701   5.442   0.310 -1.5472 -0.5148 -1.4674
 2313TIP3   OH228497   5.929   5.469   7.842 -0.3487  0.2100 -0.1990
 2313TIP3    H128498   5.846   5.516   7.853 -1.9802 -2.0073 -1.8814
 2313TIP3    H228499   5.938   5.460   7.747  0.2440 -2.1270  0.0202
 2314TIP3   OH228500   2.792   4.247   8.250  0.3062  0.3418 -0.4128
 2314TIP3    H128501   2.831   4.313   8.307 -0.6564  0.1551  0.4945
 2314TIP3    H228502   2.703   4.235   8.284  0.7213 -2.0616  0.0480
 2315TIP3   OH228503   3.049   3.299   7.578  0.3552 -0.4885  0.2966
 2315TIP3    H128504   3.098   3.234   7.528 -1.2006 -1.7555  0.3680
 2315TIP3    H228505   2.987   3.337   7.516  1.1613  0.8941  0.2836
 2316TIP3   OH228506   6.530   2.539   0.781 -0.1093  0.1688  0.1165
 2316TIP3    H128507   6.626   2.529   0.780 -0.1663 -1.0012  1.5793
 2316TIP3    H228508   6.497   2.450   0.771 -0.9944  0.3000  1.5719
 2317TIP3   OH228509   6.028   2.522   7.891  0.4062  0.0046 -0.1416
 2317TIP3    H128510   6.027   2.502   7.797 -3.0127 -0.4084 -0.1521
 2317TIP3    H228511   6.031   2.437   7.934  0.0981  0.0972  0.0683
 2318TIP3   OH228512   0.360   3.442   1.334  0.3411 -0.4113  0.0811
 2318TIP3    H128513   0.322   3.423   1.248 -1.7999  1.7546  0.4339
 2318TIP3    H228514   0.439   3.492   1.316 -1.0116  1.5604 -0.7001
 2319TIP3   OH228515   6.260   1.355   0.668 -0.0521  0.3664 -0.6333
 2319TIP3    H128516   6.337   1.318   0.625 -0.7203 -0.8137 -0.8548
 2319TIP3    H228517   6.268   1.330   0.760 -1.1211 -1.5012 -0.9921
 2320TIP3   OH228518   0.141   0.987   0.540  0.0577 -0.6734 -0.5856
 2320TIP3    H128519   0.082   0.913   0.555  1.0667 -1.2820  0.6077
 2320TIP3    H228520   0.098   1.062   0.582 -1.0927 -0.4848 -2.0265
 2321TIP3   OH228521   4.255   3.380   7.506  0.0552  0.0844 -0.3053
 2321TIP3    H128522   4.221   3.385   7.417 -0.2012  0.4624 -0.1901
 2321TIP3    H228523   4.257   3.286   7.526 -0.4248  0.0278 -0.5032
 2322TIP3   OH228524   4.596   4.081   7.594 -0.2262  0.7725 -0.4761
 2322TIP3    H128525   4.568   4.147   7.531 -0.0238  2.4196  1.0499
 2322TIP3    H228526   4.516   4.036   7.620 -0.6453  1.5645 -0.3438
 2323TIP3   OH228527   6.280   3.118   7.602  0.6225  0.1900 -0.0832
 2323TIP3    H128528   6.185   3.126   7.606  0.6531  0.1141  1.2439
 2323TIP3    H228529   6.311   3.206   7.581  0.3619  0.8819  2.1956
 2324TIP3   OH228530   4.393   1.999   1.372  0.2575 -0.0059  0.0666
 2324TIP3    H128531   4.461   2.063   1.395  0.3315  0.3732 -1.1336
 2324TIP3    H228532   4.441   1.923   1.340  0.1735 -0.7512  1.5922
 2325TIP3   OH228533   5.573   4.616   2.212  0.2972 -0.2446  0.0175
 2325TIP3    H128534   5.563   4.659   2.297 -0.3325 -0.1548 -0.0984
 2325TIP3    H228535   5.645   4.663   2.170 -0.0221  0.3387  0.1172
 2326TIP3   OH228536   2.789   3.663   1.594  0.0459  0.5975 -0.2124
 2326TIP3    H128537   2.761   3.749   1.564  0.4798  0.8454  0.0876
 2326TIP3    H228538   2.774   3.663   1.688 -1.3151 -0.1832 -0.4013
 2327TIP3   OH228539   2.723   0.455   2.132 -0.0009  0.1151  0.1610
 2327TIP3    H128540   2.814   0.444   2.104  0.0440  0.4611  0.1588
 2327TIP3    H228541   2.714   0.403   2.211 -0.0361 -0.6145 -0.3166
 2328TIP3   OH228542   4.699   1.018   0.642  0.3399  0.2492 -0.2441
 2328TIP3    H128543   4.680   1.024   0.736 -1.1169 -0.1720 -0.4987
 2328TIP3    H228544   4.789   1.051   0.634  0.7203 -0.3032  1.3748
 2329TIP3   OH228545   3.095   1.662   1.363 -0.0523 -0.2359  0.5260
 2329TIP3    H128546   3.187   1.677   1.341  0.8629 -0.7855  3.5068
 2329TIP3    H228547   3.089   1.569   1.381 -1.0968 -0.1442  0.7305
 2330TIP3   OH228548   3.399   6.742   0.676  0.2153 -0.6129  0.2313
 2330TIP3    H128549   3.353   6.669   0.718 -1.0128  0.3056  0.5469
 2330TIP3    H228550   3.370   6.739   0.584  1.6629 -1.6512 -0.2354
 2331TIP3   OH228551   3.589   3.295   0.146  0.1241  0.1589 -0.1379
 2331TIP3    H128552   3.627   3.310   0.060  2.6868 -0.8664  0.7133
 2331TIP3    H228553   3.598   3.378   0.192 -0.2796  0.4085 -0.5041
 2332TIP3   OH228554   3.644   1.561   8.604 -0.3737 -0.1085 -0.1238
 2332TIP3    H128555   3.615   1.497   8.669 -1.1772 -0.5550 -0.8964
 2332TIP3    H228556   3.715   1.518   8.557 -0.9339 -0.4753 -0.6640
 2333TIP3   OH228557   3.310   4.210   2.063 -0.5388 -0.0375 -0.1726
 2333TIP3    H128558   3.334   4.121   2.087 -1.1352  0.3459  2.0894
 2333TIP3    H228559   3.215   4.214   2.078 -0.5579  0.9208 -0.4644
 2334TIP3   OH228560   1.824   0.774   8.087  0.0947  0.3586 -0.2154
 2334TIP3    H128561   1.856   0.854   8.128  1.4063  0.6443 -1.7165
 2334TIP3    H228562   1.894   0.710   8.103  0.0432  0.1291 -0.8995
 2335TIP3   OH228563   3.758   5.843   8.361  0.5314  0.0307  0.0429
 2335TIP3    H128564   3.806   5.905   8.307  0.8739  0.4208  0.7821
 2335TIP3    H228565   3.667   5.852   8.334  0.8854 -0.9507 -1.6096
 2336TIP3   OH228566   4.949   0.865   8.518 -0.4020 -0.0125 -0.5082
 2336TIP3    H128567   4.973   0.782   8.559  1.1194  1.1151  1.0456
 2336TIP3    H228568   4.926   0.922   8.591  0.4287  1.4920 -1.3727
 2337TIP3   OH228569   4.421   4.137   7.914  0.2312 -0.5031 -0.1071
 2337TIP3    H128570   4.462   4.157   7.998  0.2614 -2.2490  0.3243
 2337TIP3    H228571   4.425   4.042   7.907  1.0186 -0.3461 -2.5093
 2338TIP3   OH228572   0.233   6.360   1.078 -0.3714  0.1518  0.2367
 2338TIP3    H128573   0.180   6.431   1.113  0.8856  1.2666 -0.0201
 2338TIP3    H228574   0.275   6.322   1.155 -0.9183 -0.2104  0.3585
 2339TIP3   OH228575   5.105   5.327   1.245 -0.4793  0.2028 -0.4813
 2339TIP3    H128576   5.116   5.395   1.312  1.8825  1.0103 -1.5621
 2339TIP3    H228577   5.088   5.376   1.164 -0.0698 -0.5695 -1.0499
 2340TIP3   OH228578   6.716   1.978   8.542  0.0195  0.0231 -0.5115
 2340TIP3    H128579   6.751   1.914   8.480  1.0122 -0.9948  1.0363
 2340TIP3    H228580   6.783   1.986   8.609 -1.0198  1.0944  0.4543
 2341TIP3   OH228581   0.714   0.000   7.972 -0.2077 -1.2120 -0.1698
 2341TIP3    H128582   0.626   0.035   7.960  0.0727 -0.3851  0.0770
 2341TIP3    H228583   0.746  -0.019   7.884  0.3528  1.0268 -0.5229
 2342TIP3   OH228584   0.556   3.495   7.465  0.1845 -0.3791 -0.3341
 2342TIP3    H128585   0.523   3.545   7.539  0.2902 -0.7295 -0.0457
 2342TIP3    H228586   0.582   3.561   7.401 -1.4400 -0.1008 -0.7402
 2343TIP3   OH228587   6.016   5.241   2.158 -0.2448  0.2161  0.1431
 2343TIP3    H128588   6.005   5.149   2.136 -2.1048  0.2912  0.5729
 2343TIP3    H228589   6.039   5.241   2.251 -0.7049  0.1885  0.2604
 2344TIP3   OH228590   0.918   1.663   2.219  0.5284  0.4659 -0.3502
 2344TIP3    H128591   0.960   1.602   2.279 -0.9925  0.9536  1.3094
 2344TIP3    H228592   0.865   1.608   2.160 -2.4225  0.0950  2.3782
 2345TIP3   OH228593   3.608   6.497   7.720  0.1304  0.2643  0.0876
 2345TIP3    H128594   3.664   6.548   7.778 -0.0916  0.0921  0.4566
 2345TIP3    H228595   3.659   6.486   7.640  0.6247  0.0984  0.4266
 2346TIP3   OH228596   6.740   1.928   6.927  0.1538 -0.1406 -0.0861
 2346TIP3    H128597   6.702   1.978   7.000  2.2460  0.7160  0.5157
 2346TIP3    H228598   6.760   1.995   6.861 -1.5793 -0.8887 -1.4630
 2347TIP3   OH228599   4.936   5.957   1.363 -0.1202 -0.2796 -0.2006
 2347TIP3    H128600   5.010   5.937   1.306 -0.2469 -0.2968 -0.3564
 2347TIP3    H228601   4.860   5.955   1.306 -0.3586 -1.1642  0.1294
 2348TIP3   OH228602   3.092   4.767   0.360  0.0027  0.3639  0.4923
 2348TIP3    H128603   3.162   4.810   0.410 -0.2334  0.2075  0.9628
 2348TIP3    H228604   3.107   4.795   0.270  0.4669  0.6104  0.6395
 2349TIP3   OH228605   3.159   5.419   7.474 -0.2909 -0.2745  0.4377
 2349TIP3    H128606   3.177   5.478   7.548 -1.2885 -1.3890  1.6179
 2349TIP3    H228607   3.152   5.478   7.399 -0.5597  1.0525  1.4493
 2350TIP3   OH228608   1.334   2.937   8.485 -0.0818 -0.0494 -0.6132
 2350TIP3    H128609   1.283   3.018   8.481  0.5728  0.4162  0.1579
 2350TIP3    H228610   1.312   2.890   8.404 -0.6573  0.7816 -0.9472
 2351TIP3   OH228611   3.699   3.305   6.954 -0.5148  0.0161 -0.0230
 2351TIP3    H128612   3.791   3.332   6.952 -0.4120 -0.3519 -0.6365
 2351TIP3    H228613   3.699   3.224   7.005 -0.0924 -1.3615 -2.0973
 2352TIP3   OH228614   1.359   4.226   1.489 -0.0153 -0.1422  0.2684
 2352TIP3    H128615   1.301   4.266   1.424 -0.7233  0.0805  1.0152
 2352TIP3    H228616   1.310   4.232   1.571  0.8234 -0.5054  0.8050
 2353TIP3   OH228617   4.041   4.341   0.312 -0.4574 -0.2221 -0.5380
 2353TIP3    H128618   4.033   4.344   0.217 -2.2274 -1.1313 -0.4624
 2353TIP3    H228619   4.086   4.422   0.336  0.6147 -0.3019 -2.1862
 2354TIP3   OH228620   1.237   4.461   1.739  0.1632 -0.8815 -0.2386
 2354TIP3    H128621   1.160   4.450   1.794  1.3609  1.6126  2.1761
 2354TIP3    H228622   1.215   4.533   1.679  0.8050  0.4322  1.0356
 2355TIP3   OH228623   0.260   2.109   2.764  0.5470  0.1027 -0.5324
 2355TIP3    H128624   0.196   2.174   2.735  0.8024 -0.4843 -2.5723
 2355TIP3    H228625   0.208   2.032   2.785  0.4890  0.0330 -0.9372
 2356TIP3   OH228626   3.328   3.707   0.498  0.3665 -0.4434  0.1443
 2356TIP3    H128627   3.397   3.642   0.493 -0.4151 -1.3498  0.8314
 2356TIP3    H228628   3.299   3.705   0.589 -0.5983 -0.1227 -0.1408
 2357TIP3   OH228629   1.701   1.186   2.180 -0.5332  0.4480 -0.0819
 2357TIP3    H128630   1.738   1.114   2.231 -1.0181  1.7184  2.2059
 2357TIP3    H228631   1.644   1.144   2.116  0.4846 -1.2555  0.0855
 2358TIP3   OH228632   2.556   5.532   3.142 -1.4441 -1.0377 -0.0521
 2358TIP3    H128633   2.533   5.447   3.179 -0.4643 -0.4537  2.0469
 2358TIP3    H228634   2.612   5.573   3.208 -2.1204  1.3653 -0.8585
 2359TIP3   OH228635   0.439   5.048   1.685  0.3247  0.1869 -0.6233
 2359TIP3    H128636   0.462   4.971   1.635  1.7287  0.0499  0.1764
 2359TIP3    H228637   0.416   5.015   1.772  1.8602  0.6902  0.0173
 2360TIP3   OH228638   0.437   5.553   0.241  0.5838 -0.2574  0.1318
 2360TIP3    H128639   0.469   5.632   0.283 -1.5264  0.7453 -0.0009
 2360TIP3    H228640   0.388   5.507   0.309  0.8375 -0.8712 -0.0896
 2361TIP3   OH228641   1.717   3.549   2.534  0.1072 -0.3111  0.1163
 2361TIP3    H128642   1.678   3.592   2.610  1.1414  0.3370  0.2958
 2361TIP3    H228643   1.678   3.461   2.534 -0.6594  0.0101  0.7974
 2362TIP3   OH228644   5.447   4.204   8.459  0.7181 -0.0238 -0.3619
 2362TIP3    H128645   5.528   4.236   8.419  2.2688  1.7112  3.6558
 2362TIP3    H228646   5.381   4.269   8.434  1.6292  1.0205 -0.1522
 2363TIP3   OH228647   5.716   4.470   0.119 -0.1674  0.1188  0.0714
 2363TIP3    H128648   5.807   4.495   0.135 -0.5921  0.2876  2.5104
 2363TIP3    H228649   5.713   4.449   0.025  2.2012  0.7710 -0.2040
 2364TIP3   OH228650   6.571   3.997   7.487 -0.2516 -0.3014 -0.2229
 2364TIP3    H128651   6.594   4.031   7.400  0.1404  1.7272  0.6095
 2364TIP3    H228652   6.477   3.979   7.481 -0.3997  0.5947 -0.8631
 2365TIP3   OH228653   4.074   5.205   0.751 -0.2286 -0.0453 -0.1762
 2365TIP3    H128654   4.138   5.276   0.755 -0.4098  0.1413  3.7983
 2365TIP3    H228655   3.992   5.248   0.726  0.0166  0.8606  0.5162
 2366TIP3   OH228656   0.816   1.460   7.483  0.4726 -0.3184 -0.5383
 2366TIP3    H128657   0.760   1.515   7.537 -0.1533 -1.4138 -0.0440
 2366TIP3    H228658   0.770   1.454   7.399 -0.6166 -1.8767  0.1226
 2367TIP3   OH228659   4.481   5.541   7.346  0.0864 -0.4303  0.5273
 2367TIP3    H128660   4.427   5.617   7.369 -0.3799 -0.5418 -0.1686
 2367TIP3    H228661   4.558   5.548   7.403  0.7151  1.3341 -0.4714
 2368TIP3   OH228662   5.014   1.571   2.821 -0.5568  1.1809 -0.3615
 2368TIP3    H128663   5.010   1.475   2.819  0.4182  1.1477 -1.2535
 2368TIP3    H228664   4.925   1.599   2.800 -0.3936  0.4720 -2.1423
 2369TIP3   OH228665   3.489   4.377   2.938  0.3020 -0.4847 -0.2475
 2369TIP3    H128666   3.494   4.391   2.843 -1.1111  0.5878 -0.1938
 2369TIP3    H228667   3.569   4.418   2.972  0.7341 -0.7286 -0.9468
 2370TIP3   OH228668   2.561   6.733   0.245  0.0389  0.4462 -0.1529
 2370TIP3    H128669   2.547   6.787   0.323 -0.2011 -0.5710  0.5383
 2370TIP3    H228670   2.486   6.751   0.189 -1.0020 -0.4857  0.8748
 2371TIP3   OH228671   3.927   0.927   1.555 -0.0355 -0.0657 -0.9786
 2371TIP3    H128672   3.938   0.972   1.639  0.3010  0.1624 -1.1422
 2371TIP3    H228673   3.833   0.909   1.550  0.0942 -1.0946 -0.0399
 2372TIP3   OH228674   4.705   1.534   8.562  0.5361 -0.1672  0.1397
 2372TIP3    H128675   4.679   1.599   8.627 -0.9531 -0.2410 -0.3526
 2372TIP3    H228676   4.794   1.509   8.588  0.0846 -0.0097  1.9711
 2373TIP3   OH228677   2.146   6.501   7.350  0.5088  0.6820 -0.0727
 2373TIP3    H128678   2.226   6.450   7.362 -0.5674 -1.1106 -0.0075
 2373TIP3    H228679   2.087   6.442   7.303 -1.3562  1.2806  1.3621
 2374TIP3   OH228680   5.108   1.558   2.058  0.1044 -0.0508  0.2056
 2374TIP3    H128681   5.170   1.631   2.057 -0.2058  0.2207 -0.6596
 2374TIP3    H228682   5.090   1.541   1.965 -1.2587  0.0084  0.4326
 2375TIP3   OH228683   5.939   6.663   2.574  0.2808  0.0176 -0.2609
 2375TIP3    H128684   5.869   6.707   2.622  0.8029  0.0747  0.4532
 2375TIP3    H228685   5.992   6.734   2.538 -0.0520 -0.0255 -0.8504
 2376TIP3   OH228686   0.294   3.842   2.573 -0.0124  0.1567 -0.8197
 2376TIP3    H128687   0.354   3.917   2.579 -0.0323  0.2674 -1.8029
 2376TIP3    H228688   0.342   3.769   2.613  0.7763  0.2542 -1.5621
 2377TIP3   OH228689   5.778   0.731   7.449 -0.4000  0.1333  0.0055
 2377TIP3    H128690   5.774   0.637   7.431  1.4041 -0.5474  2.5191
 2377TIP3    H228691   5.849   0.763   7.393 -1.0199  0.0483 -0.8586
 2378TIP3   OH228692   5.601   3.848   2.148  0.3684  0.3187 -0.0846
 2378TIP3    H128693   5.607   3.887   2.235  0.6215  1.9242 -0.7681
 2378TIP3    H228694   5.636   3.760   2.157 -3.0738 -1.0216  2.2236
 2379TIP3   OH228695   1.867   5.997   1.569  0.4206  0.1922 -0.5560
 2379TIP3    H128696   1.952   6.020   1.531  1.0308  0.1563  0.7184
 2379TIP3    H228697   1.888   5.928   1.632 -0.1371  1.9655  1.6838
 2380TIP3   OH228698   1.337   4.776   1.192 -0.0247 -0.5208  0.3731
 2380TIP3    H128699   1.421   4.821   1.204  0.5194 -0.7926 -1.9567
 2380TIP3    H228700   1.272   4.845   1.197  0.6463  0.2597 -1.2252
 2381TIP3   OH228701   3.402   0.645   1.436  0.2984 -0.5389  0.1971
 2381TIP3    H128702   3.456   0.676   1.363  0.0599 -0.6219 -0.0155
 2381TIP3    H228703   3.342   0.581   1.396 -0.9268  0.6060  0.1569
 2382TIP3   OH228704   0.530   6.732   1.182 -0.0833  0.0105 -0.9191
 2382TIP3    H128705   0.488   6.704   1.101  1.5082  0.9935 -2.1657
 2382TIP3    H228706   0.623   6.736   1.160  0.4703 -0.2900  1.1598
 2383TIP3   OH228707   2.880   4.525   7.584  0.5108 -0.2731  0.0683
 2383TIP3    H128708   2.971   4.496   7.592 -0.0330 -1.8732  0.9458
 2383TIP3    H228709   2.839   4.499   7.666 -0.3506  2.0654  0.4530
 2384TIP3   OH228710   3.067   6.205   0.910  0.2922  0.5148 -0.6699
 2384TIP3    H128711   3.123   6.149   0.964  0.2948 -0.4417 -1.6228
 2384TIP3    H228712   2.997   6.147   0.880 -0.3800  1.3277 -0.7102
 2385TIP3   OH228713   2.111   5.109   2.371 -0.5164  0.0141 -0.0655
 2385TIP3    H128714   2.192   5.117   2.421  2.1096 -0.4383 -3.7821
 2385TIP3    H228715   2.053   5.176   2.407  2.5035  2.1999  1.1240
 2386TIP3   OH228716   0.640   6.638   0.322  0.2646  0.6876 -0.0501
 2386TIP3    H128717   0.688   6.693   0.384 -0.4360  0.1637  0.9787
 2386TIP3    H228718   0.555   6.681   0.312  0.6285  1.1879 -1.2660
 2387TIP3   OH228719   4.028   4.773   7.771 -0.1228 -0.4858  0.0174
 2387TIP3    H128720   3.953   4.734   7.817 -0.3262  1.0153  1.0707
 2387TIP3    H228721   4.046   4.853   7.821  0.0399  0.9365 -2.2022
 2388TIP3   OH228722   2.968   5.324   2.280  0.2771  0.0547  0.5065
 2388TIP3    H128723   2.974   5.352   2.371 -0.7641 -0.0487  0.6123
 2388TIP3    H228724   3.012   5.239   2.278  0.9631  0.3953  0.7491
 2389TIP3   OH228725   6.541   5.558   7.041  0.3695  0.7718  0.5094
 2389TIP3    H128726   6.456   5.519   7.018 -0.5901  2.0619  1.7378
 2389TIP3    H228727   6.604   5.488   7.023 -0.9676 -0.3229 -0.1690
 2390TIP3   OH228728   4.844   5.731   1.036 -0.4880  0.4241  0.0194
 2390TIP3    H128729   4.875   5.641   1.021 -0.1074  0.5884 -0.1940
 2390TIP3    H228730   4.782   5.747   0.966  1.8333  1.4535 -1.9138
 2391TIP3   OH228731   4.981   2.191   1.343  0.3704 -0.5316 -0.2748
 2391TIP3    H128732   5.047   2.124   1.329  0.3412 -0.5692 -0.2370
 2391TIP3    H228733   4.986   2.211   1.437 -0.3460 -1.2520 -0.0723
 2392TIP3   OH228734   5.228   1.830   8.121  0.5032 -1.0478  0.6569
 2392TIP3    H128735   5.187   1.751   8.085  0.6993 -1.0165  0.3588
 2392TIP3    H228736   5.282   1.798   8.194 -0.4674 -1.0202  1.3996
 2393TIP3   OH228737   4.439   1.456   7.243 -0.2247  0.1964 -0.2187
 2393TIP3    H128738   4.359   1.508   7.237 -0.1566  0.2930 -0.3169
 2393TIP3    H228739   4.488   1.495   7.315  0.0167  0.5397 -0.5632
 2394TIP3   OH228740   6.135   2.800   0.827  0.2317 -0.1732  0.1715
 2394TIP3    H128741   6.106   2.793   0.918  0.1656 -1.0261  0.0940
 2394TIP3    H228742   6.229   2.780   0.830  0.1083 -0.8190 -0.0171
 2395TIP3   OH228743   2.989   2.776   6.914 -0.0526  0.4567 -0.3986
 2395TIP3    H128744   3.016   2.762   6.823 -1.8038 -0.0973 -0.8772
 2395TIP3    H228745   3.026   2.860   6.938  0.8575  0.3791 -1.4576
 2396TIP3   OH228746   1.541   1.768   0.468 -0.0942  0.2843 -0.3836
 2396TIP3    H128747   1.487   1.830   0.517  0.0867 -1.7849  2.7838
 2396TIP3    H228748   1.627   1.810   0.463 -0.9368  1.9415 -1.9896
 2397TIP3   OH228749   4.127   3.968   7.779  0.4232  0.2342  0.6242
 2397TIP3    H128750   4.066   3.908   7.820  1.0830 -1.0905 -0.2788
 2397TIP3    H228751   4.154   4.027   7.849 -0.1091 -0.6217  1.5645
 2398TIP3   OH228752   1.922   5.875   0.766 -0.3555  0.5194 -0.1096
 2398TIP3    H128753   1.963   5.932   0.701 -0.2412 -0.0134 -0.5106
 2398TIP3    H228754   1.921   5.927   0.847  1.3248  0.4522 -0.0180
 2399TIP3   OH228755   4.719   1.480   1.772  0.4595  0.0406 -0.8736
 2399TIP3    H128756   4.716   1.556   1.714  1.8131  0.7033 -0.0927
 2399TIP3    H228757   4.638   1.432   1.752  0.3120  0.8849 -2.4378
 2400TIP3   OH228758   0.493   2.680   0.498  0.3669  0.0683 -0.4803
 2400TIP3    H128759   0.527   2.696   0.410  1.5253 -1.4412 -0.3442
 2400TIP3    H228760   0.403   2.651   0.485  0.2124  0.8006 -1.0876
 2401TIP3   OH228761   5.259   1.547   2.713 -0.2237  0.0187  0.0779
 2401TIP3    H128762   5.246   1.465   2.665 -0.6142  0.5342 -0.7259
 2401TIP3    H228763   5.176   1.560   2.760 -0.3143  0.1479 -0.1138
 2402TIP3   OH228764   6.168   2.768   1.744  0.0735  0.0938 -0.2913
 2402TIP3    H128765   6.238   2.713   1.779 -0.6867 -1.0979 -0.6146
 2402TIP3    H228766   6.117   2.710   1.688 -0.8318  1.0965 -0.5341
 2403TIP3   OH228767   1.651   0.542   0.176 -0.0736  0.5849  0.1493
 2403TIP3    H128768   1.633   0.487   0.100  2.7016 -0.0683 -0.1459
 2403TIP3    H228769   1.671   0.481   0.246 -0.1964  1.1945  0.7284
 2404TIP3   OH228770   2.069   2.237   2.568  0.1942 -0.0812 -0.1413
 2404TIP3    H128771   2.121   2.317   2.562  1.4574 -0.9765 -2.1695
 2404TIP3    H228772   1.988   2.257   2.522 -0.5421  0.7107  1.3927
 2405TIP3   OH228773   2.559   5.853   7.025  0.0976 -0.1862  0.1271
 2405TIP3    H128774   2.575   5.936   7.071  0.0954 -0.4231  0.5562
 2405TIP3    H228775   2.610   5.861   6.944  2.2755 -0.8327  1.3588
 2406TIP3   OH228776   5.311   3.610   8.187 -0.1407  0.4156  0.1123
 2406TIP3    H128777   5.244   3.621   8.255  0.1421  2.3879  0.1181
 2406TIP3    H228778   5.392   3.637   8.230  0.0244  1.8105 -1.0196
 2407TIP3   OH228779   3.383   5.064   7.358  0.6979  0.1161  0.0112
 2407TIP3    H128780   3.418   4.983   7.320 -0.1258  0.1667 -0.8890
 2407TIP3    H228781   3.371   5.123   7.283 -1.3893  0.0544  0.2189
 2408TIP3   OH228782   1.910   5.296   7.617  0.4676  0.4160 -0.5666
 2408TIP3    H128783   1.831   5.251   7.646  1.2940 -0.2092  0.7995
 2408TIP3    H228784   1.943   5.341   7.695  1.7375  0.2551 -0.9807
 2409TIP3   OH228785   3.530   0.646   7.106 -0.7169 -0.5922 -0.2549
 2409TIP3    H128786   3.446   0.685   7.132 -0.6558 -1.4157  1.2483
 2409TIP3    H228787   3.585   0.653   7.184  0.7457  0.1931 -1.2986
 2410TIP3   OH228788   1.899   4.221   0.903 -0.3510  0.2808  0.0262
 2410TIP3    H128789   1.844   4.248   0.976  2.1629  0.8031  1.8595
 2410TIP3    H228790   1.933   4.303   0.867  1.8929 -0.0758  1.1798
 2411TIP3   OH228791   5.932   2.353   2.885  0.0062  0.2611  0.4421
 2411TIP3    H128792   5.906   2.273   2.840 -0.2976  0.6872 -0.1661
 2411TIP3    H228793   6.006   2.328   2.940 -0.5745 -0.5985  0.8508
 2412TIP3   OH228794   2.996   4.251   2.132  0.5662  0.2696 -1.3222
 2412TIP3    H128795   2.947   4.290   2.203 -1.0107 -0.7447 -1.8005
 2412TIP3    H228796   2.945   4.270   2.053  1.3613 -0.1149 -1.9534
 2413TIP3   OH228797   5.873   3.428   0.738  0.1630 -0.0455  0.4870
 2413TIP3    H128798   5.856   3.449   0.647  0.0244 -0.6466  0.3712
 2413TIP3    H228799   5.843   3.337   0.748 -0.3450  0.1970  1.2686
 2414TIP3   OH228800   5.885   3.849   1.457  0.1075 -0.8409  0.1802
 2414TIP3    H128801   5.975   3.836   1.427 -0.5655  0.8526 -3.0442
 2414TIP3    H228802   5.893   3.864   1.552  2.6624 -4.8553  0.8438
 2415TIP3   OH228803   3.519   5.188   2.156  0.0501 -0.0150  0.1207
 2415TIP3    H128804   3.452   5.186   2.087 -0.2515 -0.5199  0.4231
 2415TIP3    H228805   3.594   5.142   2.117  0.8192  1.8749 -0.7959
 2416TIP3   OH228806   6.676   4.050   0.311  0.0540  0.3494  0.2278
 2416TIP3    H128807   6.605   3.986   0.319  0.9677 -0.8319 -0.6683
 2416TIP3    H228808   6.650   4.106   0.237 -0.9677  1.3478  1.3077
 2417TIP3   OH228809   3.324   0.448   1.241 -0.5711  0.2281  0.3137
 2417TIP3    H128810   3.254   0.420   1.182 -0.4564 -0.0728  0.3182
 2417TIP3    H228811   3.388   0.489   1.184 -0.3196 -0.3316  0.1826
 2418TIP3   OH228812   0.772   5.229   1.296 -0.0714  0.0785 -0.1112
 2418TIP3    H128813   0.784   5.280   1.377  2.5708  1.9618 -1.5148
 2418TIP3    H228814   0.766   5.138   1.326  1.2313  0.6689  2.2291
 2419TIP3   OH228815   6.746   6.592   7.755  0.4077 -0.2156 -0.1162
 2419TIP3    H128816   6.812   6.529   7.783  0.4523 -0.1194 -0.0079
 2419TIP3    H228817   6.742   6.582   7.660  1.8269  1.0111 -0.3452
 2420TIP3   OH228818   0.636   0.205   1.166  0.6560 -0.0822  0.3539
 2420TIP3    H128819   0.569   0.163   1.220 -0.5873 -2.4554 -2.7018
 2420TIP3    H228820   0.713   0.149   1.174  0.5225 -0.3457 -0.1455
 2421TIP3   OH228821   5.408   6.447   7.052 -0.0253 -0.0504 -0.2279
 2421TIP3    H128822   5.341   6.389   7.015  0.9506 -1.3201 -0.0573
 2421TIP3    H228823   5.401   6.527   7.001 -0.4634 -0.8185 -1.4144
 2422TIP3   OH228824   3.544   3.499   1.749 -0.7373  0.2665  0.0222
 2422TIP3    H128825   3.573   3.415   1.785 -0.9014  0.3073  0.2464
 2422TIP3    H228826   3.525   3.480   1.657  1.7051  0.6235 -0.6141
 2423TIP3   OH228827   2.629   2.585   0.995 -0.3315 -0.1444 -0.1692
 2423TIP3    H128828   2.593   2.619   1.076  1.8523 -0.3773  0.9813
 2423TIP3    H228829   2.700   2.526   1.023  0.6849 -0.0019 -2.2297
 2424TIP3   OH228830   3.453   2.985   0.781  0.2486  0.5488  0.8038
 2424TIP3    H128831   3.501   2.944   0.709 -0.6503  0.0049  0.4950
 2424TIP3    H228832   3.410   2.913   0.826 -1.4069  1.1130  0.2116
 2425TIP3   OH228833   0.346   2.765   2.695  0.1486 -0.3804 -0.4706
 2425TIP3    H128834   0.419   2.784   2.753 -1.1118  0.2097  0.9729
 2425TIP3    H228835   0.344   2.838   2.634  0.6041 -0.2766 -0.3636
 2426TIP3   OH228836   4.976   1.887   1.492  0.3610 -0.1009  0.1575
 2426TIP3    H128837   5.068   1.901   1.512  0.3646 -0.4936  0.4277
 2426TIP3    H228838   4.967   1.792   1.482  0.0119 -0.0549  0.0134
 2427TIP3   OH228839   3.754   3.640   1.902 -0.2331  0.0543  0.0738
 2427TIP3    H128840   3.658   3.641   1.903 -0.2927 -0.8382 -1.5968
 2427TIP3    H228841   3.777   3.674   1.816  0.9014 -1.0892 -0.1038
 2428TIP3   OH228842   5.114   4.824   1.972 -0.0307  0.1422  0.0598
 2428TIP3    H128843   5.192   4.840   2.026 -0.3725  1.3710  0.2359
 2428TIP3    H228844   5.148   4.813   1.883  0.3253  1.3989  0.0116
 2429TIP3   OH228845   0.805   5.432   1.853  0.1391  0.2946  0.1895
 2429TIP3    H128846   0.850   5.454   1.772 -2.8952  0.3766 -1.6442
 2429TIP3    H228847   0.834   5.343   1.874  0.8138  0.1886 -1.1332
 2430TIP3   OH228848   1.698   0.555   0.996 -0.1806  0.2460 -0.1296
 2430TIP3    H128849   1.680   0.470   1.037  0.1082  0.7056  0.9776
 2430TIP3    H228850   1.762   0.596   1.054  0.1491  0.9741 -0.9925
 2431TIP3   OH228851   4.426   5.337   7.602  0.4877 -0.2665  0.3218
 2431TIP3    H128852   4.388   5.400   7.541  0.9661  1.0259  1.3248
 2431TIP3    H228853   4.373   5.345   7.681  0.7734 -0.8783  0.5775
 2432TIP3   OH228854   6.737   6.103   6.881  0.7367 -0.0552  0.0689
 2432TIP3    H128855   6.760   6.138   6.967  1.1485  1.4037 -0.6008
 2432TIP3    H228856   6.663   6.044   6.898 -0.0615  1.2278  1.2580
 2433TIP3   OH228857   0.523   1.634   8.380  0.1094 -0.6072  0.1037
 2433TIP3    H128858   0.596   1.682   8.419 -0.9405  0.9443  0.2250
 2433TIP3    H228859   0.530   1.546   8.418  0.3270  0.2717  2.2876
 2434TIP3   OH228860   6.062   1.081   8.036  0.3808 -0.7154 -0.4330
 2434TIP3    H128861   6.050   1.170   8.003  3.5485  0.0868  0.2112
 2434TIP3    H228862   6.040   1.086   8.129 -2.4751 -1.4783 -0.9597
 2435TIP3   OH228863   6.040   3.766   0.362 -0.5371  0.2991  0.5133
 2435TIP3    H128864   6.046   3.766   0.267 -3.1347 -0.6739  0.2699
 2435TIP3    H228865   5.994   3.848   0.384 -1.7221 -0.4027  0.7280
 2436TIP3   OH228866   2.980   1.162   0.601 -0.4826 -0.7039  0.1914
 2436TIP3    H128867   3.024   1.079   0.621 -0.1708 -0.7249 -0.5569
 2436TIP3    H228868   2.951   1.153   0.510  0.7877  0.5333 -0.3706
 2437TIP3   OH228869   1.291   1.178   7.394 -0.5683 -0.2812  0.1892
 2437TIP3    H128870   1.229   1.105   7.384 -0.9527  0.2181 -1.3005
 2437TIP3    H228871   1.283   1.228   7.313  1.2492  0.2257  0.2736
 2438TIP3   OH228872   3.214   3.117   1.651 -1.1065  0.0576  0.2933
 2438TIP3    H128873   3.169   3.185   1.700 -1.0362  1.3990 -1.4145
 2438TIP3    H228874   3.144   3.074   1.601 -1.0794 -0.8389  0.9940
 2439TIP3   OH228875   6.348   5.438   1.296 -0.6581 -0.1235  0.0935
 2439TIP3    H128876   6.432   5.440   1.251 -0.9383  0.0161 -0.4354
 2439TIP3    H228877   6.370   5.418   1.387 -0.1098 -0.8572 -0.1835
 2440TIP3   OH228878   4.046   0.995   0.384 -0.7714 -0.4873  0.4785
 2440TIP3    H128879   4.125   0.973   0.334 -0.9494  0.5051 -0.2748
 2440TIP3    H228880   4.025   0.915   0.432 -0.3337 -1.3358 -0.6973
 2441TIP3   OH228881   6.499   0.156   8.594  0.1288 -0.3288 -0.3800
 2441TIP3    H128882   6.449   0.210   8.533  0.9045 -0.6413 -1.3052
 2441TIP3    H228883   6.565   0.114   8.541  0.8415 -0.5985  0.6853
 2442TIP3   OH228884   5.348   0.045   1.741  0.2846  1.0496  0.3649
 2442TIP3    H128885   5.319  -0.046   1.744  0.0403  0.9935 -1.8289
 2442TIP3    H228886   5.425   0.044   1.683  0.6129  2.1631  0.7453
 2443TIP3   OH228887   4.491   3.747   2.881 -0.1281  0.2289 -0.1649
 2443TIP3    H128888   4.567   3.777   2.831  0.0004  0.1704 -0.0069
 2443TIP3    H228889   4.488   3.804   2.958 -0.3564  0.3528 -0.2663
 2444TIP3   OH228890   4.428   6.167   0.768 -0.3036  0.4122  0.2726
 2444TIP3    H128891   4.415   6.072   0.758  1.9674 -0.0376  1.1477
 2444TIP3    H228892   4.462   6.177   0.856  1.2200  1.8510 -0.4403
 2445TIP3   OH228893   1.209   1.322   7.178  0.0404 -0.2124  0.3123
 2445TIP3    H128894   1.159   1.274   7.113 -1.1297  1.2382  0.1005
 2445TIP3    H228895   1.238   1.401   7.133  2.6649 -1.0366  0.3935
 2446TIP3   OH228896   3.757   2.628   0.613  0.0746 -0.0649 -0.1900
 2446TIP3    H128897   3.783   2.536   0.618  0.7207  0.0063 -1.5970
 2446TIP3    H228898   3.794   2.668   0.692 -0.1195 -0.9858  0.3769
 2447TIP3   OH228899   2.245   4.884   1.132  0.0794  0.1669  0.6462
 2447TIP3    H128900   2.290   4.968   1.139  0.5847 -0.0899  0.4984
 2447TIP3    H228901   2.196   4.877   1.214 -1.5044  1.4696 -0.1212
 2448TIP3   OH228902   1.507   4.995   8.619 -0.0834 -0.0699  0.0200
 2448TIP3    H128903   1.420   5.034   8.622  0.0627  0.2251  0.5610
 2448TIP3    H228904   1.544   5.012   8.705  1.3135  1.6550 -0.8443
 2449TIP3   OH228905   5.344   1.771   3.204 -0.1681 -0.2324 -0.0214
 2449TIP3    H128906   5.428   1.799   3.238  0.2322  1.0003 -1.8703
 2449TIP3    H228907   5.287   1.847   3.214 -0.4871 -0.3873 -0.5889
 2450TIP3   OH228908   3.066   3.115   8.545 -0.4547 -0.2745  0.2110
 2450TIP3    H128909   3.159   3.099   8.528 -0.4408  0.4367 -0.4366
 2450TIP3    H228910   3.050   3.075   8.630  0.8775  1.1550  1.1849
 2451TIP3   OH228911   4.805   3.072   1.263 -0.4402  0.1127  0.3907
 2451TIP3    H128912   4.721   3.030   1.285 -0.9094  0.7919 -0.0769
 2451TIP3    H228913   4.790   3.116   1.180  0.0195  1.2375  0.8672
 2452TIP3   OH228914   4.034   3.921   8.477 -0.3981 -0.0557 -0.1870
 2452TIP3    H128915   4.002   3.839   8.440 -0.3460 -0.5901  0.8857
 2452TIP3    H228916   3.993   3.925   8.564  2.3922 -0.8385  1.3255
 2453TIP3   OH228917   1.065   6.673   0.571  0.7979 -0.1342  0.4988
 2453TIP3    H128918   1.021   6.699   0.490  0.2069  0.0785  0.8831
 2453TIP3    H228919   1.145   6.726   0.573 -1.0930  2.9531  2.0186
 2454TIP3   OH228920   1.587   1.027   0.778  0.1141  0.1742 -0.0280
 2454TIP3    H128921   1.498   1.012   0.810  0.7025 -0.2963  1.4716
 2454TIP3    H228922   1.637   0.952   0.809  1.1365  0.6599 -0.4501
 2455TIP3   OH228923   2.472   5.277   0.655 -0.1953  0.0863 -0.1125
 2455TIP3    H128924   2.537   5.225   0.610 -1.3231 -0.4175 -1.2063
 2455TIP3    H228925   2.484   5.256   0.748  1.2749  0.1315 -0.2818
 2456TIP3   OH228926   4.693   4.717   0.988 -0.1440 -0.0517  1.0702
 2456TIP3    H128927   4.783   4.692   0.965 -0.6860 -1.1781  0.0781
 2456TIP3    H228928   4.659   4.641   1.035 -0.9335 -0.0754  0.4654
 2457TIP3   OH228929   3.986   0.392   7.987  1.0053 -0.1470 -0.4789
 2457TIP3    H128930   3.983   0.375   7.892  0.9675  1.4614 -0.7915
 2457TIP3    H228931   4.079   0.406   8.006  0.9175  0.4333 -0.4604
 2458TIP3   OH228932   5.954   1.096   8.284  0.2544 -0.2216  0.5223
 2458TIP3    H128933   5.930   1.100   8.377  0.3574  0.4549  0.5225
 2458TIP3    H228934   5.871   1.111   8.238  0.5126  1.4308  0.5226
 2459TIP3   OH228935   4.880   5.146   1.968 -0.0867  0.9753 -0.4394
 2459TIP3    H128936   4.791   5.177   1.985 -0.1633  0.2338  0.6550
 2459TIP3    H228937   4.901   5.092   2.045  1.1041  0.7022 -0.9380
 2460TIP3   OH228938   5.886   6.377   2.525  0.5168 -0.1809 -0.0306
 2460TIP3    H128939   5.949   6.317   2.566  0.4285 -0.6732 -0.6082
 2460TIP3    H228940   5.914   6.464   2.554  0.7361 -0.4809  0.6941
 2461TIP3   OH228941   1.630   5.156   1.361  0.1214  0.5645  0.4123
 2461TIP3    H128942   1.623   5.226   1.426 -1.9767  0.2627  0.6028
 2461TIP3    H228943   1.631   5.201   1.277  1.5036  0.9005  0.5818
 2462TIP3   OH228944   0.961   1.772   1.956  0.2332 -0.2739  0.3944
 2462TIP3    H128945   0.902   1.795   2.028 -0.0797 -0.1091  0.0911
 2462TIP3    H228946   0.977   1.854   1.911  2.4873  0.1268  1.7543
 2463TIP3   OH228947   2.939   1.007   1.235 -0.4789  0.1370 -0.3444
 2463TIP3    H128948   3.006   1.074   1.226 -0.1519 -0.1915 -0.3770
 2463TIP3    H228949   2.863   1.042   1.189 -1.5626  2.1072  2.6477
 2464TIP3   OH228950   2.987   4.492   2.385  0.1178  0.2115  0.1233
 2464TIP3    H128951   2.977   4.548   2.462  0.3736  1.2476 -0.5668
 2464TIP3    H228952   2.962   4.405   2.415  1.6084  0.2995  1.7597
 2465TIP3   OH228953   1.147   4.976   8.148  0.0942 -0.4075  0.6572
 2465TIP3    H128954   1.071   5.006   8.098  0.8732 -0.2277 -0.4514
 2465TIP3    H228955   1.110   4.941   8.229 -0.9786  2.0225  1.3043
 2466TIP3   OH228956   5.085   6.724   1.734 -0.5556 -0.2768 -0.7843
 2466TIP3    H128957   5.012   6.667   1.710 -0.5959  0.1632 -1.7664
 2466TIP3    H228958   5.163   6.676   1.707 -0.3428 -1.4097  1.6098
 2467TIP3   OH228959   4.902   1.076   8.145  0.0349  0.4530  0.7559
 2467TIP3    H128960   4.828   1.133   8.165 -1.0023  0.0149 -1.4582
 2467TIP3    H228961   4.868   0.987   8.161  1.0725  0.3281  2.5046
 2468TIP3   OH228962   3.380   3.169   8.650 -0.2183  0.8110  0.1075
 2468TIP3    H128963   3.360   3.174   8.557  1.1150  0.1067 -0.2396
 2468TIP3    H228964   3.339   3.247   8.687 -1.2058  0.8323 -0.9679
 2469TIP3   OH228965   2.072   3.057   7.972  0.1014 -0.3390 -0.4564
 2469TIP3    H128966   2.073   2.971   8.015  0.0656 -0.6080 -0.9809
 2469TIP3    H228967   1.979   3.077   7.962  0.1099 -0.3258 -0.5070
 2470TIP3   OH228968   5.585   2.064   7.388 -0.0820  0.1182  0.0863
 2470TIP3    H128969   5.657   2.063   7.325 -1.5992  0.8514 -1.7216
 2470TIP3    H228970   5.541   1.981   7.376 -0.2775  0.1852  0.3302
 2471TIP3   OH228971   2.541   0.287   8.661 -0.5244  0.3403  0.1970
 2471TIP3    H128972   2.448   0.275   8.680 -0.3666  0.2540  0.9837
 2471TIP3    H228973   2.585   0.260   8.742  0.0114  3.9832  1.2777
 2472TIP3   OH228974   6.621   3.591   0.541  0.5892 -0.1673 -0.8017
 2472TIP3    H128975   6.543   3.607   0.487  1.8161  1.2291 -2.2439
 2472TIP3    H228976   6.610   3.648   0.617  0.6921  0.8705 -1.5413
 2473TIP3   OH228977   1.047   6.590   2.240 -0.1819  0.2249  0.3768
 2473TIP3    H128978   1.026   6.498   2.229  0.7016  0.1604 -0.9845
 2473TIP3    H228979   1.128   6.603   2.191  0.0270  1.6055  1.0160
 2474TIP3   OH228980   1.989   1.204   2.971  0.2048 -0.0112  0.2101
 2474TIP3    H128981   2.030   1.268   3.030  0.0870 -0.5918  0.9273
 2474TIP3    H228982   1.900   1.237   2.958  0.5423  0.6639 -0.4738
 2475TIP3   OH228983   4.965   3.654   2.457 -0.1836  0.1247 -0.3582
 2475TIP3    H128984   5.060   3.654   2.447 -0.2484  2.4177 -1.8121
 2475TIP3    H228985   4.951   3.637   2.550  1.6558 -0.0792 -0.0689
 2476TIP3   OH228986   6.303   6.000   2.315  0.1151  0.7380 -0.1734
 2476TIP3    H128987   6.397   6.018   2.316 -0.0090  1.4280 -0.1180
 2476TIP3    H228988   6.278   5.994   2.407  0.3183 -0.6573 -0.2020
 2477TIP3   OH228989   4.059   2.486   2.252 -0.4369 -0.1083 -0.0740
 2477TIP3    H128990   4.089   2.530   2.172  2.0859  0.1308  0.9284
 2477TIP3    H228991   4.005   2.552   2.297 -0.3912  0.3747 -0.7131
 2478TIP3   OH228992   3.050   0.077   8.609  0.1891 -0.1725 -0.3506
 2478TIP3    H128993   3.111   0.084   8.536  0.9160  0.1025  0.2621
 2478TIP3    H228994   3.035  -0.017   8.620  0.8834 -0.2695 -0.2069
 2479TIP3   OH228995   1.200   6.203   7.271 -0.3964 -0.0379 -0.0689
 2479TIP3    H128996   1.133   6.270   7.263 -0.1030  0.3577  0.6371
 2479TIP3    H228997   1.154   6.127   7.307 -0.2678  0.6139  1.5723
 2480TIP3   OH228998   5.844   3.016   7.249 -1.0690 -0.0724 -0.7518
 2480TIP3    H128999   5.818   3.057   7.167 -2.1356  0.7486 -0.0217
 2480TIP3    H229000   5.940   3.016   7.246 -1.0768  0.8496 -1.5635
 2481TIP3   OH229001   0.476   1.696   0.731  0.2247  0.1133 -0.0013
 2481TIP3    H129002   0.483   1.762   0.800 -1.5708 -0.5685  0.8965
 2481TIP3    H229003   0.535   1.627   0.759 -0.0194  0.1150  0.5405
 2482TIP3   OH229004   6.562   0.182   8.064  0.2668  0.0163  0.0083
 2482TIP3    H129005   6.642   0.199   8.014  0.1357  3.0822  0.6799
 2482TIP3    H229006   6.503   0.141   8.000  0.8159  1.9081 -1.8408
 2483TIP3   OH229007   2.681   0.191   0.307 -0.2204 -0.4193  0.1311
 2483TIP3    H129008   2.664   0.144   0.388 -1.8916  1.0642  0.7098
 2483TIP3    H229009   2.770   0.225   0.318 -0.1648 -0.8203  1.0429
 2484TIP3   OH229010   3.251   4.991   1.339 -0.1400 -0.5057 -0.4602
 2484TIP3    H129011   3.288   5.079   1.337  1.2068 -1.0653 -1.5315
 2484TIP3    H229012   3.308   4.943   1.399 -0.6872 -0.7431 -0.1179
 2485TIP3   OH229013   1.838   1.563   2.013  0.5281  1.0450 -0.8218
 2485TIP3    H129014   1.874   1.551   2.101  1.5919  1.0899 -1.2405
 2485TIP3    H229015   1.777   1.636   2.022  1.9723  2.2380 -0.4876
 2486TIP3   OH229016   2.833   5.161   1.398  0.5688  0.9206  0.1137
 2486TIP3    H129017   2.879   5.236   1.435 -0.7600  1.0283  1.6700
 2486TIP3    H229018   2.893   5.088   1.409  0.7893  1.2430  1.1619
 2487TIP3   OH229019   2.428   6.506   7.895 -0.0522 -0.1551  0.6334
 2487TIP3    H129020   2.365   6.523   7.825 -0.9946 -0.6044  1.3516
 2487TIP3    H229021   2.495   6.451   7.854  1.1140  2.1654 -0.7385
 2488TIP3   OH229022   3.165   3.769   6.857 -0.3350 -0.0794 -0.6805
 2488TIP3    H129023   3.096   3.830   6.833 -1.4039 -1.2552 -0.6911
 2488TIP3    H229024   3.136   3.732   6.941  2.3011  2.4163  1.5590
 2489TIP3   OH229025   2.646   4.446   0.029 -0.2673 -0.4215 -0.3407
 2489TIP3    H129026   2.602   4.366  -0.000  0.2675 -0.7949 -0.1427
 2489TIP3    H229027   2.738   4.430   0.011 -0.0715 -0.1537  0.3885
 2490TIP3   OH229028   4.907   1.684   7.764 -0.0015  0.5552  0.0429
 2490TIP3    H129029   4.817   1.715   7.770 -0.6860 -1.0624 -1.1948
 2490TIP3    H229030   4.958   1.761   7.739 -0.7250  1.8941  2.4077
 2491TIP3   OH229031   4.119   4.745   0.489  0.0762  0.3940 -0.0440
 2491TIP3    H129032   4.080   4.830   0.511  1.2031  0.9331 -0.0589
 2491TIP3    H229033   4.186   4.766   0.424  1.6902 -0.2143  1.3409
 2492TIP3   OH229034   1.569   1.859   7.615  0.0017 -0.3875  0.3643
 2492TIP3    H129035   1.485   1.813   7.612 -0.5916  0.6393  0.7688
 2492TIP3    H229036   1.551   1.945   7.576  0.3936  0.5249  2.0987
 2493TIP3   OH229037   2.707   4.890   0.369  0.6607 -0.0700  0.1295
 2493TIP3    H129038   2.733   4.798   0.363  1.0979  0.1549 -2.0807
 2493TIP3    H229039   2.650   4.904   0.294 -0.6110  1.1311  1.2628
 2494TIP3   OH229040   4.506   0.101   1.304 -0.1699  0.9913  0.2926
 2494TIP3    H129041   4.597   0.112   1.332  0.0660  0.7027 -0.3567
 2494TIP3    H229042   4.508   0.112   1.209 -0.4588 -1.2036 -0.0198
 2495TIP3   OH229043   4.373   2.427   1.148 -0.5613  0.3247 -0.3514
 2495TIP3    H129044   4.327   2.459   1.070 -0.6478  0.1813 -0.3614
 2495TIP3    H229045   4.354   2.492   1.215 -1.3601 -0.0860 -0.1687
 2496TIP3   OH229046   0.196   2.552   0.620 -0.2935 -0.2336  0.2142
 2496TIP3    H129047   0.240   2.481   0.574  0.0612 -1.6577  2.5737
 2496TIP3    H229048   0.146   2.598   0.552  1.0523 -1.4866 -1.7195
 2497TIP3   OH229049   4.961   0.967   1.484 -0.7172 -0.3189  0.1747
 2497TIP3    H129050   4.910   0.919   1.419 -1.9366  0.9944  0.1192
 2497TIP3    H229051   4.903   0.974   1.559  0.0598 -0.3412  0.7955
 2498TIP3   OH229052   3.805   3.866   7.720 -0.3436 -0.2677  0.2031
 2498TIP3    H129053   3.712   3.881   7.735 -0.3093  1.2880 -0.9314
 2498TIP3    H229054   3.846   3.889   7.803 -0.7876  1.1759  0.0401
 2499TIP3   OH229055   4.510   0.133   2.675  0.4351 -0.4092  0.1236
 2499TIP3    H129056   4.445   0.112   2.742  1.3669 -2.5626  0.4280
 2499TIP3    H229057   4.553   0.050   2.655  0.8338  0.3269 -2.5103
 2500TIP3   OH229058   3.060   4.153   7.517  0.0538  0.0800  0.6901
 2500TIP3    H129059   3.148   4.129   7.490  0.4584 -0.5781  2.4678
 2500TIP3    H229060   3.034   4.222   7.456  0.7482 -1.5062 -1.5489
 2501TIP3   OH229061   2.231   3.658   1.997  0.2231  0.0359  0.6064
 2501TIP3    H129062   2.209   3.578   1.949 -0.3193  0.3038  0.3978
 2501TIP3    H229063   2.147   3.703   2.007  0.3915  0.1662  1.4809
 2502TIP3   OH229064   1.683   4.775   7.691 -0.2956  0.4067  0.0007
 2502TIP3    H129065   1.660   4.825   7.770 -0.7334 -0.1005  0.2083
 2502TIP3    H229066   1.598   4.752   7.653 -0.1153 -0.4544  0.1000
 2503TIP3   OH229067   5.425   3.257   8.455 -0.2513  0.0395 -0.1109
 2503TIP3    H129068   5.510   3.293   8.428 -0.2498  0.6986  0.7049
 2503TIP3    H229069   5.385   3.327   8.506 -0.0535 -1.2410  1.9460
 2504TIP3   OH229070   2.403   4.025   1.557 -0.3706  0.4129 -0.1481
 2504TIP3    H129071   2.446   4.108   1.534 -1.2753  0.4847 -1.6796
 2504TIP3    H229072   2.347   4.005   1.482 -2.3258 -0.1582  1.4062
 2505TIP3   OH229073   5.686   5.602   7.857  0.4867  0.3185  0.7227
 2505TIP3    H129074   5.679   5.697   7.862  0.6441  0.4649 -1.1148
 2505TIP3    H229075   5.596   5.571   7.847  0.4109  0.2352  1.5824
 2506TIP3   OH229076   1.190   5.994   8.042  0.4051 -0.2051 -0.2971
 2506TIP3    H129077   1.134   6.031   7.974  0.2318 -0.6807 -0.4208
 2506TIP3    H229078   1.179   6.052   8.117  0.6900  0.3906 -0.7110
 2507TIP3   OH229079   3.939   4.681   1.827  0.1343 -0.5309  0.7297
 2507TIP3    H129080   3.987   4.740   1.883  1.8013 -2.2536  1.2193
 2507TIP3    H229081   3.903   4.614   1.886  1.2122 -1.9039 -0.0902
 2508TIP3   OH229082   1.102   6.519   7.046  0.7866  0.2271  0.4482
 2508TIP3    H129083   1.050   6.596   7.025  0.3223 -0.4083 -0.8502
 2508TIP3    H229084   1.169   6.515   6.979  0.5807 -0.6868  0.2782
 2509TIP3   OH229085   4.327   4.170   2.246  0.1174 -0.1788 -0.4115
 2509TIP3    H129086   4.353   4.083   2.277 -1.1476 -0.3839  0.1475
 2509TIP3    H229087   4.343   4.228   2.321 -0.6169 -0.2346 -0.2068
 2510TIP3   OH229088   4.166   5.157   2.853  0.1038  0.2547 -0.1577
 2510TIP3    H129089   4.087   5.200   2.820 -0.1004  0.4587  0.5828
 2510TIP3    H229090   4.136   5.072   2.884  0.0996  0.4972  0.5086
 2511TIP3   OH229091   0.635   3.599   1.369  0.0027 -0.2489 -0.6560
 2511TIP3    H129092   0.710   3.643   1.330 -0.0269 -2.1488 -3.0689
 2511TIP3    H229093   0.668   3.514   1.397 -0.4602  0.3032  1.7400
 2512TIP3   OH229094   2.153   0.908   2.648  0.1552  0.0808 -0.0387
 2512TIP3    H129095   2.149   0.812   2.643  1.3790 -0.0598  1.1135
 2512TIP3    H229096   2.063   0.937   2.635 -0.7617 -1.3986  2.4984
 2513TIP3   OH229097   6.057   2.824   8.061 -0.2084 -0.3038 -0.5567
 2513TIP3    H129098   6.025   2.898   8.010  0.9564  0.8849  0.3887
 2513TIP3    H229099   6.069   2.859   8.149  0.2495 -1.6502 -0.0581
 2514TIP3   OH229100   5.063   6.273   1.272  0.2040 -0.1412 -0.0968
 2514TIP3    H129101   5.010   6.194   1.262  0.8300 -0.8506  1.7241
 2514TIP3    H229102   5.019   6.322   1.343  1.2896 -0.1552  0.6030
 2515TIP3   OH229103   4.255   2.616   7.847 -0.0011  0.6262  0.3123
 2515TIP3    H129104   4.324   2.643   7.907  0.1988  0.2606  0.2512
 2515TIP3    H229105   4.219   2.536   7.886  1.1721 -0.5089 -0.8174
 2516TIP3   OH229106   1.084   0.706   2.704 -0.2240 -0.0259  0.4006
 2516TIP3    H129107   1.022   0.636   2.725 -0.8475  0.0626 -0.9772
 2516TIP3    H229108   1.160   0.661   2.667  0.4309 -0.1119  1.7890
 2517TIP3   OH229109   2.049   0.172   8.531  0.4751  0.1396 -0.1070
 2517TIP3    H129110   2.143   0.151   8.529  0.4049 -0.1612 -1.6432
 2517TIP3    H229111   2.022   0.155   8.621  1.7156 -0.5743  0.1468
 2518TIP3   OH229112   3.899   3.124   7.283  0.0610 -0.4120 -0.2872
 2518TIP3    H129113   3.833   3.124   7.214  0.3015 -1.0620 -0.5176
 2518TIP3    H229114   3.977   3.159   7.241 -0.8393  3.2109  0.6984
 2519TIP3   OH229115   2.263   4.862   7.833 -0.3578  0.5949  0.1883
 2519TIP3    H129116   2.173   4.834   7.849  0.1867 -1.3130  0.1252
 2519TIP3    H229117   2.315   4.811   7.894  0.6281  2.4325  0.9560
 2520TIP3   OH229118   5.402   2.589   0.062  0.3152 -0.3701  0.0164
 2520TIP3    H129119   5.490   2.580   0.024 -0.5587  2.4389 -3.0924
 2520TIP3    H229120   5.344   2.547  -0.001 -0.7470 -1.3176  1.5620
 2521TIP3   OH229121   2.343   5.638   1.681  0.5723 -0.1814 -0.1302
 2521TIP3    H129122   2.258   5.617   1.644 -0.5888  0.1587  2.1908
 2521TIP3    H229123   2.350   5.733   1.672  1.2834 -0.3297 -1.3959
 2522TIP3   OH229124   0.255   1.711   2.659  0.4778 -0.2517 -0.8303
 2522TIP3    H129125   0.346   1.709   2.688 -0.2516 -1.0661  1.6381
 2522TIP3    H229126   0.244   1.799   2.622  1.2091  1.5877  2.8235
 2523TIP3   OH229127   5.363   4.480   1.948  0.1552 -0.4162 -0.2262
 2523TIP3    H129128   5.406   4.394   1.950 -0.7923 -0.8980  1.6471
 2523TIP3    H229129   5.435   4.542   1.957  0.6344 -1.1533  1.3686
 2524TIP3   OH229130   1.281   3.226   0.231 -0.1163 -0.0391  0.0852
 2524TIP3    H129131   1.370   3.247   0.258  0.3224  0.6601 -1.7516
 2524TIP3    H229132   1.226   3.265   0.300  0.9688 -0.4635  1.2298
 2525TIP3   OH229133   1.104   6.267   0.865 -0.5106 -0.4403 -0.2966
 2525TIP3    H129134   1.194   6.296   0.871 -1.1126  1.3826  0.3844
 2525TIP3    H229135   1.086   6.262   0.771  0.9660 -3.1758 -0.5265
 2526TIP3   OH229136   2.187   3.479   0.187  0.3299 -0.0090  0.3422
 2526TIP3    H129137   2.236   3.398   0.171  2.4532  1.5070 -1.3175
 2526TIP3    H229138   2.147   3.500   0.103 -1.6105 -0.1477  1.1790
 2527TIP3   OH229139   4.136   4.074   0.608 -0.6387  0.0048  0.0386
 2527TIP3    H129140   4.210   4.014   0.605  0.0713  0.7897 -4.1431
 2527TIP3    H229141   4.163   4.142   0.669  0.3645 -1.6755  1.5571
 2528TIP3   OH229142   0.791   5.687   8.583  0.1059  0.1570 -0.1518
 2528TIP3    H129143   0.709   5.694   8.633 -0.0031 -1.5066 -0.0614
 2528TIP3    H229144   0.768   5.717   8.495 -0.9455 -1.4122 -0.4570
 2529TIP3   OH229145   2.797   4.298   1.745  0.1232 -0.1718 -0.2667
 2529TIP3    H129146   2.830   4.373   1.695 -0.8336  0.6230  0.2638
 2529TIP3    H229147   2.876   4.253   1.776  0.7103  0.7307 -0.4215
 2530TIP3   OH229148   6.043   0.968   8.653 -0.3784 -0.0705  0.2399
 2530TIP3    H129149   6.026   0.873   8.650  0.9415 -0.3214 -3.2189
 2530TIP3    H229150   6.135   0.974   8.677 -0.2836  0.2868 -0.2085
 2531TIP3   OH229151   1.753   6.168   8.077  0.0550  0.1603 -0.2632
 2531TIP3    H129152   1.764   6.197   8.168 -0.7665  1.6238 -0.5874
 2531TIP3    H229153   1.725   6.247   8.030  0.7683 -0.4845 -1.8650
 2532TIP3   OH229154   6.080   5.458   8.198  0.2276  0.0158 -0.4008
 2532TIP3    H129155   5.991   5.443   8.228  0.2321 -1.5404 -1.0537
 2532TIP3    H229156   6.106   5.540   8.239 -1.6633  0.7592 -0.5908
 2533TIP3   OH229157   4.628   4.266   0.027  0.2832  0.6794  0.0777
 2533TIP3    H129158   4.712   4.221   0.027 -0.6074 -1.0595 -0.4184
 2533TIP3    H229159   4.650   4.358   0.011  1.9853  0.0602 -1.4229
 2534TIP3   OH229160   3.932   2.174   8.679  0.4974  0.2353 -0.1110
 2534TIP3    H129161   3.916   2.213   8.764 -0.3186 -0.7987  0.2319
 2534TIP3    H229162   3.917   2.245   8.616  1.2350  1.0342  0.5893
 2535TIP3   OH229163   3.164   6.092   0.283  0.4605  0.3883  0.1723
 2535TIP3    H129164   3.255   6.121   0.277  0.7772 -0.6029 -0.0966
 2535TIP3    H229165   3.114   6.172   0.299  1.2967  1.0581 -0.4267
 2536TIP3   OH229166   4.425   1.870   3.055  0.1051  0.0423 -0.6066
 2536TIP3    H129167   4.410   1.954   3.011 -1.2159 -0.3332 -0.9127
 2536TIP3    H229168   4.425   1.806   2.984  0.4722 -0.2899 -0.3090
 2537TIP3   OH229169   0.116   3.556   7.830  0.0653 -0.2584 -0.0201
 2537TIP3    H129170   0.128   3.637   7.780  1.4234 -0.2709  0.2423
 2537TIP3    H229171   0.067   3.499   7.772 -0.4931  0.5826 -0.3985
 2538TIP3   OH229172   5.130   6.469   1.961  0.0556 -0.0502 -0.0628
 2538TIP3    H129173   5.077   6.438   1.888 -0.3317 -0.1555  0.2619
 2538TIP3    H229174   5.217   6.486   1.922 -0.3014  0.4560 -0.6697
 2539TIP3   OH229175   2.141   1.912   0.686  0.4548  0.1948  0.5170
 2539TIP3    H129176   2.108   1.850   0.750  0.9847  1.0885  1.6986
 2539TIP3    H229177   2.199   1.970   0.736  0.5852  1.1593 -0.6939
 2540TIP3   OH229178   3.653   6.787   0.529 -0.4988 -0.5033  0.0210
 2540TIP3    H129179   3.741   6.816   0.505 -0.5755 -0.8868 -0.7629
 2540TIP3    H229180   3.665   6.700   0.566 -0.6806 -1.2322 -1.5370
 2541TIP3   OH229181   6.848   5.397   2.959 -0.3081  1.0555 -0.4106
 2541TIP3    H129182   6.805   5.468   3.006 -0.5157  0.2948  0.5809
 2541TIP3    H229183   6.778   5.353   2.911 -0.3715  0.8188 -0.1030
 2542TIP3   OH229184   2.943   6.040   1.845  0.1845  0.3891  0.0137
 2542TIP3    H129185   2.924   6.010   1.756  1.6929 -1.9858  0.3839
 2542TIP3    H229186   2.987   5.965   1.886  0.7608  1.8969  2.3346
 2543TIP3   OH229187   0.754   3.215   7.921  0.7832  0.2032  0.0899
 2543TIP3    H129188   0.696   3.291   7.928  0.6014 -0.0693  1.8085
 2543TIP3    H229189   0.761   3.200   7.826 -0.6727  1.2151 -0.2162
 2544TIP3   OH229190   3.382   1.598   1.462 -0.5502 -0.2587 -0.1821
 2544TIP3    H129191   3.473   1.583   1.436 -0.7221 -2.0973  0.1035
 2544TIP3    H229192   3.382   1.683   1.506  0.7456  0.4359 -1.4489
 2545TIP3   OH229193   5.681   6.313   2.370 -0.2806  0.1317 -0.1275
 2545TIP3    H129194   5.743   6.328   2.298 -1.4708  2.4839 -0.7504
 2545TIP3    H229195   5.729   6.340   2.449  0.3910 -0.6922 -0.2355
 2546TIP3   OH229196   6.060   6.632   7.364  0.3993 -0.1688  0.0480
 2546TIP3    H129197   5.974   6.614   7.324  0.0390  0.2630  0.6169
 2546TIP3    H229198   6.122   6.620   7.292 -0.0941 -0.8750 -0.2790
 2547TIP3   OH229199   6.556   0.222   1.984  0.7269 -0.1061  0.0772
 2547TIP3    H129200   6.469   0.247   2.016 -0.1726 -1.2482 -1.3778
 2547TIP3    H229201   6.591   0.163   2.051  0.3938  0.3435  0.6556
 2548TIP3   OH229202   6.271   4.270   7.212 -0.3623 -0.9071 -0.5550
 2548TIP3    H129203   6.219   4.347   7.234 -2.1168 -2.1848 -0.0166
 2548TIP3    H229204   6.235   4.200   7.267 -1.0035 -2.8503 -3.2376
 2549TIP3   OH229205   6.317   3.951   7.634  1.0594  0.5716 -0.0091
 2549TIP3    H129206   6.261   4.013   7.680  1.0547 -0.1476  0.9897
 2549TIP3    H229207   6.372   3.913   7.703  0.9304 -0.6750 -0.5709
 2550TIP3   OH229208   4.927   0.224   2.827 -0.1825  1.6013  0.3026
 2550TIP3    H129209   4.839   0.249   2.856 -0.8765 -0.8226  0.4914
 2550TIP3    H229210   4.914   0.189   2.739  0.0898 -1.1777  1.2789
 2551TIP3   OH229211   0.810   4.269   7.348  0.4000  0.5108 -0.4261
 2551TIP3    H129212   0.793   4.211   7.274  0.8292 -0.3365  0.1188
 2551TIP3    H229213   0.893   4.311   7.328  2.7867 -2.8620  1.3745
 2552TIP3   OH229214   4.866   1.266   0.325 -0.4334  0.2809 -0.1000
 2552TIP3    H129215   4.903   1.247   0.411 -0.8385 -0.1317 -0.0126
 2552TIP3    H229216   4.923   1.335   0.289  0.0493  0.0893  0.2789
 2553TIP3   OH229217   0.182   0.152   8.391 -0.0404 -0.5573  0.0999
 2553TIP3    H129218   0.222   0.141   8.305 -0.7422 -2.4558 -0.0187
 2553TIP3    H229219   0.173   0.247   8.401  1.2167 -0.2492 -1.3594
 2554TIP3   OH229220   5.294   3.739   1.604 -0.4529 -0.2597  0.2647
 2554TIP3    H129221   5.371   3.712   1.555  1.8629  0.5589  3.1615
 2554TIP3    H229222   5.274   3.827   1.572  1.1413  0.3473  0.8769
 2555TIP3   OH229223   6.291   2.938   0.153 -0.4486 -0.1596  0.0248
 2555TIP3    H129224   6.302   2.916   0.246  1.6616 -0.4104 -0.2190
 2555TIP3    H229225   6.218   2.884   0.123  0.7787 -2.4200  0.8527
 2556TIP3   OH229226   3.456   0.939   8.219  0.0870  0.1039 -0.4206
 2556TIP3    H129227   3.379   0.942   8.276 -0.4888 -1.2531 -1.0981
 2556TIP3    H229228   3.432   0.992   8.143 -0.2840 -0.5484 -0.7579
 2557TIP3   OH229229   5.356   4.436   0.389 -0.1610  0.4207 -0.3320
 2557TIP3    H129230   5.432   4.383   0.415  0.4169  1.6604  0.5807
 2557TIP3    H229231   5.385   4.483   0.311 -0.7142 -0.6538 -1.2131
 2558TIP3   OH229232   6.098   3.685   0.791 -0.5787 -0.0797 -0.0453
 2558TIP3    H129233   6.089   3.774   0.758 -0.8275 -0.0678  0.0560
 2558TIP3    H229234   6.008   3.651   0.796 -0.5926  0.0640  1.0210
 2559TIP3   OH229235   6.148   0.639   7.983  0.4690  0.5261 -0.3110
 2559TIP3    H129236   6.131   0.679   7.898 -1.9201  0.0109 -0.1641
 2559TIP3    H229237   6.213   0.571   7.965 -0.6918 -0.2286 -1.9656
 2560TIP3   OH229238   5.277   1.536   7.710  0.1793  0.4951  0.1599
 2560TIP3    H129239   5.220   1.489   7.649  0.1633  0.7013  0.0165
 2560TIP3    H229240   5.303   1.469   7.774 -0.7113  0.5324  0.5795
 2561TIP3   OH229241   4.148   4.120   7.270 -0.3784 -0.3327 -0.1428
 2561TIP3    H129242   4.053   4.126   7.281 -0.3852 -0.9761  0.1902
 2561TIP3    H229243   4.161   4.107   7.176 -0.7356 -2.1078  0.0137
 2562TIP3   OH229244   1.732   0.587   2.266  0.6031  0.0449  0.2751
 2562TIP3    H129245   1.702   0.640   2.340  2.5688  0.4543  0.8333
 2562TIP3    H229246   1.658   0.529   2.246 -1.8394  3.1578 -0.6056
 2563TIP3   OH229247   4.156   1.178   7.571  0.8084  0.3123  0.1213
 2563TIP3    H129248   4.156   1.273   7.574 -1.8815  0.4663 -1.4391
 2563TIP3    H229249   4.191   1.157   7.485 -1.0287  0.0724 -0.6095
 2564TIP3   OH229250   5.196   4.472   0.955  0.4952 -0.1732  0.1088
 2564TIP3    H129251   5.176   4.410   1.025 -3.0348 -0.5262 -1.0213
 2564TIP3    H229252   5.187   4.421   0.874  0.0256  1.1956 -0.7429
 2565TIP3   OH229253   4.219   1.805   0.212 -0.1810  0.1131  0.5025
 2565TIP3    H129254   4.266   1.870   0.264 -1.1554  2.1225 -0.9930
 2565TIP3    H229255   4.142   1.783   0.265  0.8986 -1.0329  1.6772
 2566TIP3   OH229256   3.014   0.421   8.056  0.1614  0.2736 -0.0516
 2566TIP3    H129257   3.023   0.409   7.962  0.3221  2.4352 -0.3496
 2566TIP3    H229258   2.920   0.413   8.072  0.0758  0.4040 -0.4790
 2567TIP3   OH229259   5.999   2.443   1.926 -0.3655  0.2932 -0.2094
 2567TIP3    H129260   6.015   2.479   2.013 -1.5528 -1.1030  0.6205
 2567TIP3    H229261   6.078   2.466   1.876  0.4353  0.9273  1.2794
 2568TIP3   OH229262   2.171   1.972   8.589 -0.2625 -0.6896  0.0151
 2568TIP3    H129263   2.166   2.058   8.632  1.1643 -0.3989 -0.3767
 2568TIP3    H229264   2.221   1.917   8.650  0.8314 -0.5782 -0.7576
 2569TIP3   OH229265   0.680   0.345   2.212  0.0469  0.3115 -0.2310
 2569TIP3    H129266   0.605   0.374   2.159 -1.5207  0.0944  1.7561
 2569TIP3    H229267   0.699   0.420   2.269  0.3889 -0.1516  0.2762
 2570TIP3   OH229268   2.885   2.031   8.295 -0.1044 -0.1589  0.3093
 2570TIP3    H129269   2.852   2.051   8.383  0.4964 -1.0129  0.7463
 2570TIP3    H229270   2.896   2.117   8.253 -2.1993  0.1851  0.3742
 2571TIP3   OH229271   2.682   3.068   8.328 -0.3542 -0.1097 -0.1184
 2571TIP3    H129272   2.701   3.016   8.250 -0.0483  0.0823 -0.1740
 2571TIP3    H229273   2.710   3.156   8.305  0.4925 -0.2102  0.4918
 2572TIP3   OH229274   0.011   5.339   0.365 -0.3522  0.8328 -0.1712
 2572TIP3    H129275  -0.013   5.370   0.277  0.6718  2.0457 -0.0600
 2572TIP3    H229276  -0.068   5.296   0.398 -0.5628 -0.2507 -1.9265
 2573TIP3   OH229277   4.454   3.821   1.958  0.0513 -0.5243 -0.0678
 2573TIP3    H129278   4.384   3.881   1.932 -0.3761 -1.2192 -0.5799
 2573TIP3    H229279   4.412   3.762   2.021  0.6218  0.0643  0.8915
 2574TIP3   OH229280   6.683   5.740   7.892 -0.5469  0.0829 -0.4220
 2574TIP3    H129281   6.744   5.811   7.910 -0.2757 -0.2077 -0.1897
 2574TIP3    H229282   6.602   5.784   7.864 -0.7781  0.5283  0.8809
 2575TIP3   OH229283   4.691   3.767   7.778 -0.8187 -0.3782 -0.4525
 2575TIP3    H129284   4.729   3.783   7.691  0.1611  0.9191  0.1865
 2575TIP3    H229285   4.712   3.675   7.796  0.6367 -0.1296 -0.7924
 2576TIP3   OH229286   0.276   1.375   2.746  0.1146 -0.6804 -0.1736
 2576TIP3    H129287   0.246   1.454   2.790 -0.8475 -1.2231  0.1771
 2576TIP3    H229288   0.278   1.308   2.815  0.0648 -1.1640 -0.6314
 2577TIP3   OH229289   5.191   0.242   8.423  0.0305  0.3858 -0.2856
 2577TIP3    H129290   5.159   0.200   8.344 -1.6331  1.3621 -0.1766
 2577TIP3    H229291   5.260   0.184   8.455  0.5725 -0.1508 -2.2989
 2578TIP3   OH229292   3.027   2.810   0.364 -0.2634  0.2448 -0.0937
 2578TIP3    H129293   3.028   2.818   0.269 -1.0233  1.2601 -0.0197
 2578TIP3    H229294   2.989   2.892   0.396 -1.3285 -0.6437  1.0236
 2579TIP3   OH229295   3.590   0.154   2.314 -0.1902 -0.1496  0.1938
 2579TIP3    H129296   3.671   0.149   2.262 -0.4922  0.6865 -0.3806
 2579TIP3    H229297   3.527   0.101   2.265 -0.2527 -0.0177  0.1310
 2580TIP3   OH229298   4.892   4.630   6.873  0.5145 -0.0522  1.1197
 2580TIP3    H129299   4.985   4.610   6.866  0.6053  0.6302  0.0378
 2580TIP3    H229300   4.847   4.554   6.837  0.8438  1.3529 -2.7716
 2581TIP3   OH229301   5.393   1.724   2.932  0.3161  0.7403 -0.5397
 2581TIP3    H129302   5.419   1.736   3.023 -1.4482  0.7662  0.0128
 2581TIP3    H229303   5.312   1.672   2.937 -0.3862  1.6173 -2.0057
 2582TIP3   OH229304   0.544   0.310   7.913  0.5468  0.3931 -0.0606
 2582TIP3    H129305   0.526   0.221   7.882  1.3426 -0.0075  0.5978
 2582TIP3    H229306   0.618   0.339   7.860  1.4131 -0.0067  0.8822
 2583TIP3   OH229307   6.232   2.978   1.564 -0.0784  0.2146  0.4670
 2583TIP3    H129308   6.179   2.943   1.635  0.1821 -2.0105 -0.3583
 2583TIP3    H229309   6.322   2.974   1.597 -0.0030 -0.3837  0.2058
 2584TIP3   OH229310   0.296   1.378   7.836 -0.2771 -0.3418 -0.3254
 2584TIP3    H129311   0.383   1.416   7.843 -0.7293  0.4824  1.5195
 2584TIP3    H229312   0.245   1.441   7.785  0.1085 -0.7058 -1.1872
 2585TIP3   OH229313   6.552   4.676   7.265  0.5757  0.1163 -0.0043
 2585TIP3    H129314   6.598   4.741   7.212  0.7219  1.8728  2.1475
 2585TIP3    H229315   6.575   4.592   7.225  0.1759  1.3230 -3.0385
 2586TIP3   OH229316   2.175   2.517   0.962  0.6833 -0.1609 -0.2608
 2586TIP3    H129317   2.118   2.583   0.923  1.5813  0.7110 -0.1208
 2586TIP3    H229318   2.169   2.533   1.057  1.5420  0.2664 -0.2717
 2587TIP3   OH229319   0.145   5.938   7.006 -0.8677 -0.4273 -0.1629
 2587TIP3    H129320   0.216   5.965   7.063 -1.1378 -1.0798  0.5100
 2587TIP3    H229321   0.166   5.976   6.921  1.1023 -1.8836 -0.3925
 2588TIP3   OH229322   4.942   1.737   2.449  0.0218 -0.6496  0.2134
 2588TIP3    H129323   4.947   1.813   2.392  0.8378  0.1978  1.3731
 2588TIP3    H229324   4.915   1.772   2.534 -0.5310 -1.7900  0.5246
 2589TIP3   OH229325   6.287   3.667   0.464 -0.2373  0.4116  0.0979
 2589TIP3    H129326   6.279   3.571   0.464  1.0433  0.2375 -2.2129
 2589TIP3    H229327   6.206   3.698   0.422 -0.2846  0.2926  0.0998
 2590TIP3   OH229328   1.730   0.455   1.295 -0.0790 -0.0360  0.3750
 2590TIP3    H129329   1.726   0.359   1.305 -1.1199 -0.0450  0.0422
 2590TIP3    H229330   1.800   0.482   1.354 -0.8570 -0.8528  1.7383
 2591TIP3   OH229331   6.164   4.301   1.664  0.3286  0.7951  0.1397
 2591TIP3    H129332   6.185   4.301   1.757  0.7677  1.7580  0.0503
 2591TIP3    H229333   6.203   4.382   1.630  1.0807 -0.0371 -1.0799
 2592TIP3   OH229334   4.330   1.575   8.476  0.0173 -0.4951 -0.1140
 2592TIP3    H129335   4.399   1.637   8.500 -0.6748  0.3744 -0.3055
 2592TIP3    H229336   4.249   1.624   8.490 -0.4998 -0.9162 -1.4970
 2593TIP3   OH229337   0.882   0.184   1.744  0.3013  0.3105 -0.1848
 2593TIP3    H129338   0.798   0.226   1.726  1.1566  1.6672 -1.1884
 2593TIP3    H229339   0.869   0.139   1.827 -1.3207  0.7308 -0.1797
 2594TIP3   OH229340   1.313   5.704   2.745  0.1368 -0.0389 -0.3234
 2594TIP3    H129341   1.232   5.663   2.712  0.6509 -1.0016 -0.4367
 2594TIP3    H229342   1.342   5.645   2.814 -0.0192  1.0740  0.7215
 2595TIP3   OH229343   5.597   5.403   7.619  0.4759 -0.1734 -0.2133
 2595TIP3    H129344   5.661   5.439   7.559  0.3633 -0.2271 -0.3661
 2595TIP3    H229345   5.518   5.392   7.566 -0.0311  1.0351  0.2542
 2596TIP3   OH229346   1.749   3.573   7.800 -0.0821  0.1629  0.1032
 2596TIP3    H129347   1.765   3.487   7.760 -0.9726 -0.2196  0.5369
 2596TIP3    H229348   1.697   3.620   7.735  0.7756  0.5570 -0.3228
 2597TIP3   OH229349   6.591   5.195   8.645  0.3822  0.3752 -0.0314
 2597TIP3    H129350   6.549   5.142   8.713 -0.6663  1.0754 -0.1091
 2597TIP3    H229351   6.610   5.134   8.574  0.7537 -0.2073  0.5549
 2598TIP3   OH229352   1.058   2.038   8.098  0.5005 -0.2993  0.0558
 2598TIP3    H129353   1.059   2.131   8.123  0.1513 -0.1653 -0.4138
 2598TIP3    H229354   1.150   2.015   8.089  0.7078  1.1797 -3.9741
 2599TIP3   OH229355   6.858   4.320   1.330 -0.0931 -0.1355 -0.5350
 2599TIP3    H129356   6.823   4.235   1.303  1.6336 -1.3074  0.7188
 2599TIP3    H229357   6.784   4.364   1.372 -0.6069 -1.6780  0.2479
 2600TIP3   OH229358   3.199   2.287   0.608  0.1163  0.2405  0.3522
 2600TIP3    H129359   3.113   2.274   0.567 -0.6125  0.7164  1.6939
 2600TIP3    H229360   3.218   2.203   0.650  1.6989 -0.8789 -2.3503
 2601TIP3   OH229361   2.550   0.023   0.487  0.0268  0.0786 -0.8312
 2601TIP3    H129362   2.458   0.051   0.489  0.2912  0.9520 -0.7627
 2601TIP3    H229363   2.585   0.050   0.572  0.6205  0.7093 -1.2632
 2602TIP3   OH229364   4.505   1.540   7.938  0.5134  0.0640  0.1176
 2602TIP3    H129365   4.421   1.517   7.978 -0.4274 -0.4340 -2.0034
 2602TIP3    H229366   4.489   1.624   7.895  1.4309  0.4909  0.5806
 2603TIP3   OH229367   4.984   6.792   1.044  0.0721  0.1637 -0.3637
 2603TIP3    H129368   5.074   6.776   1.072 -0.4643  0.3831  1.6254
 2603TIP3    H229369   4.992   6.855   0.973  1.3992  2.4370  1.6461
 2604TIP3   OH229370   3.176   2.128   1.671 -0.2021  0.5090 -0.9412
 2604TIP3    H129371   3.187   2.217   1.637  2.7263 -0.1983 -2.1364
 2604TIP3    H229372   3.137   2.080   1.598  0.0533  0.3930 -1.0018
 2605TIP3   OH229373   3.651   4.395   1.884  0.3562 -0.2642 -0.4461
 2605TIP3    H129374   3.681   4.307   1.863 -1.3482 -0.9166 -0.3448
 2605TIP3    H229375   3.730   4.444   1.903  1.4204 -1.5110 -1.4588
 2606TIP3   OH229376   4.000   1.426   1.441 -0.1816  0.0846 -0.2769
 2606TIP3    H129377   4.088   1.406   1.408  0.0695  0.3950  0.1994
 2606TIP3    H229378   3.942   1.395   1.372  0.3632  1.5116 -1.4435
 2607TIP3   OH229379   3.688   2.262   1.244  0.0013  0.3088 -1.0780
 2607TIP3    H129380   3.645   2.201   1.303  1.7482 -1.1690 -1.2587
 2607TIP3    H229381   3.652   2.348   1.267 -1.1690 -0.5487  0.4112
 2608TIP3   OH229382   0.195   3.943   1.415 -0.0926  0.5052  0.6117
 2608TIP3    H129383   0.234   3.923   1.330 -1.1829 -0.9261  0.4164
 2608TIP3    H229384   0.237   3.882   1.475 -2.1511 -1.3215  0.3354
 2609TIP3   OH229385   4.339   0.556   1.375 -0.3460 -0.3511 -1.0170
 2609TIP3    H129386   4.248   0.529   1.362 -1.2031  0.7393  1.9058
 2609TIP3    H229387   4.381   0.482   1.417  0.0912 -0.7693 -2.1592
 2610TIP3   OH229388   5.604   0.421   7.131  0.0923  0.0911  0.4598
 2610TIP3    H129389   5.603   0.326   7.124 -0.3248  0.0106  1.5104
 2610TIP3    H229390   5.661   0.449   7.059 -1.0897 -0.8476 -0.9175
 2611TIP3   OH229391   3.820   1.941   7.942 -0.0401 -0.5483  0.1098
 2611TIP3    H129392   3.887   1.905   7.999  0.3578 -0.9919 -0.6309
 2611TIP3    H229393   3.867   1.973   7.865 -0.6127 -0.3673 -0.1785
 2612TIP3   OH229394   6.849   2.515   6.985 -0.1631 -0.1325 -0.1015
 2612TIP3    H129395   6.939   2.498   7.015 -0.9143 -0.7797  1.9348
 2612TIP3    H229396   6.811   2.572   7.052 -1.2007  0.4404 -1.1219
 2613TIP3   OH229397   6.166   0.785   7.710  0.3403  0.1604  0.1987
 2613TIP3    H129398   6.117   0.866   7.721 -0.9244 -0.4243 -0.7117
 2613TIP3    H229399   6.258   0.811   7.710 -0.0354  1.5606  0.0756
 2614TIP3   OH229400   1.289   4.835   7.760 -0.3076 -0.6698 -0.1594
 2614TIP3    H129401   1.231   4.773   7.805 -0.6063  0.1584  0.6180
 2614TIP3    H229402   1.370   4.786   7.747 -0.0517 -0.8027  1.6874
 2615TIP3   OH229403   5.275   6.821   8.519 -0.1835  0.4529 -0.1056
 2615TIP3    H129404   5.196   6.777   8.488 -0.0246  0.1071 -0.0313
 2615TIP3    H229405   5.270   6.815   8.614  0.3821 -0.4002 -0.1137
 2616TIP3   OH229406   4.930   1.636   1.176 -0.6101 -0.0560 -0.1174
 2616TIP3    H129407   4.934   1.632   1.271 -1.9187  0.6295 -0.0173
 2616TIP3    H229408   4.885   1.718   1.157 -1.7448 -0.9018 -1.2817
 2617TIP3   OH229409   3.768   5.159   7.123 -0.0499  0.0127 -0.4553
 2617TIP3    H129410   3.827   5.086   7.142 -0.4732 -0.2087  0.0612
 2617TIP3    H229411   3.821   5.238   7.137  0.6086 -0.1945 -1.6949
 2618TIP3   OH229412   5.480   0.600   1.641  0.0582 -0.1717  0.3234
 2618TIP3    H129413   5.524   0.549   1.574  1.8081 -1.2545  2.2102
 2618TIP3    H229414   5.528   0.582   1.722 -2.1101  0.8690  1.9557
 2619TIP3   OH229415   0.456   3.672   8.403 -0.2169 -0.2488 -0.9759
 2619TIP3    H129416   0.412   3.686   8.319 -1.0846 -0.5014 -0.5758
 2619TIP3    H229417   0.547   3.696   8.387 -0.3813 -0.2556 -1.9783
 2620TIP3   OH229418   2.937   6.343   1.913  0.2356  0.2916 -0.3329
 2620TIP3    H129419   2.977   6.265   1.875  0.5970 -0.2575  1.0908
 2620TIP3    H229420   2.948   6.331   2.008 -2.2192  0.7091  0.0626
 2621TIP3   OH229421   3.138   0.521   8.553 -0.3527 -0.7606  0.1094
 2621TIP3    H129422   3.056   0.517   8.505 -0.9232 -1.6057  1.1121
 2621TIP3    H229423   3.114   0.554   8.640  0.7736  1.4790 -0.3597
 2622TIP3   OH229424   2.924   1.397   8.700 -0.0119  0.2098  0.0648
 2622TIP3    H129425   2.939   1.312   8.657 -0.0894 -0.2616  0.9520
 2622TIP3    H229426   2.926   1.460   8.628  0.6738 -0.4713 -0.5387
 2623TIP3   OH229427   4.476   2.009   0.006  0.0019 -0.7764  0.6334
 2623TIP3    H129428   4.424   2.073  -0.042  2.8714  2.2708  1.1712
 2623TIP3    H229429   4.462   2.031   0.098 -0.1258 -1.9243  0.8911
 2624TIP3   OH229430   0.587   5.260   7.520  0.0673 -0.1968 -0.5180
 2624TIP3    H129431   0.631   5.217   7.447 -0.4617  0.0437 -0.9873
 2624TIP3    H229432   0.568   5.190   7.582  3.0596 -0.0437  0.7685
 2625TIP3   OH229433   2.542   0.751   7.806 -0.6722  0.1201 -0.3831
 2625TIP3    H129434   2.625   0.750   7.853 -0.9763  1.6550  0.2593
 2625TIP3    H229435   2.506   0.838   7.823 -3.0875 -0.9734  0.5251
 2626TIP3   OH229436   6.771   6.542   0.673 -0.2474 -0.0559 -0.6285
 2626TIP3    H129437   6.756   6.616   0.614  2.5660  0.1037 -1.3069
 2626TIP3    H229438   6.837   6.575   0.734 -1.0587 -1.1335  0.8692
 2627TIP3   OH229439   4.309   1.268   2.228  0.4993  0.1119 -0.5405
 2627TIP3    H129440   4.398   1.233   2.225 -0.2926 -2.3147  1.0935
 2627TIP3    H229441   4.252   1.193   2.213 -1.3191  1.3359 -0.2241
 2628TIP3   OH229442   3.902   1.914   0.801  0.8069 -1.0204 -0.7327
 2628TIP3    H129443   3.899   1.827   0.842  0.6221 -1.0112 -0.7239
 2628TIP3    H229444   3.995   1.937   0.799  0.9059 -1.4419 -1.1967
 2629TIP3   OH229445   3.500   2.029   7.248  0.2301 -0.5351 -0.6313
 2629TIP3    H129446   3.582   2.076   7.237  0.3935 -0.5741  0.3935
 2629TIP3    H229447   3.441   2.068   7.183 -0.0469  1.9822  1.0144
 2630TIP3   OH229448   6.567   0.947   0.506  0.1312  0.4128 -0.2553
 2630TIP3    H129449   6.527   0.974   0.588 -0.9780  1.2138 -1.0300
 2630TIP3    H229450   6.523   1.000   0.439  0.1513 -1.0655 -1.4964
 2631TIP3   OH229451   5.326   1.432   8.576  0.5562 -0.0060 -0.3496
 2631TIP3    H129452   5.402   1.452   8.630  0.2050  0.9377 -0.1831
 2631TIP3    H229453   5.334   1.339   8.556  1.3574 -0.0789  0.2792
 2632TIP3   OH229454   5.923   0.167   0.823 -0.4457  1.2222 -0.3270
 2632TIP3    H129455   5.891   0.224   0.753 -1.4171  0.8191 -0.2171
 2632TIP3    H229456   5.949   0.087   0.778 -0.8599  1.0467 -0.2542
 2633TIP3   OH229457   6.763   2.670   6.765 -0.6508 -0.3177  0.1441
 2633TIP3    H129458   6.795   2.676   6.675 -0.1353  0.8360  0.3952
 2633TIP3    H229459   6.824   2.610   6.808  1.4144  2.0213  0.6774
 2634TIP3   OH229460   3.763   3.647   7.303  0.1887 -0.4139 -0.0441
 2634TIP3    H129461   3.712   3.615   7.229 -0.3913  1.1181 -0.3377
 2634TIP3    H229462   3.763   3.742   7.294  2.6679 -0.3052  0.2348
 2635TIP3   OH229463   4.696   0.046   8.043 -0.1406 -0.6814  0.1445
 2635TIP3    H129464   4.613   0.026   8.001  0.0785  0.2012 -0.7213
 2635TIP3    H229465   4.733  -0.040   8.064  0.0052 -1.1978 -1.9915
 2636TIP3   OH229466   1.245   6.472   1.965 -0.1901  0.1405 -0.1704
 2636TIP3    H129467   1.247   6.475   1.869 -0.7633  1.1028 -0.1656
 2636TIP3    H229468   1.222   6.381   1.985 -1.0742  0.1582 -0.9754
 2637TIP3   OH229469   5.670   0.296   3.100  0.0961 -0.4991  0.3477
 2637TIP3    H129470   5.742   0.234   3.112  0.7248  0.3864  1.3177
 2637TIP3    H229471   5.694   0.372   3.153  0.0963  1.2452 -1.9933
 2638TIP3   OH229472   1.986   3.801   8.129  0.3918  0.3918 -0.5651
 2638TIP3    H129473   1.977   3.802   8.034  0.7481 -0.2334 -0.6063
 2638TIP3    H229474   1.920   3.738   8.159 -0.2016  1.1001 -0.3380
 2639TIP3   OH229475   2.821   4.265   2.367 -0.3315  0.0706 -0.3584
 2639TIP3    H129476   2.766   4.195   2.332 -1.9276  0.3894  1.3566
 2639TIP3    H229477   2.829   4.244   2.460  3.0019 -0.2799 -0.6087
 2640TIP3   OH229478   6.777   0.651   8.214 -0.2206  0.0919 -0.0257
 2640TIP3    H129479   6.711   0.621   8.276 -1.2103  1.1482 -0.5355
 2640TIP3    H229480   6.811   0.571   8.175  1.0259 -0.6867  2.4002
 2641TIP3   OH229481   1.683   5.198   7.696  0.3978  0.0290  0.7580
 2641TIP3    H129482   1.662   5.286   7.668  1.2140 -0.1273 -0.4300
 2641TIP3    H229483   1.599   5.154   7.706  0.0466  0.3784 -0.5540
 2642TIP3   OH229484   0.341   1.388   8.192  0.4399 -0.0696  0.3346
 2642TIP3    H129485   0.287   1.343   8.127  0.1124  2.0946 -1.0205
 2642TIP3    H229486   0.431   1.367   8.167  0.2932  0.0350 -0.3189
 2643TIP3   OH229487   5.002   2.750   2.445  0.7777  0.3630  0.4008
 2643TIP3    H129488   5.039   2.837   2.464 -2.8135  1.7284  2.1343
 2643TIP3    H229489   4.979   2.715   2.531 -1.2135 -0.6460 -0.4790
 2644TIP3   OH229490   3.334   5.882   0.357 -0.0175  0.3013  0.1233
 2644TIP3    H129491   3.403   5.863   0.293  0.5972  0.3278  0.7653
 2644TIP3    H229492   3.267   5.929   0.307  0.1368 -0.2757 -0.6531
 2645TIP3   OH229493   1.723   5.118   8.349  0.5805 -0.5389  0.8437
 2645TIP3    H129494   1.648   5.173   8.374  1.9917  0.5923  2.8868
 2645TIP3    H229495   1.720   5.116   8.253 -1.1858  0.7165  0.8133
 2646TIP3   OH229496   0.576   6.088   8.555  0.1995  0.3726  0.1729
 2646TIP3    H129497   0.663   6.076   8.592  0.3894 -0.2856 -0.4692
 2646TIP3    H229498   0.558   6.181   8.567 -0.0134  0.1083  2.4625
 2647TIP3   OH229499   3.459   1.843   1.566 -0.2633  0.3543 -0.2898
 2647TIP3    H129500   3.379   1.870   1.613  0.1203  3.3687 -1.1510
 2647TIP3    H229501   3.513   1.803   1.633 -2.3961 -1.7076  0.3445
 2648TIP3   OH229502   4.973   4.627   0.947  0.4173 -0.0445  0.2981
 2648TIP3    H129503   5.045   4.574   0.913 -0.6581 -1.1337 -0.3835
 2648TIP3    H229504   4.943   4.579   1.024 -0.3018 -0.2456 -0.0905
 2649TIP3   OH229505   2.250   2.579   1.558  0.0745 -0.1368 -0.1296
 2649TIP3    H129506   2.207   2.579   1.643 -0.5820  0.2852 -0.4539
 2649TIP3    H229507   2.343   2.568   1.578  0.2777  2.6517  0.8045
 2650TIP3   OH229508   4.041   0.021   7.169 -0.0987 -0.8498 -0.1205
 2650TIP3    H129509   4.092   0.021   7.088  1.3419 -2.0081  0.7398
 2650TIP3    H229510   4.071   0.100   7.215 -0.4454 -0.5391 -0.4202
 2651TIP3   OH229511   0.661   2.810   1.731  0.4158  0.7939 -0.3578
 2651TIP3    H129512   0.743   2.765   1.709  1.1576  2.0460 -0.2758
 2651TIP3    H229513   0.685   2.866   1.806 -1.1002 -0.5483  1.2049
 2652TIP3   OH229514   0.949   3.601   0.379 -0.1935  0.3383  0.6254
 2652TIP3    H129515   0.981   3.545   0.450  1.7539 -0.2161 -0.5932
 2652TIP3    H229516   0.998   3.683   0.389 -0.5675  0.5839  0.4464
 2653TIP3   OH229517   0.241   1.639   1.931 -0.4305 -0.5707 -0.2579
 2653TIP3    H129518   0.210   1.726   1.954 -0.2593  0.0509 -2.2422
 2653TIP3    H229519   0.166   1.598   1.888 -0.2353 -1.0827 -0.1162
 2654TIP3   OH229520   4.282   2.305   2.765  0.3837  0.5182  0.2053
 2654TIP3    H129521   4.222   2.247   2.720  0.5474  1.0252 -0.6825
 2654TIP3    H229522   4.348   2.328   2.699  3.3546 -2.4021  1.8510
 2655TIP3   OH229523   5.079   5.541   1.774 -0.2290 -0.0101  0.2430
 2655TIP3    H129524   5.162   5.529   1.820  0.8551  2.4975 -0.8700
 2655TIP3    H229525   5.056   5.633   1.788 -4.0252 -1.0142  2.2788
 2656TIP3   OH229526   5.734   5.244   7.301 -0.1017  0.2534 -0.5677
 2656TIP3    H129527   5.700   5.316   7.247  1.4041  2.3359  1.1394
 2656TIP3    H229528   5.815   5.217   7.257 -0.0565  0.3927 -0.5690
 2657TIP3   OH229529   6.790   5.935   7.184  0.2652  0.1200  0.4116
 2657TIP3    H129530   6.721   5.911   7.122  0.4087  2.9867 -1.0464
 2657TIP3    H229531   6.871   5.934   7.132  1.2390 -2.1863  1.8392
 2658TIP3   OH229532   5.418   3.793   0.402  0.1482  0.1952 -0.5381
 2658TIP3    H129533   5.439   3.873   0.451  1.9781  1.5613 -3.2421
 2658TIP3    H229534   5.372   3.824   0.324 -2.5225 -1.8510  0.0887
 2659TIP3   OH229535   3.702   1.706   7.803  0.2049 -0.3069 -0.0452
 2659TIP3    H129536   3.733   1.669   7.885 -1.5536 -1.4506  0.1702
 2659TIP3    H229537   3.721   1.799   7.810 -0.3430 -0.2839  1.9126
 2660TIP3   OH229538   5.273   3.662   6.985 -0.2697 -0.0863 -0.1059
 2660TIP3    H129539   5.243   3.746   6.951  1.2139 -0.0285 -1.4026
 2660TIP3    H229540   5.245   3.661   7.076 -1.6289  1.1464 -0.4882
 2661TIP3   OH229541   3.398   2.459   1.490 -0.1482 -0.1037 -0.4043
 2661TIP3    H129542   3.406   2.550   1.459 -1.9667 -0.6073 -2.5916
 2661TIP3    H229543   3.480   2.443   1.536  0.0724  2.7633  0.4318
 2662TIP3   OH229544   1.140   4.565   0.685  0.5829  0.0989 -0.2906
 2662TIP3    H129545   1.083   4.490   0.704  0.3329  0.3464 -0.0428
 2662TIP3    H229546   1.220   4.548   0.735  0.1610  0.4541  0.5167
 2663TIP3   OH229547   0.682   3.659   0.431  0.3451 -0.0647 -0.3396
 2663TIP3    H129548   0.716   3.712   0.359 -0.2949  1.3122  0.3343
 2663TIP3    H229549   0.754   3.599   0.451  0.8856  0.1422 -1.5013
 2664TIP3   OH229550   6.732   2.726   1.322  0.2572  0.5195 -0.3193
 2664TIP3    H129551   6.724   2.735   1.417  0.6189  1.0943 -0.3419
 2664TIP3    H229552   6.825   2.710   1.307 -0.0765 -1.7215 -0.4156
 2665TIP3   OH229553   5.031   1.069   7.519  0.1844 -0.3463  0.1040
 2665TIP3    H129554   5.007   1.012   7.446  0.9519 -0.6306  0.0570
 2665TIP3    H229555   5.012   1.157   7.489 -0.9860 -0.5658  0.1593
 2666TIP3   OH229556   1.830   0.386   1.965  0.3535 -0.8636 -0.0187
 2666TIP3    H129557   1.899   0.425   2.018  1.0070  0.9463 -2.0677
 2666TIP3    H229558   1.874   0.317   1.916  0.2924 -0.9045 -0.0162
 2667TIP3   OH229559   6.637   3.701   8.498 -0.0951  0.0950  0.1798
 2667TIP3    H129560   6.643   3.712   8.593 -0.2180  1.5609  0.0388
 2667TIP3    H229561   6.622   3.608   8.486 -1.0269  0.0166  1.6477
 2668TIP3   OH229562   1.587   4.855   1.950  0.6102  0.0370 -0.2494
 2668TIP3    H129563   1.582   4.760   1.955 -0.2476  0.1209  0.7687
 2668TIP3    H229564   1.517   4.886   2.007  0.3665  1.2828 -1.1809
 2669TIP3   OH229565   5.778   4.389   1.025  0.0380 -0.3382  0.0854
 2669TIP3    H129566   5.726   4.459   1.064 -0.7193 -0.6668 -0.3086
 2669TIP3    H229567   5.728   4.310   1.043  0.3709 -0.6542 -0.3636
 2670TIP3   OH229568   4.051   6.539   1.215 -0.3923 -0.0662 -0.5581
 2670TIP3    H129569   4.009   6.617   1.178 -1.6197 -0.4505 -0.0217
 2670TIP3    H229570   4.102   6.503   1.142  1.1628  1.8327 -0.5253
 2671TIP3   OH229571   6.354   1.503   2.357 -0.1897 -0.8521  0.1010
 2671TIP3    H129572   6.421   1.529   2.419  0.7911  0.1067 -1.3207
 2671TIP3    H229573   6.380   1.416   2.328  0.6441 -0.3531 -0.6854
 2672TIP3   OH229574   6.261   6.336   2.905  0.0873  0.0246  0.0558
 2672TIP3    H129575   6.286   6.402   2.969  1.1652  0.2932 -0.6261
 2672TIP3    H229576   6.313   6.259   2.929  0.3778  0.0773 -0.3999
 2673TIP3   OH229577   1.295   1.534   2.260 -0.1880 -0.2789  0.2089
 2673TIP3    H129578   1.356   1.471   2.222 -0.6832 -0.6633  0.0296
 2673TIP3    H229579   1.315   1.533   2.354  1.8511  1.5646 -0.1201
 2674TIP3   OH229580   5.002   4.427   7.530 -0.0413  0.4222 -0.7165
 2674TIP3    H129581   4.974   4.355   7.587  0.5143  1.8362  1.4255
 2674TIP3    H229582   5.023   4.384   7.447 -0.4704 -1.7779  0.2403
 2675TIP3   OH229583   1.306   4.276   1.998 -0.3341  0.1123 -0.7610
 2675TIP3    H129584   1.314   4.356   2.049 -1.2745 -0.1918 -0.1097
 2675TIP3    H229585   1.374   4.218   2.033 -0.5457  0.1386 -0.3065
 2676TIP3   OH229586   5.499   6.525   2.300 -0.7604  0.0915  0.0447
 2676TIP3    H129587   5.589   6.518   2.329 -0.5755 -0.6711 -0.6744
 2676TIP3    H229588   5.461   6.594   2.355  0.7313  1.7251 -0.8438
 2677TIP3   OH229589   2.076   6.317   8.138  0.3033  0.4235  0.3089
 2677TIP3    H129590   2.156   6.341   8.185  1.2048  0.1986 -1.0542
 2677TIP3    H229591   2.089   6.351   8.049 -0.8618 -0.1371 -0.1008
 2678TIP3   OH229592   6.574   6.546   0.880  0.0881  0.2868  0.0108
 2678TIP3    H129593   6.509   6.496   0.831  1.7238 -1.6222 -0.3072
 2678TIP3    H229594   6.627   6.589   0.812  1.4507 -1.1875  0.1004
 2679TIP3   OH229595   2.007   3.799   2.018  0.4331 -0.3611 -0.5570
 2679TIP3    H129596   2.006   3.879   2.070 -1.6088 -0.9351  0.3893
 2679TIP3    H229597   1.947   3.817   1.946  0.9953 -0.5891 -1.0846
 2680TIP3   OH229598   2.631   4.812   2.212  0.4024  0.0401  0.5809
 2680TIP3    H129599   2.675   4.736   2.251  0.9306  0.4836  0.8633
 2680TIP3    H229600   2.617   4.872   2.286 -0.7728 -0.1341  0.5155
 2681TIP3   OH229601   1.665   5.726   8.411 -0.0772  0.0258  0.1367
 2681TIP3    H129602   1.684   5.807   8.363 -0.5901 -1.6101 -3.1070
 2681TIP3    H229603   1.742   5.671   8.396 -0.4005 -0.6769  0.9664
 2682TIP3   OH229604   6.364   3.254   2.680 -0.8758  0.5948 -0.1571
 2682TIP3    H129605   6.395   3.209   2.601  1.3108 -1.1468  1.5426
 2682TIP3    H229606   6.339   3.183   2.739  1.1545  1.5878  2.0569
 2683TIP3   OH229607   0.536   6.108   0.599  0.2038 -0.1535  0.5007
 2683TIP3    H129608   0.511   6.196   0.628 -0.1200  0.3827 -1.2706
 2683TIP3    H229609   0.585   6.123   0.518  0.6866 -1.5799  0.4991
 2684TIP3   OH229610   2.816   1.944   3.095 -0.2706  0.5490  0.4370
 2684TIP3    H129611   2.748   1.906   3.040  1.1142  0.1142 -1.0610
 2684TIP3    H229612   2.876   1.985   3.033  2.7734 -2.1715  1.2913
 2685TIP3   OH229613   6.663   2.466   7.853  0.2142 -0.0193 -0.4818
 2685TIP3    H129614   6.655   2.438   7.762  1.8609  0.2876 -0.7716
 2685TIP3    H229615   6.642   2.389   7.905  3.0996 -1.4497 -1.2225
 2686TIP3   OH229616   2.368   2.746   8.622 -0.1159 -0.4164  0.4153
 2686TIP3    H129617   2.398   2.725   8.710  1.3482 -3.4896 -0.6636
 2686TIP3    H229618   2.436   2.803   8.586  0.3815 -0.8818  0.6088
 2687TIP3   OH229619   6.412   4.764   1.988  0.0624 -0.2233 -0.0382
 2687TIP3    H129620   6.318   4.773   2.003  0.4076  0.3782  2.1917
 2687TIP3    H229621   6.446   4.728   2.070  1.9868  1.2036 -0.1394
 2688TIP3   OH229622   4.752   6.746   7.418  0.2248 -0.2823  0.1693
 2688TIP3    H129623   4.766   6.753   7.323  0.6737 -1.5292  0.1239
 2688TIP3    H229624   4.825   6.692   7.448 -0.9811 -1.5287  0.9308
 2689TIP3   OH229625   6.036   4.438   0.453  0.7196 -0.4545 -0.3491
 2689TIP3    H129626   6.066   4.394   0.533 -2.2660 -1.5184  0.3175
 2689TIP3    H229627   5.941   4.447   0.464  0.5072  1.5259 -2.7847
 2690TIP3   OH229628   2.947   1.535   8.450 -0.4932  0.2755  1.0383
 2690TIP3    H129629   3.013   1.592   8.490  0.7067 -0.3262 -0.0167
 2690TIP3    H229630   2.995   1.457   8.423 -1.7590 -0.4550  0.7831
 2691TIP3   OH229631   5.537   1.982   7.820  0.3349  0.8189 -0.3565
 2691TIP3    H129632   5.487   1.903   7.840 -1.1878  2.5344  3.5646
 2691TIP3    H229633   5.489   2.023   7.748 -0.6027 -0.3665 -0.4360
 2692TIP3   OH229634   4.693   5.492   0.874 -0.0939  0.0976  0.1195
 2692TIP3    H129635   4.673   5.410   0.920  0.2585 -0.3656 -0.5372
 2692TIP3    H229636   4.724   5.464   0.788 -2.6416  1.0118 -1.1749
 2693TIP3   OH229637   2.005   3.912   2.770  0.3235 -0.2712  0.4152
 2693TIP3    H129638   1.995   3.981   2.704  0.4155 -0.5514  0.1054
 2693TIP3    H229639   2.014   3.959   2.853 -0.7241  0.0721  0.3539
 2694TIP3   OH229640   2.010   2.128   0.150 -0.0828  0.4327  0.1481
 2694TIP3    H129641   1.939   2.083   0.104 -1.1041 -1.3726  3.2307
 2694TIP3    H229642   1.967   2.200   0.196  0.0284 -0.5171  1.8250
 2695TIP3   OH229643   5.192   3.355   8.698 -0.4490 -0.5870 -0.4220
 2695TIP3    H129644   5.231   3.272   8.724 -1.3578 -0.5536  1.1695
 2695TIP3    H229645   5.265   3.406   8.664  0.3494 -1.5823 -0.2493
 2696TIP3   OH229646   5.505   5.869   0.685  0.3548 -0.4410 -0.1847
 2696TIP3    H129647   5.581   5.813   0.698  1.5182  1.1304 -0.0326
 2696TIP3    H229648   5.537   5.942   0.632 -0.7757  0.7740  0.7443
 2697TIP3   OH229649   6.331   1.593   8.353  0.7001  0.6581  0.0091
 2697TIP3    H129650   6.402   1.590   8.289 -0.9515  0.7951 -1.9019
 2697TIP3    H229651   6.277   1.667   8.326 -1.5892 -0.9770 -0.2119
 2698TIP3   OH229652   1.578   2.338   1.289 -0.4839  0.1533  0.1162
 2698TIP3    H129653   1.616   2.350   1.376 -0.3931  0.8836 -0.0224
 2698TIP3    H229654   1.565   2.426   1.255 -0.7094 -0.1187 -0.5340
 2699TIP3   OH229655   5.010   2.630   2.209  0.9138 -0.2537 -0.4916
 2699TIP3    H129656   5.002   2.668   2.297  3.2545 -1.6310  0.4254
 2699TIP3    H229657   5.011   2.536   2.223  0.6172 -0.5270 -2.1033
 2700TIP3   OH229658   0.656   0.483   1.152  0.4497 -0.2183  0.5193
 2700TIP3    H129659   0.643   0.390   1.169 -1.1997 -0.3723 -1.1990
 2700TIP3    H229660   0.568   0.520   1.151  1.0162  1.2042  0.3464
 2701TIP3   OH229661   6.691   1.374   0.305 -0.1979  0.3747  0.7029
 2701TIP3    H129662   6.745   1.392   0.382 -0.2488 -0.1148  0.8620
 2701TIP3    H229663   6.699   1.452   0.250  0.4674  0.4015  0.8361
 2702TIP3   OH229664   4.491   5.787   2.187 -0.8080 -0.0712  0.0332
 2702TIP3    H129665   4.566   5.728   2.193 -0.4740  0.3649  0.1739
 2702TIP3    H229666   4.448   5.778   2.272  0.0454  0.9386  0.5981
 2703TIP3   OH229667   2.818   4.532   7.162  0.0720 -0.0033 -0.1709
 2703TIP3    H129668   2.829   4.534   7.067 -1.2538 -2.3825 -0.4580
 2703TIP3    H229669   2.740   4.585   7.178  1.8402  2.7513  0.0002
 2704TIP3   OH229670   0.301   5.311   7.684  0.5885 -0.4673 -0.2532
 2704TIP3    H129671   0.238   5.317   7.612  0.6920 -0.4598 -0.3437
 2704TIP3    H229672   0.345   5.227   7.670  0.9026 -0.2723 -0.4415
 2705TIP3   OH229673   0.925   2.910   2.356  0.0575 -0.6223  0.2087
 2705TIP3    H129674   0.850   2.961   2.387 -1.3279 -1.3748 -1.6961
 2705TIP3    H229675   0.998   2.941   2.409 -0.6410  3.3730 -0.8303
 2706TIP3   OH229676   2.350   3.472   6.539 -0.3241  0.3597 -0.3119
 2706TIP3    H129677   2.275   3.418   6.513 -0.4996 -0.8782  2.3976
 2706TIP3    H229678   2.311   3.547   6.584 -0.0006 -0.0668  0.7206
 2707TIP3   OH229679   5.066   5.528   1.470 -0.2248  0.4633 -0.0162
 2707TIP3    H129680   5.006   5.600   1.486 -0.2448  0.1921  1.1803
 2707TIP3    H229681   5.065   5.476   1.550 -0.1802 -0.8561 -0.8249
 2708TIP3   OH229682   4.721   3.787   8.697 -0.4504 -0.4822  0.1078
 2708TIP3    H129683   4.656   3.804   8.628 -0.1182  1.8577  0.2900
 2708TIP3    H229684   4.796   3.749   8.651 -0.0337  1.5029 -0.9796
 2709TIP3   OH229685   1.927   2.329   7.344 -0.1008  0.2041 -0.3052
 2709TIP3    H129686   2.005   2.383   7.336  1.1315 -1.6582 -2.1940
 2709TIP3    H229687   1.854   2.391   7.341  1.2483  1.9501  0.9517
 2710TIP3   OH229688   5.809   2.877   8.359 -0.1846  0.3789  0.2921
 2710TIP3    H129689   5.865   2.812   8.316  0.2387  0.1776  1.1404
 2710TIP3    H229690   5.738   2.826   8.398  0.1769  0.4131  1.0056
 2711TIP3   OH229691   0.246   2.703   8.543  0.3432  0.7125 -0.2854
 2711TIP3    H129692   0.186   2.633   8.519  1.0032 -0.0375  0.2051
 2711TIP3    H229693   0.195   2.759   8.603 -0.2284  0.7443 -0.7893
 2712TIP3   OH229694   3.473   3.195   0.979 -0.0072  0.0007  0.3724
 2712TIP3    H129695   3.434   3.270   0.934  1.1884  0.1798 -0.4231
 2712TIP3    H229696   3.460   3.122   0.919  1.9573  0.3204 -0.5464
 2713TIP3   OH229697   0.148   5.478   8.278 -0.1600 -0.3655 -0.6086
 2713TIP3    H129698   0.188   5.537   8.214  0.4059 -1.1884 -1.0291
 2713TIP3    H229699   0.222   5.439   8.324 -0.3591 -2.7613 -2.1421
 2714TIP3   OH229700   4.349   5.588   7.806  0.3784 -0.3358  0.1383
 2714TIP3    H129701   4.285   5.585   7.877  0.9872  0.6992  0.7622
 2714TIP3    H229702   4.302   5.626   7.732  0.4566  1.2539  0.8523
 2715TIP3   OH229703   1.077   0.285   8.385  0.3176  0.1505 -0.3526
 2715TIP3    H129704   1.012   0.218   8.404 -0.0468  0.7942  0.6811
 2715TIP3    H229705   1.104   0.266   8.295 -1.2748 -0.1245 -0.7938
 2716TIP3   OH229706   5.833   4.493   2.193  0.4940  0.2696 -0.0740
 2716TIP3    H129707   5.769   4.499   2.122 -0.0649  1.4155  0.4875
 2716TIP3    H229708   5.918   4.493   2.149  0.1408 -1.9719 -0.8704
 2717TIP3   OH229709   3.277   5.482   2.026  0.3244  0.6910  0.0917
 2717TIP3    H129710   3.270   5.386   2.032 -0.2953  0.7115 -0.2256
 2717TIP3    H229711   3.260   5.513   2.114 -1.7338  0.6173 -0.2210
 2718TIP3   OH229712   5.268   2.698   2.391  0.4375 -0.1427 -0.3315
 2718TIP3    H129713   5.177   2.682   2.416  0.9127 -0.6400  1.2546
 2718TIP3    H229714   5.271   2.791   2.368 -0.7720 -0.4697 -1.9913
 2719TIP3   OH229715   4.055   5.741   6.981 -0.2987  1.0361 -0.0615
 2719TIP3    H129716   4.069   5.825   7.025  2.3148  1.1596 -0.9685
 2719TIP3    H229717   4.134   5.690   7.001 -1.2583 -0.7428 -0.5831
 2720TIP3   OH229718   3.722   2.871   2.324  0.1133  0.6913 -0.0208
 2720TIP3    H129719   3.757   2.950   2.364  0.1296  1.4169 -1.3871
 2720TIP3    H229720   3.631   2.891   2.305  0.3599  0.7673 -1.2485
 2721TIP3   OH229721   4.765   1.429   1.246  0.4213 -0.1776 -0.1280
 2721TIP3    H129722   4.800   1.345   1.275  0.2435 -0.0649  0.4434
 2721TIP3    H229723   4.842   1.482   1.226  0.5996  0.0266  0.9876
 2722TIP3   OH229724   4.858   1.880   8.143 -0.2739  0.1816 -0.2263
 2722TIP3    H129725   4.813   1.936   8.081 -0.5042  0.7633  0.4466
 2722TIP3    H229726   4.916   1.826   8.090 -0.8083  0.3366 -0.9800
 2723TIP3   OH229727   0.694   6.111   7.883 -0.1254  0.0036  0.1313
 2723TIP3    H129728   0.747   6.180   7.844  1.2256 -0.6163  0.8040
 2723TIP3    H229729   0.692   6.133   7.976 -0.7573 -0.1758  0.1631
 2724TIP3   OH229730   5.014   6.519   7.940  0.0931 -0.5791  0.3163
 2724TIP3    H129731   5.031   6.593   7.881  2.3315  0.6716  2.3306
 2724TIP3    H229732   4.920   6.524   7.958 -0.2168  0.3780 -1.2992
 2725TIP3   OH229733   0.274   0.958   1.790  0.1118  0.2308  0.4615
 2725TIP3    H129734   0.240   0.955   1.880  0.7005 -0.5438  0.6726
 2725TIP3    H229735   0.367   0.977   1.801  0.6332 -1.9245  0.1562
 2726TIP3   OH229736   3.041   6.684   1.815 -0.9460  0.1628  0.2993
 2726TIP3    H129737   3.080   6.690   1.903 -1.8762  0.2094  0.7146
 2726TIP3    H229738   3.088   6.611   1.774  1.4814  1.8736 -0.2119
 2727TIP3   OH229739   0.828   2.683   8.294  0.3963 -0.0736 -0.8682
 2727TIP3    H129740   0.844   2.752   8.358  0.9335 -0.6246 -0.3977
 2727TIP3    H229741   0.882   2.610   8.323  0.8804 -0.2380 -2.1117
 2728TIP3   OH229742   4.950   3.992   8.005  0.4450 -0.1270  0.5481
 2728TIP3    H129743   5.041   4.008   7.979  0.2170 -0.9256 -0.8545
 2728TIP3    H229744   4.898   4.019   7.929 -0.3964 -0.7891  0.8721
 2729TIP3   OH229745   1.626   3.541   0.986 -0.0063 -0.8291  0.5888
 2729TIP3    H129746   1.633   3.456   0.944  2.5131 -0.1990 -0.4286
 2729TIP3    H229747   1.571   3.525   1.063 -0.9216 -2.9850 -0.4302
 2730TIP3   OH229748   4.153   1.746   8.585 -0.1536  0.4988  0.3371
 2730TIP3    H129749   4.076   1.802   8.579  0.0149  0.7303  0.3083
 2730TIP3    H229750   4.188   1.763   8.673 -1.7174 -1.7004  1.4903
 2731TIP3   OH229751   0.846   4.345   2.325 -0.6156 -0.1875 -0.1213
 2731TIP3    H129752   0.752   4.339   2.312 -0.5979 -0.2536 -0.2130
 2731TIP3    H229753   0.884   4.279   2.267 -0.5346 -0.4295  0.2071
 2732TIP3   OH229754   5.945   1.801   7.589  0.3196 -0.7459 -0.0145
 2732TIP3    H129755   5.978   1.885   7.557  0.6947 -0.7110  0.4690
 2732TIP3    H229756   6.009   1.737   7.560 -1.2050 -1.2532 -2.6248
 2733TIP3   OH229757   3.075   2.882   0.733  0.6965 -0.8274 -0.6714
 2733TIP3    H129758   3.157   2.916   0.696  0.5922 -0.4990 -0.5975
 2733TIP3    H229759   3.091   2.788   0.741  1.6608 -0.5726  0.8370
 2734TIP3   OH229760   1.823   3.970   7.324 -0.0318  0.2305  0.5319
 2734TIP3    H129761   1.808   4.060   7.297 -0.7706  0.2541  0.9769
 2734TIP3    H229762   1.802   3.917   7.247 -0.7276  0.3801  0.6040
 2735TIP3   OH229763   6.303   5.538   7.794 -0.6574  0.2449 -0.1155
 2735TIP3    H129764   6.325   5.446   7.778  0.7717  0.8699 -1.9742
 2735TIP3    H229765   6.360   5.564   7.866 -0.5520 -0.1232 -0.0630
 2736TIP3   OH229766   5.376   6.687   0.885  0.2132 -0.2507 -0.1390
 2736TIP3    H129767   5.352   6.638   0.964  0.1849 -0.9618 -0.5741
 2736TIP3    H229768   5.355   6.778   0.905  0.1339 -0.4366  0.6432
 2737TIP3   OH229769   6.285   4.905   1.258  0.1844  0.2107  0.2717
 2737TIP3    H129770   6.321   4.877   1.174  1.0687 -1.2630  1.0961
 2737TIP3    H229771   6.190   4.895   1.248  0.1876  1.2000 -0.9288
 2738TIP3   OH229772   3.553   1.321   2.590  0.2520  0.1022 -0.1632
 2738TIP3    H129773   3.629   1.290   2.541  0.0062 -1.6713  0.4911
 2738TIP3    H229774   3.537   1.252   2.655 -1.9276  0.3991 -0.3071
 2739TIP3   OH229775   5.021   2.632   7.178  0.2655  0.0534  0.1034
 2739TIP3    H129776   5.024   2.538   7.194  2.3008  0.0225 -0.2203
 2739TIP3    H229777   5.110   2.662   7.195 -0.4116  1.9854  0.5015
 2740TIP3   OH229778   3.546   2.348   7.636 -0.3127 -0.1530 -0.7278
 2740TIP3    H129779   3.462   2.382   7.603  0.1889 -0.1508 -2.0584
 2740TIP3    H229780   3.610   2.373   7.570  0.9123  0.5883  0.6660
 2741TIP3   OH229781   1.061   6.056   8.515  0.0203 -0.4399  0.3051
 2741TIP3    H129782   1.100   6.070   8.602  1.5208 -0.3520 -0.3486
 2741TIP3    H229783   1.042   5.962   8.512  1.2073 -0.6881  0.2543
 2742TIP3   OH229784   0.205   3.885   2.145  0.3662 -0.1182  0.0854
 2742TIP3    H129785   0.298   3.883   2.166  0.5379  1.1329 -0.4830
 2742TIP3    H229786   0.165   3.933   2.218  0.2504 -0.0862  0.0003
 2743TIP3   OH229787   3.133   0.333   7.806 -0.2426 -0.1184 -0.1420
 2743TIP3    H129788   3.165   0.252   7.847  0.1149 -0.6888 -1.4896
 2743TIP3    H229789   3.072   0.303   7.738 -0.7440  0.7915 -0.1025
 2744TIP3   OH229790   0.928   6.741   1.458  0.1177 -0.3137 -0.0380
 2744TIP3    H129791   1.004   6.709   1.505 -1.1176 -3.3295  0.0922
 2744TIP3    H229792   0.855   6.730   1.519 -1.1167 -1.9962 -1.7000
 2745TIP3   OH229793   5.271   6.554   8.252 -0.3315  0.0935  0.6552
 2745TIP3    H129794   5.264   6.637   8.204 -1.5949  0.2846  1.1337
 2745TIP3    H229795   5.335   6.504   8.202  0.7877  1.5100  0.5999
 2746TIP3   OH229796   4.206   2.092   8.027 -0.4888  0.5104  0.3407
 2746TIP3    H129797   4.285   2.119   8.075  0.4566  1.1430 -1.4680
 2746TIP3    H229798   4.237   2.073   7.939 -2.1170 -0.9267  0.0328
 2747TIP3   OH229799   2.280   0.321   7.260  0.0672 -0.4022  0.3407
 2747TIP3    H129800   2.371   0.342   7.281  0.5419 -2.0592  0.0725
 2747TIP3    H229801   2.237   0.309   7.345 -0.3268  1.8578  0.5247
 2748TIP3   OH229802   1.395   3.508   8.355 -0.0145  0.6879 -0.2589
 2748TIP3    H129803   1.453   3.580   8.378  1.0305 -0.4489  0.8591
 2748TIP3    H229804   1.324   3.548   8.305  0.3838  2.5145  0.5659
 2749TIP3   OH229805   4.144   1.592   0.488 -0.8949 -0.2440 -0.9019
 2749TIP3    H129806   4.072   1.595   0.551 -0.3390  1.0133 -0.2887
 2749TIP3    H229807   4.106   1.625   0.406 -1.1392 -0.0871 -0.7253
 2750TIP3   OH229808   2.231   0.165   2.921  0.0278 -0.3019  0.1276
 2750TIP3    H129809   2.298   0.206   2.976  3.4417 -1.9409 -2.3901
 2750TIP3    H229810   2.200   0.235   2.864  1.5100  0.0397 -0.3061
 2751TIP3   OH229811   3.911   0.406   3.231  0.1218  0.3915  0.0619
 2751TIP3    H129812   3.923   0.485   3.178  0.0538  2.5565  3.0265
 2751TIP3    H229813   3.816   0.399   3.243  0.2072  1.0481  1.3446
 2752TIP3   OH229814   3.328   5.203   1.961  0.1858 -0.1722 -0.4161
 2752TIP3    H129815   3.375   5.162   1.888 -2.4393 -2.1029 -1.1717
 2752TIP3    H229816   3.238   5.211   1.931 -0.4349  1.6125  1.6403
 2753TIP3   OH229817   2.776   4.536   7.831  0.2564  0.5623  0.4537
 2753TIP3    H129818   2.795   4.454   7.877 -0.8837 -0.0774 -0.1599
 2753TIP3    H229819   2.719   4.584   7.891  0.4878  0.6713  0.5880
 2754TIP3   OH229820   2.416   1.300   8.413  0.6550 -0.1135 -0.0873
 2754TIP3    H129821   2.322   1.303   8.395  0.6754  0.9010 -0.0793
 2754TIP3    H229822   2.447   1.223   8.364 -0.1313 -0.3232 -0.2761
 2755TIP3   OH229823   6.459   0.748   1.183 -0.4372  0.6311  0.1447
 2755TIP3    H129824   6.499   0.729   1.268  0.8492  1.5276 -0.2250
 2755TIP3    H229825   6.478   0.841   1.169  0.8700  0.1061 -1.8797
 2756TIP3   OH229826   5.202   1.544   8.277 -0.2026  0.0353 -0.7974
 2756TIP3    H129827   5.201   1.601   8.354  0.7176 -0.6239 -0.2835
 2756TIP3    H229828   5.119   1.497   8.280 -0.3853  0.3700 -0.4896
 2757TIP3   OH229829   5.207   3.637   7.255 -0.3324 -0.1822 -0.0972
 2757TIP3    H129830   5.169   3.721   7.282  0.9731  0.4266 -0.0596
 2757TIP3    H229831   5.160   3.572   7.306 -0.8219  0.5986  0.4775
 2758TIP3   OH229832   4.980   1.784   1.791 -0.3744  0.3627 -0.2634
 2758TIP3    H129833   5.042   1.819   1.727 -0.3543 -0.5249 -0.7428
 2758TIP3    H229834   4.948   1.703   1.752 -0.1878 -0.3235  0.9511
 2759TIP3   OH229835   1.956   5.898   7.170 -0.2780 -0.7205 -0.5679
 2759TIP3    H129836   1.889   5.851   7.220 -0.6716  0.0364 -0.3613
 2759TIP3    H229837   2.035   5.845   7.180 -1.0560 -2.1487 -1.6085
 2760TIP3   OH229838   4.881   6.828   0.258 -0.5177  0.0243 -0.3010
 2760TIP3    H129839   4.879   6.921   0.281  0.8713 -0.2002  0.9283
 2760TIP3    H229840   4.789   6.800   0.259 -0.7800  0.7114  2.4304
 2761TIP3   OH229841   5.859   3.887   7.709 -0.5363 -0.0011  0.0669
 2761TIP3    H129842   5.813   3.843   7.781 -0.5671 -0.9394 -0.4973
 2761TIP3    H229843   5.942   3.916   7.747 -0.9366  0.3284  0.7039
 2762TIP3   OH229844   1.578   3.849   0.342  0.8363  0.0853  0.0026
 2762TIP3    H129845   1.654   3.823   0.291  1.1851 -0.2133  0.6620
 2762TIP3    H229846   1.593   3.941   0.363  1.3031 -0.1273  0.6214
 2763TIP3   OH229847   2.333   6.021   7.942  0.1807  0.0610  0.3097
 2763TIP3    H129848   2.391   6.097   7.939 -2.5059  2.4110  2.2778
 2763TIP3    H229849   2.291   6.026   8.027 -1.2297 -2.8454 -0.0910
 2764TIP3   OH229850   1.316   0.394   1.214  0.2958 -0.3010  0.3706
 2764TIP3    H129851   1.231   0.422   1.246  0.3999 -0.3112  0.6583
 2764TIP3    H229852   1.338   0.317   1.267  0.2967 -0.5484  0.0147
 2765TIP3   OH229853   4.695   2.212   0.974 -0.3653 -0.2478  0.4170
 2765TIP3    H129854   4.780   2.253   0.959 -0.4528 -0.5627 -1.1443
 2765TIP3    H229855   4.655   2.208   0.887 -1.5735 -1.0017  0.9779
 2766TIP3   OH229856   4.346   3.899   0.649  0.2172 -0.0301 -0.2221
 2766TIP3    H129857   4.351   3.804   0.640 -0.7586 -0.0271 -1.0381
 2766TIP3    H229858   4.398   3.934   0.577  1.4259  0.0893  0.6662
 2767TIP3   OH229859   4.111   2.119   0.923 -0.2724 -0.1150 -0.8815
 2767TIP3    H129860   4.075   2.197   0.881 -2.1483 -0.4578 -0.0172
 2767TIP3    H229861   4.161   2.153   0.998 -1.9798  0.2775  0.1392
 2768TIP3   OH229862   5.153   4.316   1.173  0.6394  0.3200 -0.1862
 2768TIP3    H129863   5.163   4.331   1.267 -0.5020  1.0198 -0.1625
 2768TIP3    H229864   5.113   4.230   1.166 -0.7656  0.9193  0.0662
 2769TIP3   OH229865   1.303   5.809   7.394  0.6672  0.1619 -0.0946
 2769TIP3    H129866   1.323   5.834   7.304 -1.8254  2.1390 -0.1951
 2769TIP3    H229867   1.283   5.715   7.388  1.7126 -0.0096 -1.3668
 2770TIP3   OH229868   5.979   1.443   2.846 -0.7049  0.5229 -0.1995
 2770TIP3    H129869   6.034   1.474   2.918  0.4423 -0.9153 -0.4092
 2770TIP3    H229870   5.986   1.511   2.779  0.8173  0.3897 -0.2029
 2771TIP3   OH229871   2.049   2.339   8.363  0.2069  0.7714 -0.0161
 2771TIP3    H129872   1.974   2.353   8.421 -0.4282  1.3325 -0.9538
 2771TIP3    H229873   2.118   2.394   8.401 -1.0567  3.5286 -1.3571
 2772TIP3   OH229874   4.100   2.184   2.589 -0.1792 -0.0417  0.3059
 2772TIP3    H129875   4.032   2.249   2.607 -0.1291  0.9375 -2.4942
 2772TIP3    H229876   4.053   2.101   2.585 -0.7739  0.2582  0.9612
 2773TIP3   OH229877   1.105   0.313   8.122  0.2373  0.3227 -0.4792
 2773TIP3    H129878   1.065   0.238   8.079  0.2483 -0.5004  0.8893
 2773TIP3    H229879   1.033   0.375   8.135 -0.2286 -0.3681  0.3048
 2774TIP3   OH229880   4.359   5.920   1.040 -0.5153  0.5923 -0.4837
 2774TIP3    H129881   4.379   6.003   1.082  0.6682  0.4480 -0.7270
 2774TIP3    H229882   4.405   5.854   1.092 -2.8168 -0.1589  0.7407
 2775TIP3   OH229883   0.479   1.465   1.831 -0.2753  0.3123 -0.3252
 2775TIP3    H129884   0.550   1.505   1.882 -1.2618 -0.3189  1.6352
 2775TIP3    H229885   0.409   1.529   1.832 -0.6603 -0.1126 -0.0548
 2776TIP3   OH229886   6.447   6.597   8.370 -0.0130 -0.5721  0.9386
 2776TIP3    H129887   6.408   6.677   8.335  2.7320  0.2794 -0.3987
 2776TIP3    H229888   6.374   6.535   8.373 -1.5230  0.9265 -1.3103
 2777TIP3   OH229889   5.870   1.157   8.556 -0.3763  0.2106  0.3099
 2777TIP3    H129890   5.888   1.248   8.580 -0.6592  0.2410  0.4008
 2777TIP3    H229891   5.937   1.107   8.603 -1.3715  0.1984  1.7764
 2778TIP3   OH229892   4.289   5.514   2.043 -0.4404 -0.1316  0.2515
 2778TIP3    H129893   4.380   5.544   2.044 -0.1605 -0.9655  0.7804
 2778TIP3    H229894   4.282   5.462   1.963 -0.4967  0.0670  0.1275
 2779TIP3   OH229895   5.042   0.056   8.257 -0.5070  0.0361 -0.1709
 2779TIP3    H129896   4.962   0.108   8.250 -0.3425  0.2199 -0.7402
 2779TIP3    H229897   5.025  -0.004   8.330 -1.2719 -0.1178 -0.4664
 2780TIP3   OH229898   4.852   5.791   7.379 -0.2004  0.1066 -0.1075
 2780TIP3    H129899   4.925   5.803   7.440 -1.0433  1.5063  0.6825
 2780TIP3    H229900   4.820   5.879   7.363 -1.9447 -0.4928 -0.1385
 2781TIP3   OH229901   6.571   6.658   0.343  0.0097  0.9607  0.2182
 2781TIP3    H129902   6.564   6.747   0.309 -0.1869  0.6005 -0.7202
 2781TIP3    H229903   6.662   6.650   0.371  0.2518  1.1910 -0.4781
 2782TIP3   OH229904   0.637   1.350   7.811  0.0370  0.4803  0.2738
 2782TIP3    H129905   0.662   1.406   7.737 -0.3856 -0.7085 -0.8033
 2782TIP3    H229906   0.716   1.301   7.832 -0.1850 -0.1146 -0.2529
 2783TIP3   OH229907   6.084   4.442   7.986 -0.2542  0.5581 -0.2466
 2783TIP3    H129908   6.130   4.371   8.030 -2.5605  0.0096  1.4616
 2783TIP3    H229909   6.110   4.433   7.894  1.6340 -0.7495  0.3424
 2784TIP3   OH229910   6.566   4.796   1.487  0.3415 -0.0932 -0.4232
 2784TIP3    H129911   6.533   4.884   1.470  0.3648  0.0332  0.1542
 2784TIP3    H229912   6.635   4.784   1.422  0.2769  0.2846 -0.5661
 2785TIP3   OH229913   2.191   5.852   0.939  0.3990  0.1122 -0.1305
 2785TIP3    H129914   2.249   5.801   0.882  0.2064 -0.4363  0.1566
 2785TIP3    H229915   2.105   5.812   0.929 -0.7360  2.8965 -3.0346
 2786TIP3   OH229916   1.172   6.210   1.972 -0.0735 -0.0945 -0.4606
 2786TIP3    H129917   1.086   6.170   1.956  0.1295  0.0088 -1.9412
 2786TIP3    H229918   1.230   6.135   1.987 -0.1862 -0.2346 -0.7042
 2787TIP3   OH229919   5.722   3.195   0.091  0.2009 -0.5744  0.1409
 2787TIP3    H129920   5.683   3.108   0.102  1.7514 -1.1788  1.1874
 2787TIP3    H229921   5.746   3.223   0.179  0.8642  0.3694 -0.3186
 2788TIP3   OH229922   5.145   2.314   0.119 -0.1110  0.3398 -0.0434
 2788TIP3    H129923   5.205   2.341   0.189 -0.1513 -0.1909  0.1972
 2788TIP3    H229924   5.187   2.346   0.039 -0.2269  1.2432  0.2390
 2789TIP3   OH229925   6.481   6.125   7.481 -0.0200 -0.1442  0.4244
 2789TIP3    H129926   6.438   6.178   7.549 -0.2291  1.2897 -0.7640
 2789TIP3    H229927   6.411   6.101   7.421  0.2058 -1.1876  0.5609
 2790TIP3   OH229928   3.645   3.766   0.619  0.3650  0.3466 -0.0923
 2790TIP3    H129929   3.616   3.677   0.601  2.1571 -0.9748  2.8539
 2790TIP3    H229930   3.739   3.758   0.636  0.7498  2.9566 -0.6121
 2791TIP3   OH229931   2.308   6.803   1.196 -0.1464  0.5333 -0.0162
 2791TIP3    H129932   2.348   6.743   1.259  0.6157 -0.5849 -1.5185
 2791TIP3    H229933   2.367   6.879   1.195 -0.9315  1.2040  1.6385
 2792TIP3   OH229934   5.209   5.898   2.382  0.4191  0.6961 -0.3547
 2792TIP3    H129935   5.297   5.891   2.345  0.4646  1.1775 -0.3479
 2792TIP3    H229936   5.183   5.808   2.400  1.3471  0.6167  0.6698
 2793TIP3   OH229937   2.564   0.901   8.344 -0.3941  0.2016  0.0282
 2793TIP3    H129938   2.479   0.937   8.319 -0.3155  0.6743  0.4281
 2793TIP3    H229939   2.627   0.953   8.296 -0.1911  1.7153  1.8242
 2794TIP3   OH229940   4.695   6.853   7.660 -0.3666  0.2940 -0.5272
 2794TIP3    H129941   4.732   6.827   7.576  1.5201  0.6947  0.1451
 2794TIP3    H229942   4.712   6.779   7.718 -0.4522  0.5586 -0.1600
 2795TIP3   OH229943   6.606   1.767   8.073 -0.7571 -0.0751 -0.3650
 2795TIP3    H129944   6.620   1.683   8.118 -1.9740 -0.4903 -0.7257
 2795TIP3    H229945   6.511   1.777   8.070 -0.6368  1.0240 -0.8894
 2796TIP3   OH229946   2.304   2.811   1.895  0.0277  0.1086 -0.1244
 2796TIP3    H129947   2.328   2.718   1.894 -0.9987 -0.1701 -0.1317
 2796TIP3    H229948   2.239   2.820   1.824 -0.3196  0.7002  0.2586
 2797TIP3   OH229949   6.006   2.118   7.441  0.2226  0.3660  0.4638
 2797TIP3    H129950   6.083   2.112   7.497  0.3606 -0.1197  0.2255
 2797TIP3    H229951   6.009   2.207   7.406  1.8686 -0.3110 -1.2467
 2798TIP3   OH229952   1.512   4.769   0.716  0.3544  0.5878  0.3037
 2798TIP3    H129953   1.437   4.769   0.776 -0.4979 -2.0528 -0.6046
 2798TIP3    H229954   1.481   4.815   0.638  1.0923  3.0191  1.3406
 2799TIP3   OH229955   3.500   1.805   3.003  0.4275 -0.1554 -0.2777
 2799TIP3    H129956   3.435   1.798   2.933 -0.4147  1.4757  0.2887
 2799TIP3    H229957   3.450   1.797   3.084  1.2369 -0.9167  0.1617
 2800TIP3   OH229958   3.375   3.002   1.165 -0.0828  0.1871 -0.2563
 2800TIP3    H129959   3.447   3.057   1.131  1.6951 -1.2961  0.9080
 2800TIP3    H229960   3.384   3.009   1.261 -2.0886  0.6475 -0.0659
 2801TIP3   OH229961   0.325   3.726   8.162 -0.3989 -0.3274 -0.2010
 2801TIP3    H129962   0.243   3.775   8.170 -0.4294 -0.2188 -1.1153
 2801TIP3    H229963   0.359   3.748   8.075  0.5900 -0.3990  0.1515
 2802TIP3   OH229964   3.060   3.832   2.416 -0.3648 -0.4972  0.2548
 2802TIP3    H129965   2.997   3.820   2.487  0.3060  0.5245  1.0420
 2802TIP3    H229966   3.071   3.926   2.409  4.2365 -0.5325  3.0712
 2803TIP3   OH229967   1.417   6.446   2.328 -0.2636 -0.4185  0.2344
 2803TIP3    H129968   1.477   6.517   2.306 -0.5959 -0.5493 -1.1833
 2803TIP3    H229969   1.380   6.471   2.412 -0.0603  0.8771 -0.0467
 2804TIP3   OH229970   5.555   3.386   2.148 -0.0995  0.0948 -0.1863
 2804TIP3    H129971   5.589   3.309   2.192  1.4774  0.8412 -0.0386
 2804TIP3    H229972   5.508   3.351   2.072 -2.3591 -1.1721  1.6850
 2805TIP3   OH229973   3.969   0.084   7.527 -0.0172  0.2845  0.3445
 2805TIP3    H129974   4.031   0.013   7.511 -2.4155 -1.8498 -0.3394
 2805TIP3    H229975   3.982   0.145   7.455  0.7172 -0.5452 -0.2430
 2806TIP3   OH229976   2.271   5.918   1.613  0.7499 -0.2466 -0.2227
 2806TIP3    H129977   2.208   5.925   1.541  1.3785  0.5225 -0.7154
 2806TIP3    H229978   2.231   5.970   1.684  0.6505 -0.0844 -0.3970
 2807TIP3   OH229979   6.138   1.281   1.919 -0.0169 -0.1581  0.4450
 2807TIP3    H129980   6.199   1.347   1.887  1.3283 -1.1949  0.7832
 2807TIP3    H229981   6.126   1.222   1.845  0.6054 -0.8007  0.8469
 2808TIP3   OH229982   0.430   3.355   0.350 -0.4285  0.3468 -0.4590
 2808TIP3    H129983   0.412   3.417   0.280 -1.2445 -1.0012 -1.4827
 2808TIP3    H229984   0.344   3.321   0.375  0.0866 -1.2342 -0.7510
 2809TIP3   OH229985   0.120   4.248   7.748 -0.4009  0.1267 -0.1956
 2809TIP3    H129986   0.108   4.204   7.664  0.8529 -0.4829 -0.0705
 2809TIP3    H229987   0.142   4.179   7.809 -0.5634  0.6614  0.4821
 2810TIP3   OH229988   2.916   2.261   7.557  0.4892  0.1405 -0.3396
 2810TIP3    H129989   2.877   2.177   7.583  1.2409  0.1883  1.0341
 2810TIP3    H229990   2.918   2.257   7.462 -1.8327 -0.3272 -0.4416
 2811TIP3   OH229991   3.090   2.993   8.010  0.3754 -0.5712  0.5502
 2811TIP3    H129992   3.068   3.015   8.100  1.8407 -0.0546  0.8085
 2811TIP3    H229993   3.185   3.004   8.005  0.0944  2.0332 -1.7169
 2812TIP3   OH229994   3.944   0.680   0.222 -0.0164  0.0788  0.4096
 2812TIP3    H129995   4.026   0.637   0.246 -0.1140  0.3606  1.2664
 2812TIP3    H229996   3.970   0.744   0.156  0.2618 -0.6732 -0.2221
 2813TIP3   OH229997   5.863   3.567   0.475  0.0005  0.1223  0.0965
 2813TIP3    H129998   5.952   3.581   0.445  0.6095  2.2866  2.4882
 2813TIP3    H229999   5.810   3.628   0.423  0.4168  0.9644  0.6328
 2814TIP3   OH230000   3.627   4.011   2.090  0.5511 -0.0523 -0.6293
 2814TIP3    H130001   3.619   4.072   2.163 -0.1859 -1.4101  0.4753
 2814TIP3    H230002   3.537   3.979   2.077  0.4360  1.0417 -2.9376
 2815TIP3   OH230003   1.929   0.058   7.942  0.0312  0.0658  0.0940
 2815TIP3    H130004   1.844   0.019   7.962  0.8578 -1.1311  1.3861
 2815TIP3    H230005   1.992   0.007   7.992  1.4711  1.2879 -0.3928
 2816TIP3   OH230006   4.293   5.389   0.764  0.3377 -0.1254  0.3573
 2816TIP3    H130007   4.319   5.407   0.855  0.6370  0.4392  0.1639
 2816TIP3    H230008   4.369   5.345   0.726  0.3792  0.0310  0.2587
 2817TIP3   OH230009   5.254   1.220   0.650  0.1768  0.0747  0.1367
 2817TIP3    H130010   5.247   1.142   0.705 -0.1385  0.2989  0.4210
 2817TIP3    H230011   5.305   1.282   0.703 -1.7638  1.0003  1.0182
 2818TIP3   OH230012   0.464   0.949   7.572  0.2484 -0.5996  0.0894
 2818TIP3    H130013   0.513   0.894   7.511 -1.1072 -0.7194 -0.9323
 2818TIP3    H230014   0.514   1.030   7.577  1.7641 -1.5318  0.8727
 2819TIP3   OH230015   5.953   0.169   7.204 -0.7764 -0.3725  0.1472
 2819TIP3    H130016   6.028   0.111   7.208 -0.5947 -0.1449  0.0902
 2819TIP3    H230017   5.891   0.126   7.145 -0.0829  0.1281 -0.9872
 2820TIP3   OH230018   3.616   3.251   1.831 -0.9880  0.1000 -0.2760
 2820TIP3    H130019   3.708   3.226   1.844 -0.8470  0.9190  0.4456
 2820TIP3    H230020   3.569   3.206   1.900 -0.9286  0.7041  0.1706
 2821TIP3   OH230021   2.034   3.779   7.350 -0.3143  0.1372  0.1758
 2821TIP3    H130022   2.084   3.788   7.269 -0.9231 -0.7123 -0.3073
 2821TIP3    H230023   1.966   3.846   7.343 -0.3771  0.0530 -0.0198
 2822TIP3   OH230024   3.338   5.993   2.051 -0.2605 -0.4028  0.4149
 2822TIP3    H130025   3.321   5.920   1.991 -0.6189 -0.8725  1.0618
 2822TIP3    H230026   3.424   6.026   2.026 -0.2938 -0.7536 -0.1862
 2823TIP3   OH230027   1.667   1.271   0.717  0.0215  0.4357  0.2261
 2823TIP3    H130028   1.645   1.186   0.754 -0.6863  0.6023  0.2076
 2823TIP3    H230029   1.596   1.290   0.656  1.1310  0.1873 -1.2177
 2824TIP3   OH230030   0.024   6.222   2.212 -0.5097  0.0686  0.1296
 2824TIP3    H130031  -0.009   6.300   2.257  0.1275 -0.3173  1.3154
 2824TIP3    H230032   0.025   6.155   2.280 -3.4446 -1.7377 -1.4024
 2825TIP3   OH230033   2.784   4.280   2.874  0.1653  0.5416  0.0540
 2825TIP3    H130034   2.810   4.262   2.964  0.3674  0.4982 -0.0108
 2825TIP3    H230035   2.839   4.354   2.848  1.0693 -0.2863 -0.4646
 2826TIP3   OH230036   3.969   2.218   3.125 -0.3291 -0.3711 -0.4866
 2826TIP3    H130037   4.056   2.247   3.149 -0.7159 -0.4752  1.1117
 2826TIP3    H230038   3.973   2.122   3.131 -0.2578 -0.4448 -1.5164
 2827TIP3   OH230039   3.476   5.001   8.626 -0.2761 -0.1935  0.0103
 2827TIP3    H130040   3.398   5.057   8.632 -0.4930 -0.5715  1.0169
 2827TIP3    H230041   3.485   4.963   8.714  1.0871 -0.1050 -0.0653
 2828TIP3   OH230042   4.005   2.457   1.974 -0.1889 -0.2974  0.1414
 2828TIP3    H130043   3.931   2.473   2.032  0.3033 -0.7176  0.9096
 2828TIP3    H230044   4.007   2.362   1.964 -0.4652 -0.2099 -0.8470
 2829TIP3   OH230045   0.149   0.177   7.724  0.0487 -0.0038 -0.1614
 2829TIP3    H130046   0.135   0.207   7.814 -1.0089 -0.6817 -0.0782
 2829TIP3    H230047   0.070   0.127   7.703  0.5900 -0.4453 -1.2277
 2830TIP3   OH230048   5.753   4.415   8.557 -0.0029 -0.6518  0.6368
 2830TIP3    H130049   5.755   4.320   8.574  1.1789 -0.5229  1.3761
 2830TIP3    H230050   5.827   4.429   8.498 -1.4955 -0.4729 -1.2731
 2831TIP3   OH230051   0.682   5.070   8.678  0.1587 -0.3577 -0.3243
 2831TIP3    H130052   0.726   5.050   8.761 -0.4444 -1.8139 -0.3274
 2831TIP3    H230053   0.752   5.069   8.613  0.5288  0.1138  0.0566
 2832TIP3   OH230054   0.520   0.654   8.087 -0.1476 -0.7853 -0.1029
 2832TIP3    H130055   0.503   0.728   8.145  1.1620 -1.5954  1.4094
 2832TIP3    H230056   0.524   0.692   7.999 -0.5991  0.7335  0.4979
 2833TIP3   OH230057   4.594   2.098   2.705  0.2128 -0.1423 -0.3141
 2833TIP3    H130058   4.608   2.003   2.705  1.6588  0.0417 -0.6093
 2833TIP3    H230059   4.607   2.124   2.796 -3.3915 -0.5715  0.4889
 2834TIP3   OH230060   3.923   1.182   2.148 -0.2662  0.2174  0.2093
 2834TIP3    H130061   3.922   1.259   2.090  1.0119  2.3250  2.7742
 2834TIP3    H230062   3.842   1.135   2.126  0.0087  0.9944 -3.0115
 2835TIP3   OH230063   6.502   1.886   1.346 -0.1679  0.1878 -0.0177
 2835TIP3    H130064   6.464   1.803   1.373 -1.3341  0.9728  0.8496
 2835TIP3    H230065   6.448   1.914   1.272 -0.2244  0.5069  0.1435
 2836TIP3   OH230066   3.802   0.980   1.967 -0.3153 -0.5865  0.3695
 2836TIP3    H130067   3.707   0.971   1.969 -0.5386  1.5702  2.2422
 2836TIP3    H230068   3.834   0.904   2.016 -1.1816 -0.3999  1.2549
 2837TIP3   OH230069   6.306   6.726   0.999 -0.1382 -0.1087 -0.4193
 2837TIP3    H130070   6.390   6.713   0.954 -0.6708 -1.1232 -1.1630
 2837TIP3    H230071   6.244   6.674   0.948 -0.5593 -2.4886  2.2882
 2838TIP3   OH230072   5.101   3.633   8.380 -0.1237  0.6767  0.2151
 2838TIP3    H130073   5.019   3.665   8.418 -0.5669  0.2622 -0.3733
 2838TIP3    H230074   5.085   3.541   8.362  0.5984  0.5049  0.4227
 2839TIP3   OH230075   5.331   1.224   0.154  0.1569  0.3913 -0.6328
 2839TIP3    H130076   5.307   1.145   0.203  1.5327 -1.1112 -2.2596
 2839TIP3    H230077   5.270   1.225   0.080  0.8143  0.2536 -1.1832
 2840TIP3   OH230078   0.053   6.681   1.559  0.7598 -0.2013 -0.0361
 2840TIP3    H130079   0.008   6.612   1.608  1.9839 -1.8091 -1.0774
 2840TIP3    H230080   0.129   6.703   1.614  0.2995  0.4353  0.3573
 2841TIP3   OH230081   2.824   5.426   8.294 -0.3716 -0.4237  0.3045
 2841TIP3    H130082   2.749   5.388   8.340 -0.3686  0.1015  0.7507
 2841TIP3    H230083   2.883   5.455   8.364  0.5807 -1.4718 -0.0398
 2842TIP3   OH230084   2.845   6.654   8.333  0.0700 -0.5500 -0.5481
 2842TIP3    H130085   2.849   6.705   8.414 -1.1544  1.3069 -1.5990
 2842TIP3    H230086   2.935   6.656   8.299 -0.0260  1.4257 -0.8192
 2843TIP3   OH230087   3.458   0.318   8.165  0.5786 -0.2051 -0.1566
 2843TIP3    H130088   3.377   0.272   8.186  0.9687 -1.2926 -0.9109
 2843TIP3    H230089   3.465   0.386   8.231 -1.3996  0.4928 -0.5918
 2844TIP3   OH230090   3.917   1.609   2.696 -0.4266 -0.5910  0.8079
 2844TIP3    H130091   3.985   1.544   2.714  1.9478  1.3512 -0.5842
 2844TIP3    H230092   3.893   1.594   2.605  0.7626  0.9118  0.1978
 2845TIP3   OH230093   2.088   4.903   1.748 -0.6580  0.6761 -0.5086
 2845TIP3    H130094   2.147   4.864   1.812 -0.3701 -0.9048 -1.6789
 2845TIP3    H230095   2.031   4.959   1.800 -0.8443 -1.0131  1.2388
 2846TIP3   OH230096   2.161   1.841   8.110 -0.2190  0.3175 -0.0791
 2846TIP3    H130097   2.181   1.913   8.170  2.0893  0.0554 -0.4416
 2846TIP3    H230098   2.209   1.862   8.031 -2.1191 -0.0412 -1.3915
 2847TIP3   OH230099   5.556   2.275   7.585  0.0675  0.2045 -0.3220
 2847TIP3    H130100   5.556   2.212   7.514 -1.6880  0.6820 -0.7956
 2847TIP3    H230101   5.614   2.345   7.556  0.3236 -0.1814 -0.7443
 2848TIP3   OH230102   3.394   1.147   7.450  0.0282  0.3217 -0.0012
 2848TIP3    H130103   3.316   1.116   7.497 -0.1631 -1.8126 -1.5618
 2848TIP3    H230104   3.360   1.200   7.379  0.1374  0.9736  0.4245
 2849TIP3   OH230105   5.753   5.857   8.437 -0.3317  0.2680 -0.0432
 2849TIP3    H130106   5.829   5.912   8.420 -1.6666  1.7720 -1.4699
 2849TIP3    H230107   5.683   5.919   8.460 -1.7518 -0.8383 -1.1550
 2850TIP3   OH230108   5.833   1.223   6.712  0.0466 -0.1682 -0.3890
 2850TIP3    H130109   5.880   1.153   6.757  1.4040 -0.0548 -1.5753
 2850TIP3    H230110   5.900   1.288   6.691 -1.1965  1.6147  0.8267
 2851TIP3   OH230111   5.555   3.007   0.716 -0.5208 -0.1116 -0.3148
 2851TIP3    H130112   5.528   3.071   0.650 -0.5873  0.9396  0.7059
 2851TIP3    H230113   5.614   2.948   0.669 -0.2146  0.8722 -1.2150
 2852TIP3   OH230114   6.686   0.323   1.510  0.4305  0.2540 -0.0436
 2852TIP3    H130115   6.709   0.343   1.600  1.5976  0.3587 -0.3420
 2852TIP3    H230116   6.647   0.235   1.514  2.4732 -0.7001  0.3273
 2853TIP3   OH230117   5.892   2.410   2.358 -0.3177  0.1795 -0.1410
 2853TIP3    H130118   5.963   2.348   2.374 -0.8773 -0.8356 -1.4095
 2853TIP3    H230119   5.817   2.356   2.334 -1.3819  1.2579  0.6291
 2854TIP3   OH230120   5.569   5.130   8.598  0.3252  0.0006  0.4561
 2854TIP3    H130121   5.644   5.172   8.640 -0.9326  3.1825 -0.1999
 2854TIP3    H230122   5.498   5.140   8.661 -0.1957 -0.4257 -0.0567
 2855TIP3   OH230123   0.409   5.658   1.776  0.8819 -0.9071  0.4023
 2855TIP3    H130124   0.472   5.598   1.815  1.3930 -3.5467 -3.8736
 2855TIP3    H230125   0.462   5.719   1.725  0.1434 -1.2458 -0.8109
 2856TIP3   OH230126   0.963   5.786   0.676  0.1026 -0.7600 -0.2670
 2856TIP3    H130127   0.933   5.764   0.764  0.0594 -0.9493 -0.3276
 2856TIP3    H230128   1.058   5.779   0.679  0.1271 -0.4121 -0.1421
 2857TIP3   OH230129   4.404   2.745   1.576 -0.4639  0.0567 -0.2974
 2857TIP3    H130130   4.396   2.815   1.510 -0.0464 -0.3552 -0.7961
 2857TIP3    H230131   4.395   2.664   1.526 -0.3486 -0.2563  0.1857
 2858TIP3   OH230132   2.158   5.773   2.391 -0.4789 -0.2413 -0.5841
 2858TIP3    H130133   2.202   5.727   2.319  0.7960  0.0683 -0.0223
 2858TIP3    H230134   2.160   5.865   2.365  1.6401  0.1180  0.6341
 2859TIP3   OH230135   4.154   1.054   2.219 -0.0412  0.0807  0.1964
 2859TIP3    H130136   4.067   1.084   2.191 -0.0859 -0.2491 -0.0274
 2859TIP3    H230137   4.140   0.964   2.247  0.2062  0.0692  0.2847
 2860TIP3   OH230138   1.285   1.205   2.757  0.0023  0.3639  0.1274
 2860TIP3    H130139   1.208   1.152   2.779 -0.1513 -0.1795 -1.6321
 2860TIP3    H230140   1.252   1.272   2.697  1.1078 -0.6971 -1.7364
 2861TIP3   OH230141   2.341   0.813   1.739 -0.5605  0.1159  0.4539
 2861TIP3    H130142   2.387   0.782   1.817 -1.2383  0.3092  0.9298
 2861TIP3    H230143   2.407   0.807   1.669 -0.3268 -1.3081  0.7640
 2862TIP3   OH230144   5.554   1.735   2.692 -0.2463 -0.1294 -0.0541
 2862TIP3    H130145   5.560   1.826   2.721 -1.0784 -0.1363  0.1453
 2862TIP3    H230146   5.507   1.689   2.762 -0.8507 -0.4728 -0.6684
 2863TIP3   OH230147   5.922   0.887   2.347 -0.5747 -0.3818  0.6226
 2863TIP3    H130148   5.906   0.826   2.275  0.1594  0.7396 -0.5291
 2863TIP3    H230149   6.014   0.874   2.370  0.8576  2.9089 -2.3255
 2864TIP3   OH230150   6.737   6.114   3.068 -0.0102  0.3112 -0.0916
 2864TIP3    H130151   6.709   6.155   2.986 -0.2283 -1.4088 -0.9291
 2864TIP3    H230152   6.694   6.166   3.136 -2.2356  0.0455 -1.1826
 2865TIP3   OH230153   5.646   4.651   7.656 -0.4620 -0.2846  0.8096
 2865TIP3    H130154   5.698   4.572   7.670 -0.0949  0.1249  1.8844
 2865TIP3    H230155   5.593   4.660   7.736 -1.7212 -0.3329  0.0165
 2866TIP3   OH230156   5.988   2.404   7.347  0.4625 -0.3898 -0.3113
 2866TIP3    H130157   5.935   2.484   7.345 -1.1577 -1.2957  1.8245
 2866TIP3    H230158   6.007   2.385   7.256 -2.4175  0.3580 -1.1617
 2867TIP3   OH230159   5.662   2.820   1.454 -0.1088  0.0821 -0.1891
 2867TIP3    H130160   5.674   2.778   1.369  0.0041  1.1631 -0.7205
 2867TIP3    H230161   5.653   2.913   1.434 -1.2050  0.2322  0.8928
 2868TIP3   OH230162   2.303   3.267   8.491  0.6825  0.1492 -0.1516
 2868TIP3    H130163   2.278   3.312   8.410  0.0513  0.7817  0.3829
 2868TIP3    H230164   2.394   3.295   8.506  0.6636  0.3649 -0.4191
 2869TIP3   OH230165   3.388   6.674   7.118  0.0242  0.7943  0.2883
 2869TIP3    H130166   3.305   6.666   7.072  1.4841  1.4008 -2.6917
 2869TIP3    H230167   3.435   6.744   7.072  3.5068 -1.7125 -0.4123
 2870TIP3   OH230168   1.109   1.366   1.551 -0.0160 -0.0040  0.3626
 2870TIP3    H130169   1.158   1.412   1.619 -1.1841  3.2589 -0.8492
 2870TIP3    H230170   1.018   1.368   1.582 -0.2401 -0.5563 -0.2430
 2871TIP3   OH230171   3.709   1.753   2.483  0.4346  0.1452  0.8024
 2871TIP3    H130172   3.735   1.661   2.477  0.9991  0.3364  0.2334
 2871TIP3    H230173   3.699   1.781   2.392  1.9037  1.1017  0.9149
 2872TIP3   OH230174   2.134   4.490   1.677  0.0688 -0.3406  0.4635
 2872TIP3    H130175   2.130   4.460   1.767 -0.3160 -1.4949  0.0772
 2872TIP3    H230176   2.047   4.472   1.641  0.4512 -0.6114 -0.3543
 2873TIP3   OH230177   5.007   0.863   3.048 -0.4033  0.0791 -0.2848
 2873TIP3    H130178   5.068   0.910   2.991  2.2507 -1.4564  1.1549
 2873TIP3    H230179   4.950   0.932   3.084  0.3052  1.5339 -1.8111
 2874TIP3   OH230180   0.282   1.178   7.308 -0.2077  0.0321 -0.0188
 2874TIP3    H130181   0.307   1.194   7.399 -1.7597  2.8999  0.0358
 2874TIP3    H230182   0.363   1.181   7.259  0.3057  2.4735  0.8637
 2875TIP3   OH230183   3.625   3.664   8.372  0.5884 -0.2264 -0.5692
 2875TIP3    H130184   3.572   3.694   8.446  0.0694 -0.2593 -0.9240
 2875TIP3    H230185   3.567   3.607   8.323  0.3922  1.0735 -1.9026
 2876TIP3   OH230186   4.457   6.781   2.023  0.3241 -0.3494  0.0096
 2876TIP3    H130187   4.515   6.845   1.983  0.0309 -0.5645 -0.7729
 2876TIP3    H230188   4.454   6.708   1.961 -0.2609 -0.6187  0.3433
 2877TIP3   OH230189   5.695   1.453   6.435 -0.0113  0.1483  0.3549
 2877TIP3    H130190   5.755   1.380   6.448 -0.9726 -0.5430  1.0074
 2877TIP3    H230191   5.608   1.413   6.430 -0.5767  1.2495  0.8863
 2878TIP3   OH230192   3.604   2.097   2.040 -0.1628 -0.6478 -0.2648
 2878TIP3    H130193   3.538   2.143   1.987 -0.6661 -0.0735  0.8187
 2878TIP3    H230194   3.614   2.012   1.997  0.3278  0.2140 -1.9567
 2879TIP3   OH230195   3.141   0.141   2.288  0.2860  0.0139  0.5631
 2879TIP3    H130196   3.156   0.233   2.312 -0.8470  0.1640  0.7515
 2879TIP3    H230197   3.092   0.105   2.361  1.8516 -1.1133  1.0833
 2880TIP3   OH230198   0.800   5.941   1.159 -0.4207  0.7609 -0.0438
 2880TIP3    H130199   0.774   6.021   1.114 -1.8764  0.4606  0.2152
 2880TIP3    H230200   0.889   5.958   1.190 -1.5407  3.2537  2.1818
 2881TIP3   OH230201   0.832   5.303   7.260  0.0311 -0.5771  0.3343
 2881TIP3    H130202   0.819   5.210   7.279  1.6149 -1.2277 -1.4147
 2881TIP3    H230203   0.917   5.307   7.216 -1.0079  1.3775 -1.7075
 2882TIP3   OH230204   0.872   6.417   1.370 -0.0096 -0.9694  0.7053
 2882TIP3    H130205   0.809   6.415   1.442  1.9938 -2.3390  2.5679
 2882TIP3    H230206   0.958   6.418   1.414  1.3046  0.3837 -1.6906
 2883TIP3   OH230207   2.648   3.818   1.349  0.3981 -0.5057  0.1805
 2883TIP3    H130208   2.725   3.765   1.329  0.4371 -0.3075 -0.2056
 2883TIP3    H230209   2.647   3.886   1.282  0.2052 -0.1669  0.5225
 2884TIP3   OH230210   6.257   5.736   1.334 -0.2863 -0.1547  0.2863
 2884TIP3    H130211   6.244   5.651   1.293  0.8026  0.0043 -0.4337
 2884TIP3    H230212   6.347   5.734   1.366 -0.1296  0.8581 -0.0604
 2885TIP3   OH230213   4.428   5.370   0.055 -0.4551 -0.1014 -0.5627
 2885TIP3    H130214   4.392   5.397   0.139 -0.2108  0.3530 -0.5987
 2885TIP3    H230215   4.513   5.414   0.050 -0.0344 -0.9077 -0.6138
 2886TIP3   OH230216   4.835   5.020   8.124  0.1422  0.1735  0.2549
 2886TIP3    H130217   4.856   5.018   8.217  1.2368 -0.7132  0.0093
 2886TIP3    H230218   4.881   4.944   8.087 -1.8969 -0.6864 -0.6822
 2887TIP3   OH230219   4.880   1.110   7.867 -0.5542 -0.4338 -0.5933
 2887TIP3    H130220   4.802   1.144   7.822 -1.1675 -0.3428  0.5017
 2887TIP3    H230221   4.862   1.124   7.960 -0.0187 -2.0941 -0.2036
 2888TIP3   OH230222   2.860   5.473   1.114  0.2124 -0.1627 -0.2150
 2888TIP3    H130223   2.783   5.421   1.137 -1.7602  2.4379 -0.4441
 2888TIP3    H230224   2.858   5.477   1.019  2.6847 -2.8048 -0.5080
 2889TIP3   OH230225   3.383   2.955   8.202 -0.7864  0.1815  0.0532
 2889TIP3    H130226   3.457   2.953   8.141 -1.1050 -0.0752 -0.3242
 2889TIP3    H230227   3.403   2.885   8.265  0.5749  1.7654  1.4807
 2890TIP3   OH230228   0.080   3.716   1.234  0.0067 -0.4066 -0.0591
 2890TIP3    H130229   0.008   3.660   1.208  0.0005  0.2167 -1.4988
 2890TIP3    H230230   0.150   3.697   1.171  0.2817  0.6096 -0.0869
 2891TIP3   OH230231   0.158   0.093   1.421  0.3857  0.3343  0.1333
 2891TIP3    H130232   0.155   0.086   1.326  0.8717  0.2218  0.1283
 2891TIP3    H230233   0.125   0.009   1.453 -0.4462  0.6249  0.0691
 2892TIP3   OH230234   3.216   0.023   8.368 -0.3310  0.3925  0.0839
 2892TIP3    H130235   3.199  -0.071   8.361  0.8554  0.0272  1.6222
 2892TIP3    H230236   3.159   0.063   8.302 -1.2711 -1.3499 -0.2053
 2893TIP3   OH230237   2.485   4.577   2.109  0.6368  0.1894  0.1901
 2893TIP3    H130238   2.390   4.590   2.103  0.4301 -0.1680  2.1661
 2893TIP3    H230239   2.521   4.666   2.116  0.2936  0.2652  1.1034
 2894TIP3   OH230240   0.436   3.774   7.421  0.3338 -0.7820 -0.1648
 2894TIP3    H130241   0.360   3.748   7.369  0.2248  0.2931 -0.5631
 2894TIP3    H230242   0.511   3.740   7.372  0.1132 -2.3949  0.5491
 2895TIP3   OH230243   5.769   1.798   1.975  0.2194  0.6517  0.4803
 2895TIP3    H130244   5.727   1.740   1.912  0.4233  1.0246 -0.0080
 2895TIP3    H230245   5.814   1.740   2.036 -1.5255  0.2202  1.3983
 2896TIP3   OH230246   3.864   2.782   0.837  0.0381 -0.0300 -0.1522
 2896TIP3    H130247   3.900   2.834   0.765 -1.4798  1.1970 -0.0675
 2896TIP3    H230248   3.802   2.841   0.880 -1.2085 -1.6894  0.3986
 2897TIP3   OH230249   6.660   1.652   6.928  0.0887  0.1484 -0.4202
 2897TIP3    H130250   6.708   1.735   6.925 -1.1573  1.1026  2.5327
 2897TIP3    H230251   6.568   1.677   6.923 -0.2995 -1.1301 -0.1028
 2898TIP3   OH230252   2.509   1.564   7.284 -0.6105 -0.3014 -0.1530
 2898TIP3    H130253   2.568   1.620   7.234 -0.6464  0.4178  0.5907
 2898TIP3    H230254   2.566   1.521   7.348 -0.4828 -1.5861 -1.0885
 2899TIP3   OH230255   5.926   5.896   1.699  0.1212  0.0110 -0.3885
 2899TIP3    H130256   6.002   5.842   1.722  0.3700 -0.2707 -1.7839
 2899TIP3    H230257   5.852   5.836   1.702 -0.0258  0.2421  0.7875
 2900TIP3   OH230258   4.804   0.387   1.986 -0.0643 -0.6951 -0.1629
 2900TIP3    H130259   4.761   0.399   2.071  1.1901 -0.1952  0.4222
 2900TIP3    H230260   4.890   0.426   1.997 -0.0295 -0.2351 -1.8142
 2901TIP3   OH230261   6.397   0.597   1.826 -0.5537 -0.0461  0.0213
 2901TIP3    H130262   6.455   0.528   1.860  0.7561  0.3946 -1.1924
 2901TIP3    H230263   6.417   0.600   1.732 -0.3753  2.1696  0.0867
 2902TIP3   OH230264   3.783   5.069   2.685 -0.6710  0.0948 -0.2345
 2902TIP3    H130265   3.855   5.131   2.699 -0.2875 -0.6205  1.2016
 2902TIP3    H230266   3.706   5.125   2.671 -0.3205  0.9307  0.9454
 2903TIP3   OH230267   3.920   6.854   0.457 -0.8862 -0.4079 -0.0945
 2903TIP3    H130268   3.951   6.828   0.370 -3.0808  0.4801 -1.2201
 2903TIP3    H230269   3.962   6.939   0.473  0.1025 -0.9158  0.0636
 2904TIP3   OH230270   0.336   0.330   1.380  0.2671  0.1010 -0.2319
 2904TIP3    H130271   0.285   0.277   1.441  1.2516  0.4981  0.9639
 2904TIP3    H230272   0.388   0.267   1.330 -0.9491 -0.2643 -1.0840
 2905TIP3   OH230273   1.533   3.181   7.891 -0.2707 -0.2239  0.0806
 2905TIP3    H130274   1.444   3.147   7.908 -0.8586  1.4464  0.5025
 2905TIP3    H230275   1.554   3.231   7.970  1.8736 -2.1244  0.8450
 2906TIP3   OH230276   2.607   5.331   1.176 -0.0795  0.7910  0.9212
 2906TIP3    H130277   2.593   5.272   1.250 -0.2141  2.3664  2.2164
 2906TIP3    H230278   2.519   5.356   1.148 -0.0390 -0.1254 -0.0712
 2907TIP3   OH230279   0.107   6.618   8.205  0.4675 -0.2036 -0.1095
 2907TIP3    H130280   0.136   6.545   8.150  0.3582  0.5121 -1.1385
 2907TIP3    H230281   0.184   6.674   8.214  0.2119  0.2005 -0.3981
 2908TIP3   OH230282   5.812   6.759   8.639 -0.5340  0.2374 -0.0409
 2908TIP3    H130283   5.853   6.757   8.725  0.1994 -1.6824 -0.3816
 2908TIP3    H230284   5.728   6.714   8.651 -0.6465  0.3927 -0.2309
 2909TIP3   OH230285   0.679   2.863   2.529 -0.1774  0.7645 -0.1904
 2909TIP3    H130286   0.752   2.895   2.583 -0.3447  0.1248  0.4230
 2909TIP3    H230287   0.611   2.930   2.540  0.5700  1.7725 -1.3877
 2910TIP3   OH230288   6.511   2.131   0.911  0.2423  0.0303 -0.6326
 2910TIP3    H130289   6.590   2.174   0.945 -0.4190  1.3039 -0.6553
 2910TIP3    H230290   6.467   2.096   0.988 -0.7883  2.1253 -0.1982
 2911TIP3   OH230291   5.439   2.293   1.692  0.1673  0.7187  0.0278
 2911TIP3    H130292   5.436   2.309   1.786 -0.5864 -0.3918  0.2169
 2911TIP3    H230293   5.389   2.364   1.653 -1.4873 -0.0536  0.6675
 2912TIP3   OH230294   1.835   3.758   2.909  0.1473  0.4909 -0.1340
 2912TIP3    H130295   1.759   3.815   2.909  0.1270  0.5237  1.3756
 2912TIP3    H230296   1.901   3.805   2.858  0.8007  2.8990  2.6681
 2913TIP3   OH230297   3.362   6.356   7.156  0.3387  0.0715 -0.2503
 2913TIP3    H130298   3.314   6.274   7.167  1.2067 -0.3542  0.5934
 2913TIP3    H230299   3.435   6.333   7.098  0.8489  0.1208  0.3630
 2914TIP3   OH230300   4.212   3.471   0.967 -0.2304 -0.0510 -0.1709
 2914TIP3    H130301   4.210   3.522   0.886  0.5676  1.6027  0.7985
 2914TIP3    H230302   4.306   3.463   0.987 -0.4381  0.4880  1.1199
 2915TIP3   OH230303   6.788   1.984   8.061  0.0434 -0.1228  0.2934
 2915TIP3    H130304   6.731   1.909   8.076 -0.7817  0.5192  0.4104
 2915TIP3    H230305   6.828   1.968   7.975 -0.9208 -0.1932 -0.1485
 2916TIP3   OH230306   6.540   0.068   7.787 -0.1049 -0.2367  0.0371
 2916TIP3    H130307   6.551   0.003   7.857  1.0816  0.0116  0.1061
 2916TIP3    H230308   6.490   0.023   7.720 -0.6368 -0.7194  0.7394
 2917TIP3   OH230309   5.802   2.702   7.885 -0.0465 -0.3999 -0.2902
 2917TIP3    H130310   5.886   2.659   7.896  2.0052  3.3712  0.4302
 2917TIP3    H230311   5.772   2.721   7.974 -0.6317  0.1170 -0.5845
 2918TIP3   OH230312   2.519   2.551   7.497  0.5543 -1.3950  0.2729
 2918TIP3    H130313   2.498   2.637   7.534  0.7596 -0.9048 -0.7116
 2918TIP3    H230314   2.610   2.536   7.521  0.4149 -1.5040  0.7468
 2919TIP3   OH230315   3.592   1.589   2.839 -0.8550 -0.0927  0.3283
 2919TIP3    H130316   3.678   1.621   2.810 -0.0623  0.0390  2.6086
 2919TIP3    H230317   3.562   1.656   2.901 -1.2052 -1.6049  1.8382
 2920TIP3   OH230318   0.583   6.707   8.374  0.3078  0.2706  0.0939
 2920TIP3    H130319   0.630   6.641   8.425 -1.2828 -0.9935 -0.0093
 2920TIP3    H230320   0.652   6.753   8.326  1.6510  0.1303  1.7841
 2921TIP3   OH230321   2.196   5.900   8.336  0.2158 -0.0396 -0.0081
 2921TIP3    H130322   2.272   5.953   8.361  0.2180 -0.3688  0.7321
 2921TIP3    H230323   2.166   5.938   8.254 -0.1276  1.4772  0.7901
 2922TIP3   OH230324   2.781   0.341   7.711 -0.1822 -0.2178 -0.7041
 2922TIP3    H130325   2.765   0.432   7.686 -0.6016 -0.3871 -1.0664
 2922TIP3    H230326   2.865   0.320   7.670  0.2881  0.2333  0.0090
 2923TIP3   OH230327   0.660   6.116   1.001 -0.0159  0.5850  0.3185
 2923TIP3    H130328   0.705   6.105   0.917 -3.8480 -0.1909 -1.8456
 2923TIP3    H230329   0.575   6.154   0.978 -0.5505  2.0923  4.1025
 2924TIP3   OH230330   0.076   2.472   0.974 -0.6800 -0.5350 -0.0158
 2924TIP3    H130331   0.018   2.406   0.935 -0.2649 -0.7299 -0.3082
 2924TIP3    H230332   0.160   2.460   0.930 -0.3947 -0.2967  0.4482
 2925TIP3   OH230333   2.349   2.336   7.875  0.0480 -0.1900  0.2166
 2925TIP3    H130334   2.308   2.301   7.954  0.4133  0.4966  0.7282
 2925TIP3    H230335   2.323   2.277   7.805 -1.3260 -0.0903  0.6290
 2926TIP3   OH230336   0.439   6.692   0.050  0.8677  0.1737 -0.2616
 2926TIP3    H130337   0.427   6.786   0.041 -0.3748  0.0727  0.2576
 2926TIP3    H230338   0.529   6.677   0.021  0.9743  1.4690 -0.6569
 2927TIP3   OH230339   0.402   3.017   8.598  0.1113  0.1292  0.2301
 2927TIP3    H130340   0.374   3.105   8.623 -0.7878  0.1580 -0.8051
 2927TIP3    H230341   0.365   2.960   8.664  1.0317  0.5416  1.1400
 2928TIP3   OH230342   3.658   4.838   0.737  0.1983 -0.6826 -0.7940
 2928TIP3    H130343   3.699   4.907   0.686 -2.3900  0.9144 -0.9122
 2928TIP3    H230344   3.642   4.878   0.823  0.5722 -1.8785 -0.1411
 2929TIP3   OH230345   1.278   0.145   1.397 -0.0499 -0.2252  0.9276
 2929TIP3    H130346   1.290   0.108   1.309 -1.3375  1.9126 -0.2523
 2929TIP3    H230347   1.186   0.127   1.418  0.1846 -0.4985  1.7259
 2930TIP3   OH230348   1.579   0.575   7.211  0.3510  0.8609  0.1356
 2930TIP3    H130349   1.498   0.581   7.162  0.7141 -0.5784 -0.6842
 2930TIP3    H230350   1.647   0.601   7.149  0.5520  1.9129  0.7723
 2931TIP3   OH230351   5.558   4.056   0.487  0.1375 -0.4619 -0.5220
 2931TIP3    H130352   5.586   4.056   0.396  0.3064  0.4810 -0.4732
 2931TIP3    H230353   5.510   4.137   0.498  0.3714 -0.4247  0.3029
 2932TIP3   OH230354   3.424   0.627   0.676  0.1993  0.3806 -0.8515
 2932TIP3    H130355   3.350   0.582   0.634  1.4884 -2.5194 -0.2329
 2932TIP3    H230356   3.495   0.621   0.613  1.4060 -1.7331  0.5798
 2933TIP3   OH230357   3.124   2.714   1.360  0.2131  0.3441 -0.6896
 2933TIP3    H130358   3.207   2.734   1.402  0.5492 -2.6131  0.2774
 2933TIP3    H230359   3.065   2.691   1.432 -0.1966 -1.5385 -1.5577
 2934TIP3   OH230360   1.521   5.826   1.768  0.5222 -0.1352  0.1807
 2934TIP3    H130361   1.528   5.788   1.855 -2.1396  0.1479  0.5835
 2934TIP3    H230362   1.439   5.874   1.769  1.8981  2.4674 -1.5443
 2935TIP3   OH230363   6.824   6.289   1.600 -0.1584 -0.2071  0.6177
 2935TIP3    H130364   6.821   6.218   1.536  0.0038  1.9720 -1.9904
 2935TIP3    H230365   6.744   6.339   1.585 -0.1073  0.3760  2.1377
 2936TIP3   OH230366   5.289   2.132   7.270  0.0500  0.2041  0.2021
 2936TIP3    H130367   5.364   2.184   7.296 -0.2454  0.6048  0.2630
 2936TIP3    H230368   5.323   2.043   7.262  0.5498  0.3983  0.1308
 2937TIP3   OH230369   3.751   0.020   2.499 -0.2424  0.3006  0.1588
 2937TIP3    H130370   3.742  -0.075   2.496 -0.3388  0.2754  1.0006
 2937TIP3    H230371   3.675   0.053   2.451 -0.8498 -0.0387  0.8620
 2938TIP3   OH230372   1.958   5.474   8.381  0.4821  0.2334  0.3678
 2938TIP3    H130373   1.962   5.569   8.374 -2.2928  0.3677 -0.6467
 2938TIP3    H230374   1.894   5.457   8.449  1.6104 -0.9661  1.1897
 2939TIP3   OH230375   1.794   0.909   1.343 -0.0074 -0.6135  0.7273
 2939TIP3    H130376   1.833   0.995   1.357  0.1511 -0.3353 -1.1586
 2939TIP3    H230377   1.770   0.908   1.250 -2.9068 -1.4377  1.3777
 2940TIP3   OH230378   5.204   2.898   7.129 -0.7133  0.4100 -0.2204
 2940TIP3    H130379   5.217   2.864   7.217  1.2293 -0.3234 -0.7442
 2940TIP3    H230380   5.122   2.858   7.100  0.1345 -1.7395  0.1760
 2941TIP3   OH230381   4.089   5.473   8.530 -0.5288  0.0795  0.0418
 2941TIP3    H130382   4.158   5.540   8.540 -1.2900  0.9581 -0.4317
 2941TIP3    H230383   4.028   5.512   8.468 -0.2545 -1.6692 -1.4064
 2942TIP3   OH230384   0.201   0.037   1.863  0.1206 -0.2462  0.0989
 2942TIP3    H130385   0.127   0.088   1.832 -0.4986  0.1851  2.1221
 2942TIP3    H230386   0.207   0.058   1.956  1.3619 -2.0216  0.4728
 2943TIP3   OH230387   4.845   5.538   7.810  0.1368 -0.3390  0.2611
 2943TIP3    H130388   4.831   5.453   7.767 -0.0473 -0.5678  0.7556
 2943TIP3    H230389   4.783   5.597   7.768  0.3931 -0.4037 -0.2125
 2944TIP3   OH230390   5.667   1.782   7.656  0.2144  0.1212  0.1393
 2944TIP3    H130391   5.638   1.861   7.701  1.6543  0.9045 -0.2481
 2944TIP3    H230392   5.762   1.792   7.648  0.2816 -1.1005 -0.9690
 2945TIP3   OH230393   0.549   6.267   2.284 -0.4807  0.6874  0.4465
 2945TIP3    H130394   0.511   6.231   2.364 -0.4854 -0.7677 -0.1736
 2945TIP3    H230395   0.643   6.260   2.297 -0.4838  0.1137  0.1950
 2946TIP3   OH230396   2.393   0.130   1.681 -0.1945 -0.2510  0.0693
 2946TIP3    H130397   2.380   0.035   1.686 -1.3120 -0.1662 -0.8123
 2946TIP3    H230398   2.488   0.140   1.672  0.0748 -1.2064  1.4658
 2947TIP3   OH230399   0.728   3.060   0.899  0.2074 -0.1657  0.5201
 2947TIP3    H130400   0.706   2.970   0.875  0.6103 -0.1761  0.1734
 2947TIP3    H230401   0.682   3.114   0.835  1.3020 -0.1945 -0.3265
 2948TIP3   OH230402   5.765   2.692   1.251 -0.2125  0.1739  0.4096
 2948TIP3    H130403   5.726   2.614   1.290  0.4957  0.8567  2.6842
 2948TIP3    H230404   5.791   2.665   1.163  0.4248 -2.3079  1.2654
 2949TIP3   OH230405   5.294   5.130   2.217  0.6704  0.6200 -0.1803
 2949TIP3    H130406   5.313   5.048   2.263 -0.7669  0.9236  1.0542
 2949TIP3    H230407   5.373   5.149   2.166  1.6762 -0.6227  0.8635
 2950TIP3   OH230408   2.406   2.315   0.927 -0.4188 -0.3403  0.6298
 2950TIP3    H130409   2.354   2.390   0.898  1.9844  0.8911 -0.8706
 2950TIP3    H230410   2.439   2.340   1.013  1.0432  0.7745 -0.2111
 2951TIP3   OH230411   4.599   3.982   2.244  0.3537 -0.3012 -0.9889
 2951TIP3    H130412   4.573   3.999   2.334  1.3583 -1.7156 -0.3843
 2951TIP3    H230413   4.520   3.950   2.201  0.1065 -0.5680 -0.3361
 2952TIP3   OH230414   0.462   0.053   7.855  0.6820 -0.4010 -0.1355
 2952TIP3    H130415   0.496  -0.013   7.795  1.7339 -0.6078  0.6554
 2952TIP3    H230416   0.374   0.023   7.876  1.2813 -1.7968  0.5302
 2953TIP3   OH230417   5.135   6.456   8.566 -0.2423 -0.4580 -0.4240
 2953TIP3    H130418   5.087   6.376   8.587  0.4484 -0.7545  0.0964
 2953TIP3    H230419   5.152   6.497   8.651 -0.6994  0.3156 -0.6936
 2954TIP3   OH230420   0.849   0.404   1.412 -0.4813 -0.0338  0.1979
 2954TIP3    H130421   0.758   0.432   1.415 -0.5954 -0.4426  2.9622
 2954TIP3    H230422   0.847   0.313   1.443  1.0010  0.4908  1.9610
 2955TIP3   OH230423   6.080   0.796   0.263  0.6602  0.1590  0.1408
 2955TIP3    H130424   6.108   0.768   0.176 -1.4866  1.8655 -1.2195
 2955TIP3    H230425   6.056   0.714   0.308  1.9640 -0.7656 -0.7754
 2956TIP3   OH230426   4.618   0.981   1.958  0.2607  0.1276 -0.0239
 2956TIP3    H130427   4.622   0.892   1.994 -0.6605  1.0261  2.5058
 2956TIP3    H230428   4.540   0.982   1.903 -2.8337  0.5771  3.9486
 2957TIP3   OH230429   2.184   6.676   0.988  0.0285  1.0890 -0.0149
 2957TIP3    H130430   2.148   6.591   1.015  0.5597  0.6105 -0.7549
 2957TIP3    H230431   2.239   6.703   1.062  2.0157 -0.5276 -0.7846
 2958TIP3   OH230432   4.862   3.859   7.567  0.8106  0.3973  0.2138
 2958TIP3    H130433   4.957   3.868   7.582  0.4666  2.2780  1.7629
 2958TIP3    H230434   4.838   3.937   7.517  0.2350 -0.7133 -1.3147
 2959TIP3   OH230435   3.794   3.626   8.694 -0.0784  0.4382 -0.0078
 2959TIP3    H130436   3.821   3.713   8.665  0.8159  0.1702 -0.0171
 2959TIP3    H230437   3.876   3.582   8.719 -0.2804 -1.0355 -1.6913
 2960TIP3   OH230438   4.068   5.938   7.856 -0.1044 -0.1525  0.2454
 2960TIP3    H130439   4.159   5.952   7.885 -1.2365  2.4876  3.0899
 2960TIP3    H230440   4.053   6.006   7.790 -0.3212  0.1622  0.6146
 2961TIP3   OH230441   6.441   5.864   7.849 -0.0687  0.7233  0.1364
 2961TIP3    H130442   6.361   5.848   7.798 -1.0558  3.3261  0.7194
 2961TIP3    H230443   6.475   5.947   7.814  1.7716  0.2253  0.6698
 2962TIP3   OH230444   0.144   6.322   3.313  0.2885 -0.0282  0.3038
 2962TIP3    H130445   0.207   6.253   3.292  0.3399 -0.0859  0.6476
 2962TIP3    H230446   0.174   6.398   3.263  0.0133 -0.3598 -0.3702
 2963TIP3   OH230447   3.158   6.683   2.058  0.5479 -0.3488 -0.1674
 2963TIP3    H130448   3.233   6.623   2.054  0.1774 -0.7709 -1.1777
 2963TIP3    H230449   3.125   6.674   2.147  1.5356 -0.3647  0.2018
 2964TIP3   OH230450   0.131   1.245   1.179  0.2376 -0.4816  0.3317
 2964TIP3    H130451   0.211   1.211   1.219  0.9955 -0.6133 -1.2094
 2964TIP3    H230452   0.140   1.224   1.086 -2.0005 -1.2570  0.2300
 2965TIP3   OH230453   6.415   3.727   6.847 -0.3256  0.6796 -0.0757
 2965TIP3    H130454   6.494   3.679   6.823 -0.9701 -0.2490 -0.3921
 2965TIP3    H230455   6.383   3.764   6.765  1.6063  3.9884  0.5046
 2966TIP3   OH230456   4.617   5.857   0.832 -0.4568  0.4497 -0.0233
 2966TIP3    H130457   4.535   5.814   0.857  0.2136 -0.5907  0.4585
 2966TIP3    H230458   4.598   5.896   0.746 -1.5058  0.3952  0.1609
 2967TIP3   OH230459   4.498   5.222   0.681 -0.3249 -0.6064 -0.2005
 2967TIP3    H130460   4.459   5.135   0.674 -0.4454 -0.5163 -0.6931
 2967TIP3    H230461   4.572   5.220   0.621  2.0007 -1.5747  2.4587
 2968TIP3   OH230462   5.702   2.021   2.304 -0.0712  0.3847 -0.0519
 2968TIP3    H130463   5.782   2.003   2.354 -0.5364  0.7231  0.8451
 2968TIP3    H230464   5.699   2.117   2.298 -1.7081  0.5700  2.2112
 2969TIP3   OH230465   4.129   1.095   8.388 -0.5812 -0.2944  0.2661
 2969TIP3    H130466   4.058   1.155   8.412 -0.8395 -0.0299 -1.0716
 2969TIP3    H230467   4.209   1.139   8.415 -0.8670 -0.1536  0.8959
 2970TIP3   OH230468   3.016   1.723   0.514  0.2387  0.0516  0.4238
 2970TIP3    H130469   2.973   1.748   0.433  0.4491 -1.2644 -0.1127
 2970TIP3    H230470   2.981   1.636   0.534  2.7287 -1.1829 -0.1494
 2971TIP3   OH230471   5.803   2.032   0.846  0.3650 -0.3894 -0.1566
 2971TIP3    H130472   5.717   1.995   0.867  1.3154 -1.8063  1.4520
 2971TIP3    H230473   5.826   1.992   0.762 -0.2197 -0.5574 -0.2450
 2972TIP3   OH230474   1.430   1.276   0.543  0.0834 -0.0742 -0.0666
 2972TIP3    H130475   1.389   1.190   0.545  0.4360 -0.2292  1.0479
 2972TIP3    H230476   1.357   1.338   0.552 -0.0705 -0.2924  0.1898
 2973TIP3   OH230477   0.252   6.452   1.939 -0.1603 -0.5597 -0.0324
 2973TIP3    H130478   0.255   6.514   2.012 -0.9601 -0.5779  0.0223
 2973TIP3    H230479   0.252   6.365   1.981 -0.9981 -0.5681 -0.0219
 2974TIP3   OH230480   0.814   1.977   8.161 -0.0575  0.0408  0.2949
 2974TIP3    H130481   0.906   2.003   8.147  0.2091 -0.4967  0.9854
 2974TIP3    H230482   0.811   1.885   8.137 -0.7139  0.3517 -0.9074
 2975TIP3   OH230483   0.344   6.092   8.184  0.1140  0.2221 -0.2934
 2975TIP3    H130484   0.395   6.014   8.207  1.0187  1.1709  1.0459
 2975TIP3    H230485   0.259   6.077   8.225  0.5735  0.3243  0.7182
 2976TIP3   OH230486   3.370   3.920   2.053 -0.0108  0.3232 -0.4204
 2976TIP3    H130487   3.410   3.852   1.999  1.0403  0.0164  0.6976
 2976TIP3    H230488   3.281   3.929   2.018 -0.0953 -1.4469 -0.7751
 2977TIP3   OH230489   5.606   6.374   7.233  0.3404  0.3186  0.0269
 2977TIP3    H130490   5.531   6.405   7.181  0.3107  2.9838  1.5025
 2977TIP3    H230491   5.640   6.300   7.183 -1.9008  0.4352 -1.8555
 2978TIP3   OH230492   4.432   6.353   7.113 -0.5321  1.3640 -0.3567
 2978TIP3    H130493   4.478   6.313   7.039 -0.2038  1.2870 -0.1095
 2978TIP3    H230494   4.352   6.301   7.122  0.5472 -0.1713  0.8762
 2979TIP3   OH230495   4.024   0.410   2.866 -0.0111 -0.2607 -0.4109
 2979TIP3    H130496   4.002   0.473   2.935  1.1170  0.9091 -1.0574
 2979TIP3    H230497   3.955   0.344   2.870  0.6581 -0.9243  2.6442
 2980TIP3   OH230498   2.643   4.477   0.582  0.2474 -0.2217 -0.8004
 2980TIP3    H130499   2.599   4.555   0.550  0.1101 -0.7423 -1.9020
 2980TIP3    H230500   2.653   4.421   0.505  0.7280 -1.1105 -0.1109
 2981TIP3   OH230501   4.160   1.318   7.266 -0.6098  0.3944  0.0168
 2981TIP3    H130502   4.183   1.409   7.284 -0.6294  0.6765 -1.2881
 2981TIP3    H230503   4.222   1.266   7.317  0.3758  1.1447 -0.4053
 2982TIP3   OH230504   0.269   5.916   7.603  0.4753  0.4559  0.0579
 2982TIP3    H130505   0.355   5.958   7.607  1.0330 -0.6012  4.4417
 2982TIP3    H230506   0.289   5.825   7.580  0.2974  0.5858 -0.6266
 2983TIP3   OH230507   4.828   1.401   7.630  0.2922 -0.1528 -0.2389
 2983TIP3    H130508   4.869   1.391   7.545 -0.7857  0.6077 -0.8700
 2983TIP3    H230509   4.855   1.489   7.659 -1.2810  0.5877 -0.9142
 2984TIP3   OH230510   1.704   6.563   0.496 -0.1525  0.1051 -0.0189
 2984TIP3    H130511   1.717   6.621   0.571 -1.2746 -2.2648  2.1988
 2984TIP3    H230512   1.788   6.517   0.486 -0.1661  0.0362  0.1731
 2985TIP3   OH230513   0.997   3.485   2.109 -0.1768 -0.0145  0.1868
 2985TIP3    H130514   1.002   3.398   2.150 -0.6927 -0.6928 -1.1330
 2985TIP3    H230515   1.019   3.469   2.017  0.4406  1.3867  0.0658
 2986TIP3   OH230516   6.103   0.341   7.821 -0.3184  0.3565 -0.3404
 2986TIP3    H130517   6.104   0.393   7.741  0.5833  0.0092 -0.5725
 2986TIP3    H230518   6.195   0.335   7.847 -0.6431  0.8623  0.9934
 2987TIP3   OH230519   2.090   5.603   1.601  0.3322  0.5178  0.4240
 2987TIP3    H130520   2.066   5.673   1.662  0.5609  0.7641  0.2339
 2987TIP3    H230521   2.007   5.558   1.583  0.2932  0.3301  1.0513
 2988TIP3   OH230522   6.226   1.226   1.182  0.0088  0.0237  0.8033
 2988TIP3    H130523   6.221   1.134   1.154  0.7366 -0.0648  0.9406
 2988TIP3    H230524   6.170   1.230   1.259 -1.5915  0.1470 -0.3149
 2989TIP3   OH230525   3.084   3.539   0.862  0.3275 -0.2733  0.0365
 2989TIP3    H130526   3.063   3.446   0.852 -0.2946 -0.0286 -1.1861
 2989TIP3    H230527   3.030   3.568   0.936 -0.8286 -0.5072 -0.6876
 2990TIP3   OH230528   0.773   4.167   1.098 -0.5686 -0.4315 -0.1685
 2990TIP3    H130529   0.690   4.210   1.117 -0.2215 -0.3551  1.2847
 2990TIP3    H230530   0.771   4.153   1.003 -1.4160  1.2430 -0.4337
 2991TIP3   OH230531   0.555   4.451   0.486 -0.4703  0.5523 -0.1354
 2991TIP3    H130532   0.554   4.361   0.517  0.4978 -0.0522 -1.7320
 2991TIP3    H230533   0.563   4.504   0.565 -0.6151 -0.7774  0.7975
 2992TIP3   OH230534   2.207   5.206   7.892 -0.2279  0.2217 -0.1388
 2992TIP3    H130535   2.222   5.293   7.929  0.8877  0.8907 -2.0058
 2992TIP3    H230536   2.272   5.198   7.821 -1.3292 -1.5057 -1.0441
 2993TIP3   OH230537   0.586   6.492   2.087  0.1464  0.2813 -0.2251
 2993TIP3    H130538   0.568   6.425   2.153  1.0571 -0.1828 -0.4347
 2993TIP3    H230539   0.560   6.452   2.004  0.9377  0.0798 -0.3814
 2994TIP3   OH230540   4.168   1.909   2.891 -0.0268 -0.9690 -0.1678
 2994TIP3    H130541   4.074   1.918   2.903  0.2422 -0.4253  1.8305
 2994TIP3    H230542   4.186   1.818   2.914 -0.0034 -0.9600 -0.1508
 2995TIP3   OH230543   1.451   2.592   8.677  0.2669 -0.5003  0.1239
 2995TIP3    H130544   1.501   2.573   8.597  2.0711 -0.4336  1.1871
 2995TIP3    H230545   1.479   2.680   8.702 -0.7013 -0.3065  0.5405
 2996TIP3   OH230546   1.249   5.904   1.763 -0.6486  0.1395  0.5756
 2996TIP3    H130547   1.253   5.998   1.743  3.4267 -0.0783 -0.5055
 2996TIP3    H230548   1.248   5.900   1.858  0.6317  1.3343  0.6757
 2997TIP3   OH230549   6.496   1.365   1.059  0.1153 -0.1175 -0.1663
 2997TIP3    H130550   6.487   1.405   1.145 -0.8976  0.2881 -0.4522
 2997TIP3    H230551   6.447   1.283   1.065  0.4891 -0.3512 -0.2067
 2998TIP3   OH230552   2.152   3.723   8.364  0.1346 -0.0464 -0.1596
 2998TIP3    H130553   2.105   3.750   8.285 -1.1575 -0.1822  0.5366
 2998TIP3    H230554   2.187   3.637   8.343 -0.2391 -0.1006 -0.5769
 2999TIP3   OH230555   5.585   1.346   1.584  1.2128 -0.1299 -0.1775
 2999TIP3    H130556   5.646   1.305   1.523  1.8707 -1.0248  1.0306
 2999TIP3    H230557   5.522   1.277   1.604  1.3057 -0.0145  0.5343
 3000TIP3   OH230558   5.583   1.311   0.590  0.2708  0.0524  0.4534
 3000TIP3    H130559   5.584   1.295   0.496  1.8527 -2.0389  0.7705
 3000TIP3    H230560   5.658   1.370   0.605  2.2214 -2.3519  0.7399
 3001TIP3   OH230561   1.898   2.836   8.069  0.2987 -0.4075  0.3884
 3001TIP3    H130562   1.903   2.867   8.159  0.5837 -1.2800  0.6830
 3001TIP3    H230563   1.966   2.769   8.062  1.3751  0.7598 -0.9473
 3002TIP3   OH230564   0.828   6.050   8.655  0.2970 -0.0720  0.2105
 3002TIP3    H130565   0.877   6.008   8.725  1.1693  1.8540  0.8333
 3002TIP3    H230566   0.895   6.091   8.600 -0.4769  0.0003 -0.7088
 3003TIP3   OH230567   1.112   4.563   2.176 -0.3940  0.3016 -0.4134
 3003TIP3    H130568   1.077   4.492   2.122 -0.9642 -0.8366  1.3679
 3003TIP3    H230569   1.202   4.573   2.146 -0.8032 -0.0161 -1.8250
 3004TIP3   OH230570   5.475   2.697   1.117  0.0118 -0.6042 -0.8191
 3004TIP3    H130571   5.566   2.680   1.096  0.9349  0.2377  2.0452
 3004TIP3    H230572   5.467   2.792   1.114 -0.2362 -0.5548  0.7860
 3005TIP3   OH230573   5.735   3.578   8.236 -0.3042  0.2514 -0.5016
 3005TIP3    H130574   5.739   3.485   8.213  0.2261 -0.3767  1.7822
 3005TIP3    H230575   5.821   3.596   8.275 -0.9993  1.2055  0.6706
 3006TIP3   OH230576   1.824   0.869   0.854  0.6955  0.4023  0.4647
 3006TIP3    H130577   1.846   0.799   0.916  1.3242  1.3809  1.3916
 3006TIP3    H230578   1.869   0.845   0.773 -0.6089 -1.1983  0.1747
 3007TIP3   OH230579   1.558   0.616   8.360 -0.0958 -0.3432  0.3209
 3007TIP3    H130580   1.514   0.664   8.429  2.8708 -0.2671  2.3372
 3007TIP3    H230581   1.544   0.668   8.281 -3.3871 -0.3123  0.7988
 3008TIP3   OH230582   3.552   5.065   6.998  0.2466 -0.5892  0.5744
 3008TIP3    H130583   3.511   5.148   6.973 -0.7684 -1.3572 -0.4544
 3008TIP3    H230584   3.627   5.090   7.052  0.4797  1.0345 -0.4281
 3009TIP3   OH230585   2.750   2.516   7.612 -0.0380  0.0835  0.7805
 3009TIP3    H130586   2.795   2.434   7.634 -1.1640 -0.8951 -0.3990
 3009TIP3    H230587   2.810   2.585   7.641  0.5188 -1.1193  2.7084
 3010TIP3   OH230588   1.916   1.818   0.837 -0.1509 -0.9344  0.2391
 3010TIP3    H130589   1.855   1.892   0.834  0.2658 -0.6089 -1.2628
 3010TIP3    H230590   1.867   1.745   0.798  0.4133 -0.6492 -1.0503
 3011TIP3   OH230591   2.145   1.382   8.358  0.2129 -0.3072 -0.1701
 3011TIP3    H130592   2.079   1.341   8.415 -0.2970 -0.7816 -1.0655
 3011TIP3    H230593   2.122   1.474   8.357 -0.4269 -0.4634 -0.4386
 3012TIP3   OH230594   4.000   6.507   0.389  0.1146  0.2294  0.3072
 3012TIP3    H130595   4.016   6.465   0.473  0.7366 -0.9072 -0.3649
 3012TIP3    H230596   4.078   6.560   0.374  0.6663 -0.7202 -0.2302
 3013TIP3   OH230597   4.212   0.181   1.878  0.0083 -0.3071  0.3935
 3013TIP3    H130598   4.153   0.125   1.929  0.5336 -0.8915  0.3853
 3013TIP3    H230599   4.243   0.124   1.808  0.5653 -0.0100  0.3920
 3014TIP3   OH230600   5.979   0.251   2.233  0.1956  0.3009 -0.5977
 3014TIP3    H130601   5.915   0.221   2.299 -0.3722  1.2518 -0.6893
 3014TIP3    H230602   5.927   0.266   2.154  0.6161  0.6053 -0.8223
 3015TIP3   OH230603   2.746   1.750   7.567 -0.2175 -0.3019 -0.1218
 3015TIP3    H130604   2.825   1.710   7.602  0.2178  0.7278  0.1112
 3015TIP3    H230605   2.751   1.735   7.472 -0.3726 -1.3139  0.0239
 3016TIP3   OH230606   2.648   2.141   2.886  0.5825  0.0742 -0.1307
 3016TIP3    H130607   2.554   2.156   2.895  0.8405  1.1268  1.2089
 3016TIP3    H230608   2.656   2.047   2.874 -0.6544  0.0007 -0.5362
 3017TIP3   OH230609   2.230   3.743   7.116 -0.4207 -0.7222  0.0913
 3017TIP3    H130610   2.252   3.674   7.053 -0.3622  0.1477 -0.8740
 3017TIP3    H230611   2.282   3.818   7.087 -1.9784  0.3175 -0.0961
 3018TIP3   OH230612   3.916   3.452   2.019 -0.6119  0.2594 -0.1331
 3018TIP3    H130613   3.975   3.500   2.077  0.9458  0.5643 -1.8422
 3018TIP3    H230614   3.856   3.518   1.985 -0.6548  0.3374  0.0943
 3019TIP3   OH230615   3.138   3.389   3.030  0.9210 -0.2425 -0.1567
 3019TIP3    H130616   3.187   3.470   3.044 -1.0573  0.5254  3.8714
 3019TIP3    H230617   3.050   3.418   3.007 -0.0471 -1.0771  2.1918
 3020TIP3   OH230618   2.617   3.221   0.910  0.4559 -0.1307 -0.3467
 3020TIP3    H130619   2.630   3.311   0.878 -2.3879  0.9081  1.0061
 3020TIP3    H230620   2.687   3.208   0.974  0.6196  1.3881 -0.1627
 3021TIP3   OH230621   6.840   3.399   8.665  0.1273  0.1593 -0.0709
 3021TIP3    H130622   6.884   3.358   8.739 -0.1968  0.0075  0.0392
 3021TIP3    H230623   6.825   3.489   8.692 -2.9789 -0.6560  1.4316
 3022TIP3   OH230624   2.571   5.102   1.348  0.0388 -0.0614  0.2635
 3022TIP3    H130625   2.550   5.061   1.432 -1.3124 -1.6268 -0.7932
 3022TIP3    H230626   2.667   5.107   1.348  0.2467 -2.6224  0.7702
 3023TIP3   OH230627   2.387   5.335   2.335 -0.4714 -0.0139  0.4129
 3023TIP3    H130628   2.336   5.316   2.414  0.5602  1.8610  1.5892
 3023TIP3    H230629   2.336   5.402   2.289 -0.4752 -0.2359  0.0895
 3024TIP3   OH230630   2.098   3.476   0.523 -0.2246  0.2825 -0.1176
 3024TIP3    H130631   2.077   3.565   0.496  1.0941  0.6872  0.1382
 3024TIP3    H230632   2.092   3.424   0.443 -1.7152  0.4375 -0.1389
 3025TIP3   OH230633   3.933   5.389   1.307 -0.4979  0.2308  0.0584
 3025TIP3    H130634   3.957   5.317   1.249 -0.2335 -0.7402  1.3110
 3025TIP3    H230635   3.942   5.468   1.254 -0.5226 -0.6393 -1.2723
 3026TIP3   OH230636   4.656   0.418   8.334 -0.1115 -0.0303 -0.1874
 3026TIP3    H130637   4.747   0.428   8.364 -0.0985  0.8855 -0.4967
 3026TIP3    H230638   4.635   0.503   8.294 -1.5066  0.2113  0.9560
 3027TIP3   OH230639   0.404   0.854   0.984 -0.1464 -0.3816 -0.1049
 3027TIP3    H130640   0.461   0.794   0.936  0.7097  0.9962 -0.8875
 3027TIP3    H230641   0.390   0.927   0.923 -2.2482 -0.3835  0.3009
 3028TIP3   OH230642   4.868   5.806   2.297 -0.4026  0.1954 -0.4160
 3028TIP3    H130643   4.894   5.866   2.227  0.8099  0.5643  0.3179
 3028TIP3    H230644   4.916   5.836   2.374 -0.9749 -0.7802  0.3567
 3029TIP3   OH230645   5.059   5.046   1.351  0.4548 -0.0234  0.3711
 3029TIP3    H130646   5.074   5.140   1.338 -0.8560  0.3552  1.3775
 3029TIP3    H230647   4.979   5.029   1.301  0.9714 -0.7401 -0.2325
 3030TIP3   OH230648   2.753   3.210   1.753 -0.2797 -0.2498  0.6127
 3030TIP3    H130649   2.833   3.262   1.765  0.0234 -0.7590  0.8477
 3030TIP3    H230650   2.751   3.190   1.660  1.1533 -2.2230  0.9472
 3031TIP3   OH230651   2.492   2.711   0.808 -1.0873  0.2868  0.2383
 3031TIP3    H130652   2.565   2.696   0.867 -1.5986 -2.0533  0.3644
 3031TIP3    H230653   2.519   2.672   0.725 -1.3604  1.3176 -0.3530
 3032TIP3   OH230654   0.825   3.083   0.161  0.1640  0.2273  0.3281
 3032TIP3    H130655   0.870   3.065   0.078 -0.0535  1.5132 -0.0866
 3032TIP3    H230656   0.743   3.125   0.135 -0.8461 -1.1765  1.1181
 3033TIP3   OH230657   1.069   5.585   2.587  0.1473  0.4884  0.5441
 3033TIP3    H130658   1.117   5.651   2.538  0.1019  0.2021  0.1082
 3033TIP3    H230659   0.984   5.627   2.606 -0.3136  0.1664 -0.7059
 3034TIP3   OH230660   3.361   0.342   1.651  0.3212 -0.4250  0.4159
 3034TIP3    H130661   3.446   0.312   1.684  0.4712  0.9598  1.3767
 3034TIP3    H230662   3.300   0.321   1.722 -0.1323 -1.2782 -0.2110
 3035TIP3   OH230663   2.289   1.101   0.883  0.1713  0.2748 -0.3306
 3035TIP3    H130664   2.345   1.156   0.829 -2.0901  0.0843 -3.0945
 3035TIP3    H230665   2.208   1.151   0.894  0.1869 -0.1090  2.1929
 3036TIP3   OH230666   4.460   3.854   7.899 -0.3494 -0.7491 -0.4642
 3036TIP3    H130667   4.530   3.818   7.844 -0.3677 -2.5577  0.6306
 3036TIP3    H230668   4.478   3.821   7.987 -1.2900  0.6729  0.3095
 3037TIP3   OH230669   3.936   2.238   7.442 -0.7650  0.3615 -0.8611
 3037TIP3    H130670   3.989   2.317   7.448 -1.9269  1.1742 -0.8731
 3037TIP3    H230671   3.949   2.193   7.526  0.9085 -0.1251 -1.3514
 3038TIP3   OH230672   1.403   6.001   8.420 -0.3796  0.9120 -0.2356
 3038TIP3    H130673   1.451   5.990   8.502 -0.6664  0.7715 -0.0866
 3038TIP3    H230674   1.391   5.912   8.387  1.1398  1.0405 -1.2486
 3039TIP3   OH230675   4.321   4.494   6.912 -0.6769  0.1752 -0.2669
 3039TIP3    H130676   4.276   4.539   6.840  1.2785  2.4790 -0.1752
 3039TIP3    H230677   4.380   4.432   6.869 -2.3635 -1.4047 -0.4362
 3040TIP3   OH230678   6.477   1.274   0.486  0.1557 -0.4239 -0.0125
 3040TIP3    H130679   6.517   1.258   0.572 -1.2650 -2.6435  0.3134
 3040TIP3    H230680   6.551   1.292   0.428  1.3325 -1.0653  1.2366
 3041TIP3   OH230681   3.983   1.534   2.181  0.0467 -0.1344 -0.5699
 3041TIP3    H130682   3.986   1.565   2.091  0.3302 -0.1814 -0.5760
 3041TIP3    H230683   4.015   1.444   2.178  1.1380  0.2292 -0.2642
 3042TIP3   OH230684   3.159   6.462   8.086 -0.7087 -0.1691  0.3576
 3042TIP3    H130685   3.095   6.532   8.095 -0.2177  0.2320  0.8349
 3042TIP3    H230686   3.241   6.507   8.065 -0.2273 -0.5293  1.4008
 3043TIP3   OH230687   5.307   3.960   1.809 -0.3230  0.2108  0.1099
 3043TIP3    H130688   5.338   3.932   1.896  2.1747 -0.0144 -0.7800
 3043TIP3    H230689   5.304   3.879   1.758  0.2209  0.6242 -0.5817
 3044TIP3   OH230690   5.230   6.356   7.973  0.1945  0.2649 -0.0851
 3044TIP3    H130691   5.209   6.277   8.022  2.2677  1.4085  2.9289
 3044TIP3    H230692   5.150   6.408   7.974 -0.5137 -0.8006 -0.1346
 3045TIP3   OH230693   6.265   0.222   8.454  0.1555  0.2157 -0.2320
 3045TIP3    H130694   6.186   0.171   8.435  0.7033 -0.6291 -0.2713
 3045TIP3    H230695   6.280   0.272   8.374 -0.2019  0.2107 -0.3075
 3046TIP3   OH230696   0.652   6.420   7.541  0.2305  0.4731  0.1779
 3046TIP3    H130697   0.647   6.493   7.480 -2.2802 -0.2921 -0.6183
 3046TIP3    H230698   0.637   6.342   7.488  1.5166 -0.5605  1.2311
 3047TIP3   OH230699   1.854   0.927   1.871  0.1809 -0.1033  0.1165
 3047TIP3    H130700   1.772   0.877   1.875  0.1101  0.0308  0.3773
 3047TIP3    H230701   1.843   0.984   1.795 -0.4143  0.6767  0.7724
 3048TIP3   OH230702   4.116   0.242   0.142  0.2370  0.0442 -0.6114
 3048TIP3    H130703   4.100   0.186   0.066 -1.5870 -0.3157 -0.0208
 3048TIP3    H230704   4.174   0.191   0.198  0.0808 -0.4818 -0.9196
 3049TIP3   OH230705   5.964   5.053   1.935  0.5889 -0.2163  0.4828
 3049TIP3    H130706   5.890   5.014   1.890  0.0895  0.6169  0.5636
 3049TIP3    H230707   5.988   4.989   2.002 -0.7461 -0.0360  1.1556
 3050TIP3   OH230708   5.529   1.779   1.165 -0.1500  0.4101  0.0708
 3050TIP3    H130709   5.447   1.815   1.199 -0.3308  2.9781 -2.6393
 3050TIP3    H230710   5.502   1.728   1.089  0.5000 -2.4278  1.6344
 3051TIP3   OH230711   4.277   0.878   1.806  0.4287  0.0125 -0.6525
 3051TIP3    H130712   4.340   0.810   1.780 -0.1591 -1.1350  0.7770
 3051TIP3    H230713   4.196   0.829   1.823 -0.2269  1.1879 -0.3317
 3052TIP3   OH230714   0.074   6.560   7.090 -0.4446  0.0045  0.0379
 3052TIP3    H130715   0.132   6.577   7.164  1.2837 -0.1426 -1.2455
 3052TIP3    H230716   0.090   6.468   7.069 -0.9299  0.0493 -0.5297
 3053TIP3   OH230717   3.717   2.932   7.717 -0.4190 -0.2490  0.5267
 3053TIP3    H130718   3.796   2.888   7.747 -1.4552 -3.0837 -0.5507
 3053TIP3    H230719   3.649   2.864   7.720 -2.6148  1.7997  0.4890
 3054TIP3   OH230720   2.363   5.456   0.118 -0.0948  0.2327  0.3864
 3054TIP3    H130721   2.268   5.467   0.118 -0.1133  0.0861  0.0291
 3054TIP3    H230722   2.384   5.428   0.208 -0.5925 -1.3998  0.0387
 3055TIP3   OH230723   3.658   1.240   1.485 -0.5753 -0.3404 -0.1383
 3055TIP3    H130724   3.739   1.209   1.526 -2.6840 -3.9239  1.7863
 3055TIP3    H230725   3.652   1.189   1.404 -0.2390  1.0841 -1.1066
 3056TIP3   OH230726   2.796   0.966   8.639 -0.2078 -0.1786  0.1800
 3056TIP3    H130727   2.731   1.034   8.621 -1.3234 -0.7797  1.7299
 3056TIP3    H230728   2.749   0.883   8.623  0.8863 -0.6197 -0.9001
 3057TIP3   OH230729   3.941   4.306   8.538  0.0385  0.5455 -0.0353
 3057TIP3    H130730   3.906   4.333   8.623  0.1274 -3.1197  1.3373
 3057TIP3    H230731   4.032   4.282   8.557  0.1163 -0.1288 -1.2094
 3058TIP3   OH230732   3.733   6.287   1.182  0.5232  0.0520  0.6208
 3058TIP3    H130733   3.780   6.330   1.253 -1.7268 -0.2094  2.3760
 3058TIP3    H230734   3.714   6.199   1.214  2.9196 -1.5879 -1.9729
 3059TIP3   OH230735   6.187   5.084   6.771 -0.6683 -0.4261 -0.0532
 3059TIP3    H130736   6.169   5.156   6.832  1.3878  0.3643 -0.3129
 3059TIP3    H230737   6.105   5.034   6.768 -1.5517  0.8393  1.5574
 3060TIP3   OH230738   3.569   4.577   7.884  0.1585 -1.0969  0.7100
 3060TIP3    H130739   3.559   4.482   7.896  0.5352 -1.2475 -0.1477
 3060TIP3    H230740   3.494   4.614   7.931 -0.4831 -1.8599  0.3295
 3061TIP3   OH230741   6.005   4.622   1.890  0.2617 -0.2257 -0.2753
 3061TIP3    H130742   6.017   4.548   1.951 -0.3071 -0.1357 -0.0487
 3061TIP3    H230743   6.043   4.697   1.936 -0.3714 -0.1111  0.0800
 3062TIP3   OH230744   1.462   5.459   7.857  0.4762  0.0791  0.1165
 3062TIP3    H130745   1.399   5.473   7.786  0.1144 -0.5927  0.2955
 3062TIP3    H230746   1.547   5.480   7.818  0.3303 -0.6767 -0.6481
 3063TIP3   OH230747   5.523   1.538   8.364  0.3177  0.3315  0.0266
 3063TIP3    H130748   5.560   1.489   8.438 -0.0478  1.6840  1.1370
 3063TIP3    H230749   5.429   1.542   8.384  0.3888  1.7445  0.1276
 3064TIP3   OH230750   0.189   4.447   8.211  0.1109  0.1046  0.6281
 3064TIP3    H130751   0.163   4.360   8.182 -0.6535  0.5796 -0.1590
 3064TIP3    H230752   0.283   4.451   8.194 -0.0419 -0.1887 -0.3216
 3065TIP3   OH230753   1.467   6.457   7.791 -0.0299  0.4565 -0.6549
 3065TIP3    H130754   1.465   6.387   7.856  1.7122 -0.7131 -1.7766
 3065TIP3    H230755   1.552   6.499   7.804  0.6795 -0.2526 -2.5590
 3066TIP3   OH230756   5.445   5.072   1.254  0.5816 -0.0243 -0.6598
 3066TIP3    H130757   5.459   5.107   1.342  0.3023  0.6369 -0.8733
 3066TIP3    H230758   5.418   4.981   1.268  0.3458  0.1383 -0.0573
 3067TIP3   OH230759   2.407   1.775   8.438 -0.0889 -0.8020  0.2193
 3067TIP3    H130760   2.451   1.692   8.455  0.0230 -1.3111 -2.2422
 3067TIP3    H230761   2.454   1.813   8.364 -0.1002  1.5175  1.3140
 3068TIP3   OH230762   6.314   6.269   8.095 -0.3748 -0.6651  0.8185
 3068TIP3    H130763   6.313   6.225   8.010 -0.4300 -0.0453  0.4998
 3068TIP3    H230764   6.392   6.234   8.138  0.7291  0.4377 -0.2355
 3069TIP3   OH230765   1.296   2.969   0.303 -0.0162  0.3645  0.2156
 3069TIP3    H130766   1.240   2.974   0.380 -2.6739  0.3836 -1.5865
 3069TIP3    H230767   1.296   3.058   0.267  1.8693  0.5519  0.5646
 3070TIP3   OH230768   1.162   1.041   0.365  0.1653  0.6687  0.6416
 3070TIP3    H130769   1.087   1.057   0.422 -0.2731  2.1132 -0.2829
 3070TIP3    H230770   1.233   1.016   0.426 -1.0286 -0.7701  1.5160
 3071TIP3   OH230771   2.710   3.420   0.767 -0.3601 -0.3188  0.1915
 3071TIP3    H130772   2.630   3.470   0.752 -0.5787 -0.4153  0.9653
 3071TIP3    H230773   2.756   3.421   0.683 -0.7386  0.5051 -0.0112
 3072TIP3   OH230774   1.522   5.095   1.836  0.2833 -0.2793  0.0331
 3072TIP3    H130775   1.560   5.020   1.881 -0.2333 -0.3303  0.3873
 3072TIP3    H230776   1.483   5.148   1.905  0.9799  0.5185 -0.1663
 3073TIP3   OH230777   4.090   2.437   1.564  0.2015 -0.2409 -0.3178
 3073TIP3    H130778   4.022   2.486   1.610  0.2640 -1.0469  0.6539
 3073TIP3    H230779   4.082   2.467   1.473 -1.3217 -0.1739 -0.1972
 3074TIP3   OH230780   5.686   5.144   1.141 -0.4728 -0.0914  0.4399
 3074TIP3    H130781   5.722   5.060   1.114 -0.9349  0.0612 -0.6963
 3074TIP3    H230782   5.600   5.122   1.177 -0.9556 -0.0322 -0.6438
 3075TIP3   OH230783   2.862   2.475   1.883  0.2263 -0.1417 -0.2477
 3075TIP3    H130784   2.808   2.553   1.867 -0.8467 -0.7231  0.4154
 3075TIP3    H230785   2.826   2.409   1.823 -0.9664 -1.0385  1.3842
 3076TIP3   OH230786   5.465   3.470   0.539  0.4524  0.2623 -0.1989
 3076TIP3    H130787   5.515   3.546   0.508  2.3845  0.3472  2.7833
 3076TIP3    H230788   5.404   3.506   0.603 -0.8142 -0.3851 -0.9900
 3077TIP3   OH230789   6.035   3.104   1.808  0.4580  0.6246 -0.3814
 3077TIP3    H130790   6.089   3.177   1.838 -0.5251  1.4912 -0.6829
 3077TIP3    H230791   5.950   3.118   1.849  0.5633 -1.0021  0.4818
 3078TIP3   OH230792   2.840   1.453   1.619 -0.3252  0.1453  0.4777
 3078TIP3    H130793   2.824   1.526   1.678 -0.0108  0.3462  0.3154
 3078TIP3    H230794   2.935   1.446   1.614 -0.3512 -0.2284  0.4336
 3079TIP3   OH230795   5.240   6.755   1.184 -0.1746 -0.1823  0.7130
 3079TIP3    H130796   5.335   6.770   1.184  0.2287 -2.3363 -0.2400
 3079TIP3    H230797   5.229   6.671   1.229 -1.7830  0.5773  1.8400
 3080TIP3   OH230798   2.578   5.831   1.711 -0.1522 -0.3516  0.0409
 3080TIP3    H130799   2.504   5.856   1.766  0.6332  0.0677  0.9390
 3080TIP3    H230800   2.548   5.850   1.621 -1.1216 -0.1896  0.3808
 3081TIP3   OH230801   2.782   6.321   1.261  0.1221  0.1879 -0.6322
 3081TIP3    H130802   2.744   6.307   1.174 -0.0531 -0.4197 -0.4573
 3081TIP3    H230803   2.846   6.251   1.271 -2.6208 -2.2552  1.3331
 3082TIP3   OH230804   4.503   1.787   8.526 -0.2151  0.1789  0.6852
 3082TIP3    H130805   4.578   1.839   8.497 -0.8104  1.5813  1.5808
 3082TIP3    H230806   4.486   1.817   8.615 -1.4529 -0.5622  0.7136
 3083TIP3   OH230807   0.483   5.672   7.939  0.4868 -0.3635 -0.0061
 3083TIP3    H130808   0.531   5.640   8.016  0.5403  3.0342  1.5570
 3083TIP3    H230809   0.544   5.733   7.897 -1.2628  1.7035  0.2709
 3084TIP3   OH230810   3.808   0.276   1.855 -0.2540 -0.2008 -0.6843
 3084TIP3    H130811   3.856   0.194   1.865  0.7644  0.6716  3.4843
 3084TIP3    H230812   3.736   0.254   1.796  0.2955 -3.9131 -0.2493
 3085TIP3   OH230813   3.989   4.168   7.981  0.1813 -0.0886 -0.4560
 3085TIP3    H130814   3.920   4.192   7.919 -1.0886  1.2674  1.3913
 3085TIP3    H230815   4.028   4.251   8.007  0.6097 -0.6191  0.6352
 3086TIP3   OH230816   4.281   5.445   0.305 -0.0083 -0.6351 -0.2572
 3086TIP3    H130817   4.191   5.475   0.294  0.4679  0.6749 -0.7209
 3086TIP3    H230818   4.290   5.428   0.399  0.4726  3.4256  0.5996
 3087TIP3   OH230819   4.997   5.944   7.749 -0.5129 -0.3301  0.0107
 3087TIP3    H130820   5.054   5.885   7.699  0.2451 -1.3303  1.9401
 3087TIP3    H230821   4.912   5.900   7.748 -0.7763  0.1532 -1.1680
 3088TIP3   OH230822   6.055   5.002   0.528 -0.2644  0.1816 -0.1230
 3088TIP3    H130823   6.030   4.912   0.505 -1.3878  0.6778 -0.9037
 3088TIP3    H230824   6.147   5.008   0.504 -0.1288 -0.8105  0.0936
 3089TIP3   OH230825   3.816   4.515   1.117 -0.3346 -0.2708  0.4179
 3089TIP3    H130826   3.867   4.510   1.036  2.1888 -1.3158  1.9548
 3089TIP3    H230827   3.753   4.443   1.110  0.8289 -1.2902 -0.0467
 3090TIP3   OH230828   6.475   1.481   2.689  0.1252  0.0033  0.6719
 3090TIP3    H130829   6.468   1.385   2.685  2.1071 -0.1321 -1.3230
 3090TIP3    H230830   6.521   1.505   2.609 -0.2788  2.6605  1.1478
 3091TIP3   OH230831   2.528   2.175   8.099  0.0945 -0.1658 -0.0297
 3091TIP3    H130832   2.580   2.101   8.069 -0.5555 -1.1378  1.1266
 3091TIP3    H230833   2.446   2.168   8.051  0.1324 -0.0340 -0.1142
 3092TIP3   OH230834   5.149   4.372   2.759  0.6249  0.5223 -0.4972
 3092TIP3    H130835   5.117   4.455   2.724 -0.0590 -0.2787 -1.8880
 3092TIP3    H230836   5.096   4.306   2.714  1.7156 -0.7000 -0.0459
 3093TIP3   OH230837   6.245   0.884   7.330  0.3397  0.5741  0.0112
 3093TIP3    H130838   6.303   0.809   7.322 -0.5655 -0.2334  0.8355
 3093TIP3    H230839   6.301   0.954   7.364  0.6644 -0.4081  1.5526
 3094TIP3   OH230840   5.470   3.608   7.273  0.5649  0.2260  0.2282
 3094TIP3    H130841   5.517   3.649   7.201  0.2899  0.8120  0.3794
 3094TIP3    H230842   5.378   3.622   7.253  0.4877  1.7089  1.4206
 3095TIP3   OH230843   3.712   6.339   1.746 -0.5467 -0.2759 -0.0879
 3095TIP3    H130844   3.783   6.296   1.795 -1.3224 -0.7525  0.6588
 3095TIP3    H230845   3.640   6.344   1.809 -0.2759  2.8466  0.1120
 3096TIP3   OH230846   2.960   6.536   1.556 -0.1231  0.0520  0.0896
 3096TIP3    H130847   2.904   6.460   1.573  0.2165  0.1462  1.8244
 3096TIP3    H230848   3.040   6.519   1.606  0.0057  1.4970  0.4185
 3097TIP3   OH230849   6.426   5.764   1.866 -0.4130 -0.5612 -0.4137
 3097TIP3    H130850   6.368   5.784   1.939 -1.0237 -1.6187 -0.5831
 3097TIP3    H230851   6.403   5.674   1.841 -2.7411  0.8417 -4.1882
 3098TIP3   OH230852   3.109   5.311   1.163 -0.3769  0.5556 -0.0051
 3098TIP3    H130853   3.189   5.295   1.113  0.3808  1.2522  0.9458
 3098TIP3    H230854   3.054   5.363   1.104  0.1177  0.5925 -0.4443
 3099TIP3   OH230855   0.821   6.328   7.748  0.2645  0.1885 -0.5080
 3099TIP3    H130856   0.898   6.384   7.745  0.0721  0.6785  1.8675
 3099TIP3    H230857   0.762   6.364   7.681  2.2000 -0.4900 -2.7017
 3100TIP3   OH230858   2.070   4.871   0.318  0.0920  0.1728 -0.2105
 3100TIP3    H130859   2.043   4.843   0.405 -1.0717  0.1275 -0.5802
 3100TIP3    H230860   2.129   4.945   0.334  0.6369 -0.4319  0.6431
 3101TIP3   OH230861   5.074   2.541   1.949 -0.1561 -0.1381 -0.4512
 3101TIP3    H130862   5.023   2.580   1.878  2.1147  2.0549 -1.0265
 3101TIP3    H230863   5.044   2.586   2.028 -1.1069 -0.9778 -0.3081
 3102TIP3   OH230864   5.840   5.650   2.925  0.2777 -0.1579  0.2552
 3102TIP3    H130865   5.861   5.702   2.847  1.0785  0.6519  0.9769
 3102TIP3    H230866   5.761   5.691   2.960 -0.1998 -0.6475 -0.2249
 3103TIP3   OH230867   3.271   2.661   7.357  0.5845 -0.2408 -0.1802
 3103TIP3    H130868   3.329   2.714   7.410 -0.7251  0.6892  0.3882
 3103TIP3    H230869   3.241   2.720   7.287  0.1372 -0.6223 -0.3195
 3104TIP3   OH230870   5.244   2.961   1.395 -0.3190  0.0673  0.2063
 3104TIP3    H130871   5.207   2.998   1.315 -0.0075 -1.9785 -0.9638
 3104TIP3    H230872   5.325   3.008   1.408  0.6101 -0.8149 -1.8505
 3105TIP3   OH230873   5.214   2.515   7.463  0.6792  0.4126  0.2714
 3105TIP3    H130874   5.209   2.606   7.434 -1.3292  0.3144  0.1931
 3105TIP3    H230875   5.244   2.467   7.386 -0.8160  0.6825 -0.5092
 3106TIP3   OH230876   6.426   5.368   0.771  0.0872  0.9541  0.0448
 3106TIP3    H130877   6.519   5.376   0.753  0.0003 -0.3252 -1.1312
 3106TIP3    H230878   6.383   5.394   0.689 -0.4435 -1.6383 -0.5827
 3107TIP3   OH230879   1.586   5.383   2.032  0.2102 -0.1831 -0.2452
 3107TIP3    H130880   1.537   5.301   2.026  0.0360 -0.0304 -0.9809
 3107TIP3    H230881   1.671   5.364   1.994  1.2398 -0.8033  2.1761
 3108TIP3   OH230882   4.364   1.910   8.333  0.2083  0.1974 -0.3770
 3108TIP3    H130883   4.428   1.978   8.312 -0.7907  1.2154 -0.2798
 3108TIP3    H230884   4.408   1.854   8.397  0.2401  2.2689  1.5572
 3109TIP3   OH230885   1.711   6.163   1.398 -0.2934  0.3383  0.4902
 3109TIP3    H130886   1.641   6.158   1.463 -1.0499 -0.3350 -0.3347
 3109TIP3    H230887   1.754   6.078   1.404  0.5069  0.7668  1.0248
 3110TIP3   OH230888   4.986   2.773   8.306  0.1260  0.3200 -0.1888
 3110TIP3    H130889   4.993   2.800   8.215  0.8400 -0.6745 -0.4563
 3110TIP3    H230890   5.019   2.847   8.356  2.5118 -0.1502 -0.9182
 3111TIP3   OH230891   1.723   6.267   0.240  0.7281  0.4626 -0.2148
 3111TIP3    H130892   1.674   6.287   0.161  1.3999 -2.3957 -1.4888
 3111TIP3    H230893   1.788   6.336   0.247  0.5978  0.8240 -2.1322
 3112TIP3   OH230894   3.720   5.876   2.254 -0.5595 -0.1410  0.0869
 3112TIP3    H130895   3.811   5.846   2.249 -0.1087  1.3043 -1.2153
 3112TIP3    H230896   3.697   5.897   2.164 -1.4104  1.6768  0.6917
 3113TIP3   OH230897   0.847   1.716   8.115  0.7793 -0.0945 -0.4491
 3113TIP3    H130898   0.880   1.674   8.035  0.1560 -0.1450 -0.6902
 3113TIP3    H230899   0.901   1.680   8.185  0.3937 -1.1685 -0.6760
 3114TIP3   OH230900   1.034   5.588   7.503 -0.1838 -0.2661 -0.0208
 3114TIP3    H130901   0.944   5.615   7.485  0.3292  2.1906  0.6809
 3114TIP3    H230902   1.074   5.580   7.416  0.0605  3.1750 -0.3573
 3115TIP3   OH230903   3.063   1.927   1.507  0.4137 -0.0607  0.1214
 3115TIP3    H130904   3.061   1.843   1.461  1.8238 -0.1527  0.1720
 3115TIP3    H230905   2.999   1.918   1.578  1.7152 -1.7481  1.1731
 3116TIP3   OH230906   2.164   1.513   1.953  0.0047  0.2113 -0.1112
 3116TIP3    H130907   2.179   1.418   1.960 -1.7096 -0.0950 -0.1595
 3116TIP3    H230908   2.252   1.551   1.956  0.9215 -1.4887 -2.0172
 3117TIP3   OH230909   3.182   2.637   1.793 -0.2192  0.5438 -0.0780
 3117TIP3    H130910   3.246   2.704   1.816 -1.2779  1.2470  0.9693
 3117TIP3    H230911   3.137   2.617   1.876 -0.0745 -1.3144 -0.4142
 3118TIP3   OH230912   1.957   0.393   1.436 -0.2051  0.3481 -0.1081
 3118TIP3    H130913   1.968   0.304   1.400 -2.9937 -0.8696  1.7686
 3118TIP3    H230914   2.039   0.410   1.482 -0.4806 -2.3433  1.5774
 3119TIP3   OH230915   0.396   0.118   7.371  0.7446  0.2982  0.0410
 3119TIP3    H130916   0.378   0.212   7.365 -0.3045  0.0175 -1.8235
 3119TIP3    H230917   0.320   0.081   7.415  1.7025  0.4231  1.9120
 3120TIP3   OH230918   5.490   3.000   8.559  0.1892 -0.5921 -0.5384
 3120TIP3    H130919   5.508   3.080   8.508  0.0498 -0.4569 -0.3776
 3120TIP3    H230920   5.409   2.965   8.521  0.2917 -0.6991 -0.6592
 3121TIP3   OH230921   3.417   0.795   2.342 -0.4676  0.4168 -0.4717
 3121TIP3    H130922   3.433   0.708   2.307  0.8034  0.0162  0.9857
 3121TIP3    H230923   3.496   0.845   2.319  0.5106  0.0722  1.8943
 3122TIP3   OH230924   3.589   5.415   1.960 -0.7102  0.5742  0.2998
 3122TIP3    H130925   3.663   5.356   1.949 -0.5084  0.8971 -0.0895
 3122TIP3    H230926   3.528   5.366   2.015 -0.5059  0.0353  0.0575
 3123TIP3   OH230927   5.641   0.432   1.831 -0.2938  0.3524 -0.4918
 3123TIP3    H130928   5.559   0.382   1.834  1.0984 -2.2358 -2.0262
 3123TIP3    H230929   5.706   0.375   1.871  1.5920  0.4011 -3.2010
 3124TIP3   OH230930   5.734   0.475   7.351  0.1579  0.2345  0.0739
 3124TIP3    H130931   5.654   0.442   7.310 -0.0975  0.7648  0.1252
 3124TIP3    H230932   5.798   0.479   7.280  0.6123 -1.6302  0.3335
 3125TIP3   OH230933   4.816   3.645   8.458 -0.1847  0.2589 -0.4154
 3125TIP3    H130934   4.819   3.552   8.479 -2.1639 -0.2828 -2.1726
 3125TIP3    H230935   4.771   3.649   8.374 -0.2550  2.8287 -0.3351
 3126TIP3   OH230936   5.855   3.753   8.426 -0.0050 -0.4666  0.3222
 3126TIP3    H130937   5.878   3.828   8.480 -1.0486  1.7126 -2.0299
 3126TIP3    H230938   5.792   3.704   8.478  0.7802  0.1995  1.9676
 3127TIP3   OH230939   1.565   0.777   8.126  0.3320 -0.0748  0.1218
 3127TIP3    H130940   1.521   0.799   8.043  1.3115 -1.6493 -0.8665
 3127TIP3    H230941   1.659   0.783   8.105  0.6802  1.9637  1.8350
 3128TIP3   OH230942   4.375   5.824   2.449  0.1365 -0.0180 -0.2201
 3128TIP3    H130943   4.340   5.756   2.507 -1.5276 -0.1231 -1.2757
 3128TIP3    H230944   4.465   5.837   2.479 -0.3864 -0.6708  1.8105
 3129TIP3   OH230945   5.065   2.262   1.942  0.2593 -0.4985 -0.1483
 3129TIP3    H130946   4.981   2.242   1.899  0.1135 -0.9750  0.3505
 3129TIP3    H230947   5.071   2.358   1.939 -1.0867 -0.3386  1.2684
 3130TIP3   OH230948   1.881   2.696   1.920 -0.0861 -0.2117  0.2005
 3130TIP3    H130949   1.859   2.629   1.984  1.2120  0.8045  1.7890
 3130TIP3    H230950   1.826   2.771   1.943 -0.5838 -0.2722 -0.7447
 3131TIP3   OH230951   1.369   2.095   8.675  0.2616  0.5817  0.1975
 3131TIP3    H130952   1.317   2.153   8.620  1.0293  0.7516 -0.3697
 3131TIP3    H230953   1.413   2.153   8.737 -0.6578  0.3843  1.0604
 3132TIP3   OH230954   6.723   1.719   1.792 -0.0651 -0.0041  0.0583
 3132TIP3    H130955   6.769   1.737   1.710  0.9980  3.5365  1.2514
 3132TIP3    H230956   6.648   1.779   1.791  0.7180  1.1466  2.1358
 3133TIP3   OH230957   6.268   0.669   2.095  0.0596 -0.4103 -0.0120
 3133TIP3    H130958   6.356   0.647   2.127 -0.1890 -0.5512  0.5971
 3133TIP3    H230959   6.277   0.674   2.000  1.6869  3.6539  0.1734
 3134TIP3   OH230960   6.593   2.410   0.338 -0.2467  0.3534  1.0908
 3134TIP3    H130961   6.685   2.384   0.333 -0.4317 -0.3619  1.2603
 3134TIP3    H230962   6.580   2.436   0.430 -0.7245 -1.5981  1.6204
 3135TIP3   OH230963   0.326   6.378   0.317 -0.3261 -0.3618  0.0765
 3135TIP3    H130964   0.261   6.406   0.382  0.7119 -1.0759  1.4861
 3135TIP3    H230965   0.398   6.343   0.370  0.0888 -2.0098 -1.5096
 3136TIP3   OH230966   5.362   5.413   7.483 -0.3769 -0.0073  0.4864
 3136TIP3    H130967   5.313   5.493   7.467  0.1608  0.2362  0.0339
 3136TIP3    H230968   5.313   5.368   7.552  0.7375  1.9468  2.6550
 3137TIP3   OH230969   2.550   3.650   0.941 -0.0872  0.5278  0.1642
 3137TIP3    H130970   2.512   3.607   1.017 -1.0527 -0.7918 -1.0215
 3137TIP3    H230971   2.513   3.604   0.866 -0.0486  2.5285 -1.1481
 3138TIP3   OH230972   0.552   3.079   1.605 -0.7757  0.0807  0.6364
 3138TIP3    H130973   0.551   3.149   1.670 -1.4991 -0.9789  1.8351
 3138TIP3    H230974   0.463   3.080   1.568 -0.4880  0.4233 -0.0472
 3139TIP3   OH230975   2.847   4.044   0.093 -0.8506 -0.4715 -0.3341
 3139TIP3    H130976   2.766   4.066   0.138 -0.8810 -0.4551 -0.3971
 3139TIP3    H230977   2.908   4.021   0.164 -0.9193 -0.5163 -0.2889
 3140TIP3   OH230978   1.596   5.157   8.078 -0.6253 -0.0600  0.1751
 3140TIP3    H130979   1.665   5.223   8.068 -0.8604  0.4562  1.6664
 3140TIP3    H230980   1.516   5.208   8.090 -0.3806 -0.3446  4.8918
 3141TIP3   OH230981   6.100   1.689   8.043 -0.0253 -0.5128 -0.3348
 3141TIP3    H130982   6.036   1.626   8.074 -2.2967  1.6499 -0.3052
 3141TIP3    H230983   6.054   1.738   7.974  2.0278  0.3460 -1.1720
 3142TIP3   OH230984   2.458   1.346   1.550 -0.1704  0.1636  0.0792
 3142TIP3    H130985   2.470   1.316   1.640 -0.1677  0.0235  0.0321
 3142TIP3    H230986   2.405   1.425   1.558 -0.9063 -0.3200  0.1444
 3143TIP3   OH230987   5.153   2.402   7.218  0.5432  0.6781  0.7659
 3143TIP3    H130988   5.206   2.327   7.245 -0.5923  0.0261  1.2442
 3143TIP3    H230989   5.182   2.421   7.129  0.7008 -0.4741  0.5561
 3144TIP3   OH230990   2.489   3.645   2.082  0.2759 -0.3440 -0.7826
 3144TIP3    H130991   2.399   3.649   2.049  0.4755  2.3782 -1.2292
 3144TIP3    H230992   2.542   3.633   2.003  0.4741  1.7914 -1.0360
 3145TIP3   OH230993   5.826   5.840   1.042 -0.3577  0.0640 -0.1690
 3145TIP3    H130994   5.737   5.860   1.070 -1.7192 -2.4660 -2.2923
 3145TIP3    H230995   5.827   5.745   1.028  2.5980  0.0376 -0.5143
 3146TIP3   OH230996   0.851   1.852   7.693 -0.5128 -0.3028  0.2089
 3146TIP3    H130997   0.882   1.920   7.753 -1.7594 -0.3577  0.9471
 3146TIP3    H230998   0.931   1.811   7.660  0.2152  0.1424  1.3480
 3147TIP3   OH230999   4.798   6.014   2.699 -0.3694  0.1073  0.0800
 3147TIP3    H131000   4.880   5.966   2.687 -0.8842 -0.3836 -1.8265
 3147TIP3    H231001   4.784   6.058   2.616 -2.5028 -0.5713  0.0271
 3148TIP3   OH231002   1.244   6.726   2.064 -0.0475 -0.0680  0.3716
 3148TIP3    H131003   1.279   6.653   2.014  0.5108 -0.1126  0.8212
 3148TIP3    H231004   1.165   6.752   2.016  0.6098  0.0654 -0.6737
 3149TIP3   OH231005   1.879   1.020   8.213 -0.0802 -0.3254  0.4958
 3149TIP3    H131006   1.872   1.001   8.307 -0.8246  0.2222  0.5556
 3149TIP3    H231007   1.794   1.054   8.189 -0.4336 -1.9550 -0.7473
 3150TIP3   OH231008   6.073   2.706   2.046 -0.4285  0.1488 -0.4416
 3150TIP3    H131009   6.157   2.662   2.057 -1.0936 -1.2792 -0.9132
 3150TIP3    H231010   6.008   2.641   2.071 -1.4191  1.1269 -0.3899
 3151TIP3   OH231011   5.948   5.009   2.438 -0.7140  0.2254  0.2829
 3151TIP3    H131012   6.012   5.080   2.442 -1.3309  0.7856  0.3615
 3151TIP3    H231013   5.875   5.039   2.491 -1.4312 -0.0063 -0.5372
 3152TIP3   OH231014   1.936   0.687   1.046 -0.1043  0.2429  0.8502
 3152TIP3    H131015   1.993   0.695   0.970 -2.1547 -0.6605 -0.8878
 3152TIP3    H231016   1.996   0.690   1.121  2.0373  0.7654 -0.7762
 3153TIP3   OH231017   2.015   4.326   2.447  0.4186 -0.3326 -0.2519
 3153TIP3    H131018   2.074   4.341   2.521  0.5646  0.8075 -0.5887
 3153TIP3    H231019   1.931   4.361   2.476  0.4714  0.0968 -0.6206
 3154TIP3   OH231020   0.809   4.710   1.829 -0.1605 -0.2948 -0.3134
 3154TIP3    H131021   0.746   4.669   1.888  0.3495 -1.5279 -0.5962
 3154TIP3    H231022   0.865   4.762   1.886 -0.5346 -0.3619  0.1181
 3155TIP3   OH231023   2.470   0.440   0.537  0.1523  1.2402 -0.2349
 3155TIP3    H131024   2.503   0.530   0.542  0.3218  1.1610  0.1469
 3155TIP3    H231025   2.380   0.446   0.569  0.5515  1.0834  0.9645
 3156TIP3   OH231026   0.157   6.011   1.223  0.1013 -0.3744 -0.3108
 3156TIP3    H131027   0.110   6.045   1.147  0.6685 -1.9283 -1.4142
 3156TIP3    H231028   0.110   5.930   1.245 -0.9472  0.7678  1.9540
 3157TIP3   OH231029   5.768   3.450   7.903  0.0674  0.6088  0.3737
 3157TIP3    H131030   5.693   3.500   7.935  0.5773  1.0440  0.9080
 3157TIP3    H231031   5.760   3.454   7.807  0.6598  2.6351  0.3524
 3158TIP3   OH231032   3.231   3.200   2.873 -0.6681  0.2461 -0.1283
 3158TIP3    H131033   3.231   3.260   2.947  0.3089  0.0803  0.0196
 3158TIP3    H231034   3.141   3.202   2.841 -0.5251  2.3288 -0.5716
 3159TIP3   OH231035   3.193   0.996   2.776  0.0645  0.2901 -0.0185
 3159TIP3    H131036   3.153   0.965   2.857 -0.7333 -0.8549 -0.8216
 3159TIP3    H231037   3.184   1.091   2.779 -2.4107  0.1189  0.0258
 3160TIP3   OH231038   2.967   5.000   1.051  0.0193 -0.3442  0.2868
 3160TIP3    H131039   2.920   4.978   0.970 -0.2702 -1.6301  0.7921
 3160TIP3    H231040   2.931   5.085   1.076 -0.5246 -0.3381 -0.4583
 3161TIP3   OH231041   0.188   3.578   2.481 -0.6021 -0.6572  0.1736
 3161TIP3    H131042   0.164   3.543   2.567  1.2916  0.7927  1.3646
 3161TIP3    H231043   0.105   3.585   2.434 -1.6356 -1.8161  1.7376
 3162TIP3   OH231044   3.660   0.655   7.347  0.3934  0.0170  0.2158
 3162TIP3    H131045   3.718   0.580   7.363 -1.0089 -1.4215 -1.1057
 3162TIP3    H231046   3.641   0.690   7.434  1.9256 -0.4741  0.7824
 3163TIP3   OH231047   6.750   5.542   8.213  0.8465  0.4755 -0.3523
 3163TIP3    H131048   6.845   5.542   8.227  0.8594  0.7216 -0.4242
 3163TIP3    H231049   6.729   5.634   8.195  0.4828  0.5510  0.4193
 3164TIP3   OH231050   5.560   5.045   8.280  0.0329  0.2757  0.0865
 3164TIP3    H131051   5.623   5.066   8.211 -1.3713 -1.1800 -1.7634
 3164TIP3    H231052   5.602   4.975   8.330  0.2042 -0.1628 -0.6544
 3165TIP3   OH231053   4.682   3.151   0.433 -0.1304  0.0388  0.9844
 3165TIP3    H131054   4.752   3.188   0.379  0.8474  0.4669  2.5111
 3165TIP3    H231055   4.678   3.059   0.407  0.1644  0.2799  0.0421
 3166TIP3   OH231056   6.440   2.499   2.545  0.1813  0.0408 -0.1568
 3166TIP3    H131057   6.346   2.507   2.530  0.3555  1.3244 -0.7196
 3166TIP3    H231058   6.450   2.416   2.592 -1.4863  1.0331  2.1387
 3167TIP3   OH231059   0.979   4.133   1.288  0.3818  0.1665  0.4121
 3167TIP3    H131060   0.944   4.124   1.377  3.2783  1.2952  1.8043
 3167TIP3    H231061   0.903   4.154   1.234 -1.4273 -0.1508  2.6740
 3168TIP3   OH231062   2.193   1.243   2.007  0.6306  0.7012 -0.0807
 3168TIP3    H131063   2.271   1.188   2.001 -0.1042 -0.3295 -0.3085
 3168TIP3    H231064   2.145   1.226   1.926 -0.2637  0.6770  0.4494
 3169TIP3   OH231065   1.562   2.715   7.727 -0.3227  0.5619 -0.4148
 3169TIP3    H131066   1.544   2.752   7.640 -0.1838  1.4875 -0.0633
 3169TIP3    H231067   1.636   2.766   7.760 -0.7871  0.6587  0.5086
 3170TIP3   OH231068   1.392   5.014   7.110 -0.6689  0.9533  0.2489
 3170TIP3    H131069   1.457   5.074   7.148  1.2891 -0.0840 -1.2629
 3170TIP3    H231070   1.347   5.066   7.043  0.6425  0.9386 -0.6832
 3171TIP3   OH231071   4.830   4.928   8.391 -0.2188 -0.0735  0.2493
 3171TIP3    H131072   4.805   4.837   8.381 -0.3743 -0.1894  1.5941
 3171TIP3    H231073   4.768   4.964   8.455  1.9638  0.0247  2.4592
 3172TIP3   OH231074   3.629   3.628   6.653 -0.1037  0.0381 -0.1975
 3172TIP3    H131075   3.619   3.650   6.746  0.5898 -0.3512 -0.0174
 3172TIP3    H231076   3.548   3.583   6.630 -0.3498  0.2825  0.1788
 3173TIP3   OH231077   0.519   5.903   8.331  0.1784 -1.0169 -0.2079
 3173TIP3    H131078   0.545   5.973   8.391 -0.3329  0.5405 -1.7242
 3173TIP3    H231079   0.584   5.834   8.346 -0.1348 -0.8353  2.3331
 3174TIP3   OH231080   2.203   4.131   0.295 -0.2050  0.4130 -0.7094
 3174TIP3    H131081   2.224   4.158   0.206 -1.1920  1.9811 -0.4997
 3174TIP3    H231082   2.267   4.178   0.350  0.6897 -0.8884 -0.5852
 3175TIP3   OH231083   1.920   0.779   2.434 -0.3173  0.5593  0.0334
 3175TIP3    H131084   1.974   0.733   2.497  0.4236  2.5651  0.9207
 3175TIP3    H231085   1.942   0.739   2.350  0.8428 -0.1820  0.6699
 3176TIP3   OH231086   5.464   6.011   8.248 -0.2158 -0.2591 -0.6279
 3176TIP3    H131087   5.542   6.064   8.233 -1.2606  1.3336 -0.6364
 3176TIP3    H231088   5.467   5.990   8.341 -1.3492  2.5210  0.1312
 3177TIP3   OH231089   1.779   1.319   0.987 -0.1744  0.3868 -0.5148
 3177TIP3    H131090   1.839   1.389   0.963  0.2903 -0.1483 -0.9382
 3177TIP3    H231091   1.733   1.297   0.906 -2.3414  2.0630  0.1572
 3178TIP3   OH231092   6.853   5.822   7.498  0.3542  0.5883  0.0512
 3178TIP3    H131093   6.935   5.870   7.502 -0.4712  2.0503 -0.0804
 3178TIP3    H231094   6.786   5.889   7.491 -0.9635 -0.5238  1.3832
 3179TIP3   OH231095   0.533   6.031   1.798  0.2664 -0.4578  0.3313
 3179TIP3    H131096   0.615   6.017   1.846 -0.5612  0.5766  2.1488
 3179TIP3    H231097   0.465   6.028   1.864 -1.3492 -2.3537 -1.2940
 3180TIP3   OH231098   3.162   3.458   1.196 -0.2193 -0.1283  0.2866
 3180TIP3    H131099   3.071   3.486   1.180 -0.3887 -0.4931  0.5892
 3180TIP3    H231100   3.158   3.363   1.194 -0.0674 -0.1720  1.4480
 3181TIP3   OH231101   2.883   0.622   8.475  0.4108 -0.2354  0.1321
 3181TIP3    H131102   2.853   0.563   8.545  1.2680  0.7925  1.4220
 3181TIP3    H231103   2.802   0.656   8.436 -0.1063 -0.3529  1.0559
 3182TIP3   OH231104   3.993   0.957   1.285 -0.4776 -0.5081 -0.5694
 3182TIP3    H131105   4.070   1.011   1.270 -0.6803  0.0841  0.4437
 3182TIP3    H231106   3.996   0.935   1.378 -1.7275 -0.1621 -0.4212
 3183TIP3   OH231107   3.059   3.747   7.108 -0.4154 -0.5723  0.1887
 3183TIP3    H131108   3.130   3.695   7.143  0.1639  0.4778  0.6149
 3183TIP3    H231109   3.070   3.834   7.147 -0.9577  0.0658 -1.0013
 3184TIP3   OH231110   0.669   6.120   2.688 -0.2477  0.4763  0.5111
 3184TIP3    H131111   0.716   6.041   2.712 -0.0943 -0.1070 -1.4959
 3184TIP3    H231112   0.735   6.178   2.650 -0.5833  1.0329  0.7498
 3185TIP3   OH231113   2.181   6.230   0.222 -0.0189  0.0304 -0.2426
 3185TIP3    H131114   2.144   6.313   0.193  0.4253  0.5935  0.7449
 3185TIP3    H231115   2.274   6.236   0.200 -0.2176 -0.8005 -1.4342
 3186TIP3   OH231116   1.212   4.331   1.248 -0.3366  0.0688  0.6207
 3186TIP3    H131117   1.188   4.409   1.198 -0.1935  0.1294  0.6445
 3186TIP3    H231118   1.178   4.258   1.197  0.0962  0.1117  0.2622
 3187TIP3   OH231119   4.006   3.969   7.526 -0.1929 -0.4596  0.6819
 3187TIP3    H131120   3.923   3.943   7.565  0.1340  0.9201  2.4215
 3187TIP3    H231121   4.070   3.963   7.597  0.9730 -0.4020 -0.3177
 3188TIP3   OH231122   1.631   6.600   1.419 -0.1851 -0.3262 -0.0175
 3188TIP3    H131123   1.700   6.533   1.421 -0.5635 -0.8156 -1.6276
 3188TIP3    H231124   1.678   6.683   1.431  0.5855 -0.7116 -0.2925
 3189TIP3   OH231125   1.353   1.523   3.077 -0.3912  0.0930 -0.0064
 3189TIP3    H131126   1.342   1.588   3.146 -2.7268  1.0341 -1.1349
 3189TIP3    H231127   1.435   1.478   3.098 -0.8714  0.4849  3.2200
 3190TIP3   OH231128   1.335   3.027   0.889  0.4132 -0.3813  0.0099
 3190TIP3    H131129   1.381   2.943   0.894  0.0545 -0.5092  2.1062
 3190TIP3    H231130   1.264   3.011   0.826  1.0781 -1.2691 -0.5426
 3191TIP3   OH231131   0.460   0.413   2.078 -0.3362 -0.5615  0.7653
 3191TIP3    H131132   0.427   0.495   2.114  1.3363 -0.0466  1.1767
 3191TIP3    H231133   0.521   0.440   2.009  1.4249 -1.3976  1.9511
 3192TIP3   OH231134   6.227   3.496   1.969 -0.1930 -0.4676  0.1070
 3192TIP3    H131135   6.136   3.520   1.989 -0.1880 -0.6687  0.3758
 3192TIP3    H231136   6.229   3.489   1.874  0.4258  3.1719 -0.3116
 3193TIP3   OH231137   4.030   6.698   8.629  0.2028  0.7814 -0.7068
 3193TIP3    H131138   4.082   6.669   8.704 -0.3832  0.9819 -0.2111
 3193TIP3    H231139   4.094   6.713   8.559  0.4195 -3.4106 -1.6149
 3194TIP3   OH231140   0.150   6.528   6.721 -0.0455 -0.4636 -0.0652
 3194TIP3    H131141   0.079   6.464   6.725 -0.4637 -0.1732 -1.9076
 3194TIP3    H231142   0.228   6.476   6.700 -0.2181 -0.4920 -0.6573
 3195TIP3   OH231143   4.887   2.963   0.061 -0.5440  0.2319  0.2791
 3195TIP3    H131144   4.810   2.991   0.013  0.4782  1.1721 -0.8798
 3195TIP3    H231145   4.898   3.027   0.131 -2.8310 -1.8858  2.8250
 3196TIP3   OH231146   4.936   0.984   2.073  0.6291  0.1032 -0.2189
 3196TIP3    H131147   4.871   0.940   2.128 -0.6797  1.9775 -0.1638
 3196TIP3    H231148   5.016   0.983   2.125  0.0193 -0.1937  0.7361
 3197TIP3   OH231149   3.436   0.036   0.417 -0.0129  0.5399 -0.1217
 3197TIP3    H131150   3.522   0.006   0.445 -0.4089  0.2561  0.8301
 3197TIP3    H231151   3.439   0.031   0.321  0.8151 -0.0527 -0.0774
 3198TIP3   OH231152   2.952   5.104   1.915  0.2388 -0.0296 -0.2709
 3198TIP3    H131153   2.997   5.149   1.844 -1.6819 -0.6223 -1.9530
 3198TIP3    H231154   2.907   5.173   1.963 -0.3436  0.1795 -1.0889
 3199TIP3   OH231155   2.119   6.725   7.771  0.0897 -0.0422 -0.3615
 3199TIP3    H131156   2.062   6.794   7.804 -0.3661 -0.8862  0.6574
 3199TIP3    H231157   2.207   6.755   7.791 -0.1406 -0.1430  0.8973
 3200TIP3   OH231158   5.990   1.887   0.492  0.0093 -0.0756 -0.9778
 3200TIP3    H131159   6.037   1.815   0.451  1.4862  1.1513 -1.5263
 3200TIP3    H231160   5.924   1.845   0.546  0.8007 -1.8332 -1.3200
 3201TIP3   OH231161   1.730   6.007   8.516  0.0432 -0.1312 -0.0330
 3201TIP3    H131162   1.806   5.951   8.534 -1.1691 -1.7743  0.2501
 3201TIP3    H231163   1.666   5.982   8.583 -1.4375 -0.1693 -1.3969
 3202TIP3   OH231164   5.982   2.108   3.185  0.0968  0.8812  0.0792
 3202TIP3    H131165   6.057   2.152   3.146  0.6659  0.6500  0.8821
 3202TIP3    H231166   5.918   2.100   3.114  1.3663 -0.1651 -0.9666
 3203TIP3   OH231167   6.056   1.242   2.645  0.0697 -0.3219  0.3594
 3203TIP3    H131168   5.992   1.224   2.714  0.0282  2.7124  1.2623
 3203TIP3    H231169   6.140   1.219   2.685 -0.1985 -1.7993  0.1308
 3204TIP3   OH231170   0.418   2.807   1.626 -0.4089 -0.3017  0.3198
 3204TIP3    H131171   0.409   2.717   1.657  0.6346 -0.1566  1.1182
 3204TIP3    H231172   0.498   2.839   1.667 -1.4364  1.4266  1.1321
 3205TIP3   OH231173   2.473   1.080   7.509  0.0187  1.0583  0.5619
 3205TIP3    H131174   2.385   1.042   7.505  0.5844 -0.2451 -2.3076
 3205TIP3    H231175   2.462   1.167   7.472  0.0671  0.4154 -1.0734
 3206TIP3   OH231176   3.159   5.206   7.761  0.5619 -0.2168 -0.0514
 3206TIP3    H131177   3.135   5.198   7.669 -0.8950  0.4490  0.2451
 3206TIP3    H231178   3.211   5.127   7.779  1.4876 -0.0036 -1.6011
 3207TIP3   OH231179   0.977   4.257   8.494 -0.4734 -0.0735 -0.5368
 3207TIP3    H131180   0.917   4.258   8.569  1.5220  0.5317  1.1601
 3207TIP3    H231181   1.002   4.349   8.483  2.5873 -0.5778  1.0121
 3208TIP3   OH231182   5.598   5.427   1.324 -0.8755 -0.1486 -0.0058
 3208TIP3    H131183   5.639   5.387   1.248  1.1400 -1.2417  1.5432
 3208TIP3    H231184   5.505   5.404   1.317 -0.8553  0.2914 -2.3664
 3209TIP3   OH231185   6.021   5.049   7.689  0.1471 -0.4457 -0.2029
 3209TIP3    H131186   5.977   5.053   7.605 -0.2431 -0.7610 -0.0160
 3209TIP3    H231187   6.105   5.008   7.671  0.2727 -0.0556 -0.5208
 3210TIP3   OH231188   0.827   0.881   8.422 -0.2337 -0.0084  0.2682
 3210TIP3    H131189   0.857   0.902   8.510 -2.3967  0.4060  0.9801
 3210TIP3    H231190   0.822   0.965   8.378  1.8179 -0.3053 -0.6595
 3211TIP3   OH231191   1.273   0.925   3.087 -0.0388  0.4370 -0.3375
 3211TIP3    H131192   1.308   0.995   3.143 -0.2700  0.8375 -0.6807
 3211TIP3    H231193   1.184   0.911   3.119  0.7880 -1.4275  1.3250
 3212TIP3   OH231194   1.980   4.046   0.620 -0.3730 -0.1034 -0.1950
 3212TIP3    H131195   2.041   4.117   0.604 -0.5586  0.3816  1.1499
 3212TIP3    H231196   1.972   4.041   0.716 -2.7494  0.1278 -0.3241
 3213TIP3   OH231197   6.500   1.580   0.195  0.0848 -0.1213 -0.4599
 3213TIP3    H131198   6.474   1.536   0.114 -0.9584  1.1048 -0.8200
 3213TIP3    H231199   6.544   1.660   0.167  1.0809 -0.4273  0.1856
 3214TIP3   OH231200   1.703   2.344   7.916  0.2514  0.0893  0.2661
 3214TIP3    H131201   1.708   2.422   7.972  0.4681  1.4592 -1.5692
 3214TIP3    H231202   1.790   2.337   7.877 -0.8510  1.4868 -2.7822
 3215TIP3   OH231203   0.991   5.249   0.248 -0.3695  0.4667 -0.2646
 3215TIP3    H131204   1.068   5.195   0.262 -1.3408 -0.9148 -0.0809
 3215TIP3    H231205   0.996   5.273   0.156 -0.2238 -0.4392 -0.5054
 3216TIP3   OH231206   3.832   3.715   1.625  0.0607  0.3131  0.1800
 3216TIP3    H131207   3.764   3.779   1.642 -3.0488 -2.9005  1.1729
 3216TIP3    H231208   3.811   3.680   1.538  1.5660  0.4338 -0.2690
 3217TIP3   OH231209   1.747   1.308   2.921 -0.0750  0.1850 -0.4596
 3217TIP3    H131210   1.669   1.255   2.907  0.1663 -0.0381 -1.0229
 3217TIP3    H231211   1.717   1.398   2.910 -0.1650  0.0767 -1.2065
 3218TIP3   OH231212   2.057   6.581   1.706 -0.0533  0.9003  0.3695
 3218TIP3    H131213   1.969   6.548   1.725  0.0549  0.4562  0.1028
 3218TIP3    H231214   2.116   6.517   1.746  0.1714  0.2752 -0.9051
 3219TIP3   OH231215   1.510   5.356   8.694 -0.1370  0.1723 -0.6984
 3219TIP3    H131216   1.563   5.365   8.773 -1.1681 -2.4227  0.3903
 3219TIP3    H231217   1.438   5.418   8.707 -0.8354 -0.9186  0.9262
 3220TIP3   OH231218   5.118   0.571   0.864 -0.4229  0.0886 -0.6060
 3220TIP3    H131219   5.181   0.513   0.906  0.9497  0.0964 -2.5147
 3220TIP3    H231220   5.142   0.658   0.895 -1.9822 -0.2077  1.6410
 3221TIP3   OH231221   0.895   1.682   0.076 -0.3802 -0.0086 -0.6956
 3221TIP3    H131222   0.964   1.674   0.142 -0.8025  1.0801 -0.1006
 3221TIP3    H231223   0.913   1.765   0.032  0.0622 -0.8534 -2.1763
 3222TIP3   OH231224   6.430   2.460   8.044  0.2057  0.2445  0.4550
 3222TIP3    H131225   6.354   2.419   8.003  0.5432 -0.9020  0.9289
 3222TIP3    H231226   6.453   2.532   7.986 -0.2684 -0.3865 -0.5430
 3223TIP3   OH231227   2.204   5.498   7.978  0.4063 -0.0502  0.3696
 3223TIP3    H131228   2.174   5.436   8.045 -0.3450  0.3941  0.4506
 3223TIP3    H231229   2.208   5.582   8.022 -0.9216  0.4129 -0.3445
 3224TIP3   OH231230   0.425   5.159   8.579 -0.1075 -0.5570 -0.1066
 3224TIP3    H131231   0.413   5.219   8.653  1.7509 -0.1606 -0.0768
 3224TIP3    H231232   0.494   5.099   8.608 -1.4321 -2.3306 -0.4078
 3225TIP3   OH231233   1.283   5.424   0.201  0.3667 -0.3213  0.3201
 3225TIP3    H131234   1.276   5.400   0.294  2.0726 -0.8082  0.3535
 3225TIP3    H231235   1.258   5.345   0.154 -1.3462  0.1766  0.3068
 3226TIP3   OH231236   6.359   2.053   0.226 -0.1354  0.1854  0.0142
 3226TIP3    H131237   6.338   1.960   0.238  0.2240 -0.3260 -2.5916
 3226TIP3    H231238   6.454   2.057   0.225 -0.1015  0.9623  2.1503
 3227TIP3   OH231239   1.803   4.354   0.555  0.8379 -0.5176  0.2243
 3227TIP3    H131240   1.885   4.385   0.592  0.8562 -1.6774  1.2057
 3227TIP3    H231241   1.737   4.415   0.587  1.4942  1.5055 -2.0246
 3228TIP3   OH231242   3.387   2.068   1.038 -0.4126 -0.2185  0.3116
 3228TIP3    H131243   3.302   2.024   1.037 -0.3916 -0.2994  1.0644
 3228TIP3    H231244   3.440   2.015   1.098  0.2812 -0.3699 -0.4236
 3229TIP3   OH231245   5.183   6.456   0.137  0.0172  0.2994 -0.0143
 3229TIP3    H131246   5.261   6.452   0.191 -0.9376  1.1973  1.5000
 3229TIP3    H231247   5.111   6.436   0.197 -0.8651 -1.4400 -1.5661
 3230TIP3   OH231248   1.362   0.374   0.152 -0.2807 -0.4769 -0.2670
 3230TIP3    H131249   1.346   0.342   0.241 -0.9691 -1.9895 -0.8878
 3230TIP3    H231250   1.306   0.451   0.143  1.4213  0.9995  1.2912
 3231TIP3   OH231251   0.097   3.285   0.883 -0.6557 -0.2442 -0.1828
 3231TIP3    H131252   0.045   3.350   0.836 -1.5427  1.2796  2.6416
 3231TIP3    H231253   0.173   3.333   0.914 -2.0397  0.0348  3.2115
 3232TIP3   OH231254   6.367   3.389   7.511 -0.3612  0.0654  0.2422
 3232TIP3    H131255   6.398   3.378   7.421  0.3864  0.6695  0.4193
 3232TIP3    H231256   6.366   3.484   7.524 -1.2833  0.0199  0.5973
 3233TIP3   OH231257   6.748   4.648   0.658  0.5318  0.0237 -0.5489
 3233TIP3    H131258   6.762   4.571   0.603 -0.1945 -1.4529  1.2463
 3233TIP3    H231259   6.680   4.622   0.720  1.2011  1.6496  0.9575
 3234TIP3   OH231260   2.845   2.510   0.021  0.2268  0.1448  0.7991
 3234TIP3    H131261   2.888   2.426   0.038 -0.3739  0.2077  2.8230
 3234TIP3    H231262   2.909   2.576   0.047  0.7558  0.3783 -0.9280
 3235TIP3   OH231263   3.156   4.004   1.365 -0.1364  0.5537 -0.7519
 3235TIP3    H131264   3.174   4.095   1.340 -2.5797  0.6799 -2.4306
 3235TIP3    H231265   3.104   3.970   1.293  1.8839 -2.7022 -0.8646
 3236TIP3   OH231266   1.140   4.581   1.129  1.0155 -0.4299  0.7248
 3236TIP3    H131267   1.148   4.569   1.034 -0.8288  0.3774  0.4121
 3236TIP3    H231268   1.203   4.649   1.150 -2.8687  4.4173 -1.2078
 3237TIP3   OH231269   6.177   0.961   1.126 -0.3455 -0.1812 -0.0230
 3237TIP3    H131270   6.081   0.961   1.119 -0.3096 -1.6243 -1.0493
 3237TIP3    H231271   6.194   0.913   1.207 -0.4840 -0.0765  0.0699
 3238TIP3   OH231272   4.602   3.583   2.371  0.1418 -0.3635 -0.1287
 3238TIP3    H131273   4.571   3.660   2.419 -1.6170 -0.5788 -0.8684
 3238TIP3    H231274   4.584   3.509   2.430  1.4964 -0.3036  0.4251
 3239TIP3   OH231275   0.863   0.552   8.523  0.3094 -0.2435 -0.1360
 3239TIP3    H131276   0.838   0.468   8.561 -1.2974  1.2520  2.3949
 3239TIP3    H231277   0.957   0.559   8.541  0.6418 -1.7890 -1.0899
 3240TIP3   OH231278   0.463   0.366   7.610 -0.4073  0.1700 -0.9857
 3240TIP3    H131279   0.416   0.308   7.670 -0.1792 -0.8911 -1.8020
 3240TIP3    H231280   0.439   0.335   7.523 -0.2393  1.2893 -1.4545
 3241TIP3   OH231281   3.138   4.482   7.540  0.1178  0.1048 -0.2281
 3241TIP3    H131282   3.147   4.515   7.450  1.5827 -0.4859 -0.3290
 3241TIP3    H231283   3.215   4.426   7.553 -1.1044 -1.4346  0.7182
 3242TIP3   OH231284   2.358   3.896   1.080  0.0147  0.5325  0.0328
 3242TIP3    H131285   2.295   3.965   1.063 -2.1525 -1.9554 -3.3896
 3242TIP3    H231286   2.410   3.891   1.000 -0.6251 -2.3440 -0.3214
 3243TIP3   OH231287   5.072   0.015   7.257 -0.2373  0.3994 -0.0041
 3243TIP3    H131288   5.031   0.021   7.171 -2.1496 -2.0022  0.6291
 3243TIP3    H231289   5.030   0.084   7.309 -0.8608  0.2800 -0.3456
 3244TIP3   OH231290   3.040   5.599   1.744  0.3937 -0.2237  0.2606
 3244TIP3    H131291   3.127   5.573   1.715  0.6802 -0.8934  1.6684
 3244TIP3    H231292   2.991   5.517   1.748  0.5313 -0.2414  2.1689
 3245TIP3   OH231293   1.884   5.073   2.199  0.1988 -0.2987  0.4185
 3245TIP3    H131294   1.857   5.165   2.195 -0.3941 -0.2473  3.5419
 3245TIP3    H231295   1.971   5.076   2.238 -0.6304 -1.1018  2.4431
 3246TIP3   OH231296   6.331   5.742   8.643  0.1365  0.2202 -0.3097
 3246TIP3    H131297   6.337   5.838   8.652 -2.8841  0.8327 -3.0527
 3246TIP3    H231298   6.360   5.724   8.554  1.1111 -1.5363  0.3169
 3247TIP3   OH231299   2.882   5.779   0.546  0.2708  0.0701  0.4876
 3247TIP3    H131300   2.923   5.836   0.481 -0.8640  0.2922 -0.0667
 3247TIP3    H231301   2.924   5.694   0.534 -0.0847  0.0440 -0.7249
 3248TIP3   OH231302   5.766   1.992   8.442  0.5249  0.4930  0.0417
 3248TIP3    H131303   5.675   1.983   8.470  0.3808  0.2980 -0.4889
 3248TIP3    H231304   5.816   1.994   8.524  0.3782 -2.8140  0.3544
 3249TIP3   OH231305   0.539   3.022   0.655 -0.6490 -0.4663  0.0511
 3249TIP3    H131306   0.550   2.932   0.687 -0.2466  0.0258  1.3392
 3249TIP3    H231307   0.556   3.016   0.561  3.4590 -1.0749  0.6710
 3250TIP3   OH231308   6.473   0.601   0.609  0.0348 -0.3038 -0.1150
 3250TIP3    H131309   6.554   0.635   0.648 -0.4692 -0.8903  1.5074
 3250TIP3    H231310   6.502   0.535   0.547  1.0544  2.7444 -3.2107
 3251TIP3   OH231311   6.131   6.216   0.489  0.5498 -0.3538  0.1175
 3251TIP3    H131312   6.108   6.308   0.471 -0.4982 -0.9296 -1.8123
 3251TIP3    H231313   6.151   6.180   0.403  1.8475 -1.7458  0.9543
 3252TIP3   OH231314   1.880   5.822   7.951 -0.2459  0.3851  0.0084
 3252TIP3    H131315   1.955   5.867   7.989 -0.2727 -0.4725  1.1011
 3252TIP3    H231316   1.869   5.743   8.003 -0.3440 -0.8107 -1.7301
 3253TIP3   OH231317   1.788   3.617   0.458 -0.4836  0.5681 -0.4772
 3253TIP3    H131318   1.693   3.619   0.444 -0.8369  2.8313  1.5719
 3253TIP3    H231319   1.799   3.561   0.535 -0.4389  2.0007  0.5978
 3254TIP3   OH231320   0.992   4.637   7.693 -0.6126 -0.0631  0.3514
 3254TIP3    H131321   1.055   4.637   7.765  0.5778  0.5464 -0.6441
 3254TIP3    H231322   0.957   4.548   7.690  1.3754 -0.8708 -0.0500
 3255TIP3   OH231323   6.323   1.108   8.557 -0.2271 -0.0703  0.5787
 3255TIP3    H131324   6.337   1.202   8.549 -2.6463  0.3388  0.5209
 3255TIP3    H231325   6.284   1.081   8.474 -1.3443 -0.7369  1.2938
 3256TIP3   OH231326   5.157   2.837   8.063  0.1292  0.4474 -0.4121
 3256TIP3    H131327   5.252   2.827   8.059  0.2612  1.9384 -2.0564
 3256TIP3    H231328   5.123   2.761   8.016  0.4658 -0.2258  0.3987
 3257TIP3   OH231329   0.335   4.856   0.205 -0.3898 -0.6092  0.0467
 3257TIP3    H131330   0.416   4.854   0.256 -1.4243 -0.2763  1.7934
 3257TIP3    H231331   0.272   4.806   0.257 -1.8992  0.9448 -0.1532
 3258TIP3   OH231332   6.501   4.374   0.355  0.0292 -0.8254 -0.0814
 3258TIP3    H131333   6.431   4.439   0.353  0.4027 -0.4186 -0.0945
 3258TIP3    H231334   6.463   4.299   0.400 -0.9005 -1.1767 -1.3935
 3259TIP3   OH231335   4.221   0.909   8.188  0.6674 -0.5030 -0.2651
 3259TIP3    H131336   4.171   0.970   8.241 -0.3537 -0.7532 -0.9267
 3259TIP3    H231337   4.228   0.831   8.243 -2.2924 -1.5900 -1.2448
 3260TIP3   OH231338   2.197   0.125   6.581  0.2624 -0.1200  0.0416
 3260TIP3    H131339   2.232   0.080   6.658 -0.2353 -0.3100  0.1596
 3260TIP3    H231340   2.265   0.188   6.557  1.1348 -1.1775 -0.3494
 3261TIP3   OH231341   1.045   2.903   2.111  0.2870 -0.3641 -0.2800
 3261TIP3    H131342   0.977   2.871   2.170 -0.8913  0.3606 -1.1965
 3261TIP3    H231343   1.070   2.989   2.146  0.3607 -0.3997 -0.2434
 3262TIP3   OH231344   0.057   1.599   8.626  0.6706 -0.1709 -0.1555
 3262TIP3    H131345   0.148   1.581   8.600  0.8693  0.8790 -0.2087
 3262TIP3    H231346   0.019   1.643   8.550  0.5529  0.7476  0.4307
 3263TIP3   OH231347   2.343   4.071   2.232 -0.2082  0.6886  0.0082
 3263TIP3    H131348   2.378   3.984   2.251 -1.4878  0.3672  1.1054
 3263TIP3    H231349   2.395   4.103   2.159  0.3063 -0.9972 -0.4073
 3264TIP3   OH231350   6.493   5.683   1.140  0.4486 -0.2534  0.5788
 3264TIP3    H131351   6.519   5.753   1.080  3.9291 -1.4751  0.4535
 3264TIP3    H231352   6.463   5.612   1.083 -1.0413  0.3040  0.6154
 3265TIP3   OH231353   1.480   0.472   2.262 -0.6901  0.0708 -0.0873
 3265TIP3    H131354   1.432   0.552   2.284 -2.6850 -0.6674 -1.4788
 3265TIP3    H231355   1.421   0.401   2.286  0.1530 -0.9255 -0.8452
 3266TIP3   OH231356   3.589   0.500   1.613 -0.4673 -0.6024 -0.7673
 3266TIP3    H131357   3.505   0.520   1.571 -0.6176  0.6000  0.0579
 3266TIP3    H231358   3.614   0.582   1.657  0.9298 -1.0734 -0.6445
 3267TIP3   OH231359   0.886   4.348   8.133  0.1274  0.2823 -0.2876
 3267TIP3    H131360   0.804   4.298   8.138  0.6327 -0.6752 -1.2494
 3267TIP3    H231361   0.955   4.282   8.144  0.7981  0.8353 -1.0694
 3268TIP3   OH231362   5.439   2.737   7.447 -0.2878  0.0924 -0.4531
 3268TIP3    H131363   5.482   2.810   7.490 -0.5235  0.3578 -0.6685
 3268TIP3    H231364   5.504   2.667   7.448  0.0242  0.3805 -0.4629
 3269TIP3   OH231365   0.829   5.450   0.378  0.1912  0.0527 -0.0997
 3269TIP3    H131366   0.887   5.400   0.320 -1.4285  0.1306 -1.8885
 3269TIP3    H231367   0.741   5.432   0.345 -0.5980  2.4189  0.5244
 3270TIP3   OH231368   3.197   1.327   0.386 -0.1437  0.3107 -0.3661
 3270TIP3    H131369   3.209   1.275   0.465 -0.9294  1.0148  0.2369
 3270TIP3    H231370   3.218   1.416   0.413 -1.4134  0.7231 -0.6632
 3271TIP3   OH231371   6.200   5.210   0.839  0.5267  0.2165  0.0198
 3271TIP3    H131372   6.197   5.124   0.797 -1.6282  1.0562 -1.7866
 3271TIP3    H231373   6.288   5.242   0.823  1.7185 -1.9992  1.6255
 3272TIP3   OH231374   5.644   2.503   7.470  0.1765  0.3191  0.3149
 3272TIP3    H131375   5.684   2.559   7.536  2.2689 -1.5385  0.7200
 3272TIP3    H231376   5.703   2.507   7.395  0.7370 -1.7773  0.5775
 3273TIP3   OH231377   1.475   5.224   0.312  0.6502  0.7208  0.4941
 3273TIP3    H131378   1.506   5.310   0.282  0.3191  0.6150 -0.1766
 3273TIP3    H231379   1.483   5.227   0.407 -1.9074  2.5149  0.7560
 3274TIP3   OH231380   0.916   1.658   0.504  0.2135 -0.0609 -0.1700
 3274TIP3    H131381   0.911   1.749   0.531  0.2204 -0.2427  0.4557
 3274TIP3    H231382   0.825   1.632   0.490  0.1617 -0.1672  0.3617
 3275TIP3   OH231383   5.406   4.808   8.235 -0.0492  0.1746 -0.0478
 3275TIP3    H131384   5.381   4.817   8.143  1.1001  0.0246 -0.3969
 3275TIP3    H231385   5.450   4.890   8.256  0.3650 -0.0861  0.1283
 3276TIP3   OH231386   4.861   6.056   0.951 -0.1461  0.1783 -0.6110
 3276TIP3    H131387   4.780   6.057   0.899 -0.5801 -0.2282  0.0378
 3276TIP3    H231388   4.903   5.973   0.928  1.1493  1.2634 -2.4900
 3277TIP3   OH231389   0.129   4.179   1.761  0.5673  0.0096 -0.4849
 3277TIP3    H131390   0.167   4.195   1.675  1.5210  0.8736  0.0789
 3277TIP3    H231391   0.203   4.185   1.821  0.0926 -1.6121  0.3013
 3278TIP3   OH231392   2.183   3.820   1.704 -0.3886  0.2865 -0.4477
 3278TIP3    H131393   2.207   3.912   1.711 -0.1538  0.1435  1.0938
 3278TIP3    H231394   2.261   3.772   1.733 -0.8078 -0.3587 -0.3505
 3279TIP3   OH231395   2.235   4.431   7.472  0.5473  0.7138 -0.5211
 3279TIP3    H131396   2.273   4.360   7.524  0.4817  1.1629  0.1508
 3279TIP3    H231397   2.143   4.433   7.498  0.8025  1.8048  0.3410
 3280TIP3   OH231398   1.428   1.348   1.922  0.0391  0.0181  0.7534
 3280TIP3    H131399   1.473   1.379   2.001 -0.1230 -0.4540  1.0378
 3280TIP3    H231400   1.380   1.271   1.951  0.1746 -0.3084  0.1359
 3281TIP3   OH231401   2.297   4.631   7.294 -0.2001 -0.3690  0.9260
 3281TIP3    H131402   2.281   4.549   7.341 -0.4116 -0.2103  1.1312
 3281TIP3    H231403   2.225   4.637   7.231 -0.7425  0.1477  1.5811
 3282TIP3   OH231404   0.270   5.352   1.311  0.2705 -0.0768  0.2414
 3282TIP3    H131405   0.309   5.430   1.271 -0.6135  0.6581  0.7898
 3282TIP3    H231406   0.339   5.319   1.369  0.5967  0.3875  0.1291
 3283TIP3   OH231407   1.393   5.125   7.439 -0.2484  1.1720 -0.1351
 3283TIP3    H131408   1.448   5.151   7.364  0.2279 -1.2546 -0.6996
 3283TIP3    H231409   1.315   5.088   7.399 -0.2323  0.3553  0.5620
 3284TIP3   OH231410   5.942   0.237   6.839  0.2175 -0.2607 -0.2039
 3284TIP3    H131411   5.953   0.188   6.757 -2.0788 -2.1492  0.4799
 3284TIP3    H231412   5.892   0.177   6.895 -1.4152  2.3047  1.2704
 3285TIP3   OH231413   3.158   6.252   8.285 -0.1343 -0.0496 -0.3003
 3285TIP3    H131414   3.163   6.308   8.208 -0.4761  1.4558  0.7171
 3285TIP3    H231415   3.088   6.290   8.338  2.1818  1.0067  2.2786
 3286TIP3   OH231416   2.178   2.745   0.399 -0.4322 -0.2330  0.1770
 3286TIP3    H131417   2.259   2.787   0.369  1.2835 -2.7145  1.0710
 3286TIP3    H231418   2.192   2.731   0.492 -2.8503  1.1608  0.8533
 3287TIP3   OH231419   4.596   2.652   0.013  0.4338  0.3542 -0.3072
 3287TIP3    H131420   4.584   2.565   0.051  2.1859  0.1433 -0.1359
 3287TIP3    H231421   4.561   2.646  -0.076  1.0758 -0.7169 -0.4992
 3288TIP3   OH231422   4.292   2.378   8.313  0.5218  0.3333 -0.5165
 3288TIP3    H131423   4.320   2.294   8.278  0.6416 -0.0919  0.5692
 3288TIP3    H231424   4.336   2.443   8.258  0.9434 -0.3158 -0.9567
 3289TIP3   OH231425   0.968   1.819   0.874 -0.4630 -0.1062 -0.8425
 3289TIP3    H131426   0.941   1.842   0.785 -1.0349 -0.3431 -0.7352
 3289TIP3    H231427   0.954   1.898   0.925 -0.7640 -0.1657 -0.8309
 3290TIP3   OH231428   4.582   5.244   0.928 -0.0696 -0.0181  0.4905
 3290TIP3    H131429   4.591   5.155   0.961  1.8785 -1.0336 -2.4285
 3290TIP3    H231430   4.542   5.234   0.842 -1.2252  2.1328  0.6982
 3291TIP3   OH231431   6.687   4.608   2.492 -0.0571 -0.3063  0.3900
 3291TIP3    H131432   6.605   4.566   2.465 -0.0861  0.6315 -1.1297
 3291TIP3    H231433   6.755   4.545   2.469  0.0519  0.9672 -3.4759
 3292TIP3   OH231434   3.266   2.902   7.179  0.5792  0.1694 -0.2798
 3292TIP3    H131435   3.328   2.974   7.189  0.4579  0.4195 -1.2739
 3292TIP3    H231436   3.198   2.937   7.122 -0.8597  0.1451  1.3222
 3293TIP3   OH231437   4.221   0.005   2.708 -0.5822 -0.6549 -0.1354
 3293TIP3    H131438   4.238   0.078   2.767  0.7780  0.4049 -1.7635
 3293TIP3    H231439   4.252  -0.072   2.756  1.1408  0.2592  0.2877
 3294TIP3   OH231440   1.330   0.928   0.826 -0.4356 -0.0140 -0.3203
 3294TIP3    H131441   1.242   0.962   0.840 -0.6474 -1.4425  2.4140
 3294TIP3    H231442   1.317   0.835   0.805  0.3746 -0.0530 -0.6727
 3295TIP3   OH231443   0.313   6.566   7.932 -0.3003  0.0702 -0.1421
 3295TIP3    H131444   0.405   6.569   7.907 -0.1291  0.0446  0.4909
 3295TIP3    H231445   0.297   6.475   7.958 -0.7349 -0.1470 -1.0874
 3296TIP3   OH231446   0.852   4.069   0.456 -0.1123  0.1552  0.2797
 3296TIP3    H131447   0.934   4.118   0.455 -0.1633  0.2384 -1.0346
 3296TIP3    H231448   0.787   4.128   0.418 -0.4710 -0.4276 -0.0382
 3297TIP3   OH231449   0.146   5.363   7.397 -1.0989 -0.2922 -0.1520
 3297TIP3    H131450   0.159   5.270   7.417 -0.9851 -0.4950 -1.1201
 3297TIP3    H231451   0.209   5.381   7.327 -2.2102  0.1089 -1.0759
 3298TIP3   OH231452   5.959   1.388   7.462 -0.1950 -0.2617 -0.0871
 3298TIP3    H131453   5.994   1.473   7.437  0.0700 -0.6081 -0.9308
 3298TIP3    H231454   5.864   1.399   7.462 -0.1460  0.1588  0.2795
 3299TIP3   OH231455   6.315   2.991   8.159  0.1369  0.8740  1.0317
 3299TIP3    H131456   6.337   3.036   8.077 -2.0066 -2.9890 -2.0612
 3299TIP3    H231457   6.264   3.055   8.209  0.9489  3.2135 -0.9309
 3300TIP3   OH231458   2.014   0.175   0.249  0.2607 -0.4498 -0.1100
 3300TIP3    H131459   1.990   0.084   0.270  1.1409 -0.6104  0.2650
 3300TIP3    H231460   2.093   0.190   0.300  0.6130  0.2470 -0.8528
 3301TIP3   OH231461   2.424   6.614   1.351 -0.3231 -0.1797 -0.3662
 3301TIP3    H131462   2.431   6.651   1.439 -1.0046 -0.6941 -0.0895
 3301TIP3    H231463   2.514   6.593   1.326 -0.2891 -1.9037  1.0201
 3302TIP3   OH231464   2.689   1.328   1.386 -0.2665  0.3780 -0.6525
 3302TIP3    H131465   2.734   1.352   1.467 -0.3033 -1.1169 -0.1728
 3302TIP3    H231466   2.596   1.336   1.407 -0.3014  2.7660 -1.4318
 3303TIP3   OH231467   0.971   2.483   8.447  0.1449 -0.5064  0.1385
 3303TIP3    H131468   0.979   2.426   8.522  2.5301 -1.9523 -1.1237
 3303TIP3    H231469   1.036   2.552   8.461 -2.3530  1.8403  1.4013
 3304TIP3   OH231470   2.468   4.522   1.375 -0.0896 -0.1462 -0.0776
 3304TIP3    H131471   2.392   4.465   1.360 -0.2059  0.2256 -0.9263
 3304TIP3    H231472   2.447   4.568   1.457 -0.3537 -0.7330  0.1931
 3305TIP3   OH231473   4.967   1.773   0.101  0.5267  0.4449  0.1460
 3305TIP3    H131474   4.970   1.828   0.023  2.1169  0.7145  0.3659
 3305TIP3    H231475   4.882   1.791   0.140  0.2443  1.2900 -0.8237
 3306TIP3   OH231476   4.391   3.327   8.284 -0.4116 -0.1842  0.2971
 3306TIP3    H131477   4.424   3.416   8.294  0.8352 -0.5742 -0.1316
 3306TIP3    H231478   4.350   3.327   8.197  1.3048 -0.5129 -0.5471
 3307TIP3   OH231479   2.769   6.514   0.486 -0.4708  0.4415  0.2089
 3307TIP3    H131480   2.834   6.559   0.540 -0.3754  1.3162 -0.5940
 3307TIP3    H231481   2.686   6.530   0.530 -0.3337  0.7208  0.3723
 3308TIP3   OH231482   1.107   3.801   1.531  0.4039  0.1326  0.1972
 3308TIP3    H131483   1.126   3.738   1.461 -0.3474  0.0142  0.0890
 3308TIP3    H231484   1.183   3.797   1.589  0.9066  0.0235 -0.4624
 3309TIP3   OH231485   6.357   4.475   1.742  0.6503  0.3393  0.1852
 3309TIP3    H131486   6.373   4.469   1.836 -0.5608  1.4073  0.4978
 3309TIP3    H231487   6.334   4.567   1.727  1.6807  0.3889 -1.3140
 3310TIP3   OH231488   6.454   3.355   8.183  0.4452  0.7784 -0.0067
 3310TIP3    H131489   6.445   3.348   8.278 -1.4379 -0.6144 -0.2254
 3310TIP3    H231490   6.544   3.326   8.165  0.4266 -0.1362  1.2620
 3311TIP3   OH231491   0.630   3.132   8.498 -0.0674 -0.0379  0.1963
 3311TIP3    H131492   0.546   3.090   8.516 -0.2723 -0.4235 -1.4858
 3311TIP3    H231493   0.652   3.178   8.579 -2.0986  0.4010  0.5513
 3312TIP3   OH231494   5.784   4.131   0.060 -0.2560  0.7938 -0.4003
 3312TIP3    H131495   5.803   4.118  -0.033  0.7262 -0.6839 -0.0199
 3312TIP3    H231496   5.849   4.196   0.088 -0.0826  0.7037 -0.5892
 3313TIP3   OH231497   6.457   1.703   2.199 -0.2764  0.5871 -0.0222
 3313TIP3    H131498   6.512   1.740   2.268 -0.7677  0.0802  0.6529
 3313TIP3    H231499   6.396   1.646   2.245 -0.4867  0.0875 -0.8989
 3314TIP3   OH231500   4.589   6.075   1.584 -0.6560 -0.1933 -0.1040
 3314TIP3    H131501   4.528   6.124   1.640 -1.1278 -1.2261  0.3204
 3314TIP3    H231502   4.538   6.056   1.505 -0.8013 -0.8095  0.1318
 3315TIP3   OH231503   4.993   6.055   2.418 -0.4280  0.2153  0.0284
 3315TIP3    H131504   4.984   6.128   2.357 -0.5369  0.6424  0.5462
 3315TIP3    H231505   5.078   6.016   2.397 -0.2889  0.6032 -0.1330
 3316TIP3   OH231506   2.862   0.695   0.644  0.3509  0.3938 -0.4535
 3316TIP3    H131507   2.842   0.633   0.715  0.1019  0.3214 -0.5855
 3316TIP3    H231508   2.912   0.764   0.687  0.5659  0.1413 -0.2888
 3317TIP3   OH231509   3.463   5.795   8.322 -0.2773 -0.3615  0.5592
 3317TIP3    H131510   3.474   5.722   8.383  0.5408  0.3064  1.2504
 3317TIP3    H231511   3.451   5.872   8.378 -3.3671 -0.2005 -0.1367
 3318TIP3   OH231512   3.149   3.415   8.426  0.2809  0.0330  0.5716
 3318TIP3    H131513   3.068   3.442   8.384 -0.6120 -0.9587  1.5867
 3318TIP3    H231514   3.138   3.321   8.441  2.5717 -0.6181 -1.2947
 3319TIP3   OH231515   5.487   2.833   7.927 -0.4191 -0.6133  0.9812
 3319TIP3    H131516   5.559   2.885   7.892 -0.2342 -2.3406 -1.4969
 3319TIP3    H231517   5.522   2.794   8.007  1.1266 -0.7451  0.2812
 3320TIP3   OH231518   5.475   4.938   0.151 -0.2102  0.1200 -0.1078
 3320TIP3    H131519   5.424   5.019   0.143  0.1810  0.4307  0.4891
 3320TIP3    H231520   5.430   4.888   0.220  0.4929  0.5598  0.6862
 3321TIP3   OH231521   4.557   4.503   1.151  0.1537  0.6076  0.1919
 3321TIP3    H131522   4.550   4.498   1.246 -2.1314 -0.7912  0.0283
 3321TIP3    H231523   4.466   4.496   1.120  1.0023 -3.4046 -2.1660
 3322TIP3   OH231524   1.690   0.630   7.876 -0.8502 -0.3024 -0.3109
 3322TIP3    H131525   1.661   0.580   7.952  1.3157 -1.2403 -0.0382
 3322TIP3    H231526   1.759   0.688   7.910  0.6415 -1.2207 -1.6307
 3323TIP3   OH231527   4.067   4.471   1.194 -0.2596 -0.4594 -0.2439
 3323TIP3    H131528   3.973   4.487   1.183 -0.4739 -1.3655  0.1501
 3323TIP3    H231529   4.074   4.376   1.200  0.6382 -0.3764  0.1395
 3324TIP3   OH231530   1.903   0.299   7.581  0.4196  0.2084 -0.5745
 3324TIP3    H131531   1.924   0.294   7.488  0.3892  2.5584 -0.7667
 3324TIP3    H231532   1.887   0.392   7.597 -0.7011 -0.2823  1.5506
 3325TIP3   OH231533   1.043   3.812   7.633 -0.3612 -0.3666 -0.3027
 3325TIP3    H131534   0.994   3.733   7.613 -1.4206  0.1230  0.2208
 3325TIP3    H231535   0.977   3.872   7.670  0.9839 -0.4320  2.4756
 3326TIP3   OH231536   3.404   0.982   7.763 -0.4411 -0.3498 -0.3878
 3326TIP3    H131537   3.322   0.972   7.715 -0.3926  0.1013 -0.5669
 3326TIP3    H231538   3.471   0.992   7.695 -0.0538 -1.9045 -0.2891
 3327TIP3   OH231539   4.231   1.264   1.384 -0.0290 -0.3180 -0.3248
 3327TIP3    H131540   4.257   1.249   1.293  0.8224 -1.3603  0.0716
 3327TIP3    H231541   4.250   1.182   1.428  1.3538  0.7589  1.1997
 3328TIP3   OH231542   2.948   6.608   0.665  0.2003 -0.0701 -0.1899
 3328TIP3    H131543   3.012   6.675   0.689  0.8270 -0.3041 -1.1568
 3328TIP3    H231544   2.907   6.584   0.748  0.6379  0.8269  0.3024
 3329TIP3   OH231545   1.330   2.533   2.546 -0.4678  0.0542  0.4629
 3329TIP3    H131546   1.293   2.578   2.622  0.3766  0.0881  0.8735
 3329TIP3    H231547   1.306   2.441   2.558 -1.6823  0.2901 -0.0623
 3330TIP3   OH231548   3.439   3.525   8.202  0.3164  0.4488  0.0646
 3330TIP3    H131549   3.352   3.499   8.170  0.4672 -0.8956  0.6557
 3330TIP3    H231550   3.467   3.594   8.142  0.3749 -1.5509 -2.3777
 3331TIP3   OH231551   2.695   4.051   2.204 -0.1473 -0.0023  0.1312
 3331TIP3    H131552   2.772   4.004   2.170  0.4798  1.7608 -1.0848
 3331TIP3    H231553   2.627   3.985   2.211  0.8968 -1.2299 -0.7950
 3332TIP3   OH231554   6.151   1.082   2.144  0.0342  0.6032 -0.3783
 3332TIP3    H131555   6.170   1.135   2.221 -1.1487 -0.1399  0.4653
 3332TIP3    H231556   6.144   1.145   2.073  1.2271  1.2975  0.0839
 3333TIP3   OH231557   2.730   3.327   1.261 -0.3043  0.4288  0.0395
 3333TIP3    H131558   2.637   3.313   1.243  0.0890 -2.7305 -0.1161
 3333TIP3    H231559   2.771   3.329   1.175  0.1660 -2.6658  0.0492
 3334TIP3   OH231560   2.820   1.264   1.161  0.1370 -0.0883 -0.2521
 3334TIP3    H131561   2.771   1.282   1.241  1.4294 -2.0968  1.0898
 3334TIP3    H231562   2.884   1.335   1.155 -0.5944  0.5993 -0.0477
 3335TIP3   OH231563   3.605   1.844   1.930  0.4696 -0.0115  0.1068
 3335TIP3    H131564   3.645   1.812   1.849  0.8821 -1.3091  0.7991
 3335TIP3    H231565   3.518   1.805   1.932  0.5529 -0.1883  0.4017
 3336TIP3   OH231566   0.475   1.232   0.814 -0.0723  0.0613  0.0239
 3336TIP3    H131567   0.464   1.274   0.899  0.2245  1.4270 -0.5853
 3336TIP3    H231568   0.413   1.158   0.816 -1.9702  1.5734  0.4780
 3337TIP3   OH231569   2.959   2.111   1.880 -0.7569  0.2339  0.1772
 3337TIP3    H131570   3.013   2.124   1.802 -1.4352  1.8452 -0.0456
 3337TIP3    H231571   3.018   2.066   1.942 -0.1248 -0.8003 -1.1232
 3338TIP3   OH231572   4.898   4.324   1.335 -0.2051 -0.0940  0.0615
 3338TIP3    H131573   4.957   4.278   1.394 -1.1845 -0.7159  0.5746
 3338TIP3    H231574   4.830   4.261   1.314 -1.8049  1.2010  1.0907
 3339TIP3   OH231575   5.442   3.992   7.562 -0.1689  0.1510 -0.2464
 3339TIP3    H131576   5.526   3.950   7.545 -0.2534  0.2666 -0.9724
 3339TIP3    H231577   5.455   4.082   7.533 -0.0011  0.6392  1.2561
 3340TIP3   OH231578   5.136   6.178   7.756 -0.1783  0.1195  0.9851
 3340TIP3    H131579   5.087   6.097   7.773  2.2912 -1.7580 -0.1094
 3340TIP3    H231580   5.174   6.202   7.840  0.4093 -0.8851  1.0309
 3341TIP3   OH231581   2.452   1.408   1.993  0.4607  0.7438 -0.7225
 3341TIP3    H131582   2.448   1.501   1.968  2.1220  0.5473 -1.8550
 3341TIP3    H231583   2.439   1.409   2.088 -1.9638  1.8900 -0.9991
 3342TIP3   OH231584   6.108   2.458   7.601  0.5120 -0.1254 -0.2649
 3342TIP3    H131585   6.198   2.441   7.572  0.1014 -2.5819 -0.3147
 3342TIP3    H231586   6.055   2.444   7.522  0.0259  1.2130 -0.2111
 3343TIP3   OH231587   0.416   5.740   7.313  0.1753  0.3534  0.0918
 3343TIP3    H131588   0.420   5.679   7.387 -0.7500 -0.4896 -0.5107
 3343TIP3    H231589   0.407   5.683   7.236  0.4800  1.2265 -0.6032
 3344TIP3   OH231590   4.194   5.946   2.233 -0.3130  0.0934 -0.2414
 3344TIP3    H131591   4.140   5.978   2.305  0.5250  0.4831  0.2367
 3344TIP3    H231592   4.271   5.909   2.276  0.1254  0.1805 -0.9321
 3345TIP3   OH231593   0.139   1.022   2.351 -0.2103  0.4181  0.2482
 3345TIP3    H131594   0.219   0.971   2.366 -0.0323  0.7440  0.4061
 3345TIP3    H231595   0.133   1.081   2.425 -1.9896 -1.3336  1.6008
 3346TIP3   OH231596   2.735   1.911   1.915 -1.0686 -0.3707  0.2900
 3346TIP3    H131597   2.824   1.946   1.926 -0.6959 -1.8749  2.5096
 3346TIP3    H231598   2.680   1.989   1.906 -0.0136  0.7869  2.9921
 3347TIP3   OH231599   3.444   3.552   0.223  0.4668 -0.5493 -0.7561
 3347TIP3    H131600   3.394   3.607   0.163 -0.8982  0.6412  1.3565
 3347TIP3    H231601   3.380   3.492   0.261  0.0612  1.9828  3.1341
 3348TIP3   OH231602   5.919   1.514   8.135  0.2401  0.0039  0.6975
 3348TIP3    H131603   5.891   1.520   8.226  0.0209  0.3474  0.6098
 3348TIP3    H231604   5.877   1.434   8.102  0.1990 -0.0397  0.8569
 3349TIP3   OH231605   0.849   5.729   7.318 -0.5731 -0.1067  0.7782
 3349TIP3    H131606   0.923   5.755   7.262  1.3084  0.0487  3.1455
 3349TIP3    H231607   0.813   5.651   7.276 -0.2518  0.8400 -1.4062
 3350TIP3   OH231608   3.303   1.408   3.107 -0.4423  0.2161  0.0615
 3350TIP3    H131609   3.318   1.390   3.014 -2.6434  1.1736 -0.5357
 3350TIP3    H231610   3.388   1.441   3.139 -0.0359  1.3533 -2.0000
 3351TIP3   OH231611   6.105   3.162   1.012 -0.1172 -0.0998 -0.1140
 3351TIP3    H131612   6.089   3.103   1.085  1.4740  0.4660  0.7264
 3351TIP3    H231613   6.079   3.248   1.044 -1.3805 -0.1437 -0.9538
 3352TIP3   OH231614   2.599   5.088   8.469 -0.6654  0.1426 -0.9483
 3352TIP3    H131615   2.595   5.180   8.444  0.3208  0.4196 -0.1702
 3352TIP3    H231616   2.616   5.042   8.387  0.5819  0.8376 -1.1090
 3353TIP3   OH231617   5.847   4.554   1.653  0.0758  0.0148 -0.2082
 3353TIP3    H131618   5.855   4.536   1.746  0.3792  0.4743 -0.1388
 3353TIP3    H231619   5.935   4.581   1.626  0.2170 -1.0347 -0.8352
 3354TIP3   OH231620   5.437   2.068   1.966  0.3377  0.1657  0.4001
 3354TIP3    H131621   5.493   2.005   2.012 -0.8820 -0.7100  0.7510
 3354TIP3    H231622   5.495   2.140   1.942  1.5241 -0.5509  1.0596
 3355TIP3   OH231623   1.415   4.397   7.749 -0.3450  0.4085 -0.1700
 3355TIP3    H131624   1.433   4.461   7.679 -0.8848  0.7883  0.0339
 3355TIP3    H231625   1.327   4.419   7.779 -0.0203  0.4029  0.8062
 3356TIP3   OH231626   0.518   3.227   7.448  0.5120  0.1559 -0.0316
 3356TIP3    H131627   0.571   3.166   7.397 -1.9277  0.6530 -3.4874
 3356TIP3    H231628   0.567   3.310   7.442  0.7056 -0.0021 -0.8797
 3357TIP3   OH231629   1.612   0.647   0.630 -0.1330 -0.6718  0.0783
 3357TIP3    H131630   1.610   0.636   0.726 -0.5285 -0.9162  0.0451
 3357TIP3    H231631   1.520   0.662   0.607  0.0487  0.0488 -0.1873
 3358TIP3   OH231632   0.808   2.591   7.875 -0.3173 -0.2042  0.3762
 3358TIP3    H131633   0.734   2.566   7.820  1.0115 -0.9403 -1.1300
 3358TIP3    H231634   0.820   2.684   7.858 -1.2305  0.0608  1.0782
 3359TIP3   OH231635   0.715   4.762   8.476 -0.7357  0.0618  0.0459
 3359TIP3    H131636   0.731   4.674   8.440 -0.3545  0.1307  0.0380
 3359TIP3    H231637   0.702   4.747   8.570  0.3575  0.0951  0.2194
 3360TIP3   OH231638   4.695   5.208   0.505  0.1556  0.1080 -0.4600
 3360TIP3    H131639   4.729   5.274   0.445 -1.1381  0.6201 -0.6694
 3360TIP3    H231640   4.722   5.124   0.467  1.2001  0.4910 -0.5747
 3361TIP3   OH231641   5.511   6.204   1.656  0.0717  0.9153 -0.6301
 3361TIP3    H131642   5.571   6.258   1.604 -0.4022  0.7130 -1.3902
 3361TIP3    H231643   5.462   6.154   1.592 -1.6783  1.8700 -0.0884
 3362TIP3   OH231644   2.559   0.049   1.176 -0.1067 -0.7881  0.0017
 3362TIP3    H131645   2.614   0.041   1.254 -0.7945 -0.6748  0.5113
 3362TIP3    H231646   2.595  -0.015   1.114  2.5753  1.3783 -0.9038
 3363TIP3   OH231647   2.451   6.187   8.134  0.1277  0.6283  0.3686
 3363TIP3    H131648   2.424   6.278   8.143 -1.4314  0.0440  2.0368
 3363TIP3    H231649   2.440   6.150   8.221 -1.6412 -1.7689 -0.7711
 3364TIP3   OH231650   3.269   6.637   7.639  0.0708 -0.3405  0.3158
 3364TIP3    H131651   3.243   6.728   7.649  0.3805 -0.3359  1.1589
 3364TIP3    H231652   3.210   6.602   7.573 -0.3572  0.3469  0.3264
 3365TIP3   OH231653   5.315   5.644   0.841  0.0984 -0.3291  0.6830
 3365TIP3    H131654   5.373   5.577   0.876  1.3249 -0.5476 -1.5980
 3365TIP3    H231655   5.373   5.708   0.800 -1.2289 -0.3439 -1.3452
 3366TIP3   OH231656   6.528   6.014   0.168 -0.6059  0.4327  0.4756
 3366TIP3    H131657   6.622   6.008   0.147 -0.7142 -1.4960  0.3769
 3366TIP3    H231658   6.526   6.053   0.256  0.2333  1.2549  0.1512
 3367TIP3   OH231659   5.164   4.109   7.121  0.1653 -0.0970 -0.1063
 3367TIP3    H131660   5.159   4.038   7.057  0.6243 -0.9161  0.7249
 3367TIP3    H231661   5.256   4.110   7.148  0.3523  1.4156 -0.7434
 3368TIP3   OH231662   1.499   5.309   0.969 -0.4124 -0.2798  0.1860
 3368TIP3    H131663   1.509   5.214   0.965  1.3163 -0.1361  0.3796
 3368TIP3    H231664   1.436   5.330   0.899  0.8879 -1.3557 -1.3711
 3369TIP3   OH231665   5.171   1.707   0.289 -0.4180 -0.7210  0.4512
 3369TIP3    H131666   5.191   1.787   0.336  2.2944 -0.8970 -0.1957
 3369TIP3    H231667   5.120   1.735   0.214  1.8778  0.7484 -0.6841
 3370TIP3   OH231668   2.033   5.596   0.482  0.2068  0.4401  0.2841
 3370TIP3    H131669   1.979   5.559   0.411  0.0572  0.5052  0.3639
 3370TIP3    H231670   1.990   5.568   0.562 -0.1181  1.0917  0.3460
 3371TIP3   OH231671   3.953   5.432   0.051  0.2231 -0.6291  0.0726
 3371TIP3    H131672   3.898   5.359   0.023 -0.6678  0.0875 -0.0604
 3371TIP3    H231673   4.006   5.454  -0.026 -1.5435  0.7165 -0.8275
 3372TIP3   OH231674   3.554   0.588   0.416  0.1012 -0.3851  0.0213
 3372TIP3    H131675   3.603   0.605   0.335 -1.9547  2.2600 -0.8380
 3372TIP3    H231676   3.516   0.501   0.403  2.9234 -1.6815 -0.0838
 3373TIP3   OH231677   0.503   4.098   1.839 -0.4705 -0.1238  0.4411
 3373TIP3    H131678   0.596   4.076   1.849 -0.2938  0.5955  0.4745
 3373TIP3    H231679   0.481   4.072   1.750 -0.1106  0.1166  0.2792
 3374TIP3   OH231680   2.268   4.822   7.545 -0.3040 -0.2217 -0.7099
 3374TIP3    H131681   2.279   4.838   7.638  2.1690 -0.6502 -0.8671
 3374TIP3    H231682   2.222   4.738   7.540  1.3682 -1.2350  0.1691
 3375TIP3   OH231683   0.525   4.784   1.810 -0.3509  0.2905 -0.2023
 3375TIP3    H131684   0.580   4.801   1.887 -0.5226  0.4426 -0.1126
 3375TIP3    H231685   0.441   4.823   1.832 -0.8870 -1.0342  0.1838
 3376TIP3   OH231686   3.177   3.047   7.519  0.2517  0.3318  0.4159
 3376TIP3    H131687   3.249   3.028   7.579  0.2509  0.7834  0.5619
 3376TIP3    H231688   3.220   3.071   7.437  0.2512 -0.5951  0.1263
 3377TIP3   OH231689   0.005   6.078   1.798 -0.1397 -0.0263  0.5125
 3377TIP3    H131690   0.066   6.121   1.738 -0.7008  1.6750  1.1073
 3377TIP3    H231691  -0.079   6.077   1.751 -1.1843  3.4076  1.9568
 3378TIP3   OH231692   0.437   4.086   0.999 -0.4554  0.4140  0.0137
 3378TIP3    H131693   0.398   4.174   0.993 -0.5168  0.3409 -0.8540
 3378TIP3    H231694   0.481   4.075   0.915 -0.6150 -0.4648  0.0423
 3379TIP3   OH231695   4.334   4.451   0.396  0.6750  0.3072 -0.2651
 3379TIP3    H131696   4.380   4.452   0.480 -0.2442 -1.0412  0.2793
 3379TIP3    H231697   4.282   4.531   0.396 -0.2061 -0.2254  0.9943
 3380TIP3   OH231698   0.914   2.341   0.559  0.1323  0.2361 -0.4018
 3380TIP3    H131699   0.907   2.267   0.618 -0.5086  0.1022 -0.6411
 3380TIP3    H231700   0.834   2.339   0.507  0.9071  0.0362 -1.6418
 3381TIP3   OH231701   1.293   5.417   0.610 -0.3393 -0.2583 -0.3652
 3381TIP3    H131702   1.206   5.378   0.600 -0.7263  0.3730  0.4504
 3381TIP3    H231703   1.292   5.456   0.697  2.2648 -4.0548  1.6722
 3382TIP3   OH231704   0.399   5.315   0.114 -0.6536  0.2687 -0.1420
 3382TIP3    H131705   0.335   5.257   0.155  1.1840 -0.8013  1.3605
 3382TIP3    H231706   0.410   5.387   0.176  0.1557  0.0357 -0.0066
 3383TIP3   OH231707   4.336   3.723   0.037 -0.0780 -0.1539 -0.8342
 3383TIP3    H131708   4.257   3.747   0.086  1.0219  0.2053  0.8508
 3383TIP3    H231709   4.342   3.788  -0.033 -0.7100  0.4549 -0.3353
 3384TIP3   OH231710   6.172   2.069   8.675 -0.0050  0.2634 -0.1789
 3384TIP3    H131711   6.168   1.978   8.647 -1.0327 -0.1171  1.1112
 3384TIP3    H231712   6.266   2.088   8.680  0.2277 -0.8039 -0.1920
 3385TIP3   OH231713   1.335   1.313   1.405  0.1299 -0.4495  0.2299
 3385TIP3    H131714   1.250   1.315   1.447 -0.0550  0.4480 -0.1695
 3385TIP3    H231715   1.383   1.388   1.442  0.3955 -0.3749 -0.2516
 3386TIP3   OH231716   3.943   5.871   1.808  0.0544 -0.0038 -0.6582
 3386TIP3    H131717   3.857   5.878   1.851 -0.6700 -0.4353 -2.0009
 3386TIP3    H231718   3.999   5.829   1.874 -1.2068 -1.2538 -0.3290
 3387TIP3   OH231719   2.616   2.340   1.704  0.4511  0.0794  0.1757
 3387TIP3    H131720   2.632   2.417   1.649  1.0695  2.0414  2.8697
 3387TIP3    H231721   2.521   2.338   1.715  0.1979 -1.0464 -1.7977
 3388TIP3   OH231722   2.224   0.541   0.380  0.0224 -0.6933  0.6425
 3388TIP3    H131723   2.248   0.465   0.326 -0.8432 -0.0911 -0.6424
 3388TIP3    H231724   2.154   0.510   0.436 -1.3126 -0.5416 -0.8550
 3389TIP3   OH231725   5.191   2.775   7.361 -0.7913  0.5471 -0.2481
 3389TIP3    H131726   5.141   2.828   7.423  0.2970  3.4957 -1.7053
 3389TIP3    H231727   5.281   2.777   7.395 -0.4296  1.1054 -1.1817
 3390TIP3   OH231728   6.592   6.012   0.463 -0.1450  0.1153  0.0353
 3390TIP3    H131729   6.661   5.981   0.521 -0.8062  0.7143  1.1708
 3390TIP3    H231730   6.607   6.107   0.457 -0.5081  0.1621 -0.1925
 3391TIP3   OH231731   4.072   0.314   1.493 -0.1679 -0.1689  0.2161
 3391TIP3    H131732   4.153   0.347   1.531  1.3463 -1.4787 -1.7043
 3391TIP3    H231733   4.004   0.373   1.527  1.4679  0.6021  2.3419
 3392TIP3   OH231734   2.374   1.328   7.406  0.0965 -0.1703 -0.1779
 3392TIP3    H131735   2.419   1.397   7.357  0.5392  0.7688  1.4725
 3392TIP3    H231736   2.282   1.337   7.380  0.5196 -0.8678 -2.1340
 3393TIP3   OH231737   1.829   1.503   8.055 -0.1815 -0.1290 -0.0374
 3393TIP3    H131738   1.870   1.417   8.048  2.2122  0.9273  0.3137
 3393TIP3    H231739   1.897   1.561   8.088 -1.5996  2.0186 -0.6261
 3394TIP3   OH231740   3.731   0.957   8.345  0.2492  0.4790  0.2785
 3394TIP3    H131741   3.650   0.926   8.305  0.7732 -0.1602 -0.3089
 3394TIP3    H231742   3.702   1.005   8.423 -0.6687 -0.1818  0.3636
 3395TIP3   OH231743   2.934   4.484   2.775  0.3937  0.4375  0.3813
 3395TIP3    H131744   3.028   4.501   2.770  0.3275  0.8699  0.4991
 3395TIP3    H231745   2.895   4.571   2.786 -0.1706  0.4830 -1.6636
 3396TIP3   OH231746   6.592   2.698   8.201 -0.5528  0.2838  0.7605
 3396TIP3    H131747   6.586   2.609   8.167 -0.3277  0.8820 -0.9262
 3396TIP3    H231748   6.527   2.747   8.151  0.1657  1.3088  0.8037
 3397TIP3   OH231749   1.777   5.294   1.603 -0.0573 -0.1086  0.6843
 3397TIP3    H131750   1.735   5.303   1.689 -1.1516 -1.4964  0.3454
 3397TIP3    H231751   1.837   5.220   1.614 -0.2078 -0.2954  0.2630
 3398TIP3   OH231752   2.755   2.042   0.445 -0.5150  0.0013  0.2317
 3398TIP3    H131753   2.664   2.027   0.470 -0.2120 -1.1311  0.7301
 3398TIP3    H231754   2.778   1.964   0.393  0.0803  0.4250 -0.1500
 3399TIP3   OH231755   0.801   4.504   8.617 -0.1493  0.3308 -0.1579
 3399TIP3    H131756   0.734   4.483   8.551 -1.0467  0.6486  0.6154
 3399TIP3    H231757   0.866   4.555   8.570  0.4804 -1.4839 -1.3393
 3400TIP3   OH231758   6.709   3.832   7.671 -0.4006  0.4461 -0.6151
 3400TIP3    H131759   6.679   3.901   7.612  0.3179  1.2994 -0.0191
 3400TIP3    H231760   6.648   3.835   7.745  0.3013  1.2604 -0.0421
 3401TIP3   OH231761   4.363   1.807   2.670 -0.3279 -0.1650 -0.7726
 3401TIP3    H131762   4.341   1.889   2.712  1.1561 -0.6747  1.1147
 3401TIP3    H231763   4.414   1.758   2.735 -0.0409 -2.0391 -2.2833
 3402TIP3   OH231764   4.714   4.593   7.684 -0.0011 -0.2007  0.0820
 3402TIP3    H131765   4.664   4.663   7.643 -0.2853 -0.0914  0.6046
 3402TIP3    H231766   4.783   4.637   7.733 -0.7483 -0.2235  1.1792
 3403TIP3   OH231767   0.419   4.520   2.354 -0.5970  0.1237  0.4744
 3403TIP3    H131768   0.493   4.527   2.414 -0.2277 -0.1529  0.0561
 3403TIP3    H231769   0.396   4.427   2.354  1.4903 -0.5281 -2.2513
 3404TIP3   OH231770   4.194   3.116   7.423  0.0439 -1.2155  0.1852
 3404TIP3    H131771   4.177   3.112   7.328 -1.3527 -2.1593  0.4455
 3404TIP3    H231772   4.122   3.067   7.462 -0.5070  0.7799  1.8807
 3405TIP3   OH231773   2.172   4.254   8.245  0.4471  0.6505 -0.8073
 3405TIP3    H131774   2.219   4.182   8.203 -0.9389 -1.1612  0.5562
 3405TIP3    H231775   2.082   4.222   8.254  0.2122  1.7257  1.6048
 3406TIP3   OH231776   3.199   3.824   8.565  0.0154  0.3147 -0.4624
 3406TIP3    H131777   3.188   3.895   8.627 -4.2741 -1.4441  1.1462
 3406TIP3    H231778   3.149   3.850   8.488 -0.7262 -0.5046 -0.2715
 3407TIP3   OH231779   3.892   6.200   8.461 -0.4182  0.1383  0.6481
 3407TIP3    H131780   3.859   6.250   8.535  0.2432  0.0750  0.9904
 3407TIP3    H231781   3.916   6.115   8.498 -1.5837 -0.4704  0.0668
 3408TIP3   OH231782   5.925   4.244   8.243 -0.8926  0.2782 -0.2288
 3408TIP3    H131783   5.998   4.205   8.195 -1.4765  1.3417 -2.0795
 3408TIP3    H231784   5.968   4.301   8.308 -0.0521  0.5962 -1.0383
 3409TIP3   OH231785   1.794   1.909   0.431  0.0135 -0.2354 -0.2945
 3409TIP3    H131786   1.802   1.815   0.442  0.9697 -0.1660 -0.3248
 3409TIP3    H231787   1.883   1.942   0.440 -0.1617  0.5554 -1.3160
 3410TIP3   OH231788   2.334   4.789   1.881 -0.1248 -0.1848 -0.4773
 3410TIP3    H131789   2.381   4.863   1.921  2.4365 -1.6680 -0.5397
 3410TIP3    H231790   2.329   4.724   1.951 -0.4073 -0.7853 -1.0472
 3411TIP3   OH231791   6.121   5.982   7.969  0.1950 -0.1246  0.4078
 3411TIP3    H131792   6.147   5.890   7.976 -1.4831 -0.8083 -1.3921
 3411TIP3    H231793   6.201   6.028   7.942  0.5673 -1.4515 -0.8805
 3412TIP3   OH231794   3.525   5.845   1.620 -0.5066 -0.0295  0.0841
 3412TIP3    H131795   3.549   5.769   1.674 -0.9632 -0.0813  0.2163
 3412TIP3    H231796   3.599   5.855   1.560  0.5893  0.7692  1.4916
 3413TIP3   OH231797   6.592   3.650   8.126  0.4646  0.0304 -0.1726
 3413TIP3    H131798   6.581   3.621   8.035  0.2778  0.9844 -0.4708
 3413TIP3    H231799   6.666   3.598   8.159  0.2194 -0.6760 -0.7081
 3414TIP3   OH231800   4.395   1.731   1.989 -0.0201  0.1597 -0.3146
 3414TIP3    H131801   4.377   1.794   2.058  1.5411  0.2726  0.0244
 3414TIP3    H231802   4.408   1.647   2.034  1.3791  0.3071 -0.3937
 3415TIP3   OH231803   6.120   0.529   7.625 -0.3062 -0.2238  0.0940
 3415TIP3    H131804   6.200   0.532   7.572 -1.9971  0.6635 -2.6342
 3415TIP3    H231805   6.110   0.619   7.656 -1.5504  0.3961 -1.8721
 3416TIP3   OH231806   4.227   4.273   3.058 -0.3937 -0.1101 -0.7554
 3416TIP3    H131807   4.242   4.368   3.064 -0.6457  0.0898 -2.5869
 3416TIP3    H231808   4.133   4.264   3.049 -0.2968 -0.4667 -1.4466
 3417TIP3   OH231809   6.548   2.084   0.645  0.2435  0.2140 -0.0082
 3417TIP3    H131810   6.468   2.065   0.596  0.3079  1.3706 -0.6073
 3417TIP3    H231811   6.518   2.109   0.732 -0.2261  2.4316 -0.7478
 3418TIP3   OH231812   6.349   5.067   7.072  0.2333 -0.4998  0.2766
 3418TIP3    H131813   6.383   5.060   7.161  1.2936 -0.0541 -0.0792
 3418TIP3    H231814   6.287   5.140   7.076  0.1075 -0.6290  0.6953
 3419TIP3   OH231815   1.937   1.949   8.404 -0.2553 -0.2076 -0.4546
 3419TIP3    H131816   1.963   1.939   8.495  0.5851  0.1360 -0.6462
 3419TIP3    H231817   1.877   1.877   8.388 -1.9411  0.8191  0.9028
 3420TIP3   OH231818   2.302   0.374   8.331  0.4799 -0.7856 -0.2749
 3420TIP3    H131819   2.221   0.423   8.346  1.0423  0.3455 -0.7896
 3420TIP3    H231820   2.303   0.357   8.237  1.5127  0.4872 -0.5226
 3421TIP3   OH231821   5.425   1.317   7.463  0.4396  0.5599  0.2485
 3421TIP3    H131822   5.360   1.386   7.478  0.4878  1.2914 -2.4251
 3421TIP3    H231823   5.383   1.237   7.496 -0.6025  1.4625  1.1859
 3422TIP3   OH231824   2.241   1.086   1.337 -0.2695 -0.6020  0.3249
 3422TIP3    H131825   2.223   1.180   1.343  0.5207 -0.2373 -1.9456
 3422TIP3    H231826   2.259   1.060   1.428 -0.6138  1.3925  1.0367
 3423TIP3   OH231827   5.837   2.294   0.761 -0.0100  0.3813 -0.9155
 3423TIP3    H131828   5.890   2.267   0.686  0.1594  1.9272 -1.3916
 3423TIP3    H231829   5.808   2.212   0.801  0.0145 -0.4893 -2.5826
 3424TIP3   OH231830   3.436   6.184   0.259 -0.2985  0.9882 -0.4527
 3424TIP3    H131831   3.429   6.218   0.171  1.8784 -0.1574 -1.1469
 3424TIP3    H231832   3.523   6.212   0.289 -0.8070  0.9507  1.1358
 3425TIP3   OH231833   1.552   0.254   0.815 -0.3113  0.2850  0.1939
 3425TIP3    H131834   1.544   0.171   0.862 -1.3992  0.3006  0.0627
 3425TIP3    H231835   1.462   0.282   0.799  0.0283  1.5806  0.3788
 3426TIP3   OH231836   0.337   0.409   2.872  0.4803  0.4985  0.4613
 3426TIP3    H131837   0.271   0.343   2.894  0.1402  0.2895 -1.0588
 3426TIP3    H231838   0.407   0.396   2.936 -0.4948  0.0480  1.4688
 3427TIP3   OH231839   1.942   0.704   1.725  0.1704  0.2226  0.5042
 3427TIP3    H131840   1.908   0.783   1.768  1.7653  1.4379 -0.3682
 3427TIP3    H231841   1.999   0.663   1.790  0.9169  0.9070  0.2957
 3428TIP3   OH231842   3.488   2.561   2.779 -0.0376  0.2279 -0.3269
 3428TIP3    H131843   3.468   2.556   2.686  1.3157 -1.6094 -0.5523
 3428TIP3    H231844   3.572   2.517   2.789  0.0939  0.8294  1.6991
 3429TIP3   OH231845   2.673   6.405   8.124  0.5785 -0.4570  0.5829
 3429TIP3    H131846   2.686   6.401   8.219  0.7359 -0.4394  0.5631
 3429TIP3    H231847   2.590   6.361   8.109  0.8002 -0.9066  0.6761
 3430TIP3   OH231848   6.335   1.833   8.101  0.5378 -0.3239  0.3496
 3430TIP3    H131849   6.293   1.918   8.113  2.0909  0.4514  0.5458
 3430TIP3    H231850   6.263   1.772   8.083 -0.4748  1.3119 -1.4295
 3431TIP3   OH231851   1.216   1.354   8.326  0.2224 -0.4000  0.3992
 3431TIP3    H131852   1.254   1.355   8.414  0.0477 -0.7724  0.4800
 3431TIP3    H231853   1.180   1.442   8.314  0.1415 -0.3874  0.7441
 3432TIP3   OH231854   1.450   6.249   7.976 -0.3859 -0.1921 -0.2607
 3432TIP3    H131855   1.361   6.220   7.997 -0.2372 -0.1424  0.4918
 3432TIP3    H231856   1.503   6.170   7.986  0.1577  0.4273  2.6628
 3433TIP3   OH231857   1.560   3.520   1.423  0.2070  0.2556  0.0033
 3433TIP3    H131858   1.519   3.585   1.479 -1.5727 -0.5379 -0.3053
 3433TIP3    H231859   1.650   3.549   1.414 -0.4194  2.4159  0.2366
 3434TIP3   OH231860   3.020   0.733   0.904 -0.1365  0.3164  0.0269
 3434TIP3    H131861   3.104   0.744   0.859  0.6130  0.1395  1.3377
 3434TIP3    H231862   3.029   0.652   0.954 -1.7926 -0.7280 -1.2493
 3435TIP3   OH231863   0.089   4.983   1.979  0.2617 -0.3099 -0.6358
 3435TIP3    H131864   0.063   5.007   2.067  1.7981  1.4008 -0.5949
 3435TIP3    H231865   0.007   4.978   1.930 -0.4998  0.0591  0.5648
 3436TIP3   OH231866   5.139   4.550   2.105 -0.1116  0.7961  0.5040
 3436TIP3    H131867   5.221   4.504   2.085 -0.8600  0.5767 -2.6733
 3436TIP3    H231868   5.141   4.627   2.048 -2.4181  0.3343 -0.3089
 3437TIP3   OH231869   3.548   0.728   8.029  0.6282 -0.4206  0.6368
 3437TIP3    H131870   3.513   0.771   8.107 -1.0073 -0.3236 -0.1094
 3437TIP3    H231871   3.553   0.635   8.053 -0.3198 -0.4598  0.7098
 3438TIP3   OH231872   3.374   5.775   0.632 -0.5587 -0.2769 -0.0230
 3438TIP3    H131873   3.389   5.868   0.615  0.7454 -0.1472  1.6293
 3438TIP3    H231874   3.371   5.736   0.545  2.4251  0.8146 -0.7557
 3439TIP3   OH231875   0.649   4.541   1.968  0.0514 -0.3299 -0.3199
 3439TIP3    H131876   0.673   4.449   1.960  1.5495  0.0869 -0.9530
 3439TIP3    H231877   0.684   4.568   2.053  1.3724  0.1236 -0.9791
 3440TIP3   OH231878   4.276   3.300   8.030 -0.0741  0.0648 -0.7447
 3440TIP3    H131879   4.326   3.376   7.999  0.5702  0.4125  1.0062
 3440TIP3    H231880   4.192   3.306   7.984 -0.1836  2.0806 -0.3570
 3441TIP3   OH231881   1.135   1.290   7.918  0.0438 -0.5447  0.2739
 3441TIP3    H131882   1.146   1.385   7.908 -1.4923 -0.2845  0.7824
 3441TIP3    H231883   1.221   1.254   7.899  0.7730  0.9910  0.5033
 3442TIP3   OH231884   2.493   6.837   3.069  0.3443  0.3414  0.2023
 3442TIP3    H131885   2.427   6.835   2.999  1.0299  0.8251 -0.4739
 3442TIP3    H231886   2.448   6.877   3.143 -0.4517 -0.3547  0.1036
 3443TIP3   OH231887   2.622   0.810   3.248  0.2805 -0.6364  0.1439
 3443TIP3    H131888   2.658   0.755   3.179 -0.3790 -0.8617 -0.0323
 3443TIP3    H231889   2.601   0.749   3.319  0.7643 -0.4337  0.4625
 3444TIP3   OH231890   3.066   4.273   1.760 -0.4018  0.5807  0.8248
 3444TIP3    H131891   3.051   4.178   1.759 -0.1804  0.5361 -0.6423
 3444TIP3    H231892   3.162   4.282   1.763 -0.4141  0.7652  0.6418
 3445TIP3   OH231893   4.306   0.724   2.723  0.2247 -0.1599  0.4434
 3445TIP3    H131894   4.300   0.636   2.760 -2.8771 -1.1742 -2.0586
 3445TIP3    H231895   4.380   0.720   2.662  0.0756 -1.0409  0.3166
 3446TIP3   OH231896   0.339   6.005   1.600  0.3182 -0.0224 -0.3255
 3446TIP3    H131897   0.298   5.929   1.560 -0.5265  0.3305 -0.1667
 3446TIP3    H231898   0.418   5.971   1.642  1.4059 -0.3446 -2.5275
 3447TIP3   OH231899   3.275   3.354   2.029 -0.1380 -0.3682  0.3938
 3447TIP3    H131900   3.364   3.376   2.002 -1.0285 -1.8776 -4.8601
 3447TIP3    H231901   3.220   3.422   1.991 -1.4785 -1.0902  0.9607
 3448TIP3   OH231902   4.699   2.166   2.454  0.1322  0.0183 -0.5749
 3448TIP3    H131903   4.650   2.153   2.535 -1.9182  1.1081 -1.5620
 3448TIP3    H231904   4.791   2.156   2.479 -0.5403 -2.5282  1.3031
 3449TIP3   OH231905   3.190   4.929   2.025 -0.5936 -0.3189 -0.1671
 3449TIP3    H131906   3.211   5.016   2.059 -1.7992 -0.2580  0.4789
 3449TIP3    H231907   3.273   4.881   2.028  0.3044  1.0556 -1.3748
 3450TIP3   OH231908   5.049   5.157   8.553 -0.2987  0.1011  0.2746
 3450TIP3    H131909   5.106   5.142   8.478  0.1003  0.4131  0.5132
 3450TIP3    H231910   5.053   5.077   8.604 -0.4318 -0.0451  0.0609
 3451TIP3   OH231911   2.924   3.378   1.964  0.1093  0.0513  0.0510
 3451TIP3    H131912   2.847   3.389   2.020  0.1770 -1.7067  0.5418
 3451TIP3    H231913   2.990   3.436   2.002  0.1202 -1.0303  1.7609
 3452TIP3   OH231914   5.351   5.425   1.500 -0.0670 -0.1243  0.3346
 3452TIP3    H131915   5.275   5.474   1.469 -0.5224 -0.2856  1.1643
 3452TIP3    H231916   5.315   5.358   1.559  0.6517 -0.6875  0.1516
 3453TIP3   OH231917   6.032   5.584   0.679  0.2581 -1.0612  0.0831
 3453TIP3    H131918   6.072   5.542   0.602  0.4718 -0.0682 -0.3615
 3453TIP3    H231919   6.011   5.511   0.737  1.0127 -1.7579 -0.4842
 3454TIP3   OH231920   0.130   2.859   2.306  0.1990  0.1221 -0.1548
 3454TIP3    H131921   0.050   2.823   2.344  1.8331 -2.6481  0.9394
 3454TIP3    H231922   0.177   2.896   2.380  0.9602 -0.3656 -0.3867
 3455TIP3   OH231923   4.663   3.284   0.070  0.3749  0.3319  0.2056
 3455TIP3    H131924   4.613   3.224   0.014 -1.0462 -0.4761  2.2022
 3455TIP3    H231925   4.613   3.366   0.068  0.9749  0.6866 -0.6091
 3456TIP3   OH231926   1.818   0.565   8.500  0.1023  0.0705 -0.3193
 3456TIP3    H131927   1.830   0.640   8.559  0.6603 -0.0229 -0.3090
 3456TIP3    H231928   1.742   0.589   8.447 -0.8871 -0.1758  0.9396
 3457TIP3   OH231929   6.257   1.469   0.372 -0.2917  0.1448 -0.2631
 3457TIP3    H131930   6.326   1.414   0.334 -1.0502 -0.1729 -1.2079
 3457TIP3    H231931   6.279   1.474   0.465  1.8451  1.2685 -0.7714
 3458TIP3   OH231932   5.514   4.908   1.906  0.6208 -0.1052 -0.3165
 3458TIP3    H131933   5.453   4.870   1.969  0.9957 -0.4108 -0.1341
 3458TIP3    H231934   5.556   4.980   1.954  3.2713 -2.2852  0.9578
 3459TIP3   OH231935   1.309   1.132   2.057  0.0006 -0.4023  0.5965
 3459TIP3    H131936   1.307   1.169   2.146 -0.1323 -3.0033  1.7614
 3459TIP3    H231937   1.397   1.096   2.049 -0.0246 -0.2639 -0.3129
 3460TIP3   OH231938   6.235   2.299   7.895 -0.4663 -0.0860  0.2742
 3460TIP3    H131939   6.302   2.232   7.886 -0.6599 -0.1788 -0.6027
 3460TIP3    H231940   6.170   2.261   7.954  1.0217  0.6479  2.5338
 3461TIP3   OH231941   2.835   5.378   1.763 -0.2489 -0.7023  0.9592
 3461TIP3    H131942   2.759   5.434   1.748  0.4885  0.1395  0.2513
 3461TIP3    H231943   2.843   5.374   1.859 -0.4026  0.2955  1.0282
 3462TIP3   OH231944   3.579   4.903   7.680 -0.7608  0.3256 -0.1280
 3462TIP3    H131945   3.598   4.945   7.596  0.2443 -0.6924 -0.4261
 3462TIP3    H231946   3.542   4.818   7.656  1.4860 -0.8800  0.3826
 3463TIP3   OH231947   5.793   4.199   2.303  0.0937 -0.0788  0.0494
 3463TIP3    H131948   5.709   4.205   2.349 -0.1016  0.8362 -0.3958
 3463TIP3    H231949   5.818   4.290   2.289  1.8471 -0.3069  1.3841
 3464TIP3   OH231950   6.574   1.126   8.226  0.3922 -0.4077 -0.6295
 3464TIP3    H131951   6.657   1.124   8.179  0.4757 -1.2248 -0.4592
 3464TIP3    H231952   6.580   1.203   8.282  2.1779 -1.9368  1.4231
 3465TIP3   OH231953   3.528   2.816   1.582 -0.9628 -0.4011  0.7996
 3465TIP3    H131954   3.542   2.793   1.490  0.0803 -1.4272  1.1892
 3465TIP3    H231955   3.548   2.909   1.587  0.9658 -0.7614  0.3397
 3466TIP3   OH231956   1.361   2.758   1.052 -0.7193  0.0250 -0.8762
 3466TIP3    H131957   1.444   2.774   1.007 -1.7642  0.5572 -2.7078
 3466TIP3    H231958   1.344   2.665   1.037 -1.7669  0.4761 -3.0012
 3467TIP3   OH231959   1.645   2.813   8.256  0.3345 -0.0171 -0.8519
 3467TIP3    H131960   1.733   2.846   8.276 -0.4713  1.1609  0.9728
 3467TIP3    H231961   1.608   2.878   8.197 -0.0600  0.6271  0.0892
 3468TIP3   OH231962   2.407   0.579   7.944 -0.7470 -0.8944 -0.2617
 3468TIP3    H131963   2.432   0.598   8.034 -1.8231  0.2295 -0.1649
 3468TIP3    H231964   2.439   0.655   7.894 -0.8968 -1.1034 -0.6768
 3469TIP3   OH231965   0.418   3.060   1.208  0.8043  0.3467  0.9716
 3469TIP3    H131966   0.410   3.028   1.298 -0.9308 -2.0533  0.0670
 3469TIP3    H231967   0.477   2.997   1.166  0.4680  0.6138  0.0898
 3470TIP3   OH231968   0.639   2.564   1.938  0.0663 -0.1253  0.3684
 3470TIP3    H131969   0.688   2.487   1.908 -1.8577 -0.6664 -1.6415
 3470TIP3    H231970   0.707   2.628   1.960  1.7344 -0.6876 -2.6373
 3471TIP3   OH231971   0.365   0.439   1.125  0.1205 -0.6970  0.9424
 3471TIP3    H131972   0.312   0.519   1.123 -3.8021 -3.0327 -0.0386
 3471TIP3    H231973   0.351   0.403   1.212  0.5029 -1.1116  0.8371
 3472TIP3   OH231974   4.401   5.583   1.714 -0.0204  0.1870 -0.3056
 3472TIP3    H131975   4.478   5.578   1.659  0.6403  1.8851  0.3760
 3472TIP3    H231976   4.427   5.641   1.786 -1.2624 -0.9007  1.0866
 3473TIP3   OH231977   0.979   4.850   8.316 -0.4758  0.2904  0.0139
 3473TIP3    H131978   0.903   4.851   8.374 -1.8535  0.9851 -1.7174
 3473TIP3    H231979   1.031   4.775   8.346 -2.1115 -0.5330  0.9148
 3474TIP3   OH231980   0.896   2.697   0.012 -0.6438 -0.3425  0.2836
 3474TIP3    H131981   0.844   2.754  -0.045 -0.0645 -0.2546 -0.1647
 3474TIP3    H231982   0.975   2.747   0.029 -0.7192 -0.4577  1.0026
 3475TIP3   OH231983   0.605   6.506   7.908  0.3598  0.2530  0.0084
 3475TIP3    H131984   0.617   6.411   7.908  0.3105  0.2303  1.5330
 3475TIP3    H231985   0.681   6.541   7.955 -0.0841  0.8936  0.2763
 3476TIP3   OH231986   1.213   3.165   8.415  0.1204 -0.2375  0.5370
 3476TIP3    H131987   1.143   3.146   8.353 -0.4412 -2.1271  1.6734
 3476TIP3    H231988   1.173   3.223   8.480 -0.3169 -1.0119  0.9775
 3477TIP3   OH231989   2.719   5.096   0.042 -0.0239  0.5842  0.5776
 3477TIP3    H131990   2.694   5.085  -0.049  0.3829  0.1309  0.5191
 3477TIP3    H231991   2.646   5.057   0.092  0.7917 -1.2788  0.3974
 3478TIP3   OH231992   6.201   1.037   0.337  0.4034 -0.1741  0.4124
 3478TIP3    H131993   6.161   0.960   0.378  2.1339 -0.3266  1.9671
 3478TIP3    H231994   6.237   1.005   0.255  0.4760 -0.8547  0.7059
 3479TIP3   OH231995   1.601   3.016   1.446 -0.5148  0.0918 -0.3524
 3479TIP3    H131996   1.558   2.958   1.384 -0.0439 -0.3360 -0.2833
 3479TIP3    H231997   1.529   3.061   1.491 -0.8776 -0.4289 -0.4086
 3480TIP3   OH231998   0.334   0.174   8.177 -0.1471  0.1152 -0.4322
 3480TIP3    H131999   0.407   0.226   8.210  0.0831 -0.2004 -0.4327
 3480TIP3    H232000   0.372   0.087   8.162 -0.3256  0.1697 -1.2292
 3481TIP3   OH232001   3.066   3.812   2.850 -0.2787 -0.4570 -0.2149
 3481TIP3    H132002   2.985   3.855   2.824 -0.8593 -1.4536 -0.0899
 3481TIP3    H232003   3.053   3.720   2.828  1.3911 -0.4258 -1.5973
 3482TIP3   OH232004   5.011   0.491   2.866  0.2321  0.0357 -0.6883
 3482TIP3    H132005   4.950   0.418   2.853  1.5488 -1.0891 -0.8187
 3482TIP3    H232006   5.097   0.452   2.853  1.0475  1.3388  0.5054
 3483TIP3   OH232007   5.766   3.001   6.954  0.3908 -0.1358  0.8027
 3483TIP3    H132008   5.716   3.079   6.932 -0.8616 -0.7487  1.3634
 3483TIP3    H232009   5.809   2.976   6.872  2.0907  1.9880  0.9751
 3484TIP3   OH232010   3.363   1.558   0.097  0.3235 -0.1706  0.8028
 3484TIP3    H132011   3.419   1.481   0.104  0.3117 -0.0740  2.4089
 3484TIP3    H232012   3.274   1.524   0.093  0.4095 -0.2833 -0.4511
 3485TIP3   OH232013   3.488   1.173   2.810 -0.5284  0.5630  0.1004
 3485TIP3    H132014   3.495   1.089   2.764  1.4936  0.4495  0.5168
 3485TIP3    H232015   3.484   1.149   2.903 -1.5233  0.8969  0.1556
 3486TIP3   OH232016   1.337   1.576   0.586  0.1886  0.1841  0.2831
 3486TIP3    H132017   1.419   1.625   0.599 -0.2370  0.6563  1.3696
 3486TIP3    H232018   1.270   1.644   0.582  0.0375 -0.0315 -2.9720
 3487TIP3   OH232019   3.533   2.490   1.029  0.2631  0.3933 -0.2463
 3487TIP3    H132020   3.463   2.425   1.039  0.5285 -0.0425 -1.1091
 3487TIP3    H232021   3.489   2.565   0.989  0.4233 -0.1690 -1.5181
 3488TIP3   OH232022   5.708   2.286   7.230 -0.3258 -0.5007 -0.6416
 3488TIP3    H132023   5.762   2.348   7.182  0.1767 -1.2409 -1.0533
 3488TIP3    H232024   5.764   2.209   7.241 -0.4964 -0.4351  0.9496
 3489TIP3   OH232025   0.812   5.908   2.425 -0.0009  0.0768  0.2772
 3489TIP3    H132026   0.845   5.861   2.501  1.2081  0.8229  0.2446
 3489TIP3    H232027   0.717   5.911   2.437  0.2099  0.6749  2.0615
 3490TIP3   OH232028   6.633   4.774   8.082  0.3199  0.0709 -0.5725
 3490TIP3    H132029   6.547   4.767   8.123 -0.1967 -1.0155 -1.7619
 3490TIP3    H232030   6.624   4.844   8.017  0.3110 -0.0710 -0.7266
 3491TIP3   OH232031   4.116   0.143   8.267  0.1410 -0.1371 -0.0279
 3491TIP3    H132032   4.022   0.151   8.283 -0.0056 -1.0533 -0.4080
 3491TIP3    H232033   4.125   0.147   8.172  0.3804 -1.0224 -0.0522
 3492TIP3   OH232034   2.987   1.668   1.836  0.5179 -0.3743  0.2771
 3492TIP3    H132035   3.040   1.741   1.866  0.3149 -0.2559  0.3485
 3492TIP3    H232036   2.935   1.704   1.764  0.4621 -0.4647  0.2722
 3493TIP3   OH232037   0.536   2.279   0.677 -0.4092  0.3923 -0.0217
 3493TIP3    H132038   0.524   2.299   0.584 -0.0459 -1.7533 -0.5917
 3493TIP3    H232039   0.449   2.256   0.708 -0.8751  2.8298  0.6982
 3494TIP3   OH232040   4.403   3.532   1.881 -0.3006  0.2390 -0.6938
 3494TIP3    H132041   4.370   3.612   1.920 -0.7637 -0.5293  0.5438
 3494TIP3    H232042   4.401   3.549   1.786 -3.4100  0.6081 -0.6861
 3495TIP3   OH232043   6.064   3.404   1.643  0.4830  0.4266  0.7340
 3495TIP3    H132044   6.056   3.496   1.617  1.5150  0.1824 -0.5822
 3495TIP3    H232045   6.135   3.370   1.589 -0.0387 -1.2213  1.0205
 3496TIP3   OH232046   0.850   2.309   1.962  0.2255  0.5427 -0.5001
 3496TIP3    H132047   0.828   2.260   2.041  2.4659  0.6910  0.3072
 3496TIP3    H232048   0.777   2.294   1.903 -2.2182  1.5055  2.0379
 3497TIP3   OH232049   4.283   0.496   2.874  0.4508 -0.3469  0.2758
 3497TIP3    H132050   4.190   0.477   2.864  0.8076 -3.2793  1.5714
 3497TIP3    H232051   4.291   0.525   2.965  0.8548 -0.2464  0.2085
 3498TIP3   OH232052   3.526   5.713   2.027  0.2417  0.0075  0.0782
 3498TIP3    H132053   3.466   5.741   2.096 -0.1275  1.1904 -0.6883
 3498TIP3    H232054   3.514   5.618   2.022  0.3324 -0.1113  1.6712
 3499TIP3   OH232055   5.464   4.959   2.980  0.2268  0.1980 -0.2975
 3499TIP3    H132056   5.451   4.900   2.906 -0.0775 -0.7181  0.4670
 3499TIP3    H232057   5.541   4.926   3.025 -0.2738  0.0220  0.4571
 3500TIP3   OH232058   1.790   3.653   8.265 -0.0006 -0.4164 -0.0898
 3500TIP3    H132059   1.700   3.674   8.290  0.4167  1.8597 -0.2747
 3500TIP3    H232060   1.836   3.641   8.347 -0.0754  0.3544  0.0723
 3501TIP3   OH232061   2.444   2.488   7.242 -0.3613 -0.2261 -0.4623
 3501TIP3    H132062   2.465   2.508   7.333  0.3381 -1.0997 -0.4217
 3501TIP3    H232063   2.501   2.415   7.219 -0.1850  0.2869 -1.7574
 3502TIP3   OH232064   5.826   5.722   0.563  0.1120 -0.2184 -1.0466
 3502TIP3    H132065   5.756   5.659   0.578 -0.0317 -0.2079 -1.6300
 3502TIP3    H232066   5.905   5.679   0.598 -0.1647 -0.2734 -0.4873
 3503TIP3   OH232067   6.696   3.217   8.231 -0.1410 -0.5028 -0.6530
 3503TIP3    H132068   6.712   3.248   8.320 -1.0010  1.3891 -1.0861
 3503TIP3    H232069   6.627   3.151   8.241 -2.1144  1.4865 -0.0443
 3504TIP3   OH232070   0.248   0.414   8.455 -0.5293  0.1702  0.1102
 3504TIP3    H132071   0.281   0.425   8.544  1.4788  1.1114 -0.7007
 3504TIP3    H232072   0.293   0.481   8.404 -1.0551 -0.8405 -1.7669
 3505TIP3   OH232073   6.439   3.692   2.594 -0.2134 -0.1328  0.1879
 3505TIP3    H132074   6.364   3.750   2.597  0.2491  0.5764 -1.3341
 3505TIP3    H232075   6.444   3.662   2.504  1.0051 -0.5881  0.3783
 3506TIP3   OH232076   0.935   2.460   0.180  0.8511 -0.3282 -0.4523
 3506TIP3    H132077   0.882   2.418   0.248  0.5918  1.1667  0.3242
 3506TIP3    H232078   0.888   2.541   0.160  1.6593 -0.0763 -1.4207
 3507TIP3   OH232079   5.284   0.534   1.158  0.1126  0.0330 -0.2250
 3507TIP3    H132080   5.203   0.572   1.193 -0.0386  0.5683 -1.1276
 3507TIP3    H232081   5.353   0.592   1.189  0.0162  0.3170 -0.5489
 3508TIP3   OH232082   5.978   5.384   0.840  0.3069  0.1537 -0.1142
 3508TIP3    H132083   6.056   5.329   0.851  0.5829  0.7147  0.8637
 3508TIP3    H232084   5.909   5.323   0.816  0.9172 -0.4348 -0.4086
 3509TIP3   OH232085   2.494   3.273   1.566 -0.3940 -0.5783  0.5703
 3509TIP3    H132086   2.435   3.346   1.549 -0.7050 -1.1340 -0.9230
 3509TIP3    H232087   2.473   3.209   1.498  0.8302 -1.4772  0.9967
 3510TIP3   OH232088   3.464   1.917   8.106  0.0289  0.1687  0.1098
 3510TIP3    H132089   3.445   1.832   8.068 -0.8024  0.2533  0.3294
 3510TIP3    H232090   3.380   1.963   8.107  0.6108  1.2880 -0.7398
 3511TIP3   OH232091   6.337   0.201   0.107 -0.0084 -0.4058  0.3023
 3511TIP3    H132092   6.403   0.185   0.039  0.8109 -0.3283  1.0642
 3511TIP3    H232093   6.280   0.268   0.069  1.7283  1.2870  0.4977
 3512TIP3   OH232094   4.242   6.724   8.468 -0.1954 -0.2055  0.0510
 3512TIP3    H132095   4.307   6.790   8.445 -0.4420 -0.1369 -0.4707
 3512TIP3    H232096   4.204   6.698   8.385 -0.1203 -0.9948  0.2558
 3513TIP3   OH232097   2.196   2.489   2.516 -0.2202  0.2779 -0.1050
 3513TIP3    H132098   2.259   2.506   2.446  0.6233 -1.7404  0.0950
 3513TIP3    H232099   2.207   2.564   2.576  1.3145  0.4640 -0.5625
 3514TIP3   OH232100   5.609   2.394   1.990 -0.3928  0.1079 -0.0571
 3514TIP3    H132101   5.665   2.451   1.937 -0.6077 -1.0091 -1.5586
 3514TIP3    H232102   5.520   2.422   1.970 -0.5312 -1.0409 -1.2541
 3515TIP3   OH232103   1.418   2.868   7.190 -0.6071 -0.1632 -0.1154
 3515TIP3    H132104   1.324   2.871   7.173 -0.7609  1.8991  0.8886
 3515TIP3    H232105   1.456   2.843   7.105 -1.8962  1.6535 -1.3075
 3516TIP3   OH232106   0.654   4.871   1.138 -0.0768 -0.2002 -0.8161
 3516TIP3    H132107   0.727   4.820   1.174 -0.1647  0.2766  0.0416
 3516TIP3    H232108   0.603   4.807   1.088  0.1733 -0.8164 -0.2934
 3517TIP3   OH232109   5.551   1.139   6.647 -0.3836  0.0776 -0.1686
 3517TIP3    H132110   5.516   1.120   6.734 -0.2278  2.7170  0.5671
 3517TIP3    H232111   5.637   1.097   6.646 -1.8747 -3.2938 -0.6064
 3518TIP3   OH232112   6.755   2.751   1.635 -0.0550  0.1387  0.0349
 3518TIP3    H132113   6.812   2.819   1.670 -2.1781  0.6834  2.8380
 3518TIP3    H232114   6.770   2.675   1.692 -0.1052 -0.6424 -0.9601
 3519TIP3   OH232115   3.516   0.455   7.950 -0.3299  0.1570 -0.0864
 3519TIP3    H132116   3.488   0.407   7.872 -4.3530  2.1615 -0.0863
 3519TIP3    H232117   3.484   0.402   8.023 -1.5007  0.9303 -0.0081
 3520TIP3   OH232118   4.790   3.782   8.108  0.2479 -0.3994  0.3768
 3520TIP3    H132119   4.867   3.832   8.083  0.0022 -1.0455 -1.8794
 3520TIP3    H232120   4.807   3.694   8.075 -1.5616 -0.4826 -0.4456
 3521TIP3   OH232121   0.765   2.256   8.682  0.0144 -0.0567  0.2307
 3521TIP3    H132122   0.752   2.172   8.726 -0.9238 -0.7233 -1.2427
 3521TIP3    H232123   0.859   2.258   8.660 -0.0146 -0.8688  0.0098
 3522TIP3   OH232124   2.308   6.469   7.622 -0.4723  0.1667  0.4674
 3522TIP3    H132125   2.350   6.412   7.558 -0.7353 -1.2807  1.5258
 3522TIP3    H232126   2.341   6.557   7.602  0.0577 -0.3666 -1.1159
 3523TIP3   OH232127   3.525   2.549   0.400  0.4515 -0.6968 -0.0178
 3523TIP3    H132128   3.531   2.551   0.495 -2.0445  1.3629  0.1931
 3523TIP3    H232129   3.473   2.471   0.380 -2.0169  0.7097  0.6271
 3524TIP3   OH232130   4.916   0.658   1.932  0.1767  0.2775 -0.1489
 3524TIP3    H132131   4.977   0.689   1.999 -0.3660 -0.4766  0.7252
 3524TIP3    H232132   4.959   0.582   1.894 -0.0691 -0.0796  0.2672
 3525TIP3   OH232133   1.595   5.027   0.171  0.0147  0.2491  0.0394
 3525TIP3    H132134   1.534   5.078   0.225 -0.7226 -0.8835  0.3176
 3525TIP3    H232135   1.662   4.996   0.232 -1.5695 -2.2048  0.6887
 3526TIP3   OH232136   5.433   2.829   1.619  0.6354 -0.2587 -0.1596
 3526TIP3    H132137   5.508   2.810   1.562  2.3910  1.5142  1.3985
 3526TIP3    H232138   5.390   2.904   1.577 -0.8430 -1.7594 -1.4769
 3527TIP3   OH232139   2.831   1.778   0.304 -0.3802 -0.0065 -0.0697
 3527TIP3    H132140   2.738   1.791   0.283 -0.3684 -0.3286 -0.3207
 3527TIP3    H232141   2.875   1.777   0.219  0.1541  2.3379  0.0995
 3528TIP3   OH232142   3.314   5.170   2.903  1.0572 -0.7815 -0.0155
 3528TIP3    H132143   3.408   5.152   2.899  1.2448  0.4330 -2.3831
 3528TIP3    H232144   3.278   5.127   2.825 -0.5318 -1.9339  1.2830
 3529TIP3   OH232145   6.418   6.252   2.141  0.4564  0.2092 -0.5316
 3529TIP3    H132146   6.499   6.294   2.112  1.1014 -1.6623 -1.6529
 3529TIP3    H232147   6.447   6.179   2.195 -0.4852 -0.3789 -0.8010
 3530TIP3   OH232148   5.054   3.891   0.035  0.3847  0.4823  0.1735
 3530TIP3    H132149   5.051   3.934  -0.050 -0.9523 -0.2148 -0.1526
 3530TIP3    H232150   4.965   3.861   0.051  0.1606  2.2050  2.6786
 3531TIP3   OH232151   6.036   5.258   2.439  0.2400  0.3670  0.3471
 3531TIP3    H132152   5.946   5.275   2.469  0.3503  1.5188  0.0429
 3531TIP3    H232153   6.091   5.279   2.514  0.4000  1.7460 -0.1316
 3532TIP3   OH232154   2.632   5.214   0.440  0.3478 -0.0919 -0.9918
 3532TIP3    H132155   2.553   5.223   0.387  0.2557  0.5118 -0.7659
 3532TIP3    H232156   2.665   5.127   0.420  0.0613 -0.0472 -1.6946
 3533TIP3   OH232157   1.824   4.478   8.512  0.0028  0.0460  0.1252
 3533TIP3    H132158   1.811   4.460   8.419 -1.0626  0.6522  0.1393
 3533TIP3    H232159   1.838   4.392   8.551 -1.1402 -0.3909 -0.3668
 3534TIP3   OH232160   5.746   5.346   8.617  0.2915  0.0778 -0.2142
 3534TIP3    H132161   5.809   5.345   8.688  1.9329 -0.3289 -1.6017
 3534TIP3    H232162   5.747   5.436   8.585  0.1972  0.0625 -0.2601
 3535TIP3   OH232163   4.192   2.209   1.465  0.2294 -0.6582  0.2993
 3535TIP3    H132164   4.166   2.294   1.501 -0.6123  0.1622 -2.0787
 3535TIP3    H232165   4.225   2.160   1.541 -0.7417  1.1976  2.0073
 3536TIP3   OH232166   3.920   0.231   7.755 -0.0131  0.4032  0.2343
 3536TIP3    H132167   3.945   0.163   7.693 -1.2627 -1.4232  1.6475
 3536TIP3    H232168   3.844   0.273   7.715 -0.5019 -0.4285  0.2604
 3537TIP3   OH232169   6.670   4.437   1.059  0.1896  0.3812  0.1975
 3537TIP3    H132170   6.608   4.409   1.126 -0.8319 -1.1319 -1.2856
 3537TIP3    H232171   6.701   4.355   1.019  0.3754  1.2251 -1.4884
 3538TIP3   OH232172   5.573   0.482   7.627 -1.0107 -0.0782 -0.3430
 3538TIP3    H132173   5.573   0.530   7.544 -0.2852 -0.8680 -0.8219
 3538TIP3    H232174   5.665   0.462   7.643 -0.7385  2.5888  2.1983
 3539TIP3   OH232175   4.349   4.093   1.132 -0.0319 -0.4534 -0.0538
 3539TIP3    H132176   4.421   4.080   1.070  0.9027 -0.8963  1.0908
 3539TIP3    H232177   4.341   4.010   1.178 -0.8459 -0.1967  0.2987
 3540TIP3   OH232178   0.208   0.879   7.585  0.4007  0.2395 -0.1483
 3540TIP3    H132179   0.301   0.879   7.607 -0.2804  0.2839  3.2257
 3540TIP3    H232180   0.202   0.935   7.507  3.2677 -0.5671 -1.0569
 3541TIP3   OH232181   4.284   2.183   2.007  0.3816 -0.6544  0.2652
 3541TIP3    H132182   4.364   2.234   2.021 -0.5161  0.9502 -0.3086
 3541TIP3    H232183   4.232   2.198   2.086 -0.1038 -0.2538 -0.1266
 3542TIP3   OH232184   3.227   1.277   7.762 -0.3163  0.7254 -0.0920
 3542TIP3    H132185   3.271   1.193   7.749 -0.0821  1.0141 -1.2287
 3542TIP3    H232186   3.212   1.310   7.674 -1.7653  1.1809  0.2976
 3543TIP3   OH232187   5.018   3.631   1.083 -0.5473  1.2623  0.3449
 3543TIP3    H132188   5.021   3.535   1.086  1.0267  1.1930 -1.1634
 3543TIP3    H232189   5.044   3.659   1.170 -2.0672  0.3453  1.1285
 3544TIP3   OH232190   3.872   3.771   8.320  0.9559  0.0030  0.6766
 3544TIP3    H132191   3.866   3.775   8.225 -1.2508 -1.0401  0.7044
 3544TIP3    H232192   3.784   3.747   8.348  1.6588 -0.1166  2.9712
 3545TIP3   OH232193   4.895   5.059   1.705 -0.1913 -0.2148 -0.6949
 3545TIP3    H132194   4.895   4.964   1.707 -2.7736 -0.2804  0.2027
 3545TIP3    H232195   4.900   5.085   1.797 -1.5952  0.4257 -0.7758
 3546TIP3   OH232196   0.987   0.422   0.611  0.0370  0.5028 -0.2778
 3546TIP3    H132197   0.999   0.449   0.702  0.0058  0.6651 -0.3218
 3546TIP3    H232198   0.997   0.326   0.613  0.8891  0.5858 -0.2394
 3547TIP3   OH232199   0.526   5.721   2.106 -0.1379 -0.0906 -0.4146
 3547TIP3    H132200   0.456   5.781   2.079  1.0483  1.2435 -0.6872
 3547TIP3    H232201   0.528   5.654   2.038 -0.8465  0.1102 -0.6404
 3548TIP3   OH232202   1.719   2.810   2.153 -0.4703  0.0848 -0.6537
 3548TIP3    H132203   1.770   2.849   2.225 -1.1822  2.2103 -1.2301
 3548TIP3    H232204   1.722   2.876   2.083 -1.8435 -0.8633 -1.6495
 3549TIP3   OH232205   6.692   4.336   8.037  0.1378  0.2057 -0.1444
 3549TIP3    H132206   6.737   4.419   8.023 -0.3109  0.0458 -3.3807
 3549TIP3    H232207   6.613   4.341   7.983  0.0079 -2.2060 -0.3285
 3550TIP3   OH232208   2.743   3.985   0.741 -0.7064  0.0378 -0.8809
 3550TIP3    H132209   2.700   3.925   0.679 -1.8020  0.1985 -0.3028
 3550TIP3    H232210   2.798   4.041   0.685 -0.4604 -0.8275 -1.5327
 3551TIP3   OH232211   5.453   2.945   0.991 -0.1255 -0.3825 -0.3569
 3551TIP3    H132212   5.481   3.018   1.047 -1.6311  1.0871 -1.4253
 3551TIP3    H232213   5.503   2.957   0.910  0.4703 -1.2469 -0.1304
 3552TIP3   OH232214   1.779   6.721   7.379  0.0780  0.0417  0.0473
 3552TIP3    H132215   1.840   6.700   7.450 -0.9179  2.1219  1.6203
 3552TIP3    H232216   1.831   6.773   7.318  0.8700 -1.5329 -0.6756
 3553TIP3   OH232217   4.125   2.005   0.465  0.2607  0.2581 -0.2084
 3553TIP3    H132218   4.177   1.978   0.540  0.1980 -0.6906 -0.4904
 3553TIP3    H232219   4.034   1.992   0.493  0.2111  0.7611 -0.1351
 3554TIP3   OH232220   1.051   1.262   0.126 -0.6969 -0.5157  0.2491
 3554TIP3    H132221   0.966   1.219   0.119 -0.0460 -1.9357  0.4957
 3554TIP3    H232222   1.080   1.242   0.216  0.2080 -0.7263 -0.0741
 3555TIP3   OH232223   3.249   0.626   1.928 -0.2814  0.1466 -0.4313
 3555TIP3    H132224   3.239   0.660   1.839 -0.8391 -2.9620 -1.7039
 3555TIP3    H232225   3.246   0.703   1.984 -1.3300  2.1160 -2.9995
 3556TIP3   OH232226   5.204   5.525   8.670 -0.6187  0.2932 -0.0577
 3556TIP3    H132227   5.201   5.599   8.610  1.4377 -0.0817 -0.6852
 3556TIP3    H232228   5.292   5.528   8.708 -0.1028 -2.3324 -0.8144
 3557TIP3   OH232229   1.319   6.816   0.549  0.0057  0.2625  0.0857
 3557TIP3    H132230   1.387   6.779   0.604  1.6415  0.5055 -1.6747
 3557TIP3    H232231   1.290   6.895   0.595 -0.4721 -0.8378  1.7617
 3558TIP3   OH232232   2.046   1.188   1.797  0.2059  0.5047 -0.8865
 3558TIP3    H132233   2.094   1.153   1.721 -1.0724 -0.0879 -1.4499
 3558TIP3    H232234   1.964   1.221   1.760  0.7050  2.7245 -0.1319
 3559TIP3   OH232235   3.224   1.532   2.169  0.2267 -0.1618 -0.6692
 3559TIP3    H132236   3.159   1.521   2.238 -1.9050  0.6079 -2.4313
 3559TIP3    H232237   3.298   1.574   2.213 -1.7537  2.0386  0.8522
 3560TIP3   OH232238   5.929   3.219   6.823 -0.4418 -0.4232 -0.1008
 3560TIP3    H132239   5.969   3.251   6.742  1.6993  2.3338  1.8434
 3560TIP3    H232240   5.835   3.228   6.808 -0.0882  0.9656 -1.9563
 3561TIP3   OH232241   5.068   5.692   0.727 -0.1568 -0.0458  0.7392
 3561TIP3    H132242   5.081   5.649   0.642  2.0740  2.5502 -0.3918
 3561TIP3    H232243   5.139   5.660   0.781 -0.7636 -0.6449  1.1973
 3562TIP3   OH232244   0.743   2.425   7.582  0.4041  0.0919 -0.0532
 3562TIP3    H132245   0.762   2.473   7.502  0.5443 -0.0717 -0.1197
 3562TIP3    H232246   0.682   2.481   7.630  0.0148  0.0171 -0.4503
 3563TIP3   OH232247   4.335   6.726   2.264 -0.1207  0.5363  0.0758
 3563TIP3    H132248   4.366   6.790   2.327  0.0618  0.1708  0.3586
 3563TIP3    H232249   4.386   6.743   2.185 -0.9127  1.5235 -0.2456
 3564TIP3   OH232250   4.830   4.567   1.754  0.4484  0.0316  0.5568
 3564TIP3    H132251   4.824   4.472   1.762 -1.6658 -0.0401 -0.9661
 3564TIP3    H232252   4.892   4.583   1.683 -1.2653 -0.3961 -1.1268
 3565TIP3   OH232253   6.536   1.290   0.091 -0.1170  0.3193 -0.0472
 3565TIP3    H132254   6.579   1.324   0.170  1.4623 -1.4800 -0.0524
 3565TIP3    H232255   6.580   1.334   0.019  1.4273 -1.0952 -0.0288
 3566TIP3   OH232256   6.261   6.689   0.036  0.2138  0.4211 -0.2747
 3566TIP3    H132257   6.347   6.723   0.012  1.4064 -1.9482  0.3399
 3566TIP3    H232258   6.237   6.630  -0.036 -0.0463 -0.3071  0.3941
 3567TIP3   OH232259   4.738   2.426   1.913  0.1391 -0.4415  0.3214
 3567TIP3    H132260   4.740   2.504   1.857 -2.4735  0.2326  1.0505
 3567TIP3    H232261   4.742   2.460   2.002  1.2130 -1.3325  0.6462
 3568TIP3   OH232262   1.428   4.737   1.527 -0.1302  0.2481 -0.1480
 3568TIP3    H132263   1.481   4.769   1.600 -0.8115 -0.3761  0.6419
 3568TIP3    H232264   1.357   4.801   1.519  0.6130  0.9841 -1.0854
 3569TIP3   OH232265   3.722   1.801   7.308 -0.1914 -0.1071 -0.1434
 3569TIP3    H132266   3.816   1.787   7.295 -0.2664 -0.8426  0.0994
 3569TIP3    H232267   3.710   1.895   7.293  1.1885  0.7544  3.2573
 3570TIP3   OH232268   5.699   1.688   0.911 -0.2387 -0.2972 -0.4253
 3570TIP3    H132269   5.687   1.600   0.946  0.6108  0.3027  1.5022
 3570TIP3    H232270   5.634   1.741   0.956  1.1534  0.5763  0.6538
 3571TIP3   OH232271   0.241   6.644   1.327  0.1589  0.3506 -0.3550
 3571TIP3    H132272   0.325   6.601   1.345  1.3663  2.5247 -0.3951
 3571TIP3    H232273   0.180   6.605   1.390  1.5629 -0.2806  0.6765
 3572TIP3   OH232274   0.673   0.664   8.351 -0.2168 -0.1720 -0.2060
 3572TIP3    H132275   0.745   0.615   8.390  0.6116 -0.2894 -1.8013
 3572TIP3    H232276   0.708   0.753   8.342 -1.1807  0.4017  1.2793
 3573TIP3   OH232277   1.609   5.480   0.257  0.3032 -0.1527 -0.1339
 3573TIP3    H132278   1.564   5.500   0.339 -0.1812 -2.3696  0.2231
 3573TIP3    H232279   1.626   5.565   0.217 -2.2331  0.8790  0.7677
 3574TIP3   OH232280   4.975   5.576   2.092 -0.2535  0.5409  0.6449
 3574TIP3    H132281   5.039   5.638   2.126  1.5977 -0.8780 -0.0467
 3574TIP3    H232282   5.024   5.494   2.083 -2.1801 -0.6062  0.0471
 3575TIP3   OH232283   5.057   4.055   1.162 -0.6744 -0.5571 -0.4354
 3575TIP3    H132284   5.113   3.992   1.117 -0.7046 -1.0557  0.2038
 3575TIP3    H232285   4.971   4.013   1.164 -1.4633  0.7769 -2.6268
 3576TIP3   OH232286   5.982   4.694   7.551  0.8128  0.0242  0.2818
 3576TIP3    H132287   6.031   4.769   7.518  0.6376 -1.3273 -3.6178
 3576TIP3    H232288   5.897   4.699   7.507  0.8619 -2.4766 -0.2495
 3577TIP3   OH232289   2.719   5.108   0.720  0.1048  0.3037 -0.3743
 3577TIP3    H132290   2.800   5.057   0.724 -0.0148  0.1701  0.3602
 3577TIP3    H232291   2.747   5.194   0.688  0.5106  0.2129 -0.2692
 3578TIP3   OH232292   1.655   2.048   0.232 -0.3928 -0.0675  0.0279
 3578TIP3    H132293   1.584   2.095   0.275 -1.9677 -0.3114 -2.1326
 3578TIP3    H232294   1.683   1.982   0.297 -1.7164  0.4220  1.1484
 3579TIP3   OH232295   3.655   6.594   8.148  0.4606  0.1151  0.2582
 3579TIP3    H132296   3.595   6.634   8.211  0.3600  1.3591 -0.6076
 3579TIP3    H232297   3.615   6.509   8.128 -0.5897  0.5903  0.2948
 3580TIP3   OH232298   4.425   0.590   0.126  0.2015  0.4683  0.3821
 3580TIP3    H132299   4.389   0.671   0.162 -0.0540  0.2548  0.6045
 3580TIP3    H232300   4.391   0.587   0.037 -1.9066 -0.6742  1.1489
 3581TIP3   OH232301   1.807   4.956   8.695  0.0146  0.8150 -0.4918
 3581TIP3    H132302   1.885   4.924   8.740  1.4827  2.1705 -1.9803
 3581TIP3    H232303   1.734   4.926   8.750  1.5514 -0.5383  0.9006
 3582TIP3   OH232304   0.843   6.272   0.225 -0.1257 -0.5694  0.1253
 3582TIP3    H132305   0.923   6.262   0.276  0.1907 -1.8846 -0.5827
 3582TIP3    H232306   0.873   6.305   0.140 -0.4695  0.0415  0.2334
 3583TIP3   OH232307   4.710   1.372   7.891 -0.1587 -0.5048 -0.1087
 3583TIP3    H132308   4.768   1.363   7.815 -0.3294 -1.7289 -0.1139
 3583TIP3    H232309   4.651   1.444   7.868  2.0765  1.5964  0.3971
 3584TIP3   OH232310   5.490   4.442   0.891 -0.0199  0.2087 -0.0950
 3584TIP3    H132311   5.406   4.412   0.925 -0.6814  1.7092 -0.2954
 3584TIP3    H232312   5.467   4.494   0.814  1.2481 -0.9024 -1.2810
 3585TIP3   OH232313   2.630   0.270   8.224 -0.0061  0.2725  0.7142
 3585TIP3    H132314   2.571   0.296   8.153 -0.3361 -1.6422  0.2521
 3585TIP3    H232315   2.582   0.203   8.272  1.1204 -0.1030  1.3603
 3586TIP3   OH232316   1.336   6.417   0.842  0.7754  0.3036 -0.0832
 3586TIP3    H132317   1.396   6.404   0.916  0.0102 -1.0856  0.3363
 3586TIP3    H232318   1.374   6.366   0.771 -0.4327 -1.5619  0.5252
 3587TIP3   OH232319   5.744   2.203   0.281  0.6835 -0.1615  0.3020
 3587TIP3    H132320   5.763   2.112   0.256  1.1234 -0.1858  0.7126
 3587TIP3    H232321   5.830   2.246   0.279  0.2073  0.8895 -2.3904
 3588TIP3   OH232322   0.101   0.239   0.471  0.1358  0.3459 -0.0819
 3588TIP3    H132323   0.138   0.249   0.383 -1.5302  2.3159 -0.6359
 3588TIP3    H232324   0.131   0.316   0.518  2.8465 -1.7137  1.9213
 3589TIP3   OH232325   2.650   0.626   0.245  0.0863 -0.0675  0.2803
 3589TIP3    H132326   2.633   0.642   0.338 -0.3057 -0.5072  0.2896
 3589TIP3    H232327   2.628   0.708   0.203 -1.7620 -0.4868  0.3454
 3590TIP3   OH232328   2.778   3.178   0.249 -0.4427  0.0460 -0.0265
 3590TIP3    H132329   2.752   3.270   0.246  0.2686  0.3646  2.1753
 3590TIP3    H232330   2.705   3.131   0.208 -2.3229  1.3272  1.7045
 3591TIP3   OH232331   1.380   1.531   7.070 -0.5788 -0.5689  0.2098
 3591TIP3    H132332   1.408   1.615   7.107  0.7485 -1.1090  0.5229
 3591TIP3    H232333   1.448   1.470   7.098 -0.3063 -1.3040 -1.9066
 3592TIP3   OH232334   0.525   5.306   0.479  0.1266 -0.1369 -0.1598
 3592TIP3    H132335   0.593   5.301   0.546  1.8885  1.3883 -1.6865
 3592TIP3    H232336   0.475   5.384   0.502  0.9818  0.6186 -0.7747
 3593TIP3   OH232337   1.452   1.084   1.064  0.1643  0.5768 -0.3955
 3593TIP3    H132338   1.419   1.035   1.139 -0.1236 -0.0571 -0.9311
 3593TIP3    H232339   1.423   1.035   0.987 -0.7741  1.9808 -0.9812
 3594TIP3   OH232340   1.382   6.491   1.711  0.2701  0.0418  0.4654
 3594TIP3    H132341   1.364   6.470   1.619  0.1275  3.1271 -0.3280
 3594TIP3    H232342   1.469   6.454   1.728 -0.5662 -2.4071 -0.1727
 3595TIP3   OH232343   2.948   1.274   0.285  0.0645  0.5620  0.0555
 3595TIP3    H132344   2.941   1.294   0.192 -1.9544 -2.4730 -0.6078
 3595TIP3    H232345   3.035   1.304   0.310  0.4957  1.8733 -2.6685
 3596TIP3   OH232346   5.902   6.670   1.921  0.5938 -0.0496  1.2000
 3596TIP3    H132347   5.946   6.604   1.976 -2.3346 -3.1598  0.1703
 3596TIP3    H232348   5.810   6.663   1.944 -0.1284  2.1043 -0.6574
 3597TIP3   OH232349   3.117   1.186   7.437  0.3237  0.9334  0.3293
 3597TIP3    H132350   3.058   1.191   7.362  2.1278  2.0936 -1.0979
 3597TIP3    H232351   3.137   1.278   7.458  1.3315  0.5858  0.9916
 3598TIP3   OH232352   1.549   5.405   0.553  0.4182  0.2073  0.2243
 3598TIP3    H132353   1.611   5.428   0.621  1.1803  0.7177 -0.6160
 3598TIP3    H232354   1.463   5.414   0.594  0.8902 -0.8519  1.5060
 3599TIP3   OH232355   4.016   1.865   8.123  0.2465  0.5375  0.0627
 3599TIP3    H132356   4.063   1.937   8.080 -1.7918  1.7598 -0.2589
 3599TIP3    H232357   4.031   1.880   8.216 -0.2589  1.4943  0.0084
 3600TIP3   OH232358   6.641   2.360   1.942  0.1209 -0.1190  0.1593
 3600TIP3    H132359   6.593   2.397   1.868  1.8434 -0.2355 -1.0783
 3600TIP3    H232360   6.623   2.420   2.014 -1.3813  0.1515 -0.3962
 3601TIP3   OH232361   1.383   5.210   2.065  0.1923  0.1343  0.0693
 3601TIP3    H132362   1.397   5.238   2.155 -0.7908  0.8128  0.0290
 3601TIP3    H232363   1.288   5.216   2.052  0.3797  0.7461 -1.2243
 3602TIP3   OH232364   4.237   6.626   1.723  0.3336  0.0849  0.5025
 3602TIP3    H132365   4.188   6.627   1.805  0.4857 -0.6154  0.6090
 3602TIP3    H232366   4.315   6.678   1.741 -0.9209  2.2804 -0.0404
 3603TIP3   OH232367   5.313   2.159   3.090  0.0245  0.3318 -0.8870
 3603TIP3    H132368   5.247   2.226   3.070  0.2028  1.0764  0.8211
 3603TIP3    H232369   5.262   2.085   3.122 -0.0956  0.0736 -1.6464
 3604TIP3   OH232370   5.387   3.129   7.301 -1.0903  0.1056 -0.1206
 3604TIP3    H132371   5.448   3.202   7.309  0.3124 -1.1302  0.9623
 3604TIP3    H232372   5.402   3.094   7.213 -0.8190  0.2854 -0.1444
 3605TIP3   OH232373   2.027   5.625   0.168  0.2046 -0.0938 -0.4908
 3605TIP3    H132374   1.932   5.620   0.152  0.2367 -0.2347 -0.6364
 3605TIP3    H232375   2.037   5.700   0.227  0.0350  0.1293 -0.7409
 3606TIP3   OH232376   5.514   2.296   0.170  0.3096  0.4188  0.1437
 3606TIP3    H132377   5.538   2.269   0.082  0.2941  0.0012  0.2673
 3606TIP3    H232378   5.557   2.233   0.228 -2.6522 -1.6745  0.3422
 3607TIP3   OH232379   0.153   2.149   0.506  0.3542 -0.0564 -0.1108
 3607TIP3    H132380   0.195   2.168   0.590 -0.8617  1.2174  0.2554
 3607TIP3    H232381   0.085   2.085   0.528 -0.8231  1.2368  0.1603
 3608TIP3   OH232382   5.472   6.211   1.186  0.3892 -0.3871 -0.2295
 3608TIP3    H132383   5.567   6.211   1.177  0.3582 -0.8552 -0.5834
 3608TIP3    H232384   5.439   6.194   1.098 -0.0728  1.4421 -0.4621
 3609TIP3   OH232385   4.758   1.854   0.284  0.3297  0.4302 -0.2243
 3609TIP3    H132386   4.739   1.937   0.328 -1.3144  0.2824 -0.6017
 3609TIP3    H232387   4.813   1.806   0.346 -1.2001  0.5824  1.3352
 3610TIP3   OH232388   0.537   6.692   7.697  0.2180  0.1267 -0.1785
 3610TIP3    H132389   0.569   6.628   7.761  0.0569  0.4275  0.2064
 3610TIP3    H232390   0.501   6.640   7.626  0.4548 -0.2111 -0.0504
 3611TIP3   OH232391   4.601   2.621   7.519  0.5024 -0.4217  0.0106
 3611TIP3    H132392   4.671   2.685   7.511  1.0044 -0.8122  1.0511
 3611TIP3    H232393   4.533   2.666   7.569  0.2087 -0.2062 -0.5741
 3612TIP3   OH232394   3.417   4.706   7.549  0.7532 -0.0135 -0.3930
 3612TIP3    H132395   3.383   4.692   7.460 -0.3317  0.5284 -0.0752
 3612TIP3    H232396   3.454   4.621   7.573 -1.5340 -1.0794 -0.2885
 3613TIP3   OH232397   6.670   4.165   7.748  0.6455 -0.0118  0.4983
 3613TIP3    H132398   6.685   4.259   7.742 -0.8197  0.2835  1.0263
 3613TIP3    H232399   6.670   4.134   7.658  0.4735  0.6178  0.2768
 3614TIP3   OH232400   1.234   1.475   1.777 -0.3065 -0.1555  0.5754
 3614TIP3    H132401   1.184   1.526   1.841  0.1926 -2.0328  2.5655
 3614TIP3    H232402   1.317   1.455   1.821 -0.7311 -3.2071  0.1731
 3615TIP3   OH232403   0.701   0.324   2.947 -0.3706  0.1658 -0.2187
 3615TIP3    H132404   0.698   0.378   3.026  1.1425  1.4221 -0.9637
 3615TIP3    H232405   0.713   0.235   2.980 -1.0163  0.5074  0.9890
 3616TIP3   OH232406   0.242   5.891   8.371  0.0468 -0.0246  0.7832
 3616TIP3    H132407   0.170   5.844   8.414 -1.4007 -1.0167 -2.4069
 3616TIP3    H232408   0.320   5.845   8.400 -0.9364 -1.2883  1.5786
 3617TIP3   OH232409   2.120   4.568   3.002  0.4888  0.2520  0.5241
 3617TIP3    H132410   2.061   4.493   3.008  0.9588 -0.0932  0.9410
 3617TIP3    H232411   2.091   4.615   2.924  0.0070 -0.2051  0.4202
 3618TIP3   OH232412   5.025   4.779   2.310  0.4910 -0.0244 -0.5524
 3618TIP3    H132413   5.047   4.686   2.308  1.3818  0.1879 -1.6070
 3618TIP3    H232414   5.082   4.816   2.378 -0.8462 -0.4386  0.8784
 3619TIP3   OH232415   0.545   5.934   2.424 -0.1250 -0.3286  0.7621
 3619TIP3    H132416   0.487   5.980   2.363  0.3147 -0.7452  0.0147
 3619TIP3    H232417   0.493   5.860   2.456 -0.4354  0.0219  1.0757
 3620TIP3   OH232418   6.265   4.061   1.428  0.4692  0.1713 -0.0687
 3620TIP3    H132419   6.181   4.028   1.458 -0.0552 -1.0165 -2.6062
 3620TIP3    H232420   6.321   3.983   1.424  0.5036  0.2531 -2.0338
 3621TIP3   OH232421   5.508   3.684   8.351  0.0780 -0.1369  0.1162
 3621TIP3    H132422   5.591   3.675   8.304 -0.5083  0.3746 -1.0457
 3621TIP3    H232423   5.495   3.778   8.359 -1.4428 -0.1434 -1.6675
 3622TIP3   OH232424   5.436   6.419   0.255  0.4418  0.2810  0.2903
 3622TIP3    H132425   5.397   6.341   0.295  1.0049  0.8043  1.9099
 3622TIP3    H232426   5.517   6.387   0.216  0.6006  0.0207  0.8208
 3623TIP3   OH232427   4.295   4.385   0.846 -0.7431  0.0346  0.3486
 3623TIP3    H132428   4.293   4.290   0.858 -1.0981  0.3091  2.8801
 3623TIP3    H232429   4.302   4.420   0.934  0.0402  2.3724 -0.5832
 3624TIP3   OH232430   2.884   2.913   1.705  0.7232 -0.2932  0.1852
 3624TIP3    H132431   2.942   2.932   1.631  0.5944 -2.9964 -0.7258
 3624TIP3    H232432   2.805   2.964   1.688  1.0052 -0.2708 -1.1478
 3625TIP3   OH232433   0.320   1.619   2.208 -0.3861 -0.4501 -0.0298
 3625TIP3    H132434   0.331   1.708   2.241  0.9233 -0.0158 -1.5078
 3625TIP3    H232435   0.303   1.631   2.114 -1.1381 -1.7315 -0.0759
 3626TIP3   OH232436   2.776   5.381   8.683 -0.3339  0.0123  0.0533
 3626TIP3    H132437   2.779   5.285   8.692  0.2704  0.1145  1.0652
 3626TIP3    H232438   2.767   5.413   8.772  1.0426  0.9434 -0.1093
 3627TIP3   OH232439   6.678   6.625   8.156 -0.0284  0.8484 -0.4343
 3627TIP3    H132440   6.622   6.662   8.225 -0.0093  1.0585 -0.5312
 3627TIP3    H232441   6.761   6.671   8.165 -0.1577  1.1652 -0.8587
 3628TIP3   OH232442   6.580   6.354   7.302 -0.2052  0.1912  0.6139
 3628TIP3    H132443   6.637   6.298   7.250 -0.2247  0.6247  0.1109
 3628TIP3    H232444   6.517   6.295   7.343  0.8573 -0.3443  1.5187
 3629TIP3   OH232445   0.258   0.675   8.189 -0.2807  0.4857  0.1439
 3629TIP3    H132446   0.307   0.607   8.143 -0.1798 -0.5250  1.6685
 3629TIP3    H232447   0.295   0.676   8.278 -0.3666  2.4614  0.1987
 3630TIP3   OH232448   4.618   3.127   7.910 -0.1901  0.0988 -0.3132
 3630TIP3    H132449   4.713   3.131   7.919 -0.4069  0.9150  2.4551
 3630TIP3    H232450   4.587   3.212   7.939 -1.8079 -0.3319 -0.6585
 3631TIP3   OH232451   6.749   2.731   8.681  0.1438 -0.1178  0.2180
 3631TIP3    H132452   6.731   2.823   8.661 -0.9776 -0.4254 -0.3129
 3631TIP3    H232453   6.682   2.707   8.745  1.1843 -0.2515  1.2782
 3632TIP3   OH232454   1.558   4.050   1.539 -0.3469  0.2662  0.0241
 3632TIP3    H132455   1.479   4.079   1.584  0.6137  1.3136  1.1140
 3632TIP3    H232456   1.607   4.131   1.522  1.2239 -0.4749  0.8459
 3633TIP3   OH232457   4.049   5.787   8.128  0.2622 -0.1508 -0.2009
 3633TIP3    H132458   4.056   5.850   8.056 -1.9938 -0.2743 -0.5951
 3633TIP3    H232459   4.107   5.715   8.102  1.5281  0.9595 -0.5829
 3634TIP3   OH232460   2.436   1.996   2.062 -0.3235  0.1132 -0.3187
 3634TIP3    H132461   2.343   2.006   2.040 -0.8063  1.1646  1.8772
 3634TIP3    H232462   2.482   2.040   1.991 -1.5275  0.0068 -1.1993
 3635TIP3   OH232463   1.493   6.329   2.061  0.3318  0.2145  0.0249
 3635TIP3    H132464   1.498   6.360   2.151  0.7708  2.3753 -0.6884
 3635TIP3    H232465   1.426   6.384   2.020 -1.0426 -1.8137 -0.6101
 3636TIP3   OH232466   0.046   6.240   2.724 -0.0559 -0.2160 -0.6618
 3636TIP3    H132467  -0.014   6.275   2.789 -2.3397 -1.8892 -1.7291
 3636TIP3    H232468   0.073   6.155   2.759 -1.5322 -1.2643 -1.9460
 3637TIP3   OH232469   5.573   1.690   1.789 -0.9030  0.4018  0.3562
 3637TIP3    H132470   5.503   1.628   1.768 -0.0532 -0.6023  0.3955
 3637TIP3    H232471   5.550   1.769   1.741 -2.5176  0.3967  1.0498
 3638TIP3   OH232472   5.819   6.742   3.176  0.4166 -0.2397  0.4601
 3638TIP3    H132473   5.912   6.730   3.194  0.0866 -3.2095  0.5880
 3638TIP3    H232474   5.776   6.732   3.261 -0.1916 -1.2828  0.0439
 3639TIP3   OH232475   4.368   3.300   2.079 -0.2032 -0.0766 -0.2299
 3639TIP3    H132476   4.383   3.356   2.002  1.3065  0.0004  0.0949
 3639TIP3    H232477   4.311   3.353   2.135  2.0840  1.7199  0.5841
 3640TIP3   OH232478   1.699   2.023   7.264 -0.2751 -0.2192  0.2296
 3640TIP3    H132479   1.613   2.061   7.244 -0.3915 -0.6070 -0.0280
 3640TIP3    H232480   1.753   2.044   7.188 -0.5478 -1.1847 -0.2460
 3641TIP3   OH232481   5.334   2.984   7.735  0.0219 -0.0551  0.0424
 3641TIP3    H132482   5.348   2.935   7.816 -0.0032 -2.2622 -1.2154
 3641TIP3    H232483   5.406   3.047   7.733  1.0695 -1.1766  0.9195
 3642TIP3   OH232484   3.772   4.464   8.386 -0.1035 -0.3660 -0.0504
 3642TIP3    H132485   3.827   4.400   8.430 -2.6837 -2.2278  0.7297
 3642TIP3    H232486   3.696   4.474   8.443 -0.9902  1.4493 -1.4277
 3643TIP3   OH232487   0.553   5.501   1.931 -0.8185  0.0927 -0.3096
 3643TIP3    H132488   0.522   5.411   1.931  0.4269 -0.4803  2.8339
 3643TIP3    H232489   0.647   5.494   1.915 -0.8218  0.8925 -0.7362
 3644TIP3   OH232490   0.294   1.156   2.883  0.1227  0.2606  0.4087
 3644TIP3    H132491   0.365   1.108   2.840  0.1400 -0.0983  0.8376
 3644TIP3    H232492   0.224   1.092   2.894  0.7629 -0.1500  2.5148
 3645TIP3   OH232493   1.862   4.966   1.450 -0.2580  0.6235 -0.0369
 3645TIP3    H132494   1.899   5.017   1.378  1.2288  0.5121  0.6347
 3645TIP3    H232495   1.781   5.013   1.472  1.2106  2.9227  0.7855
 3646TIP3   OH232496   6.817   3.539   8.220 -0.0062  0.2829  0.1296
 3646TIP3    H132497   6.893   3.480   8.218  0.8391  1.2041  2.3628
 3646TIP3    H232498   6.755   3.497   8.280 -0.4085  0.5287 -0.1065
 3647TIP3   OH232499   6.466   5.638   8.001 -0.8549  0.4031 -0.3270
 3647TIP3    H132500   6.546   5.636   7.949 -0.8481 -0.3050 -0.3050
 3647TIP3    H232501   6.429   5.725   7.986 -0.1059  0.7212 -0.3646
 3648TIP3   OH232502   2.515   5.971   0.628  0.3588 -0.2377  0.1245
 3648TIP3    H132503   2.499   5.885   0.667 -0.5067 -0.6272 -1.0131
 3648TIP3    H232504   2.535   6.028   0.702  0.4970 -1.3132  0.9453
 3649TIP3   OH232505   5.520   5.882   1.044 -0.0126  0.1220  0.6113
 3649TIP3    H132506   5.488   5.965   1.009  2.0088  0.9601  0.5986
 3649TIP3    H232507   5.529   5.826   0.968  0.3907  0.5241  0.3614
 3650TIP3   OH232508   3.765   4.914   7.885 -0.2036  0.0204  0.3282
 3650TIP3    H132509   3.706   4.900   7.811  0.8205  0.2008 -0.5493
 3650TIP3    H232510   3.802   5.001   7.871 -0.0902  0.1105  1.1277
 3651TIP3   OH232511   0.775   1.172   0.183  0.6741  0.4386 -0.5650
 3651TIP3    H132512   0.745   1.145   0.270 -1.1712  0.3145 -1.1899
 3651TIP3    H232513   0.774   1.268   0.186 -1.2255  0.4685 -0.9859
 3652TIP3   OH232514   4.594   4.521   0.276 -0.1994  0.1173  0.3622
 3652TIP3    H132515   4.641   4.444   0.244  1.9475  1.3792  0.2281
 3652TIP3    H232516   4.512   4.487   0.312  0.7702 -2.2305  0.5060
 3653TIP3   OH232517   2.640   3.172   7.286 -0.5751  0.3688 -0.0252
 3653TIP3    H132518   2.728   3.165   7.248 -0.0689  1.0728  0.9857
 3653TIP3    H232519   2.602   3.085   7.273  0.2651  0.0545 -0.4842
 3654TIP3   OH232520   4.771   2.770   7.307  0.2996 -0.1604  0.1365
 3654TIP3    H132521   4.790   2.815   7.389 -0.1272 -1.1949  0.8319
 3654TIP3    H232522   4.837   2.700   7.303  1.3289  0.8304 -1.2142
 3655TIP3   OH232523   3.534   4.244   2.261  0.1085  1.0451 -0.2492
 3655TIP3    H132524   3.544   4.326   2.213 -0.2214  1.5336  0.4950
 3655TIP3    H232525   3.571   4.261   2.348  1.2478 -0.0141 -0.5020
 3656TIP3   OH232526   2.296   6.402   0.434  0.0879  0.4510  0.0203
 3656TIP3    H132527   2.371   6.387   0.376  1.0911 -2.5005  1.8687
 3656TIP3    H232528   2.230   6.339   0.404  0.2782 -0.4561  1.3944
 3657TIP3   OH232529   1.026   2.846   1.050  0.3501  0.1943 -0.2116
 3657TIP3    H132530   0.988   2.876   1.132  1.4180  0.5679  0.1703
 3657TIP3    H232531   1.120   2.844   1.067  0.6962  1.3902 -1.7821
 3658TIP3   OH232532   2.097   1.361   7.673 -0.2959 -0.4753 -0.0938
 3658TIP3    H132533   2.115   1.443   7.719 -0.3840 -0.1283 -0.6743
 3658TIP3    H232534   2.091   1.385   7.581 -2.3366 -0.7980 -0.0912
 3659TIP3   OH232535   6.296   2.804   8.380  0.6665  0.3805  0.0868
 3659TIP3    H132536   6.280   2.726   8.327  0.3307 -0.7818  1.8138
 3659TIP3    H232537   6.304   2.875   8.316 -2.9386 -0.3551 -1.4461
 3660TIP3   OH232538   2.090   6.019   8.120  0.5272 -0.3131  0.0320
 3660TIP3    H132539   2.052   6.010   8.032  0.1486 -0.2396  0.1886
 3660TIP3    H232540   2.065   6.107   8.148  0.4401 -0.4292  0.3153
 3661TIP3   OH232541   3.503   1.830   0.114  0.1252  0.1551 -0.0821
 3661TIP3    H132542   3.483   1.898   0.050  3.2324  1.1956 -0.0916
 3661TIP3    H232543   3.471   1.749   0.074  0.7229  0.9657 -2.3438
 3662TIP3   OH232544   2.804   2.132   0.792  0.5594  0.6031  0.1864
 3662TIP3    H132545   2.830   2.213   0.748 -2.2673  1.5664  0.1126
 3662TIP3    H232546   2.722   2.107   0.749  0.9855 -1.9143  0.7180
 3663TIP3   OH232547   1.075   1.063   0.856  0.2883 -0.2295  0.1504
 3663TIP3    H132548   1.024   1.143   0.844  0.3575 -0.1686  0.2645
 3663TIP3    H232549   1.046   1.027   0.939  1.0559  0.2693  0.6484
 3664TIP3   OH232550   4.212   0.238   2.185  0.1036  0.2357  0.4929
 3664TIP3    H132551   4.166   0.156   2.204  0.3976  0.0377  0.3617
 3664TIP3    H232552   4.257   0.259   2.266  1.4304 -0.6563  0.0120
 3665TIP3   OH232553   4.246   3.287   2.530  0.3341 -0.4100  0.3461
 3665TIP3    H132554   4.154   3.293   2.504  0.2725  0.0613  0.6751
 3665TIP3    H232555   4.249   3.213   2.590  0.2512 -0.6976  0.0031
 3666TIP3   OH232556   5.563   1.052   7.806  0.1164 -0.3324 -0.1905
 3666TIP3    H132557   5.629   1.029   7.740 -1.5933 -1.4110 -1.5979
 3666TIP3    H232558   5.593   1.007   7.885  2.2138  0.9975 -0.1281
 3667TIP3   OH232559   3.488   0.943   2.653 -0.0071  0.5084  0.6053
 3667TIP3    H132560   3.400   0.965   2.622  0.2614  1.3832  0.4329
 3667TIP3    H232561   3.527   0.894   2.580 -1.8137 -3.9087  2.2813
 3668TIP3   OH232562   3.324   5.227   7.154 -0.4617 -0.1965 -0.8040
 3668TIP3    H132563   3.352   5.255   7.067 -1.8538  0.8898 -0.9416
 3668TIP3    H232564   3.236   5.265   7.164 -0.1276  0.1357  1.2603
 3669TIP3   OH232565   3.299   4.863   0.835  0.0069 -0.5147 -0.5974
 3669TIP3    H132566   3.310   4.871   0.930  0.9161  0.1600 -0.7528
 3669TIP3    H232567   3.275   4.951   0.806  0.3619 -0.5689 -1.0707
 3670TIP3   OH232568   1.972   4.168   2.198 -0.6128  0.3340 -0.5103
 3670TIP3    H132569   2.011   4.132   2.118  0.4804 -0.5550  0.3789
 3670TIP3    H232570   2.036   4.231   2.230 -0.2346 -0.5424  0.5358
 3671TIP3   OH232571   3.823   5.441   1.539 -0.0152  0.3885 -0.3588
 3671TIP3    H132572   3.863   5.401   1.462  1.5421  1.2084 -0.0024
 3671TIP3    H232573   3.896   5.473   1.591 -1.1110  1.4353  0.6102
 3672TIP3   OH232574   5.737   3.350   1.364 -0.6075  0.2176  0.2889
 3672TIP3    H132575   5.776   3.423   1.412  3.7831 -1.5317 -0.2280
 3672TIP3    H232576   5.757   3.367   1.272 -1.4276 -0.6515 -0.0675
 3673TIP3   OH232577   4.771   0.174   1.090  0.6704 -0.3109  0.2719
 3673TIP3    H132578   4.818   0.257   1.088 -0.5863  0.4091 -0.6920
 3673TIP3    H232579   4.815   0.124   1.159  3.3618 -0.0341 -1.1083
 3674TIP3   OH232580   2.491   2.036   1.262 -0.4307 -0.2232  0.1281
 3674TIP3    H132581   2.527   1.979   1.193 -1.7189 -1.8662  0.7389
 3674TIP3    H232582   2.513   2.124   1.233 -0.2373 -0.8881 -1.9964
 3675TIP3   OH232583   1.037   3.912   0.690  0.1934  0.4065 -0.2066
 3675TIP3    H132584   1.078   3.862   0.760  1.7955  1.6449 -0.1948
 3675TIP3    H232585   0.951   3.935   0.723  0.0272 -0.9748  0.3960
 3676TIP3   OH232586   2.747   6.365   8.376  0.2541 -0.0446  0.6598
 3676TIP3    H132587   2.793   6.449   8.370 -0.3814  0.2688  0.0538
 3676TIP3    H232588   2.783   6.324   8.454  0.3164  0.9533  1.1768
 3677TIP3   OH232589   1.937   4.056   2.549 -0.0697 -0.3515 -0.2488
 3677TIP3    H132590   1.847   4.025   2.554 -0.3891  0.7192  0.9348
 3677TIP3    H232591   1.937   4.119   2.477 -0.2329 -0.4487 -0.3337
 3678TIP3   OH232592   4.153   2.719   7.615  0.1123  0.3896 -0.0670
 3678TIP3    H132593   4.189   2.665   7.545  0.3984  0.8531 -0.2876
 3678TIP3    H232594   4.159   2.665   7.693 -1.3559 -0.6031 -0.6003
 3679TIP3   OH232595   6.003   5.087   8.465  0.2617 -0.4121 -0.0179
 3679TIP3    H132596   6.023   5.177   8.490  1.5702 -0.7195  0.1561
 3679TIP3    H232597   6.037   5.079   8.376 -1.8738 -0.1168 -0.8952
 3680TIP3   OH232598   4.529   4.049   2.529 -0.5420  0.0175 -0.2448
 3680TIP3    H132599   4.492   4.136   2.512 -1.6277 -0.4441 -0.3294
 3680TIP3    H232600   4.610   4.067   2.576 -0.0308  1.1198 -1.4835
 3681TIP3   OH232601   1.614   2.501   2.353 -0.0960 -0.0218 -0.0466
 3681TIP3    H132602   1.572   2.584   2.376 -1.6145 -1.2027  1.7699
 3681TIP3    H232603   1.541   2.440   2.339  0.9768 -1.1990 -0.7724
 3682TIP3   OH232604   1.034   1.337   3.120 -0.0087 -0.3539  0.0621
 3682TIP3    H132605   1.078   1.346   3.036 -0.5006  0.7346 -0.1086
 3682TIP3    H232606   1.080   1.267   3.165  0.7911 -0.3860 -0.7855
 3683TIP3   OH232607   3.751   4.499   1.453  0.0441 -0.3710  0.1475
 3683TIP3    H132608   3.800   4.550   1.388 -1.6496  0.4118 -0.6005
 3683TIP3    H232609   3.706   4.565   1.506 -0.8096 -1.0544  0.2945
 3684TIP3   OH232610   4.862   3.158   1.013  0.3873 -0.1206 -0.2449
 3684TIP3    H132611   4.890   3.087   0.956 -1.1001 -0.5987 -0.4375
 3684TIP3    H232612   4.910   3.235   0.981  0.1291 -0.5240 -1.6878
 3685TIP3   OH232613   4.610   0.672   8.191 -0.3353 -0.0405  0.1757
 3685TIP3    H132614   4.613   0.617   8.112 -0.1708  1.0226 -0.5728
 3685TIP3    H232615   4.645   0.756   8.163 -0.2666  0.3518  1.3987
 3686TIP3   OH232616   2.210   6.684   0.362  0.9506  0.4269 -0.4253
 3686TIP3    H132617   2.215   6.663   0.455 -1.6062 -1.1865 -0.5529
 3686TIP3    H232618   2.118   6.707   0.347  0.9110 -0.9075 -2.8073
 3687TIP3   OH232619   5.806   3.160   1.953 -0.6650  0.3503  0.9055
 3687TIP3    H132620   5.858   3.195   2.026  2.3137 -0.3707 -0.7000
 3687TIP3    H232621   5.795   3.235   1.894  1.3749 -0.0996 -0.1731
 3688TIP3   OH232622   6.820   1.202   2.081 -0.1788  0.2781  0.1018
 3688TIP3    H132623   6.888   1.263   2.109 -1.8132  1.6714  1.2881
 3688TIP3    H232624   6.750   1.213   2.146 -1.5362 -1.1058 -1.0434
 3689TIP3   OH232625   6.511   5.510   1.534 -0.1931  0.1527 -0.1253
 3689TIP3    H132626   6.567   5.575   1.578  0.7605 -0.4613 -0.4015
 3689TIP3    H232627   6.485   5.450   1.604 -0.8553  0.6646  0.0802
 3690TIP3   OH232628   0.064   3.499   2.715 -0.0887  0.3873  0.1039
 3690TIP3    H132629   0.120   3.498   2.793  0.8520 -0.6362 -0.5606
 3690TIP3    H232630   0.011   3.419   2.723  0.7427 -0.2808 -0.7957
 3691TIP3   OH232631   2.431   3.331   7.787  0.7465 -0.5159  0.2216
 3691TIP3    H132632   2.411   3.392   7.715 -0.7564 -1.1418  0.0655
 3691TIP3    H232633   2.489   3.266   7.748  2.5146  0.8766  0.4327
 3692TIP3   OH232634   1.100   2.159   0.696 -0.3616  0.0788  0.0605
 3692TIP3    H132635   1.031   2.097   0.676 -1.4731  1.5596 -0.9644
 3692TIP3    H232636   1.145   2.172   0.612  0.0975  0.3773  0.3476
 3693TIP3   OH232637   3.026   1.145   8.630  0.4113  0.3763  0.1608
 3693TIP3    H132638   2.962   1.074   8.640 -1.7210  1.9107 -1.4809
 3693TIP3    H232639   3.079   1.119   8.555 -1.0522  0.9024 -1.1173
 3694TIP3   OH232640   1.476   2.354   7.705  0.6302  0.3555 -0.1888
 3694TIP3    H132641   1.549   2.382   7.760  1.1553  2.1597 -1.7122
 3694TIP3    H232642   1.418   2.430   7.701  0.1112 -0.0740 -1.3100
 3695TIP3   OH232643   2.140   4.622   2.394 -0.2631  0.2927  0.0708
 3695TIP3    H132644   2.176   4.633   2.482  1.5486 -1.1135 -0.4292
 3695TIP3    H232645   2.081   4.547   2.401 -1.1327  0.9843  0.3341
 3696TIP3   OH232646   2.329   4.680   1.618  0.2577 -0.1180 -0.1529
 3696TIP3    H132647   2.343   4.712   1.707 -0.5467 -0.0984 -0.0224
 3696TIP3    H232648   2.263   4.611   1.628  1.4805 -1.3701 -0.5102
 3697TIP3   OH232649   0.145   2.303   7.761  0.5634  0.3380  0.3211
 3697TIP3    H132650   0.167   2.224   7.712  1.4997 -0.4550  1.9626
 3697TIP3    H232651   0.091   2.354   7.700  2.2744 -0.2328 -1.8144
 3698TIP3   OH232652   0.473   6.149   7.336 -0.2916 -0.9055 -0.6600
 3698TIP3    H132653   0.473   6.090   7.411 -0.3717 -0.1227 -0.0300
 3698TIP3    H232654   0.423   6.225   7.365  0.5212 -0.1579 -1.1478
 3699TIP3   OH232655   1.496   4.718   3.109 -0.0063  0.4461  0.1463
 3699TIP3    H132656   1.535   4.634   3.134  0.7723  0.6652 -0.3110
 3699TIP3    H232657   1.569   4.779   3.108 -0.9529  1.8182  3.2383
 3700TIP3   OH232658   0.288   0.038   8.634  0.3766  0.5307  0.1314
 3700TIP3    H132659   0.252   0.070   8.551 -0.5835  1.7959  0.9833
 3700TIP3    H232660   0.273  -0.056   8.632 -1.7546  0.8193 -0.1761
 3701TIP3   OH232661   0.012   0.192   3.030 -0.5769  0.0932  0.7549
 3701TIP3    H132662   0.054   0.177   2.945  0.2134 -2.4264  1.5092
 3701TIP3    H232663  -0.019   0.106   3.057 -1.5654  0.9924  2.6630
 3702TIP3   OH232664   3.156   5.455   0.774  0.4225  0.2423  0.1065
 3702TIP3    H132665   3.083   5.403   0.808 -0.8962 -0.3195 -3.1955
 3702TIP3    H232666   3.221   5.390   0.747 -0.3925  0.3030 -2.2196
 3703TIP3   OH232667   4.423   0.043   7.682 -0.2069 -0.3358  0.0464
 3703TIP3    H132668   4.445  -0.012   7.606 -1.1102 -0.5320 -0.0904
 3703TIP3    H232669   4.504   0.050   7.731 -0.0565 -1.7850  0.0518
 3704TIP3   OH232670   4.498   0.113   1.637  0.2930  0.1310 -0.2880
 3704TIP3    H132671   4.586   0.106   1.599  0.9586 -3.0451  1.4713
 3704TIP3    H232672   4.447   0.045   1.592 -0.2141 -0.4570  1.1202
 3705TIP3   OH232673   4.139   5.766   0.917  0.5711 -0.0036 -0.1972
 3705TIP3    H132674   4.181   5.688   0.881  0.5331  0.5884 -1.6001
 3705TIP3    H232675   4.192   5.790   0.993 -0.0826 -2.0248  0.9861
 3706TIP3   OH232676   3.435   2.544   8.294 -0.1992 -0.1071 -0.6100
 3706TIP3    H132677   3.466   2.610   8.357  1.1011 -1.1526 -0.1057
 3706TIP3    H232678   3.420   2.593   8.214  1.4100  0.7208 -0.4470
 3707TIP3   OH232679   6.326   2.370   7.474 -0.9563  0.4628  0.0562
 3707TIP3    H132680   6.349   2.311   7.402 -1.8497 -0.4257  0.4834
 3707TIP3    H232681   6.406   2.376   7.526 -0.7202 -0.0140 -0.2406
 3708TIP3   OH232682   3.606   4.045   1.097 -1.1321  0.1585  0.0035
 3708TIP3    H132683   3.670   3.996   1.148 -1.5446 -1.0505 -0.6094
 3708TIP3    H232684   3.587   3.989   1.022 -3.0357  0.3961  0.2557
 3709TIP3   OH232685   3.958   0.726   8.176  0.3520 -1.0478 -0.3699
 3709TIP3    H132686   4.037   0.697   8.222  2.1180  2.2180 -0.9797
 3709TIP3    H232687   3.988   0.749   8.088 -1.5413 -0.8759 -1.0147
 3710TIP3   OH232688   3.903   1.402   7.394 -0.2664  0.2403 -0.2548
 3710TIP3    H132689   3.840   1.463   7.432 -0.7649 -0.6362  0.3688
 3710TIP3    H232690   3.986   1.423   7.438  0.3934  2.6129 -2.3582
 3711TIP3   OH232691   2.199   1.260   8.101 -0.3485 -0.2136  0.2541
 3711TIP3    H132692   2.196   1.314   8.180 -0.8565 -1.6999  1.3072
 3711TIP3    H232693   2.108   1.253   8.073 -0.2594 -0.3068 -0.0148
 3712TIP3   OH232694   2.796   6.276   0.633  0.0002  0.0341 -0.1199
 3712TIP3    H132695   2.820   6.328   0.556 -0.0056 -0.2182 -0.2935
 3712TIP3    H232696   2.702   6.263   0.624 -0.2001  0.9388  0.5080
 3713TIP3   OH232697   4.514   4.514   8.200 -0.2820 -0.1466  0.0136
 3713TIP3    H132698   4.552   4.493   8.114 -1.0703 -0.0986 -0.3630
 3713TIP3    H232699   4.518   4.609   8.205  0.4294 -0.1871  0.3575
 3714TIP3   OH232700   5.997   3.147   1.516 -0.5200 -0.2254  0.0904
 3714TIP3    H132701   6.046   3.136   1.597  0.3286 -1.0359 -0.5132
 3714TIP3    H232702   5.970   3.239   1.517  2.8048  0.8998 -0.4756
 3715TIP3   OH232703   5.136   3.909   7.356 -0.2505 -0.0998  0.4096
 3715TIP3    H132704   5.107   3.976   7.293 -2.4180  0.0009  1.4259
 3715TIP3    H232705   5.211   3.949   7.400  0.0934  0.6013 -0.7559
 3716TIP3   OH232706   3.922   4.915   1.068 -0.0023 -0.3810  0.0939
 3716TIP3    H132707   3.882   4.997   1.038  1.4468 -0.2654 -1.6937
 3716TIP3    H232708   4.000   4.943   1.116  1.3794 -0.6831 -1.8817
 3717TIP3   OH232709   3.512   0.500   1.022 -0.1106 -0.0997  0.2097
 3717TIP3    H132710   3.601   0.473   1.046 -0.2869 -1.6890 -0.7377
 3717TIP3    H232711   3.522   0.586   0.982  0.6276  0.9649  2.5345
 3718TIP3   OH232712   1.922   1.233   8.015 -0.4840  0.2360 -0.3586
 3718TIP3    H132713   1.912   1.208   8.107 -0.0537  0.2130 -0.3201
 3718TIP3    H232714   1.899   1.154   7.966 -0.0395  0.0411 -0.2568
 3719TIP3   OH232715   3.684   5.911   0.693 -0.7622 -0.0194  0.7258
 3719TIP3    H132716   3.677   5.978   0.761  1.9267  0.8046  0.3095
 3719TIP3    H232717   3.670   5.828   0.738 -0.0343  0.5765  2.1029
 3720TIP3   OH232718   1.493   5.282   8.402  0.3264  0.3294  0.0359
 3720TIP3    H132719   1.451   5.332   8.472 -0.6791  1.1552 -1.1147
 3720TIP3    H232720   1.421   5.234   8.361  0.8835 -0.0242 -0.5450
 3721TIP3   OH232721   3.314   0.380   2.430 -0.3715  0.1908  0.0366
 3721TIP3    H132722   3.281   0.449   2.487  0.5662 -0.1643  1.0370
 3721TIP3    H232723   3.389   0.419   2.386  0.4739 -0.3398  0.9886
 3722TIP3   OH232724   2.004   4.144   0.095 -0.1330 -0.1673 -0.6211
 3722TIP3    H132725   2.053   4.200   0.035 -0.3815 -0.0948 -0.7574
 3722TIP3    H232726   2.007   4.189   0.179  0.5096 -0.4379 -0.4941
 3723TIP3   OH232727   3.986   2.932   7.528 -0.9259 -0.1821  0.1912
 3723TIP3    H132728   4.028   2.858   7.571 -2.4115 -0.0411  2.0153
 3723TIP3    H232729   3.956   2.897   7.444 -0.0332 -1.1420  0.2557
 3724TIP3   OH232730   1.459   2.743   1.561 -0.2324 -0.3283  0.3978
 3724TIP3    H132731   1.431   2.656   1.588 -0.3461 -0.8218 -1.1697
 3724TIP3    H232732   1.423   2.753   1.472  1.9313  0.2602 -0.4758
 3725TIP3   OH232733   3.341   0.745   8.499  0.4020 -0.3817  0.3647
 3725TIP3    H132734   3.281   0.797   8.446  0.7799 -1.8013 -1.5741
 3725TIP3    H232735   3.286   0.676   8.537  0.0289  0.9508  2.3619
 3726TIP3   OH232736   1.562   6.795   7.648  0.1127  0.0284 -0.0571
 3726TIP3    H132737   1.577   6.701   7.659 -1.4519 -0.0265  2.5399
 3726TIP3    H232738   1.648   6.835   7.659  0.7182 -1.0626 -0.7466
 3727TIP3   OH232739   4.525   3.563   1.299 -0.6132 -0.7487  0.5341
 3727TIP3    H132740   4.532   3.648   1.343 -0.6090 -0.7279  0.4929
 3727TIP3    H232741   4.444   3.525   1.334 -0.5912 -0.7482  0.5867
 3728TIP3   OH232742   6.035   6.759   2.943 -0.1172 -0.2674  0.4643
 3728TIP3    H132743   6.120   6.725   2.974  0.6674  2.0829  1.0810
 3728TIP3    H232744   6.058   6.834   2.889 -1.8181  0.2910  0.4792
 3729TIP3   OH232745   1.738   5.386   8.546  0.1413  0.0544  0.4955
 3729TIP3    H132746   1.647   5.375   8.573 -0.0329 -1.4456 -0.6002
 3729TIP3    H232747   1.766   5.299   8.519  1.0469  0.9811 -1.7920
 3730TIP3   OH232748   3.530   1.160   2.280  0.4691 -0.1046 -0.5665
 3730TIP3    H132749   3.437   1.157   2.306  0.9960 -1.0061  1.4193
 3730TIP3    H232750   3.551   1.253   2.276  1.0835  0.4887  5.8133
 3731TIP3   OH232751   3.398   1.704   2.306 -0.4007 -0.1367  0.3800
 3731TIP3    H132752   3.323   1.747   2.346 -0.6768 -0.3677  0.1069
 3731TIP3    H232753   3.433   1.648   2.375 -1.6625 -1.5527 -0.0645
 3732TIP3   OH232754   5.809   0.891   7.117 -0.2700  0.5707 -0.5706
 3732TIP3    H132755   5.885   0.875   7.171 -0.2732  1.0996 -0.4008
 3732TIP3    H232756   5.805   0.816   7.057 -0.5944 -0.2985  0.5180
 3733TIP3   OH232757   5.195   2.984   1.094  0.5236 -0.2031 -0.4820
 3733TIP3    H132758   5.278   2.955   1.058  0.3450 -1.7927  0.3341
 3733TIP3    H232759   5.174   3.063   1.043  2.7156  0.4987 -0.4011
 3734TIP3   OH232760   5.071   5.507   0.527  0.1261  0.6769 -0.4254
 3734TIP3    H132761   5.089   5.542   0.440  1.1106  0.1331 -0.4509
 3734TIP3    H232762   5.153   5.467   0.555 -0.0031  1.3232  0.9884
 3735TIP3   OH232763   0.070   5.145   1.685 -0.2573  0.6820 -0.1597
 3735TIP3    H132764   0.148   5.094   1.663 -0.1288  1.0004 -0.4575
 3735TIP3    H232765   0.105   5.230   1.713 -0.3902  0.1940  1.6057
 3736TIP3   OH232766   3.170   4.027   3.010 -0.1526 -0.0980 -0.1110
 3736TIP3    H132767   3.124   3.994   3.087  0.9226 -1.3717  0.0137
 3736TIP3    H232768   3.163   3.956   2.946 -1.0647  0.9554 -1.2267
 3737TIP3   OH232769   4.769   5.733   7.996  0.1210  0.4480  0.1204
 3737TIP3    H132770   4.760   5.679   7.918 -1.9687 -0.6126  1.0249
 3737TIP3    H232771   4.729   5.817   7.972  1.2157  0.7987 -0.5267
 3738TIP3   OH232772   2.130   2.238   1.558  0.0526  0.3045 -0.1560
 3738TIP3    H132773   2.091   2.303   1.500  0.9060  0.8418 -0.1542
 3738TIP3    H232774   2.151   2.165   1.501  1.8497  1.2413 -0.7762
 3739TIP3   OH232775   5.050   3.985   6.710 -0.5884  0.4012 -0.2401
 3739TIP3    H132776   5.017   4.072   6.731 -1.9035 -0.0973 -0.1548
 3739TIP3    H232777   4.989   3.951   6.644 -1.1486 -1.1349  1.0085
 3740TIP3   OH232778   1.752   6.697   2.448  0.0875  0.6585  0.0156
 3740TIP3    H132779   1.824   6.735   2.499 -0.9997  1.0840  1.2762
 3740TIP3    H232780   1.720   6.624   2.501  0.8242 -0.8058 -1.4495
 3741TIP3   OH232781   5.329   5.769   0.093 -0.1558 -0.2144 -0.3734
 3741TIP3    H132782   5.256   5.830   0.095  0.6547  0.8233 -1.2735
 3741TIP3    H232783   5.314   5.711   0.168 -3.0718 -1.4481 -1.7163
 3742TIP3   OH232784   5.407   2.116   1.470  0.1594 -0.3181  0.2475
 3742TIP3    H132785   5.448   2.175   1.406  4.0133 -1.0942  1.6955
 3742TIP3    H232786   5.411   2.164   1.553 -1.7914 -0.5738  0.5304
 3743TIP3   OH232787   5.163   3.192   2.275 -0.5870  0.5308  0.0418
 3743TIP3    H132788   5.181   3.277   2.235 -1.0291 -0.0767 -1.5187
 3743TIP3    H232789   5.067   3.186   2.275 -0.6063 -1.1943 -2.7675
 3744TIP3   OH232790   0.740   3.112   8.180  0.0080 -0.3548 -0.7850
 3744TIP3    H132791   0.730   3.161   8.098 -0.5753 -1.3195 -1.3049
 3744TIP3    H232792   0.674   3.043   8.175  0.7076 -1.0985  0.0011
 3745TIP3   OH232793   4.812   3.696   2.212 -0.1928 -0.1920  0.3435
 3745TIP3    H132794   4.727   3.672   2.250  0.0693 -0.2638  0.8850
 3745TIP3    H232795   4.870   3.708   2.287  0.4070 -0.6186 -0.0458
 3746TIP3   OH232796   3.555   0.053   8.589  0.2349 -1.1966 -0.0927
 3746TIP3    H132797   3.650   0.061   8.591  0.4975 -3.5567 -0.2644
 3746TIP3    H232798   3.533   0.036   8.498 -0.2746 -1.4471  0.0681
 3747TIP3   OH232799   2.655   1.273   8.176  0.3222 -0.3348 -0.1392
 3747TIP3    H132800   2.609   1.266   8.092 -0.1099 -0.9038  0.1403
 3747TIP3    H232801   2.649   1.366   8.199 -2.3957 -0.6711  0.8320
 3748TIP3   OH232802   4.774   1.434   0.784 -0.0134 -0.3640  0.4851
 3748TIP3    H132803   4.706   1.430   0.716  0.4316 -0.2560  0.0282
 3748TIP3    H232804   4.736   1.489   0.852  0.3688  1.3968 -0.6498
 3749TIP3   OH232805   1.122   6.442   1.544 -0.3678  0.0242  0.1034
 3749TIP3    H132806   1.106   6.485   1.629  0.4534 -1.9916  1.3505
 3749TIP3    H232807   1.207   6.476   1.516 -0.0885 -0.1570  0.6963
 3750TIP3   OH232808   4.565   2.069   7.720 -0.4282 -0.4858 -0.7643
 3750TIP3    H132809   4.584   2.031   7.635 -0.8004 -2.0599 -0.1800
 3750TIP3    H232810   4.631   2.137   7.731  3.2606 -3.7779 -0.0578
 3751TIP3   OH232811   4.651   6.756   0.952 -0.1127 -0.2014  0.4917
 3751TIP3    H132812   4.700   6.803   1.020  0.0834  0.3177 -0.0058
 3751TIP3    H232813   4.701   6.676   0.937  1.0849  0.7245 -0.6356
 3752TIP3   OH232814   1.448   5.377   2.646  0.1486  0.0897 -0.1699
 3752TIP3    H132815   1.522   5.365   2.704 -0.8369 -1.7072  0.7900
 3752TIP3    H232816   1.487   5.386   2.559  1.5164  0.0081  0.4145
 3753TIP3   OH232817   2.808   3.643   2.364 -0.2959  0.1775  0.0676
 3753TIP3    H132818   2.774   3.664   2.451  0.2890 -0.2151  0.3942
 3753TIP3    H232819   2.829   3.550   2.368  0.0574  0.2353 -0.3813
 3754TIP3   OH232820   5.094   5.888   2.100  0.1756 -0.7086 -0.3529
 3754TIP3    H132821   5.109   5.982   2.096 -0.1338 -0.5002  2.0331
 3754TIP3    H232822   5.179   5.851   2.122 -0.3129 -0.6292  1.8645
 3755TIP3   OH232823   1.787   5.612   0.006 -0.2438  0.7112  0.1438
 3755TIP3    H132824   1.766   5.526  -0.029 -1.0060  1.3715 -1.1061
 3755TIP3    H232825   1.708   5.640   0.051  0.5362  0.1161  1.9880
 3756TIP3   OH232826   6.003   6.713   8.058 -0.3580 -0.0883 -0.1786
 3756TIP3    H132827   6.092   6.738   8.034  0.0268 -2.0357 -0.9695
 3756TIP3    H232828   5.953   6.725   7.977 -0.9815  1.5106  0.3992
 3757TIP3   OH232829   2.947   0.058   1.153  0.0335 -0.3848 -0.0929
 3757TIP3    H132830   2.873   0.092   1.203  0.7241  1.3622 -0.1808
 3757TIP3    H232831   2.926  -0.035   1.139 -1.1610 -0.4150  1.5983
 3758TIP3   OH232832   0.173   5.624   0.156 -0.3726  0.0279 -0.3468
 3758TIP3    H132833   0.258   5.589   0.185 -0.3532 -1.6749 -2.2615
 3758TIP3    H232834   0.133   5.658   0.236  0.5955 -2.4495  1.3163
 3759TIP3   OH232835   1.288   3.629   0.731  0.0140  0.1804 -0.2198
 3759TIP3    H132836   1.348   3.555   0.719 -1.5059 -1.0756 -0.4859
 3759TIP3    H232837   1.333   3.703   0.692  1.5023 -0.6353 -0.1552
 3760TIP3   OH232838   2.495   4.326   7.266 -0.0954  0.4883  0.0752
 3760TIP3    H132839   2.534   4.257   7.213 -2.1393 -1.2155  0.6187
 3760TIP3    H232840   2.537   4.318   7.351 -0.0718  0.1160  0.0315
 3761TIP3   OH232841   3.282   1.095   0.088  0.0641  0.2510  0.0915
 3761TIP3    H132842   3.250   1.064   0.172 -0.3633  0.7567  0.1153
 3761TIP3    H232843   3.206   1.136   0.046  0.4185  0.5356 -0.2846
 3762TIP3   OH232844   5.098   5.582   7.196 -0.1040  0.1002  0.3771
 3762TIP3    H132845   5.118   5.576   7.289  1.9205  4.6576  0.5080
 3762TIP3    H232846   5.183   5.577   7.152 -0.9752 -1.5336 -1.2911
 3763TIP3   OH232847   1.690   4.215   2.282 -0.3454  0.5608 -0.7451
 3763TIP3    H132848   1.660   4.161   2.355  0.9734  1.8077  0.8084
 3763TIP3    H232849   1.782   4.190   2.269 -0.5199  0.4636 -1.8960
 3764TIP3   OH232850   5.292   2.095   8.042  0.1159  0.1486 -0.0577
 3764TIP3    H132851   5.245   2.149   8.106  1.8917  1.0393  0.5468
 3764TIP3    H232852   5.281   2.006   8.074 -2.1172  0.1606 -0.5837
 3765TIP3   OH232853   0.426   0.650   0.374  0.2520 -0.4097  0.0568
 3765TIP3    H132854   0.521   0.642   0.365  0.0783 -1.8200 -0.7468
 3765TIP3    H232855   0.394   0.663   0.285 -0.4499 -1.7977  0.0887
 3766TIP3   OH232856   0.220   1.552   1.468  0.0717  0.4462 -0.1305
 3766TIP3    H132857   0.228   1.624   1.405 -0.0782  0.0390 -0.6190
 3766TIP3    H232858   0.297   1.561   1.524  1.1299 -0.2106 -1.4386
 3767TIP3   OH232859   1.557   0.752   0.922 -0.0054  0.4974 -0.3101
 3767TIP3    H132860   1.497   0.731   0.993 -1.7369 -3.1896 -2.5870
 3767TIP3    H232861   1.624   0.684   0.925  0.6768  1.0850 -1.3666
 3768TIP3   OH232862   2.761   2.681   7.035 -0.1056 -0.0836 -0.2530
 3768TIP3    H132863   2.848   2.710   7.007  0.3761 -0.2549  0.9829
 3768TIP3    H232864   2.761   2.587   7.017 -0.0330 -0.0788 -0.2795
 3769TIP3   OH232865   0.139   1.033   1.479 -0.2561  0.0210 -0.1383
 3769TIP3    H132866   0.149   1.034   1.574  1.3172 -0.3325 -0.2863
 3769TIP3    H232867   0.225   1.009   1.446 -1.4040 -2.3917 -1.5812
 3770TIP3   OH232868   1.468   3.259   8.381 -0.1196  0.6112 -0.1606
 3770TIP3    H132869   1.430   3.345   8.369 -1.5647 -0.0068 -0.2182
 3770TIP3    H232870   1.394   3.203   8.407  0.8256 -0.5474  0.1562
 3771TIP3   OH232871   5.865   6.247   2.153 -0.2620 -1.1002  0.0346
 3771TIP3    H132872   5.952   6.221   2.184 -0.6179 -0.9010  1.2744
 3771TIP3    H232873   5.839   6.177   2.093  1.5489 -0.1824 -1.9528
 3772TIP3   OH232874   0.496   1.291   1.085 -0.1711  0.1989 -0.3653
 3772TIP3    H132875   0.458   1.257   1.165  1.0210  1.3068  0.7100
 3772TIP3    H232876   0.588   1.267   1.090 -0.1311  0.0549 -1.5382
 3773TIP3   OH232877   0.875   0.578   7.495  0.1518 -0.2198  0.3016
 3773TIP3    H132878   0.930   0.539   7.426 -0.3873 -1.0055  0.3074
 3773TIP3    H232879   0.793   0.600   7.450  0.0831 -0.0277  0.5237
 3774TIP3   OH232880   2.328   4.074   6.309 -0.2906  0.5774  0.0639
 3774TIP3    H132881   2.345   4.003   6.246  1.5330  0.7040  0.3609
 3774TIP3    H232882   2.288   4.030   6.384  2.0104 -0.4270  0.7854
 3775TIP3   OH232883   2.283   2.115   0.225  0.0134  0.1818 -0.0895
 3775TIP3    H132884   2.313   2.186   0.168 -0.4092  1.4447  1.1942
 3775TIP3    H232885   2.189   2.110   0.210  0.0418 -0.1086 -0.1710
 3776TIP3   OH232886   2.871   2.469   0.788 -0.4496  0.3531  0.1213
 3776TIP3    H132887   2.868   2.565   0.796 -0.2460  0.2713  1.2452
 3776TIP3    H232888   2.786   2.446   0.751 -0.9908  0.8743  1.0065
 3777TIP3   OH232889   4.131   6.392   8.074 -0.2316  0.0626  0.5752
 3777TIP3    H132890   4.101   6.434   8.155 -1.4537  1.3509 -0.4765
 3777TIP3    H232891   4.097   6.449   8.004  1.1619 -0.7642 -0.8327
 3778TIP3   OH232892   1.687   3.647   1.815 -0.2280 -0.6870  0.2228
 3778TIP3    H132893   1.754   3.711   1.790  0.0145  0.1874  2.8614
 3778TIP3    H232894   1.625   3.648   1.742  0.4754  1.5457 -0.4145
 3779TIP3   OH232895   6.034   4.261   8.531 -0.0542  0.5048 -0.0678
 3779TIP3    H132896   6.125   4.233   8.522  0.5016  1.9537  0.6725
 3779TIP3    H232897   6.037   4.356   8.518 -1.6216  0.4471 -1.0668
 3780TIP3   OH232898   1.181   2.578   2.767  0.4476 -0.1590 -0.1390
 3780TIP3    H132899   1.087   2.559   2.757  0.6238 -0.8058 -0.5796
 3780TIP3    H232900   1.214   2.508   2.823  0.2525  1.2845  1.9004
 3781TIP3   OH232901   2.947   0.748   1.871 -0.2109  0.0476  0.6722
 3781TIP3    H132902   2.881   0.731   1.938 -1.2022 -1.1188 -0.5594
 3781TIP3    H232903   2.991   0.663   1.859 -1.0102 -0.1551 -1.1418
 3782TIP3   OH232904   5.357   0.346   7.715 -0.2021 -0.0696 -0.1649
 3782TIP3    H132905   5.440   0.382   7.682  0.0168  0.2931  0.7768
 3782TIP3    H232906   5.300   0.421   7.727  0.0620 -0.0685  1.2422
 3783TIP3   OH232907   1.609   2.943   0.265  0.2245 -0.6910 -0.8875
 3783TIP3    H132908   1.549   2.894   0.209 -0.2372 -0.4516 -0.6125
 3783TIP3    H232909   1.552   3.002   0.315  0.6932 -0.4381 -0.6434
 3784TIP3   OH232910   3.323   4.115   1.071  0.2961  0.5961 -0.1414
 3784TIP3    H132911   3.392   4.069   1.119 -0.3124 -1.1065 -0.8113
 3784TIP3    H232912   3.279   4.168   1.137  1.1670  0.3855  0.6328
 3785TIP3   OH232913   4.310   0.374   1.584  0.4609 -0.4169  0.0706
 3785TIP3    H132914   4.307   0.424   1.666  2.6607 -0.6149  0.3354
 3785TIP3    H232915   4.368   0.301   1.603 -0.4275 -1.4833 -1.1686
 3786TIP3   OH232916   1.754   4.237   1.855 -0.2423  0.2551 -0.2182
 3786TIP3    H132917   1.762   4.145   1.876  1.9648  0.5140  0.2770
 3786TIP3    H232918   1.660   4.255   1.861 -0.5162 -1.4924  1.6124
 3787TIP3   OH232919   3.405   2.698   7.049  0.1474  0.1465  0.0669
 3787TIP3    H132920   3.467   2.765   7.022  2.4218 -0.6773  2.8002
 3787TIP3    H232921   3.339   2.746   7.101 -0.2437  0.6966 -0.9123
 3788TIP3   OH232922   6.671   5.185   7.196  0.2056 -0.1253  0.2372
 3788TIP3    H132923   6.600   5.148   7.249 -1.3258  0.2726 -1.4067
 3788TIP3    H232924   6.715   5.108   7.159  1.3742 -0.4036  2.1196
 3789TIP3   OH232925   0.366   1.019   0.085  0.1150  0.4327  0.0451
 3789TIP3    H132926   0.442   1.073   0.107 -0.4840  0.9974  0.7993
 3789TIP3    H232927   0.312   1.074   0.029 -1.4171  1.4085  2.3183
 3790TIP3   OH232928   4.658   1.607   8.211  0.1735 -0.2936 -0.4069
 3790TIP3    H132929   4.617   1.645   8.134  0.2652 -0.9020 -0.7582
 3790TIP3    H232930   4.635   1.667   8.282 -0.3117  0.0113 -0.8137
 3791TIP3   OH232931   6.802   4.593   7.992 -0.0254  0.9677 -0.0040
 3791TIP3    H132932   6.874   4.638   7.947  1.0930  0.4734  1.2141
 3791TIP3    H232933   6.740   4.663   8.012 -0.0947  1.3482 -1.4063
 3792TIP3   OH232934   2.628   1.535   8.194  0.2499  0.0460 -0.4720
 3792TIP3    H132935   2.612   1.621   8.155 -1.1334  0.0688  0.0745
 3792TIP3    H232936   2.589   1.541   8.282 -0.3127 -1.2877 -0.6083
 3793TIP3   OH232937   3.848   3.650   7.552 -0.4186  0.8515 -0.5878
 3793TIP3    H132938   3.833   3.727   7.607 -3.4854 -1.0916  1.5849
 3793TIP3    H232939   3.805   3.671   7.469 -1.2623  1.4908 -0.0074
 3794TIP3   OH232940   2.774   4.241   6.877 -0.4633 -0.8171 -0.1249
 3794TIP3    H132941   2.685   4.227   6.845 -1.2548 -0.0324  1.5982
 3794TIP3    H232942   2.792   4.333   6.861  0.6407 -1.2883 -1.8014
 3795TIP3   OH232943   0.587   2.367   7.241 -0.3483 -0.6116 -0.7155
 3795TIP3    H132944   0.673   2.409   7.238 -0.0989 -1.0068  0.3139
 3795TIP3    H232945   0.604   2.276   7.217 -0.3304 -0.8758  0.2465
 3796TIP3   OH232946   2.677   3.386   2.108 -0.3614  0.0725  0.1950
 3796TIP3    H132947   2.583   3.366   2.110 -0.4316  0.4209  0.4714
 3796TIP3    H232948   2.701   3.391   2.200 -0.1899  0.5444  0.1246
 3797TIP3   OH232949   3.652   0.242   1.321 -0.4382  0.4078  0.6932
 3797TIP3    H132950   3.557   0.235   1.332 -0.5110  0.1642 -0.0853
 3797TIP3    H232951   3.683   0.265   1.409 -1.1833  0.2163  1.0246
 3798TIP3   OH232952   3.257   4.026   0.809 -0.2543 -0.0764 -0.1323
 3798TIP3    H132953   3.231   4.108   0.849 -1.0175 -0.8283  0.9820
 3798TIP3    H232954   3.324   3.990   0.867 -0.4076 -0.5501 -0.2435
 3799TIP3   OH232955   0.178   1.049   8.537 -0.4687 -0.0923 -0.7017
 3799TIP3    H132956   0.120   1.104   8.589 -0.9986 -1.1782 -0.1071
 3799TIP3    H232957   0.126   1.026   8.460 -0.4449 -0.1820 -0.6920
 3800TIP3   OH232958   1.379   0.959   0.525 -0.0060 -0.2420  0.6024
 3800TIP3    H132959   1.384   0.945   0.620 -0.8252 -1.0689  0.5422
 3800TIP3    H232960   1.415   0.878   0.488 -1.0926 -0.5811  0.2277
 3801TIP3   OH232961   5.957   5.994   8.346  0.3681 -0.0123 -0.1971
 3801TIP3    H132962   5.949   6.064   8.282  0.1272  0.7944  0.7031
 3801TIP3    H232963   6.040   5.951   8.324  0.9273  1.0705 -0.2480
 3802TIP3   OH232964   2.265   5.605   8.433  0.2254  0.3458  0.2298
 3802TIP3    H132965   2.213   5.673   8.391  0.3442  0.0404 -0.4249
 3802TIP3    H232966   2.238   5.524   8.388  0.5362  0.0508  0.5752
 3803TIP3   OH232967   6.104   4.617   1.599 -0.1760  0.2119 -0.3460
 3803TIP3    H132968   6.142   4.676   1.664  0.6040  0.8929 -1.3905
 3803TIP3    H232969   6.161   4.625   1.523 -0.5490 -1.2535 -0.8138
 3804TIP3   OH232970   5.936   6.663   1.337 -0.4992  0.8255 -0.3822
 3804TIP3    H132971   5.979   6.579   1.355  1.0701  1.9093  1.2918
 3804TIP3    H232972   5.954   6.680   1.245 -1.1603 -0.8229 -0.8506
 3805TIP3   OH232973   3.612   2.886   1.905  0.3194  0.2349 -0.2478
 3805TIP3    H132974   3.641   2.949   1.972 -0.0751  0.0909  0.0599
 3805TIP3    H232975   3.692   2.863   1.858  0.8918 -0.8292  1.1660
 3806TIP3   OH232976   0.609   4.432   8.431 -0.0227  0.1486  0.6792
 3806TIP3    H132977   0.628   4.376   8.355 -2.1337  0.5502 -0.2087
 3806TIP3    H232978   0.587   4.370   8.500 -2.7537 -0.2661 -0.4108
 3807TIP3   OH232979   1.153   3.333   0.928 -0.1464 -0.3103 -0.0494
 3807TIP3    H132980   1.068   3.351   0.888 -0.6450 -0.2044  1.0190
 3807TIP3    H232981   1.134   3.270   0.997  0.4287  0.7062  1.0719
 3808TIP3   OH232982   5.275   6.729   2.367  0.2545 -0.0804 -0.3347
 3808TIP3    H132983   5.203   6.769   2.415 -0.5263 -1.5859 -0.1898
 3808TIP3    H232984   5.353   6.746   2.420 -0.8617 -3.6482  2.8502
 3809TIP3   OH232985   0.226   2.535   2.594 -0.5155  0.3246  0.0955
 3809TIP3    H132986   0.233   2.521   2.500 -0.4692 -1.5771  0.3566
 3809TIP3    H232987   0.276   2.615   2.610 -2.8504  2.3802 -1.8564
 3810TIP3   OH232988   2.529   1.726   0.872  0.0805 -0.1613 -0.2524
 3810TIP3    H132989   2.465   1.737   0.943 -0.6794 -0.4188 -0.8738
 3810TIP3    H232990   2.599   1.673   0.910  0.0524  0.3472  0.5202
 3811TIP3   OH232991   1.693   1.734   7.255  0.1118 -0.0681  0.3305
 3811TIP3    H132992   1.692   1.830   7.251  0.2310  0.0927  2.9003
 3811TIP3    H232993   1.602   1.709   7.240  0.2233  0.3332 -1.2766
 3812TIP3   OH232994   6.254   0.395   7.039 -0.1845  0.3525  1.0230
 3812TIP3    H132995   6.239   0.427   6.950  2.7107 -0.9117 -0.0256
 3812TIP3    H232996   6.206   0.311   7.043  1.6512 -0.8175 -0.2700
 3813TIP3   OH232997   0.548   4.998   0.713  0.5064 -0.2048  0.0292
 3813TIP3    H132998   0.466   5.031   0.749 -1.0975 -3.0295 -0.7049
 3813TIP3    H232999   0.544   5.019   0.620  1.7579  1.6212  0.3285
 3814TIP3   OH233000   3.511   4.307   7.977 -0.0248 -0.2033 -0.1784
 3814TIP3    H133001   3.460   4.254   7.915  0.7365 -1.2093  0.0163
 3814TIP3    H233002   3.566   4.243   8.023  1.5401  0.8368 -0.4973
 3815TIP3   OH233003   1.783   3.558   7.172 -0.0484  0.2473 -0.3239
 3815TIP3    H133004   1.836   3.566   7.093  1.1444  0.7088  0.5036
 3815TIP3    H233005   1.716   3.494   7.149  2.4100 -2.4487 -0.6029
 3816TIP3   OH233006   2.822   3.797   0.954  0.2098 -0.3707  0.1814
 3816TIP3    H133007   2.730   3.782   0.979 -0.4888  1.5244 -1.0335
 3816TIP3    H233008   2.816   3.847   0.873  2.2363  2.8448  1.8185
 3817TIP3   OH233009   1.774   0.095   7.691 -0.1478  0.6892  0.4685
 3817TIP3    H133010   1.820   0.139   7.620 -0.5237  0.2053 -0.0829
 3817TIP3    H233011   1.833   0.102   7.766  0.4211  0.8613  0.0095
 3818TIP3   OH233012   0.631   6.363   7.250  0.3850 -0.3666  0.1983
 3818TIP3    H133013   0.667   6.350   7.162  1.4943 -1.0150  0.7240
 3818TIP3    H233014   0.574   6.287   7.264 -0.6373  0.2826 -0.3543
 3819TIP3   OH233015   0.104   4.848   7.646  0.2385 -0.4653 -0.2284
 3819TIP3    H133016   0.059   4.920   7.602  1.1036 -0.0881 -0.5129
 3819TIP3    H233017   0.151   4.803   7.576  0.0307 -1.0741  0.0106
 3820TIP3   OH233018   1.101   1.624   8.308  0.2325  0.1681 -0.1606
 3820TIP3    H133019   1.105   1.705   8.360 -0.4935  0.5944 -0.7397
 3820TIP3    H233020   1.189   1.614   8.272  0.9217 -0.4434  1.5665
 3821TIP3   OH233021   1.060   4.171   8.223 -0.4207  0.5083 -0.0777
 3821TIP3    H133022   1.052   4.200   8.314 -0.6462 -0.0186  0.0775
 3821TIP3    H233023   1.095   4.082   8.229  1.2114  1.0855 -0.5799
 3822TIP3   OH233024   5.391   2.401   7.775  0.0504 -0.0464 -0.1731
 3822TIP3    H133025   5.391   2.493   7.749 -1.1820 -0.3271 -1.2636
 3822TIP3    H233026   5.439   2.357   7.706  1.8520 -0.0893  1.0369
 3823TIP3   OH233027   6.300   4.958   7.622  0.1645 -0.2762 -0.0812
 3823TIP3    H133028   6.306   4.892   7.691  0.2684  0.9224  1.0710
 3823TIP3    H233029   6.375   4.939   7.565 -0.6434 -2.0784 -0.6511
 3824TIP3   OH233030   5.175   4.285   1.495 -0.2408 -0.1613  0.2223
 3824TIP3    H133031   5.247   4.334   1.455 -0.7687  0.0811 -0.4438
 3824TIP3    H233032   5.168   4.320   1.583  0.7193 -0.4685  0.4377
 3825TIP3   OH233033   0.629   5.335   2.721  0.1444  0.0037 -0.3024
 3825TIP3    H133034   0.719   5.358   2.744 -0.1874 -0.4187  1.5616
 3825TIP3    H233035   0.575   5.385   2.782 -0.9116  0.3351 -1.4682
 3826TIP3   OH233036   6.230   6.617   2.083 -0.2706  0.0160  0.3503
 3826TIP3    H133037   6.156   6.677   2.078  1.3150  2.0409 -0.2988
 3826TIP3    H233038   6.191   6.530   2.073 -2.4350  1.0462 -0.9974
 3827TIP3   OH233039   5.804   6.575   7.257  0.0959 -0.0858  0.6061
 3827TIP3    H133040   5.735   6.641   7.253 -0.0918 -0.0910  2.7939
 3827TIP3    H233041   5.758   6.491   7.255  0.2027 -0.1369 -0.0701
 3828TIP3   OH233042   0.655   0.374   7.359  0.1917 -0.3067  0.2877
 3828TIP3    H133043   0.560   0.379   7.364  0.0765  1.2512 -2.1008
 3828TIP3    H233044   0.683   0.464   7.339  2.0306 -0.9881 -0.4301
 3829TIP3   OH233045   1.588   0.126   1.127  0.0478  0.1491  0.3619
 3829TIP3    H133046   1.619   0.173   1.205  0.8957 -1.3809  0.9861
 3829TIP3    H233047   1.662   0.130   1.066 -0.4052  0.8411 -0.1574
 3830TIP3   OH233048   3.078   1.616   0.242 -0.1870 -0.4117  0.2386
 3830TIP3    H133049   3.036   1.670   0.175  0.6764  0.3814  0.3201
 3830TIP3    H233050   3.019   1.541   0.252 -0.6256 -0.2596 -0.9900
 3831TIP3   OH233051   2.255   1.882   2.277  0.2862  0.0838 -0.3893
 3831TIP3    H133052   2.306   1.946   2.227 -0.6405  1.3817  0.2846
 3831TIP3    H233053   2.248   1.919   2.365  0.4921 -1.3889  0.2850
 3832TIP3   OH233054   2.804   2.126   1.085 -0.0505 -0.0665 -0.2202
 3832TIP3    H133055   2.723   2.177   1.094  1.2554  1.9149  1.3633
 3832TIP3    H233056   2.819   2.121   0.991 -1.2091  0.8879 -0.4859
 3833TIP3   OH233057   5.207   1.907   0.747 -0.1823  0.6039  0.2931
 3833TIP3    H133058   5.112   1.901   0.747 -0.4125  2.5119 -1.8702
 3833TIP3    H233059   5.237   1.818   0.731 -1.5929 -0.0017  0.8671
 3834TIP3   OH233060   1.887   6.365   7.783 -0.0146 -0.0149 -0.1538
 3834TIP3    H133061   1.955   6.431   7.793  0.1909 -0.1848 -0.4129
 3834TIP3    H233062   1.929   6.294   7.735 -0.9643  0.7789 -2.2836
 3835TIP3   OH233063   5.387   0.870   7.709 -0.4767  0.8068  0.2028
 3835TIP3    H133064   5.434   0.798   7.750  2.0475  1.1965 -1.7574
 3835TIP3    H233065   5.439   0.947   7.730 -0.8495  1.4384 -1.1207
 3836TIP3   OH233066   2.332   2.525   8.093 -0.0742 -0.5243  0.0555
 3836TIP3    H133067   2.386   2.604   8.088 -0.9201  0.1289  1.0234
 3836TIP3    H233068   2.246   2.553   8.063 -0.5590 -0.8995  1.0671
 3837TIP3   OH233069   5.175   0.162   1.324  0.1843 -0.7561  0.4137
 3837TIP3    H133070   5.099   0.186   1.271 -0.0397 -0.8351  0.6966
 3837TIP3    H233071   5.191   0.070   1.303  1.5459 -0.1852 -1.2925
 3838TIP3   OH233072   6.457   5.760   2.459  0.1197  0.5528  0.5173
 3838TIP3    H133073   6.545   5.762   2.494  0.1920  1.4521  0.3044
 3838TIP3    H233074   6.429   5.668   2.468  1.4040  0.0680 -0.2511
 3839TIP3   OH233075   4.953   1.413   8.392 -0.0747  0.1821  0.3945
 3839TIP3    H133076   4.941   1.322   8.419 -0.7977  0.4260  0.9282
 3839TIP3    H233077   4.914   1.417   8.305 -0.4479  0.0829  0.5545
 3840TIP3   OH233078   6.461   0.490   8.152 -0.1978  0.4355 -0.1599
 3840TIP3    H133079   6.504   0.405   8.160 -1.5132 -0.1479  1.1183
 3840TIP3    H233080   6.486   0.538   8.231  1.6205  1.7998 -1.4879
 3841TIP3   OH233081   3.585   3.972   7.840  0.3653 -0.0083 -0.2018
 3841TIP3    H133082   3.532   3.905   7.797 -0.2559  0.4904 -0.2144
 3841TIP3    H233083   3.580   4.048   7.782 -0.0383  0.4954  0.4829
 3842TIP3   OH233084   6.007   4.121   0.963 -0.1220  0.2624  0.6187
 3842TIP3    H133085   5.997   4.069   0.883  0.6515  0.7246  0.2114
 3842TIP3    H233086   6.094   4.097   0.996  0.5738  1.8479  0.0099
 3843TIP3   OH233087   3.437   3.697   6.891 -0.4805  0.5669  0.0920
 3843TIP3    H133088   3.364   3.742   6.850 -0.3893 -0.0980 -0.8251
 3843TIP3    H233089   3.400   3.616   6.927  0.1934 -1.1756 -2.7772
 3844TIP3   OH233090   0.007   6.085   1.014 -0.4814 -0.4124  0.3975
 3844TIP3    H133091   0.064   6.078   0.937 -1.9861 -2.3311 -0.6332
 3844TIP3    H233092  -0.056   6.154   0.991 -1.6929 -1.8265 -0.6793
 3845TIP3   OH233093   0.784   0.104   2.026  0.1052 -0.1576  0.9853
 3845TIP3    H133094   0.731   0.168   2.072 -0.1214 -0.5420  1.2681
 3845TIP3    H233095   0.761   0.020   2.066 -1.5305 -0.7959 -1.0570
 3846TIP3   OH233096   3.673   1.532   1.461 -0.5280 -0.4725 -0.0318
 3846TIP3    H133097   3.764   1.541   1.432 -0.4673 -1.2327 -0.0869
 3846TIP3    H233098   3.661   1.438   1.473 -1.2425 -0.3544  0.1950
 3847TIP3   OH233099   5.952   4.251   0.244  0.5233  1.1986  0.0798
 3847TIP3    H133100   6.039   4.232   0.209  0.5674 -0.4555  0.9840
 3847TIP3    H233101   5.966   4.317   0.311  0.7601  2.5490 -1.2523
 3848TIP3   OH233102   4.807   4.942   0.468  0.2469  0.2501  0.3808
 3848TIP3    H133103   4.854   4.939   0.385  0.8276  1.7803  0.6265
 3848TIP3    H233104   4.796   4.850   0.493 -0.1604 -0.2375 -1.4954
 3849TIP3   OH233105   1.339   6.230   0.171 -0.1145 -0.4183 -0.5128
 3849TIP3    H133106   1.309   6.321   0.176  0.4561 -0.1410 -1.7624
 3849TIP3    H233107   1.388   6.225   0.089  0.7526 -1.5890  0.0391
 3850TIP3   OH233108   6.456   3.223   0.040 -0.5361  0.2154  0.0508
 3850TIP3    H133109   6.366   3.208   0.013 -0.2942 -1.8714  0.2769
 3850TIP3    H233110   6.508   3.212  -0.040 -0.3460 -0.2376  0.2311
 3851TIP3   OH233111   1.515   2.858   8.687  0.8592  0.0109  0.2577
 3851TIP3    H133112   1.568   2.937   8.677 -0.6206  1.0242 -0.0511
 3851TIP3    H233113   1.440   2.872   8.628  0.3012 -1.3939  0.5880
 3852TIP3   OH233114   3.980   5.001   7.171  0.1921 -0.3103  0.0770
 3852TIP3    H133115   4.039   4.979   7.098  0.0326 -2.7021  0.6041
 3852TIP3    H233116   4.026   4.971   7.249  0.2193  1.9483  1.0063
 3853TIP3   OH233117   4.465   0.065   0.500 -0.1214  0.7019  0.0002
 3853TIP3    H133118   4.557   0.043   0.518 -0.4899 -1.0238 -0.0098
 3853TIP3    H233119   4.416   0.023   0.570 -0.9856  0.5590 -0.6680
 3854TIP3   OH233120   2.411   1.444   7.045 -0.2804 -0.2227  0.9666
 3854TIP3    H133121   2.441   1.502   7.115 -1.2361 -1.0250  2.0710
 3854TIP3    H233122   2.329   1.483   7.016 -0.1545 -0.1899  0.6523
 3855TIP3   OH233123   5.366   5.797   2.125  0.1399  0.1447 -0.2209
 3855TIP3    H133124   5.452   5.794   2.167  1.2320  0.9455 -2.2874
 3855TIP3    H233125   5.347   5.706   2.103  1.0602  0.1059 -0.8813
 3856TIP3   OH233126   5.907   5.510   2.078 -0.0803 -0.4797 -0.0354
 3856TIP3    H133127   5.917   5.418   2.103 -2.7659 -1.0058 -0.5368
 3856TIP3    H233128   5.968   5.522   2.006  0.6738 -1.7386  0.3592
 3857TIP3   OH233129   2.142   5.235   8.648  0.3005 -0.2042 -0.8560
 3857TIP3    H133130   2.095   5.282   8.716  0.5158  0.5307 -1.2054
 3857TIP3    H233131   2.078   5.220   8.579 -0.0309 -1.3277 -0.3311
 3858TIP3   OH233132   1.116   2.647   0.331  0.1018  0.2040  0.8497
 3858TIP3    H133133   1.152   2.559   0.345  1.7773  0.7475  0.2129
 3858TIP3    H233134   1.130   2.692   0.414  0.8977  0.4044  0.6132
 3859TIP3   OH233135   2.473   4.952   1.591  0.5750  0.1093 -0.2016
 3859TIP3    H133136   2.426   4.868   1.589 -0.3934  0.6336 -2.5853
 3859TIP3    H233137   2.541   4.939   1.658 -1.9049 -1.2217  2.2863
 3860TIP3   OH233138   5.966   6.423   7.881 -0.0015 -0.3866  0.1464
 3860TIP3    H133139   6.020   6.450   7.807 -1.7124 -1.6643 -1.6630
 3860TIP3    H233140   5.899   6.491   7.888 -0.4031 -0.7490 -0.1180
 3861TIP3   OH233141   1.362   4.854   2.381  0.1487  0.0708 -0.1995
 3861TIP3    H133142   1.437   4.891   2.428  0.6735 -1.6303  0.3547
 3861TIP3    H233143   1.331   4.782   2.436 -1.8471  0.6385 -0.4803
 3862TIP3   OH233144   0.828   2.748   1.988  0.5309  0.5937  0.1338
 3862TIP3    H133145   0.917   2.780   1.998  0.5750  0.1694  1.2241
 3862TIP3    H233146   0.785   2.769   2.071 -0.0773 -0.1285  0.0176
 3863TIP3   OH233147   2.281   5.923   1.186 -0.0937 -0.1580 -0.0881
 3863TIP3    H133148   2.278   5.844   1.240 -0.6404 -1.4064 -1.8423
 3863TIP3    H233149   2.224   5.903   1.111  0.3258  1.6295 -0.9431
 3864TIP3   OH233150   2.766   0.354   0.604  0.4651  0.6045  0.1535
 3864TIP3    H133151   2.680   0.349   0.563  0.5984 -0.1881 -0.0420
 3864TIP3    H233152   2.827   0.340   0.532  0.7777  1.6124  0.2100
 3865TIP3   OH233153   0.039   0.833   1.684  0.0606 -0.1355 -0.2111
 3865TIP3    H133154   0.013   0.879   1.765 -0.3302  1.7075 -1.3107
 3865TIP3    H233155   0.126   0.868   1.664 -0.3420  0.3311 -1.2024
 3866TIP3   OH233156   5.926   0.760   8.434 -0.0837  0.5855  0.2253
 3866TIP3    H133157   5.986   0.758   8.359 -1.9404 -2.4761 -1.3971
 3866TIP3    H233158   5.954   0.686   8.489 -0.6062  0.9067  0.9371
 3867TIP3   OH233159   0.291   5.941   2.287  0.1677  0.2895 -0.1998
 3867TIP3    H133160   0.267   5.849   2.304  1.2280  0.2633  1.3731
 3867TIP3    H233161   0.216   5.991   2.320  0.0001  0.0227 -0.1692
 3868TIP3   OH233162   5.406   1.870   7.314  0.1834  0.3170 -0.5802
 3868TIP3    H133163   5.424   1.822   7.233  3.2510  0.6037 -0.1667
 3868TIP3    H233164   5.394   1.802   7.380  0.0403  0.1011 -0.8261
 3869TIP3   OH233165   3.718   1.185   0.373 -0.5989 -0.3857 -0.0132
 3869TIP3    H133166   3.697   1.105   0.422 -0.2965 -0.1752  0.4660
 3869TIP3    H233167   3.639   1.202   0.322 -1.6369  0.3588  1.7304
 3870TIP3   OH233168   3.912   0.370   0.289  0.0901  0.1317  0.5655
 3870TIP3    H133169   3.932   0.461   0.267  0.2351  0.1867  0.9158
 3870TIP3    H233170   3.954   0.319   0.219  2.7003  0.1584  1.9630
 3871TIP3   OH233171   3.159   4.634   1.297  0.0008  0.3305  0.3536
 3871TIP3    H133172   3.191   4.722   1.318 -0.6478  0.4496  0.8589
 3871TIP3    H233173   3.121   4.643   1.209  1.0456  0.2578 -0.1226
 3872TIP3   OH233174   1.088   2.486   3.145  0.0818  0.1073  0.0356
 3872TIP3    H133175   1.007   2.460   3.100  0.1900 -3.2030  1.4583
 3872TIP3    H233176   1.158   2.450   3.091  0.4646  0.3690  0.3556
 3873TIP3   OH233177   3.513   4.884   1.865  0.1491  0.2206 -0.3439
 3873TIP3    H133178   3.425   4.849   1.855  0.3418 -0.0949 -0.9723
 3873TIP3    H233179   3.543   4.901   1.776  0.0099  2.1666 -0.0610
 3874TIP3   OH233180   6.258   3.922   1.064  0.0503 -0.3829 -0.7453
 3874TIP3    H133181   6.294   4.010   1.078 -0.7563 -0.1394 -0.0833
 3874TIP3    H233182   6.295   3.894   0.980 -1.9537  1.8186 -2.5522
 3875TIP3   OH233183   1.974   5.575   1.285  0.1034 -0.0461  0.2333
 3875TIP3    H133184   1.903   5.548   1.344 -1.6399 -1.1997 -2.1951
 3875TIP3    H233185   2.002   5.494   1.244  1.7139  0.6418 -0.0845
 3876TIP3   OH233186   3.897   2.926   2.085 -0.1240 -0.8349  0.1291
 3876TIP3    H133187   3.947   2.992   2.133  0.5785 -1.1020 -0.2230
 3876TIP3    H233188   3.852   2.876   2.153  2.7509 -2.7812  0.7927
 3877TIP3   OH233189   6.554   0.421   0.410 -0.2091 -0.2699  0.0909
 3877TIP3    H133190   6.564   0.408   0.316  1.2352  0.3822  0.1201
 3877TIP3    H233191   6.575   0.336   0.448 -2.2996 -0.9631 -0.2174
 3878TIP3   OH233192   0.689   5.368   0.707 -0.2909  0.2684 -0.1605
 3878TIP3    H133193   0.778   5.358   0.743  0.3534  0.0247 -1.7615
 3878TIP3    H233194   0.641   5.415   0.775  0.7959 -0.4383  1.1466
 3879TIP3   OH233195   2.223   1.602   7.803 -0.5011 -0.8203 -0.3762
 3879TIP3    H133196   2.298   1.578   7.858 -1.1921 -3.8629 -0.5967
 3879TIP3    H233197   2.250   1.683   7.760  1.1283  0.2286  2.3596
 3880TIP3   OH233198   2.526   1.518   2.253  1.5226 -0.4811 -0.0177
 3880TIP3    H133199   2.513   1.574   2.330 -0.2437  0.8465 -1.1854
 3880TIP3    H233200   2.577   1.573   2.193  2.1916 -1.1954 -0.1057
 3881TIP3   OH233201   6.065   4.965   1.637 -0.4010  0.6786  0.0254
 3881TIP3    H133202   6.134   4.907   1.605 -0.0742  0.6911  0.6914
 3881TIP3    H233203   6.094   4.992   1.724 -0.8247  1.3845 -0.0378
 3882TIP3   OH233204   2.494   0.944   2.702 -0.2038 -0.0657  0.1267
 3882TIP3    H133205   2.512   0.864   2.750  1.2457  0.2257  0.1029
 3882TIP3    H233206   2.478   0.915   2.612 -0.5605 -0.3918  0.2914
 3883TIP3   OH233207   4.801   5.652   0.178  0.3908  0.1778 -0.2327
 3883TIP3    H133208   4.713   5.614   0.173  0.0356  0.9185  0.2072
 3883TIP3    H233209   4.790   5.729   0.233  1.3338  0.2487 -0.1366
 3884TIP3   OH233210   5.871   4.209   7.612  0.0458 -0.6212  0.1256
 3884TIP3    H133211   5.865   4.181   7.703 -0.4511  1.1459  0.6651
 3884TIP3    H233212   5.780   4.207   7.581  0.3176 -2.1973 -0.6757
 3885TIP3   OH233213   0.157   5.631   1.399 -0.2475  0.6117  0.3868
 3885TIP3    H133214   0.207   5.571   1.344 -1.1798  1.0612 -1.0048
 3885TIP3    H233215   0.217   5.703   1.419  0.6593 -0.4174  1.4992
 3886TIP3   OH233216   2.899   6.484   7.907 -0.5759  0.0367 -0.1850
 3886TIP3    H133217   2.832   6.464   7.973 -0.9714  0.2145 -0.5284
 3886TIP3    H233218   2.936   6.567   7.936  0.2701 -0.5977  0.6107
 3887TIP3   OH233219   0.376   4.533   2.705  0.1424 -0.3789  0.0423
 3887TIP3    H133220   0.457   4.573   2.676 -0.3147 -0.3635 -1.2826
 3887TIP3    H233221   0.358   4.465   2.641  1.1137 -3.1046  2.4421
 3888TIP3   OH233222   1.726   2.096   0.912 -0.1048  0.6461 -0.6303
 3888TIP3    H133223   1.788   2.123   0.980  0.6028  0.1240 -1.0575
 3888TIP3    H233224   1.710   2.176   0.861  2.1466  0.3105 -2.0211
 3889TIP3   OH233225   0.489   1.609   1.238 -0.0234  0.5356 -0.6055
 3889TIP3    H133226   0.566   1.645   1.194 -0.4258  0.1743 -1.6352
 3889TIP3    H233227   0.434   1.685   1.256  0.0406  0.6622 -0.9421
 3890TIP3   OH233228   6.365   0.571   2.526 -0.7504 -0.8289 -0.0907
 3890TIP3    H133229   6.450   0.535   2.499 -0.2566 -0.7639  1.2537
 3890TIP3    H233230   6.301   0.515   2.482 -0.0377 -0.4449 -1.6872
 3891TIP3   OH233231   0.408   6.293   6.869 -0.8181  0.2580 -0.1235
 3891TIP3    H133232   0.430   6.334   6.785  1.9272  0.2145  0.4897
 3891TIP3    H233233   0.451   6.207   6.865 -3.6142 -1.2724 -0.0178
 3892TIP3   OH233234   5.325   0.704   0.640  0.0828 -0.3159  0.2440
 3892TIP3    H133235   5.353   0.658   0.719 -0.3997  1.1715  1.3155
 3892TIP3    H233236   5.404   0.710   0.586  0.9657  0.5351  1.5757
 3893TIP3   OH233237   2.127   1.683   8.482  0.2225  0.8348  0.0627
 3893TIP3    H133238   2.093   1.740   8.551 -1.4588  0.0078 -0.0363
 3893TIP3    H233239   2.213   1.720   8.462  0.5791  1.3757  2.2569
 3894TIP3   OH233240   2.496   4.483   7.703  0.2232 -0.1534 -0.7566
 3894TIP3    H133241   2.541   4.543   7.643  1.3654  1.3006  1.4159
 3894TIP3    H233242   2.440   4.540   7.755 -0.5180 -1.3274 -0.2363
 3895TIP3   OH233243   0.123   6.313   0.845 -0.4700  0.5565  0.1674
 3895TIP3    H133244   0.155   6.326   0.934 -0.2265  0.4304  0.0987
 3895TIP3    H233245   0.190   6.260   0.802  0.3104  2.1278 -0.6383
 3896TIP3   OH233246   4.071   1.239   1.006  0.5141  0.1594  0.2855
 3896TIP3    H133247   4.063   1.255   0.912 -0.5623  1.4871  0.5600
 3896TIP3    H233248   4.078   1.327   1.044  2.1972 -0.4042  1.3682
 3897TIP3   OH233249   2.444   3.739   1.516 -0.2255  0.0856 -1.1079
 3897TIP3    H133250   2.521   3.757   1.462  0.1530 -0.0448 -0.6217
 3897TIP3    H233251   2.422   3.824   1.556  1.1342 -0.3310  0.6347
 3898TIP3   OH233252   6.377   4.328   6.964 -0.1529 -0.9274 -0.1710
 3898TIP3    H133253   6.318   4.273   7.015 -0.1634 -0.6226  0.1439
 3898TIP3    H233254   6.444   4.355   7.026 -0.3188 -0.3264 -0.2532
 3899TIP3   OH233255   0.035   0.990   7.306 -0.1991  0.5123 -0.7785
 3899TIP3    H133256  -0.042   0.936   7.323 -0.0900  0.8713  1.1689
 3899TIP3    H233257   0.023   1.067   7.362  0.1393  2.0498 -2.7251
 3900TIP3   OH233258   2.316   5.671   0.461 -0.5264 -0.3665  0.0581
 3900TIP3    H133259   2.223   5.647   0.463 -0.7265  0.4671  1.1910
 3900TIP3    H233260   2.343   5.671   0.552  0.1225  1.1726 -0.1022
 3901TIP3   OH233261   2.690   1.068   2.449 -0.0843  0.1366  0.2299
 3901TIP3    H133262   2.723   1.117   2.374 -0.9373  1.6252  0.7927
 3901TIP3    H233263   2.710   1.122   2.525  2.6280 -2.2626  1.4093
 3902TIP3   OH233264   4.761   3.708   1.935 -0.2287 -0.0147 -0.4845
 3902TIP3    H133265   4.725   3.794   1.960  0.7845  0.1945  0.3115
 3902TIP3    H233266   4.815   3.683   2.009 -0.1116 -1.1240 -0.9361
 3903TIP3   OH233267   4.182   6.399   8.438 -0.4795  0.5409  0.1918
 3903TIP3    H133268   4.161   6.358   8.522  1.2287  0.5654  0.6775
 3903TIP3    H233269   4.099   6.436   8.407 -2.3675 -3.7789 -0.6144
 3904TIP3   OH233270   4.337   5.903   0.744 -0.0455 -0.2711  0.0694
 3904TIP3    H133271   4.353   5.935   0.833  2.6619 -2.5267  0.5247
 3904TIP3    H233272   4.244   5.880   0.744 -0.3142  0.5763  2.0180
 3905TIP3   OH233273   0.545   3.498   2.081 -0.5730 -0.1680 -0.1214
 3905TIP3    H133274   0.536   3.552   2.003 -0.0019  1.2745  0.7764
 3905TIP3    H233275   0.477   3.529   2.140 -1.1344 -1.3896 -0.0901
 3906TIP3   OH233276   1.252   6.444   8.654  0.3157 -0.5396  0.2592
 3906TIP3    H133277   1.227   6.528   8.616  1.1758 -0.3831  0.0010
 3906TIP3    H233278   1.310   6.405   8.588  1.3767 -0.5156  1.1518
 3907TIP3   OH233279   2.222   0.312   7.569 -0.4479 -0.4237 -0.0791
 3907TIP3    H133280   2.228   0.362   7.651 -0.2282  0.8593 -0.8397
 3907TIP3    H233281   2.145   0.258   7.580 -0.3054 -0.4345  1.0582
 3908TIP3   OH233282   2.768   2.513   0.409 -0.4957  0.4286 -0.2464
 3908TIP3    H133283   2.802   2.431   0.373 -1.0799 -0.2744  0.7405
 3908TIP3    H233284   2.845   2.559   0.441 -0.0012  0.9228 -2.0358
 3909TIP3   OH233285   4.966   4.438   0.291 -0.0079 -0.1358 -0.6726
 3909TIP3    H133286   4.963   4.499   0.217 -0.4277  0.8658  0.1571
 3909TIP3    H233287   4.883   4.389   0.285 -0.4816  0.6068 -0.3232
 3910TIP3   OH233288   2.765   3.964   8.339  0.0173  0.2440 -0.5010
 3910TIP3    H133289   2.673   3.983   8.354  0.3946  2.2436 -0.4296
 3910TIP3    H233290   2.792   4.025   8.270  1.5302  0.4687  0.2359
 3911TIP3   OH233291   3.710   3.562   0.254  0.2167 -0.1498 -0.0223
 3911TIP3    H133292   3.616   3.578   0.251 -0.0526 -1.6429 -1.6315
 3911TIP3    H233293   3.736   3.554   0.162  1.4951 -1.7980  0.4216
 3912TIP3   OH233294   4.012   6.146   8.053 -0.4030  0.1513 -0.4795
 3912TIP3    H133295   4.065   6.101   7.987 -0.6724  0.2962 -0.7964
 3912TIP3    H233296   4.058   6.229   8.068  0.2426 -0.3312  0.3028
 3913TIP3   OH233297   1.373   4.992   6.726 -0.3702 -0.0365 -0.5452
 3913TIP3    H133298   1.362   4.956   6.638 -1.6219  0.4419 -0.6100
 3913TIP3    H233299   1.402   4.919   6.779  1.0559 -0.1927 -1.4718
 3914TIP3   OH233300   1.651   3.773   2.391  0.4565  0.6480  0.3325
 3914TIP3    H133301   1.562   3.766   2.357  1.2887  1.1371 -2.1352
 3914TIP3    H233302   1.675   3.683   2.414 -1.2082  0.7223  2.7261
 3915TIP3   OH233303   0.089   0.400   1.619  0.1175 -0.3416  1.1349
 3915TIP3    H133304   0.064   0.344   1.693  1.5979 -0.6162  1.4624
 3915TIP3    H233305   0.181   0.419   1.634  0.6698 -1.0154 -1.0166
 3916TIP3   OH233306   6.300   5.240   7.666 -0.1480  0.1448  0.2004
 3916TIP3    H133307   6.266   5.150   7.667 -0.3502  0.1522 -1.8068
 3916TIP3    H233308   6.229   5.293   7.701 -0.1487 -0.4274  1.1010
 3917TIP3   OH233309   6.252   1.343   8.430 -0.3469 -0.1234  0.2256
 3917TIP3    H133310   6.291   1.430   8.435  1.0705 -0.6875 -0.4511
 3917TIP3    H233311   6.220   1.336   8.340  0.4800 -0.6547 -0.0433
 3918TIP3   OH233312   2.382   1.716   1.127  0.1177  0.1201 -0.6532
 3918TIP3    H133313   2.414   1.628   1.148 -1.5988 -0.1685  1.0703
 3918TIP3    H233314   2.294   1.719   1.164 -0.1844  2.3139 -1.3829
 3919TIP3   OH233315   4.712   1.645   2.058 -0.2506  0.6758 -0.1912
 3919TIP3    H133316   4.756   1.616   1.978  0.6000  2.2624 -0.3329
 3919TIP3    H233317   4.652   1.713   2.029 -1.3602 -0.0531  0.2937
 3920TIP3   OH233318   4.648   4.352   7.116 -0.3179 -0.4988  0.5056
 3920TIP3    H133319   4.553   4.347   7.121 -0.3258 -1.6586 -0.4500
 3920TIP3    H233320   4.671   4.307   7.034  0.8273  2.7431 -1.1360
 3921TIP3   OH233321   0.338   2.463   0.888  0.5222  0.1721 -0.4496
 3921TIP3    H133322   0.350   2.373   0.856  0.2985  0.3124 -0.9345
 3921TIP3    H233323   0.385   2.517   0.826  0.3558  0.4231 -0.3595
 3922TIP3   OH233324   6.298   4.195   8.524  0.2899  0.4518 -0.7544
 3922TIP3    H133325   6.360   4.255   8.565  1.0069  0.2366 -1.5116
 3922TIP3    H233326   6.348   4.115   8.510 -0.9985 -0.8242  1.4314
 3923TIP3   OH233327   6.329   6.158   7.836  0.1778 -0.0220  0.3500
 3923TIP3    H133328   6.416   6.122   7.824 -0.1731 -1.2753  1.3637
 3923TIP3    H233329   6.294   6.167   7.747  1.1290 -0.0181 -0.0312
 3924TIP3   OH233330   0.462   1.704   7.828  0.0252  0.6208  0.2350
 3924TIP3    H133331   0.416   1.784   7.801 -0.8700 -0.1972 -0.7824
 3924TIP3    H233332   0.486   1.719   7.919 -1.3364  1.5105  0.4714
 3925TIP3   OH233333   4.668   2.422   0.368  0.3928  0.0801 -0.2353
 3925TIP3    H133334   4.598   2.478   0.336  1.1011  1.0465 -0.1680
 3925TIP3    H233335   4.690   2.366   0.294  0.3324  0.5839 -0.6432
 3926TIP3   OH233336   2.174   5.996   2.240  0.4025 -0.1393  0.2566
 3926TIP3    H133337   2.135   6.082   2.227 -0.4838 -0.7814 -1.6419
 3926TIP3    H233338   2.268   6.011   2.232  0.2021  0.5073 -1.1541
 3927TIP3   OH233339   6.592   0.105   0.224 -0.4258  0.2172 -0.3047
 3927TIP3    H133340   6.519   0.166   0.210  1.1621  2.9316  2.1302
 3927TIP3    H233341   6.656   0.128   0.156 -0.5417  0.0416 -0.4736
 3928TIP3   OH233342   0.880   5.138   8.469 -0.0111  0.0365  0.1099
 3928TIP3    H133343   0.799   5.129   8.420 -0.6479 -1.1661  1.3095
 3928TIP3    H233344   0.938   5.072   8.432  0.6237  1.2204 -1.0726
 3929TIP3   OH233345   0.007   2.740   0.984 -0.4459  0.1977 -0.1760
 3929TIP3    H133346   0.054   2.681   1.043  0.9055  0.7542 -0.6453
 3929TIP3    H233347   0.021   2.703   0.897 -0.7905  0.4349 -0.3351
 3930TIP3   OH233348   1.955   0.419   0.047 -0.0896  0.3808  0.1875
 3930TIP3    H133349   1.916   0.416   0.134  1.1056  0.9993  0.7729
 3930TIP3    H233350   1.902   0.481  -0.002 -1.7002 -1.0974 -0.0332
 3931TIP3   OH233351   6.725   4.692   7.679  0.4053 -0.3319  0.0131
 3931TIP3    H133352   6.818   4.716   7.683  0.8132 -1.9279  2.0832
 3931TIP3    H233353   6.697   4.692   7.771 -1.6853  0.1702 -0.5755
 3932TIP3   OH233354   2.497   3.044   7.638 -0.5745  0.0767 -0.0955
 3932TIP3    H133355   2.506   3.013   7.728 -0.5713  1.5477  0.4515
 3932TIP3    H233356   2.409   3.082   7.635 -0.7559 -0.3884 -0.8563
 3933TIP3   OH233357   5.970   3.797   8.181  0.1137 -0.5966 -0.0875
 3933TIP3    H133358   5.901   3.808   8.116  1.5133  0.0369 -1.5214
 3933TIP3    H233359   5.923   3.790   8.265 -1.7845 -2.2705 -1.1934
 3934TIP3   OH233360   0.574   3.458   0.684 -0.0551  0.1193  0.1354
 3934TIP3    H133361   0.633   3.384   0.672 -0.0729  0.2966 -1.1441
 3934TIP3    H233362   0.530   3.468   0.600 -0.5535  1.1589  0.5012
 3935TIP3   OH233363   0.396   0.748   1.636 -0.3465  0.4563  0.3581
 3935TIP3    H133364   0.339   0.793   1.698  0.7245  0.1299  1.6336
 3935TIP3    H233365   0.361   0.659   1.631 -1.1529  0.7986 -0.4761
 3936TIP3   OH233366   5.756   2.602   1.868  0.2677  0.5131 -0.1891
 3936TIP3    H133367   5.823   2.534   1.873  0.1195  0.4458  1.0388
 3936TIP3    H233368   5.738   2.626   1.959  1.6710  3.5600 -0.5772
 3937TIP3   OH233369   6.411   6.450   0.442  0.0632 -0.1604 -0.0640
 3937TIP3    H133370   6.461   6.521   0.402 -0.0317 -1.3358 -2.4273
 3937TIP3    H233371   6.340   6.432   0.380 -0.3246 -1.8395  0.7975
 3938TIP3   OH233372   6.265   3.234   2.024  0.3744 -0.3487 -0.2538
 3938TIP3    H133373   6.309   3.194   1.949 -0.6493  0.3282 -1.2534
 3938TIP3    H233374   6.278   3.328   2.011 -0.0260 -0.2146  0.2863
 3939TIP3   OH233375   1.908   1.681   1.131  0.3083 -0.0697 -0.1804
 3939TIP3    H133376   1.838   1.746   1.125 -0.9519 -1.4265 -1.2606
 3939TIP3    H233377   1.930   1.662   1.040  0.8714 -0.9195  0.1225
 3940TIP3   OH233378   0.403   0.525   0.848  0.4825  0.6987 -0.0485
 3940TIP3    H133379   0.387   0.486   0.934 -0.9439  2.0431  0.3507
 3940TIP3    H233380   0.464   0.466   0.805  1.0085 -0.1441  1.7886
 3941TIP3   OH233381   3.717   0.934   7.926  0.0822  0.8440  0.3812
 3941TIP3    H133382   3.679   0.855   7.964  0.2739  1.2521  1.4602
 3941TIP3    H233383   3.706   0.923   7.831  0.7940 -0.8120  0.4645
 3942TIP3   OH233384   6.482   1.286   2.058 -0.2994  0.6134 -1.0089
 3942TIP3    H133385   6.486   1.368   2.008 -0.3305  1.2898  0.0824
 3942TIP3    H233386   6.451   1.311   2.144  0.8485 -0.3763 -0.2726
 3943TIP3   OH233387   1.349   2.573   0.683 -0.1561 -0.1085 -0.1678
 3943TIP3    H133388   1.327   2.483   0.708 -2.2586 -0.1869 -1.9502
 3943TIP3    H233389   1.407   2.563   0.608  0.1181  0.0477  0.0215
 3944TIP3   OH233390   1.141   3.404   1.873 -0.0966  0.2608 -0.0217
 3944TIP3    H133391   1.124   3.399   1.778 -0.4581 -0.2441  0.0661
 3944TIP3    H233392   1.177   3.319   1.895 -1.0114 -0.0080  0.4822
 3945TIP3   OH233393   4.831   5.357   0.299  0.6392 -0.3410  0.4583
 3945TIP3    H133394   4.827   5.452   0.302  0.6927 -0.2919 -0.6020
 3945TIP3    H233395   4.851   5.336   0.208  0.5559 -1.3714  0.6554
 3946TIP3   OH233396   3.129   1.245   8.068 -0.2638 -0.0219  0.5299
 3946TIP3    H133397   3.092   1.321   8.023  0.3739 -0.2263 -0.3728
 3946TIP3    H233398   3.070   1.173   8.045  0.1937 -0.1752 -0.2102
 3947TIP3   OH233399   0.765   3.864   0.629  0.5490 -0.0914 -0.7521
 3947TIP3    H133400   0.783   3.929   0.562 -0.8256 -1.5118 -2.6114
 3947TIP3    H233401   0.749   3.783   0.581  0.8282 -1.5055  1.3833
 3948TIP3   OH233402   0.897   6.659   7.412  0.2291  0.5868  0.2693
 3948TIP3    H133403   0.883   6.683   7.321 -1.4380 -0.0264  0.3142
 3948TIP3    H233404   0.929   6.569   7.409  2.4183  1.3240  0.2422
 3949TIP3   OH233405   2.821   0.921   0.936 -0.1604 -0.1926  0.3204
 3949TIP3    H133406   2.753   0.869   0.978 -0.2053  0.3736  0.9679
 3949TIP3    H233407   2.890   0.858   0.914  0.2671 -0.3899  2.0795
 3950TIP3   OH233408   0.855   4.946   0.530 -0.3738 -0.4420  0.3247
 3950TIP3    H133409   0.825   4.856   0.538 -1.5576 -0.0202  0.9504
 3950TIP3    H233410   0.775   4.998   0.539  0.4826  0.7254  1.4445
 3951TIP3   OH233411   1.522   0.555   1.440  0.1899 -0.1410 -0.3228
 3951TIP3    H133412   1.520   0.464   1.468  1.7335 -0.0533  0.1860
 3951TIP3    H233413   1.589   0.557   1.371  0.0192  0.5693 -0.4741
 3952TIP3   OH233414   5.352   3.576   2.175 -0.4371 -0.1287 -0.0540
 3952TIP3    H133415   5.430   3.525   2.153 -0.6784  0.5210 -2.8022
 3952TIP3    H233416   5.300   3.575   2.095 -1.2681  2.9704  0.3394
 3953TIP3   OH233417   6.590   3.672   1.770  0.4122 -0.1434 -0.4920
 3953TIP3    H133418   6.609   3.634   1.684 -2.4259 -2.4538 -0.2416
 3953TIP3    H233419   6.517   3.732   1.754  0.2662 -0.1199  0.2271
 3954TIP3   OH233420   3.395   5.426   8.175 -0.7241  0.9438  0.1971
 3954TIP3    H133421   3.348   5.507   8.158 -0.0837  1.3568  0.3556
 3954TIP3    H233422   3.462   5.450   8.239 -2.7751 -0.4476  3.1111
 3955TIP3   OH233423   0.419   0.493   2.618 -0.5632 -0.5159  0.2866
 3955TIP3    H133424   0.515   0.502   2.616 -0.5755 -0.5392 -1.0041
 3955TIP3    H233425   0.403   0.421   2.679  0.2044 -0.2000  0.8880
 3956TIP3   OH233426   3.584   5.844   0.211 -0.9891 -0.6252 -0.2595
 3956TIP3    H133427   3.600   5.889   0.128  2.0201 -0.9763  0.0154
 3956TIP3    H233428   3.643   5.887   0.273 -1.3349 -2.0180  1.0774
 3957TIP3   OH233429   6.505   2.735   7.430  0.1836 -0.4258 -0.0496
 3957TIP3    H133430   6.410   2.729   7.441  0.0836 -0.1683 -0.7029
 3957TIP3    H233431   6.534   2.645   7.414  0.0290 -0.4885  0.0303
 3958TIP3   OH233432   2.285   3.606   6.898  0.0751  0.1490 -0.1324
 3958TIP3    H133433   2.334   3.524   6.909  0.1952  0.3958  1.3115
 3958TIP3    H233434   2.324   3.646   6.819  0.9577 -0.5202 -0.0573
 3959TIP3   OH233435   5.262   1.173   7.632 -0.1331  0.4930  0.1936
 3959TIP3    H133436   5.175   1.149   7.600 -2.3019  4.6552  2.1246
 3959TIP3    H233437   5.262   1.147   7.724  0.8283  0.2812  0.1429
 3960TIP3   OH233438   2.602   0.699   0.514 -0.0091 -0.7807  1.1726
 3960TIP3    H133439   2.545   0.770   0.545 -1.1615 -1.5114  0.8067
 3960TIP3    H233440   2.672   0.694   0.580 -0.6639 -0.2027  1.9337
 3961TIP3   OH233441   6.380   2.743   8.023  0.6044  0.5263  0.0704
 3961TIP3    H133442   6.328   2.681   8.073  1.3327 -0.9565 -0.9418
 3961TIP3    H233443   6.337   2.828   8.037 -0.4847 -0.2136  1.3754
 3962TIP3   OH233444   5.606   2.717   8.447  0.1407 -0.0913  0.0776
 3962TIP3    H133445   5.513   2.740   8.438 -0.2553 -1.9337 -0.9314
 3962TIP3    H233446   5.608   2.649   8.515  0.8505  0.3736  0.5391
 3963TIP3   OH233447   4.927   5.361   8.683  0.0127  0.0505 -0.3007
 3963TIP3    H133448   4.964   5.285   8.637 -0.0022  0.6511 -1.3360
 3963TIP3    H233449   4.994   5.429   8.674  0.2185  0.0462  1.0041
 3964TIP3   OH233450   3.602   3.852   1.666 -0.3131 -0.5077 -0.1843
 3964TIP3    H133451   3.531   3.912   1.643  0.5174  1.0051  1.0386
 3964TIP3    H233452   3.558   3.770   1.690 -1.7617  0.7347  1.6603
 3965TIP3   OH233453   1.263   2.539   7.670 -0.5681 -0.0846 -0.2303
 3965TIP3    H133454   1.209   2.548   7.749 -0.7155 -2.9184  0.0626
 3965TIP3    H233455   1.204   2.560   7.598 -1.1413  0.0217  0.2643
 3966TIP3   OH233456   3.042   6.306   0.368  0.0943 -0.0964 -0.1298
 3966TIP3    H133457   3.092   6.379   0.330  0.2878  0.3552  0.9709
 3966TIP3    H233458   3.060   6.310   0.461 -0.9554 -0.7438  0.1215
 3967TIP3   OH233459   3.974   6.611   7.275  0.1042  0.1335  0.8565
 3967TIP3    H133460   4.057   6.565   7.266 -0.4180 -0.6202 -0.4885
 3967TIP3    H233461   3.995   6.703   7.259  0.6401 -0.0807  0.3067
 3968TIP3   OH233462   5.530   3.611   2.959  0.5399 -0.0894  0.4426
 3968TIP3    H133463   5.606   3.568   2.999  0.8197  0.1450  0.1641
 3968TIP3    H233464   5.565   3.690   2.919  0.3420 -0.5441 -0.6615
 3969TIP3   OH233465   2.868   3.387   0.533 -0.4760 -0.7749 -0.6376
 3969TIP3    H133466   2.860   3.303   0.578  1.9058 -0.2360  0.9818
 3969TIP3    H233467   2.962   3.395   0.515 -0.7403  1.2582 -1.3115
 3970TIP3   OH233468   2.347   1.934   7.944  0.1682 -0.4568 -0.2691
 3970TIP3    H133469   2.280   1.972   7.887 -0.4424 -2.4493 -0.9793
 3970TIP3    H233470   2.406   1.887   7.885 -0.0390 -1.9344  0.6323
 3971TIP3   OH233471   3.116   5.939   8.421 -0.0606  0.6729  0.4816
 3971TIP3    H133472   3.121   5.982   8.507  1.5240 -0.2613  0.8942
 3971TIP3    H233473   3.026   5.952   8.393 -0.3747  1.7620  1.8934
 3972TIP3   OH233474   0.377   6.276   7.982 -0.2492 -0.3385 -0.3196
 3972TIP3    H133475   0.338   6.199   8.023  1.9184 -0.2203  2.2367
 3972TIP3    H233476   0.427   6.318   8.052 -2.7972  4.5501 -0.9660
 3973TIP3   OH233477   0.386   0.504   8.698 -1.1708 -0.0427  0.2527
 3973TIP3    H133478   0.333   0.580   8.722 -2.3270 -0.4376 -0.9435
 3973TIP3    H233479   0.472   0.541   8.677 -0.8310  0.5816  2.4491
 3974TIP3   OH233480   6.473   0.349   7.712 -0.4696 -0.3313  0.0616
 3974TIP3    H133481   6.505   0.260   7.699 -0.3457 -0.1824 -0.6477
 3974TIP3    H233482   6.428   0.371   7.631 -2.6567 -0.6449  1.1007
 3975TIP3   OH233483   0.647   6.451   1.565 -0.3623  0.3268 -0.6848
 3975TIP3    H133484   0.557   6.462   1.595  0.0317  0.4720  0.4963
 3975TIP3    H233485   0.674   6.537   1.534 -0.0908  0.7001  0.5404
 3976TIP3   OH233486   6.646   6.346   2.027  0.0204  0.0147  0.1501
 3976TIP3    H133487   6.662   6.410   1.958 -0.0614 -0.6575 -0.5069
 3976TIP3    H233488   6.723   6.352   2.084  0.5635 -0.1264 -0.5582
 3977TIP3   OH233489   6.644   5.217   1.751 -0.1497 -0.0367 -0.3273
 3977TIP3    H133490   6.714   5.152   1.740 -0.3103 -0.1615 -0.6239
 3977TIP3    H233491   6.688   5.301   1.736 -0.2810 -0.1789 -1.6196
 3978TIP3   OH233492   4.803   3.704   1.473  0.0062 -0.1594  0.1601
 3978TIP3    H133493   4.859   3.777   1.500 -1.0246  0.6727  0.1135
 3978TIP3    H233494   4.839   3.628   1.518  0.9735  0.4125  0.3790
 3979TIP3   OH233495   0.840   3.085   2.903  0.4430  0.2576 -0.4946
 3979TIP3    H133496   0.856   3.017   2.968  0.8907  0.5019 -0.3474
 3979TIP3    H233497   0.744   3.089   2.895  0.3991  0.0050 -0.0928
 3980TIP3   OH233498   4.179   2.935   8.275  1.0228 -0.1316  0.1288
 3980TIP3    H133499   4.220   2.851   8.295 -1.1777 -1.6431 -1.2351
 3980TIP3    H233500   4.227   2.968   8.200 -0.7543 -2.4394 -2.2115
 3981TIP3   OH233501   3.927   3.439   7.699  0.7532  0.1345 -0.0697
 3981TIP3    H133502   3.906   3.362   7.646 -0.9703  0.3703  0.2197
 3981TIP3    H233503   3.932   3.511   7.635 -2.2358  0.5932  0.0527
 3982TIP3   OH233504   1.915   3.657   8.510 -0.2347  0.4867  0.0503
 3982TIP3    H133505   1.995   3.705   8.488  0.2554  0.8804  2.3669
 3982TIP3    H233506   1.879   3.705   8.585 -2.4057  0.0385 -0.6486
 3983TIP3   OH233507   1.395   5.408   7.528  0.4831 -0.2794  0.1405
 3983TIP3    H133508   1.412   5.315   7.537  1.3020 -0.2631 -1.0795
 3983TIP3    H233509   1.336   5.415   7.453  1.3132  0.2567 -0.4766
 3984TIP3   OH233510   4.195   2.866   6.805  0.0953  0.1826 -0.4874
 3984TIP3    H133511   4.140   2.944   6.793  1.5015  1.1152 -1.0185
 3984TIP3    H233512   4.176   2.837   6.894 -1.5347  0.2493 -0.7793
 3985TIP3   OH233513   4.432   2.752   6.811  0.5278  0.4274 -0.2680
 3985TIP3    H133514   4.452   2.703   6.731 -1.4728  0.4115 -0.8168
 3985TIP3    H233515   4.361   2.811   6.786  2.0642  2.8292  0.6965
 3986TIP3   OH233516   3.547   3.828   1.385 -0.4146 -0.0248  0.1271
 3986TIP3    H133517   3.558   3.810   1.478 -0.1854 -0.2208  0.0623
 3986TIP3    H233518   3.490   3.905   1.382  1.7001  1.6363  0.5010
 3987TIP3   OH233519   1.477   1.652   2.017  0.1107  0.3925  0.5713
 3987TIP3    H133520   1.464   1.686   1.929 -0.1142  1.1860  0.9100
 3987TIP3    H233521   1.514   1.564   2.003 -1.7085 -0.2763 -0.3390
 3988TIP3   OH233522   6.469   2.678   0.149  0.3345 -0.4665 -0.2972
 3988TIP3    H133523   6.491   2.586   0.141 -1.5202 -0.9205 -0.6514
 3988TIP3    H233524   6.377   2.684   0.122  0.4734  1.5236 -0.5373
 3989TIP3   OH233525   2.608   6.670   8.072 -0.1919 -0.1363  0.0038
 3989TIP3    H133526   2.632   6.578   8.083 -0.7620 -0.2924 -0.0784
 3989TIP3    H233527   2.579   6.677   7.982  1.2757  0.4486 -0.4500
 3990TIP3   OH233528   3.896   3.933   2.020  0.1042 -0.6348 -0.6618
 3990TIP3    H133529   3.802   3.952   2.022  0.2162  0.0790 -1.5339
 3990TIP3    H233530   3.934   3.995   2.082  0.0448 -0.6158 -0.6443
 3991TIP3   OH233531   5.170   6.330   2.568 -0.1630  0.0980  0.0194
 3991TIP3    H133532   5.079   6.352   2.544 -0.5976 -0.9875  0.5959
 3991TIP3    H233533   5.211   6.305   2.485 -1.3414 -2.5556  0.1273
 3992TIP3   OH233534   1.845   4.068   7.596 -0.4378 -0.2817 -0.2042
 3992TIP3    H133535   1.858   4.014   7.518 -1.9213 -0.0923 -0.6141
 3992TIP3    H233536   1.760   4.110   7.582  0.0178  1.0222  0.7777
 3993TIP3   OH233537   3.785   1.001   0.104 -0.0866  0.0565  0.2767
 3993TIP3    H133538   3.805   0.942   0.031  1.0032 -0.2127  0.7803
 3993TIP3    H233539   3.691   0.991   0.117 -0.4062  0.4537 -1.3830
 3994TIP3   OH233540   0.991   4.782   1.375 -0.7289 -0.2076  0.2327
 3994TIP3    H133541   0.920   4.821   1.426 -1.4730 -1.2664  0.0417
 3994TIP3    H233542   1.044   4.736   1.440 -0.5758  0.0551  0.2947
 3995TIP3   OH233543   2.437   0.469   2.105  0.2178 -0.5590  0.4683
 3995TIP3    H133544   2.412   0.399   2.046 -1.7289  0.4792 -0.0200
 3995TIP3    H233545   2.533   0.466   2.108  0.2797 -1.6283 -1.4953
 3996TIP3   OH233546   0.734   0.118   0.532 -0.8003  0.0226 -0.2994
 3996TIP3    H133547   0.802   0.081   0.588 -0.2611 -1.0321 -1.6051
 3996TIP3    H233548   0.660   0.058   0.541 -0.5168 -0.4689 -1.1144
 3997TIP3   OH233549   5.390   4.441   0.103 -0.4212  0.5280  0.0146
 3997TIP3    H133550   5.309   4.490   0.092 -0.1977  0.6862 -0.9752
 3997TIP3    H233551   5.459   4.501   0.076 -0.0161  0.2119  0.3347
 3998TIP3   OH233552   1.394   6.303   8.461 -0.1713  0.0461 -0.0466
 3998TIP3    H133553   1.397   6.207   8.465 -0.3719  0.0506  0.2397
 3998TIP3    H233554   1.440   6.325   8.380  0.8673 -0.2406  0.4413
 3999TIP3   OH233555   2.469   1.518   7.907 -0.6070 -0.4547 -0.6399
 3999TIP3    H133556   2.490   1.448   7.844  1.8559  0.9981 -1.5963
 3999TIP3    H233557   2.474   1.475   7.992 -1.2324 -1.8699 -1.2698
 4000TIP3   OH233558   2.705   4.031   0.401 -0.0764  0.1554 -0.1655
 4000TIP3    H133559   2.704   3.936   0.415 -0.6580 -0.2291 -2.4528
 4000TIP3    H233560   2.780   4.062   0.452 -1.7036 -1.0105  3.2535
 4001TIP3   OH233561   3.412   4.747   8.052 -0.2681 -0.0789 -0.5380
 4001TIP3    H133562   3.461   4.827   8.072 -1.9223  0.9098 -0.2729
 4001TIP3    H233563   3.371   4.765   7.968 -0.9193 -0.5062 -0.3160
 4002TIP3   OH233564   1.205   0.616   2.986  0.3636  0.2305 -0.1363
 4002TIP3    H133565   1.193   0.648   3.076  2.2604 -0.1727  0.3148
 4002TIP3    H233566   1.119   0.625   2.945 -0.7679 -0.3274  1.9666
 4003TIP3   OH233567   2.441   2.724   2.848 -0.4149  0.5624  0.6625
 4003TIP3    H133568   2.481   2.771   2.921  3.0957 -1.4141  0.1955
 4003TIP3    H233569   2.438   2.633   2.876  0.5687 -0.1740 -1.4126
 4004TIP3   OH233570   1.072   3.505   0.621 -0.4520  0.2387 -0.2421
 4004TIP3    H133571   1.006   3.496   0.690  1.2739 -3.0663  1.1767
 4004TIP3    H233572   1.140   3.560   0.661  0.3020 -1.2347  0.5591
 4005TIP3   OH233573   0.099   6.076   2.447 -0.3639  0.1444  0.2685
 4005TIP3    H133574   0.015   6.094   2.488 -0.2774 -1.4964  1.2639
 4005TIP3    H233575   0.163   6.124   2.501 -0.4893 -0.1203  0.6609
 4006TIP3   OH233576   1.053   1.395   2.839 -0.0685  0.2947  0.6786
 4006TIP3    H133577   1.070   1.397   2.745  2.8459  1.3501  1.1268
 4006TIP3    H233578   0.995   1.470   2.855 -0.3407  0.2840 -0.2341
 4007TIP3   OH233579   4.097   6.159   7.693 -0.1012 -0.5190  0.3626
 4007TIP3    H133580   4.129   6.121   7.611 -0.9562 -0.9322  0.2066
 4007TIP3    H233581   4.157   6.231   7.711 -0.0360 -0.2667 -0.7622
 4008TIP3   OH233582   0.075   2.447   1.287 -0.0173 -0.1156 -0.4855
 4008TIP3    H133583   0.055   2.357   1.314 -0.6809 -0.1059 -0.9093
 4008TIP3    H233584   0.068   2.445   1.191  2.7437 -0.2703 -0.7545
 4009TIP3   OH233585   4.550   4.498   8.586 -0.3476 -0.0885 -0.2969
 4009TIP3    H133586   4.462   4.493   8.623 -0.4669  1.0980 -0.3625
 4009TIP3    H233587   4.537   4.487   8.491 -0.9513  3.5876 -0.7916
 4010TIP3   OH233588   3.885   3.209   7.543 -0.1865  0.1637 -0.3662
 4010TIP3    H133589   3.924   3.185   7.459  0.4867 -0.9233  0.2521
 4010TIP3    H233590   3.853   3.127   7.580 -1.3833  0.7712  0.0003
 4011TIP3   OH233591   6.844   1.190   0.633 -0.2520 -0.1547 -0.0065
 4011TIP3    H133592   6.751   1.177   0.650 -0.3987  0.7301 -0.0886
 4011TIP3    H233593   6.851   1.281   0.605  0.3831 -0.7233 -1.8206
 4012TIP3   OH233594   5.058   0.805   0.641  0.4409 -0.2655  0.1371
 4012TIP3    H133595   5.147   0.778   0.666  0.8939  0.0216 -1.0596
 4012TIP3    H233596   5.012   0.723   0.624  0.5332 -0.4076  0.5592
 4013TIP3   OH233597   5.465   0.654   7.834  0.2745  0.0157 -0.3949
 4013TIP3    H133598   5.462   0.601   7.913 -0.6597  0.7971  0.1060
 4013TIP3    H233599   5.513   0.600   7.771  0.3416 -0.9359  0.4506
 4014TIP3   OH233600   5.037   3.685   0.778 -0.3266  0.4528  0.5090
 4014TIP3    H133601   5.014   3.650   0.864  0.7296 -0.5537  0.3968
 4014TIP3    H233602   4.963   3.661   0.722 -0.2530 -0.3952  0.7570
 4015TIP3   OH233603   0.917   2.863   1.298 -0.0936 -0.2260  0.1619
 4015TIP3    H133604   0.970   2.901   1.369 -0.4444  1.5953 -0.5030
 4015TIP3    H233605   0.827   2.866   1.331 -0.0727 -1.0272  0.3150
 4016TIP3   OH233606   4.766   0.602   0.927 -0.2037 -0.2782  0.3515
 4016TIP3    H133607   4.744   0.557   0.846 -3.4383 -0.5376  1.2267
 4016TIP3    H233608   4.763   0.695   0.906 -0.7467 -0.3531  0.0853
 4017TIP3   OH233609   3.999   3.824   7.969 -0.0416 -0.4045 -0.3802
 4017TIP3    H133610   4.061   3.832   8.040  0.1005  1.4510 -0.6672
 4017TIP3    H233611   3.928   3.884   7.992  0.2978  0.7156 -2.0433
 4018TIP3   OH233612   4.683   1.832   2.619 -0.1849  0.1766  0.1207
 4018TIP3    H133613   4.675   1.751   2.669 -0.9110  1.2144  1.7910
 4018TIP3    H233614   4.774   1.860   2.633  0.3660 -0.8129 -1.2787
 4019TIP3   OH233615   2.135   0.382   2.756  0.6264 -0.0571  0.3163
 4019TIP3    H133616   2.205   0.441   2.783 -0.1559  3.0992 -3.5753
 4019TIP3    H233617   2.054   0.425   2.784  0.0862 -0.7064 -0.1978
 4020TIP3   OH233618   2.942   3.588   1.105  0.0784  0.4845  0.1298
 4020TIP3    H133619   2.909   3.663   1.058 -0.7566 -0.9122 -1.6063
 4020TIP3    H233620   2.880   3.574   1.177 -0.9720  0.1894 -0.8179
 4021TIP3   OH233621   0.109   3.201   8.107 -0.0546  0.0957 -0.4823
 4021TIP3    H133622   0.143   3.152   8.183  1.2114  0.6821 -0.6414
 4021TIP3    H233623   0.016   3.213   8.126  0.0477 -0.5675  0.5400
 4022TIP3   OH233624   1.755   2.696   8.592 -0.5300  0.0372  0.2484
 4022TIP3    H133625   1.703   2.700   8.511  0.0084 -1.0908 -0.1756
 4022TIP3    H233626   1.752   2.785   8.627 -2.2534  0.1412 -0.0756
 4023TIP3   OH233627   6.017   6.617   8.490 -0.0336  0.0936  0.6892
 4023TIP3    H133628   5.936   6.639   8.536 -0.6454  1.7426 -1.0351
 4023TIP3    H233629   6.042   6.531   8.525 -4.1395 -1.9421 -0.7109
 4024TIP3   OH233630   1.424   0.331   8.411 -0.2127  1.1064 -0.4344
 4024TIP3    H133631   1.464   0.376   8.485  2.4909  0.1114 -1.1383
 4024TIP3    H233632   1.480   0.355   8.336 -0.0168 -1.5430 -1.2312
 4025TIP3   OH233633   1.282   3.920   1.029 -0.2862 -0.1995 -0.6220
 4025TIP3    H133634   1.318   3.831   1.027 -1.4012 -0.7818  1.6246
 4025TIP3    H233635   1.348   3.972   1.074 -0.0889 -0.1145 -1.0049
 4026TIP3   OH233636   6.773   1.629   2.163  0.0553  0.5008  0.2691
 4026TIP3    H133637   6.706   1.593   2.104 -0.3161 -0.6045  1.3235
 4026TIP3    H233638   6.771   1.723   2.145  0.1454  0.1905 -1.6539
 4027TIP3   OH233639   6.181   4.663   0.755 -0.2596  0.4054  0.4139
 4027TIP3    H133640   6.109   4.644   0.815 -1.6137  1.6098 -0.7502
 4027TIP3    H233641   6.215   4.748   0.785 -0.9672  1.0304 -0.5080
 4028TIP3   OH233642   1.462   2.201   0.382  0.9601  0.0848 -0.2216
 4028TIP3    H133643   1.487   2.284   0.343  0.5657  0.7172  0.8428
 4028TIP3    H233644   1.369   2.211   0.402  1.1701 -0.1923  0.9375
 4029TIP3   OH233645   4.281   1.318   8.432  0.3900  0.2047 -0.8353
 4029TIP3    H133646   4.356   1.316   8.372  0.1166 -1.4521 -1.1691
 4029TIP3    H233647   4.290   1.400   8.479  2.2078  0.2138 -1.1435
 4030TIP3   OH233648   3.082   4.058   0.283 -0.3985 -0.0421 -0.1766
 4030TIP3    H133649   3.054   4.149   0.272  1.6365  0.7708  0.7803
 4030TIP3    H233650   3.134   4.059   0.364  0.5679 -1.8297 -0.7265
 4031TIP3   OH233651   3.330   2.461   2.015  0.0163 -0.2549 -0.6520
 4031TIP3    H133652   3.389   2.526   1.977 -0.2082  0.2459 -0.1540
 4031TIP3    H233653   3.361   2.377   1.980 -0.5111  0.2225 -2.3835
 4032TIP3   OH233654   0.615   6.610   7.359  0.1548 -0.0094 -0.1447
 4032TIP3    H133655   0.620   6.665   7.281  0.8385  0.5254  0.2665
 4032TIP3    H233656   0.586   6.525   7.326  1.1415 -0.0050 -1.0884
 4033TIP3   OH233657   3.133   2.012   8.176 -0.4879 -0.1741 -0.1497
 4033TIP3    H133658   3.135   2.108   8.184  0.5218 -0.2838  1.6857
 4033TIP3    H233659   3.041   1.991   8.165 -0.7889  0.9991 -0.0934
 4034TIP3   OH233660   3.904   1.579   0.640  0.1910  0.2156  0.5986
 4034TIP3    H133661   3.834   1.634   0.676 -0.0093  0.3885 -0.0465
 4034TIP3    H233662   3.867   1.542   0.560  0.9838  0.6305  0.0366
 4035TIP3   OH233663   6.268   3.268   1.509  0.3641  0.0118 -0.2398
 4035TIP3    H133664   6.301   3.285   1.421  1.1214 -1.5360 -0.2856
 4035TIP3    H233665   6.274   3.173   1.519 -2.1604 -0.1310  0.5424
 4036TIP3   OH233666   2.433   2.640   1.200 -0.1613  0.1278 -0.7287
 4036TIP3    H133667   2.409   2.563   1.252 -1.0955 -0.3788 -1.8888
 4036TIP3    H233668   2.406   2.714   1.254  4.2998 -0.0664  2.2834
 4037TIP3   OH233669   5.498   6.508   8.094 -1.0913  0.0007 -0.1693
 4037TIP3    H133670   5.554   6.518   8.171 -0.5196  0.9720 -0.6936
 4037TIP3    H233671   5.540   6.439   8.043 -1.9564 -1.2807  0.7812
 4038TIP3   OH233672   5.796   3.178   0.873  0.3654  0.2999  0.3471
 4038TIP3    H133673   5.754   3.101   0.910  1.1610 -0.4169 -0.1913
 4038TIP3    H233674   5.879   3.145   0.837 -0.8044  0.6874 -3.0854
 4039TIP3   OH233675   3.911   1.534   7.061  0.5136  0.3138 -0.0713
 4039TIP3    H133676   3.931   1.612   7.113  1.0979  1.0945 -1.4150
 4039TIP3    H233677   3.956   1.548   6.978 -2.4158  0.3570 -1.8122
 4040TIP3   OH233678   3.899   3.032   0.367  0.4893 -0.1100  0.0410
 4040TIP3    H133679   3.949   2.970   0.314  0.3277 -0.4447  0.2792
 4040TIP3    H233680   3.808   3.017   0.340  0.4089 -0.2650  0.3961
 4041TIP3   OH233681   3.598   3.225   0.638  0.7843 -0.8868  0.7469
 4041TIP3    H133682   3.540   3.188   0.705 -0.0047  0.3251  0.7680
 4041TIP3    H233683   3.541   3.233   0.561  0.3990  1.8018  1.2101
 4042TIP3   OH233684   2.353   0.613   0.129  0.0086  0.3651  0.1649
 4042TIP3    H133685   2.399   0.532   0.151  1.3475  1.3395  1.0838
 4042TIP3    H233686   2.319   0.644   0.213  0.9730  1.6078  0.1219
 4043TIP3   OH233687   1.289   0.925   8.381 -0.1159  0.1464  0.5598
 4043TIP3    H133688   1.257   0.949   8.468 -2.0749  0.7115 -0.2499
 4043TIP3    H233689   1.233   0.853   8.353  1.3474 -0.9239  0.2525
 4044TIP3   OH233690   6.444   5.278   2.291 -0.1028  0.0989 -0.3205
 4044TIP3    H133691   6.363   5.242   2.254 -0.8326 -0.6911  1.8505
 4044TIP3    H233692   6.512   5.256   2.227 -1.4446 -0.0795 -1.7371
 4045TIP3   OH233693   5.992   0.531   0.983 -0.6216  0.2534 -0.0732
 4045TIP3    H133694   6.075   0.577   0.995 -0.3647 -0.1153 -0.3908
 4045TIP3    H233695   6.010   0.441   1.012 -0.5324 -0.1564 -1.3349
 4046TIP3   OH233696   4.401   4.628   1.584 -0.0251  0.1588 -0.0709
 4046TIP3    H133697   4.330   4.692   1.582  0.8429  1.1309 -1.8239
 4046TIP3    H233698   4.466   4.667   1.642  0.1169  0.4301 -0.4131
 4047TIP3   OH233699   4.615   1.807   7.836 -0.8099  0.0418 -0.2220
 4047TIP3    H133700   4.604   1.892   7.879  1.8804  0.7648 -0.7931
 4047TIP3    H233701   4.583   1.821   7.747 -2.1284 -0.1582  0.1833
 4048TIP3   OH233702   0.537   6.387   8.576 -0.3467  0.2360 -0.6031
 4048TIP3    H133703   0.464   6.409   8.635 -0.2021  1.6672 -0.9031
 4048TIP3    H233704   0.610   6.439   8.609  0.6416 -1.3850 -0.1443
 4049TIP3   OH233705   0.699   0.492   2.576 -0.1282  0.2095  0.1310
 4049TIP3    H133706   0.754   0.547   2.632  0.7160  0.2955 -0.7507
 4049TIP3    H233707   0.733   0.404   2.590 -0.4074  0.1280  0.3052
 4050TIP3   OH233708   6.164   3.893   8.002  0.3800  0.3606 -0.0858
 4050TIP3    H133709   6.111   3.862   8.076 -1.6041 -0.2215 -1.6673
 4050TIP3    H233710   6.198   3.814   7.961 -0.7676  0.4851 -1.3438
 4051TIP3   OH233711   1.194   6.176   8.263  0.5841  0.1231  0.2206
 4051TIP3    H133712   1.277   6.134   8.285 -0.8064 -3.2701 -0.2280
 4051TIP3    H233713   1.134   6.147   8.333 -0.7300  0.4811 -0.7170
 4052TIP3   OH233714   1.905   5.307   0.799 -0.2280 -0.2569  0.7189
 4052TIP3    H133715   1.982   5.287   0.745 -1.1985 -2.1917 -0.0702
 4052TIP3    H233716   1.860   5.223   0.807 -1.9863  0.7232  1.6179
 4053TIP3   OH233717   1.937   5.860   8.628 -0.1046  0.0164  0.0176
 4053TIP3    H133718   1.984   5.904   8.700 -0.8069  0.2078  0.3700
 4053TIP3    H233719   1.906   5.778   8.667 -1.7572  0.7841  0.3927
 4054TIP3   OH233720   1.396   3.135   1.571 -0.1806  0.2052  0.2728
 4054TIP3    H133721   1.431   3.181   1.647  1.6595  0.8469 -0.9052
 4054TIP3    H233722   1.352   3.058   1.608  0.9492  0.3184  1.9623
 4055TIP3   OH233723   0.115   2.880   1.774  0.5784  0.5804  0.1226
 4055TIP3    H133724   0.135   2.837   1.857  0.9308  2.3403  0.9896
 4055TIP3    H233725   0.164   2.830   1.709 -1.0512 -1.9236  0.6462
 4056TIP3   OH233726   4.298   6.027   7.936 -0.3335 -0.3647 -0.0983
 4056TIP3    H133727   4.367   6.088   7.911  0.1541 -0.7679  0.2327
 4056TIP3    H233728   4.309   6.016   8.031 -1.5747  0.4458  0.1586
 4057TIP3   OH233729   0.680   5.347   0.085 -0.1646 -0.1290  0.1629
 4057TIP3    H133730   0.694   5.261   0.046 -0.1116 -0.3669  0.6944
 4057TIP3    H233731   0.585   5.353   0.095 -0.5384  1.2651 -2.9461
 4058TIP3   OH233732   5.648   2.473   1.359 -0.1060  0.2286 -0.0729
 4058TIP3    H133733   5.609   2.474   1.446  1.1341  0.1717  0.5017
 4058TIP3    H233734   5.604   2.401   1.314 -1.3799  0.8142  0.1939
 4059TIP3   OH233735   1.443   4.884   0.492 -0.4138 -0.0916 -0.0281
 4059TIP3    H133736   1.420   4.851   0.405  0.1146 -0.5341 -0.0106
 4059TIP3    H233737   1.386   4.959   0.506 -0.7748 -0.2570 -0.5958
 4060TIP3   OH233738   2.865   5.071   7.923  0.1628  0.1759  0.4913
 4060TIP3    H133739   2.902   5.000   7.976  1.1785  0.8779  0.7475
 4060TIP3    H233740   2.782   5.092   7.966 -0.4229 -1.1976  0.1040
 4061TIP3   OH233741   1.779   4.479   2.466 -0.6622  0.4036 -0.2887
 4061TIP3    H133742   1.812   4.528   2.541  1.0577  3.0796 -2.5832
 4061TIP3    H233743   1.684   4.486   2.473 -0.6022 -0.3721  2.1430
 4062TIP3   OH233744   1.488   0.740   2.071 -0.1441 -0.3519  0.3730
 4062TIP3    H133745   1.398   0.725   2.044 -0.7404  0.9782  1.5057
 4062TIP3    H233746   1.525   0.653   2.080 -1.1050 -0.9025 -0.7646
 4063TIP3   OH233747   1.919   3.860   2.323  0.3016 -0.5751 -0.2751
 4063TIP3    H133748   1.839   3.834   2.369  1.3561  0.4791  2.3480
 4063TIP3    H233749   1.900   3.947   2.290  0.4248 -0.1753  0.6589
 4064TIP3   OH233750   5.267   3.548   0.735 -0.5417  0.0671  0.1804
 4064TIP3    H133751   5.335   3.607   0.768  0.3120 -0.0625 -1.2258
 4064TIP3    H233752   5.186   3.582   0.772 -0.0851  2.1658 -0.5684
 4065TIP3   OH233753   3.723   5.365   1.068 -0.3718  0.3732  0.1629
 4065TIP3    H133754   3.697   5.347   1.158 -1.5049  1.9135  0.1837
 4065TIP3    H233755   3.723   5.461   1.062 -0.3181  0.2961 -1.4712
 4066TIP3   OH233756   5.160   1.255   1.644 -0.1487  0.8423 -0.4949
 4066TIP3    H133757   5.252   1.236   1.662 -0.3769  0.8106  0.7121
 4066TIP3    H233758   5.112   1.195   1.701 -0.9232  0.8844 -1.0846
 4067TIP3   OH233759   4.000   0.430   1.997 -0.2764  0.1360  0.3030
 4067TIP3    H133760   3.973   0.521   2.002  1.3801  0.8508 -2.1794
 4067TIP3    H233761   3.921   0.383   1.969 -0.6839  1.0838 -0.1808
 4068TIP3   OH233762   0.635   1.633   1.979 -1.0216 -0.3990 -0.1501
 4068TIP3    H133763   0.586   1.714   1.963  0.5023  0.4115 -0.8866
 4068TIP3    H233764   0.641   1.628   2.074  0.9484  1.6993 -0.0777
 4069TIP3   OH233765   5.550   4.699   2.479  0.2336 -0.1401  0.0346
 4069TIP3    H133766   5.587   4.611   2.483  1.2013  0.3000  0.9711
 4069TIP3    H233767   5.616   4.756   2.520 -0.0752  1.1247 -1.1402
 4070TIP3   OH233768   3.038   6.012   0.007 -0.1005 -0.2119  0.9356
 4070TIP3    H133769   3.048   6.056   0.091 -0.6544 -1.1604  1.5145
 4070TIP3    H233770   2.950   5.975   0.009  0.4888 -1.7113  0.6722
 4071TIP3   OH233771   4.742   3.477   7.743 -0.4329  0.0101  0.3020
 4071TIP3    H133772   4.774   3.390   7.768  1.5388  1.3466  2.9771
 4071TIP3    H233773   4.697   3.463   7.660  0.1324 -3.4775  0.4241
 4072TIP3   OH233774   3.524   3.718   8.025 -0.1665  0.2349 -0.7143
 4072TIP3    H133775   3.591   3.695   7.960  0.8253 -2.5424  1.1150
 4072TIP3    H233776   3.533   3.813   8.035  2.1649  0.2278 -1.9571
 4073TIP3   OH233777   4.862   5.440   7.345  0.3758 -0.2770  0.1134
 4073TIP3    H133778   4.909   5.481   7.273 -0.5513  1.4498  0.4264
 4073TIP3    H233779   4.840   5.352   7.313 -1.9431  1.1473 -2.6581
 4074TIP3   OH233780   1.652   4.057   2.490 -0.2385  0.4788 -0.7542
 4074TIP3    H133781   1.577   4.072   2.547  0.7906  2.5855  0.1547
 4074TIP3    H233782   1.649   3.964   2.470 -1.9575  0.1360  0.8605
 4075TIP3   OH233783   1.753   4.559   7.381  0.5284  0.1801  0.3989
 4075TIP3    H133784   1.816   4.585   7.314  1.5963 -2.3300  0.2994
 4075TIP3    H233785   1.686   4.510   7.333 -1.5876  2.7529  0.5081
 4076TIP3   OH233786   1.476   0.812   7.853 -0.5681 -0.1261  0.0373
 4076TIP3    H133787   1.506   0.721   7.854  0.6986  0.2801  1.9651
 4076TIP3    H233788   1.473   0.835   7.760  1.3773 -1.4029 -0.3850
 4077TIP3   OH233789   4.359   3.227   0.379 -0.4857  0.2386  0.2970
 4077TIP3    H133790   4.442   3.273   0.386  0.7424 -1.6968 -0.7230
 4077TIP3    H233791   4.313   3.270   0.307 -0.2952  1.1488  0.6971
 4078TIP3   OH233792   3.697   5.312   8.685  0.7085  0.3992 -0.6039
 4078TIP3    H133793   3.608   5.338   8.663 -0.4430 -1.3406  1.5872
 4078TIP3    H233794   3.709   5.342   8.776  1.2981 -1.7576  0.0781
 4079TIP3   OH233795   2.375   5.392   0.424  0.3378 -0.4727  0.1212
 4079TIP3    H133796   2.425   5.365   0.501  1.8908  0.9070 -0.3650
 4079TIP3    H233797   2.349   5.482   0.443 -4.8668 -1.9384  1.7921
 4080TIP3   OH233798   3.009   6.423   0.081  0.3364 -0.2125 -0.4163
 4080TIP3    H133799   3.088   6.465   0.115  0.4865 -0.8912  0.1201
 4080TIP3    H233800   2.940   6.448   0.142  0.3812 -0.5464 -0.2228
 4081TIP3   OH233801   4.679   5.323   8.408  0.1089  0.2975 -0.4150
 4081TIP3    H133802   4.649   5.236   8.435  1.3949  0.0167  0.2080
 4081TIP3    H233803   4.705   5.312   8.317  0.0726  0.0709 -0.3988
 4082TIP3   OH233804   5.430   1.639   0.936  0.6972  0.2844 -0.0043
 4082TIP3    H133805   5.342   1.630   0.972  0.8542  0.2294  0.3784
 4082TIP3    H233806   5.420   1.624   0.842  0.6681 -2.3675  0.3381
 4083TIP3   OH233807   2.584   5.627   1.124  0.3942  0.0308 -0.6638
 4083TIP3    H133808   2.626   5.712   1.107  1.6453 -0.8277 -2.1096
 4083TIP3    H233809   2.616   5.570   1.054 -1.4001 -1.3193 -0.4458
 4084TIP3   OH233810   2.955   3.018   7.770  0.8508  0.2369  0.2282
 4084TIP3    H133811   3.019   3.062   7.713 -0.7635  3.4596  0.6708
 4084TIP3    H233812   2.993   3.022   7.857  0.5802  1.1156  0.3147
 4085TIP3   OH233813   6.152   6.375   8.570  0.0655  0.5335 -0.1665
 4085TIP3    H133814   6.167   6.345   8.480 -1.5607 -0.5795 -0.1149
 4085TIP3    H233815   6.204   6.315   8.624  0.7508  0.9715 -0.3264
 4086TIP3   OH233816   3.009   3.024   1.486 -0.4178  0.0585 -0.0380
 4086TIP3    H133817   2.927   3.069   1.464 -0.1778  1.0321  0.9761
 4086TIP3    H233818   3.049   3.004   1.401 -0.7776  1.3226 -0.5359
 4087TIP3   OH233819   4.187   6.316   1.863  0.1326  0.1974  0.3309
 4087TIP3    H133820   4.274   6.344   1.834  0.6262 -1.4509  0.0649
 4087TIP3    H233821   4.204   6.237   1.916 -1.2409 -0.5978 -0.3546
 4088TIP3   OH233822   4.570   3.223   1.058 -0.0544  0.3941  0.2212
 4088TIP3    H133823   4.630   3.158   1.022 -0.6689 -0.4421  0.6639
 4088TIP3    H233824   4.511   3.173   1.114 -1.0175  1.2225 -0.0149
 4089TIP3   OH233825   5.698   0.769   0.162 -0.6853 -0.7361  0.2855
 4089TIP3    H133826   5.772   0.764   0.222 -1.0117  1.5032  0.9589
 4089TIP3    H233827   5.650   0.687   0.176  2.6424 -3.2964 -1.6628
 4090TIP3   OH233828   0.991   6.374   7.543 -0.7963 -0.0890  0.2590
 4090TIP3    H133829   1.080   6.406   7.557  0.3218 -3.1058  1.0267
 4090TIP3    H233830   0.988   6.352   7.450 -1.6483  2.2686 -0.3234
 4091TIP3   OH233831   4.876   3.189   7.859  0.2933 -0.4649  0.1386
 4091TIP3    H133832   4.938   3.222   7.925  0.1487 -0.5906  0.3390
 4091TIP3    H233833   4.927   3.185   7.778  0.3871 -0.0050  0.1698
 4092TIP3   OH233834   4.791   3.411   7.263 -0.1611  0.2204  0.3385
 4092TIP3    H133835   4.804   3.316   7.265 -1.3192  0.0662  1.1936
 4092TIP3    H233836   4.703   3.423   7.228  0.5316  1.0673 -1.2313
 4093TIP3   OH233837   5.201   1.504   0.493  0.5546 -0.1048 -0.3616
 4093TIP3    H133838   5.244   1.419   0.478 -0.4143 -0.5266 -0.9063
 4093TIP3    H233839   5.200   1.545   0.406  2.7354  1.3505  0.2242
 4094TIP3   OH233840   4.713   2.054   7.978  0.9990  0.5612  0.3574
 4094TIP3    H133841   4.735   2.143   7.949  1.8097  0.1878 -0.2107
 4094TIP3    H233842   4.642   2.067   8.042  1.3255  1.6366  0.5327
 4095TIP3   OH233843   0.857   3.901   1.609  0.1770  0.2101  0.1740
 4095TIP3    H133844   0.942   3.858   1.601 -0.1157 -0.1838 -1.0383
 4095TIP3    H233845   0.846   3.915   1.703  0.9427 -1.0281  0.4731
 4096TIP3   OH233846   2.378   6.819   0.813  0.4500  0.0300 -0.2147
 4096TIP3    H133847   2.338   6.785   0.892  0.6579 -0.4988 -0.3358
 4096TIP3    H233848   2.421   6.900   0.841  0.4241 -0.0959  0.1870
 4097TIP3   OH233849   3.408   6.627   1.052  0.6560 -0.3229  0.2737
 4097TIP3    H133850   3.359   6.647   0.973 -2.0649 -1.2704  1.6117
 4097TIP3    H233851   3.390   6.700   1.111 -0.0026 -1.1683  1.1411
 4098TIP3   OH233852   5.772   4.441   7.985 -0.1658  0.3078 -0.3251
 4098TIP3    H133853   5.716   4.400   7.919 -1.0649 -1.3000  1.3528
 4098TIP3    H233854   5.861   4.427   7.952 -0.5532 -1.2167 -0.8064
 4099TIP3   OH233855   6.258   2.881   7.443  0.1056  0.4109  0.2906
 4099TIP3    H133856   6.201   2.926   7.380 -0.1558  1.4398  1.2490
 4099TIP3    H233857   6.294   2.950   7.498  2.1834 -0.2336 -0.1662
 4100TIP3   OH233858   6.226   4.361   7.780  0.0872  0.1165 -0.1172
 4100TIP3    H133859   6.187   4.274   7.791 -0.3401  0.6549  4.7930
 4100TIP3    H233860   6.318   4.343   7.758 -0.4631 -1.4315 -1.3990
 4101TIP3   OH233861   3.954   3.604   6.653 -0.0897 -0.2037 -0.7594
 4101TIP3    H133862   3.861   3.609   6.633 -0.4565 -2.7150 -0.0435
 4101TIP3    H233863   3.977   3.513   6.635  0.9419 -1.1630  4.1686
 4102TIP3   OH233864   4.844   4.112   7.424 -0.1411 -0.2292 -0.0296
 4102TIP3    H133865   4.882   4.188   7.380  0.3141 -0.2639  0.3013
 4102TIP3    H233866   4.767   4.146   7.469  0.7618  0.2856  1.1498
 4103TIP3   OH233867   5.997   6.753   1.093 -0.2175  0.4385  0.6612
 4103TIP3    H133868   6.090   6.748   1.071 -0.5862  1.2411 -1.3172
 4103TIP3    H233869   5.976   6.846   1.088 -1.0837  0.2872  1.3176
 4104TIP3   OH233870   0.454   4.627   1.274  0.2488  0.4564 -0.2867
 4104TIP3    H133871   0.385   4.561   1.284 -0.5095  1.4363  1.4697
 4104TIP3    H233872   0.448   4.655   1.183  0.3537 -1.5991 -0.9712
 4105TIP3   OH233873   0.755   1.233   1.099 -0.1439 -0.2101 -0.0141
 4105TIP3    H133874   0.833   1.217   1.152 -0.2876  0.1331  0.3098
 4105TIP3    H233875   0.764   1.175   1.024  0.0896 -0.6629  0.3618
 4106TIP3   OH233876   5.484   2.627   2.552 -0.3178  0.2826 -0.1890
 4106TIP3    H133877   5.503   2.700   2.611 -0.4859  0.0947  0.0969
 4106TIP3    H233878   5.413   2.660   2.496 -0.6720  0.1959  0.2058
 4107TIP3   OH233879   5.624   0.773   0.777  0.8978 -0.4734 -0.2654
 4107TIP3    H133880   5.651   0.860   0.749 -0.4648 -0.5933 -2.1537
 4107TIP3    H233881   5.681   0.713   0.730  0.6352 -0.6266 -0.3937
 4108TIP3   OH233882   2.334   2.747   7.179  0.0855 -0.6131 -0.2507
 4108TIP3    H133883   2.268   2.757   7.110 -1.3097  0.8147  1.1991
 4108TIP3    H233884   2.353   2.654   7.180 -3.2671 -1.4296  0.4013
 4109TIP3   OH233885   4.061   4.162   1.243 -0.3768  0.1746  0.6446
 4109TIP3    H133886   4.151   4.129   1.239 -0.6401 -0.4385 -0.2316
 4109TIP3    H233887   4.020   4.131   1.163 -1.0114  1.5284  0.4159
 4110TIP3   OH233888   6.749   3.340   2.454  0.0692  0.2163  0.0800
 4110TIP3    H133889   6.748   3.433   2.434  0.0712  0.4611  1.1298
 4110TIP3    H233890   6.726   3.336   2.547 -0.5465 -0.8681 -0.1034
 4111TIP3   OH233891   3.983   0.776   7.905  0.4143  0.2620 -0.3047
 4111TIP3    H133892   3.928   0.854   7.898 -1.2122 -0.8922 -1.1275
 4111TIP3    H233893   3.939   0.710   7.851  2.6498 -0.7399 -1.0692
 4112TIP3   OH233894   2.206   3.831   0.304  0.0232  0.1711 -0.5806
 4112TIP3    H133895   2.173   3.919   0.290 -1.2076 -0.1104  0.3448
 4112TIP3    H233896   2.149   3.795   0.373  2.0633 -0.4530  0.8820
 4113TIP3   OH233897   2.738   0.523   0.811 -0.0748 -0.1514 -0.2184
 4113TIP3    H133898   2.746   0.440   0.764  1.0397 -0.5491  0.6471
 4113TIP3    H233899   2.766   0.504   0.900 -2.2391  0.5781  0.6795
 4114TIP3   OH233900   5.077   1.632   7.985 -0.2619  0.1085  0.4971
 4114TIP3    H133901   5.025   1.626   7.904 -1.7683  0.6870  1.3738
 4114TIP3    H233902   5.021   1.593   8.052 -0.0796  1.8224  1.7038
 4115TIP3   OH233903   0.525   4.890   1.457  0.2154  0.6481 -0.4453
 4115TIP3    H133904   0.541   4.912   1.365 -0.8294 -0.4099 -0.9025
 4115TIP3    H233905   0.463   4.817   1.454  0.3774  0.4143  1.1010
 4116TIP3   OH233906   4.936   3.983   8.498 -0.1451 -0.4042 -0.7005
 4116TIP3    H133907   4.861   3.965   8.442  1.3085 -3.2132 -1.9228
 4116TIP3    H233908   4.952   4.076   8.487 -2.4426 -0.0464 -1.6340
 4117TIP3   OH233909   5.722   3.642   1.868  0.4286  0.1800  0.1729
 4117TIP3    H133910   5.716   3.620   1.961  0.6882  2.4048  0.7712
 4117TIP3    H233911   5.643   3.604   1.830 -0.5251  0.5886  1.6232
 4118TIP3   OH233912   2.499   3.599   0.204  0.0215  0.1622  0.5184
 4118TIP3    H133913   2.406   3.590   0.221 -0.1801 -0.5928 -0.8406
 4118TIP3    H233914   2.541   3.582   0.289 -0.9753 -1.8507  0.6754
 4119TIP3   OH233915   4.455   3.668   0.564  0.5962 -0.5870 -0.0521
 4119TIP3    H133916   4.523   3.729   0.536  0.7281  0.7476  2.7305
 4119TIP3    H233917   4.420   3.631   0.483  2.3311  1.2031 -1.7336
 4120TIP3   OH233918   3.964   3.272   6.923 -0.2474 -0.4063  0.3154
 4120TIP3    H133919   4.052   3.284   6.959 -0.0511  0.6934 -0.4897
 4120TIP3    H233920   3.978   3.224   6.841 -0.4181 -0.3940  0.2794
 4121TIP3   OH233921   2.206   6.179   1.216 -0.4347  0.0763 -0.0156
 4121TIP3    H133922   2.244   6.156   1.130  0.4404  1.2238  0.0384
 4121TIP3    H233923   2.282   6.186   1.274 -0.8485  1.1703  0.4082
 4122TIP3   OH233924   0.729   4.572   7.342  0.0263 -0.0461 -0.0010
 4122TIP3    H133925   0.784   4.635   7.390  0.3058 -0.2978  0.0153
 4122TIP3    H233926   0.766   4.570   7.254 -0.2552  0.1370 -0.1238
 4123TIP3   OH233927   1.907   2.341   0.690  0.6500  0.3577 -0.3328
 4123TIP3    H133928   1.858   2.331   0.771  0.1581  1.4948 -0.4676
 4123TIP3    H233929   1.861   2.286   0.627  0.6249  0.0116 -0.0163
 4124TIP3   OH233930   2.113   3.121   1.796  0.1734 -0.0839  0.2448
 4124TIP3    H133931   2.018   3.121   1.790  0.2110 -0.4298 -0.4166
 4124TIP3    H233932   2.136   3.030   1.813  0.4433 -0.2163 -0.7451
 4125TIP3   OH233933   5.044   0.042   7.562 -0.2714  0.2182 -0.5139
 4125TIP3    H133934   4.999  -0.032   7.523 -0.8520  1.1910 -1.7727
 4125TIP3    H233935   4.996   0.119   7.530  0.1940  1.1437  0.8783
 4126TIP3   OH233936   3.868   2.259   1.466 -0.1254  0.2278 -0.0497
 4126TIP3    H133937   3.955   2.224   1.446 -0.2469 -0.5315  0.6860
 4126TIP3    H233938   3.827   2.272   1.381  1.6705  3.2553 -0.6130
 4127TIP3   OH233939   1.944   6.765   0.384  0.1623 -0.6212 -0.7101
 4127TIP3    H133940   1.858   6.744   0.347 -0.2735  1.2284 -0.8605
 4127TIP3    H233941   1.925   6.825   0.456  1.2004 -2.0303  0.8250
 4128TIP3   OH233942   2.926   1.790   7.821  0.4764  0.3643 -0.2157
 4128TIP3    H133943   2.910   1.697   7.832 -1.1994  0.5454 -0.9079
 4128TIP3    H233944   3.001   1.808   7.878  0.8941 -1.3977 -0.1361
 4129TIP3   OH233945   1.929   4.087   8.121  0.3791 -0.2119  0.3976
 4129TIP3    H133946   1.946   3.994   8.136 -0.9422 -0.5740 -0.2004
 4129TIP3    H233947   1.872   4.089   8.044  0.9533  1.1411 -0.0211
 4130TIP3   OH233948   2.147   1.345   1.416  0.2697 -0.2396 -0.0881
 4130TIP3    H133949   2.207   1.385   1.480  0.8923 -0.1193 -0.7338
 4130TIP3    H233950   2.060   1.362   1.451  0.6093 -0.4728  0.9089
 4131TIP3   OH233951   6.852   0.848   7.748 -0.6899 -0.2847 -0.6940
 4131TIP3    H133952   6.831   0.937   7.775 -0.8960 -0.2815 -0.8655
 4131TIP3    H233953   6.910   0.859   7.672  0.7208 -0.2820  0.3407
 4132TIP3   OH233954   5.575   1.600   0.419 -0.0404 -0.9519  0.2629
 4132TIP3    H133955   5.610   1.655   0.349 -2.7809  3.1026  1.7103
 4132TIP3    H233956   5.516   1.540   0.375 -0.4556  0.3937 -1.0914
 4133TIP3   OH233957   6.522   4.084   7.196  0.9566  0.2992 -0.4543
 4133TIP3    H133958   6.441   4.109   7.241  1.2550  0.1214  0.1918
 4133TIP3    H233959   6.494   4.017   7.133  0.6487 -0.0041 -0.0052
 4134TIP3   OH233960   6.034   1.308   1.476  0.4844 -0.2480 -0.3902
 4134TIP3    H133961   6.123   1.334   1.500  0.7050 -0.0827 -1.3603
 4134TIP3    H233962   5.992   1.390   1.448  0.5167 -0.5666 -1.4076
 4135TIP3   OH233963   3.988   0.508   0.600 -0.2814 -0.1286 -0.1821
 4135TIP3    H133964   3.984   0.435   0.539  0.1834  0.1596 -0.5689
 4135TIP3    H233965   4.020   0.470   0.681  1.5862 -0.1011 -0.8389
 4136TIP3   OH233966   2.932   0.714   2.611  0.6021 -0.4034 -0.4134
 4136TIP3    H133967   2.892   0.627   2.600  1.4317 -1.0812  1.4837
 4136TIP3    H233968   2.885   0.752   2.685  0.0147  0.9630 -1.4475
 4137TIP3   OH233969   3.939   1.051   8.180  0.2552 -0.4474 -0.2487
 4137TIP3    H133970   3.873   1.009   8.236 -0.6916  1.1132 -0.1083
 4137TIP3    H233971   4.020   1.047   8.231  0.2249 -2.1572 -0.3028
 4138TIP3   OH233972   2.317   4.099   8.001 -0.2179  0.1659 -0.1103
 4138TIP3    H133973   2.349   4.097   7.911 -0.0565 -0.2246 -0.0487
 4138TIP3    H233974   2.232   4.142   7.996  0.6183  1.9088 -0.1862
 4139TIP3   OH233975   4.588   0.141   1.918 -0.3928  0.0947  0.7023
 4139TIP3    H133976   4.603   0.176   1.830  0.0966 -0.1427  0.6886
 4139TIP3    H233977   4.543   0.212   1.964 -1.4988 -0.1230 -0.0095
 4140TIP3   OH233978   2.495   1.216   1.808 -0.8922 -0.4651  0.3442
 4140TIP3    H133979   2.455   1.278   1.869 -0.5980 -0.3097  0.3834
 4140TIP3    H233980   2.495   1.132   1.856 -0.3939 -0.2795  0.6770
 4141TIP3   OH233981   3.993   3.946   1.759  0.1888  0.3815 -0.9051
 4141TIP3    H133982   3.995   3.866   1.707 -2.0629  1.0596 -2.1881
 4141TIP3    H233983   3.969   3.918   1.847 -1.1057 -0.3239 -1.4669
 4142TIP3   OH233984   2.562   1.301   0.122 -0.0689  0.1650 -0.3513
 4142TIP3    H133985   2.606   1.311   0.206 -0.6090 -0.4757  0.0108
 4142TIP3    H233986   2.472   1.280   0.144 -0.3556  0.5765 -1.0953
 4143TIP3   OH233987   3.355   5.787   2.248 -0.1833  0.3879  0.9504
 4143TIP3    H133988   3.332   5.880   2.239 -0.4496  0.2389 -0.1089
 4143TIP3    H233989   3.280   5.748   2.292 -0.6347  0.4524  0.2477
 4144TIP3   OH233990   0.705   2.783   2.232  0.1782  0.2228  0.3436
 4144TIP3    H133991   0.637   2.849   2.218 -1.1494 -1.3141 -0.8210
 4144TIP3    H233992   0.745   2.808   2.315 -1.7849  1.2049  1.0712
 4145TIP3   OH233993   1.567   4.563   1.991 -0.1047  0.5199 -0.2426
 4145TIP3    H133994   1.483   4.525   2.017 -0.5335  1.7850  0.2937
 4145TIP3    H233995   1.627   4.538   2.060 -0.0137 -0.4315 -0.6518
 4146TIP3   OH233996   3.886   1.658   8.024  0.0977  0.3555  0.1687
 4146TIP3    H133997   3.859   1.618   8.107 -3.2951  1.4307 -0.2580
 4146TIP3    H233998   3.926   1.741   8.048 -0.9380  0.6975  0.8051
 4147TIP3   OH233999   6.791   1.337   7.926  0.5420  0.5862 -0.6909
 4147TIP3    H134000   6.762   1.350   7.836  3.9256 -0.7786 -2.1329
 4147TIP3    H234001   6.784   1.243   7.941 -2.3234  1.0100  1.4948
 4148TIP3   OH234002   0.108   0.224   2.329  0.0867  0.1298  0.4276
 4148TIP3    H134003   0.025   0.184   2.301  1.2907 -0.6723 -2.3703
 4148TIP3    H234004   0.093   0.318   2.317 -0.2985 -0.0337 -0.4808
 4149TIP3   OH234005   4.708   2.620   1.604  0.5133  0.4755  0.3454
 4149TIP3    H134006   4.621   2.639   1.641  1.1681  0.3031  2.1043
 4149TIP3    H234007   4.702   2.528   1.578  0.2449  0.3759  0.7381
 4150TIP3   OH234008   4.710   1.732   1.619  0.6715 -0.6053 -0.2126
 4150TIP3    H134009   4.682   1.795   1.552 -1.1799 -1.2003 -0.0593
 4150TIP3    H234010   4.710   1.782   1.701 -0.4394 -0.6924 -0.1482
 4151TIP3   OH234011   1.270   3.585   1.088  0.2397  0.2067 -0.4042
 4151TIP3    H134012   1.349   3.541   1.118 -0.5335 -0.2614  1.0385
 4151TIP3    H234013   1.231   3.526   1.024  1.6327  0.9707 -2.0297
 4152TIP3   OH234014   6.111   5.329   8.542 -0.0398 -0.4181 -0.1512
 4152TIP3    H134015   6.188   5.330   8.486  0.3589  0.9916  0.3743
 4152TIP3    H234016   6.076   5.418   8.536 -0.5064 -0.4987  1.1081
 4153TIP3   OH234017   5.386   2.983   0.281  0.1405  0.0107 -0.0498
 4153TIP3    H134018   5.414   3.061   0.328 -0.4122  1.2942 -1.7546
 4153TIP3    H234019   5.330   2.936   0.343  0.2971  1.0839  0.9186
 4154TIP3   OH234020   2.412   0.484   2.631 -0.3784 -0.3743 -0.1814
 4154TIP3    H134021   2.380   0.394   2.643 -3.1332  0.5938  0.6712
 4154TIP3    H234022   2.464   0.502   2.709 -0.6220 -0.9398  0.1197
 4155TIP3   OH234023   0.846   3.457   8.554  0.1321 -0.3177  0.1656
 4155TIP3    H134024   0.939   3.438   8.570  0.2971 -0.6905 -1.1281
 4155TIP3    H234025   0.812   3.483   8.640  1.7591  1.2165  0.4116
 4156TIP3   OH234026   6.296   6.233   1.589  0.2863 -0.6015 -0.0598
 4156TIP3    H134027   6.357   6.256   1.659 -0.5474 -0.1974  0.5570
 4156TIP3    H234028   6.281   6.139   1.600  0.5180 -0.6308  0.0097
 4157TIP3   OH234029   1.367   4.493   7.443  0.4037 -0.1337 -0.4038
 4157TIP3    H134030   1.316   4.558   7.396  0.9728 -0.2100 -1.1536
 4157TIP3    H234031   1.423   4.453   7.376  0.1661 -1.3006  0.0555
 4158TIP3   OH234032   0.471   5.042   1.068  0.3973 -0.3481  0.3689
 4158TIP3    H134033   0.552   4.996   1.089  0.2639 -0.6359  0.2627
 4158TIP3    H234034   0.434   4.993   0.994  0.9767  0.7729 -0.7003
 4159TIP3   OH234035   0.351   3.868   7.896  0.1701  0.3068  0.2414
 4159TIP3    H134036   0.348   3.815   7.817  0.0233 -0.9189  1.0406
 4159TIP3    H234037   0.277   3.928   7.889  0.7414  0.9079 -0.9907
 4160TIP3   OH234038   2.042   4.525   0.243  0.4416 -0.4470 -0.0475
 4160TIP3    H134039   2.044   4.578   0.323 -0.3727 -1.2704  0.5365
 4160TIP3    H234040   2.008   4.440   0.272 -0.4187 -0.5734 -1.3708
 4161TIP3   OH234041   1.687   6.104   7.589  0.6773  0.6602  0.1275
 4161TIP3    H134042   1.706   6.092   7.682  0.3381  3.1996  0.6034
 4161TIP3    H234043   1.686   6.015   7.552 -1.6452 -0.6499  2.9856
 4162TIP3   OH234044   2.570   2.097   1.829  0.0774  0.5469  0.4017
 4162TIP3    H134045   2.503   2.065   1.768 -0.5175  1.8469  0.3434
 4162TIP3    H234046   2.596   2.182   1.794  1.2089  0.3986  0.8547
 4163TIP3   OH234047   6.008   6.116   7.038 -0.4889 -0.4576 -0.0691
 4163TIP3    H134048   6.054   6.042   7.077 -0.3306 -0.1556  0.3143
 4163TIP3    H234049   5.998   6.091   6.946 -2.6543 -2.0711  0.5360
 4164TIP3   OH234050   1.325   1.039   2.522 -0.1126 -0.4017 -0.0976
 4164TIP3    H134051   1.320   1.105   2.591 -0.8164 -0.4123 -0.1344
 4164TIP3    H234052   1.265   1.070   2.455 -0.9843 -1.4267  0.1841
 4165TIP3   OH234053   0.005   5.173   1.407  0.0858 -0.1173  0.2225
 4165TIP3    H134054   0.021   5.244   1.469  0.3438 -2.0047  2.4485
 4165TIP3    H234055  -0.071   5.126   1.443  0.0377 -1.0790 -1.0688
 4166TIP3   OH234056   3.109   0.149   0.669 -0.1258 -0.4152 -0.2441
 4166TIP3    H134057   3.189   0.193   0.697 -1.4163  2.0877 -0.1510
 4166TIP3    H234058   3.132   0.107   0.586  0.9684  1.4364 -0.9342
 4167TIP3   OH234059   5.895   2.369   1.513  0.0506 -0.2755  0.1391
 4167TIP3    H134060   5.831   2.405   1.452 -0.1337  1.3881  1.2527
 4167TIP3    H234061   5.843   2.330   1.583  0.1661  1.5952  1.3454
 4168TIP3   OH234062   2.705   3.866   6.778 -0.0143 -0.2945 -0.0299
 4168TIP3    H134063   2.728   3.877   6.870 -1.3612 -0.7582  0.3886
 4168TIP3    H234064   2.631   3.926   6.765 -0.0183 -0.4443 -0.7311
 4169TIP3   OH234065   5.651   0.637   8.575  0.4725 -0.0625 -1.0779
 4169TIP3    H134066   5.620   0.722   8.606  0.0781 -0.7710  0.5983
 4169TIP3    H234067   5.675   0.652   8.483  1.0394  2.0041 -0.6455
 4170TIP3   OH234068   5.395   1.635   0.653 -0.2404  0.3875  0.4888
 4170TIP3    H134069   5.453   1.622   0.578 -0.8447 -2.5984  0.4127
 4170TIP3    H234070   5.319   1.581   0.635 -1.9300  2.1660  1.8009
 4171TIP3   OH234071   4.384   1.397   0.037 -0.5086 -0.3266 -0.2582
 4171TIP3    H134072   4.364   1.425  -0.053 -0.2316 -1.9298 -0.8557
 4171TIP3    H234073   4.479   1.394   0.039 -0.5134 -0.1787  0.1353
 4172TIP3   OH234074   3.590   5.525   8.395 -0.2428 -0.4942 -1.0836
 4172TIP3    H134075   3.554   5.491   8.477 -2.0892 -0.4704 -1.8273
 4172TIP3    H234076   3.664   5.580   8.422 -1.6387  0.6468  0.7079
 4173TIP3   OH234077   5.973   0.614   1.701 -0.0851 -0.7988 -0.3431
 4173TIP3    H134078   5.936   0.580   1.783  1.8266  0.5028  1.1561
 4173TIP3    H234079   5.897   0.642   1.651 -1.2774 -0.4352  1.5536
 4174TIP3   OH234080   0.829   1.555   1.814  0.3220 -0.5164  0.0791
 4174TIP3    H134081   0.754   1.582   1.868 -0.5984 -0.2372 -1.2923
 4174TIP3    H234082   0.897   1.620   1.834 -0.0423 -0.3345  0.7844
 4175TIP3   OH234083   1.872   1.162   2.486  0.4546  0.1710  0.6118
 4175TIP3    H134084   1.777   1.170   2.483  0.3660 -0.9307 -0.0653
 4175TIP3    H234085   1.894   1.105   2.413  1.6822  0.7336  0.5169
 4176TIP3   OH234086   3.682   6.505   1.512  0.1969 -0.1406 -0.1934
 4176TIP3    H134087   3.664   6.457   1.593  0.9738 -0.3819 -0.1605
 4176TIP3    H234088   3.760   6.464   1.476 -1.5737 -1.7979 -2.4487
 4177TIP3   OH234089   1.541   1.110   2.895  0.2340  0.6758 -0.7991
 4177TIP3    H134090   1.526   1.157   2.976 -0.5301  2.9071 -2.1467
 4177TIP3    H234091   1.462   1.124   2.843  0.6007 -0.8722 -1.8627
 4178TIP3   OH234092   4.881   3.164   2.275  0.2618 -0.1781  0.2110
 4178TIP3    H134093   4.824   3.140   2.202  1.9708 -0.3927 -1.1150
 4178TIP3    H234094   4.835   3.234   2.320 -1.0578 -0.3700 -0.7881
 4179TIP3   OH234095   5.778   0.149   7.976  0.2617 -0.0240  0.0119
 4179TIP3    H134096   5.824   0.127   7.896  1.0368 -2.0675  0.9527
 4179TIP3    H234097   5.708   0.083   7.983 -0.5475  0.8471  0.4255
 4180TIP3   OH234098   3.749   0.991   7.179 -0.0630  0.7217 -0.1076
 4180TIP3    H134099   3.828   1.016   7.228  0.0909  1.3914 -0.6896
 4180TIP3    H234100   3.772   0.907   7.140 -0.7102 -0.5942  2.1465
 4181TIP3   OH234101   0.137   1.986   8.604  0.1857 -0.3498  0.0184
 4181TIP3    H134102   0.172   1.906   8.565  0.1467 -0.5044  0.2963
 4181TIP3    H234103   0.197   2.055   8.575 -0.7290 -0.1952 -1.6220
 4182TIP3   OH234104   2.649   6.782   7.481 -0.2233 -0.2790  0.3790
 4182TIP3    H134105   2.698   6.860   7.456 -2.7296  0.9684 -0.9946
 4182TIP3    H234106   2.573   6.815   7.527 -0.3737 -2.0758  1.5093
 4183TIP3   OH234107   2.366   5.366   8.560 -0.4974  0.1019  0.1157
 4183TIP3    H134108   2.398   5.426   8.627 -0.4297  2.2304 -1.6871
 4183TIP3    H234109   2.289   5.325   8.599  0.2241  0.3570  1.8957
 4184TIP3   OH234110   6.339   5.408   0.476  0.3225 -0.3012  0.2489
 4184TIP3    H134111   6.403   5.407   0.405  1.6770  1.5266  1.3678
 4184TIP3    H234112   6.259   5.443   0.436  0.9248  0.2729 -0.4763
 4185TIP3   OH234113   0.569   4.516   0.240  0.1195  0.7130  0.1666
 4185TIP3    H134114   0.566   4.483   0.330  0.5059 -0.8856 -0.3881
 4185TIP3    H234115   0.568   4.612   0.250  0.8670  0.5748  1.8999
 4186TIP3   OH234116   5.879   4.137   7.875  0.9494 -0.5974 -0.4655
 4186TIP3    H134117   5.794   4.123   7.916  0.8300 -1.2789 -0.9233
 4186TIP3    H234118   5.933   4.174   7.944  0.0755  0.5652 -0.3730
 4187TIP3   OH234119   6.190   5.359   2.639  0.4697  0.0538 -0.0744
 4187TIP3    H134120   6.232   5.295   2.697  0.2698  0.7964  0.9081
 4187TIP3    H234121   6.109   5.383   2.684  0.0301  0.2235 -0.9390
 4188TIP3   OH234122   3.789   1.764   8.353  0.3043 -0.1870  0.0829
 4188TIP3    H134123   3.753   1.679   8.331  1.4644 -0.4499 -0.8687
 4188TIP3    H234124   3.826   1.753   8.441 -0.5016 -0.3491  0.4055
 4189TIP3   OH234125   5.405   2.245   2.345  0.2736  0.5638 -0.0161
 4189TIP3    H134126   5.357   2.227   2.264  0.8177  1.6911 -0.6008
 4189TIP3    H234127   5.337   2.269   2.408 -0.2244 -0.9703  0.0905
 4190TIP3   OH234128   3.559   2.128   7.925  0.1517  0.4419 -0.1385
 4190TIP3    H134129   3.510   2.197   7.971  1.3390  0.7518  0.6965
 4190TIP3    H234130   3.567   2.057   7.988 -2.3030 -1.1429 -1.4467
 4191TIP3   OH234131   6.207   3.661   6.437  0.3821 -0.6034  0.2668
 4191TIP3    H134132   6.197   3.713   6.516  0.4337 -2.2234  1.4030
 4191TIP3    H234133   6.143   3.697   6.376  1.0472  1.3362  0.6627
 4192TIP3   OH234134   0.863   0.177   7.441 -0.7305 -0.4662 -0.0203
 4192TIP3    H134135   0.795   0.115   7.413 -0.2785  0.8640 -5.1729
 4192TIP3    H234136   0.825   0.263   7.422  1.4578  0.4020 -0.7309
 4193TIP3   OH234137   4.869   2.668   2.684 -0.2802 -0.8431 -0.5552
 4193TIP3    H134138   4.839   2.578   2.697 -0.1103 -0.9287 -0.7583
 4193TIP3    H234139   4.849   2.712   2.767  1.1387 -1.4755  0.1428
 4194TIP3   OH234140   3.768   4.458   2.299 -0.3778 -0.2497  0.0072
 4194TIP3    H134141   3.685   4.468   2.347 -0.0698 -0.6186  0.6179
 4194TIP3    H234142   3.827   4.416   2.361  1.0008  2.0779  0.3896
 4195TIP3   OH234143   2.401   4.066   1.942  0.4697  0.4857  0.3020
 4195TIP3    H134144   2.394   4.067   1.847 -2.4547 -0.2035  0.4317
 4195TIP3    H234145   2.489   4.033   1.959  1.0481  0.5726 -2.1281
 4196TIP3   OH234146   4.302   1.051   0.906 -0.0450  0.1409  0.4786
 4196TIP3    H134147   4.217   1.068   0.946  0.1952 -2.1141  2.1211
 4196TIP3    H234148   4.292   0.966   0.864  1.3780 -0.1651  0.7050
 4197TIP3   OH234149   5.044   2.683   8.671 -0.0803  0.0996 -0.7969
 4197TIP3    H134150   5.068   2.756   8.615 -1.4323  1.0469 -0.1886
 4197TIP3    H234151   5.065   2.712   8.760  0.0421 -0.5304 -0.6156
 4198TIP3   OH234152   4.566   5.675   8.343  0.7420 -0.1187  0.0989
 4198TIP3    H134153   4.623   5.609   8.304  1.4583  0.8846 -0.6267
 4198TIP3    H234154   4.618   5.756   8.339 -0.9899  0.9999 -1.2641
 4199TIP3   OH234155   5.942   6.483   0.062  0.1327 -0.3149  0.2018
 4199TIP3    H134156   5.857   6.452   0.031 -0.6003  0.5887  1.2068
 4199TIP3    H234157   6.003   6.413   0.040 -0.6757 -0.5259 -1.5020
 4200TIP3   OH234158   2.847   1.734   2.701 -0.0040  0.2605  0.1252
 4200TIP3    H134159   2.815   1.649   2.671 -0.5426  0.3757  0.3538
 4200TIP3    H234160   2.937   1.717   2.729 -0.7432 -0.7215  2.1415
 4201TIP3   OH234161   5.109   2.938   8.593 -0.4826 -0.3774 -0.2314
 4201TIP3    H134162   5.170   2.921   8.665 -0.3121 -0.9912 -0.5168
 4201TIP3    H234163   5.024   2.948   8.636 -0.3233 -0.3733  0.0857
 4202TIP3   OH234164   4.381   4.159   8.608  0.0377  0.5606 -0.2246
 4202TIP3    H134165   4.400   4.221   8.537 -0.4836  1.1502  0.1423
 4202TIP3    H234166   4.454   4.170   8.669  1.1038 -0.7818 -1.1979
 4203TIP3   OH234167   2.073   6.067   7.859  0.5295  0.7347  0.0926
 4203TIP3    H134168   2.045   6.147   7.814 -0.7023  0.5222  0.4449
 4203TIP3    H234169   2.161   6.087   7.892  1.2796  1.0508 -1.9810
 4204TIP3   OH234170   1.467   3.426   1.176  0.0200  0.1205 -0.5191
 4204TIP3    H134171   1.493   3.446   1.265  0.3256  0.7322 -0.7422
 4204TIP3    H234172   1.464   3.330   1.173  0.2636  0.0896  0.0666
 4205TIP3   OH234173   4.836   5.179   7.064  0.6705  0.5062  0.4888
 4205TIP3    H134174   4.755   5.160   7.113  0.8473  0.5237  0.7885
 4205TIP3    H234175   4.858   5.096   7.021 -0.1724  0.8143 -0.5817
 4206TIP3   OH234176   0.856   6.506   8.039 -0.1493 -0.4975 -0.5434
 4206TIP3    H134177   0.930   6.460   8.080  0.2303  0.4213 -0.1429
 4206TIP3    H234178   0.898   6.576   7.989 -0.7787  2.2258  2.4077
 4207TIP3   OH234179   5.957   6.212   8.163 -0.1885 -0.2005 -0.4804
 4207TIP3    H134180   5.959   6.307   8.163 -0.4840 -0.1885 -1.3041
 4207TIP3    H234181   5.910   6.188   8.083  0.6802 -1.0579 -0.7608
 4208TIP3   OH234182   4.910   6.534   1.646  0.0985 -0.0112 -0.0474
 4208TIP3    H134183   4.954   6.465   1.695  1.7934  0.3115 -1.0249
 4208TIP3    H234184   4.912   6.504   1.555  0.3659  1.0507 -0.4069
 4209TIP3   OH234185   1.242   4.884   8.537  0.5004 -0.3324  0.1101
 4209TIP3    H134186   1.199   4.799   8.546  1.3227 -0.7072  0.5765
 4209TIP3    H234187   1.306   4.870   8.468 -1.8275  0.9367 -2.5152
 4210TIP3   OH234188   1.976   5.814   1.771 -0.0152 -0.2743 -0.3976
 4210TIP3    H134189   2.054   5.841   1.820 -0.0710 -1.8564  0.6374
 4210TIP3    H234190   1.909   5.801   1.838 -0.6773 -0.5552 -1.1015
 4211TIP3   OH234191   5.971   4.242   1.228 -0.2212 -0.0770  0.5519
 4211TIP3    H134192   5.950   4.192   1.150 -0.3744  2.4499 -1.1461
 4211TIP3    H234193   5.930   4.194   1.300 -0.3306 -2.3142 -0.9142
 4212TIP3   OH234194   2.096   0.642   2.601  0.0575 -0.4108 -0.8648
 4212TIP3    H134195   2.148   0.585   2.544 -0.4895 -0.4555 -1.3163
 4212TIP3    H234196   2.034   0.583   2.644  0.9476 -0.5083  0.3652
 4213TIP3   OH234197   3.635   6.498   7.253  0.1058 -0.5140  0.2225
 4213TIP3    H134198   3.693   6.530   7.322  0.8391  0.8206 -0.9644
 4213TIP3    H234199   3.683   6.515   7.171 -0.9988 -1.4755 -0.6566
 4214TIP3   OH234200   5.161   4.252   0.212  0.0855 -0.4344 -0.2067
 4214TIP3    H134201   5.092   4.299   0.260  0.1139 -1.2398  0.6583
 4214TIP3    H234202   5.237   4.309   0.217  0.5225 -1.1076  2.0245
 4215TIP3   OH234203   5.473   4.109   1.642  0.1592 -0.1839  0.7298
 4215TIP3    H134204   5.526   4.029   1.642  2.4527  1.2306  0.9858
 4215TIP3    H234205   5.392   4.084   1.686  0.1299 -2.7365 -0.5905
 4216TIP3   OH234206   1.054   0.386   2.183 -0.1180 -0.7892  0.6412
 4216TIP3    H134207   0.995   0.389   2.108 -1.0161 -0.2851  1.3472
 4216TIP3    H234208   1.131   0.436   2.156 -1.2425  1.0481  0.7301
 4217TIP3   OH234209   3.449   4.195   0.578 -0.2381 -0.1377  0.6431
 4217TIP3    H134210   3.492   4.230   0.656  2.0845 -0.5356 -0.3752
 4217TIP3    H234211   3.518   4.145   0.533 -1.8605 -1.0228 -0.9876
 4218TIP3   OH234212   4.036   2.358   0.252 -0.0376  0.4160  0.2536
 4218TIP3    H134213   3.948   2.320   0.254  0.1842 -0.1289 -0.3225
 4218TIP3    H234214   4.083   2.315   0.323  0.5227 -1.1774 -1.0249
 4219TIP3   OH234215   5.700   0.835   2.540 -0.1732  0.2396  0.8478
 4219TIP3    H134216   5.763   0.859   2.471  0.0081 -1.7942  0.2513
 4219TIP3    H234217   5.616   0.866   2.506  0.2196  1.3437  0.8170
 4220TIP3   OH234218   1.907   1.454   8.526 -0.5610 -0.0160  0.6629
 4220TIP3    H134219   1.976   1.519   8.523 -0.0220 -0.6149 -0.7621
 4220TIP3    H234220   1.828   1.501   8.502 -0.1087  0.0529 -0.7373
 4221TIP3   OH234221   3.289   4.581   2.943 -0.3358  0.5770 -0.0643
 4221TIP3    H134222   3.215   4.528   2.973  0.7907 -0.2108  1.5081
 4221TIP3    H234223   3.347   4.518   2.899  0.1969  0.8277  0.2688
 4222TIP3   OH234224   5.881   0.132   1.351  0.0145  0.3141  0.1564
 4222TIP3    H134225   5.929   0.215   1.352 -0.7475  0.8331 -1.7045
 4222TIP3    H234226   5.848   0.125   1.261 -0.4149 -1.7412  0.4358
 4223TIP3   OH234227   1.514   2.724   2.480 -0.0383  0.3030 -0.0335
 4223TIP3    H134228   1.453   2.797   2.487 -1.5479 -0.9033 -0.2092
 4223TIP3    H234229   1.479   2.657   2.539  0.3792 -0.9107 -1.1224
 4224TIP3   OH234230   3.690   2.886   3.134 -0.2337  0.0359 -0.1203
 4224TIP3    H134231   3.619   2.848   3.082  0.4993  1.6299 -2.4525
 4224TIP3    H234232   3.662   2.976   3.152 -0.1848 -0.2913  1.8183
 4225TIP3   OH234233   1.845   6.628   1.099  0.1628 -0.1050 -0.6552
 4225TIP3    H134234   1.921   6.572   1.114  0.3360 -0.0226 -1.2031
 4225TIP3    H234235   1.846   6.690   1.171  0.0304 -0.7399 -0.0984
 4226TIP3   OH234236   4.224   6.763   1.488  0.3445 -0.6009 -0.3626
 4226TIP3    H134237   4.137   6.780   1.452 -0.3319 -1.6972  0.6702
 4226TIP3    H234238   4.208   6.703   1.561  2.0006 -0.9889 -0.2872
 4227TIP3   OH234239   0.497   6.322   1.867 -0.0445 -0.1828  0.0595
 4227TIP3    H134240   0.427   6.363   1.816  1.1175  1.1385 -0.5429
 4227TIP3    H234241   0.508   6.236   1.828 -0.0529  0.3278 -1.1045
 4228TIP3   OH234242   5.645   4.122   8.017  0.3585  0.5834  0.5830
 4228TIP3    H134243   5.613   4.111   8.107 -0.3007  1.0319  0.4096
 4228TIP3    H234244   5.600   4.201   7.985  0.9116  0.6731  0.0038
 4229TIP3   OH234245   0.238   3.781   8.680 -0.0821 -0.2489 -0.2313
 4229TIP3    H134246   0.224   3.819   8.593  1.9800  0.3130 -0.3893
 4229TIP3    H234247   0.150   3.763   8.714 -0.9898  1.1280 -1.7240
 4230TIP3   OH234248   3.099   2.298   8.267 -0.5221  0.5519 -0.4538
 4230TIP3    H134249   3.159   2.265   8.334 -0.3286 -0.7211 -1.2117
 4230TIP3    H234250   3.124   2.390   8.255  2.3602 -0.2555 -1.7959
 4231TIP3   OH234251   6.194   0.052   1.926 -0.4750  0.4746 -0.7999
 4231TIP3    H134252   6.260  -0.001   1.881 -1.5221 -0.7705 -0.9001
 4231TIP3    H234253   6.237   0.079   2.007 -0.4378 -1.8702  0.0178
 4232TIP3   OH234254   6.481   5.288   7.869 -0.0848  0.4407  0.2485
 4232TIP3    H134255   6.566   5.244   7.864 -0.4845 -0.4933  1.2831
 4232TIP3    H234256   6.426   5.240   7.806 -0.0712  0.4983  0.1933
 4233TIP3   OH234257   1.078   0.602   0.417 -0.0093  0.1533  0.2019
 4233TIP3    H134258   1.055   0.601   0.324 -3.1609 -0.4683  0.9024
 4233TIP3    H234259   1.036   0.525   0.454  2.5361 -0.5392  1.9334
 4234TIP3   OH234260   4.898   4.327   2.568  0.2125  0.4615 -0.5469
 4234TIP3    H134261   4.845   4.366   2.638  1.1056  0.0201  0.3952
 4234TIP3    H234262   4.940   4.402   2.526  1.1804  0.6096  0.6448
 4235TIP3   OH234263   5.991   3.064   7.943  0.4007 -0.9802  0.2068
 4235TIP3    H134264   6.015   3.145   7.989  0.2038 -0.2404 -0.9471
 4235TIP3    H234265   6.020   3.078   7.853  1.2848 -2.6252  0.1897
 4236TIP3   OH234266   1.628   4.722   0.967  0.4182  0.4250  0.3843
 4236TIP3    H134267   1.684   4.789   1.007 -2.0604  1.6238  2.0814
 4236TIP3    H234268   1.636   4.737   0.873  3.1709  0.2615  0.4939
 4237TIP3   OH234269   2.221   2.212   8.117 -0.1881  0.3506 -0.3138
 4237TIP3    H134270   2.152   2.272   8.146  1.5483  1.7926  1.1131
 4237TIP3    H234271   2.223   2.144   8.184 -0.2000  0.3374 -0.3270
 4238TIP3   OH234272   1.865   6.791   1.332 -0.0280  0.5519 -0.1616
 4238TIP3    H134273   1.956   6.775   1.355  0.2019 -0.3275 -1.5319
 4238TIP3    H234274   1.831   6.844   1.403  1.4823  0.6823  0.5015
 4239TIP3   OH234275   3.403   4.042   1.557  0.0534  0.2789 -0.3112
 4239TIP3    H134276   3.323   4.046   1.506  0.3602 -0.9850 -0.9296
 4239TIP3    H234277   3.416   4.132   1.589 -0.4320  0.9924 -1.9968
 4240TIP3   OH234278   4.618   2.862   1.383 -0.2441 -0.1664 -0.0106
 4240TIP3    H134279   4.679   2.849   1.456  1.2119  0.6166 -1.0573
 4240TIP3    H234280   4.619   2.778   1.336 -0.7819 -0.4931  0.5370
 4241TIP3   OH234281   5.489   4.093   0.848 -0.4199  0.1316 -0.0100
 4241TIP3    H134282   5.396   4.070   0.854 -0.0596 -1.4325  0.2185
 4241TIP3    H234283   5.507   4.142   0.929 -1.1555  0.9480 -0.3264
 4242TIP3   OH234284   3.910   4.148   0.974 -0.1068 -0.1341 -0.0299
 4242TIP3    H134285   3.914   4.240   0.948  0.9264 -0.0733  0.2944
 4242TIP3    H234286   3.876   4.103   0.897  0.7506  0.3387 -0.7001
 4243TIP3   OH234287   3.338   5.564   1.772  0.3887 -0.0343  0.0479
 4243TIP3    H134288   3.325   5.538   1.864  1.0805 -1.6822 -0.2777
 4243TIP3    H234289   3.433   5.568   1.762  0.3710 -1.5040 -0.9902
 4244TIP3   OH234290   4.699   0.394   7.719  0.2336 -0.0962 -0.0199
 4244TIP3    H134291   4.755   0.318   7.734 -1.0583 -0.9745  0.4924
 4244TIP3    H234292   4.668   0.384   7.629 -0.1979 -0.3656  0.1549
 4245TIP3   OH234293   1.658   5.810   1.462 -0.4388 -0.2612 -0.1058
 4245TIP3    H134294   1.737   5.857   1.489 -0.1723 -0.4153 -0.5960
 4245TIP3    H234295   1.586   5.857   1.503 -0.2975  1.4310 -1.6700
 4246TIP3   OH234296   2.495   6.248   1.723  0.2839  0.3897  0.0394
 4246TIP3    H134297   2.451   6.168   1.693  0.3294  0.3595  0.0528
 4246TIP3    H234298   2.583   6.219   1.746  0.0699  0.2960  0.7775
 4247TIP3   OH234299   1.268   5.513   0.867  0.1059  0.2634  0.0497
 4247TIP3    H134300   1.177   5.512   0.898 -0.2642  2.2932 -0.7774
 4247TIP3    H234301   1.288   5.606   0.855  0.4434 -0.1705 -4.9059
 4248TIP3   OH234302   0.925   3.331   2.838  0.2515  0.3408 -0.0033
 4248TIP3    H134303   1.000   3.349   2.895 -0.3790  0.6144  0.7560
 4248TIP3    H234304   0.886   3.251   2.874 -2.1021  2.2449  2.0898
 4249TIP3   OH234305   2.317   3.813   7.755  0.3147 -0.1425  0.1068
 4249TIP3    H134306   2.292   3.726   7.787 -0.4987  0.1805  0.3731
 4249TIP3    H234307   2.298   3.810   7.661  0.1504 -0.2049  0.1418
 4250TIP3   OH234308   2.001   3.600   3.082 -0.2546 -0.2336 -0.7378
 4250TIP3    H134309   2.008   3.545   3.005 -2.8972 -0.1814 -1.1072
 4250TIP3    H234310   1.929   3.660   3.063 -1.2078 -0.4037  1.8337
 4251TIP3   OH234311   5.995   0.258   0.172  0.7311  0.1252 -0.1917
 4251TIP3    H134312   6.047   0.326   0.131  3.7758 -1.8880  0.0103
 4251TIP3    H234313   5.965   0.203   0.100 -0.8621  1.0275 -0.2671
 4252TIP3   OH234314   6.362   3.363   8.445  0.3159  0.7068 -0.5517
 4252TIP3    H134315   6.334   3.275   8.469  0.3161  0.3752 -1.7007
 4252TIP3    H234316   6.303   3.421   8.492 -0.4731  0.0637 -0.7260
 4253TIP3   OH234317   1.736   4.493   2.181  0.4304 -0.3225  0.1753
 4253TIP3    H134318   1.714   4.480   2.273 -1.7719 -0.0737 -0.2477
 4253TIP3    H234319   1.773   4.410   2.152 -1.7350 -1.4869  0.5641
 4254TIP3   OH234320   0.700   3.667   0.939  0.4044  0.1165 -0.1947
 4254TIP3    H134321   0.705   3.700   1.028  0.9457 -0.8796  0.1461
 4254TIP3    H234322   0.723   3.743   0.884 -0.6726  0.9385  0.4543
 4255TIP3   OH234323   5.663   0.722   8.315 -0.1093 -0.1080 -0.0110
 4255TIP3    H134324   5.712   0.640   8.308 -0.1169  0.0329 -2.9755
 4255TIP3    H234325   5.727   0.785   8.347  0.4280 -0.8340  0.3952
 4256TIP3   OH234326   5.347   0.733   8.359 -0.2836  0.3444 -0.3357
 4256TIP3    H134327   5.292   0.703   8.287  1.0467 -1.4592 -0.6534
 4256TIP3    H234328   5.437   0.715   8.331  0.2527 -1.2022  2.0393
 4257TIP3   OH234329   5.380   5.324   8.592 -0.3183  0.3340  0.3536
 4257TIP3    H134330   5.291   5.358   8.582 -0.5418  0.4804  2.4337
 4257TIP3    H234331   5.387   5.302   8.685  2.3808  1.9117  0.6160
 4258TIP3   OH234332   5.136   4.140   1.905  0.0900  0.0783  0.5415
 4258TIP3    H134333   5.172   4.055   1.880 -1.3415 -0.4636  0.2524
 4258TIP3    H234334   5.184   4.203   1.851  1.2417 -0.5078  0.8323
 4259TIP3   OH234335   4.781   6.140   0.195 -0.4762 -0.5643  0.2039
 4259TIP3    H134336   4.754   6.061   0.242 -2.8058 -0.4924 -0.9195
 4259TIP3    H234337   4.710   6.158   0.134  0.4053  1.9114 -0.2106
 4260TIP3   OH234338   5.578   0.968   0.411  0.0728  0.4575 -0.1446
 4260TIP3    H134339   5.599   0.879   0.383 -0.8122  0.3862 -0.6375
 4260TIP3    H234340   5.662   1.013   0.415  0.7022 -0.7753  1.5312
 4261TIP3   OH234341   3.298   2.745   2.086  0.5369  0.5195 -0.4144
 4261TIP3    H134342   3.342   2.786   2.011  1.0449 -0.8536 -0.8875
 4261TIP3    H234343   3.250   2.672   2.048  1.1135 -0.4348  0.6447
 4262TIP3   OH234344   0.029   0.775   0.164  0.0474  0.1504 -0.0127
 4262TIP3    H134345   0.059   0.863   0.188  1.9822 -0.0148 -1.5574
 4262TIP3    H234346  -0.034   0.752   0.232 -1.1214  3.0215  0.0123
 4263TIP3   OH234347   1.927   3.237   8.427  0.2595 -0.0985  0.0030
 4263TIP3    H134348   1.875   3.306   8.468  2.2540  2.5891 -1.5750
 4263TIP3    H234349   1.923   3.163   8.487 -4.3427  0.2739  0.4640
 4264TIP3   OH234350   3.593   3.181   1.225 -0.0878  0.2733  0.0211
 4264TIP3    H134351   3.547   3.202   1.144 -1.2399 -1.0195  0.2954
 4264TIP3    H234352   3.531   3.204   1.295  0.2122 -0.2087  0.4593
 4265TIP3   OH234353   0.026   2.591   0.386  0.0631  0.6826  0.0881
 4265TIP3    H134354  -0.047   2.646   0.414 -1.1467  0.2755 -2.0251
 4265TIP3    H234355  -0.013   2.505   0.370  1.6980 -0.5586  2.1856
 4266TIP3   OH234356   2.177   6.672   0.635 -0.1805 -0.8420 -0.4878
 4266TIP3    H134357   2.175   6.602   0.700  0.7776 -0.4751 -0.0547
 4266TIP3    H234358   2.206   6.749   0.684  0.2998 -0.5011 -1.2998
 4267TIP3   OH234359   2.121   2.330   0.517 -0.0241  0.2124 -0.3653
 4267TIP3    H134360   2.069   2.364   0.590  1.0069 -0.6428  0.8116
 4267TIP3    H234361   2.212   2.334   0.548  0.2893 -2.0221 -0.7800
 4268TIP3   OH234362   4.039   1.059   0.656 -0.1703  0.4567  0.1139
 4268TIP3    H134363   4.013   1.118   0.586  0.4700  0.9199  0.2609
 4268TIP3    H234364   4.079   0.985   0.611 -0.6027  0.3204 -0.0507
 4269TIP3   OH234365   2.715   3.240   7.556  0.0133 -0.2780 -0.3837
 4269TIP3    H134366   2.666   3.165   7.590  0.5423 -0.2064  0.5791
 4269TIP3    H234367   2.716   3.227   7.461  2.5445 -3.0210 -0.1139
 4270TIP3   OH234368   5.060   3.379   2.028  0.0474 -0.3526 -0.1420
 4270TIP3    H134369   4.988   3.390   2.090 -0.2156 -0.4940 -0.4217
 4270TIP3    H234370   5.090   3.468   2.011  0.5453 -0.3528  0.6839
 4271TIP3   OH234371   4.951   1.152   1.241  0.6529  0.3593 -0.2895
 4271TIP3    H134372   5.044   1.164   1.259  0.8494 -2.6286  1.4471
 4271TIP3    H234373   4.909   1.165   1.326 -0.0517 -1.4713 -0.3154
 4272TIP3   OH234374   5.566   6.472   3.304  0.2868  0.1931  0.5318
 4272TIP3    H134375   5.508   6.413   3.352  2.2029 -0.9029  1.6143
 4272TIP3    H234376   5.508   6.520   3.245 -1.3978 -2.7101 -0.3817
 4273TIP3   OH234377   0.748   0.667   0.609 -0.7973  0.3718  0.0576
 4273TIP3    H134378   0.703   0.590   0.644  1.6052 -1.3102 -0.3019
 4273TIP3    H234379   0.813   0.690   0.675 -1.1886  1.8896 -0.0350
 4274TIP3   OH234380   5.310   1.064   0.388 -0.1459 -0.2592 -0.4134
 4274TIP3    H134381   5.395   1.020   0.395 -0.4543 -0.6406  1.4701
 4274TIP3    H234382   5.322   1.146   0.435 -0.7707 -0.2425 -0.2758
 4275TIP3   OH234383   6.669   4.458   8.396  0.4221  0.1112 -0.6075
 4275TIP3    H134384   6.667   4.379   8.342 -0.5782 -0.1635 -0.1961
 4275TIP3    H234385   6.758   4.460   8.431  0.4968 -0.7857 -0.7051
 4276TIP3   OH234386   3.099   0.971   3.041  0.3766  0.3886  0.1638
 4276TIP3    H134387   3.102   0.917   3.120 -1.0878  0.6269  0.4192
 4276TIP3    H234388   3.084   1.060   3.074 -1.8098  0.2895 -0.3771
 4277TIP3   OH234389   5.594   1.462   8.662  0.0623 -0.1605 -0.3934
 4277TIP3    H134390   5.644   1.432   8.739 -1.2040  1.5427  1.1813
 4277TIP3    H234391   5.600   1.558   8.666 -1.1980 -0.0011 -1.6275
 4278TIP3   OH234392   4.248   2.238   0.049 -0.1740 -0.5609  0.0425
 4278TIP3    H134393   4.165   2.196   0.024 -1.0109  0.7220  0.5539
 4278TIP3    H234394   4.233   2.271   0.137  1.4624 -1.7116  0.7897
 4279TIP3   OH234395   1.056   0.847   2.326 -0.6685 -0.2077 -0.1742
 4279TIP3    H134396   1.052   0.940   2.305 -3.3278  0.0179  1.0227
 4279TIP3    H234397   1.070   0.845   2.421  0.3427 -1.0697 -0.3229
 4280TIP3   OH234398   2.109   3.293   2.148  0.2827  0.0069  0.5113
 4280TIP3    H134399   2.116   3.236   2.225  1.4188 -0.2881  0.2033
 4280TIP3    H234400   2.061   3.369   2.180  0.8409 -0.0549  1.5594
 4281TIP3   OH234401   1.795   4.312   2.720  0.0626 -0.0360 -0.3896
 4281TIP3    H134402   1.713   4.268   2.699 -0.8727 -0.0526  2.8013
 4281TIP3    H234403   1.853   4.242   2.750 -0.3409  0.4543  1.6468
 4282TIP3   OH234404   0.698   6.173   6.636  0.0526 -0.5827  0.2002
 4282TIP3    H134405   0.695   6.090   6.588  2.0988 -1.3301  1.2490
 4282TIP3    H234406   0.641   6.160   6.712  1.0262 -1.3810  0.8199
 4283TIP3   OH234407   2.050   3.553   2.238 -0.3263  0.1625  0.3676
 4283TIP3    H134408   2.061   3.642   2.272 -2.7434  1.4631 -1.8999
 4283TIP3    H234409   2.035   3.500   2.316 -1.9846  2.3311  1.6320
 4284TIP3   OH234410   5.768   3.958   7.207 -0.3095  0.2219 -0.0330
 4284TIP3    H134411   5.720   3.950   7.125 -1.3882  0.5505  0.5533
 4284TIP3    H234412   5.803   4.047   7.206  3.0943 -0.9693 -1.9211
 4285TIP3   OH234413   0.386   1.564   7.624  0.1601  0.3193  0.4009
 4285TIP3    H134414   0.406   1.617   7.701 -0.7824 -0.2506  1.0513
 4285TIP3    H234415   0.409   1.620   7.550  2.0138  0.5248  1.0648
 4286TIP3   OH234416   5.174   0.569   2.345  1.0201  0.0642  0.2492
 4286TIP3    H134417   5.172   0.494   2.405  0.9376 -1.8850 -2.0054
 4286TIP3    H234418   5.257   0.560   2.298  0.7815  1.1083 -0.3940
 4287TIP3   OH234419   2.389   6.820   7.811  0.2128 -0.4326 -0.6503
 4287TIP3    H134420   2.468   6.769   7.801  0.2942 -0.1116 -1.8289
 4287TIP3    H234421   2.420   6.909   7.832  0.0812 -0.7738  1.1160
 4288TIP3   OH234422   0.950   1.113   2.669 -0.1792 -0.1401 -0.8560
 4288TIP3    H134423   1.003   1.060   2.728 -0.7234 -0.5405 -0.7209
 4288TIP3    H234424   0.912   1.051   2.607  0.0883  0.2317 -1.4038
 4289TIP3   OH234425   1.353   1.906   8.314  0.2459  0.3120 -0.0314
 4289TIP3    H134426   1.434   1.920   8.364 -0.5707  2.2013  0.8322
 4289TIP3    H234427   1.370   1.825   8.264  2.2042  0.0112  1.0153
 4290TIP3   OH234428   3.704   6.013   0.951 -0.1103  0.2174 -0.3251
 4290TIP3    H134429   3.656   5.959   1.014 -0.8702  2.3575  1.0284
 4290TIP3    H234430   3.796   5.999   0.972 -0.2875 -0.4746  0.0314
 4291TIP3   OH234431   2.898   0.185   2.101 -0.3118  0.0744  0.0311
 4291TIP3    H134432   2.974   0.145   2.143 -0.0314  1.0404  0.4787
 4291TIP3    H234433   2.905   0.278   2.123 -1.0884  0.3306 -0.7488
 4292TIP3   OH234434   5.474   2.853   2.092  0.7276 -0.0468 -0.3676
 4292TIP3    H134435   5.443   2.783   2.034  2.2822 -1.6037  0.5937
 4292TIP3    H234436   5.549   2.891   2.046  2.1506 -1.4829  0.6577
 4293TIP3   OH234437   3.699   4.682   1.666  0.1115  0.7397 -0.2192
 4293TIP3    H134438   3.782   4.704   1.707  0.8339 -0.4465 -1.0018
 4293TIP3    H234439   3.662   4.767   1.641  0.8847  1.3063  0.4963
 4294TIP3   OH234440   1.317   3.824   1.726 -0.6358  0.4476  0.7231
 4294TIP3    H134441   1.273   3.767   1.789 -2.4125  0.8000 -0.1363
 4294TIP3    H234442   1.339   3.903   1.776  0.4969 -0.3644  1.5544
 4295TIP3   OH234443   0.589   4.354   7.802 -0.3682  0.5379 -0.3795
 4295TIP3    H134444   0.663   4.404   7.838  0.3367  1.0459 -2.3780
 4295TIP3    H234445   0.579   4.280   7.862  0.7187  1.3143  0.8297
 4296TIP3   OH234446   0.166   0.005   7.496  0.1959 -0.3719  0.0078
 4296TIP3    H134447   0.194   0.037   7.582 -1.5904 -0.6476  0.7518
 4296TIP3    H234448   0.071  -0.003   7.504  0.0631 -1.0168 -1.8064
 4297TIP3   OH234449   6.277   2.860   1.273 -0.0083 -0.2081 -0.6584
 4297TIP3    H134450   6.282   2.867   1.369 -0.6580 -1.0115 -0.5531
 4297TIP3    H234451   6.199   2.807   1.257 -0.5881  0.9156 -1.6812
 4298TIP3   OH234452   6.688   0.430   1.081 -0.3040  0.1190 -0.4288
 4298TIP3    H134453   6.631   0.377   1.137  1.6226 -3.3294 -1.4161
 4298TIP3    H234454   6.771   0.435   1.129  0.2988  0.0765 -1.4320
 4299TIP3   OH234455   0.847   4.051   7.584  0.6308 -0.5634  0.0083
 4299TIP3    H134456   0.837   4.030   7.491 -1.0229  0.8079 -0.1634
 4299TIP3    H234457   0.783   3.995   7.628  0.4839 -0.2671  0.1757
 4300TIP3   OH234458   1.047   3.091   8.158  0.3624 -0.5861 -0.3868
 4300TIP3    H134459   1.033   2.997   8.150 -0.7321 -0.3042 -2.2243
 4300TIP3    H234460   0.959   3.129   8.162  0.7840  0.3629  0.8154
 4301TIP3   OH234461   2.749   6.164   7.416  0.2401  0.3036 -0.5245
 4301TIP3    H134462   2.813   6.152   7.346  0.7104  0.6178 -0.1559
 4301TIP3    H234463   2.708   6.249   7.395  0.2360  0.3000 -0.5315
 4302TIP3   OH234464   5.379   4.800   2.112  0.0131 -1.0836  0.1441
 4302TIP3    H134465   5.455   4.743   2.121  0.4731 -0.4439  0.3449
 4302TIP3    H234466   5.351   4.818   2.202  1.9413  1.7313  0.3182
 4303TIP3   OH234467   1.219   0.404   7.614  0.3998 -0.3623  0.4387
 4303TIP3    H134468   1.244   0.455   7.692 -0.4240 -0.6868  0.9175
 4303TIP3    H234469   1.144   0.353   7.641 -1.0853  0.8884 -1.0904
 4304TIP3   OH234470   1.588   4.611   6.620 -0.1399 -0.1569  0.1633
 4304TIP3    H134471   1.668   4.663   6.629  1.1485 -2.0256  0.1115
 4304TIP3    H234472   1.580   4.565   6.704  1.1973 -3.0791 -1.1822
 4305TIP3   OH234473   2.686   6.362   7.783  0.2101  0.6128 -0.4763
 4305TIP3    H134474   2.676   6.413   7.703 -0.5063  0.3517 -0.5655
 4305TIP3    H234475   2.775   6.380   7.813 -0.0265  1.9213 -0.4940
 4306TIP3   OH234476   0.895   0.108   8.463 -0.0361  0.1820  0.0771
 4306TIP3    H134477   0.843   0.073   8.390  2.1936 -0.3658 -1.3574
 4306TIP3    H234478   0.847   0.186   8.492 -1.8839 -0.5736 -0.8182
 4307TIP3   OH234479   2.126   3.357   7.704  0.5000  0.1062  0.0381
 4307TIP3    H134480   2.098   3.386   7.790  1.5487 -1.1933  0.8493
 4307TIP3    H234481   2.179   3.429   7.670 -0.4614  0.8968  0.1705
 4308TIP3   OH234482   6.161   3.902   2.234  0.3883  0.1430  0.0095
 4308TIP3    H134483   6.191   3.992   2.239  1.8712 -0.3309  0.0126
 4308TIP3    H234484   6.228   3.851   2.279 -1.0209 -0.8551  1.1166
 4309TIP3   OH234485   4.597   5.221   1.970  0.3215  0.3391 -0.5606
 4309TIP3    H134486   4.552   5.259   2.046  0.0700  0.0221 -0.5523
 4309TIP3    H234487   4.571   5.276   1.896  0.2602  0.4109 -0.4859
 4310TIP3   OH234488   0.231   5.705   0.590 -0.6419 -0.1759  0.3390
 4310TIP3    H134489   0.299   5.643   0.618 -0.3170 -0.6833 -1.4281
 4310TIP3    H234490   0.279   5.776   0.549 -1.1439 -0.8224 -1.4759
 4311TIP3   OH234491   3.903   6.238   0.069 -0.3372  0.2104  0.1634
 4311TIP3    H134492   3.986   6.210   0.031 -0.8173 -2.7933  1.0830
 4311TIP3    H234493   3.920   6.246   0.162 -1.0475 -0.5397  0.3767
 4312TIP3   OH234494   1.974   1.916   1.948 -0.3043  0.2351  0.1109
 4312TIP3    H134495   1.948   1.983   1.885 -1.4858  0.5806  0.9421
 4312TIP3    H234496   1.893   1.872   1.971  0.1309  0.0139  1.2791
 4313TIP3   OH234497   4.454   0.606   2.386  0.0492 -0.0062  0.5680
 4313TIP3    H134498   4.476   0.658   2.309  2.2966 -0.3989  0.8868
 4313TIP3    H234499   4.493   0.653   2.460 -0.9105 -0.3407  1.3211
 4314TIP3   OH234500   3.353   3.842   7.400  0.3462  0.4483 -0.0649
 4314TIP3    H134501   3.321   3.919   7.353  0.8628  0.5243 -0.3029
 4314TIP3    H234502   3.312   3.768   7.355 -0.2521  0.5816  0.2433
 4315TIP3   OH234503   6.497   3.100   0.313  0.6002  0.3062  0.3808
 4315TIP3    H134504   6.540   3.016   0.297 -0.8756 -0.5728  0.8401
 4315TIP3    H234505   6.467   3.128   0.226  0.9804  0.2946  0.2459
 4316TIP3   OH234506   4.485   1.880   0.320 -0.1631  0.5808 -0.3841
 4316TIP3    H134507   4.472   1.972   0.301  1.3913  1.0512  0.6158
 4316TIP3    H234508   4.577   1.864   0.297 -1.3262 -1.7218 -4.2877
 4317TIP3   OH234509   4.555   4.109   7.011 -0.0457  0.3796 -0.6518
 4317TIP3    H134510   4.472   4.119   7.057  1.1689 -2.2554  2.4802
 4317TIP3    H234511   4.535   4.052   6.936 -1.3428  1.4377 -1.1485
 4318TIP3   OH234512   1.112   5.050   0.819 -0.1951 -0.4311  0.3857
 4318TIP3    H134513   1.096   4.977   0.760 -1.0723 -0.1835  0.2872
 4318TIP3    H234514   1.030   5.060   0.867 -0.1012  0.4831  0.3906
 4319TIP3   OH234515   3.651   0.914   2.244 -0.1228  0.0616 -0.2496
 4319TIP3    H134516   3.621   1.001   2.270 -1.1230 -0.6329  1.0818
 4319TIP3    H234517   3.622   0.904   2.154 -1.5930  0.4491  0.1547
 4320TIP3   OH234518   2.605   0.362   2.379  0.1771 -0.4268 -0.3864
 4320TIP3    H134519   2.661   0.422   2.427  0.3365  0.0416 -1.1479
 4320TIP3    H234520   2.520   0.406   2.373  0.3151 -0.2255 -1.0097
 4321TIP3   OH234521   4.518   4.994   1.643 -0.9120 -0.0033 -0.4251
 4321TIP3    H134522   4.563   4.911   1.627  2.8714  1.0579  3.0747
 4321TIP3    H234523   4.454   4.973   1.712 -0.2588 -0.1222  0.1539
 4322TIP3   OH234524   4.047   0.823   2.327 -0.3755  0.1849  0.2094
 4322TIP3    H134525   3.976   0.825   2.391 -0.8998 -2.3650 -0.1940
 4322TIP3    H234526   4.099   0.747   2.352  2.1890  1.8791  0.3844
 4323TIP3   OH234527   3.507   6.431   1.328 -0.1555  0.0970  0.2934
 4323TIP3    H134528   3.427   6.451   1.377  0.2669  1.1752  0.5668
 4323TIP3    H234529   3.578   6.441   1.391  0.2376 -0.4276 -0.0538
 4324TIP3   OH234530   3.458   2.668   1.833 -0.7750  0.2782 -0.3676
 4324TIP3    H134531   3.501   2.736   1.884  1.0628 -1.6334  0.8323
 4324TIP3    H234532   3.472   2.694   1.742  0.5600  1.1262  0.0455
 4325TIP3   OH234533   5.886   3.670   2.338 -0.0714 -0.0444 -0.1352
 4325TIP3    H134534   5.910   3.763   2.341  0.1157 -0.1051  2.2941
 4325TIP3    H234535   5.936   3.630   2.409 -0.2219 -2.0125 -1.0727
 4326TIP3   OH234536   3.309   3.150   8.364  0.0010  0.0446 -0.4501
 4326TIP3    H134537   3.369   3.210   8.319  1.7578 -0.5316  1.0016
 4326TIP3    H234538   3.314   3.069   8.313 -0.2673  0.2782 -0.8548
 4327TIP3   OH234539   6.321   5.929   1.587  0.9898  0.2528  0.3713
 4327TIP3    H134540   6.294   5.848   1.629  1.4109  0.2260  0.5960
 4327TIP3    H234541   6.417   5.925   1.586  1.0662  1.2269  1.3523
 4328TIP3   OH234542   3.489   1.728   8.465 -0.4736  0.1381  0.0088
 4328TIP3    H134543   3.536   1.663   8.517  0.3803  0.1108 -0.7792
 4328TIP3    H234544   3.523   1.717   8.376 -1.1340  0.9099 -0.3528
 4329TIP3   OH234545   3.105   5.288   1.736  0.4680  0.0869 -0.6971
 4329TIP3    H134546   3.012   5.304   1.721  0.6402  1.4990 -0.4399
 4329TIP3    H234547   3.147   5.307   1.653  0.5127 -0.9116 -0.9205
 4330TIP3   OH234548   3.951   3.096   8.368 -0.5082 -0.1296  0.4112
 4330TIP3    H134549   4.004   3.107   8.289 -1.8248 -0.0268 -0.4902
 4330TIP3    H234550   3.989   3.020   8.412  1.7217  1.1921  0.9417
 4331TIP3   OH234551   6.439   4.662   8.288  0.0984  0.3867  0.0562
 4331TIP3    H134552   6.422   4.702   8.373 -0.6574 -1.1386  0.6743
 4331TIP3    H234553   6.493   4.586   8.308  2.0197  1.3614 -1.1417
 4332TIP3   OH234554   5.776   3.467   7.624  0.3827  0.2000 -0.4165
 4332TIP3    H134555   5.697   3.520   7.607  1.2865  1.7176 -0.0354
 4332TIP3    H234556   5.752   3.379   7.594 -1.1672  0.8135 -1.1017
 4333TIP3   OH234557   1.618   2.110   7.807  0.2103 -0.4224 -0.5315
 4333TIP3    H134558   1.541   2.110   7.751 -0.2860 -1.1902  0.1342
 4333TIP3    H234559   1.632   2.202   7.829 -0.3696 -0.2545 -0.8558
 4334TIP3   OH234560   5.891   6.298   7.467 -0.0309  0.1333  0.7477
 4334TIP3    H134561   5.842   6.236   7.413 -0.4430  1.6454 -0.7321
 4334TIP3    H234562   5.823   6.345   7.517  0.0340  1.0163  0.0312
 4335TIP3   OH234563   5.512   6.710   2.093 -0.5313 -0.1609  0.0341
 4335TIP3    H134564   5.475   6.792   2.124  0.8814 -0.3292  2.3764
 4335TIP3    H234565   5.505   6.650   2.167  0.6730 -1.4167 -0.8089
 4336TIP3   OH234566   1.604   3.782   0.813 -0.1827 -0.0720  0.1800
 4336TIP3    H134567   1.696   3.756   0.810  0.4571  2.0560  0.3594
 4336TIP3    H234568   1.567   3.729   0.883  1.5384  0.8831  1.9095
 4337TIP3   OH234569   6.523   0.194   1.100  0.0447 -0.5888 -0.3301
 4337TIP3    H134570   6.568   0.118   1.062  1.1778  1.1729 -2.7760
 4337TIP3    H234571   6.455   0.216   1.037 -1.4736 -0.5902  1.2340
 4338TIP3   OH234572   3.126   0.897   0.608  0.0997  0.2913 -0.5642
 4338TIP3    H134573   3.069   0.891   0.531 -0.2597 -1.1352 -0.2065
 4338TIP3    H234574   3.214   0.904   0.572 -0.0581 -0.4734 -1.1186
 4339TIP3   OH234575   4.207   0.079   3.314 -0.1949  0.2825  0.1183
 4339TIP3    H134576   4.277   0.038   3.262  0.1093  1.0589 -0.1008
 4339TIP3    H234577   4.200   0.168   3.278 -1.5760  0.0923 -0.1320
 4340TIP3   OH234578   4.675   0.361   1.730 -0.3742 -0.3540  0.7267
 4340TIP3    H134579   4.638   0.449   1.724  0.5300  0.0447  0.8113
 4340TIP3    H234580   4.702   0.353   1.821  0.1023 -0.4866  0.5755
 4341TIP3   OH234581   3.414   2.295   8.083 -0.2365 -0.6295 -0.4552
 4341TIP3    H134582   3.419   2.331   8.172  0.0018 -0.3186 -0.5926
 4341TIP3    H234583   3.393   2.370   8.028 -3.4945 -1.2944 -0.3117
 4342TIP3   OH234584   2.680   6.443   2.452  0.2580  0.6001 -0.1054
 4342TIP3    H134585   2.752   6.502   2.474  0.6425 -0.3006  1.1204
 4342TIP3    H234586   2.688   6.371   2.514  0.1062 -1.0083 -1.8720
 4343TIP3   OH234587   2.985   6.115   8.066 -0.2528  0.0459 -0.0669
 4343TIP3    H134588   2.907   6.122   8.010  1.2168 -1.0278 -2.3916
 4343TIP3    H234589   2.953   6.070   8.144 -1.7735 -1.6415 -1.5393
 4344TIP3   OH234590   4.974   1.456   8.655 -0.4328 -0.4379  0.1197
 4344TIP3    H134591   4.987   1.450   8.560 -3.0157 -0.1247 -0.3245
 4344TIP3    H234592   4.958   1.366   8.682 -0.7930 -0.4018  0.0412
 4345TIP3   OH234593   6.158   0.219   7.517 -0.3962  0.5119 -0.5756
 4345TIP3    H134594   6.115   0.298   7.550  1.2643  1.7757 -1.2888
 4345TIP3    H234595   6.200   0.246   7.435  3.5148  0.0389  1.0302
 4346TIP3   OH234596   6.453   2.277   1.429  0.4365  0.5313 -0.0860
 4346TIP3    H134597   6.445   2.198   1.483  0.2797 -0.3307 -1.3191
 4346TIP3    H234598   6.365   2.314   1.428  0.4454  0.5606  0.2681
 4347TIP3   OH234599   1.509   4.242   0.717  0.3207  0.6763 -0.0122
 4347TIP3    H134600   1.511   4.285   0.802  1.0026  0.6264  0.0010
 4347TIP3    H234601   1.437   4.180   0.723  1.5858 -0.7663  1.2426
 4348TIP3   OH234602   4.083   6.830   2.228  0.0479  0.7713  0.3324
 4348TIP3    H134603   4.059   6.871   2.311 -0.4504  0.7329  0.2123
 4348TIP3    H234604   4.145   6.761   2.252 -0.5397  0.3788  0.7417
 4349TIP3   OH234605   2.283   4.371   0.156 -0.1453 -0.0774  0.6783
 4349TIP3    H134606   2.188   4.357   0.155  0.0676 -1.6788  0.5515
 4349TIP3    H234607   2.295   4.450   0.209 -1.3994 -1.2477  2.8247
 4350TIP3   OH234608   3.009   0.434   2.118 -0.0063 -0.1460 -0.1133
 4350TIP3    H134609   3.037   0.512   2.166  0.5288 -0.0682 -0.5416
 4350TIP3    H234610   3.082   0.415   2.059 -0.4067 -0.5887 -0.4715
 4351TIP3   OH234611   0.337   0.893   2.054 -0.6532 -0.1354 -0.2304
 4351TIP3    H134612   0.310   0.857   2.138  0.1753  1.6000  0.8322
 4351TIP3    H234613   0.432   0.877   2.050 -0.4008  1.2089 -0.0619
 4352TIP3   OH234614   4.173   3.893   6.901 -0.3900 -0.7867 -0.2555
 4352TIP3    H134615   4.153   3.807   6.939 -1.7474 -0.4967 -0.2471
 4352TIP3    H234616   4.121   3.896   6.820 -1.4827  0.5518  0.4486
 4353TIP3   OH234617   0.697   2.079   2.060 -0.0218 -0.3773 -0.2424
 4353TIP3    H134618   0.631   2.146   2.075 -0.2368 -0.4808 -0.7043
 4353TIP3    H234619   0.679   2.012   2.127 -1.2968 -1.0772 -1.2580
 4354TIP3   OH234620   1.055   1.535   0.705  0.0495 -0.4315  0.3348
 4354TIP3    H134621   1.109   1.594   0.759 -0.4284  0.2197  0.1159
 4354TIP3    H234622   1.007   1.594   0.647 -2.0771 -0.8670  1.5415
 4355TIP3   OH234623   5.507   6.634   7.310 -0.2993  0.1600  0.1087
 4355TIP3    H134624   5.529   6.682   7.230 -0.6602 -0.9328 -0.6664
 4355TIP3    H234625   5.423   6.592   7.291 -0.6251  0.2604  1.2338
 4356TIP3   OH234626   3.554   5.428   7.972 -0.6493  0.8530  0.5228
 4356TIP3    H134627   3.642   5.427   8.008  0.3941  0.1493 -1.8535
 4356TIP3    H234628   3.497   5.418   8.048  1.2737  1.4791  2.1421
 4357TIP3   OH234629   5.913   1.528   8.431 -0.3113  0.0056 -0.4369
 4357TIP3    H134630   5.989   1.578   8.462  0.4210 -1.1583 -0.2906
 4357TIP3    H234631   5.901   1.459   8.497 -0.9914 -0.3023 -0.8764
 4358TIP3   OH234632   3.198   0.342   1.967  0.0564  0.1202  0.0930
 4358TIP3    H134633   3.255   0.265   1.963  0.6210  0.5070  0.5956
 4358TIP3    H234634   3.258   0.416   1.968 -0.4577  0.5386  0.6228
 4359TIP3   OH234635   4.237   2.315   1.736 -0.1430  0.6656 -0.1500
 4359TIP3    H134636   4.224   2.315   1.830 -1.1978 -0.2943 -0.2811
 4359TIP3    H234637   4.187   2.391   1.705  0.8199  1.4355  0.1136
 4360TIP3   OH234638   1.831   5.740   2.035  0.7951  0.4018 -0.2996
 4360TIP3    H134639   1.740   5.744   2.008  0.9330  0.2789 -0.7916
 4360TIP3    H234640   1.847   5.825   2.077  0.4934  0.4789 -0.3409
 4361TIP3   OH234641   4.016   5.039   0.008  0.0318 -0.7366  0.4062
 4361TIP3    H134642   4.079   5.108   0.029 -0.4479 -0.1087 -0.1797
 4361TIP3    H234643   3.957   5.079  -0.056  0.8593 -2.2603 -1.4240
 4362TIP3   OH234644   4.325   2.050   1.722 -0.3511 -0.5696 -0.0863
 4362TIP3    H134645   4.391   2.055   1.653 -1.3690 -0.7672 -1.1008
 4362TIP3    H234646   4.297   2.140   1.736  0.9206 -0.3249  1.1782
 4363TIP3   OH234647   1.697   6.763   7.967 -0.2671 -0.0963 -0.0322
 4363TIP3    H134648   1.614   6.726   7.995 -1.4026  0.4668 -2.3757
 4363TIP3    H234649   1.707   6.733   7.876  3.0807 -1.7413  0.7248
 4364TIP3   OH234650   2.623   6.817   8.484  0.0019  0.0325 -0.0495
 4364TIP3    H134651   2.684   6.879   8.523  1.3344  0.4486 -2.5671
 4364TIP3    H234652   2.564   6.871   8.432 -1.5887 -0.5107  1.1050
 4365TIP3   OH234653   2.052   6.692   8.140 -0.4183 -0.1313 -0.2347
 4365TIP3    H134654   2.017   6.673   8.228 -0.1137 -0.0646 -0.0975
 4365TIP3    H234655   2.125   6.752   8.156  0.1259 -0.7270 -0.4677
 4366TIP3   OH234656   5.799   1.460   0.579  0.1674 -0.3897  0.1591
 4366TIP3    H134657   5.887   1.497   0.591  0.4720 -1.6520  2.3116
 4366TIP3    H234658   5.740   1.532   0.600  0.6330  0.5858 -1.6777
 4367TIP3   OH234659   3.058   6.804   1.440  0.2634 -0.1061  0.4187
 4367TIP3    H134660   3.017   6.733   1.490  0.7303 -0.8676 -0.2376
 4367TIP3    H234661   2.985   6.843   1.391  0.2494 -1.3654 -0.6380
 4368TIP3   OH234662   4.470   5.663   0.564  0.1619 -0.1435 -0.5017
 4368TIP3    H134663   4.470   5.671   0.660  3.6766 -1.1899 -0.2837
 4368TIP3    H234664   4.497   5.750   0.533  1.3297 -0.4390 -0.3592
 4369TIP3   OH234665   0.882   1.243   7.828 -0.0328 -0.2133 -0.2819
 4369TIP3    H134666   0.911   1.195   7.750  0.6522  1.1292 -0.8779
 4369TIP3    H234667   0.950   1.226   7.893 -0.2633 -0.7877 -0.1844
 4370TIP3   OH234668   6.409   1.386   7.894  0.3807  0.0553  0.2926
 4370TIP3    H134669   6.398   1.292   7.879 -0.8910  0.4300 -1.4916
 4370TIP3    H234670   6.321   1.422   7.880  1.1401  1.6803 -0.4371
 4371TIP3   OH234671   2.944   4.114   7.046 -0.1391  0.2108 -0.3556
 4371TIP3    H134672   2.918   4.029   7.009  0.4104  0.0838 -0.4656
 4371TIP3    H234673   2.879   4.176   7.013  0.0747  0.0159 -1.1709
 4372TIP3   OH234674   6.039   6.490   0.452 -0.2650 -0.1275 -0.0569
 4372TIP3    H134675   6.078   6.573   0.479 -1.6838  1.1331 -1.6553
 4372TIP3    H234676   6.086   6.466   0.372 -1.0744  0.1140 -0.6180
 4373TIP3   OH234677   1.717   0.945   2.330  0.4128 -0.2039  0.0475
 4373TIP3    H134678   1.800   0.903   2.353 -0.7294 -1.3679  2.3493
 4373TIP3    H234679   1.652   0.875   2.335 -0.7913  0.7368 -1.4297
 4374TIP3   OH234680   6.433   2.773   1.805  0.4323  0.1477  0.2071
 4374TIP3    H134681   6.466   2.770   1.715 -0.8284 -1.4859 -0.2711
 4374TIP3    H234682   6.458   2.688   1.842  2.1076  1.3059  1.8968
 4375TIP3   OH234683   0.780   3.636   2.193 -0.0763 -0.0457 -0.0025
 4375TIP3    H134684   0.713   3.610   2.130  0.5135 -1.3345 -0.1346
 4375TIP3    H234685   0.848   3.569   2.184  1.4164  1.4329 -0.1528
 4376TIP3   OH234686   5.088   2.780   0.245  0.2845 -0.2439 -0.1973
 4376TIP3    H134687   4.994   2.760   0.249 -0.3965  2.0666 -1.9525
 4376TIP3    H234688   5.095   2.868   0.282  1.5711  0.0394 -1.0442
 4377TIP3   OH234689   5.341   0.873   1.700  0.1405 -0.1014 -0.0231
 4377TIP3    H134690   5.402   0.802   1.681 -1.7634 -1.1532 -3.0872
 4377TIP3    H234691   5.316   0.860   1.791  3.5887 -0.1869  1.0554
 4378TIP3   OH234692   3.865   6.855   0.148 -0.3887 -0.2737  0.6028
 4378TIP3    H134693   3.886   6.816   0.063 -1.1537 -1.4030  0.9097
 4378TIP3    H234694   3.841   6.945   0.127 -0.0471 -0.3794 -0.3112
 4379TIP3   OH234695   0.998   4.444   1.884 -0.1503  0.3815 -0.6976
 4379TIP3    H134696   0.956   4.362   1.860 -0.1093 -0.3451  1.5031
 4379TIP3    H234697   0.936   4.512   1.859 -1.9621 -0.5723  0.9397
 4380TIP3   OH234698   4.942   4.322   0.920  0.0565 -0.2596  0.0284
 4380TIP3    H134699   4.903   4.235   0.922 -0.4135 -0.0836 -1.0661
 4380TIP3    H234700   4.909   4.365   0.999 -2.0765 -0.0845 -0.8929
 4381TIP3   OH234701   0.592   1.246   8.071  0.2583 -1.2325  0.3199
 4381TIP3    H134702   0.659   1.292   8.122 -0.8702 -0.1401  0.8755
 4381TIP3    H234703   0.604   1.278   7.982 -0.3883  0.0244  0.6659
 4382TIP3   OH234704   2.612   3.453   0.468 -0.7450  0.4270  0.0037
 4382TIP3    H134705   2.556   3.376   0.456 -1.2190  0.4043  1.9428
 4382TIP3    H234706   2.700   3.417   0.476 -0.8488  0.1638 -0.0164
 4383TIP3   OH234707   5.670   2.285   0.540  0.4074  0.0116  0.6934
 4383TIP3    H134708   5.759   2.257   0.561  0.5055  0.7510  1.3296
 4383TIP3    H234709   5.675   2.316   0.450  0.3084 -1.8791 -0.0035
 4384TIP3   OH234710   5.656   5.084   0.491  0.0696  0.5682  0.0671
 4384TIP3    H134711   5.705   5.064   0.571 -0.9564  2.1142  1.1496
 4384TIP3    H234712   5.689   5.022   0.426  2.5787  0.7643  1.0529
 4385TIP3   OH234713   0.907   0.510   2.812  1.0460  0.0813  0.2795
 4385TIP3    H134714   0.829   0.496   2.866  0.4038  0.0476 -0.6316
 4385TIP3    H234715   0.946   0.422   2.802  0.3479 -0.1562 -0.5007
 4386TIP3   OH234716   3.031   4.744   2.509  0.1149  0.2220  0.3821
 4386TIP3    H134717   2.991   4.828   2.533  1.9502  1.2027  0.2508
 4386TIP3    H234718   3.057   4.756   2.418  1.0089 -0.2115  0.5678
 4387TIP3   OH234719   4.498   2.140   0.263  0.1357 -0.3045 -0.2955
 4387TIP3    H134720   4.590   2.131   0.286  0.1617  0.7712  0.1208
 4387TIP3    H234721   4.464   2.204   0.327 -0.5038  0.5256 -1.4276
 4388TIP3   OH234722   5.423   5.463   1.039  0.1743  0.5081 -0.3040
 4388TIP3    H134723   5.334   5.435   1.056  0.1869  0.8535  0.3713
 4388TIP3    H234724   5.460   5.394   0.982 -0.2299 -0.1083  0.1649
 4389TIP3   OH234725   0.195   3.231   0.451 -0.1081 -0.2777  0.4527
 4389TIP3    H134726   0.210   3.156   0.509  0.4503 -0.5763 -0.0614
 4389TIP3    H234727   0.169   3.302   0.509 -0.0085 -0.6954  1.0141
 4390TIP3   OH234728   2.036   0.367   0.501 -0.0907  0.1766  0.3088
 4390TIP3    H134729   2.060   0.277   0.521 -1.5103 -0.7621 -1.8239
 4390TIP3    H234730   1.946   0.376   0.533  0.2656  1.0556  1.0902
 4391TIP3   OH234731   2.278   1.560   1.587 -0.0466  0.3539 -0.4814
 4391TIP3    H134732   2.264   1.648   1.551 -0.2840  0.5753  0.1258
 4391TIP3    H234733   2.205   1.548   1.648  1.3625  0.8052  1.4108
 4392TIP3   OH234734   5.602   0.286   8.334 -1.0944 -0.2913 -0.1842
 4392TIP3    H134735   5.553   0.252   8.259 -0.2597 -0.3231 -0.7202
 4392TIP3    H234736   5.634   0.208   8.379  1.4528 -0.3059 -1.8285
 4393TIP3   OH234737   6.149   5.682   3.033  0.0157 -0.3475 -0.7137
 4393TIP3    H134738   6.131   5.758   3.088  0.9694 -1.3313  1.0713
 4393TIP3    H234739   6.063   5.652   3.003 -0.6227 -0.1888  0.8690
 4394TIP3   OH234740   6.197   1.210   2.378 -0.3436 -0.2875 -0.0304
 4394TIP3    H134741   6.147   1.250   2.449  1.2817  2.6891 -0.4470
 4394TIP3    H234742   6.288   1.222   2.402  0.2839  1.4256 -2.8318
 4395TIP3   OH234743   0.740   4.856   0.821  0.3983  0.3256 -0.3611
 4395TIP3    H134744   0.686   4.824   0.893  0.5648 -1.9346 -1.1332
 4395TIP3    H234745   0.678   4.899   0.762  0.3909  3.0447  1.4543
 4396TIP3   OH234746   4.988   3.194   1.835 -0.0807  0.0705  0.8230
 4396TIP3    H134747   5.019   3.241   1.913  0.1687  0.3539  0.5519
 4396TIP3    H234748   5.034   3.234   1.762 -0.9083  0.3372  0.4376
 4397TIP3   OH234749   1.925   1.168   1.306 -0.1416  0.2485  0.0921
 4397TIP3    H134750   2.010   1.124   1.305  0.3867  1.2142  0.1931
 4397TIP3    H234751   1.933   1.231   1.379 -0.7819  0.6396 -0.1713
 4398TIP3   OH234752   4.393   4.869   1.354  0.2792 -0.1671  0.7543
 4398TIP3    H134753   4.356   4.781   1.356  0.7098 -0.3360  1.5559
 4398TIP3    H234754   4.477   4.860   1.400  1.3502  0.1867 -1.0248
 4399TIP3   OH234755   6.122   6.174   0.139 -0.3167  0.1286 -0.5524
 4399TIP3    H134756   6.047   6.151   0.085  0.2422 -0.0273 -1.2897
 4399TIP3    H234757   6.179   6.097   0.135 -0.1263  0.2347  0.0095
 4400TIP3   OH234758   2.006   6.259   0.895  0.7566 -0.5125  0.1098
 4400TIP3    H134759   2.004   6.298   0.983  0.1044 -1.1036  0.3657
 4400TIP3    H234760   1.917   6.228   0.881  0.9388 -0.7005 -0.6386
 4401TIP3   OH234761   1.133   4.818   1.767  0.5432  0.1821  0.8527
 4401TIP3    H134762   1.175   4.855   1.689  0.6789  0.4394  1.0472
 4401TIP3    H234763   1.150   4.882   1.836 -2.3113  1.6291  0.4092
 4402TIP3   OH234764   6.296   3.114   7.900 -0.1507 -0.2216  0.0720
 4402TIP3    H134765   6.264   3.185   7.956  0.7155 -1.3894  2.1187
 4402TIP3    H234766   6.281   3.147   7.811  3.3466  4.1675  0.6975
 4403TIP3   OH234767   3.532   4.959   2.871  0.3828 -0.0123 -0.6900
 4403TIP3    H134768   3.500   4.893   2.933 -2.3224  1.3385 -0.5064
 4403TIP3    H234769   3.613   4.992   2.910  0.3168 -1.2668  0.5871
 4404TIP3   OH234770   4.789   4.069   2.637 -0.5034  0.4168 -0.1996
 4404TIP3    H134771   4.827   4.139   2.584  0.3871 -0.4120 -0.6873
 4404TIP3    H234772   4.855   4.052   2.704 -0.8797  0.2855  0.1393
 4405TIP3   OH234773   6.796   5.040   7.494  0.0334  0.5098  0.2797
 4405TIP3    H134774   6.869   5.089   7.456 -0.1130 -0.1249 -0.8772
 4405TIP3    H234775   6.783   4.966   7.434 -1.9883  0.9613  0.0852
 4406TIP3   OH234776   1.090   4.103   0.942 -0.2326  0.4556  0.0967
 4406TIP3    H134777   1.141   4.031   0.979 -1.0832 -0.8727 -1.1904
 4406TIP3    H234778   1.026   4.060   0.885  0.1748  2.2867 -1.8651
 4407TIP3   OH234779   6.548   4.236   0.121  0.1268  0.3023 -0.5322
 4407TIP3    H134780   6.523   4.271   0.207 -1.8028 -0.3847 -0.7737
 4407TIP3    H234781   6.534   4.308   0.060  1.0532  0.6466 -0.3525
 4408TIP3   OH234782   6.048   1.867   1.511  0.1577 -0.0562 -0.5275
 4408TIP3    H134783   6.098   1.880   1.430 -0.1404 -0.1707 -0.7319
 4408TIP3    H234784   5.964   1.911   1.495 -0.2792 -0.9126 -0.6578
 4409TIP3   OH234785   5.951   6.165   1.728 -0.2667 -0.6908  0.9470
 4409TIP3    H134786   5.932   6.071   1.729 -1.9070 -0.5708 -2.6586
 4409TIP3    H234787   5.874   6.205   1.769 -1.2337 -0.8389 -0.6485
 4410TIP3   OH234788   4.430   5.086   0.162  0.1678  0.1795  0.2837
 4410TIP3    H134789   4.423   5.039   0.079  1.0692 -1.5186  1.1164
 4410TIP3    H234790   4.456   5.175   0.137 -1.3330  0.2203 -1.3368
 4411TIP3   OH234791   4.107   1.852   1.119  0.2152 -0.3622  0.4042
 4411TIP3    H134792   4.136   1.885   1.205 -0.0672 -0.3194  0.4820
 4411TIP3    H234793   4.067   1.928   1.076 -1.5371 -0.8687  1.0555
 4412TIP3   OH234794   3.917   2.518   7.685  0.0394  0.3181  0.5686
 4412TIP3    H134795   3.920   2.423   7.684  0.1164  0.3143 -0.7418
 4412TIP3    H234796   3.858   2.540   7.758 -1.1116 -0.7700  0.0079
 4413TIP3   OH234797   1.419   5.956   1.464  0.1512  0.1236 -0.5658
 4413TIP3    H134798   1.329   5.977   1.488  0.2490  1.4044 -1.2512
 4413TIP3    H234799   1.411   5.901   1.386 -0.0306  1.2593 -1.3662
 4414TIP3   OH234800   5.417   3.348   8.148 -0.3504 -0.0833  0.1418
 4414TIP3    H134801   5.397   3.440   8.163  1.7649  0.1782  1.8038
 4414TIP3    H234802   5.354   3.321   8.081 -3.0163  1.7550  1.6988
 4415TIP3   OH234803   3.072   3.441   0.308  0.3683 -0.1801 -0.1620
 4415TIP3    H134804   3.050   3.347   0.310 -0.7063  0.0612  0.0454
 4415TIP3    H234805   3.082   3.460   0.214  1.4637 -0.6816 -0.1622
 4416TIP3   OH234806   6.648   1.328   7.698  0.0103  0.5721 -0.3357
 4416TIP3    H134807   6.563   1.372   7.703  0.0354  0.4612  3.0418
 4416TIP3    H234808   6.628   1.236   7.718  0.9764  0.7445  1.6329
 4417TIP3   OH234809   4.335   1.786   8.059  0.2251 -0.3784 -0.0602
 4417TIP3    H134810   4.344   1.815   8.149  0.2213  0.8463 -0.4469
 4417TIP3    H234811   4.297   1.698   8.067  0.1936 -0.2777  1.1182
 4418TIP3   OH234812   6.330   0.938   1.962  0.3318 -0.6388 -0.4589
 4418TIP3    H134813   6.253   0.976   2.004  0.8719 -0.2049  0.1524
 4418TIP3    H234814   6.399   0.943   2.029  0.6057 -2.0500 -0.5965
 4419TIP3   OH234815   5.615   4.440   2.543 -0.0596 -0.4829 -0.0138
 4419TIP3    H134816   5.550   4.471   2.607 -0.7320  1.3207 -1.4977
 4419TIP3    H234817   5.585   4.351   2.522 -1.0311 -0.3374  0.6433
 4420TIP3   OH234818   4.939   0.403   8.382 -0.4860  0.7214 -0.0634
 4420TIP3    H134819   4.894   0.431   8.462 -0.3446 -0.8486  0.5961
 4420TIP3    H234820   5.032   0.411   8.403 -0.4472  1.0541 -0.3526
 4421TIP3   OH234821   1.411   1.722   8.123  0.1688 -0.2404 -0.3362
 4421TIP3    H134822   1.418   1.627   8.120  0.6766 -0.2190 -0.0282
 4421TIP3    H234823   1.428   1.750   8.033  0.2896 -0.4282 -0.3725
 4422TIP3   OH234824   5.987   1.993   1.067  0.0146 -0.2526  0.3532
 4422TIP3    H134825   5.931   2.006   0.990  0.5044  0.0783  0.0470
 4422TIP3    H234826   6.030   2.078   1.079 -0.5670 -0.0858  1.4056
 4423TIP3   OH234827   5.129   6.358   7.267  0.0626  0.5122 -0.5073
 4423TIP3    H134828   5.142   6.309   7.349 -0.8106  1.1112 -0.0043
 4423TIP3    H234829   5.053   6.318   7.227 -2.1191  2.8158  1.0147
 4424TIP3   OH234830   3.605   5.583   1.702  0.0968 -0.4742  0.2506
 4424TIP3    H134831   3.608   5.532   1.783  0.0537 -0.0446  0.5281
 4424TIP3    H234832   3.672   5.542   1.646  0.6942 -0.2802  0.8053
 4425TIP3   OH234833   0.597   3.647   1.855 -1.3428  0.2054  0.4524
 4425TIP3    H134834   0.657   3.721   1.865 -0.9778 -0.0344  0.0726
 4425TIP3    H234835   0.616   3.612   1.768 -0.0606 -1.5854  1.3874
 4426TIP3   OH234836   1.577   5.635   6.736 -0.8425 -0.4563  0.3470
 4426TIP3    H134837   1.564   5.616   6.829 -0.6500 -0.7076  0.3235
 4426TIP3    H234838   1.548   5.725   6.726 -0.6384 -0.3494  0.7000
 4427TIP3   OH234839   3.643   1.918   1.247 -0.5137 -0.3074 -0.0475
 4427TIP3    H134840   3.652   1.846   1.311 -1.2481 -1.4255 -1.1578
 4427TIP3    H234841   3.613   1.992   1.299  1.8759 -0.2526  1.4477
 4428TIP3   OH234842   4.950   4.200   0.038  0.1014  0.0668 -0.1190
 4428TIP3    H134843   5.037   4.201   0.079  0.2807  1.3884 -0.5087
 4428TIP3    H234844   4.966   4.178  -0.053  0.0177  0.3370 -0.1967
 4429TIP3   OH234845   0.190   2.792   2.035  0.2537  0.0476 -0.1636
 4429TIP3    H134846   0.204   2.805   2.129  1.2202 -1.9992  0.0344
 4429TIP3    H234847   0.099   2.760   2.030  0.4017 -0.4426  0.1561
 4430TIP3   OH234848   0.231   4.121   8.003  0.3429  0.3826  0.0128
 4430TIP3    H134849   0.299   4.087   8.061  1.3256  1.2039 -0.6080
 4430TIP3    H234850   0.175   4.175   8.059 -0.3614 -1.0309  0.7077
 4431TIP3   OH234851   1.930   4.920   2.957  0.6410 -0.0614  0.0383
 4431TIP3    H134852   2.020   4.931   2.925  0.8517  2.6400  1.2904
 4431TIP3    H234853   1.890   5.007   2.947 -2.0431 -1.2817 -0.9263
 4432TIP3   OH234854   4.616   0.354   7.423  0.0021 -0.4479 -0.7118
 4432TIP3    H134855   4.623   0.260   7.407 -1.5374 -0.4874 -1.3583
 4432TIP3    H234856   4.593   0.390   7.337 -1.2954  0.2663 -0.0821
 4433TIP3   OH234857   1.746   3.299   2.712 -0.0060  0.3287  0.5651
 4433TIP3    H134858   1.673   3.300   2.650 -0.4456 -0.6323  1.0293
 4433TIP3    H234859   1.779   3.209   2.708 -0.7333 -0.0771  2.4805
 4434TIP3   OH234860   1.568   6.615   1.074  0.0184 -0.0741  0.0243
 4434TIP3    H134861   1.557   6.521   1.055  0.4935 -0.5289  1.8439
 4434TIP3    H234862   1.663   6.629   1.072 -0.0959  0.8365 -2.1148
 4435TIP3   OH234863   0.072   3.836   7.147 -0.2013  0.1755  0.2671
 4435TIP3    H134864   0.166   3.829   7.129  0.3385  2.0538  1.9558
 4435TIP3    H234865   0.053   3.929   7.137 -1.7121 -0.0498  0.8281
 4436TIP3   OH234866   6.595   6.545   8.591  0.1897 -0.2276 -0.0852
 4436TIP3    H134867   6.554   6.585   8.515  1.8948  1.1684 -0.3297
 4436TIP3    H234868   6.688   6.546   8.571  0.6252 -0.3668  1.7638
 4437TIP3   OH234869   5.844   2.862   1.902  0.3443  0.1393 -0.3574
 4437TIP3    H134870   5.786   2.935   1.882  0.9858  0.8390  0.2707
 4437TIP3    H234871   5.801   2.785   1.863 -1.0327  0.6194  0.1714
 4438TIP3   OH234872   5.364   5.452   1.821  0.0354  0.2888 -0.1203
 4438TIP3    H134873   5.414   5.511   1.764  0.2163  0.6481  0.4005
 4438TIP3    H234874   5.386   5.364   1.790  1.8711  0.3821  0.7795
 4439TIP3   OH234875   0.135   3.906   7.431  0.2554 -0.0791 -0.0235
 4439TIP3    H134876   0.170   3.994   7.413  0.3723 -0.0274  0.4442
 4439TIP3    H234877   0.103   3.876   7.346  0.4986  0.2904 -0.2535
 4440TIP3   OH234878   2.054   5.672   6.958 -0.0175  0.5347  0.1026
 4440TIP3    H134879   2.009   5.756   6.953 -3.2337 -0.9780  1.1457
 4440TIP3    H234880   2.003   5.613   6.903  0.9521 -1.2288  0.9975
 4441TIP3   OH234881   6.522   3.468   0.852  0.1436 -0.1870 -0.5012
 4441TIP3    H134882   6.554   3.380   0.871 -1.0511 -0.5753 -0.2235
 4441TIP3    H234883   6.488   3.499   0.936 -0.7762 -0.0359 -0.9190
 4442TIP3   OH234884   4.739   3.802   2.718  0.0188 -0.4141  0.8623
 4442TIP3    H134885   4.783   3.880   2.683 -0.9251 -0.5646 -0.7816
 4442TIP3    H234886   4.808   3.735   2.719 -0.0178 -0.5879 -1.4516
 4443TIP3   OH234887   6.491   2.876   8.597  0.0046 -0.4660  0.9816
 4443TIP3    H134888   6.448   2.886   8.682 -0.4659  1.9266  0.5413
 4443TIP3    H234889   6.421   2.845   8.539  0.0850 -1.1698  1.2543
 4444TIP3   OH234890   4.224   4.116   0.913 -0.2497 -0.1749  0.2559
 4444TIP3    H134891   4.252   4.098   1.002 -0.7418  0.2878  0.5056
 4444TIP3    H234892   4.128   4.111   0.916 -0.3011  0.4301 -0.1140
 4445TIP3   OH234893   5.432   2.108   0.478  0.1901 -0.1586  0.3233
 4445TIP3    H134894   5.427   2.084   0.571 -0.0038 -0.4809  0.2316
 4445TIP3    H234895   5.513   2.158   0.471  1.4465 -2.0926  0.2491
 4446TIP3   OH234896   3.176   0.036   0.433  0.3457  0.2792  0.3264
 4446TIP3    H134897   3.141  -0.030   0.374 -0.8053 -0.4506  1.7730
 4446TIP3    H234898   3.271   0.028   0.423  0.1966 -0.6760 -0.4985
 4447TIP3   OH234899   3.140   3.694   8.324 -0.1542  0.2222  0.4386
 4447TIP3    H134900   3.098   3.624   8.274  0.3446  0.2555 -0.0334
 4447TIP3    H234901   3.160   3.654   8.408  3.1001 -1.2729 -0.8989
 4448TIP3   OH234902   4.673   5.607   2.296 -0.3375  0.5878 -0.1416
 4448TIP3    H134903   4.690   5.549   2.370 -1.8034  1.3827  0.8761
 4448TIP3    H234904   4.756   5.653   2.282  0.8448 -1.6301 -0.9429
 4449TIP3   OH234905   6.794   4.557   1.802  0.0020  0.0177 -0.1578
 4449TIP3    H134906   6.744   4.636   1.780 -0.6300 -0.5400 -0.7898
 4449TIP3    H234907   6.872   4.590   1.846 -1.1006  0.9181  1.2630
 4450TIP3   OH234908   4.559   5.728   7.142  0.0134  0.2940  0.1714
 4450TIP3    H134909   4.505   5.726   7.221 -1.6440  0.4051 -0.9223
 4450TIP3    H234910   4.526   5.803   7.093  0.8616  0.0718 -0.7667
 4451TIP3   OH234911   4.116   3.750   2.443  0.3895  0.3185  0.2035
 4451TIP3    H134912   4.136   3.656   2.447 -0.3097  0.0914 -1.0045
 4451TIP3    H234913   4.030   3.754   2.400  0.6237  1.5296 -0.1794
 4452TIP3   OH234914   2.288   2.010   1.468  0.3141  0.1445 -0.2075
 4452TIP3    H134915   2.369   2.026   1.420  0.0334 -1.8104 -1.4185
 4452TIP3    H234916   2.220   2.008   1.402 -0.4325 -0.2778  0.5492
 4453TIP3   OH234917   4.633   2.372   0.696 -0.3166  0.7364 -0.8474
 4453TIP3    H134918   4.669   2.428   0.628  0.0247  0.6570 -0.7374
 4453TIP3    H234919   4.626   2.429   0.773  1.8893  0.1943 -0.1533
 4454TIP3   OH234920   4.675   5.469   8.657  0.6831  0.5572 -0.9267
 4454TIP3    H134921   4.647   5.417   8.581 -0.1266  1.6556 -1.4019
 4454TIP3    H234922   4.766   5.443   8.670  0.6599 -0.1059 -1.8910
 4455TIP3   OH234923   4.955   1.609   1.448  0.4539 -0.2052 -0.4791
 4455TIP3    H134924   5.012   1.545   1.490  0.3272  0.0140  0.0418
 4455TIP3    H234925   4.870   1.596   1.490  0.4543  0.3674 -0.2935
 4456TIP3   OH234926   5.855   0.604   0.740  0.1382  0.3637 -0.0241
 4456TIP3    H134927   5.908   0.588   0.818 -0.4123  0.1020  0.3020
 4456TIP3    H234928   5.786   0.539   0.745 -1.3638  1.9402  0.5965
 4457TIP3   OH234929   2.336   0.935   7.902 -0.0187 -0.1301 -0.2614
 4457TIP3    H134930   2.274   0.932   7.975  0.8057  1.2248  0.5236
 4457TIP3    H234931   2.290   0.983   7.834 -0.7390 -1.2777 -0.6212
 4458TIP3   OH234932   3.661   1.883   2.720 -0.1718  0.6493 -0.0880
 4458TIP3    H134933   3.577   1.908   2.684 -0.3923  0.1603  0.0701
 4458TIP3    H234934   3.710   1.849   2.644 -0.0912  0.9990 -0.1923
 4459TIP3   OH234935   5.818   1.141   0.452  0.2264  0.2759  0.7213
 4459TIP3    H134936   5.834   1.103   0.365 -2.2731 -0.6643  0.5841
 4459TIP3    H234937   5.903   1.175   0.479  1.0674  0.7289 -2.1432
 4460TIP3   OH234938   5.001   2.754   6.898  0.0160 -0.3115  0.2654
 4460TIP3    H134939   4.976   2.668   6.931 -1.0438 -1.0662 -2.2435
 4460TIP3    H234940   5.078   2.738   6.844  1.3066  0.7740  1.6859
 4461TIP3   OH234941   6.494   3.837   2.149  0.7469  0.1479 -0.7353
 4461TIP3    H134942   6.496   3.742   2.151 -1.2489  0.0617 -1.0635
 4461TIP3    H234943   6.481   3.863   2.241  0.7920  0.0732 -0.7083
 4462TIP3   OH234944   3.989   6.226   1.008 -0.4571  0.5630  0.2047
 4462TIP3    H134945   3.915   6.231   1.070  0.4132  1.0271  1.2374
 4462TIP3    H234946   3.990   6.135   0.980 -0.0211 -0.0195  1.9794
 4463TIP3   OH234947   0.191   5.680   0.891 -0.2871 -0.1212 -0.0189
 4463TIP3    H134948   0.209   5.672   0.797  2.6822 -0.5571  0.4926
 4463TIP3    H234949   0.256   5.743   0.923 -0.1646 -1.1848  1.9871
 4464TIP3   OH234950   3.973   0.854   8.492 -0.2640 -0.4901  0.1461
 4464TIP3    H134951   4.048   0.910   8.471  0.8628 -1.4735  1.3982
 4464TIP3    H234952   3.941   0.825   8.407  0.1029  0.7772 -0.4530
 4465TIP3   OH234953   0.857   4.650   0.234  0.4269 -0.0355  0.1682
 4465TIP3    H134954   0.827   4.672   0.322  0.9787 -0.9499  0.6006
 4465TIP3    H234955   0.944   4.688   0.227 -0.9803  3.2539 -1.3509
 4466TIP3   OH234956   2.194   6.568   6.798 -0.0549 -0.6071 -0.4276
 4466TIP3    H134957   2.112   6.520   6.810 -1.6371  2.0133 -0.1401
 4466TIP3    H234958   2.226   6.581   6.887 -0.0783 -0.3795 -0.4539
 4467TIP3   OH234959   4.099   2.708   2.092 -0.1389 -0.2008 -0.3028
 4467TIP3    H134960   4.087   2.797   2.058  2.1963  0.9262  1.5155
 4467TIP3    H234961   4.119   2.656   2.014  0.8355  1.3914 -1.1889
 4468TIP3   OH234962   5.501   6.836   8.263 -0.9637  0.1558 -0.1880
 4468TIP3    H134963   5.484   6.868   8.351 -0.6000  2.1749 -0.7957
 4468TIP3    H234964   5.415   6.813   8.228 -1.1207 -0.5480  0.6255
 4469TIP3   OH234965   5.478   4.969   7.796 -0.9177  0.4411  0.0610
 4469TIP3    H134966   5.488   5.063   7.807 -1.0057  0.4325  0.2278
 4469TIP3    H234967   5.567   4.936   7.781 -1.0403  0.7163 -1.3869
 4470TIP3   OH234968   2.953   3.531   8.184  0.0477 -0.3639 -0.3820
 4470TIP3    H134969   2.877   3.474   8.196 -0.8764  0.9581  0.3477
 4470TIP3    H234970   2.945   3.564   8.095  1.2960 -2.3041 -1.2745
 4471TIP3   OH234971   5.086   6.143   8.590  0.4340 -0.3872  0.0095
 4471TIP3    H134972   5.171   6.171   8.624 -0.7531  1.6986  1.5657
 4471TIP3    H234973   5.081   6.050   8.612  2.0438 -0.3962  0.4766
 4472TIP3   OH234974   4.285   5.577   7.055 -0.0806  0.5122 -0.0319
 4472TIP3    H134975   4.263   5.487   7.029 -0.1813  1.5530 -4.2861
 4472TIP3    H234976   4.375   5.572   7.088 -0.6533 -1.3045  1.4206
 4473TIP3   OH234977   0.115   4.864   0.663 -0.1409 -0.3292 -0.0327
 4473TIP3    H134978   0.118   4.957   0.641 -0.1872  0.0061  1.2655
 4473TIP3    H234979   0.024   4.849   0.691  0.5923  0.0563  2.9029
 4474TIP3   OH234980   4.672   2.079   2.184  0.1329  0.4065 -0.3303
 4474TIP3    H134981   4.679   2.174   2.169 -0.3183  0.4473 -0.2869
 4474TIP3    H234982   4.609   2.049   2.118 -0.4707  0.2946  0.2912
 4475TIP3   OH234983   2.061   3.463   1.183  0.0100 -0.1508  0.2619
 4475TIP3    H134984   2.076   3.545   1.231 -1.0767  0.1973  0.0266
 4475TIP3    H234985   1.970   3.469   1.153 -0.0250 -1.3740  0.0896
 4476TIP3   OH234986   2.453   2.994   1.137 -0.6194  0.2383 -0.2089
 4476TIP3    H134987   2.408   2.922   1.095 -2.4782 -0.1087  2.1808
 4476TIP3    H234988   2.424   3.072   1.089  1.4239 -0.4663 -2.8218
 4477TIP3   OH234989   0.982   0.621   3.315 -0.5075  0.5935  0.3981
 4477TIP3    H134990   0.986   0.542   3.261 -0.3158  0.4929  0.5594
 4477TIP3    H234991   0.988   0.693   3.252  0.3849  0.4714  0.3401
 4478TIP3   OH234992   2.909   6.021   2.669  0.1238 -0.1919 -0.2563
 4478TIP3    H134993   2.964   6.011   2.747  1.6618  0.6954 -1.1782
 4478TIP3    H234994   2.834   5.963   2.685  1.8860 -2.4120  0.5267
 4479TIP3   OH234995   6.238   1.855   0.812 -0.3647 -0.1457 -0.0251
 4479TIP3    H134996   6.175   1.923   0.792  1.1967  1.0734 -1.0897
 4479TIP3    H234997   6.303   1.898   0.868 -0.2354 -1.2376  0.6923
 4480TIP3   OH234998   3.658   5.653   1.107 -0.3213 -0.4370 -0.3005
 4480TIP3    H134999   3.616   5.638   1.192 -1.0621 -2.5142 -0.9654
 4480TIP3    H235000   3.746   5.683   1.129 -0.4148 -1.1646  1.2086
 4481TIP3   OH235001   1.575   1.927   1.519  0.2541 -0.0321 -0.2112
 4481TIP3    H135002   1.489   1.968   1.522  0.9066  1.4009 -0.1970
 4481TIP3    H235003   1.583   1.880   1.602 -0.7684 -0.7722 -0.5132
 4482TIP3   OH235004   0.252   2.669   0.289  0.4237  0.4829 -0.7818
 4482TIP3    H135005   0.160   2.654   0.312  0.8594 -0.9908  0.1715
 4482TIP3    H235006   0.258   2.763   0.274 -0.8441  0.9281  1.1394
 4483TIP3   OH235007   5.527   5.838   7.663 -0.2586 -0.0895  0.1147
 4483TIP3    H135008   5.529   5.912   7.724 -0.5500  0.1869 -0.2079
 4483TIP3    H235009   5.468   5.775   7.704  0.6848 -0.5401  0.8324
 4484TIP3   OH235010   3.676   2.045   0.748  0.0060 -0.4875 -0.4852
 4484TIP3    H135011   3.749   1.984   0.761  0.3213  0.1167  0.7648
 4484TIP3    H235012   3.671   2.093   0.831 -0.0076  1.4287 -1.5436
 4485TIP3   OH235013   3.130   5.911   7.909  0.7201  0.2201  0.0752
 4485TIP3    H135014   3.056   5.887   7.853  1.3705 -1.6274 -0.0785
 4485TIP3    H235015   3.092   5.961   7.981 -1.0813 -2.6180  1.2596
 4486TIP3   OH235016   4.905   3.433   1.688 -0.1352 -0.2726 -0.1151
 4486TIP3    H135017   4.962   3.501   1.723 -1.1936  0.6659 -0.1789
 4486TIP3    H235018   4.854   3.403   1.764  0.1891 -0.8746 -0.1251
 4487TIP3   OH235019   2.620   0.586   1.360  0.6256  0.1804 -0.3292
 4487TIP3    H135020   2.653   0.604   1.448 -1.5370  1.1178  0.3541
 4487TIP3    H235021   2.637   0.666   1.311 -1.6028  1.1828  0.3908
 4488TIP3   OH235022   6.842   2.243   0.854 -0.3921 -0.0707 -0.1895
 4488TIP3    H135023   6.829   2.173   0.918 -0.3876 -1.5132 -1.7100
 4488TIP3    H235024   6.929   2.226   0.818 -0.7811  0.1244 -1.2575
 4489TIP3   OH235025   6.092   0.260   1.038 -0.0421 -0.1345  0.3591
 4489TIP3    H135026   6.030   0.238   0.968  0.5005 -0.2859 -0.0819
 4489TIP3    H235027   6.171   0.288   0.992  0.6480 -1.1338  0.8882
 4490TIP3   OH235028   3.822   2.655   8.647  0.0033  0.0273  0.0227
 4490TIP3    H135029   3.757   2.606   8.699 -0.6679 -0.2311 -1.0343
 4490TIP3    H235030   3.906   2.631   8.686 -0.3912 -1.1841  0.1738
 4491TIP3   OH235031   3.743   2.528   2.154  0.7959 -0.4133 -0.4200
 4491TIP3    H135032   3.793   2.555   2.231 -1.5071 -1.6661  1.6871
 4491TIP3    H235033   3.661   2.577   2.161 -0.1703 -1.8681 -1.0323
 4492TIP3   OH235034   5.383   5.901   8.536  0.1650 -0.5623 -0.0862
 4492TIP3    H135035   5.351   5.888   8.625 -2.2288 -1.0501 -0.9459
 4492TIP3    H235036   5.330   5.842   8.482  1.0597  0.2205 -1.9335
 4493TIP3   OH235037   1.189   5.095   6.894 -0.2823  0.0634 -0.8705
 4493TIP3    H135038   1.114   5.053   6.851 -0.4671 -0.2774 -0.2236
 4493TIP3    H235039   1.265   5.062   6.846 -0.4229 -1.0107 -0.3892
 4494TIP3   OH235040   6.789   6.027   8.488 -0.7708  0.1069  0.2091
 4494TIP3    H135041   6.866   6.031   8.545 -1.5516 -0.3706  1.3377
 4494TIP3    H235042   6.732   6.098   8.518 -0.9662  0.1873 -0.3326
 4495TIP3   OH235043   5.764   3.827   8.031  0.6518 -0.2736  0.1036
 4495TIP3    H135044   5.689   3.883   8.013  1.6501  0.9261 -0.4778
 4495TIP3    H235045   5.726   3.740   8.046 -0.6741 -0.2959 -2.7586
 4496TIP3   OH235046   2.414   5.488   1.363  0.9622  0.1294  0.1853
 4496TIP3    H135047   2.357   5.562   1.387  0.8242  0.4505 -1.0700
 4496TIP3    H235048   2.484   5.527   1.311  0.9504 -0.6040 -0.4006
 4497TIP3   OH235049   0.172   6.090   3.088 -0.0174 -0.1391 -0.0300
 4497TIP3    H135050   0.081   6.103   3.114  0.3537  0.1598  1.1797
 4497TIP3    H235051   0.194   6.168   3.037 -0.0553  0.4213  0.7942
 4498TIP3   OH235052   3.061   1.410   0.699  0.5712  0.1787  0.5259
 4498TIP3    H135053   2.998   1.462   0.749  0.6143 -0.0587  0.8298
 4498TIP3    H235054   3.033   1.320   0.713  1.7690 -0.0320  1.7754
 4499TIP3   OH235055   4.304   4.942   1.839  0.7371 -0.2674 -0.0319
 4499TIP3    H135056   4.228   4.999   1.827 -0.6077 -1.9179  0.2499
 4499TIP3    H235057   4.299   4.915   1.931  0.5220 -1.9095 -0.4947
 4500TIP3   OH235058   4.210   6.097   7.459  0.2898 -0.4953  0.3918
 4500TIP3    H135059   4.240   6.149   7.384 -0.1684 -1.9892 -0.9088
 4500TIP3    H235060   4.284   6.041   7.481  0.5364  0.1703  1.3114
 4501TIP3   OH235061   0.517   2.953   0.182  0.5400 -0.8745 -0.1494
 4501TIP3    H135062   0.559   3.001   0.253  1.5089 -2.1512  0.1543
 4501TIP3    H235063   0.431   2.929   0.216  0.5667 -0.5211  0.1705
 4502TIP3   OH235064   3.636   5.449   0.269 -0.0010 -0.1863  0.4437
 4502TIP3    H135065   3.613   5.528   0.220 -1.2578 -0.1706  1.0296
 4502TIP3    H235066   3.671   5.482   0.352  0.7034 -0.2383  0.1747
 4503TIP3   OH235067   4.724   2.362   1.486 -0.3452  0.3134 -0.1223
 4503TIP3    H135068   4.802   2.310   1.506  1.1346  1.8920 -1.4237
 4503TIP3    H235069   4.722   2.366   1.390 -3.9554 -2.3806 -0.3716
 4504TIP3   OH235070   6.758   1.610   1.206  0.3052  0.4340  0.0901
 4504TIP3    H135071   6.842   1.582   1.170 -1.0734 -1.3034 -2.0076
 4504TIP3    H235072   6.735   1.542   1.269  0.0505  0.4191 -0.0174
 4505TIP3   OH235073   2.801   0.647   7.896  0.8677 -0.4001  0.2648
 4505TIP3    H135074   2.798   0.635   7.991  0.3303  0.6212  0.3924
 4505TIP3    H235075   2.776   0.561   7.860 -1.6717 -0.1169  1.0894
 4506TIP3   OH235076   4.710   2.270   7.227 -0.3802  0.3793 -0.2916
 4506TIP3    H135077   4.689   2.184   7.191 -1.4232  0.3389  0.3659
 4506TIP3    H235078   4.705   2.330   7.152 -0.2853 -0.0390 -0.6305
 4507TIP3   OH235079   4.997   4.200   7.704 -0.0346 -0.0692 -0.2754
 4507TIP3    H135080   5.060   4.216   7.774 -2.8483 -0.1053  2.4980
 4507TIP3    H235081   5.008   4.108   7.682 -0.4007 -0.6098  1.6286
 4508TIP3   OH235082   2.867   4.793   1.219 -0.2915 -0.1546  0.4498
 4508TIP3    H135083   2.884   4.862   1.155  0.7880  0.4020  1.3086
 4508TIP3    H235084   2.880   4.836   1.304  1.9252 -1.7617  0.9932
 4509TIP3   OH235085   1.211   6.090   1.164 -0.3185 -0.1524  0.6193
 4509TIP3    H135086   1.135   6.143   1.140  0.0138  0.2131  0.3563
 4509TIP3    H235087   1.244   6.058   1.080  1.5424  2.0715  0.3863
 4510TIP3   OH235088   5.001   5.815   2.759 -0.1145  0.0242  0.0431
 4510TIP3    H135089   5.078   5.767   2.732 -0.0503  0.9190 -1.4758
 4510TIP3    H235090   4.927   5.760   2.733 -0.0152  0.0579 -0.3121
 4511TIP3   OH235091   6.179   2.099   1.607  0.0040 -0.2030  0.2555
 4511TIP3    H135092   6.128   2.035   1.559 -0.9933  1.9053 -1.6855
 4511TIP3    H235093   6.270   2.076   1.590 -0.3232 -0.0648 -2.0012
 4512TIP3   OH235094   2.173   0.005   1.897  0.0045 -0.2516  0.0575
 4512TIP3    H135095   2.133  -0.080   1.879  0.1143 -0.3285  0.1837
 4512TIP3    H235096   2.258  -0.015   1.936 -0.2849 -0.0825  0.7922
 4513TIP3   OH235097   6.023   5.824   0.388  0.4127  0.0344 -0.1906
 4513TIP3    H135098   5.977   5.895   0.344 -0.1268 -0.3356 -0.2450
 4513TIP3    H235099   5.955   5.781   0.440  0.8886  0.0176  0.4236
 4514TIP3   OH235100   3.832   1.134   0.838  0.3787  0.0317 -0.2767
 4514TIP3    H135101   3.853   1.221   0.870 -0.7585  0.4325 -0.5453
 4514TIP3    H235102   3.889   1.121   0.763  0.1738  0.7867 -0.5717
 4515TIP3   OH235103   1.009   0.291   2.631 -0.1714  0.0398 -0.1016
 4515TIP3    H135104   1.060   0.232   2.685 -0.0144 -0.8570 -1.1938
 4515TIP3    H235105   0.918   0.265   2.646 -0.2203  0.5648  0.5939
 4516TIP3   OH235106   3.910   6.445   7.797 -0.0379 -0.0233  0.5073
 4516TIP3    H135107   3.884   6.380   7.862 -1.4738 -0.4651 -0.4465
 4516TIP3    H235108   3.860   6.524   7.821 -0.3887 -0.1160  0.1022
 4517TIP3   OH235109   2.942   5.039   0.565 -0.5207  0.2418 -0.3416
 4517TIP3    H135110   2.877   4.981   0.525  1.8873 -1.5905 -1.8510
 4517TIP3    H235111   2.961   4.999   0.650  0.0057 -0.2989 -0.7133
 4518TIP3   OH235112   2.905   3.594   7.921  0.0454 -0.0544 -0.7171
 4518TIP3    H135113   2.811   3.592   7.904 -0.1884  0.8814  0.3185
 4518TIP3    H235114   2.943   3.631   7.842 -0.5136  0.0168 -0.9572
 4519TIP3   OH235115   5.282   4.872   1.329 -0.2277  0.3022 -0.3746
 4519TIP3    H135116   5.227   4.951   1.338 -0.4046  0.1853 -0.4259
 4519TIP3    H235117   5.227   4.810   1.281 -0.4188 -0.1640  0.4237
 4520TIP3   OH235118   4.074   2.563   1.329  0.1069  0.2416  0.4894
 4520TIP3    H135119   4.036   2.650   1.318 -0.0942 -0.0451 -1.4192
 4520TIP3    H235120   4.168   2.578   1.333  0.0848  0.5414 -0.0318
 4521TIP3   OH235121   5.874   6.024   0.284 -0.3697 -0.1512  0.8228
 4521TIP3    H135122   5.850   6.105   0.239 -0.7200  0.5850  2.2963
 4521TIP3    H235123   5.862   6.042   0.377  0.5872 -1.5494  1.2677
 4522TIP3   OH235124   3.251   1.438   1.642 -0.0802 -0.0388  0.0518
 4522TIP3    H135125   3.306   1.488   1.581 -0.9421 -0.2466 -0.9186
 4522TIP3    H235126   3.247   1.492   1.721  1.3417  0.0714  0.0781
 4523TIP3   OH235127   1.014   1.243   8.155  0.1688  0.5420 -0.4583
 4523TIP3    H135128   1.080   1.255   8.223  2.8193 -2.1293 -2.2866
 4523TIP3    H235129   1.060   1.263   8.073 -1.2241 -1.4137 -1.8292
 4524TIP3   OH235130   0.362   4.249   2.033  0.0066  0.2114  0.2033
 4524TIP3    H135131   0.423   4.205   1.974  1.9340  1.6411  1.0277
 4524TIP3    H235132   0.363   4.341   2.004 -1.8975  0.2444  0.1461
 4525TIP3   OH235133   6.158   5.080   8.246  0.7304 -0.2086  0.6736
 4525TIP3    H135134   6.230   5.135   8.276  0.2126  0.4297  0.7455
 4525TIP3    H235135   6.173   5.070   8.152  0.9536 -0.1357  0.7014
 4526TIP3   OH235136   6.290   4.759   8.505  0.2034 -1.1833 -0.2537
 4526TIP3    H135137   6.370   4.790   8.548 -0.0169  0.9642 -1.2622
 4526TIP3    H235138   6.221   4.779   8.568 -0.3554  3.5700 -1.9511
 4527TIP3   OH235139   3.958   4.287   8.252  0.0432  0.4916  0.2845
 4527TIP3    H135140   3.956   4.268   8.345  0.1028  1.7430  0.5542
 4527TIP3    H235141   3.896   4.360   8.241  0.8851  1.1153 -0.4680
 4528TIP3   OH235142   3.625   4.897   0.985 -0.0342 -0.0716 -0.3461
 4528TIP3    H135143   3.694   4.856   1.037 -0.4495 -3.3762 -2.1423
 4528TIP3    H235144   3.543   4.869   1.027 -0.3199 -0.1791 -0.9645
 4529TIP3   OH235145   5.331   5.158   3.171 -0.0585  0.1435 -0.1935
 4529TIP3    H135146   5.375   5.104   3.106  1.1438  0.4140  0.3631
 4529TIP3    H235147   5.396   5.224   3.195 -0.3895 -0.0697  1.4118
 4530TIP3   OH235148   5.164   3.691   7.693 -0.0599  0.7262  0.2594
 4530TIP3    H135149   5.088   3.672   7.639  1.1345  1.1408 -1.6631
 4530TIP3    H235150   5.140   3.660   7.780 -2.0360 -0.0268 -0.4983
 4531TIP3   OH235151   3.692   0.153   8.118 -0.8048 -0.0769  0.4151
 4531TIP3    H135152   3.699   0.238   8.074 -1.2304  0.4529  1.3394
 4531TIP3    H235153   3.610   0.157   8.167 -0.3031 -0.6003  1.3359
 4532TIP3   OH235154   5.973   3.557   2.036 -0.5940  0.9413 -0.3229
 4532TIP3    H135155   5.940   3.482   2.085  2.8927 -0.0949  0.6628
 4532TIP3    H235156   5.906   3.625   2.049 -3.0613 -1.3957  0.1168
 4533TIP3   OH235157   2.756   2.725   1.429  0.0418  0.1003  0.3889
 4533TIP3    H135158   2.735   2.776   1.351 -1.4173  0.1719  0.7967
 4533TIP3    H235159   2.821   2.778   1.475 -1.1910  1.4950  0.6379
 4534TIP3   OH235160   6.115   3.260   2.334  0.1883  0.1622 -0.4047
 4534TIP3    H135161   6.149   3.284   2.421 -0.2629 -0.8337  0.0626
 4534TIP3    H235162   6.155   3.175   2.316 -1.7483 -0.9037  0.0204
 4535TIP3   OH235163   0.576   2.830   2.871 -0.0198 -0.6432  0.4909
 4535TIP3    H135164   0.651   2.775   2.893  0.7449  2.0277  6.7041
 4535TIP3    H235165   0.615   2.912   2.840 -0.6733 -0.6517 -0.3960
 4536TIP3   OH235166   3.179   6.461   1.169  0.3174  0.2735 -0.0791
 4536TIP3    H135167   3.258   6.500   1.131 -0.3473 -0.4197 -2.3257
 4536TIP3    H235168   3.204   6.371   1.189  0.6021  0.5736  0.9342
 4537TIP3   OH235169   5.382   4.816   0.374 -0.1066  0.5945  0.2716
 4537TIP3    H135170   5.315   4.797   0.440  1.7896 -0.9879  1.8764
 4537TIP3    H235171   5.433   4.735   0.368  1.2961  1.5342 -1.3472
 4538TIP3   OH235172   5.698   1.488   2.644 -0.4886  0.3203  0.7169
 4538TIP3    H135173   5.625   1.549   2.635 -1.9471 -1.3493  0.6365
 4538TIP3    H235174   5.733   1.504   2.732 -0.3488  1.7439  0.4226
 4539TIP3   OH235175   4.101   1.963   1.857 -0.0066  0.0053 -0.5252
 4539TIP3    H135176   4.068   2.002   1.776 -1.2005  0.1039 -0.0109
 4539TIP3    H235177   4.196   1.974   1.852  0.0279 -0.8240 -2.3194
 4540TIP3   OH235178   3.458   6.387   0.053  0.6608 -0.3938  0.4897
 4540TIP3    H135179   3.550   6.400   0.031  0.2530 -1.5304 -2.3388
 4540TIP3    H235180   3.412   6.461   0.012  0.1775 -0.7638  0.3424
 4541TIP3   OH235181   6.180   1.122   1.696  0.1841  0.4401 -0.0589
 4541TIP3    H135182   6.226   1.135   1.613  3.9638  1.0884  1.9583
 4541TIP3    H235183   6.170   1.027   1.702  1.4005  0.2634 -0.5243
 4542TIP3   OH235184   1.343   2.484   2.063  0.3124 -0.2930  0.3519
 4542TIP3    H135185   1.375   2.574   2.074 -0.5102  0.0963 -0.2641
 4542TIP3    H235186   1.253   2.495   2.031  0.3577 -1.3364 -0.1739
 4543TIP3   OH235187   0.125   5.105   0.903 -0.6643 -0.4545 -0.0799
 4543TIP3    H135188   0.183   5.050   0.849  0.2580  0.1993  0.2273
 4543TIP3    H235189   0.159   5.096   0.992 -0.8937  0.1294  0.0716
 4544TIP3   OH235190   4.686   5.603   7.501 -0.0439  0.7861 -0.1505
 4544TIP3    H135191   4.737   5.680   7.476  0.2806  0.0107 -2.0754
 4544TIP3    H235192   4.744   5.529   7.486 -0.8389  0.0598  0.2486
 4545TIP3   OH235193   0.498   1.566   0.347  0.2130  0.4694  0.1088
 4545TIP3    H135194   0.542   1.592   0.428  0.2074  3.1661 -0.6407
 4545TIP3    H235195   0.421   1.622   0.343 -0.0620  0.0290 -1.5180
 4546TIP3   OH235196   6.559   6.079   2.305 -0.0490  0.3153 -0.4960
 4546TIP3    H135197   6.604   6.016   2.248 -0.4739 -0.0033 -0.4866
 4546TIP3    H235198   6.604   6.073   2.389  0.0285  0.1485 -0.5488
 4547TIP3   OH235199   2.280   0.091   0.424  0.3903 -0.2567  0.2201
 4547TIP3    H135200   2.262   0.005   0.386 -0.3694  0.2462 -0.5811
 4547TIP3    H235201   2.243   0.086   0.512 -2.1647  0.1315 -0.7515
 4548TIP3   OH235202   1.107   1.299   0.542  0.0753  0.2735  0.3766
 4548TIP3    H135203   1.150   1.351   0.474 -0.0607  1.3429  1.0997
 4548TIP3    H235204   1.107   1.355   0.620  0.0312 -0.8443  1.2092
 4549TIP3   OH235205   5.196   1.431   1.424  0.2135  0.7316 -0.0000
 4549TIP3    H135206   5.218   1.372   1.496  1.2673  1.7704  0.5626
 4549TIP3    H235207   5.216   1.381   1.345 -1.3132 -0.5574  0.3835
 4550TIP3   OH235208   1.721   4.031   7.917  0.5958  0.4832 -0.4727
 4550TIP3    H135209   1.640   4.066   7.881  0.0684  0.8051  0.9624
 4550TIP3    H235210   1.761   3.983   7.844 -1.4173 -0.6237 -0.9093
 4551TIP3   OH235211   5.270   0.307   1.578 -0.4941  0.8353  0.3074
 4551TIP3    H135212   5.360   0.322   1.550 -0.4846 -0.2797 -0.2970
 4551TIP3    H235213   5.233   0.247   1.513 -1.4006  0.5848  1.0213
 4552TIP3   OH235214   1.217   3.353   8.094  0.3497 -0.1387  0.2022
 4552TIP3    H135215   1.246   3.318   8.010  1.6769  2.3864 -0.4980
 4552TIP3    H235216   1.170   3.280   8.135  2.4503 -2.5151 -1.2885
 4553TIP3   OH235217   3.274   0.498   0.495  0.3979  0.0056 -0.0624
 4553TIP3    H135218   3.187   0.507   0.457  0.5352  0.2478 -0.3218
 4553TIP3    H235219   3.316   0.430   0.443  0.6237  0.4129 -0.4205
 4554TIP3   OH235220   1.257   4.279   8.430 -0.1475 -0.3473  0.1870
 4554TIP3    H135221   1.294   4.303   8.515 -0.7341  1.3380 -0.0106
 4554TIP3    H235222   1.164   4.298   8.438 -0.0833  0.6217 -1.0811
 4555TIP3   OH235223   4.087   1.797   2.074  0.3027  0.3005  0.0616
 4555TIP3    H135224   4.009   1.753   2.039  0.1393  1.0556 -0.5732
 4555TIP3    H235225   4.113   1.857   2.004  1.8623 -0.4073  0.0083
 4556TIP3   OH235226   5.453   5.659   8.164  0.1015 -0.3886 -0.1046
 4556TIP3    H135227   5.399   5.687   8.091 -0.2625 -0.0030  0.3056
 4556TIP3    H235228   5.541   5.688   8.141 -0.2051  0.7815  0.1375
 4557TIP3   OH235229   5.102   1.486   1.783  0.0271  0.2144  0.0170
 4557TIP3    H135230   5.128   1.402   1.746 -0.0964  0.6320 -1.0365
 4557TIP3    H235231   5.183   1.537   1.787 -0.1732  0.6083 -0.8539
 4558TIP3   OH235232   3.822   3.375   1.242 -0.3202 -0.4110  0.7446
 4558TIP3    H135233   3.853   3.352   1.155 -1.0471 -1.5901  0.7782
 4558TIP3    H235234   3.736   3.333   1.249 -0.9981  1.0313  1.4278
 4559TIP3   OH235235   1.811   2.518   2.143  0.1304 -0.0467 -0.1035
 4559TIP3    H135236   1.870   2.505   2.217 -1.9906 -1.6707  1.4141
 4559TIP3    H235237   1.760   2.596   2.166 -0.3749 -0.4210  0.0740
 4560TIP3   OH235238   4.028   3.514   2.749  0.3069  0.3550  0.2683
 4560TIP3    H135239   4.061   3.437   2.796  0.9795  1.4672  1.6954
 4560TIP3    H235240   4.105   3.552   2.708  0.1842  0.9214  0.5564
 4561TIP3   OH235241   5.827   3.166   0.569  0.7602 -0.4910 -0.2471
 4561TIP3    H135242   5.805   3.073   0.567  0.7348 -0.4807 -0.7666
 4561TIP3    H235243   5.909   3.170   0.618  0.0844 -0.6306  0.9083
 4562TIP3   OH235244   4.385   3.045   2.193  0.6086 -0.3479 -0.3960
 4562TIP3    H135245   4.318   3.026   2.259  0.2038  0.6843 -0.4842
 4562TIP3    H235246   4.387   3.140   2.188 -0.2250 -0.3954 -2.7270
 4563TIP3   OH235247   3.233   5.683   7.708 -0.0282  0.0915 -0.1664
 4563TIP3    H135248   3.253   5.604   7.759 -1.6045 -0.3539 -0.1877
 4563TIP3    H235249   3.139   5.680   7.694  0.2669  0.4616 -2.7269
 4564TIP3   OH235250   4.780   2.131   1.844  0.3173 -0.5410  0.1605
 4564TIP3    H135251   4.721   2.202   1.867  1.4648  1.1680 -1.8766
 4564TIP3    H235252   4.727   2.072   1.791 -0.1137 -0.1536  0.1570
 4565TIP3   OH235253   4.145   4.063   0.124  0.1947  0.4677 -0.4991
 4565TIP3    H135254   4.233   4.094   0.143  0.2792 -0.1426  0.1326
 4565TIP3    H235255   4.091   4.097   0.196 -0.3017  1.7210 -1.4252
 4566TIP3   OH235256   1.124   1.575   1.289 -0.4437  0.1630 -0.1067
 4566TIP3    H135257   1.147   1.667   1.279  0.0148 -0.0061 -0.6191
 4566TIP3    H235258   1.132   1.558   1.383 -0.0228  0.5107 -0.0791
 4567TIP3   OH235259   6.463   5.038   1.676  0.7587 -0.0277  0.8301
 4567TIP3    H135260   6.470   5.125   1.715  1.6774  0.3920 -0.2217
 4567TIP3    H235261   6.498   5.048   1.587 -0.6760 -1.0950  0.1064
 4568TIP3   OH235262   4.407   1.070   7.628  0.4144  0.2920 -0.3041
 4568TIP3    H135263   4.389   1.159   7.657 -1.7263 -0.1728 -0.0245
 4568TIP3    H235264   4.365   1.064   7.542  0.9968 -0.2963 -0.5564
 4569TIP3   OH235265   1.268   5.455   1.781  0.0165 -0.3582 -0.5759
 4569TIP3    H135266   1.231   5.367   1.774  0.1109 -0.3366 -1.4599
 4569TIP3    H235267   1.232   5.490   1.863  2.4063 -2.3387  1.5007
 4570TIP3   OH235268   0.543   6.338   1.303  0.6047 -0.9550  0.2622
 4570TIP3    H135269   0.600   6.373   1.372  0.4698  0.2447 -0.2105
 4570TIP3    H235270   0.473   6.292   1.349  0.8180 -0.6414  0.9004
 4571TIP3   OH235271   2.343   1.292   2.833  0.1981 -0.3995  0.4992
 4571TIP3    H135272   2.294   1.368   2.864  1.8908  0.7956  0.3678
 4571TIP3    H235273   2.395   1.325   2.760  0.4514 -1.8615 -0.0150
 4572TIP3   OH235274   3.982   4.078   0.347 -1.1407  0.6817  0.4791
 4572TIP3    H135275   4.033   4.159   0.347  2.1060 -1.1186 -1.2936
 4572TIP3    H235276   4.007   4.034   0.428  0.3713 -0.2278 -0.4178
 4573TIP3   OH235277   3.854   2.169   0.262 -0.4903 -0.5002 -0.6582
 4573TIP3    H135278   3.768   2.207   0.248  0.3839  1.9260  0.1175
 4573TIP3    H235279   3.841   2.075   0.250 -3.2997 -0.2454 -0.2160
 4574TIP3   OH235280   1.066   0.869   1.645  0.0293  0.1137 -0.1144
 4574TIP3    H135281   1.067   0.775   1.659  0.7053  0.1509  0.1565
 4574TIP3    H235282   1.142   0.901   1.694  1.3568  0.4891 -2.2784
 4575TIP3   OH235283   3.313   2.248   7.306  0.4672 -0.2994 -0.3157
 4575TIP3    H135284   3.348   2.309   7.370  1.1634 -0.7817 -0.2232
 4575TIP3    H235285   3.231   2.217   7.344  0.1482  0.5151 -0.3350
 4576TIP3   OH235286   3.306   1.929   1.804  1.0003 -0.0900  0.5821
 4576TIP3    H135287   3.310   1.916   1.899  1.8308 -0.5225  0.4964
 4576TIP3    H235288   3.263   2.014   1.794 -0.9508 -0.9538  1.2685
 4577TIP3   OH235289   0.251   3.044   8.282 -0.5491  0.0125  0.1540
 4577TIP3    H135290   0.185   3.030   8.350 -0.1901  1.4525  0.8287
 4577TIP3    H235291   0.306   2.966   8.285 -0.1562  0.3182  1.9736
 4578TIP3   OH235292   0.544   3.992   0.355  0.3407 -0.5312  0.1026
 4578TIP3    H135293   0.569   4.082   0.374 -0.4224 -0.5298  1.2366
 4578TIP3    H235294   0.459   3.999   0.312  0.5167 -0.6952 -0.2777
 4579TIP3   OH235295   4.108   5.284   1.581 -0.8138 -0.5218  0.5259
 4579TIP3    H135296   4.046   5.230   1.629 -2.3622 -0.2406 -1.0631
 4579TIP3    H235297   4.162   5.222   1.533 -0.7003 -0.7335  0.9266
 4580TIP3   OH235298   1.181   3.107   1.924  0.6863  0.2140 -0.0104
 4580TIP3    H135299   1.222   3.024   1.900  1.1822  0.7513 -1.0949
 4580TIP3    H235300   1.226   3.134   2.003  0.5753 -0.5069  0.3085
 4581TIP3   OH235301   2.333   0.357   0.772 -0.4065 -0.1407 -0.1577
 4581TIP3    H135302   2.384   0.436   0.788  1.2723 -1.1261 -0.3611
 4581TIP3    H235303   2.337   0.310   0.856 -0.1893 -0.6393 -0.4443
 4582TIP3   OH235304   1.867   6.388   2.054  0.3452  0.0948  0.3921
 4582TIP3    H135305   1.906   6.472   2.030  0.7998  0.3054  1.8001
 4582TIP3    H235306   1.866   6.338   1.973 -0.8397  1.7902 -0.7133
 4583TIP3   OH235307   1.298   5.749   1.289  0.1624 -0.5348  0.4291
 4583TIP3    H135308   1.374   5.696   1.262 -1.5159 -3.1362  0.4353
 4583TIP3    H235309   1.286   5.727   1.382 -1.1585 -0.9737  0.1778
 4584TIP3   OH235310   4.597   4.702   0.716  0.0429 -0.0554  0.0314
 4584TIP3    H135311   4.602   4.765   0.644  0.9044 -1.1818 -0.9226
 4584TIP3    H235312   4.624   4.752   0.793  0.1747  0.8784 -0.6021
 4585TIP3   OH235313   4.184   3.108   1.892 -0.1652 -0.2935  0.3131
 4585TIP3    H135314   4.237   3.160   1.953  0.8823 -1.5408  0.5127
 4585TIP3    H235315   4.094   3.138   1.907  0.1015 -0.3197  2.2410
 4586TIP3   OH235316   2.218   2.727   2.656  0.5036  0.8673 -0.2025
 4586TIP3    H135317   2.215   2.669   2.732 -0.2454 -1.9061 -2.1698
 4586TIP3    H235318   2.143   2.786   2.668  0.2411  0.3145  1.0556
 4587TIP3   OH235319   5.365   6.083   0.942  0.0687  0.3963 -0.9854
 4587TIP3    H135320   5.297   6.031   0.901  1.0669 -1.7728 -0.0534
 4587TIP3    H235321   5.443   6.068   0.887  0.2682  1.2567 -0.9447
 4588TIP3   OH235322   2.618   2.229   7.780  0.2218 -0.1619  0.2888
 4588TIP3    H135323   2.559   2.266   7.845  1.3488  0.5765  0.9203
 4588TIP3    H235324   2.644   2.144   7.816 -0.8854 -0.7535 -0.2668
 4589TIP3   OH235325   5.609   5.488   7.222  0.7222  0.1952 -0.3322
 4589TIP3    H135326   5.576   5.570   7.186  0.6913 -0.1990 -1.2307
 4589TIP3    H235327   5.537   5.454   7.275  0.7568  0.7706  0.0815
 4590TIP3   OH235328   0.269   4.180   1.540 -0.0757 -0.3539 -0.4699
 4590TIP3    H135329   0.220   4.127   1.477 -1.5611 -2.0796  1.9736
 4590TIP3    H235330   0.339   4.122   1.571  0.2365  0.2369 -0.0452
 4591TIP3   OH235331   4.874   0.212   7.821 -0.2474 -0.9513 -0.4756
 4591TIP3    H135332   4.814   0.157   7.872 -0.3757 -1.5588 -1.2707
 4591TIP3    H235333   4.961   0.189   7.855 -0.3990 -0.5396  0.2276
 4592TIP3   OH235334   2.095   1.533   0.473  0.3796  0.0852 -0.7414
 4592TIP3    H135335   2.064   1.623   0.460 -2.4757 -0.9154 -1.6386
 4592TIP3    H235336   2.020   1.487   0.511  0.6263 -2.5830 -3.1502
 4593TIP3   OH235337   1.394   6.517   7.365 -0.2820 -0.2053 -0.4979
 4593TIP3    H135338   1.425   6.599   7.402  2.1911 -1.2110 -0.1109
 4593TIP3    H235339   1.338   6.480   7.432 -2.0375  1.4391 -0.9744
 4594TIP3   OH235340   2.794   2.524   1.251  0.0049  0.4941 -0.1257
 4594TIP3    H135341   2.777   2.606   1.297 -0.9469  0.6440 -0.6946
 4594TIP3    H235342   2.880   2.496   1.281 -0.0440  1.2450  0.7451
 4595TIP3   OH235343   6.446   4.041   1.968 -0.2863  0.6474  0.0808
 4595TIP3    H135344   6.482   3.989   2.040  0.1639  2.7980  1.4958
 4595TIP3    H235345   6.494   4.012   1.891 -0.5295 -1.4766  0.6708
 4596TIP3   OH235346   1.040   2.285   8.189 -0.0673 -0.1313 -0.6451
 4596TIP3    H135347   1.076   2.363   8.146  2.1630  0.1045  1.4058
 4596TIP3    H235348   0.959   2.316   8.231  0.8386  1.1626  0.2328
 4597TIP3   OH235349   2.127   0.635   1.235 -0.1128 -0.1924 -0.2034
 4597TIP3    H135350   2.173   0.718   1.222 -1.3620  0.2194 -2.7745
 4597TIP3    H235351   2.094   0.639   1.324  1.4973  1.1824  0.3954
 4598TIP3   OH235352   1.241   4.606   7.901  0.0230 -0.6914 -0.0494
 4598TIP3    H135353   1.176   4.598   7.971  0.3198 -0.7545  0.2200
 4598TIP3    H235354   1.324   4.580   7.942  0.2876 -0.2246 -0.2831
 4599TIP3   OH235355   6.701   2.091   2.390  0.4494  0.1169  0.1906
 4599TIP3    H135356   6.656   2.151   2.331  2.7225  0.6956 -1.0843
 4599TIP3    H235357   6.652   2.009   2.383 -0.4633  0.7384 -1.0209
 4600TIP3   OH235358   6.152   3.430   0.657  0.3087  0.2365  0.2308
 4600TIP3    H135359   6.067   3.443   0.698  0.7080 -0.9484  1.4985
 4600TIP3    H235360   6.213   3.482   0.710  0.4065  1.0947 -0.6782
 4601TIP3   OH235361   1.317   2.020   1.595  0.2491  0.4844  0.0385
 4601TIP3    H135362   1.259   2.037   1.668  0.0659  0.7616 -0.1698
 4601TIP3    H235363   1.280   2.070   1.522 -0.2502 -0.7308 -0.5722
 4602TIP3   OH235364   2.004   3.780   0.518  0.0381  0.4762 -0.1237
 4602TIP3    H135365   1.918   3.739   0.512 -0.0045  0.6698 -1.0721
 4602TIP3    H235366   1.986   3.870   0.547 -0.1771  0.7929 -1.1921
 4603TIP3   OH235367   6.407   3.931   8.515 -0.3795  0.0203 -0.1919
 4603TIP3    H135368   6.333   3.927   8.455 -0.0004 -1.2093 -0.5920
 4603TIP3    H235369   6.477   3.883   8.471  0.2521  0.0359  0.7588
 4604TIP3   OH235370   4.343   0.373   1.002  0.6458 -0.4706 -0.2675
 4604TIP3    H135371   4.255   0.335   1.012  0.3860 -0.1648 -1.2583
 4604TIP3    H235372   4.328   0.467   0.999  1.1098 -0.3643  0.4064
 4605TIP3   OH235373   4.895   0.478   1.413  0.1563  0.1537  0.1213
 4605TIP3    H135374   4.922   0.405   1.468 -0.5296 -0.2867 -0.1106
 4605TIP3    H235375   4.841   0.532   1.470 -0.1670 -0.0553  0.0158
 4606TIP3   OH235376   0.101   2.176   2.434 -0.0643 -0.1402  0.1253
 4606TIP3    H135377   0.010   2.149   2.432 -0.9980  2.6653  0.5632
 4606TIP3    H235378   0.100   2.268   2.411  2.5309  0.3043  1.3539
 4607TIP3   OH235379   5.834   6.030   0.547 -0.2454 -0.4015  0.0409
 4607TIP3    H135380   5.819   5.936   0.562  2.0753 -0.6813  1.0611
 4607TIP3    H235381   5.915   6.049   0.595 -1.0552  2.3195  0.4833
 4608TIP3   OH235382   6.385   3.039   0.638  0.1569 -0.6643  0.6550
 4608TIP3    H135383   6.387   3.082   0.724  0.3332  0.2080  0.2216
 4608TIP3    H235384   6.357   3.107   0.577 -1.3675 -1.6383  0.2084
 4609TIP3   OH235385   2.022   5.575   2.059  0.1322  0.0172 -0.0202
 4609TIP3    H135386   2.035   5.562   1.965 -0.0617 -1.0691  0.0791
 4609TIP3    H235387   1.956   5.643   2.066  0.5850  0.5260 -0.6581
 4610TIP3   OH235388   0.345   5.486   0.661 -0.0424 -0.3668  0.0007
 4610TIP3    H135389   0.423   5.487   0.716  0.0915 -1.4965 -0.1463
 4610TIP3    H235390   0.293   5.412   0.693 -0.5940 -0.2130 -0.5166
 4611TIP3   OH235391   0.999   0.145   1.490 -0.4101 -0.0333  0.5224
 4611TIP3    H135392   0.952   0.062   1.475 -0.6460  0.0062  0.9971
 4611TIP3    H235393   0.964   0.177   1.573  0.0964  0.2581  0.6286
 4612TIP3   OH235394   3.464   2.446   7.073 -0.2681  0.4923  0.3109
 4612TIP3    H135395   3.395   2.389   7.038  2.3494 -0.7369 -3.5004
 4612TIP3    H235396   3.428   2.534   7.065 -1.6056 -0.1335 -1.0939
 4613TIP3   OH235397   3.881   0.228   2.607  0.0839  0.5564  0.1955
 4613TIP3    H135398   3.823   0.159   2.575 -1.7582  1.8169  0.6273
 4613TIP3    H235399   3.864   0.233   2.701  2.2508 -0.2211  0.6632
 4614TIP3   OH235400   1.761   1.023   8.578  0.3346 -0.2577 -0.3096
 4614TIP3    H135401   1.733   0.955   8.518  1.3092 -0.3868 -0.6408
 4614TIP3    H235402   1.719   1.001   8.661 -1.8749  0.5021 -1.1590
 4615TIP3   OH235403   2.691   6.065   8.494  0.0156  1.2976 -0.2864
 4615TIP3    H135404   2.646   6.038   8.575  1.4427 -0.9267 -0.1305
 4615TIP3    H235405   2.760   6.124   8.524  2.0322 -1.2831  0.5755
 4616TIP3   OH235406   1.006   1.116   2.259  0.7139  0.5921 -0.1298
 4616TIP3    H135407   0.948   1.187   2.286 -0.9835 -1.8148  3.4354
 4616TIP3    H235408   0.972   1.088   2.174 -3.0836 -0.1784  1.4349
 4617TIP3   OH235409   3.994   4.952   1.989 -0.4253 -0.0808  0.1645
 4617TIP3    H135410   3.978   5.013   2.061  0.5759  1.3991 -0.8183
 4617TIP3    H235411   4.076   4.910   2.011 -1.0132 -0.9459  0.7420
 4618TIP3   OH235412   4.542   6.522   1.545 -0.3169  0.0341  0.1837
 4618TIP3    H135413   4.474   6.454   1.538 -0.0371 -0.1385 -1.1285
 4618TIP3    H235414   4.532   6.573   1.465  1.9738 -0.8366 -0.7259
 4619TIP3   OH235415   5.056   0.680   0.259 -0.0846 -0.3319 -0.5440
 4619TIP3    H135416   4.961   0.679   0.263 -0.0721  0.5052  2.7760
 4619TIP3    H235417   5.085   0.642   0.342  2.3823  1.7351 -0.3104
 4620TIP3   OH235418   1.124   2.640   1.854 -0.5514  0.4680 -0.1271
 4620TIP3    H135419   1.068   2.625   1.930 -0.4320  1.0368  0.0827
 4620TIP3    H235420   1.187   2.706   1.884  0.3200 -0.2696 -0.3166
 4621TIP3   OH235421   0.225   6.641   1.754  0.9041 -0.5457  0.1035
 4621TIP3    H135422   0.211   6.720   1.806  0.3884 -0.2432 -0.4858
 4621TIP3    H235423   0.249   6.574   1.818  0.7000 -0.0715  0.6816
 4622TIP3   OH235424   3.099   4.323   0.819 -0.4105 -0.1140 -0.0495
 4622TIP3    H135425   3.020   4.331   0.765  0.6702 -2.7705 -2.3356
 4622TIP3    H235426   3.167   4.365   0.767  0.0118  0.5924  1.0623
 4623TIP3   OH235427   2.489   1.597   0.235 -0.0804  0.1464 -0.1655
 4623TIP3    H135428   2.494   1.691   0.222  0.8708 -0.1961 -2.8151
 4623TIP3    H235429   2.397   1.576   0.225 -0.1435  0.6596 -0.6782
 4624TIP3   OH235430   0.287   4.512   2.954 -0.2850 -0.1448 -0.2916
 4624TIP3    H135431   0.347   4.447   2.992  1.3256  1.1162 -0.5665
 4624TIP3    H235432   0.318   4.523   2.864  0.7030  2.3109  0.2637
 4625TIP3   OH235433   0.257   1.344   8.624  0.1007 -0.0848  0.1313
 4625TIP3    H135434   0.304   1.358   8.706 -0.4354 -0.6999  0.5537
 4625TIP3    H235435   0.168   1.320   8.651  0.0580 -0.8085 -0.6201
 4626TIP3   OH235436   5.504   0.052   1.247 -0.6153  0.2806 -0.3983
 4626TIP3    H135437   5.513   0.141   1.280 -1.9095  0.3093 -0.0760
 4626TIP3    H235438   5.503  -0.003   1.326 -1.2770  0.1228 -0.5141
 4627TIP3   OH235439   2.348   0.681   7.631 -0.1856 -0.0096  0.3390
 4627TIP3    H135440   2.404   0.630   7.573  0.0559  0.6691 -0.0284
 4627TIP3    H235441   2.408   0.726   7.691 -0.2097  1.7528 -0.8789
 4628TIP3   OH235442   6.219   0.849   1.409  0.5501 -0.1595 -0.1678
 4628TIP3    H135443   6.296   0.799   1.384  1.0989  0.8881 -0.6234
 4628TIP3    H235444   6.200   0.822   1.499  1.8334  0.0252  0.1675
 4629TIP3   OH235445   4.050   5.225   1.119  0.2199 -0.1861  0.1711
 4629TIP3    H135446   4.010   5.178   1.046 -0.8704  1.2953 -0.2264
 4629TIP3    H235447   4.123   5.170   1.146 -1.0686 -2.1648 -0.1828
 4630TIP3   OH235448   5.911   1.457   2.474  0.4175  0.6364 -0.0463
 4630TIP3    H135449   5.993   1.453   2.522  0.3998  0.3482 -0.0367
 4630TIP3    H235450   5.858   1.522   2.521  0.6782  0.9025 -0.1160
 4631TIP3   OH235451   4.152   2.431   0.687 -0.2846  0.9389  0.1500
 4631TIP3    H135452   4.176   2.522   0.667  1.4439  0.4358 -0.2452
 4631TIP3    H235453   4.154   2.387   0.603 -2.1244  0.7083  0.1896
 4632TIP3   OH235454   6.445   4.151   0.490  0.3135  0.3725 -0.6081
 4632TIP3    H135455   6.445   4.061   0.457 -0.6875 -0.4954  1.5918
 4632TIP3    H235456   6.377   4.153   0.557  1.5676  2.2614  0.7238
 4633TIP3   OH235457   2.193   1.094   7.746  0.1998 -0.5435  0.5690
 4633TIP3    H135458   2.155   1.069   7.662 -1.3005 -0.0374  1.0625
 4633TIP3    H235459   2.176   1.188   7.753  0.1689 -0.6122  1.5183
 4634TIP3   OH235460   0.929   5.352   0.823 -0.3219 -0.4525  0.0551
 4634TIP3    H135461   0.931   5.415   0.895  0.6724  1.3737 -1.4528
 4634TIP3    H235462   1.021   5.332   0.806 -0.5877 -1.6372 -0.0780
 4635TIP3   OH235463   0.461   3.648   7.667 -0.1090 -0.2635  0.1546
 4635TIP3    H135464   0.430   3.588   7.735 -2.8501  1.8205  0.9251
 4635TIP3    H235465   0.390   3.651   7.603  0.6967  0.8541 -0.7185
 4636TIP3   OH235466   5.955   0.877   2.069  0.0655  0.3364  0.1357
 4636TIP3    H135467   6.021   0.810   2.050 -0.4862 -0.7834  1.8270
 4636TIP3    H235468   6.002   0.943   2.121  0.4743  0.9713 -1.0236
 4637TIP3   OH235469   5.504   2.003   8.486 -0.2962 -0.2376 -0.8817
 4637TIP3    H135470   5.479   2.095   8.478  1.1696  0.2555 -0.0716
 4637TIP3    H235471   5.423   1.958   8.512 -0.3889  1.3430  1.9499
 4638TIP3   OH235472   4.586   6.038   2.235  0.3020  0.0190 -0.2082
 4638TIP3    H135473   4.632   6.028   2.318 -0.3756 -0.0876  0.1555
 4638TIP3    H235474   4.562   5.949   2.210  1.9646 -0.1618 -1.3782
 4639TIP3   OH235475   4.611   3.020   7.650 -0.6208 -0.7566  0.6198
 4639TIP3    H135476   4.625   3.033   7.744 -0.8341 -0.7926  0.6561
 4639TIP3    H235477   4.530   2.970   7.644  0.5778 -2.7783  0.5142
 4640TIP3   OH235478   0.644   5.614   2.600  0.1507  0.2268 -0.5464
 4640TIP3    H135479   0.669   5.521   2.602  0.4746  0.3151 -0.3746
 4640TIP3    H235480   0.716   5.659   2.644 -0.2527  0.5076 -0.1609
 4641TIP3   OH235481   4.200   6.454   7.279 -0.0777  0.2063  0.0313
 4641TIP3    H135482   4.224   6.370   7.241  0.2668  1.3507 -2.4868
 4641TIP3    H235483   4.278   6.481   7.329 -0.5843 -1.3895  1.7778
 4642TIP3   OH235484   6.827   2.467   2.336  0.4371  0.0203  0.3412
 4642TIP3    H135485   6.914   2.489   2.370  0.8367  2.5976 -2.0312
 4642TIP3    H235486   6.845   2.417   2.256  0.0710  3.5466 -2.1850
 4643TIP3   OH235487   1.497   5.431   3.185 -0.0641 -0.3057 -0.4122
 4643TIP3    H135488   1.495   5.486   3.107 -1.9495 -1.5736 -1.3527
 4643TIP3    H235489   1.418   5.454   3.233 -0.3192 -1.3968 -0.2771
 4644TIP3   OH235490   4.764   0.923   8.324  0.0182 -0.2225 -0.1024
 4644TIP3    H135491   4.677   0.901   8.359 -0.4020 -2.4636 -2.3391
 4644TIP3    H235492   4.825   0.878   8.382 -0.5353 -1.7459 -0.6601
 4645TIP3   OH235493   1.905   2.628   7.590 -0.4682 -0.0070 -0.3090
 4645TIP3    H135494   1.913   2.710   7.640  0.2251  0.3812 -1.0333
 4645TIP3    H235495   1.923   2.559   7.655 -0.1137  0.4624  0.1030
 4646TIP3   OH235496   4.666   1.906   7.531 -0.4375 -0.6151  0.1828
 4646TIP3    H135497   4.671   1.866   7.444 -1.5759  1.0397 -0.6992
 4646TIP3    H235498   4.739   1.967   7.534 -0.2239 -0.8809  0.5204
 4647TIP3   OH235499   1.001   1.788   1.521  0.2620  0.3556 -0.1730
 4647TIP3    H135500   0.915   1.753   1.548 -0.3514  1.2527 -0.9027
 4647TIP3    H235501   0.981   1.849   1.451  1.5505  0.3292 -0.5900
 4648TIP3   OH235502   2.998   1.404   1.375  0.2383 -0.3002 -0.0035
 4648TIP3    H135503   2.934   1.448   1.430  0.5551 -0.1945  0.2806
 4648TIP3    H235504   2.989   1.446   1.290 -1.0232 -1.1985 -0.3577
 4649TIP3   OH235505   5.491   0.852   2.168 -0.7536 -0.0006 -0.1992
 4649TIP3    H135506   5.410   0.839   2.118 -0.3844 -1.4224 -0.4450
 4649TIP3    H235507   5.561   0.825   2.109 -0.1643  0.2135  0.3922
 4650TIP3   OH235508   5.042   5.423   2.529 -0.3454  0.3215 -0.0221
 4650TIP3    H135509   4.976   5.355   2.516 -0.0634 -0.0945  0.6944
 4650TIP3    H235510   5.029   5.453   2.618  0.1452  0.5496 -0.0218
 4651TIP3   OH235511   2.504   6.565   0.577 -0.5427 -0.0715  0.3350
 4651TIP3    H135512   2.420   6.538   0.539 -0.9477  1.7911 -0.1890
 4651TIP3    H235513   2.481   6.630   0.643  0.4281 -0.3938  1.0163
 4652TIP3   OH235514   1.032   5.560   1.021  0.2435 -0.1158 -0.1616
 4652TIP3    H135515   1.077   5.644   1.024  1.6700 -0.8715  1.8018
 4652TIP3    H235516   1.072   5.509   1.091 -3.4216 -1.0039  1.5210
 4653TIP3   OH235517   0.323   1.843   8.227  0.2609 -0.3936 -0.1635
 4653TIP3    H135518   0.417   1.825   8.216  0.4046  0.2327 -0.0451
 4653TIP3    H235519   0.279   1.762   8.200  0.8036 -0.4477 -0.9219
 4654TIP3   OH235520   3.865   1.313   1.223 -0.9191 -0.2058  0.1124
 4654TIP3    H135521   3.932   1.262   1.178 -0.7426 -0.7943  1.0181
 4654TIP3    H235522   3.808   1.346   1.153  0.6215  0.7909 -0.7383
 4655TIP3   OH235523   5.810   5.105   8.149 -0.1031  0.3774 -0.5970
 4655TIP3    H135524   5.852   5.181   8.190  0.4898 -0.6344  0.7383
 4655TIP3    H235525   5.830   5.115   8.056  1.7682  0.7718 -0.1918
 4656TIP3   OH235526   4.329   0.484   7.492 -0.6194 -0.0608 -0.7934
 4656TIP3    H135527   4.370   0.438   7.419  1.8727 -1.4114  1.2861
 4656TIP3    H235528   4.317   0.416   7.559 -1.5172  1.3937  0.5880
 4657TIP3   OH235529   6.756   1.913   2.160  0.5125 -0.0020  0.2869
 4657TIP3    H135530   6.842   1.932   2.198  0.4514  0.6511  0.1184
 4657TIP3    H235531   6.695   1.925   2.232  0.4038  1.1678  0.0185
 4658TIP3   OH235532   0.249   2.243   1.407 -0.1602  0.3938 -0.0339
 4658TIP3    H135533   0.209   2.164   1.443  1.2555  0.5501  2.0339
 4658TIP3    H235534   0.247   2.229   1.312 -0.5019 -1.8493  0.2489
 4659TIP3   OH235535   3.733   5.958   0.442 -0.2121  0.2334  0.0269
 4659TIP3    H135536   3.762   6.048   0.455 -1.2303  0.3216  2.0169
 4659TIP3    H235537   3.702   5.930   0.528 -1.2962 -1.5302 -0.8772
 4660TIP3   OH235538   2.192   1.010   7.406  0.4034 -0.3011 -0.3481
 4660TIP3    H135539   2.112   1.063   7.397 -0.8339 -1.9084  0.7265
 4660TIP3    H235540   2.210   0.979   7.318  1.2100  1.8791 -1.0350
 4661TIP3   OH235541   2.891   0.200   0.916  0.0851 -0.4088  0.2829
 4661TIP3    H135542   2.920   0.165   1.001  1.5818 -0.7102 -0.3232
 4661TIP3    H235543   2.972   0.218   0.869 -0.5264  3.6343  0.4164
 4662TIP3   OH235544   4.171   6.384   0.670 -0.1015  0.6638  0.2181
 4662TIP3    H135545   4.218   6.313   0.714  1.0709 -0.6107 -2.8005
 4662TIP3    H235546   4.239   6.448   0.648 -0.7407  1.5078  0.6471
 4663TIP3   OH235547   3.661   6.514   0.588 -0.1836  0.4707 -0.6251
 4663TIP3    H135548   3.628   6.443   0.643  0.1015  0.3814 -0.5707
 4663TIP3    H235549   3.754   6.496   0.578  0.3274  1.8443  0.9653
 4664TIP3   OH235550   2.675   4.395   0.319  0.4774 -0.5408  0.0122
 4664TIP3    H135551   2.764   4.423   0.343  1.3542 -3.8304  1.1261
 4664TIP3    H235552   2.673   4.402   0.224  1.1623  1.5431  0.1054
 4665TIP3   OH235553   6.489   4.445   7.879 -0.6042  0.8324 -0.1702
 4665TIP3    H135554   6.437   4.496   7.941  1.4049  1.7951  0.7986
 4665TIP3    H235555   6.474   4.488   7.794 -0.8221  1.5179  0.2095
 4666TIP3   OH235556   2.387   5.600   7.180 -0.2307 -0.3921  0.2254
 4666TIP3    H135557   2.431   5.601   7.095  1.1714 -0.6482  0.9131
 4666TIP3    H235558   2.402   5.511   7.213 -1.6529 -0.6260  0.3249
 4667TIP3   OH235559   3.818   0.067   2.158  0.2400  0.2249  0.3734
 4667TIP3    H135560   3.910   0.040   2.151  0.2291  0.2692  0.0154
 4667TIP3    H235561   3.778   0.033   2.078  0.2601  1.4528 -0.1669
 4668TIP3   OH235562   6.298   3.649   8.235  0.1277  0.0943  0.0676
 4668TIP3    H135563   6.385   3.615   8.213 -0.0964 -0.8734  0.6516
 4668TIP3    H235564   6.262   3.586   8.298 -0.7309  0.8428  0.3465
 4669TIP3   OH235565   4.776   0.756   7.697 -0.2031 -0.1829 -0.1444
 4669TIP3    H135566   4.683   0.741   7.711 -0.1145  0.0436  0.7446
 4669TIP3    H235567   4.794   0.719   7.610 -1.8007  2.7302 -1.8833
 4670TIP3   OH235568   0.758   3.955   7.876  0.0611  0.2952 -0.2857
 4670TIP3    H135569   0.700   3.880   7.891 -1.2756  1.1459 -0.9962
 4670TIP3    H235570   0.728   4.022   7.937  0.9948  0.3952  0.0804
 4671TIP3   OH235571   1.507   2.965   2.781  0.0224  0.0447 -0.3592
 4671TIP3    H135572   1.449   3.042   2.785 -0.9923 -0.6703 -0.8099
 4671TIP3    H235573   1.590   2.999   2.748 -0.7301  0.7735 -1.5657
 4672TIP3   OH235574   0.695   3.634   8.297 -0.2359  0.1348  0.2037
 4672TIP3    H135575   0.712   3.722   8.264  0.5334 -0.3925 -0.8763
 4672TIP3    H235576   0.759   3.622   8.368 -1.6284  1.1245  1.6979
 4673TIP3   OH235577   4.110   4.377   0.621  0.5632  0.3670  0.0850
 4673TIP3    H135578   4.183   4.409   0.674  1.3527  0.4394 -1.0192
 4673TIP3    H235579   4.132   4.402   0.532 -0.8904  0.5162 -0.2607
 4674TIP3   OH235580   2.264   2.642   0.686 -0.3015  0.5123  0.2962
 4674TIP3    H135581   2.320   2.699   0.739  0.1783  0.5621 -0.2626
 4674TIP3    H235582   2.319   2.567   0.665 -0.4087  0.6103 -0.3454
 4675TIP3   OH235583   2.184   3.836   2.359  0.3160 -0.4069  0.2697
 4675TIP3    H135584   2.095   3.871   2.360 -0.5731 -2.4852  0.5100
 4675TIP3    H235585   2.219   3.862   2.275 -1.0316 -0.6809 -0.4081
 4676TIP3   OH235586   5.910   1.363   7.741  0.7129  0.2202 -0.1745
 4676TIP3    H135587   5.843   1.399   7.799  0.9069 -1.1435  0.9773
 4676TIP3    H235588   5.876   1.376   7.653 -0.8740 -0.0342  0.3654
 4677TIP3   OH235589   2.051   5.908   7.641  0.5370 -0.0462 -0.1569
 4677TIP3    H135590   2.066   5.985   7.586 -0.3447  0.8902  0.8610
 4677TIP3    H235591   2.050   5.943   7.730  0.0885 -1.2379  0.3193
 4678TIP3   OH235592   4.528   5.797   1.595  0.3958  0.1391  0.0798
 4678TIP3    H135593   4.503   5.789   1.687  1.0481 -1.6141  0.1553
 4678TIP3    H235594   4.567   5.884   1.588  1.2627 -0.0673  1.7261
 4679TIP3   OH235595   2.914   1.180   0.921  0.0704  0.1615 -0.4881
 4679TIP3    H135596   2.889   1.089   0.939  0.6854  0.0875  0.0180
 4679TIP3    H235597   2.873   1.230   0.991  1.0361  0.0786  0.1555
 4680TIP3   OH235598   2.269   5.296   1.465  0.0714 -0.2514  0.1433
 4680TIP3    H135599   2.332   5.360   1.432 -1.7292  2.0462  0.8887
 4680TIP3    H235600   2.309   5.262   1.544  1.2588 -0.4153 -0.5044
 4681TIP3   OH235601   1.536   4.503   6.880  0.6599  0.3720 -0.1007
 4681TIP3    H135602   1.564   4.419   6.918  1.5198  0.6311 -0.1432
 4681TIP3    H235603   1.458   4.527   6.930 -0.5615 -1.2256 -1.1259
 4682TIP3   OH235604   3.329   0.934   1.188 -0.3993 -1.0677 -0.0302
 4682TIP3    H135605   3.271   1.011   1.192  0.4428 -0.2811 -1.7811
 4682TIP3    H235606   3.306   0.891   1.105  0.9529 -1.1716 -0.3760
 4683TIP3   OH235607   3.412   1.796   0.782  0.2680  0.1309 -0.0844
 4683TIP3    H135608   3.404   1.866   0.848 -1.0295 -0.3480  0.3164
 4683TIP3    H235609   3.322   1.765   0.770  0.4373  0.3488 -2.2776
 4684TIP3   OH235610   6.006   2.443   1.075 -0.1422  0.1583 -0.2089
 4684TIP3    H135611   5.921   2.409   1.047  1.0231 -1.6143 -1.8742
 4684TIP3    H235612   6.063   2.431   0.999  1.5699  1.4686  0.7936
 4685TIP3   OH235613   2.503   4.286   6.339 -0.2904  0.0149  0.2497
 4685TIP3    H135614   2.435   4.231   6.302 -0.5010  0.3085  0.1931
 4685TIP3    H235615   2.496   4.272   6.434 -1.4530  1.1937  0.3697
 4686TIP3   OH235616   4.354   1.443   1.535 -0.6554 -0.6730 -0.3800
 4686TIP3    H135617   4.314   1.374   1.481 -2.4203 -0.5107  0.6571
 4686TIP3    H235618   4.291   1.515   1.533 -0.2141 -0.2276  0.9620
 4687TIP3   OH235619   5.521   0.934   0.991  0.0306  0.1667 -0.3027
 4687TIP3    H135620   5.536   0.879   1.067  1.3829 -0.5882 -1.0887
 4687TIP3    H235621   5.562   0.888   0.918 -2.6859  0.0042 -1.8853
 4688TIP3   OH235622   4.332   4.410   0.030  0.3285  0.5915  0.5446
 4688TIP3    H135623   4.296   4.342  -0.027  0.0263 -0.0719  1.5051
 4688TIP3    H235624   4.374   4.362   0.101 -2.0176  1.3276  2.5863
 4689TIP3   OH235625   1.346   2.326   2.311  0.1746  0.0242  0.2386
 4689TIP3    H135626   1.259   2.286   2.301  0.2021 -0.0661  0.3723
 4689TIP3    H235627   1.341   2.405   2.256  0.7402 -1.1090 -1.5051
 4690TIP3   OH235628   1.291   4.989   1.584 -0.0647 -0.3779 -0.5283
 4690TIP3    H135629   1.339   5.072   1.590 -0.0037 -0.4863  0.7029
 4690TIP3    H235630   1.230   5.002   1.511  0.1402  0.6458 -0.5378
 4691TIP3   OH235631   6.029   5.609   8.575 -0.6671  0.0611 -0.3391
 4691TIP3    H135632   5.934   5.601   8.561 -0.5374 -0.6351 -0.8681
 4691TIP3    H235633   6.039   5.688   8.628 -1.7662 -1.4101  2.2542
 4692TIP3   OH235634   1.094   2.993   1.496 -0.2260  0.1936 -0.4721
 4692TIP3    H135635   1.135   2.942   1.566 -0.6570 -1.2633 -1.2339
 4692TIP3    H235636   1.077   3.078   1.535  2.0186  0.3236  0.3617
 4693TIP3   OH235637   3.221   4.173   6.964 -0.7256  0.3801  0.1979
 4693TIP3    H135638   3.144   4.118   6.949 -1.1122  0.7821  0.6488
 4693TIP3    H235639   3.191   4.262   6.943  0.3981  0.2561 -2.3029
 4694TIP3   OH235640   0.143   1.930   2.581 -0.5363  0.1066 -0.6286
 4694TIP3    H135641   0.073   1.864   2.581 -0.9461  0.5200 -1.4641
 4694TIP3    H235642   0.102   2.008   2.544  0.1674  0.5912 -0.4070
 4695TIP3   OH235643   0.883   0.643   1.104  0.7288 -0.2631  0.0721
 4695TIP3    H135644   0.840   0.675   1.025 -0.6948 -0.3016  0.7910
 4695TIP3    H235645   0.824   0.574   1.136  0.4877  0.7592  1.9559
 4696TIP3   OH235646   0.857   2.458   7.018 -0.7889  0.2344  0.3501
 4696TIP3    H135647   0.867   2.490   7.108 -0.7061 -0.7353  0.7013
 4696TIP3    H235648   0.862   2.537   6.964  0.5007  0.6951  1.0986
 4697TIP3   OH235649   2.407   2.547   1.940 -0.6992 -0.2750  0.5731
 4697TIP3    H135650   2.348   2.505   1.877  1.0367 -0.5404 -0.9613
 4697TIP3    H235651   2.404   2.489   2.017 -0.4453 -1.7527 -0.4775
 4698TIP3   OH235652   1.019   3.257   1.297 -0.2047  0.0800 -0.2050
 4698TIP3    H135653   0.975   3.342   1.294 -1.1008 -0.3608 -0.0885
 4698TIP3    H235654   0.966   3.206   1.358  0.1747 -0.6454 -0.4745
 4699TIP3   OH235655   2.192   4.388   2.664  0.2394  0.4001 -0.2076
 4699TIP3    H135656   2.271   4.396   2.717 -0.3125  1.2387  0.5131
 4699TIP3    H235657   2.128   4.443   2.708 -1.0770 -1.0961 -0.1673
 4700TIP3   OH235658   6.289   2.254   8.234  0.1438  0.4107 -0.2669
 4700TIP3    H135659   6.232   2.297   8.298  1.1092  1.8578 -0.3316
 4700TIP3    H235660   6.251   2.167   8.222 -1.1472  0.7968  0.8368
 4701TIP3   OH235661   2.268   6.768   8.505  0.0167  0.3805 -0.7619
 4701TIP3    H135662   2.328   6.821   8.452 -2.7551  1.5107 -3.0300
 4701TIP3    H235663   2.187   6.765   8.454 -1.8385 -1.2363  2.0143
 4702TIP3   OH235664   0.061   1.851   1.944  0.0518 -0.2391  0.3239
 4702TIP3    H135665   0.017   1.813   1.868  1.1571  0.5844 -0.7767
 4702TIP3    H235666  -0.008   1.897   1.992 -0.5216 -0.0306 -0.6778
 4703TIP3   OH235667   5.106   5.336   2.103 -0.9113 -0.5202 -0.2818
 4703TIP3    H135668   5.028   5.292   2.069 -2.2208  0.5392  1.2167
 4703TIP3    H235669   5.153   5.267   2.150 -1.5576 -0.9144 -0.1949
 4704TIP3   OH235670   4.473   3.093   8.395 -0.3364  0.0791  0.3122
 4704TIP3    H135671   4.445   3.180   8.367  0.3711  0.2905  0.2389
 4704TIP3    H235672   4.395   3.053   8.433 -0.3827  1.1981  1.4659
 4705TIP3   OH235673   0.965   0.333   7.848 -0.0580  0.4236  0.0624
 4705TIP3    H135674   0.894   0.344   7.784  0.7285  2.3278 -0.5434
 4705TIP3    H235675   0.983   0.422   7.879  2.0500 -0.0189  0.2063
 4706TIP3   OH235676   4.501   0.359   0.779  0.0880 -0.7819  0.1732
 4706TIP3    H135677   4.573   0.297   0.790  0.6112  0.0376  1.5539
 4706TIP3    H235678   4.454   0.356   0.862 -0.8786 -0.5468 -0.3476
 4707TIP3   OH235679   6.779   6.232   7.141  0.5512  0.3966 -0.2818
 4707TIP3    H135680   6.788   6.155   7.197  1.9057  0.8551  0.1670
 4707TIP3    H235681   6.858   6.283   7.157 -1.1622  2.8856  0.8993
 4708TIP3   OH235682   6.506   6.153   0.951 -0.1638 -0.3646 -0.0654
 4708TIP3    H135683   6.567   6.163   1.025  1.0143  1.8916 -1.2216
 4708TIP3    H235684   6.546   6.205   0.881 -1.7286 -1.6554 -2.0010
 4709TIP3   OH235685   4.755   4.273   0.306  0.3290  0.3947  0.0329
 4709TIP3    H135686   4.791   4.243   0.390 -0.7604 -1.0035  0.0365
 4709TIP3    H235687   4.712   4.196   0.269  0.8836  0.9524 -1.8927
 4710TIP3   OH235688   3.469   2.376   0.615 -0.1827  0.0258 -0.1742
 4710TIP3    H135689   3.410   2.323   0.562 -1.1596 -0.1768  1.0477
 4710TIP3    H235690   3.429   2.375   0.702  0.9878  0.9135  0.3976
 4711TIP3   OH235691   3.899   2.935   6.947 -0.1822  0.5395  0.2122
 4711TIP3    H135692   3.838   2.994   6.992 -0.8912 -0.0979  0.1085
 4711TIP3    H235693   3.952   2.993   6.892  1.5144  1.5040  2.6999
 4712TIP3   OH235694   0.054   1.953   7.818 -0.2883  0.1651 -0.0178
 4712TIP3    H135695   0.122   1.989   7.760  1.2558  1.9102  2.6662
 4712TIP3    H235696   0.079   1.862   7.830 -0.3563 -0.1028 -1.6162
 4713TIP3   OH235697   5.998   2.842   0.415  0.1051  0.0616 -0.5590
 4713TIP3    H135698   6.013   2.927   0.374 -0.0046 -0.2941 -1.3632
 4713TIP3    H235699   6.074   2.830   0.472  0.3254  0.5236 -0.7459
 4714TIP3   OH235700   1.801   2.181   2.937 -0.0354 -0.1837  0.3529
 4714TIP3    H135701   1.745   2.198   3.013 -3.3292  0.0662 -1.8838
 4714TIP3    H235702   1.815   2.268   2.899  0.7357 -0.4035  0.1242
 4715TIP3   OH235703   6.035   4.407   0.881  0.2113  0.8898  0.1879
 4715TIP3    H135704   6.077   4.363   0.807  0.3220  2.6028 -0.8154
 4715TIP3    H235705   5.993   4.336   0.930  1.2924 -0.4482 -0.7367
 4716TIP3   OH235706   5.873   2.750   0.753  1.0021  0.6126  0.2113
 4716TIP3    H135707   5.884   2.673   0.698 -2.9318 -1.5929  2.0407
 4716TIP3    H235708   5.961   2.771   0.784  2.3865 -2.4912 -1.2336
 4717TIP3   OH235709   0.528   0.110   2.722 -0.4884 -0.6452 -0.0153
 4717TIP3    H135710   0.456   0.146   2.670 -1.1231  2.0913  2.5346
 4717TIP3    H235711   0.491   0.097   2.809  2.1896  1.6346  1.6299
 4718TIP3   OH235712   2.022   4.412   1.341 -0.8338  0.5843  0.1138
 4718TIP3    H135713   1.951   4.433   1.402  1.3008  0.3915  2.8645
 4718TIP3    H235714   2.000   4.325   1.307 -1.7187  0.3561  1.2213
 4719TIP3   OH235715   1.810   1.251   3.233 -0.5127  0.0808  0.0016
 4719TIP3    H135716   1.871   1.273   3.163 -0.7396 -2.3125 -1.0777
 4719TIP3    H235717   1.843   1.169   3.269 -1.1362  0.5974  1.8437
 4720TIP3   OH235718   4.441   3.318   1.621 -0.6032 -0.1326 -0.0941
 4720TIP3    H135719   4.514   3.375   1.597 -0.3412 -1.1038 -1.6847
 4720TIP3    H235720   4.371   3.379   1.646  0.1390  0.8405 -0.3217
 4721TIP3   OH235721   5.667   1.471   7.532 -0.0264 -0.7491  0.1108
 4721TIP3    H135722   5.587   1.419   7.533 -0.0557 -0.7228 -0.6811
 4721TIP3    H235723   5.659   1.528   7.608 -1.5326  0.4183 -0.8699
 4722TIP3   OH235724   6.114   6.584   0.811 -0.3562 -0.6414 -0.0244
 4722TIP3    H135725   6.071   6.532   0.878  0.9993 -1.9424 -0.1256
 4722TIP3    H235726   6.188   6.531   0.783  1.3040  1.4729  0.1097
 4723TIP3   OH235727   5.028   2.634   1.479 -0.2684  0.2918  0.0462
 4723TIP3    H135728   4.955   2.601   1.427 -0.4691  1.9175 -0.7608
 4723TIP3    H235729   5.088   2.672   1.416 -0.6039  2.4879  0.9776
 4724TIP3   OH235730   2.489   6.468   0.873  0.4170 -0.2182 -0.4265
 4724TIP3    H135731   2.430   6.404   0.833 -2.0470  1.5641  0.1097
 4724TIP3    H235732   2.441   6.500   0.949  1.3972  2.4248 -0.8224
 4725TIP3   OH235733   5.471   3.789   7.774 -0.2532 -0.3981 -0.3947
 4725TIP3    H135734   5.442   3.728   7.706  0.3747  0.3760 -1.3786
 4725TIP3    H235735   5.475   3.874   7.730 -0.6684  0.2896  0.8306
 4726TIP3   OH235736   5.380   2.132   0.759  0.3534 -0.5187  0.8030
 4726TIP3    H135737   5.334   2.048   0.763  0.4847 -0.7749 -1.6861
 4726TIP3    H235738   5.312   2.197   0.779 -0.1535 -1.1145  1.0554
 4727TIP3   OH235739   1.638   1.134   0.293  0.2111 -0.0146  0.2775
 4727TIP3    H135740   1.712   1.186   0.325 -0.1652  0.6680  0.0672
 4727TIP3    H235741   1.586   1.196   0.241 -0.8519 -0.3080  0.9554
 4728TIP3   OH235742   1.037   2.126   0.200 -0.2801 -0.0720 -0.0469
 4728TIP3    H135743   1.056   2.035   0.220  0.8036  0.1573  0.0520
 4728TIP3    H235744   0.995   2.124   0.114  1.2476 -0.5505 -0.8032
 4729TIP3   OH235745   0.269   6.633   2.131 -0.3027  0.6063 -0.1005
 4729TIP3    H135746   0.207   6.677   2.189 -1.0381  1.0142 -1.1584
 4729TIP3    H235747   0.336   6.699   2.113  0.0879  0.3829  0.5077
 4730TIP3   OH235748   0.332   1.946   1.777  0.0241  0.3567  0.8896
 4730TIP3    H135749   0.338   1.931   1.682 -3.2629  1.1041  0.4223
 4730TIP3    H235750   0.419   1.925   1.810  1.3062  0.0316 -2.2795
 4731TIP3   OH235751   2.589   3.722   8.353  0.0987  0.2353  0.5396
 4731TIP3    H135752   2.585   3.715   8.258 -3.1370 -0.0740  0.6024
 4731TIP3    H235753   2.573   3.633   8.385 -1.3925  0.7462  1.3254
 4732TIP3   OH235754   4.788   4.877   7.684  0.0657  0.0343 -0.1038
 4732TIP3    H135755   4.871   4.858   7.639 -0.3392  1.6107 -1.6088
 4732TIP3    H235756   4.791   4.971   7.701 -1.1930  0.0102  0.2890
 4733TIP3   OH235757   4.774   3.965   2.033 -0.4821 -0.0371 -0.3864
 4733TIP3    H135758   4.721   3.950   2.111 -0.8665  0.9030 -0.4531
 4733TIP3    H235759   4.801   4.056   2.040  0.8708 -0.4113 -0.5185
 4734TIP3   OH235760   0.243   1.685   0.327 -0.1678 -0.5338 -0.0335
 4734TIP3    H135761   0.237   1.674   0.422  0.1729 -0.3714  0.0075
 4734TIP3    H235762   0.235   1.780   0.314 -2.2615 -0.7067 -0.3216
 4735TIP3   OH235763   1.411   2.840   1.296  0.0878  0.2265  0.4530
 4735TIP3    H135764   1.403   2.785   1.218  2.2202  0.2532  0.1752
 4735TIP3    H235765   1.343   2.906   1.286  1.1196  1.0134 -2.0626
 4736TIP3   OH235766   0.146   3.627   7.427  0.0660 -0.2783 -0.3065
 4736TIP3    H135767   0.161   3.707   7.477  2.4865 -1.1662  0.5086
 4736TIP3    H235768   0.052   3.610   7.437 -0.1147  1.3102  1.2150
 4737TIP3   OH235769   2.043   2.568   8.129  0.2003 -0.1283  0.1149
 4737TIP3    H135770   1.973   2.511   8.161  1.9934 -2.8361 -0.3786
 4737TIP3    H235771   2.060   2.628   8.202 -2.5488  0.6186  0.2413
 4738TIP3   OH235772   2.561   2.917   2.034  0.4264 -0.5738  0.8171
 4738TIP3    H135773   2.593   2.827   2.042  1.2365 -0.2403  1.3594
 4738TIP3    H235774   2.500   2.927   2.107  0.5499 -0.5947  0.9235
 4739TIP3   OH235775   4.239   3.460   1.257 -0.3489  0.5397 -0.1142
 4739TIP3    H135776   4.176   3.529   1.276 -0.1845  0.4075  1.0099
 4739TIP3    H235777   4.234   3.447   1.163 -1.6316  0.8790 -0.1037
 4740TIP3   OH235778   3.083   4.121   8.622  0.2104  0.2994  0.4358
 4740TIP3    H135779   3.006   4.088   8.668  0.3624  0.9058  1.1526
 4740TIP3    H235780   3.138   4.157   8.692  2.0631 -1.8725  0.2057
 4741TIP3   OH235781   5.825   5.481   8.269  0.0279  0.1134  0.5846
 4741TIP3    H135782   5.768   5.477   8.346  1.5466 -0.8997  1.6986
 4741TIP3    H235783   5.786   5.549   8.214 -1.4122  0.4615  1.9715
 4742TIP3   OH235784   1.594   0.854   1.775  0.5802 -0.2426 -0.3574
 4742TIP3    H135785   1.613   0.769   1.813  0.0649 -0.2966 -0.2120
 4742TIP3    H235786   1.578   0.836   1.682 -1.8632 -0.6711  0.0884
 4743TIP3   OH235787   6.465   1.585   7.713  0.1441  0.0657 -0.4975
 4743TIP3    H135788   6.377   1.620   7.694 -0.1367 -0.3980 -0.0723
 4743TIP3    H235789   6.451   1.522   7.784  0.6950 -0.6683 -1.0234
 4744TIP3   OH235790   3.266   5.452   7.858  0.2210  0.3107  0.0850
 4744TIP3    H135791   3.352   5.440   7.897  0.2574 -0.1418 -0.1313
 4744TIP3    H235792   3.236   5.364   7.837 -0.6642  0.3970  0.9365
 4745TIP3   OH235793   3.462   1.300   0.264  0.1134  0.1938 -0.6407
 4745TIP3    H135794   3.492   1.358   0.334  1.1905  0.3092 -1.1730
 4745TIP3    H235795   3.368   1.290   0.279 -0.1032  2.0840 -0.5170
 4746TIP3   OH235796   5.557   3.191   1.112  0.1094  0.3009  0.0976
 4746TIP3    H135797   5.513   3.246   1.047  0.1628 -1.0525 -1.1375
 4746TIP3    H235798   5.614   3.252   1.161 -1.7576  1.7699  0.5484
 4747TIP3   OH235799   3.747   5.818   7.647  0.0807 -0.1153  0.0244
 4747TIP3    H135800   3.805   5.746   7.624  1.6391  0.8286  0.8514
 4747TIP3    H235801   3.722   5.856   7.563  0.1301 -0.9157 -0.3691
 4748TIP3   OH235802   6.855   4.278   0.282  0.4294  0.0263  0.2974
 4748TIP3    H135803   6.833   4.186   0.267 -1.6083  0.7165 -1.5423
 4748TIP3    H235804   6.853   4.318   0.195  2.5766  1.6104  0.8701
 4749TIP3   OH235805   1.374   3.787   8.631 -0.0656 -0.0874 -0.0729
 4749TIP3    H135806   1.349   3.705   8.674 -1.8072  0.0866 -0.6478
 4749TIP3    H235807   1.442   3.824   8.687 -1.9743 -0.0264  2.4063
 4750TIP3   OH235808   1.860   5.516   0.985  0.3055  0.0815  0.0784
 4750TIP3    H135809   1.946   5.557   0.987  0.2337  0.2137  0.7613
 4750TIP3    H235810   1.871   5.438   0.930  1.1190 -0.4711  0.9999
 4751TIP3   OH235811   2.559   5.829   1.422  0.3208  0.0007 -0.3128
 4751TIP3    H135812   2.477   5.867   1.391  1.1431  1.2796 -0.9796
 4751TIP3    H235813   2.612   5.818   1.343  1.8221  1.7881  0.3663
 4752TIP3   OH235814   6.738   3.562   1.162  0.0683  0.4814  0.0247
 4752TIP3    H135815   6.656   3.610   1.147  0.7852  1.6577 -0.1995
 4752TIP3    H235816   6.713   3.492   1.223 -0.7741  1.8521  1.3176
 4753TIP3   OH235817   6.136   5.296   1.113 -0.0465 -0.2072 -0.3906
 4753TIP3    H135818   6.147   5.271   1.021 -0.8268 -1.1115 -0.2537
 4753TIP3    H235819   6.221   5.333   1.139  0.7155 -1.4837 -0.9944
 4754TIP3   OH235820   2.661   6.084   1.893 -0.1280 -0.3259  0.3229
 4754TIP3    H135821   2.754   6.081   1.872  0.1052 -0.4816  1.3490
 4754TIP3    H235822   2.657   6.102   1.987 -1.1377 -0.0401  0.2418
 4755TIP3   OH235823   0.739   6.001   0.747  0.6898  0.1038 -0.5150
 4755TIP3    H135824   0.754   5.908   0.732  0.3368 -0.3531  1.5881
 4755TIP3    H235825   0.677   6.027   0.679  1.3839 -0.9969 -1.6038
 4756TIP3   OH235826   6.762   2.802   1.981  0.0246 -0.3728  0.7658
 4756TIP3    H135827   6.667   2.815   1.976  0.0316 -0.0117  1.4922
 4756TIP3    H235828   6.777   2.718   1.937 -0.5952 -0.2909  0.3903
 4757TIP3   OH235829   4.926   4.694   0.166 -0.0091  0.1149 -0.2978
 4757TIP3    H135830   4.884   4.625   0.114  1.6107 -0.8170 -0.4369
 4757TIP3    H235831   4.861   4.718   0.231 -0.1215 -2.6228  0.7172
 4758TIP3   OH235832   1.704   4.246   0.000  0.2354  0.6640  0.0131
 4758TIP3    H135833   1.689   4.168  -0.053 -0.2580  1.2815 -0.7660
 4758TIP3    H235834   1.783   4.225   0.051  0.4973 -0.0851 -0.6768
 4759TIP3   OH235835   0.873   2.417   1.552  0.2192  0.0079 -0.4368
 4759TIP3    H135836   0.860   2.512   1.548 -2.0791  0.0484  3.0718
 4759TIP3    H235837   0.947   2.406   1.611 -0.0778 -0.3398 -0.1221
 4760TIP3   OH235838   0.978   2.687   2.572 -0.3895  0.7416  0.3842
 4760TIP3    H135839   0.919   2.761   2.584 -0.6172  0.2156  3.2586
 4760TIP3    H235840   0.965   2.633   2.650  2.1825 -0.6140 -0.0108
 4761TIP3   OH235841   6.093   4.885   8.674  0.1245  0.4468 -0.3697
 4761TIP3    H135842   6.040   4.931   8.609 -3.4498  0.6105  2.3513
 4761TIP3    H235843   6.131   4.955   8.727  1.2537  0.2991 -0.9714
 4762TIP3   OH235844   0.622   6.460   1.073 -0.0099  0.2362 -0.4341
 4762TIP3    H135845   0.697   6.483   1.126  0.1432  0.0305 -0.5601
 4762TIP3    H235846   0.556   6.428   1.135  0.1178  0.1278 -0.3555
 4763TIP3   OH235847   1.790   0.658   7.009  0.2725  0.2463  0.1129
 4763TIP3    H135848   1.825   0.570   6.991 -2.6381 -0.5541 -2.6105
 4763TIP3    H235849   1.844   0.717   6.957  1.5380 -0.0101  1.0747
 4764TIP3   OH235850   0.969   0.940   0.195  0.2672 -0.2301 -0.2062
 4764TIP3    H135851   0.893   0.959   0.250  0.3881  0.0285 -0.1306
 4764TIP3    H235852   1.043   0.978   0.242  0.4930 -0.7845 -0.1089
 4765TIP3   OH235853   4.972   2.867   1.181 -0.0747 -0.2784  0.8998
 4765TIP3    H135854   4.925   2.941   1.219 -0.3853  0.2189 -0.3825
 4765TIP3    H235855   5.062   2.899   1.170 -0.1974 -0.0951  0.3921
 4766TIP3   OH235856   5.905   6.255   0.847 -0.7340 -0.1975  0.3002
 4766TIP3    H135857   5.961   6.182   0.820  1.7466  1.2022  1.2966
 4766TIP3    H235858   5.872   6.291   0.765  1.1164 -0.1712 -0.4955
 4767TIP3   OH235859   5.765   1.723   0.206 -0.4743 -0.1052  0.2694
 4767TIP3    H135860   5.787   1.670   0.283  0.1695 -0.3940 -0.1087
 4767TIP3    H235861   5.773   1.663   0.132  0.8855  0.6637 -0.2321
 4768TIP3   OH235862   4.302   3.893   2.313  0.6828 -0.1114 -0.3787
 4768TIP3    H135863   4.278   3.858   2.399 -0.2983 -1.0632 -1.0068
 4768TIP3    H235864   4.276   3.824   2.252 -0.4807  1.3499 -1.6023
 4769TIP3   OH235865   1.544   0.194   8.057 -0.1367  0.0727 -0.1771
 4769TIP3    H135866   1.539   0.124   7.992 -1.2566  0.1324 -0.1782
 4769TIP3    H235867   1.474   0.255   8.031 -0.3734  0.2685  0.8815
 4770TIP3   OH235868   0.878   5.382   2.813 -0.4059  0.3137  0.8397
 4770TIP3    H135869   0.969   5.353   2.816 -0.7499 -1.1773 -1.0596
 4770TIP3    H235870   0.876   5.460   2.868  2.0695  0.5457  0.7217
 4771TIP3   OH235871   5.846   5.040   1.475  0.1348 -0.7763 -0.3218
 4771TIP3    H135872   5.928   4.994   1.495  0.3258 -0.3709 -0.1715
 4771TIP3    H235873   5.866   5.132   1.490 -0.5914 -0.7456  0.5467
 4772TIP3   OH235874   6.307   2.853   0.422  0.1713 -0.5113  0.6249
 4772TIP3    H135875   6.342   2.911   0.490 -1.3528  0.3383  0.7334
 4772TIP3    H235876   6.329   2.765   0.451  1.9987 -0.0338  0.7757
 4773TIP3   OH235877   3.226   6.852   7.374 -0.3155  0.0606  0.2648
 4773TIP3    H135878   3.214   6.878   7.283 -1.3848 -0.5173  0.2218
 4773TIP3    H235879   3.223   6.756   7.372 -2.4551  0.0541  1.1393
 4774TIP3   OH235880   6.560   1.158   0.727  0.4070 -0.2922 -0.3643
 4774TIP3    H135881   6.544   1.066   0.747  0.5028 -0.1432  0.4414
 4774TIP3    H235882   6.596   1.194   0.808 -0.2302  0.6043 -0.4718
 4775TIP3   OH235883   1.108   5.067   1.382  0.2566 -0.0416  0.1059
 4775TIP3    H135884   1.076   4.980   1.357  0.3282  0.5892 -2.4916
 4775TIP3    H235885   1.139   5.105   1.300  0.7875  2.2246  1.2820
 4776TIP3   OH235886   1.314   3.261   0.733 -0.0165 -0.0187 -0.1253
 4776TIP3    H135887   1.330   3.176   0.774 -1.2403 -0.1161  0.1881
 4776TIP3    H235888   1.267   3.311   0.800  0.8367  0.9695 -0.2485
 4777TIP3   OH235889   0.839   6.165   2.349  0.2092  0.0057  0.1768
 4777TIP3    H135890   0.824   6.075   2.321 -2.4425  0.5007 -0.2568
 4777TIP3    H235891   0.854   6.159   2.443  0.5935 -0.9215  0.0646
 4778TIP3   OH235892   4.897   4.071   0.878 -0.0674  0.2348 -0.4030
 4778TIP3    H135893   4.987   4.039   0.879  0.0018  0.3754 -1.3674
 4778TIP3    H235894   4.870   4.065   0.786 -0.9497  0.4540 -0.1699
 4779TIP3   OH235895   5.813   4.977   0.704  0.0094  0.1268 -0.5511
 4779TIP3    H135896   5.807   4.892   0.746 -1.3364 -0.1410 -1.2452
 4779TIP3    H235897   5.893   4.972   0.652 -0.3993 -0.9459 -1.0966
 4780TIP3   OH235898   5.960   3.155   7.664 -0.6830 -0.4046  0.5329
 4780TIP3    H135899   5.873   3.124   7.641 -0.8911 -0.3242  1.1907
 4780TIP3    H235900   5.966   3.242   7.624 -0.0414 -1.3027 -1.4458
 4781TIP3   OH235901   4.995   0.935   7.252  0.0753 -0.8960 -0.0663
 4781TIP3    H135902   5.043   0.855   7.230 -0.3570 -1.0455 -0.4963
 4781TIP3    H235903   4.964   0.967   7.168  0.0524 -0.3971  0.1337
 4782TIP3   OH235904   2.603   0.778   8.579 -0.0236 -0.1847 -0.6273
 4782TIP3    H135905   2.542   0.796   8.507 -0.6454 -2.4322 -0.7531
 4782TIP3    H235906   2.579   0.690   8.608  3.3404 -1.2934 -0.8394
 4783TIP3   OH235907   3.895   4.185   1.460  0.5229  0.5421 -0.2905
 4783TIP3    H135908   3.976   4.182   1.409  1.5680 -0.7685  1.3866
 4783TIP3    H235909   3.863   4.275   1.447  2.9275  1.5292  0.0603
 4784TIP3   OH235910   5.042   2.264   6.911 -0.0457  0.2137  0.4082
 4784TIP3    H135911   5.074   2.176   6.888  0.0502  0.3026  0.2017
 4784TIP3    H235912   5.120   2.313   6.935  0.2013  0.8846 -1.5456
 4785TIP3   OH235913   0.202   0.257   0.112  0.0677  0.6038 -0.0346
 4785TIP3    H135914   0.248   0.188   0.065 -1.5937 -0.8264  0.3188
 4785TIP3    H235915   0.263   0.286   0.179  0.1667 -1.9200  1.0667
 4786TIP3   OH235916   2.034   0.680   0.148 -0.5525  0.7173  0.0894
 4786TIP3    H135917   2.106   0.717   0.199  0.9682  0.5694 -1.8119
 4786TIP3    H235918   2.070   0.601   0.108 -2.6077 -0.8113  1.1055
 4787TIP3   OH235919   5.807   1.465   0.280 -0.0142 -0.3086 -0.4881
 4787TIP3    H135920   5.803   1.453   0.375 -0.2619  1.9630 -0.1411
 4787TIP3    H235921   5.781   1.380   0.244 -1.5093 -0.7772  1.4862
 4788TIP3   OH235922   0.391   5.985   3.253  0.4745  0.6168 -0.4489
 4788TIP3    H135923   0.299   6.006   3.236  0.1522 -0.9538 -0.7794
 4788TIP3    H235924   0.432   6.070   3.270 -1.2067  1.2830  0.5691
 4789TIP3   OH235925   2.928   4.108   0.570  0.4218 -0.3467  0.1785
 4789TIP3    H135926   3.012   4.063   0.583  0.5856  0.4645  2.0840
 4789TIP3    H235927   2.951   4.200   0.557 -0.1238 -0.2772 -0.3581
 4790TIP3   OH235928   6.630   3.437   8.459 -0.1821 -0.2210 -0.3724
 4790TIP3    H135929   6.680   3.400   8.532  0.4503 -0.0717 -0.7296
 4790TIP3    H235930   6.542   3.401   8.471  1.0175 -4.3253 -2.3637
 4791TIP3   OH235931   5.029   5.210   7.886  1.1386 -0.0935  0.4654
 4791TIP3    H135932   5.053   5.124   7.919  1.2456 -0.9864 -1.7877
 4791TIP3    H235933   4.940   5.198   7.852 -1.0717  2.0532  4.7216
 4792TIP3   OH235934   3.841   5.570   7.048 -0.3892 -0.0045 -0.2011
 4792TIP3    H135935   3.912   5.613   7.001 -0.2589 -0.3936 -0.3611
 4792TIP3    H235936   3.822   5.628   7.121 -1.2901  1.1316 -1.3006
 4793TIP3   OH235937   3.490   0.187   1.942 -0.3607  0.5700  0.2391
 4793TIP3    H135938   3.411   0.138   1.919 -0.1344  1.3906 -2.5850
 4793TIP3    H235939   3.558   0.120   1.949 -0.8031  0.1097  0.2262
 4794TIP3   OH235940   6.019   3.097   0.305 -0.1349 -0.0313 -0.1177
 4794TIP3    H135941   5.932   3.125   0.275  0.8322  1.3848 -1.7167
 4794TIP3    H235942   6.081   3.149   0.255  1.7416 -2.9034 -1.0529
 4795TIP3   OH235943   5.471   1.475   1.199  0.4997  0.6995 -0.1026
 4795TIP3    H135944   5.512   1.472   1.112  1.2813  0.1076  0.2783
 4795TIP3    H235945   5.472   1.385   1.230 -0.5033  0.7795  0.2049
 4796TIP3   OH235946   2.388   6.695   7.512 -0.6696 -0.2369  0.1781
 4796TIP3    H135947   2.409   6.707   7.419  1.1256 -0.0986  0.5800
 4796TIP3    H235948   2.322   6.763   7.530  0.9935  1.5994 -0.3610
 4797TIP3   OH235949   2.038   5.374   7.034 -0.2513  0.3144 -0.2316
 4797TIP3    H135950   1.954   5.401   6.997 -0.3958 -1.0791 -1.0101
 4797TIP3    H235951   2.085   5.456   7.049 -0.9565  1.0354 -1.7190
 4798TIP3   OH235952   2.893   2.753   7.746  0.2523  0.2262 -0.3261
 4798TIP3    H135953   2.899   2.721   7.836  3.9036 -0.4294 -0.6128
 4798TIP3    H235954   2.905   2.848   7.752  1.5151  0.0698 -0.1237
 4799TIP3   OH235955   6.179   1.579   2.971  0.4632  0.6430  0.2856
 4799TIP3    H135956   6.217   1.600   2.885  0.7098  2.0876  0.7140
 4799TIP3    H235957   6.212   1.648   3.029  0.1473 -0.2071  1.5040
 4800TIP3   OH235958   1.043   6.856   2.781  0.4400  0.0195  0.0868
 4800TIP3    H135959   1.096   6.871   2.859  0.1066  0.9324  0.1482
 4800TIP3    H235960   1.101   6.877   2.708  0.5797 -0.2969  0.1059
 4801TIP3   OH235961   2.494   1.614   0.575 -0.5537  0.3742 -0.6744
 4801TIP3    H135962   2.508   1.645   0.664 -0.5164 -0.9182 -0.2140
 4801TIP3    H235963   2.581   1.610   0.537 -0.4657 -0.0393 -0.4322
 4802TIP3   OH235964   3.968   6.666   1.624 -0.6376 -0.1855  0.3535
 4802TIP3    H135965   4.037   6.654   1.689 -0.4974  2.0950  0.7019
 4802TIP3    H235966   3.900   6.602   1.649  0.5217 -1.1577  1.1219
 4803TIP3   OH235967   4.433   0.925   0.524  0.1510 -0.3268 -0.0042
 4803TIP3    H135968   4.459   0.859   0.459  0.1961 -0.5033  0.1912
 4803TIP3    H235969   4.396   0.874   0.596 -0.5016 -0.0898 -0.1696
 4804TIP3   OH235970   2.437   0.065   2.024 -0.6636 -0.1570 -0.1692
 4804TIP3    H135971   2.501   0.097   1.961 -1.6849 -0.6478 -1.4871
 4804TIP3    H235972   2.429  -0.029   2.006 -1.2430 -0.2404  0.4570
 4805TIP3   OH235973   0.562   5.082   2.785 -0.0677  0.2144  0.3221
 4805TIP3    H135974   0.569   5.174   2.759 -2.6053  0.1662 -0.9006
 4805TIP3    H235975   0.652   5.051   2.790  0.8025  2.2884 -1.1038
 4806TIP3   OH235976   0.397   4.161   8.448  0.4640 -0.2451 -0.2745
 4806TIP3    H135977   0.444   4.216   8.511  0.4228  3.8884 -3.3979
 4806TIP3    H235978   0.309   4.153   8.484  0.8191  0.7284  0.9119
 4807TIP3   OH235979   5.131   2.526   8.338 -0.1368  0.6457 -0.9619
 4807TIP3    H135980   5.191   2.487   8.274 -0.2679 -0.0252 -0.6809
 4807TIP3    H235981   5.091   2.599   8.292 -0.7422 -0.2368 -1.8777
 4808TIP3   OH235982   1.930   1.752   0.037 -0.5599  0.0476  0.4119
 4808TIP3    H135983   1.842   1.729   0.007  0.1888 -1.2523 -0.9701
 4808TIP3    H235984   1.938   1.845   0.019 -1.0125 -0.2077 -1.3212
 4809TIP3   OH235985   0.214   4.616   8.634  0.2559 -0.6901  0.0004
 4809TIP3    H135986   0.155   4.677   8.679  1.0297 -0.9098  1.3742
 4809TIP3    H235987   0.299   4.661   8.633  0.0559 -0.2410 -2.2438
 4810TIP3   OH235988   5.877   4.479   7.716  0.2435 -0.1801 -0.4168
 4810TIP3    H135989   5.935   4.555   7.703 -0.7333  0.6908  0.1366
 4810TIP3    H235990   5.926   4.405   7.681 -0.0198  1.1345 -3.9922
 4811TIP3   OH235991   0.779   4.188   8.665  0.0457 -0.2664 -0.0366
 4811TIP3    H135992   0.784   4.239   8.746  0.3219  0.7576 -0.6834
 4811TIP3    H235993   0.753   4.100   8.694  0.1296  0.0808  1.1576
 4812TIP3   OH235994   0.248   0.649   1.893 -0.3372  0.4129 -0.2608
 4812TIP3    H135995   0.156   0.626   1.882  0.0940 -1.3969 -0.4169
 4812TIP3    H235996   0.248   0.714   1.964 -1.6359 -0.5370  0.6658
 4813TIP3   OH235997   4.694   6.632   0.008 -0.0434 -0.4961 -0.2458
 4813TIP3    H135998   4.690   6.654   0.101  3.2660  2.6136 -0.5814
 4813TIP3    H235999   4.661   6.710  -0.037  0.1703 -1.1872 -1.6820
 4814TIP3   OH236000   0.220   2.318   8.286 -0.3004 -0.0363  0.5955
 4814TIP3    H136001   0.287   2.356   8.229 -0.3641 -1.8285 -0.7756
 4814TIP3    H236002   0.148   2.294   8.227 -4.0405  5.1126  2.3387
 4815TIP3   OH236003   1.225   0.675   0.853 -0.2041  0.0247 -0.5139
 4815TIP3    H136004   1.232   0.588   0.891  0.4730 -0.1001 -0.9197
 4815TIP3    H236005   1.222   0.735   0.928 -0.3523 -0.3190 -0.2449
 4816TIP3   OH236006   2.096   3.436   7.206 -0.0526  0.1774  0.0990
 4816TIP3    H136007   2.145   3.514   7.232  0.9126 -0.8147  1.3747
 4816TIP3    H236008   2.157   3.388   7.149 -0.1761 -0.2488  0.3224
 4817TIP3   OH236009   4.026   0.617   1.511 -0.6644 -0.1098  0.2778
 4817TIP3    H136010   3.966   0.552   1.548 -0.8013 -0.4861 -0.5886
 4817TIP3    H236011   4.077   0.647   1.586  0.2298 -2.1073  0.5558
 4818TIP3   OH236012   2.870   6.105   2.404  0.4947  0.2737 -0.3288
 4818TIP3    H136013   2.896   6.090   2.495  0.4590  1.9565 -0.0179
 4818TIP3    H236014   2.941   6.157   2.367 -1.2490  3.0085 -0.0992
 4819TIP3   OH236015   1.753   2.789   7.409  0.8957  1.0543 -0.0936
 4819TIP3    H136016   1.790   2.775   7.322  0.6738  0.6386 -0.1246
 4819TIP3    H236017   1.807   2.735   7.467 -0.2509 -0.3495 -0.2783
 4820TIP3   OH236018   1.845   3.169   1.766 -0.4031 -0.4027 -0.3191
 4820TIP3    H136019   1.852   3.177   1.671 -0.1173  1.2502 -0.1780
 4820TIP3    H236020   1.838   3.259   1.798 -1.2710 -0.9639  1.1789
 4821TIP3   OH236021   3.458   0.339   0.365  0.0298  0.0422 -0.3571
 4821TIP3    H136022   3.476   0.245   0.375  1.5466  0.3692  0.4076
 4821TIP3    H236023   3.462   0.354   0.271  1.6643 -0.3720 -0.3946
 4822TIP3   OH236024   3.598   0.791   1.018 -0.0049 -0.2087  0.0028
 4822TIP3    H136025   3.654   0.868   1.028  1.1383 -0.7530 -1.7185
 4822TIP3    H236026   3.535   0.816   0.950  1.9343 -1.4977 -2.4673
 4823TIP3   OH236027   6.728   5.398   0.134 -0.1382  0.5827  0.0814
 4823TIP3    H136028   6.692   5.323   0.085  2.1975 -1.5630  1.4052
 4823TIP3    H236029   6.792   5.437   0.075 -0.3908  0.6987 -0.1184
 4824TIP3   OH236030   2.653   0.122   0.763 -0.2352 -0.7873  0.0562
 4824TIP3    H136031   2.746   0.144   0.767 -0.2645 -0.8201  1.2677
 4824TIP3    H236032   2.609   0.190   0.813 -0.9358 -0.4669 -0.9684
 4825TIP3   OH236033   4.929   1.539   0.260  0.2689 -0.3370 -0.0121
 4825TIP3    H136034   4.991   1.601   0.223 -1.7307  0.7139 -1.7938
 4825TIP3    H236035   4.907   1.576   0.346 -0.2340  1.0184 -0.6874
 4826TIP3   OH236036   5.239   2.377   1.359  0.1233  0.2830  0.2254
 4826TIP3    H136037   5.249   2.329   1.276 -0.2271 -0.8220  0.8051
 4826TIP3    H236038   5.176   2.326   1.409 -0.3594  1.4364  0.8277
 4827TIP3   OH236039   4.701   2.561   2.431 -0.1734 -0.3144 -0.3189
 4827TIP3    H136040   4.689   2.483   2.376  0.2373 -0.3046 -0.4314
 4827TIP3    H236041   4.745   2.528   2.509  1.2970 -0.0078 -0.9627
 4828TIP3   OH236042   2.487   3.225   0.415 -0.4139  0.2897 -0.1328
 4828TIP3    H136043   2.483   3.141   0.462  1.6507  0.9646  1.3987
 4828TIP3    H236044   2.462   3.204   0.325  0.7463 -2.1151  0.0389
 4829TIP3   OH236045   4.963   5.025   2.199 -0.2606 -0.2253  0.0644
 4829TIP3    H136046   4.967   5.052   2.290 -1.3463  1.2175 -0.2834
 4829TIP3    H236047   4.985   4.932   2.200 -1.5077 -0.5409  1.9568
 4830TIP3   OH236048   2.365   6.720   1.684 -0.3661  0.2010 -0.0096
 4830TIP3    H136049   2.451   6.681   1.699  1.0017  2.9169 -0.2403
 4830TIP3    H236050   2.310   6.646   1.656  2.2295 -1.4088 -1.2806
 4831TIP3   OH236051   3.480   3.501   1.190  0.1026  0.2392 -0.0916
 4831TIP3    H136052   3.541   3.516   1.118  0.7283  0.4800  0.4796
 4831TIP3    H236053   3.394   3.495   1.148  0.4320  0.6046 -0.8288
 4832TIP3   OH236054   1.051   4.836   2.857  0.0029  0.5232  0.0418
 4832TIP3    H136055   1.044   4.777   2.933  0.2650 -2.6160 -2.1709
 4832TIP3    H236056   1.108   4.789   2.796  0.6914  3.4194 -1.7234
 4833TIP3   OH236057   5.073   2.421   1.659 -0.4666  0.1572  0.0718
 4833TIP3    H136058   5.154   2.471   1.674 -0.8556  0.8350 -0.0465
 4833TIP3    H236059   5.020   2.478   1.604 -2.0285  0.7582  2.0808
 4834TIP3   OH236060   6.854   1.599   0.197 -0.2463  0.4688  0.0809
 4834TIP3    H136061   6.862   1.612   0.103 -0.4828  2.6868  0.3045
 4834TIP3    H236062   6.944   1.602   0.230 -0.1992  0.2451 -0.0323
 4835TIP3   OH236063   0.238   0.915   6.952  0.1530  0.2421  0.1228
 4835TIP3    H136064   0.229   0.824   6.978  2.2795 -0.3972 -1.1289
 4835TIP3    H236065   0.292   0.912   6.872 -0.5145  2.5231 -0.4889
 4836TIP3   OH236066   3.957   1.087   1.759 -0.0305 -0.9490 -0.6647
 4836TIP3    H136067   4.046   1.108   1.788 -0.7378  1.9850 -0.2753
 4836TIP3    H236068   3.914   1.054   1.838  0.2251 -0.6665 -0.4022
 4837TIP3   OH236069   4.927   4.907   6.968 -0.1313  0.5304  0.1013
 4837TIP3    H136070   4.885   4.832   6.926 -0.3539  0.4968  0.3803
 4837TIP3    H236071   4.989   4.868   7.030 -0.1515  0.5770  0.1511
 4838TIP3   OH236072   5.515   2.266   1.257 -0.6029 -0.1504  0.1962
 4838TIP3    H136073   5.569   2.193   1.225 -0.8265  0.0320 -0.6226
 4838TIP3    H236074   5.434   2.261   1.205  0.0515  1.6932 -1.0965
 4839TIP3   OH236075   6.167   1.839   8.394  0.0966 -0.5346 -0.0339
 4839TIP3    H136076   6.081   1.859   8.357  0.2186  0.3086  0.1293
 4839TIP3    H236077   6.151   1.824   8.487  0.4530  2.1544  0.5262
 4840TIP3   OH236078   6.679   5.251   2.123  0.2279 -0.7810  0.2309
 4840TIP3    H136079   6.738   5.190   2.167  0.6359 -1.8351 -1.6463
 4840TIP3    H236080   6.736   5.317   2.084 -0.0055 -0.6644  0.0820
 4841TIP3   OH236081   5.260   4.638   2.445  0.4407 -0.9236  0.3986
 4841TIP3    H136082   5.254   4.543   2.433 -1.1122 -0.7857 -0.1580
 4841TIP3    H236083   5.337   4.650   2.500  0.0581 -2.5996  1.3900
 4842TIP3   OH236084   5.148   3.674   1.317  0.2059 -0.0737 -0.6674
 4842TIP3    H136085   5.232   3.675   1.363  0.6730 -0.7572 -1.4705
 4842TIP3    H236086   5.103   3.597   1.352 -0.0374  0.2114 -0.3412
 4843TIP3   OH236087   4.925   0.475   2.494  0.1777 -0.7148 -0.4207
 4843TIP3    H136088   4.847   0.493   2.546 -0.8232 -1.4610 -1.6016
 4843TIP3    H236089   4.997   0.512   2.545 -0.9944  0.4772  0.4449
 4844TIP3   OH236090   3.380   0.222   1.390 -0.0127 -0.6009  0.0370
 4844TIP3    H136091   3.369   0.257   1.479 -0.9780  0.5040 -0.4878
 4844TIP3    H236092   3.375   0.299   1.334  1.6839 -1.1567 -0.9203
 4845TIP3   OH236093   5.437   0.530   2.260  0.8490 -0.3604 -0.2335
 4845TIP3    H136094   5.448   0.463   2.328 -1.2680 -0.2121  0.3207
 4845TIP3    H236095   5.521   0.575   2.257  1.5356 -1.4740  1.0931
 4846TIP3   OH236096   0.641   1.486   0.729 -0.5411 -0.2588  0.2764
 4846TIP3    H136097   0.591   1.428   0.671 -1.4305 -0.4365  1.1981
 4846TIP3    H236098   0.662   1.432   0.805  1.4298 -0.3061 -0.2438
 4847TIP3   OH236099   0.143   1.524   1.117  0.4110 -0.4449  0.0238
 4847TIP3    H136100   0.220   1.509   1.062  0.5247  0.0154  0.0542
 4847TIP3    H236101   0.139   1.447   1.174  0.8666 -0.4553  0.0443
 4848TIP3   OH236102   1.611   0.001   7.015 -0.0637  0.7826  0.2892
 4848TIP3    H136103   1.654   0.059   7.078  0.0323  0.1456  0.8194
 4848TIP3    H236104   1.683  -0.034   6.962 -0.1445  1.3193 -0.1872
 4849TIP3   OH236105   4.156   2.404   8.038 -0.8349 -0.1686 -0.0045
 4849TIP3    H136106   4.101   2.335   8.075 -1.0595 -1.0562 -1.8672
 4849TIP3    H236107   4.238   2.360   8.014 -0.4464  0.5142  0.0505
 4850TIP3   OH236108   5.986   3.949   8.561  0.2418  0.2883  0.0335
 4850TIP3    H136109   5.980   4.043   8.549  0.0313  0.1653 -0.9145
 4850TIP3    H236110   6.066   3.923   8.515 -1.1474 -0.3397 -2.1970
 4851TIP3   OH236111   2.161   0.481   1.584  0.3441 -0.6574  0.0131
 4851TIP3    H136112   2.154   0.506   1.676  0.8592  1.7052 -0.5285
 4851TIP3    H236113   2.252   0.501   1.561  0.1229 -0.9125 -1.1110
 4852TIP3   OH236114   6.328   2.302   0.643 -0.1568  0.7357  0.7017
 4852TIP3    H136115   6.285   2.377   0.603  0.5320  1.0565  0.5427
 4852TIP3    H236116   6.338   2.238   0.572 -0.4325  0.6345  0.7550
 4853TIP3   OH236117   2.943   4.965   7.658  0.2579 -0.4032  0.6833
 4853TIP3    H136118   2.947   5.036   7.722  1.6640 -0.0474  0.2324
 4853TIP3    H236119   3.005   4.990   7.590 -0.9823 -0.9191 -0.6962
 4854TIP3   OH236120   5.297   5.371   0.370  0.3606  0.2848 -0.0750
 4854TIP3    H136121   5.226   5.389   0.308  2.4157 -0.2646 -2.7625
 4854TIP3    H236122   5.277   5.284   0.405 -1.3605  1.0233  0.9372
 4855TIP3   OH236123   0.777   0.734   2.307 -0.7100 -0.0338  0.0056
 4855TIP3    H136124   0.729   0.780   2.376 -0.0363  1.1515 -0.2932
 4855TIP3    H236125   0.866   0.770   2.311 -0.5828 -0.1526 -1.2841
 4856TIP3   OH236126   1.547   5.678   2.013 -0.0996  0.3597 -0.0994
 4856TIP3    H136127   1.464   5.685   2.062  0.2396  0.5545  0.4613
 4856TIP3    H236128   1.567   5.585   2.013  0.5707  0.4792  1.2988
 4857TIP3   OH236129   0.796   2.025   2.680  0.4627 -0.5158 -0.0811
 4857TIP3    H136130   0.773   1.940   2.643  1.4064 -0.6195 -0.4525
 4857TIP3    H236131   0.837   2.004   2.764 -0.3975 -0.3532  0.3932
 4858TIP3   OH236132   2.133   0.193   1.281  0.0961  0.4456 -0.5754
 4858TIP3    H136133   2.190   0.248   1.228  1.6303  0.3035  0.8299
 4858TIP3    H236134   2.186   0.115   1.300 -0.9439 -0.1682 -0.0731
 4859TIP3   OH236135   0.119   5.727   8.619 -0.0286 -0.1575 -0.3216
 4859TIP3    H136136   0.146   5.705   8.708  0.5240 -0.7282 -0.6253
 4859TIP3    H236137   0.024   5.732   8.624  0.0485  1.0637  0.5771
 4860TIP3   OH236138   6.021   1.643   2.635 -0.3791  0.7580 -0.8732
 4860TIP3    H136139   5.985   1.726   2.665  0.1902  0.1630  1.7084
 4860TIP3    H236140   6.116   1.655   2.638 -0.2965  0.1431 -0.8312
 4861TIP3   OH236141   4.247   0.660   7.893  0.2695 -0.2296 -0.4824
 4861TIP3    H136142   4.160   0.683   7.928  0.2661 -0.8485 -0.0687
 4861TIP3    H236143   4.241   0.566   7.875  0.8263 -0.2530 -0.5403
 4862TIP3   OH236144   1.643   2.384   1.574  0.3366  0.2335  0.1580
 4862TIP3    H136145   1.637   2.301   1.622  1.4451 -0.3161 -0.6020
 4862TIP3    H236146   1.692   2.442   1.632 -0.0442  0.2178  0.5021
 4863TIP3   OH236147   3.515   2.742   2.973  0.2736 -0.4113  0.4610
 4863TIP3    H136148   3.438   2.798   2.962  0.6265  0.1157  0.6583
 4863TIP3    H236149   3.506   2.677   2.903 -0.8497 -0.9494  1.0670
 4864TIP3   OH236150   0.612   0.217   7.125  0.3454  0.2287  0.0916
 4864TIP3    H136151   0.636   0.237   7.215 -1.6705 -2.1341  1.2935
 4864TIP3    H236152   0.649   0.131   7.109  0.3228  0.4448 -1.2240
 4865TIP3   OH236153   1.992   0.777   1.452  0.8662  0.5137  0.5914
 4865TIP3    H136154   1.951   0.739   1.530  0.2066 -0.3870 -0.1696
 4865TIP3    H236155   1.919   0.816   1.404  1.1497  0.3535  0.0310
 4866TIP3   OH236156   4.442   5.315   2.245  0.2935  0.6092  0.4436
 4866TIP3    H136157   4.383   5.373   2.293 -0.6783 -0.3262  0.4100
 4866TIP3    H236158   4.520   5.310   2.301  0.5011  2.0936  0.3400
 4867TIP3   OH236159   5.760   0.300   2.823 -0.2033  0.6087  0.1004
 4867TIP3    H136160   5.741   0.286   2.916  1.0600 -1.9951  0.0581
 4867TIP3    H236161   5.842   0.252   2.808 -1.1537 -0.3452 -2.6518
 4868TIP3   OH236162   2.682   2.495   2.306  0.2725  0.3000 -0.2824
 4868TIP3    H136163   2.752   2.439   2.270  0.4741  0.7136 -0.5381
 4868TIP3    H236164   2.713   2.517   2.394  1.3157  1.9100 -1.0046
 4869TIP3   OH236165   4.495   0.985   0.114 -0.1301  0.1383 -0.3892
 4869TIP3    H136166   4.415   0.936   0.129 -0.1363 -0.4793 -2.2340
 4869TIP3    H236167   4.520   1.017   0.201 -0.4835 -2.5441  0.7822
 4870TIP3   OH236168   5.055   4.846   7.659  0.0298  0.0565  0.5445
 4870TIP3    H136169   5.089   4.908   7.595  0.6529  0.9900  1.7301
 4870TIP3    H236170   5.124   4.781   7.669 -0.4008 -0.5424 -0.3043
 4871TIP3   OH236171   2.494   4.187   8.284 -0.1741 -0.1874 -0.3685
 4871TIP3    H136172   2.453   4.255   8.230 -0.7112 -2.0741 -2.4443
 4871TIP3    H236173   2.432   4.174   8.356 -1.6361 -0.6225 -1.6494
 4872TIP3   OH236174   6.265   6.038   2.581  0.6032 -0.6225  0.2183
 4872TIP3    H136175   6.202   5.993   2.637  1.4482 -2.8556 -0.5130
 4872TIP3    H236176   6.349   6.023   2.625  0.9579 -0.1869 -0.3109
 4873TIP3   OH236177   0.065   0.921   8.310  0.6809 -0.1753 -0.8179
 4873TIP3    H136178   0.098   0.831   8.314 -0.3030 -0.5135 -0.1150
 4873TIP3    H236179   0.005   0.921   8.236  0.2508 -0.2505 -0.4725
 4874TIP3   OH236180   3.829   5.084   0.649  0.4508  0.3981  0.0127
 4874TIP3    H136181   3.804   5.162   0.599 -1.0280 -0.3945 -0.5648
 4874TIP3    H236182   3.836   5.115   0.739 -0.5305  1.1367 -0.1427
 4875TIP3   OH236183   6.633   1.042   8.603 -0.3750  0.0805 -0.5080
 4875TIP3    H136184   6.540   1.030   8.581 -0.7564 -0.6211  1.3602
 4875TIP3    H236185   6.653   1.131   8.574 -2.2840  1.1190  1.1077
 4876TIP3   OH236186   4.447   5.253   1.694 -0.1281 -0.0659 -0.1714
 4876TIP3    H136187   4.511   5.182   1.680 -0.2173 -0.6371  1.9075
 4876TIP3    H236188   4.469   5.318   1.628 -1.6242 -2.9923 -3.9418
 4877TIP3   OH236189   2.495   3.165   1.911 -0.0954 -0.2384 -0.6400
 4877TIP3    H136190   2.520   3.087   1.961 -0.2474  1.3897  2.1876
 4877TIP3    H236191   2.579   3.203   1.883  0.0888 -0.3640 -0.2708
 4878TIP3   OH236192   1.706   5.626   7.021  0.2556  0.3445  0.9765
 4878TIP3    H136193   1.702   5.540   7.063  2.0180 -0.6899 -0.8256
 4878TIP3    H236194   1.759   5.612   6.942 -0.4786  2.8180 -0.0485
 4879TIP3   OH236195   3.778   0.572   7.779 -0.2695 -0.5636  0.6318
 4879TIP3    H136196   3.718   0.545   7.849 -0.7022  1.6865  1.2055
 4879TIP3    H236197   3.721   0.590   7.704 -0.1876  0.3285  0.7760
 4880TIP3   OH236198   1.073   3.847   8.294  0.2508 -1.0124 -1.0061
 4880TIP3    H136199   1.111   3.769   8.252  0.5499 -1.6909  0.4615
 4880TIP3    H236200   1.142   3.879   8.352 -0.3421 -0.4364 -0.6038
 4881TIP3   OH236201   5.546   3.337   7.262 -0.1813  0.0958 -0.8940
 4881TIP3    H136202   5.610   3.356   7.193 -0.8300  0.2990 -1.4509
 4881TIP3    H236203   5.512   3.422   7.288  0.2583  0.0457 -0.1142
 4882TIP3   OH236204   3.725   2.327   0.675  0.8546  0.5538  0.0933
 4882TIP3    H136205   3.637   2.354   0.649  1.2930  0.4688 -1.6393
 4882TIP3    H236206   3.718   2.232   0.686  0.9617  0.3537 -1.2898
 4883TIP3   OH236207   4.189   6.713   8.210 -0.3656  0.2955  0.0189
 4883TIP3    H136208   4.135   6.773   8.159  0.0422  2.3657  1.8624
 4883TIP3    H236209   4.133   6.636   8.223 -1.2584  0.6087 -1.6237
 4884TIP3   OH236210   0.048   3.137   1.835  0.4622 -0.4376 -0.1078
 4884TIP3    H136211   0.059   3.046   1.808  0.6729 -0.2169 -0.7811
 4884TIP3    H236212  -0.035   3.137   1.884 -0.6003 -0.6374 -1.8156
 4885TIP3   OH236213   0.929   5.043   7.686 -0.5241 -0.6780 -0.3135
 4885TIP3    H136214   0.845   5.036   7.642  0.1557  1.5263 -2.1204
 4885TIP3    H236215   0.963   5.129   7.660  1.5429 -0.7921  1.7063
 4886TIP3   OH236216   4.015   1.301   2.387 -0.4381  0.7441 -0.3923
 4886TIP3    H136217   3.972   1.248   2.321 -0.3097  0.4565 -0.2471
 4886TIP3    H236218   4.027   1.242   2.461 -0.6565  1.0837 -0.0802
 4887TIP3   OH236219   3.016   2.702   8.002 -0.3399 -0.3035  0.0112
 4887TIP3    H136220   3.050   2.792   8.000 -2.3030  0.4865 -0.9071
 4887TIP3    H236221   3.027   2.675   8.093 -0.2397  1.1139  0.4551
 4888TIP3   OH236222   1.796   3.493   6.896 -0.0817 -0.7261 -0.3189
 4888TIP3    H136223   1.832   3.404   6.896  0.0355 -0.6805 -0.6785
 4888TIP3    H236224   1.850   3.541   6.834  0.1653 -0.2708  0.2462
 4889TIP3   OH236225   1.067   3.680   7.277  0.2891 -0.0052 -0.4188
 4889TIP3    H136226   1.111   3.700   7.194  0.2506  1.3561 -0.1280
 4889TIP3    H236227   0.974   3.687   7.256  0.2884  1.9074  0.0768
 4890TIP3   OH236228   0.300   0.785   2.315 -0.3875  0.4579  0.1597
 4890TIP3    H136229   0.216   0.757   2.352  0.3685 -3.6797 -0.6993
 4890TIP3    H236230   0.358   0.711   2.331  2.3796  2.0942 -1.5791
 4891TIP3   OH236231   6.361   3.941   6.980  0.3466 -0.4104 -0.0709
 4891TIP3    H136232   6.360   3.854   6.942 -2.8958  0.1447 -1.6250
 4891TIP3    H236233   6.373   4.000   6.906 -0.5720  0.5329  0.4981
 4892TIP3   OH236234   2.720   1.273   1.991  0.3226  0.3486 -0.5551
 4892TIP3    H136235   2.626   1.280   1.977  0.2263 -0.2810 -0.2707
 4892TIP3    H236236   2.751   1.215   1.922  0.6394  1.1690 -1.1255
 4893TIP3   OH236237   0.419   2.112   0.062 -0.2338 -0.2240  0.6788
 4893TIP3    H136238   0.389   2.202   0.071  0.0379  0.0824 -1.0709
 4893TIP3    H236239   0.410   2.093  -0.032  1.4061 -1.3995  0.7217
 4894TIP3   OH236240   2.833   4.528   1.596 -0.1106 -0.2677  0.7678
 4894TIP3    H136241   2.814   4.546   1.504  1.3477  0.5676  0.5908
 4894TIP3    H236242   2.749   4.536   1.640 -0.6838  0.2235 -0.3654
 4895TIP3   OH236243   4.784   3.634   0.211  0.0796  0.0119  0.5089
 4895TIP3    H136244   4.811   3.549   0.174  0.9780  0.6087 -0.2781
 4895TIP3    H236245   4.745   3.680   0.137 -0.6509  0.1972  1.0003
 4896TIP3   OH236246   2.425   0.114   8.343 -0.1988 -0.1994  0.2127
 4896TIP3    H136247   2.383   0.199   8.351 -2.6676 -1.1477 -1.3935
 4896TIP3    H236248   2.366   0.063   8.287  1.7797 -2.5871  0.1117
 4897TIP3   OH236249   5.163   0.537   0.479  1.0095 -0.3965 -0.4274
 4897TIP3    H136250   5.207   0.603   0.533 -1.9938  0.3891  1.2838
 4897TIP3    H236251   5.174   0.456   0.528 -1.1952  0.2086  1.2211
 4898TIP3   OH236252   3.749   4.081   0.202  0.0443  0.1566 -0.1273
 4898TIP3    H136253   3.818   4.088   0.269 -1.4200  0.7652  1.3995
 4898TIP3    H236254   3.729   4.172   0.181  0.8907 -0.0296 -1.8925
 4899TIP3   OH236255   6.854   2.017   0.135  0.3500 -0.4314  0.1088
 4899TIP3    H136256   6.930   2.029   0.079  0.5803 -0.0892  0.4905
 4899TIP3    H236257   6.889   1.977   0.215 -0.0794 -1.6418 -0.2729
 4900TIP3   OH236258   0.616   1.916   0.133 -0.0411 -0.2856 -0.2239
 4900TIP3    H136259   0.537   1.969   0.123 -0.6382 -1.0315  0.4203
 4900TIP3    H236260   0.626   1.872   0.049  0.1485  0.4351 -0.5786
 4901TIP3   OH236261   4.060   5.126   8.295  0.1945  0.1520 -0.3645
 4901TIP3    H136262   4.095   5.192   8.355  0.9709  0.3952 -1.0516
 4901TIP3    H236263   4.037   5.176   8.216 -0.1311 -0.2589 -0.5356
 4902TIP3   OH236264   3.924   2.190   1.996  0.0906  0.0156 -0.3155
 4902TIP3    H136265   3.924   2.125   2.067  1.1059 -0.8637 -1.0787
 4902TIP3    H236266   3.991   2.159   1.936  0.1320  1.4421 -1.0412
 4903TIP3   OH236267   0.510   4.816   7.609 -0.1006 -0.0812  0.0379
 4903TIP3    H136268   0.473   4.771   7.533 -1.1357  0.0045  0.4827
 4903TIP3    H236269   0.500   4.755   7.682 -0.9173  0.5936  0.5090
 4904TIP3   OH236270   6.743   1.602   8.395  0.1513 -0.1236  0.3840
 4904TIP3    H136271   6.752   1.686   8.350 -1.2553  0.0820  0.4578
 4904TIP3    H236272   6.747   1.536   8.325 -2.1365  0.1970 -0.1241
 4905TIP3   OH236273   4.294   5.138   1.424  0.2104 -0.2203 -0.2284
 4905TIP3    H136274   4.342   5.056   1.412  1.8431  0.6239  0.2854
 4905TIP3    H236275   4.353   5.205   1.392 -0.8351  0.8379 -0.0156
 4906TIP3   OH236276   6.548   2.267   7.605 -1.0501 -0.1734 -0.0494
 4906TIP3    H136277   6.613   2.201   7.628  0.5745  1.3779 -0.0579
 4906TIP3    H236278   6.592   2.323   7.541 -1.5135  2.3380  1.7120
 4907TIP3   OH236279   5.836   1.700   8.643  0.2403 -0.1482 -0.2517
 4907TIP3    H136280   5.750   1.736   8.619  0.0049 -0.2058  0.4772
 4907TIP3    H236281   5.833   1.609   8.613 -1.1057 -1.0598  2.3224
 4908TIP3   OH236282   3.857   0.447   1.635  0.7073  0.4856  0.4582
 4908TIP3    H136283   3.762   0.443   1.630  0.7798 -0.2875 -1.8003
 4908TIP3    H236284   3.879   0.404   1.718 -0.8942  0.7338  1.0408
 4909TIP3   OH236285   3.897   5.951   8.563 -0.7339 -0.3690  0.3896
 4909TIP3    H136286   3.939   5.886   8.619 -1.2258 -1.3296 -0.3289
 4909TIP3    H236287   3.857   5.900   8.492 -2.0911  0.6133  0.4118
 4910TIP3   OH236288   5.582   0.011   1.602 -0.1677  0.8603  0.3532
 4910TIP3    H136289   5.598  -0.074   1.561 -3.5158 -0.0326  0.6035
 4910TIP3    H236290   5.664   0.058   1.591  1.8439 -2.3464  0.1678
 4911TIP3   OH236291   3.278   1.087   1.505  0.2157  0.3024  0.3043
 4911TIP3    H136292   3.219   1.117   1.574  0.9802 -0.6968  1.4522
 4911TIP3    H236293   3.346   1.037   1.552 -0.5612 -2.5159 -1.3380
 4912TIP3   OH236294   1.643   2.516   1.057 -0.3698 -0.4887  0.7219
 4912TIP3    H136295   1.549   2.516   1.076 -0.2085 -0.6488  1.6095
 4912TIP3    H236296   1.676   2.592   1.104 -0.1658  0.0078 -0.2190
 4913TIP3   OH236297   4.889   0.087   1.317 -0.3370 -0.0987  0.6894
 4913TIP3    H136298   4.908  -0.006   1.329  0.1613 -0.0332  0.4459
 4913TIP3    H236299   4.904   0.127   1.403  1.5151  0.0897  0.3236
 4914TIP3   OH236300   6.393   5.496   2.445  0.4539  0.4954 -0.3185
 4914TIP3    H136301   6.361   5.430   2.507 -0.8509  0.0672 -1.3932
 4914TIP3    H236302   6.415   5.446   2.366  2.2010  1.0126 -0.1922
 4915TIP3   OH236303   2.518   3.449   1.826  0.1582 -0.0469  0.2842
 4915TIP3    H136304   2.561   3.408   1.751  3.2685  0.3308  1.7081
 4915TIP3    H236305   2.432   3.407   1.830  0.2868 -0.8716 -2.7618
 4916TIP3   OH236306   5.859   2.188   2.084 -0.3782 -0.2838 -0.4720
 4916TIP3    H136307   5.796   2.216   2.151  2.0780 -0.2919  2.0700
 4916TIP3    H236308   5.920   2.261   2.077  0.0699 -0.7635 -1.8750
 4917TIP3   OH236309   3.497   0.041   8.320 -0.0783  0.2237 -0.0438
 4917TIP3    H136310   3.411   0.080   8.338  0.0398  0.2536  0.4446
 4917TIP3    H236311   3.476  -0.046   8.284 -0.3168  0.2926 -0.0752
 4918TIP3   OH236312   0.107   3.327   8.445 -0.1509 -0.1149  0.0704
 4918TIP3    H136313   0.127   3.387   8.373 -3.1347  1.2291  0.1947
 4918TIP3    H236314   0.085   3.384   8.519 -0.9035 -1.3818  0.8712
 4919TIP3   OH236315   3.904   0.824   0.784 -0.3957  0.1590  0.3469
 4919TIP3    H136316   3.965   0.797   0.715  0.8615  0.0961  1.4259
 4919TIP3    H236317   3.930   0.914   0.804 -0.5643  0.0807  0.9264
 4920TIP3   OH236318   4.447   5.499   3.031 -0.2325  0.0170 -0.0941
 4920TIP3    H136319   4.521   5.553   3.059 -1.2508  1.5963 -0.3413
 4920TIP3    H236320   4.374   5.530   3.083 -1.3663  0.5425 -1.9000
 4921TIP3   OH236321   1.049   6.638   1.731 -0.2752  0.4536  0.1958
 4921TIP3    H136322   1.066   6.724   1.770 -0.7638  0.1245  1.1688
 4921TIP3    H236323   0.983   6.598   1.788 -1.4985  0.1910 -1.3322
 4922TIP3   OH236324   6.009   2.762   7.507  0.2557 -0.5932  0.0661
 4922TIP3    H136325   6.033   2.741   7.598  1.5325 -0.3120 -0.1837
 4922TIP3    H236326   6.093   2.781   7.464 -0.3552 -0.4876 -1.1163
 4923TIP3   OH236327   2.408   4.486   8.401  0.7016  0.0008 -0.1751
 4923TIP3    H136328   2.322   4.522   8.379  1.8578  1.3291 -3.1176
 4923TIP3    H236329   2.391   4.424   8.472 -3.0855 -1.7208 -2.2969
 4924TIP3   OH236330   4.131   3.888   1.512 -0.3642 -0.0559  0.6104
 4924TIP3    H136331   4.203   3.947   1.533 -0.0173 -0.0261 -0.5486
 4924TIP3    H236332   4.053   3.944   1.514  0.0519  0.6625 -1.2201
 4925TIP3   OH236333   6.420   5.088   8.114  0.2702 -0.1013  0.2949
 4925TIP3    H136334   6.414   5.177   8.079 -0.6066 -0.1944  0.1861
 4925TIP3    H236335   6.369   5.035   8.053  2.5624 -1.0847 -0.8940
 4926TIP3   OH236336   3.248   1.849   0.248  0.1338 -0.2029 -0.1129
 4926TIP3    H136337   3.323   1.821   0.195  3.2277  0.2585  3.5480
 4926TIP3    H236338   3.198   1.769   0.264  2.2749 -1.4503  0.7406
 4927TIP3   OH236339   2.523   4.980   0.873  0.0027  0.3405 -0.0235
 4927TIP3    H136340   2.597   5.025   0.834 -0.8115  1.0391 -0.8022
 4927TIP3    H236341   2.472   5.050   0.916  0.2838 -0.2544  1.3393
 4928TIP3   OH236342   3.292   5.456   2.333  1.0865 -0.3580 -0.0465
 4928TIP3    H136343   3.314   5.412   2.415 -0.8157 -0.3070  0.5267
 4928TIP3    H236344   3.218   5.513   2.355  1.1516  0.3883 -1.5919
 4929TIP3   OH236345   1.597   3.915   0.009  0.3214  0.1256 -0.0182
 4929TIP3    H136346   1.667   3.942   0.070 -0.2485  1.7651 -0.0511
 4929TIP3    H236347   1.629   3.942  -0.077  0.5321 -0.9951 -0.3117
 4930TIP3   OH236348   3.171   0.207   8.147 -0.1029  0.4136  0.0181
 4930TIP3    H136349   3.116   0.283   8.129 -1.6498 -0.8275 -0.8466
 4930TIP3    H236350   3.195   0.174   8.060  1.9091  0.8263  0.3896
 4931TIP3   OH236351   5.879   0.692   2.701 -0.5008 -0.1679 -0.3548
 4931TIP3    H136352   5.813   0.758   2.679 -0.0636 -0.2995 -2.1402
 4931TIP3    H236353   5.938   0.737   2.761 -1.7040  0.2148  0.5945
 4932TIP3   OH236354   1.464   1.443   8.067  0.2390  0.0075  0.0156
 4932TIP3    H136355   1.448   1.356   8.104 -1.5181  0.7172  1.0366
 4932TIP3    H236356   1.479   1.427   7.974  1.5194 -1.5099  0.4314
 4933TIP3   OH236357   5.701   2.219   1.634  0.3595 -0.0830  0.0668
 4933TIP3    H136358   5.627   2.268   1.669 -0.5920 -0.8570 -0.8217
 4933TIP3    H236359   5.716   2.149   1.697  0.5534  0.2630  0.4106
 4934TIP3   OH236360   3.285   5.317   2.620  0.7047  0.5853  0.2240
 4934TIP3    H136361   3.305   5.224   2.603 -1.8287  0.2866 -1.6711
 4934TIP3    H236362   3.202   5.315   2.666 -0.3663  1.9137 -1.5472
 4935TIP3   OH236363   2.062   4.702   0.964  0.1712 -0.1445 -0.0888
 4935TIP3    H136364   2.007   4.687   1.041  0.8313 -1.1581  0.2097
 4935TIP3    H236365   2.144   4.737   1.000 -0.0721  0.8573 -0.4819
 4936TIP3   OH236366   3.079   6.359   0.650 -0.1832 -0.2900 -0.0563
 4936TIP3    H136367   3.031   6.439   0.670 -0.4752 -0.2603 -0.8354
 4936TIP3    H236368   3.042   6.293   0.710 -2.5135 -0.7229 -1.8222
 4937TIP3   OH236369   4.841   2.887   7.090  0.1564  0.4011  0.2361
 4937TIP3    H136370   4.884   2.833   7.024  1.4498  0.3867  1.0487
 4937TIP3    H236371   4.830   2.828   7.165  2.0010  1.3187  1.3017
 4938TIP3   OH236372   5.182   1.035   6.897 -0.3021  0.1975 -0.5452
 4938TIP3    H136373   5.098   1.081   6.892  0.2037  1.0719 -1.5777
 4938TIP3    H236374   5.163   0.953   6.941 -1.8149  0.1317 -1.2649
 4939TIP3   OH236375   1.368   2.473   1.042  0.4316 -0.2525  0.1434
 4939TIP3    H136376   1.311   2.449   1.116 -0.7500  0.6836 -0.4288
 4939TIP3    H236377   1.319   2.444   0.964 -0.0637  2.0219 -0.4533
 4940TIP3   OH236378   2.518   3.441   8.464  0.0879  0.9487  0.5339
 4940TIP3    H136379   2.590   3.440   8.527  0.4454  0.3138  0.1290
 4940TIP3    H236380   2.562   3.444   8.379 -0.3759  1.1340  0.2988
 4941TIP3   OH236381   6.111   2.757   7.769  0.6425  1.1482 -0.0759
 4941TIP3    H136382   6.126   2.832   7.827  0.6477  0.5787  0.6690
 4941TIP3    H236383   6.103   2.682   7.828 -3.4374  1.0780 -0.3742
 4942TIP3   OH236384   3.729   3.461   0.732 -0.1375 -0.3086  0.2062
 4942TIP3    H136385   3.723   3.366   0.746  0.0902 -0.1947  1.1528
 4942TIP3    H236386   3.669   3.478   0.659 -0.4038 -1.1400  0.2137
 4943TIP3   OH236387   6.357   1.981   7.451  0.2099  0.0031 -0.6769
 4943TIP3    H136388   6.313   2.051   7.498  0.2063 -0.4780  0.0547
 4943TIP3    H236389   6.325   1.988   7.361  1.2580  1.8052 -0.9633
 4944TIP3   OH236390   2.858   4.334   8.007  0.3783 -0.2922  0.5747
 4944TIP3    H136391   2.868   4.242   7.980 -0.4253 -0.7858  1.8957
 4944TIP3    H236392   2.853   4.331   8.102  1.3180  1.2370  0.7014
 4945TIP3   OH236393   2.281   3.006   2.097  0.1882  0.3154  0.0599
 4945TIP3    H136394   2.270   2.938   2.030  2.7101 -0.6640  0.5350
 4945TIP3    H236395   2.258   2.963   2.179 -0.0423  0.6237  0.1594
 4946TIP3   OH236396   1.915   5.584   8.081 -0.1663  0.2322  0.3351
 4946TIP3    H136397   1.930   5.571   8.175  0.0601 -0.5135  0.2017
 4946TIP3    H236398   1.873   5.503   8.052 -1.6990  1.0716  0.0936
 4947TIP3   OH236399   1.510   0.734   0.356  0.3370  0.4455 -0.3536
 4947TIP3    H136400   1.576   0.752   0.423  1.3470 -0.3262 -1.1006
 4947TIP3    H236401   1.553   0.671   0.297 -1.2432 -0.4386 -0.5978
 4948TIP3   OH236402   3.815   6.605   8.501  0.1609  0.0623 -0.3211
 4948TIP3    H136403   3.898   6.644   8.527 -0.1884  0.7539 -0.2422
 4948TIP3    H236404   3.773   6.579   8.583 -0.7532  1.8657 -0.1722
 4949TIP3   OH236405   6.798   1.968   1.344  0.1854 -0.5445 -0.4161
 4949TIP3    H136406   6.831   1.976   1.254 -0.1144  0.6923 -0.4347
 4949TIP3    H236407   6.709   1.935   1.335 -0.2572  0.6458 -0.6724
 4950TIP3   OH236408   0.008   0.597   0.924  0.2950  0.4788 -0.6209
 4950TIP3    H136409   0.083   0.638   0.967  0.3030 -0.4919  0.3683
 4950TIP3    H236410   0.027   0.503   0.927 -1.0523  0.1901 -0.1273
 4951TIP3   OH236411   3.365   3.141   1.428 -0.7043  0.1077 -0.5216
 4951TIP3    H136412   3.291   3.135   1.488 -0.7584 -1.7286 -0.7269
 4951TIP3    H236413   3.442   3.135   1.485 -0.7443 -0.1561 -0.4919
 4952TIP3   OH236414   5.268   0.649   1.461 -0.2247 -0.1173 -0.5765
 4952TIP3    H136415   5.290   0.740   1.442  1.4210 -0.5207 -0.7551
 4952TIP3    H236416   5.344   0.615   1.509 -1.4344 -1.0016  0.8085
 4953TIP3   OH236417   3.023   5.208   8.233  0.3275  0.0362  0.0316
 4953TIP3    H136418   2.973   5.290   8.231  3.1348  1.9222 -1.6449
 4953TIP3    H236419   2.985   5.154   8.164 -1.2134  0.1224  0.7851
 4954TIP3   OH236420   2.686   6.284   1.008  0.1301 -0.2429  0.4965
 4954TIP3    H136421   2.738   6.213   0.969  1.2402  0.5824  0.4300
 4954TIP3    H236422   2.629   6.313   0.938 -1.1605 -1.7968  0.8378
 4955TIP3   OH236423   6.179   4.233   1.931  0.3869 -0.4706 -0.3356
 4955TIP3    H136424   6.146   4.170   1.996  1.6197  1.0276  1.8564
 4955TIP3    H236425   6.271   4.209   1.919  1.0312  1.1965  0.9667
 4956TIP3   OH236426   4.479   6.269   1.764 -0.3042 -0.3040  0.3243
 4956TIP3    H136427   4.552   6.308   1.716  0.4021 -0.9527  0.8564
 4956TIP3    H236428   4.507   6.269   1.856 -1.6634  0.9885  0.7948
 4957TIP3   OH236429   1.967   4.313   7.512 -0.5171  0.1152 -0.4570
 4957TIP3    H136430   1.886   4.353   7.542  1.0435  2.7619  0.6180
 4957TIP3    H236431   1.983   4.242   7.575 -0.9589  0.9533  0.6439
 4958TIP3   OH236432   4.861   6.464   0.525 -0.0374 -0.2421  0.6533
 4958TIP3    H136433   4.909   6.504   0.598  0.7316 -0.4570  0.2817
 4958TIP3    H236434   4.770   6.466   0.552  0.0961  0.8730  1.0569
 4959TIP3   OH236435   4.559   4.993   7.770  0.5073 -0.3166 -0.5982
 4959TIP3    H136436   4.638   4.940   7.768  0.2587 -0.7806  0.6965
 4959TIP3    H236437   4.561   5.043   7.689  1.1878 -1.6747 -1.4460
 4960TIP3   OH236438   3.925   6.186   1.829  0.1164  0.5821 -0.2249
 4960TIP3    H136439   4.003   6.241   1.833  0.3022  0.2421  1.4523
 4960TIP3    H236440   3.954   6.107   1.783  0.4851  0.8638 -0.4855
 4961TIP3   OH236441   4.025   1.323   0.352 -0.0885 -0.2760  0.5032
 4961TIP3    H136442   3.964   1.395   0.365  0.2856 -0.1560  1.6682
 4961TIP3    H236443   4.106   1.366   0.324 -0.1914 -0.3431  0.0939
 4962TIP3   OH236444   6.212   5.223   1.855 -0.1221 -0.3105  0.1784
 4962TIP3    H136445   6.144   5.192   1.915  0.6772 -1.3590  0.5734
 4962TIP3    H236446   6.294   5.206   1.901  0.4840 -0.6932 -1.0080
 4963TIP3   OH236447   6.693   4.087   1.279 -0.4694  0.1971 -0.4487
 4963TIP3    H136448   6.720   4.023   1.344 -0.0892  1.9923  1.2745
 4963TIP3    H236449   6.663   4.035   1.205 -0.0667 -1.9388  0.7979
 4964TIP3   OH236450   4.442   3.871   7.396 -0.6379  0.7877 -0.2873
 4964TIP3    H136451   4.407   3.880   7.485 -1.5448  0.5217 -0.5971
 4964TIP3    H236452   4.405   3.946   7.348  0.4897  1.3766 -0.2541
 4965TIP3   OH236453   2.746   5.193   0.992  0.3131  0.4372 -0.0406
 4965TIP3    H136454   2.712   5.241   1.068  1.0070 -0.2572  0.7251
 4965TIP3    H236455   2.684   5.214   0.922 -1.0846  0.0933  1.0243
 4966TIP3   OH236456   4.187   6.445   1.009 -0.3550  0.3102  0.0276
 4966TIP3    H136457   4.125   6.376   0.983 -0.7091  0.6604 -0.0624
 4966TIP3    H236458   4.253   6.445   0.940 -1.4309  1.4158 -1.0560
 4967TIP3   OH236459   3.159   1.277   2.713  0.0816 -0.4150 -0.5801
 4967TIP3    H136460   3.199   1.289   2.628 -0.0220  0.9552 -0.4552
 4967TIP3    H236461   3.192   1.350   2.766 -0.7343 -0.5946  0.2025
 4968TIP3   OH236462   4.263   6.596   0.051  0.2363 -0.0236  0.6287
 4968TIP3    H136463   4.348   6.589   0.094  1.0629  2.5960 -0.3522
 4968TIP3    H236464   4.284   6.604  -0.043 -1.3488 -2.6634 -0.0571
 4969TIP3   OH236465   6.446   5.166   1.116 -0.1654  0.1570 -0.4403
 4969TIP3    H136466   6.365   5.116   1.115  0.1472 -0.3664  0.1316
 4969TIP3    H236467   6.503   5.122   1.052  0.8363 -1.4785  1.4704
 4970TIP3   OH236468   0.723   3.431   2.525 -0.1384 -0.3336  0.3231
 4970TIP3    H136469   0.640   3.413   2.481  0.0878  0.9858 -0.7115
 4970TIP3    H236470   0.724   3.526   2.538 -0.2122 -0.6430  3.3288
 4971TIP3   OH236471   6.293   0.669   7.089 -0.1815  0.4906  0.2173
 4971TIP3    H136472   6.369   0.669   7.147 -0.2221  0.6423  0.2701
 4971TIP3    H236473   6.266   0.577   7.085 -1.5146  0.7491  2.1589
 4972TIP3   OH236474   2.411   3.260   2.219 -0.0297  0.3837 -0.0784
 4972TIP3    H136475   2.446   3.204   2.289 -1.1986  0.3494  0.4955
 4972TIP3    H236476   2.403   3.347   2.259  0.6698  0.7067 -0.6180
 4973TIP3   OH236477   0.329   3.768   1.886  0.3378  0.5227  0.1340
 4973TIP3    H136478   0.260   3.810   1.937 -1.0318 -0.3302 -0.9518
 4973TIP3    H236479   0.409   3.784   1.936  0.1355  5.1384 -0.5545
 4974TIP3   OH236480   5.908   0.135   3.062 -0.7429  0.6781  0.2427
 4974TIP3    H136481   5.941   0.151   2.974 -3.2342  1.1360 -0.6569
 4974TIP3    H236482   5.874   0.046   3.060 -2.4159  1.2973  0.1901
 4975TIP3   OH236483   0.555   5.012   7.919  0.3771  0.3878 -0.9998
 4975TIP3    H136484   0.584   4.951   7.986 -1.7639 -0.6898 -0.9833
 4975TIP3    H236485   0.573   5.098   7.955 -0.6214 -0.1697  0.9228
 4976TIP3   OH236486   6.471   5.571   2.149  0.1450 -0.0545 -0.4318
 4976TIP3    H136487   6.415   5.649   2.153  1.9364  1.2966  3.9184
 4976TIP3    H236488   6.553   5.602   2.111  0.7347  0.1795  0.9715
 4977TIP3   OH236489   1.794   0.703   0.010  0.2144 -0.0934  0.2200
 4977TIP3    H136490   1.732   0.648   0.059  0.0490 -0.0143  0.1013
 4977TIP3    H236491   1.862   0.724   0.074 -0.2070  0.3420  0.5414
 4978TIP3   OH236492   2.595   2.913   8.522 -0.1864  0.4331 -0.5245
 4978TIP3    H136493   2.671   2.859   8.543 -0.6446  0.1999  0.6279
 4978TIP3    H236494   2.626   2.976   8.457  1.0492  0.4925  0.1053
 4979TIP3   OH236495   1.142   0.111   7.807 -0.1759 -0.6013 -0.1749
 4979TIP3    H136496   1.075   0.174   7.832 -0.1577 -0.1445 -1.2285
 4979TIP3    H236497   1.136   0.106   7.711  2.1968  0.4858 -0.4517
 4980TIP3   OH236498   2.542   4.066   8.688 -0.6434  0.0558  0.5495
 4980TIP3    H136499   2.512   3.991   8.637 -2.4030  1.1509 -0.1514
 4980TIP3    H236500   2.530   4.039   8.779  0.3959 -1.1158  0.3602
 4981TIP3   OH236501   1.437   0.791   2.907 -0.4620  0.7662  0.6164
 4981TIP3    H136502   1.369   0.724   2.900 -0.4880  0.6385  1.8759
 4981TIP3    H236503   1.415   0.839   2.987 -0.6073  2.4753 -0.4033
 4982TIP3   OH236504   4.709   2.617   7.828  0.0416 -0.1565 -0.4019
 4982TIP3    H136505   4.677   2.694   7.782  3.3083  1.0576 -0.9554
 4982TIP3    H236506   4.752   2.564   7.760  1.7940 -0.1391  0.6240
 4983TIP3   OH236507   6.452   5.662   8.390 -0.2608  0.0148  0.1981
 4983TIP3    H136508   6.516   5.730   8.372 -0.1316  0.3376  1.7432
 4983TIP3    H236509   6.436   5.620   8.305 -0.0523  1.6981 -0.7001
 4984TIP3   OH236510   4.188   4.777   1.636 -0.3060  0.5690  0.2871
 4984TIP3    H136511   4.120   4.714   1.659 -0.9291  0.6908 -1.0649
 4984TIP3    H236512   4.198   4.832   1.714  0.8498 -1.6627  1.7882
 4985TIP3   OH236513   5.837   2.547   0.565  0.3707  0.1386 -0.0831
 4985TIP3    H136514   5.809   2.467   0.610 -1.3507  0.5730 -0.3236
 4985TIP3    H236515   5.790   2.546   0.481 -0.0584  1.6218  0.1047
 4986TIP3   OH236516   2.697   6.105   2.169  0.5923 -0.2479 -0.1204
 4986TIP3    H136517   2.752   6.096   2.247  1.1883 -0.2610 -0.5402
 4986TIP3    H236518   2.704   6.197   2.146  1.0290 -0.4033 -0.6075
 4987TIP3   OH236519   5.380   2.250   8.460 -0.5138 -0.7444 -0.5593
 4987TIP3    H136520   5.327   2.277   8.536 -0.7311  1.6897 -1.4941
 4987TIP3    H236521   5.317   2.245   8.388  0.0855 -0.4908 -1.1076
 4988TIP3   OH236522   5.876   2.431   7.026  0.2322  0.0370  0.7671
 4988TIP3    H136523   5.939   2.399   6.961  1.6341 -0.4973  2.2973
 4988TIP3    H236524   5.895   2.525   7.033  0.2823  0.0378  0.6232
 4989TIP3   OH236525   2.706   2.888   1.219 -0.0237  0.0289 -0.2072
 4989TIP3    H136526   2.616   2.911   1.196  0.0278  0.8528  0.3907
 4989TIP3    H236527   2.747   2.866   1.135 -1.5457 -3.2452 -0.2457
 4990TIP3   OH236528   0.311   5.909   0.436  0.2380  0.0502  0.0265
 4990TIP3    H136529   0.403   5.884   0.439  0.6324  1.1189 -1.4261
 4990TIP3    H236530   0.285   5.893   0.345 -0.4945  1.3376 -0.0254
 4991TIP3   OH236531   0.632   3.036   7.257 -0.2140 -0.5571  0.5174
 4991TIP3    H136532   0.619   2.952   7.212 -0.3843 -0.9435  1.2653
 4991TIP3    H236533   0.727   3.047   7.261 -0.1748 -1.0284  0.9750
 4992TIP3   OH236534   2.612   2.404   0.785  0.0863  0.1879  0.1264
 4992TIP3    H136535   2.616   2.473   0.852  1.4074  0.2188  0.0440
 4992TIP3    H236536   2.552   2.339   0.821  1.3219 -0.1596  1.7250
 4993TIP3   OH236537   0.679   0.434   1.887  0.4901 -0.3575  0.5340
 4993TIP3    H136538   0.698   0.528   1.892  1.7881 -0.5971  0.4251
 4993TIP3    H236539   0.765   0.392   1.885 -0.0709 -1.5821  1.0382
 4994TIP3   OH236540   2.000   3.641   6.760  0.9297  0.2144  0.4660
 4994TIP3    H136541   1.979   3.733   6.773  0.2842 -0.0163  1.1967
 4994TIP3    H236542   2.066   3.621   6.826  2.2946  0.5398 -0.7688
 4995TIP3   OH236543   2.217   6.369   0.774 -0.2195 -0.1024 -0.0220
 4995TIP3    H136544   2.150   6.336   0.833  0.7095 -1.6270  0.2252
 4995TIP3    H236545   2.189   6.341   0.687  0.4807 -1.4507  0.1691
 4996TIP3   OH236546   1.292   2.285   7.019 -0.6170  0.0875 -0.4820
 4996TIP3    H136547   1.200   2.257   7.021 -1.0801  1.5430  1.4371
 4996TIP3    H236548   1.293   2.368   7.067  1.9372 -0.5863  0.8156
 4997TIP3   OH236549   2.714   3.744   0.434 -0.5767 -0.5828  0.1072
 4997TIP3    H136550   2.748   3.732   0.345 -0.3324  1.2411 -0.0814
 4997TIP3    H236551   2.713   3.656   0.471  1.3359 -1.1170 -0.9800
 4998TIP3   OH236552   4.092   2.599   8.221 -0.0748 -0.7150  0.2958
 4998TIP3    H136553   4.108   2.668   8.158 -0.1008 -0.7853  0.2112
 4998TIP3    H236554   4.113   2.518   8.174 -1.6769 -0.8952 -0.1846
 4999TIP3   OH236555   4.818   4.061   6.855  0.4221 -0.0074 -0.0557
 4999TIP3    H136556   4.787   4.071   6.945  1.1359 -1.0778  0.3364
 4999TIP3    H236557   4.853   3.972   6.852  2.2854  0.6952 -0.8169
 5000TIP3   OH236558   5.171   2.293   2.517 -0.1586  0.3697  0.1511
 5000TIP3    H136559   5.155   2.353   2.590 -0.4299  0.0528  0.3545
 5000TIP3    H236560   5.127   2.212   2.542 -1.1519  0.5851 -0.8418
 5001TIP3   OH236561   0.998   6.708   7.911 -0.4189  0.2575  0.2904
 5001TIP3    H136562   1.036   6.787   7.949  0.1485  0.7174 -1.1586
 5001TIP3    H236563   0.987   6.729   7.818 -0.9253 -1.1189  0.0150
 5002TIP3   OH236564   2.314   2.296   0.002 -0.3367 -0.3984 -0.1524
 5002TIP3    H136565   2.259   2.366  -0.034 -0.0505 -0.1902 -0.1927
 5002TIP3    H236566   2.389   2.342   0.039 -0.3746 -0.6507  0.2455
 5003TIP3   OH236567   0.316   4.617   1.572 -0.8729 -0.2027 -0.2657
 5003TIP3    H136568   0.253   4.549   1.552  0.6764 -2.3749  1.7002
 5003TIP3    H236569   0.265   4.687   1.612 -2.2969 -0.8888 -0.8353
 5004TIP3   OH236570   5.568   3.528   1.676  0.9007  0.7328  0.1416
 5004TIP3    H136571   5.634   3.543   1.609  2.7336 -0.7220  1.5199
 5004TIP3    H236572   5.496   3.484   1.630  1.9657  0.0602 -0.9371
 5005TIP3   OH236573   0.432   2.377   7.472  1.0287  0.3351 -0.0675
 5005TIP3    H136574   0.500   2.357   7.408  1.0696 -0.3340  0.1785
 5005TIP3    H236575   0.424   2.297   7.524  1.5654  1.1382  1.2864
 5006TIP3   OH236576   2.723   3.942   1.622 -0.9730 -0.6313  0.2040
 5006TIP3    H136577   2.770   3.992   1.556 -0.6064 -0.0355  0.9071
 5006TIP3    H236578   2.630   3.953   1.600 -0.8258 -1.2074 -0.7497
 5007TIP3   OH236579   4.118   5.973   1.614 -0.2076  0.8283 -0.0432
 5007TIP3    H136580   4.058   5.936   1.679 -1.0023  1.2617 -0.5226
 5007TIP3    H236581   4.198   5.920   1.622 -1.0878 -0.5744 -0.2755
 5008TIP3   OH236582   3.352   4.996   7.797  0.0063  0.0934 -0.0259
 5008TIP3    H136583   3.309   4.914   7.772  1.2096 -0.0310 -1.8704
 5008TIP3    H236584   3.440   4.989   7.762 -0.0818  2.4816 -0.9642
 5009TIP3   OH236585   6.274   5.779   2.118 -0.0560  0.0719 -0.2134
 5009TIP3    H136586   6.220   5.824   2.054 -2.9616 -0.2115  1.8008
 5009TIP3    H236587   6.290   5.843   2.187 -0.2856 -0.6560  0.5429
 5010TIP3   OH236588   4.657   1.073   0.336  0.1394  0.4954  0.1558
 5010TIP3    H136589   4.712   0.995   0.328  0.4997  0.8849 -1.5605
 5010TIP3    H236590   4.716   1.146   0.316 -0.6982  1.0361 -0.3929
 5011TIP3   OH236591   1.371   5.374   8.117 -0.2192  0.0973  0.9032
 5011TIP3    H136592   1.409   5.403   8.035  2.6676 -1.0522  1.7250
 5011TIP3    H236593   1.395   5.442   8.180 -0.2162 -0.2665  1.2973
 5012TIP3   OH236594   5.281   1.122   1.953 -0.4899  0.0388 -0.8145
 5012TIP3    H136595   5.271   1.170   2.035  0.4602 -1.2817  0.1274
 5012TIP3    H236596   5.367   1.080   1.960 -0.9223 -1.1032 -1.9281
 5013TIP3   OH236597   6.344   6.329   7.571  0.1035  0.0452  0.0229
 5013TIP3    H136598   6.354   6.403   7.631  1.1885 -0.0207 -0.0549
 5013TIP3    H236599   6.282   6.360   7.505  0.6118  0.9158 -0.0575
 5014TIP3   OH236600   4.282   4.672   7.825  0.0185  0.4166 -0.7216
 5014TIP3    H136601   4.295   4.691   7.918  1.9157  0.0112 -0.8616
 5014TIP3    H236602   4.188   4.686   7.810 -0.4898 -0.3365  1.4371
 5015TIP3   OH236603   0.282   3.237   8.669  0.6623 -0.2308  0.1995
 5015TIP3    H136604   0.233   3.280   8.738  0.2485 -0.4310  0.0344
 5015TIP3    H236605   0.295   3.304   8.602  1.1259 -0.0174  0.4985
 5016TIP3   OH236606   3.297   3.621   2.989  0.4568 -0.2573 -0.1947
 5016TIP3    H136607   3.249   3.701   2.965  1.7404 -0.0104 -2.1465
 5016TIP3    H236608   3.385   3.651   3.009  1.4479 -1.2876 -2.6418
 5017TIP3   OH236609   3.079   3.246   0.881  1.0847 -0.0068 -0.0856
 5017TIP3    H136610   3.147   3.213   0.823  1.2726  1.8848 -1.0033
 5017TIP3    H236611   3.107   3.218   0.969  2.7078  0.1732 -0.5180
 5018TIP3   OH236612   3.659   2.842   1.322 -0.2922  0.8719 -0.6709
 5018TIP3    H136613   3.720   2.770   1.337  0.4007  1.0801 -2.2617
 5018TIP3    H236614   3.712   2.921   1.332 -0.7388  1.1185 -0.2336
 5019TIP3   OH236615   6.203   5.030   7.950  0.1900  0.0411  0.0120
 5019TIP3    H136616   6.181   5.116   7.915  0.8186 -0.2646 -1.1875
 5019TIP3    H236617   6.138   4.971   7.913  0.4470 -0.1736 -0.1031
 5020TIP3   OH236618   1.550   3.768   1.600  0.8145  0.7245 -0.5203
 5020TIP3    H136619   1.479   3.765   1.663  2.6407  0.7652  1.6706
 5020TIP3    H236620   1.554   3.859   1.572 -0.4602  0.5659 -1.3123
 5021TIP3   OH236621   1.814   4.333   8.272 -0.5796 -0.5894 -0.0739
 5021TIP3    H136622   1.731   4.355   8.231 -0.8039  0.0833  0.7206
 5021TIP3    H236623   1.831   4.242   8.246 -1.0548 -0.4049 -1.0641
 5022TIP3   OH236624   1.730   1.797   2.100 -0.1847 -0.1843 -0.5205
 5022TIP3    H136625   1.663   1.780   2.166  0.7048 -0.1186  0.4214
 5022TIP3    H236626   1.802   1.839   2.148 -0.5704  2.3458 -1.9775
 5023TIP3   OH236627   4.666   4.196   8.105  0.1148 -0.0362  0.4134
 5023TIP3    H136628   4.673   4.288   8.079  0.6524 -0.1475  0.1390
 5023TIP3    H236629   4.675   4.148   8.023 -1.2748 -0.3069  0.4034
 5024TIP3   OH236630   5.787   3.418   1.106 -0.4045  0.1177  0.7240
 5024TIP3    H136631   5.795   3.383   1.017 -2.3998 -1.1446  0.9704
 5024TIP3    H236632   5.756   3.508   1.094 -0.6933 -0.0580  0.1197
 5025TIP3   OH236633   5.482   1.640   1.439 -0.2426 -0.6611 -0.1569
 5025TIP3    H136634   5.433   1.618   1.360  0.9286 -0.9639 -0.8201
 5025TIP3    H236635   5.544   1.568   1.451  2.7769  1.4832 -1.6384
 5026TIP3   OH236636   3.654   0.195   1.627 -0.6677  0.4259 -0.5900
 5026TIP3    H136637   3.739   0.160   1.597 -0.3968  2.0820 -1.8808
 5026TIP3    H236638   3.607   0.118   1.658  1.0558 -0.6384 -0.4422
 5027TIP3   OH236639   3.774   3.593   1.398  0.2773  0.1201  0.4139
 5027TIP3    H136640   3.821   3.517   1.362  1.1602  0.6277  0.4593
 5027TIP3    H236641   3.760   3.650   1.322  2.7956  1.5387  0.8759
 5028TIP3   OH236642   2.696   5.910   8.064 -0.5399  0.1288 -0.6325
 5028TIP3    H136643   2.608   5.876   8.044 -1.3836  0.5041  2.0300
 5028TIP3    H236644   2.698   5.996   8.022 -2.0765  0.7616  0.4832
 5029TIP3   OH236645   0.894   6.528   1.989  0.3280 -0.0860 -0.7760
 5029TIP3    H136646   0.835   6.471   1.939  0.0408 -0.0544 -0.4787
 5029TIP3    H236647   0.934   6.469   2.053 -0.8905  0.2666  0.3445
 5030TIP3   OH236648   1.242   0.697   1.470 -0.2729  0.0983 -0.3692
 5030TIP3    H136649   1.270   0.671   1.558 -1.6621  1.4693  0.5313
 5030TIP3    H236650   1.305   0.655   1.411  0.6538 -0.9036  1.2635
 5031TIP3   OH236651   6.268   5.085   2.173  0.0396  0.1252 -0.2020
 5031TIP3    H136652   6.186   5.038   2.183  0.1622 -0.0404  0.0294
 5031TIP3    H236653   6.302   5.056   2.088  0.2068 -0.3465  0.0251
 5032TIP3   OH236654   0.205   2.100   1.925 -0.0907 -0.2326  0.0697
 5032TIP3    H136655   0.191   2.041   2.000  0.4162 -0.8041 -0.2767
 5032TIP3    H236656   0.224   2.042   1.852  1.5093  0.3880 -0.0498
 5033TIP3   OH236657   4.744   6.159   2.471  0.4111 -0.0647 -0.3763
 5033TIP3    H136658   4.713   6.239   2.429  0.7057 -0.4555 -1.3566
 5033TIP3    H236659   4.830   6.143   2.432 -0.4329 -1.8873 -1.6351
 5034TIP3   OH236660   2.274   0.595   2.318 -0.1653 -0.0578  0.6993
 5034TIP3    H136661   2.206   0.658   2.292 -0.3059 -0.4065  0.1816
 5034TIP3    H236662   2.314   0.569   2.235 -0.3634 -0.9210  0.8644
 5035TIP3   OH236663   4.165   2.502   2.540  0.2848 -0.2560  0.0631
 5035TIP3    H136664   4.162   2.456   2.456  0.1283  1.4121 -0.8969
 5035TIP3    H236665   4.093   2.464   2.591 -0.0602 -0.8066 -0.8226
 5036TIP3   OH236666   3.953   5.943   1.044 -0.6621 -0.1737  0.3529
 5036TIP3    H136667   4.018   5.895   0.992 -0.4018  0.7373 -0.1670
 5036TIP3    H236668   3.996   5.954   1.129  1.7212  4.0321 -1.1175
 5037TIP3   OH236669   4.547   3.865   8.479 -0.2551 -0.4283  0.1093
 5037TIP3    H136670   4.453   3.883   8.490 -0.8111 -1.6773 -1.9706
 5037TIP3    H236671   4.574   3.923   8.407  0.3326 -0.7412  0.0709
 5038TIP3   OH236672   5.068   1.014   1.788 -0.6224  0.1798 -0.1766
 5038TIP3    H136673   5.135   1.017   1.856 -2.1106  0.3295  1.3472
 5038TIP3    H236674   5.106   0.961   1.718  1.2761  0.7254  0.3851
 5039TIP3   OH236675   2.074   2.255   0.984  0.6837  0.4371  0.0272
 5039TIP3    H136676   2.114   2.341   0.972 -0.2036  0.7710 -0.6136
 5039TIP3    H236677   1.995   2.272   1.036 -1.4839  0.6018 -3.0622
 5040TIP3   OH236678   5.328   6.499   2.695  0.8985 -0.3113 -0.3929
 5040TIP3    H136679   5.257   6.463   2.642  0.8378 -0.2475 -0.3556
 5040TIP3    H236680   5.364   6.570   2.641  0.4443  0.1475 -0.0959
 5041TIP3   OH236681   1.099   4.073   1.624 -0.5182  0.1903 -0.1677
 5041TIP3    H136682   1.074   3.999   1.570  0.6122  0.3844 -0.9880
 5041TIP3    H236683   1.171   4.041   1.678  0.2741  0.8001 -0.8452
 5042TIP3   OH236684   4.481   0.143   1.010 -0.4920  0.1535 -0.5159
 5042TIP3    H136685   4.576   0.156   1.007 -0.2438 -1.1925  0.4583
 5042TIP3    H236686   4.445   0.228   1.036  0.4983  0.5320 -0.3491
 5043TIP3   OH236687   0.367   5.954   7.157  0.6945  0.6786 -0.0709
 5043TIP3    H136688   0.418   6.033   7.173 -1.5132  2.0059  1.0019
 5043TIP3    H236689   0.392   5.894   7.227  2.2425  0.4769 -0.7741
 5044TIP3   OH236690   1.149   3.044   0.527  0.3881 -0.5818  0.1713
 5044TIP3    H136691   1.143   3.132   0.490 -1.0700 -1.7286 -2.5454
 5044TIP3    H236692   1.085   3.043   0.598  1.5358  0.9484  1.3071
 5045TIP3   OH236693   1.117   2.853   0.092 -0.3312  0.4674 -0.5430
 5045TIP3    H136694   1.195   2.883   0.140 -0.6963 -0.7456  0.8841
 5045TIP3    H236695   1.101   2.765   0.125 -3.4239  1.3414  0.6254
 5046TIP3   OH236696   1.650   1.711   1.671  0.4205 -0.1391  0.1775
 5046TIP3    H136697   1.673   1.631   1.719 -1.0950 -0.2839  0.7091
 5046TIP3    H236698   1.705   1.709   1.593  0.7130 -1.4733  0.4024
 5047TIP3   OH236699   4.303   4.913   2.752  0.4093 -0.3704 -0.0896
 5047TIP3    H136700   4.380   4.870   2.714  1.1960  1.5723 -0.8337
 5047TIP3    H236701   4.338   4.992   2.793 -1.2565  0.9654 -1.1210
 5048TIP3   OH236702   0.995   3.139   1.036  0.5739 -0.0902 -0.0666
 5048TIP3    H136703   0.967   3.161   1.125 -1.1719 -0.4539 -0.4877
 5048TIP3    H236704   0.923   3.088   1.000  1.5242 -0.4957 -1.4919
 5049TIP3   OH236705   3.040   3.955   1.138  0.4948 -0.0383  0.1977
 5049TIP3    H136706   2.971   3.914   1.085 -0.8490  0.3881  1.5454
 5049TIP3    H236707   3.121   3.911   1.111 -0.3638 -0.8963 -1.0811
 5050TIP3   OH236708   4.000   3.442   0.099  0.7860  0.0993 -0.2250
 5050TIP3    H136709   3.996   3.360   0.051  0.3231 -1.0326  1.6342
 5050TIP3    H236710   4.085   3.441   0.142  0.8786  0.7114 -0.3908
 5051TIP3   OH236711   3.359   1.801   2.058  0.5157  0.0142  0.6874
 5051TIP3    H136712   3.267   1.774   2.058  0.8751 -1.7330 -2.5897
 5051TIP3    H236713   3.390   1.778   2.145 -1.5564 -1.7918  1.0474
 5052TIP3   OH236714   4.407   5.917   2.817  0.7080 -0.0995 -0.2958
 5052TIP3    H136715   4.446   5.834   2.790  1.3528  0.4733 -1.2262
 5052TIP3    H236716   4.315   5.911   2.791  0.4644 -0.9661  0.7277
 5053TIP3   OH236717   4.789   6.401   7.675  0.1737 -0.2058  0.4546
 5053TIP3    H136718   4.700   6.379   7.703  0.6371 -1.7575  0.7835
 5053TIP3    H236719   4.836   6.318   7.674  1.2908  0.3768 -0.9675
 5054TIP3   OH236720   5.204   2.462   8.604 -0.1250  0.4183  0.8431
 5054TIP3    H136721   5.144   2.523   8.648 -2.6758 -0.7685 -0.7897
 5054TIP3    H236722   5.196   2.482   8.511 -0.4512 -1.8640  0.3193
 5055TIP3   OH236723   5.776   3.419   2.952 -0.4149  0.0220 -0.6009
 5055TIP3    H136724   5.786   3.490   2.889 -0.8444  0.3667 -0.2886
 5055TIP3    H236725   5.852   3.362   2.937  0.1606  0.7678 -0.5743
 5056TIP3   OH236726   5.273   4.771   8.460 -0.0268  0.1245  0.3846
 5056TIP3    H136727   5.299   4.800   8.372 -0.6510  0.8292  0.4202
 5056TIP3    H236728   5.349   4.791   8.515  1.3367 -2.5251 -0.3712
 5057TIP3   OH236729   3.493   1.452   0.482  0.1919  0.0972 -0.2456
 5057TIP3    H136730   3.521   1.538   0.450 -1.0904  0.0592 -1.5415
 5057TIP3    H236731   3.407   1.468   0.521 -0.0818 -0.5951 -0.5508
 5058TIP3   OH236732   0.519   4.789   0.402  0.0583 -0.2022  0.6210
 5058TIP3    H136733   0.533   4.723   0.470  0.1113 -0.4598  0.3574
 5058TIP3    H236734   0.568   4.866   0.433  0.7339 -0.5727  0.4942
 5059TIP3   OH236735   2.024   3.622   7.608  0.2006  0.2001 -0.0607
 5059TIP3    H136736   2.020   3.684   7.535 -1.2988 -1.1814 -1.2554
 5059TIP3    H236737   1.978   3.544   7.575  2.8700 -1.9893  0.9564
 5060TIP3   OH236738   6.425   3.983   0.076 -0.2507 -0.2992  0.4565
 5060TIP3    H136739   6.433   3.958  -0.016  2.7909 -1.3276  0.8959
 5060TIP3    H236740   6.500   4.040   0.092  0.2491 -1.4601  2.6519
 5061TIP3   OH236741   5.264   6.835   8.141 -0.8486 -0.0951  0.2691
 5061TIP3    H136742   5.179   6.859   8.178 -1.7006 -0.1832 -1.5575
 5061TIP3    H236743   5.287   6.908   8.083 -0.5185 -0.8619 -0.5821
 5062TIP3   OH236744   2.414   3.625   1.191  0.3125  0.3496 -0.4006
 5062TIP3    H136745   2.373   3.704   1.156 -0.9657 -0.1123 -0.0256
 5062TIP3    H236746   2.483   3.658   1.249  0.8064  1.1467 -1.4144
 5063TIP3   OH236747   0.154   6.717   1.079  0.0340  0.1447  0.1935
 5063TIP3    H136748   0.153   6.812   1.092 -0.4779  0.0933  0.5297
 5063TIP3    H236749   0.193   6.683   1.160  1.1433  0.1247 -0.3278
 5064TIP3   OH236750   6.248   1.713   7.473 -0.2255  0.2689 -0.1418
 5064TIP3    H136751   6.175   1.692   7.413 -0.1870 -0.4049  0.0386
 5064TIP3    H236752   6.268   1.805   7.454 -0.1527  0.0491 -1.2342
 5065TIP3   OH236753   0.392   3.454   7.890 -0.2834  0.5293  0.0570
 5065TIP3    H136754   0.383   3.372   7.938 -0.5401  1.7464  2.2306
 5065TIP3    H236755   0.303   3.488   7.883 -0.2076  0.5463 -1.0258
 5066TIP3   OH236756   0.323   1.788   8.478  0.3716  0.1074  0.4209
 5066TIP3    H136757   0.386   1.725   8.442  0.7810 -0.8986  2.7067
 5066TIP3    H236758   0.311   1.852   8.408 -0.5614 -2.7832 -2.3292
 5067TIP3   OH236759   5.245   3.067   8.360 -0.1614  0.5412 -0.6701
 5067TIP3    H136760   5.217   3.072   8.451 -1.5091  2.1757 -1.1301
 5067TIP3    H236761   5.310   3.137   8.351 -0.5831  0.8751 -1.1402
 5068TIP3   OH236762   3.154   2.411   1.657  0.0972  0.0397 -0.2566
 5068TIP3    H136763   3.225   2.443   1.602  0.5536 -0.4263  0.0536
 5068TIP3    H236764   3.147   2.475   1.728 -0.5587  0.6968 -0.8863
 5069TIP3   OH236765   0.312   5.058   2.882  0.4434 -0.7720 -0.4948
 5069TIP3    H136766   0.300   4.978   2.932  0.1713 -1.2782 -1.3562
 5069TIP3    H236767   0.400   5.051   2.845  0.4295 -0.6569 -0.5508
 5070TIP3   OH236768   3.811   6.197   0.532  0.1599  0.2905 -0.1030
 5070TIP3    H136769   3.905   6.189   0.548 -0.2465 -1.2388  1.7870
 5070TIP3    H236770   3.775   6.225   0.616 -0.8971  2.9826 -1.3475
 5071TIP3   OH236771   5.666   1.341   6.891  0.2976  0.6470 -0.0623
 5071TIP3    H136772   5.705   1.289   6.821  0.9426 -0.6805  1.2067
 5071TIP3    H236773   5.687   1.431   6.869  1.0741  0.2042 -1.2220
 5072TIP3   OH236774   1.814   1.703   8.355 -0.4019  0.1746 -0.5347
 5072TIP3    H136775   1.882   1.651   8.311 -2.1602 -1.6654 -1.2469
 5072TIP3    H236776   1.765   1.743   8.283 -0.4636  0.9758 -0.0512
 5073TIP3   OH236777   0.756   6.365   1.801  0.5098  0.1722 -0.2412
 5073TIP3    H136778   0.676   6.331   1.841  1.1262 -1.4539 -0.3183
 5073TIP3    H236779   0.725   6.419   1.728 -0.6085  2.5948  1.8632
 5074TIP3   OH236780   6.462   4.537   7.645  0.0194  0.1506  0.0078
 5074TIP3    H136781   6.507   4.612   7.606 -0.1264  0.3001  0.1272
 5074TIP3    H236782   6.456   4.473   7.574  0.6173  0.0413  0.0461
 5075TIP3   OH236783   5.384   6.398   1.840 -0.3479  0.2248 -0.3654
 5075TIP3    H136784   5.422   6.326   1.788  0.0336 -0.5167  0.9031
 5075TIP3    H236785   5.432   6.395   1.923 -1.7931  0.5944  0.5049
 5076TIP3   OH236786   1.590   1.456   0.438  0.5980 -0.2109 -0.1931
 5076TIP3    H136787   1.552   1.381   0.482  0.3091  0.5327  0.8690
 5076TIP3    H236788   1.516   1.514   0.420  0.9231  0.2367 -0.1329
 5077TIP3   OH236789   6.495   3.486   2.781 -0.1929  0.6285 -0.5649
 5077TIP3    H136790   6.468   3.562   2.729 -1.2189  0.5466 -0.1800
 5077TIP3    H236791   6.432   3.418   2.759  0.0846  0.2210 -0.1196
 5078TIP3   OH236792   4.075   0.422   2.593  0.6244  0.0741 -0.1550
 5078TIP3    H136793   4.066   0.459   2.681  1.8670  0.8994 -0.3554
 5078TIP3    H236794   4.010   0.351   2.590  0.4374  0.1542  1.3531
 5079TIP3   OH236795   6.753   2.832   2.473 -0.2797 -0.4704 -0.0568
 5079TIP3    H136796   6.722   2.915   2.436  0.9856 -0.5172 -1.3156
 5079TIP3    H236797   6.797   2.857   2.554 -0.0612  0.0809 -0.3375
 5080TIP3   OH236798   3.253   5.705   8.093 -0.0952 -0.9285  0.0165
 5080TIP3    H136799   3.193   5.680   8.164  0.9862 -1.2813  0.8519
 5080TIP3    H236800   3.196   5.727   8.020 -1.2742 -0.2010  1.1049
 5081TIP3   OH236801   1.356   1.399   0.879 -0.1933 -0.3884  0.1830
 5081TIP3    H136802   1.323   1.488   0.889 -0.6889 -0.6463  0.9065
 5081TIP3    H236803   1.368   1.389   0.785  0.3630  0.6139  0.1288
 5082TIP3   OH236804   1.620   2.517   0.339 -0.0029  0.4028  0.2408
 5082TIP3    H136805   1.629   2.487   0.249  0.0615  2.0361 -0.3264
 5082TIP3    H236806   1.572   2.599   0.333 -2.7201 -0.9137  1.9791
 5083TIP3   OH236807   2.146   3.679   1.378  0.4461  0.5443 -0.1152
 5083TIP3    H136808   2.229   3.696   1.421  0.2073  0.2190  0.4848
 5083TIP3    H236809   2.121   3.763   1.339 -0.0134  1.2280  1.5715
 5084TIP3   OH236810   1.410   1.748   7.268  0.3375 -0.0388 -0.8331
 5084TIP3    H136811   1.404   1.843   7.259 -1.9760 -0.2245 -1.8652
 5084TIP3    H236812   1.350   1.726   7.339  0.1206 -0.8215 -1.2422
 5085TIP3   OH236813   3.726   0.625   2.526 -0.1755  0.0456 -0.6989
 5085TIP3    H136814   3.681   0.559   2.475  0.4282 -1.0636  0.1566
 5085TIP3    H236815   3.730   0.589   2.614  1.2374  0.6708 -0.4788
 5086TIP3   OH236816   1.265   1.450   8.623 -0.4320  0.1004  0.6430
 5086TIP3    H136817   1.290   1.403   8.702 -0.5695  1.4584  1.5338
 5086TIP3    H236818   1.173   1.427   8.609  0.0759 -1.5826 -0.2169
 5087TIP3   OH236819   0.426   3.663   0.508 -0.2226  0.7857 -0.5817
 5087TIP3    H136820   0.379   3.646   0.427 -0.1173 -0.8509 -0.3423
 5087TIP3    H236821   0.519   3.654   0.484 -0.2208 -0.9911 -0.0680
 5088TIP3   OH236822   2.804   0.017   1.407  0.5823  0.7079  0.0017
 5088TIP3    H136823   2.744   0.086   1.433  2.2809  1.9215  0.9513
 5088TIP3    H236824   2.767  -0.063   1.445 -0.8866  1.2473 -0.2470
 5089TIP3   OH236825   3.221   4.752   2.709 -0.2923  0.0380 -0.4633
 5089TIP3    H136826   3.153   4.716   2.651  1.8102 -2.9336 -1.3549
 5089TIP3    H236827   3.231   4.686   2.777  0.9867  0.9017  0.2098
 5090TIP3   OH236828   4.261   0.543   1.836  0.0640 -0.0901  0.0967
 5090TIP3    H136829   4.336   0.596   1.809  0.1471 -0.0182  0.4528
 5090TIP3    H236830   4.186   0.602   1.827  0.1361  0.0414  0.3419
 5091TIP3   OH236831   2.328   2.425   1.339  0.2187 -0.2101  0.2107
 5091TIP3    H136832   2.249   2.431   1.285  1.2604  0.0892 -1.3461
 5091TIP3    H236833   2.299   2.447   1.427 -1.6265 -1.1124 -0.1309
 5092TIP3   OH236834   4.620   6.035   7.667  0.0299  0.1599  0.1049
 5092TIP3    H136835   4.580   6.088   7.736 -0.3185 -2.1555  1.7886
 5092TIP3    H236836   4.708   6.072   7.657 -0.1656  0.9858  1.2748
 5093TIP3   OH236837   6.596   1.852   0.101  0.2767 -0.3416  0.0578
 5093TIP3    H136838   6.662   1.911   0.139  0.5887 -1.6344  1.6075
 5093TIP3    H236839   6.603   1.866   0.006  0.7867  1.6074  0.3309
 5094TIP3   OH236840   5.863   0.084   7.693  0.6475 -0.5491  0.0445
 5094TIP3    H136841   5.770   0.105   7.683  0.9685  1.5390  1.0375
 5094TIP3    H236842   5.904   0.119   7.614  1.2036  3.1653  1.7613
 5095TIP3   OH236843   1.205   2.611   8.519 -0.0935 -0.0803  0.1360
 5095TIP3    H136844   1.253   2.670   8.461  0.6513 -0.7107  0.1008
 5095TIP3    H236845   1.269   2.583   8.584 -0.8374  0.3591  1.0790
 5096TIP3   OH236846   5.411   0.319   1.362 -0.3606 -0.0556  0.6946
 5096TIP3    H136847   5.407   0.406   1.322  1.1187 -0.5578 -0.6590
 5096TIP3    H236848   5.339   0.270   1.322  0.3919 -0.2004 -0.5317
 5097TIP3   OH236849   5.507   3.018   8.145 -0.1749 -0.1568 -0.2412
 5097TIP3    H136850   5.516   2.926   8.170  0.6501 -0.3400 -1.1561
 5097TIP3    H236851   5.585   3.037   8.093  0.7734  1.7088  1.7564
 5098TIP3   OH236852   6.687   3.968   2.543  0.1315  0.0185 -0.2691
 5098TIP3    H136853   6.755   4.018   2.499 -1.1769  1.8716 -0.3289
 5098TIP3    H236854   6.734   3.911   2.603  1.7492  0.7583 -0.7696
 5099TIP3   OH236855   3.266   1.085   2.370 -0.1228  0.0273  0.4499
 5099TIP3    H136856   3.238   0.998   2.399 -1.3779 -0.3939 -1.7892
 5099TIP3    H236857   3.188   1.122   2.327  0.8349  1.6519  0.0406
 5100TIP3   OH236858   6.411   4.145   1.130 -0.1493 -0.9364  0.0178
 5100TIP3    H136859   6.369   4.160   1.215  2.4822  1.1007  1.0673
 5100TIP3    H236860   6.480   4.082   1.149  0.1585 -0.8198 -0.7278
 5101TIP3   OH236861   3.221   1.864   8.427  0.5188  0.2163 -0.0214
 5101TIP3    H136862   3.209   1.912   8.346  0.5564 -2.0400 -1.4732
 5101TIP3    H236863   3.315   1.848   8.433  0.6267  1.1260  0.9611
 5102TIP3   OH236864   6.524   3.004   7.741  0.1114 -0.1938 -0.3210
 5102TIP3    H136865   6.558   2.916   7.758 -1.7351 -1.0709 -0.7877
 5102TIP3    H236866   6.437   3.004   7.780  0.4843  1.8439  0.6311
 5103TIP3   OH236867   5.576   2.375   8.320 -0.1866  0.1658 -0.0040
 5103TIP3    H136868   5.510   2.359   8.387  0.7822 -0.5665  0.8146
 5103TIP3    H236869   5.544   2.327   8.243 -0.8359  0.2173  0.2294
 5104TIP3   OH236870   0.594   0.488   1.492 -0.4185 -0.4777  0.8571
 5104TIP3    H136871   0.501   0.481   1.515 -1.1987 -2.6363 -2.2722
 5104TIP3    H236872   0.595   0.551   1.420  0.1693 -1.8533 -0.3975
 5105TIP3   OH236873   1.115   4.216   0.477  0.0428 -0.5716  0.5146
 5105TIP3    H136874   1.150   4.180   0.395  1.3139 -0.9401  1.1870
 5105TIP3    H236875   1.171   4.179   0.545 -2.1281 -1.7722  1.7513
 5106TIP3   OH236876   3.911   3.772   0.603 -0.4701  0.2332 -0.8385
 5106TIP3    H136877   3.946   3.853   0.640  0.5896 -0.2974 -0.6276
 5106TIP3    H236878   3.906   3.789   0.509  1.1089  0.0930 -0.9855
 5107TIP3   OH236879   1.564   3.218   0.242  0.2425  0.0380  0.0165
 5107TIP3    H136880   1.597   3.199   0.154  1.3951 -0.8639  0.6190
 5107TIP3    H236881   1.640   3.207   0.299 -0.4921  0.6009  1.1357
 5108TIP3   OH236882   1.738   6.583   7.678  0.5414  0.5848  0.0913
 5108TIP3    H136883   1.819   6.605   7.633  0.8874 -0.4511  0.1952
 5108TIP3    H236884   1.761   6.510   7.735 -0.7522 -0.5732 -0.8113
 5109TIP3   OH236885   6.024   6.141   6.768  0.2264  0.2962  0.0018
 5109TIP3    H136886   6.104   6.098   6.738 -0.1957  0.5955 -1.6498
 5109TIP3    H236887   5.954   6.077   6.751 -0.2638  1.1834 -1.4815
 5110TIP3   OH236888   3.421   1.680   7.953  0.3567  0.1297  0.5773
 5110TIP3    H136889   3.366   1.611   7.916  0.9410 -0.3289  0.5402
 5110TIP3    H236890   3.497   1.633   7.988  0.3662  0.6697  1.3172
 5111TIP3   OH236891   5.078   6.245   0.734 -0.0171 -0.1043  0.0207
 5111TIP3    H136892   4.997   6.195   0.728 -0.3274  0.3227  0.6535
 5111TIP3    H236893   5.101   6.245   0.827  0.1049  0.7226  0.0014
 5112TIP3   OH236894   6.808   1.469   8.170  0.3876  0.5558 -0.3779
 5112TIP3    H136895   6.872   1.412   8.213 -1.6365 -1.1048  0.5855
 5112TIP3    H236896   6.817   1.449   8.076 -1.8344 -3.2922  0.0314
 5113TIP3   OH236897   1.449   3.825   0.603 -0.5163  0.3489  0.1644
 5113TIP3    H136898   1.517   3.818   0.670  0.5198  0.7292 -0.7992
 5113TIP3    H236899   1.483   3.775   0.529 -1.3545  0.4286 -0.2895
 5114TIP3   OH236900   6.495   5.449   8.191  0.8488 -0.3083 -0.6165
 5114TIP3    H136901   6.480   5.497   8.109 -0.0047  1.7106  0.6446
 5114TIP3    H236902   6.588   5.464   8.211  0.6152  0.7428 -0.2944
 5115TIP3   OH236903   2.262   6.412   1.814  0.4707  0.3047 -0.2175
 5115TIP3    H136904   2.259   6.392   1.908 -0.6340 -1.2163 -0.5408
 5115TIP3    H236905   2.311   6.339   1.776 -1.5294 -0.6286 -1.1434
 5116TIP3   OH236906   2.630   4.452   0.949 -0.0678  0.3282  0.1111
 5116TIP3    H136907   2.724   4.470   0.952 -0.1355  0.5790  1.9869
 5116TIP3    H236908   2.617   4.382   1.013 -1.3714  1.5651  1.2848
 5117TIP3   OH236909   2.033   1.523   2.987  0.0482  0.4606  0.5352
 5117TIP3    H136910   1.990   1.543   3.070 -0.6382  2.8415 -0.3004
 5117TIP3    H236911   2.101   1.460   3.009 -1.6945 -0.8506  2.4713
 5118TIP3   OH236912   0.337   3.597   2.215 -0.1608  0.5372  0.6516
 5118TIP3    H136913   0.322   3.658   2.142  2.8853  1.5645  0.7149
 5118TIP3    H236914   0.295   3.640   2.290 -0.7971  0.9404  0.0841
 5119TIP3   OH236915   2.069   5.372   1.844  0.1186 -0.2913 -0.6150
 5119TIP3    H136916   2.087   5.372   1.750  2.4555  4.6604 -0.5192
 5119TIP3    H236917   2.152   5.344   1.884  0.5303  1.4567 -0.1444
 5120TIP3   OH236918   0.712   1.670   1.079 -0.1926 -0.5284 -0.0494
 5120TIP3    H136919   0.792   1.621   1.060 -0.8458 -1.9454  0.7726
 5120TIP3    H236920   0.730   1.758   1.045  2.0629 -0.5495  0.9204
 5121TIP3   OH236921   5.269   0.940   1.173  0.3276  0.1673 -0.8809
 5121TIP3    H136922   5.253   0.939   1.267  1.2440  0.0494 -0.7186
 5121TIP3    H236923   5.334   1.009   1.160 -0.9745  1.3075 -1.6497
 5122TIP3   OH236924   4.001   5.749   0.009  0.0999  0.4640  0.1725
 5122TIP3    H136925   3.995   5.766   0.103 -0.1345 -2.7621  0.8562
 5122TIP3    H236926   4.093   5.725  -0.005 -0.1850 -0.5030 -0.1040
 5123TIP3   OH236927   5.358   6.158   0.335 -0.0755  0.4501  0.2123
 5123TIP3    H136928   5.415   6.111   0.396  0.6710  0.0960 -0.7318
 5123TIP3    H236929   5.292   6.199   0.390  1.7474  1.8222  1.4596
 5124TIP3   OH236930   3.978   0.232   0.671 -0.0690  0.2477  0.0334
 5124TIP3    H136931   3.973   0.302   0.737 -1.8698 -0.5301  0.7854
 5124TIP3    H236932   3.889   0.224   0.638 -0.0694 -2.1791  0.4866
 5125TIP3   OH236933   0.776   0.930   1.729  0.1530  0.0134 -0.5405
 5125TIP3    H136934   0.849   0.939   1.667  1.8788  0.4293  1.4565
 5125TIP3    H236935   0.775   0.837   1.751  0.1380  0.0317 -0.4651
 5126TIP3   OH236936   4.725   4.044   7.828 -0.1712  0.3339 -0.0223
 5126TIP3    H136937   4.744   3.951   7.814  0.6224  0.4716  0.1085
 5126TIP3    H236938   4.692   4.075   7.743 -2.6758 -0.5753  0.5193
 5127TIP3   OH236939   6.351   3.663   7.634 -0.1207 -0.2949 -0.3138
 5127TIP3    H136940   6.349   3.754   7.605 -0.4349 -0.0728  0.3666
 5127TIP3    H236941   6.304   3.664   7.718  0.5484 -0.9420  0.0812
 5128TIP3   OH236942   3.931   2.334   8.459 -0.0878  0.1822  1.1923
 5128TIP3    H136943   3.989   2.409   8.444 -0.7431  0.2139 -1.6349
 5128TIP3    H236944   3.945   2.277   8.383 -2.4956 -0.6343  1.2921
 5129TIP3   OH236945   0.342   2.484   7.854 -0.3564  0.0835 -0.1710
 5129TIP3    H136946   0.283   2.415   7.825 -0.8193 -0.5695  2.1272
 5129TIP3    H236947   0.296   2.565   7.831  0.0981 -0.3009 -2.6982
 5130TIP3   OH236948   2.667   5.757   0.316  0.3529 -0.6117 -0.1234
 5130TIP3    H136949   2.596   5.809   0.278  0.5061 -0.4466 -0.1874
 5130TIP3    H236950   2.733   5.822   0.342 -0.5406 -0.5632  2.1438
 5131TIP3   OH236951   6.172   0.404   2.405 -0.4565 -0.0237 -0.2571
 5131TIP3    H136952   6.116   0.356   2.345 -0.2446 -2.5485  1.4146
 5131TIP3    H236953   6.154   0.365   2.491 -0.6166  3.2679  1.3784
 5132TIP3   OH236954   3.865   1.808   1.469  0.3597  0.2494 -0.1175
 5132TIP3    H136955   3.879   1.765   1.384 -2.0076 -0.9988  0.0468
 5132TIP3    H236956   3.931   1.877   1.472  2.4648 -1.5592 -1.6623
 5133TIP3   OH236957   1.494   0.127   2.314  0.0835  0.3377 -0.1224
 5133TIP3    H136958   1.456   0.039   2.310 -0.1237  0.4735 -1.6754
 5133TIP3    H236959   1.418   0.185   2.321  0.2496  0.3873  1.9439
 5134TIP3   OH236960   0.164   3.344   7.524 -0.0857  0.2972  0.1875
 5134TIP3    H136961   0.087   3.359   7.579  0.2665  0.7191  0.5697
 5134TIP3    H236962   0.187   3.431   7.491  1.3252  0.4766  1.5521
 5135TIP3   OH236963   6.425   5.773   0.492 -0.2568  0.0358 -0.3426
 5135TIP3    H136964   6.500   5.722   0.523 -0.1670  0.4034  0.0560
 5135TIP3    H236965   6.459   5.862   0.483 -1.2744  0.8030  2.4081
 5136TIP3   OH236966   6.696   0.893   8.119  0.5984  0.6946 -0.7174
 5136TIP3    H136967   6.612   0.900   8.165 -1.1120 -3.2515 -2.6539
 5136TIP3    H236968   6.739   0.817   8.159  1.9923  1.0035 -1.5566
 5137TIP3   OH236969   2.073   0.288   8.081 -0.3408  0.3120 -0.7379
 5137TIP3    H136970   2.121   0.316   8.003  0.2762 -0.4593 -0.6492
 5137TIP3    H236971   2.009   0.225   8.048 -1.6172  1.6557 -0.9157
 5138TIP3   OH236972   3.516   4.134   8.279  0.0360  0.2486  0.2061
 5138TIP3    H136973   3.596   4.106   8.324 -0.2386 -1.2537 -0.1940
 5138TIP3    H236974   3.506   4.226   8.303  1.5092  0.2777  0.8151
 5139TIP3   OH236975   1.874   3.462   2.875 -0.2157 -0.6616 -0.2422
 5139TIP3    H136976   1.822   3.405   2.818 -0.5018 -1.0373  0.3893
 5139TIP3    H236977   1.826   3.545   2.875 -0.4368 -0.7876 -0.2283
 5140TIP3   OH236978   3.753   4.264   2.566 -0.3368 -0.3269 -0.4131
 5140TIP3    H136979   3.728   4.323   2.637  0.3314  0.8879 -1.1387
 5140TIP3    H236980   3.748   4.177   2.603  1.9278  0.3614  1.7659
 5141TIP3   OH236981   2.134   0.179   1.630 -0.7903  0.2656 -0.1959
 5141TIP3    H136982   2.227   0.172   1.651 -1.0706  1.5192  1.7127
 5141TIP3    H236983   2.126   0.263   1.584 -0.7368 -0.7407 -2.1271
 5142TIP3   OH236984   3.297   6.359   1.484  0.2152  0.2412  0.1637
 5142TIP3    H136985   3.273   6.432   1.540  0.9640  0.6786 -0.0839
 5142TIP3    H236986   3.273   6.281   1.535  1.6735  0.6017  1.4631
 5143TIP3   OH236987   4.408   2.169   2.311  0.7771 -0.1972  0.1107
 5143TIP3    H136988   4.408   2.264   2.321  1.0015 -0.0544 -1.0639
 5143TIP3    H236989   4.489   2.140   2.353  0.2884  0.0230  1.2412
 5144TIP3   OH236990   4.556   5.558   2.037 -0.4281 -0.5075  0.0051
 5144TIP3    H136991   4.604   5.533   2.116 -0.5018  0.0036  0.2152
 5144TIP3    H236992   4.616   5.616   1.990 -1.7380  2.3897  1.5780
 5145TIP3   OH236993   1.048   5.373   6.801  0.2918  0.1378  0.6509
 5145TIP3    H136994   1.010   5.457   6.774  1.0403  0.1658 -0.3612
 5145TIP3    H236995   1.049   5.320   6.721  0.3869 -0.6299  1.1446
 5146TIP3   OH236996   6.419   5.553   7.315  0.5926 -0.0552 -0.4098
 5146TIP3    H136997   6.378   5.637   7.296 -0.7808 -0.6786 -0.3460
 5146TIP3    H236998   6.433   5.513   7.229  0.2080 -0.2239 -0.3964
 5147TIP3   OH236999   0.536   2.904   8.148  0.0317  0.2630  0.4407
 5147TIP3    H137000   0.481   2.856   8.209 -0.5353  1.2028  0.6965
 5147TIP3    H237001   0.480   2.920   8.072  0.9761 -1.6199 -0.7422
 5148TIP3   OH237002   5.531   1.246   0.867 -0.4826 -0.2510 -0.6695
 5148TIP3    H137003   5.503   1.155   0.865  3.1286 -1.5782  0.8606
 5148TIP3    H237004   5.560   1.264   0.778 -2.0467 -0.2235 -1.2052
 5149TIP3   OH237005   4.527   0.635   0.700  0.0171  0.1858  0.5375
 5149TIP3    H137006   4.531   0.540   0.706 -1.2826 -0.0148 -1.0074
 5149TIP3    H237007   4.577   0.656   0.620 -1.8528  0.5097 -0.6159
 5150TIP3   OH237008   2.295   6.479   8.423 -0.0740 -0.2360  0.1841
 5150TIP3    H137009   2.354   6.553   8.435  0.2096 -0.6498  1.6430
 5150TIP3    H237010   2.209   6.513   8.449 -0.1213 -0.1674 -0.0586
 5151TIP3   OH237011   6.130   2.050   8.052 -0.1370 -0.4368  0.3607
 5151TIP3    H137012   6.057   2.104   8.023  0.4105 -0.4153 -1.0436
 5151TIP3    H237013   6.089   1.975   8.094 -0.9775 -0.5564 -0.6449
 5152TIP3   OH237014   5.660   6.683   1.326  0.3097 -0.1298 -0.6068
 5152TIP3    H137015   5.754   6.666   1.333  0.6281  1.2279 -1.1748
 5152TIP3    H237016   5.650   6.730   1.243 -1.0214 -1.0918 -1.0344
 5153TIP3   OH237017   4.395   2.466   1.563 -0.1925 -0.4237  0.3484
 5153TIP3    H137018   4.363   2.382   1.596  0.5675 -0.0936  2.0158
 5153TIP3    H237019   4.473   2.485   1.615  1.8472 -0.3991 -2.4238
 5154TIP3   OH237020   1.215   2.190   2.088  0.4671 -0.3448  0.1466
 5154TIP3    H137021   1.160   2.161   2.160 -1.8756  0.6471 -1.1354
 5154TIP3    H237022   1.193   2.283   2.077  1.4749 -0.2400 -1.2426
 5155TIP3   OH237023   2.620   1.035   1.290 -0.0601 -0.1232  0.1220
 5155TIP3    H137024   2.640   1.127   1.309  0.5030  0.1675 -1.6943
 5155TIP3    H237025   2.575   1.038   1.206 -1.1946 -1.4308  0.6532
 5156TIP3   OH237026   0.730   1.971   8.513 -0.3685 -0.2788 -0.7273
 5156TIP3    H137027   0.675   2.021   8.452 -2.3483 -1.1869  0.2444
 5156TIP3    H237028   0.732   1.882   8.476  0.3483 -0.2918 -0.6710
 5157TIP3   OH237029   3.646   0.891   1.481  0.1226 -0.3561  0.1516
 5157TIP3    H137030   3.612   0.952   1.415  2.1701 -0.2610 -0.9041
 5157TIP3    H237031   3.655   0.808   1.435  1.8018 -0.2327  0.1816
 5158TIP3   OH237032   2.912   5.578   8.532 -0.2046  0.3357 -0.3255
 5158TIP3    H137033   2.858   5.645   8.572 -0.7724 -0.1301 -0.3049
 5158TIP3    H237034   2.902   5.501   8.588  0.7403  0.3375 -0.1361
 5159TIP3   OH237035   2.148   5.168   6.896  0.0669  0.0984 -0.3084
 5159TIP3    H137036   2.208   5.126   6.958 -1.9865 -0.1805  1.6209
 5159TIP3    H237037   2.103   5.234   6.947 -2.3897 -0.7650 -1.1989
 5160TIP3   OH237038   2.815   5.277   2.058  0.3657  0.0836  0.2050
 5160TIP3    H137039   2.724   5.265   2.085 -0.0863 -1.0974 -1.6880
 5160TIP3    H237040   2.861   5.299   2.139 -1.4155 -0.2921  1.3777
 5161TIP3   OH237041   1.231   3.220   2.179 -0.1632 -0.2063  0.4192
 5161TIP3    H137042   1.283   3.160   2.233 -0.8223 -1.4575 -0.2630
 5161TIP3    H237043   1.154   3.240   2.232 -1.7092 -2.8572 -0.5872
 5162TIP3   OH237044   1.593   3.603   2.802 -0.7641 -0.1261 -0.4259
 5162TIP3    H137045   1.567   3.525   2.850 -0.9261  0.9496  1.3220
 5162TIP3    H237046   1.636   3.658   2.867  0.2315  0.8302 -1.8394
 5163TIP3   OH237047   3.793   2.501   1.112 -0.8647  0.7048 -0.0692
 5163TIP3    H137048   3.709   2.527   1.075 -0.3658  0.3961 -1.4680
 5163TIP3    H237049   3.827   2.580   1.155 -1.2686  1.1956 -0.6470
 5164TIP3   OH237050   0.748   3.296   2.108  0.3994  0.2823 -0.4622
 5164TIP3    H137051   0.676   3.357   2.090  0.0054 -0.1946 -0.5097
 5164TIP3    H237052   0.749   3.288   2.203  0.5375  0.4575 -0.4467
 5165TIP3   OH237053   0.738   6.155   8.166 -0.6429 -0.6212 -0.3140
 5165TIP3    H137054   0.703   6.089   8.226 -1.2634 -1.4317 -1.5254
 5165TIP3    H237055   0.784   6.217   8.223  0.4056 -2.3658  0.8293
 5166TIP3   OH237056   3.793   6.616   7.500 -0.3087  0.5550 -0.4530
 5166TIP3    H137057   3.826   6.670   7.572 -0.7105  1.2224 -0.7601
 5166TIP3    H237058   3.851   6.636   7.427 -1.2145  1.5505 -0.9266
 5167TIP3   OH237059   0.173   3.950   8.439  0.6033  0.1550  0.0606
 5167TIP3    H137060   0.099   4.010   8.431  0.8447  0.3654 -0.7586
 5167TIP3    H237061   0.177   3.907   8.353 -0.0300 -1.5914  0.8706
 5168TIP3   OH237062   1.081   0.542   7.141 -0.1824  0.6293  0.2949
 5168TIP3    H137063   0.994   0.576   7.119 -0.5173  0.2245  0.9784
 5168TIP3    H237064   1.065   0.478   7.210  0.4469 -0.9695 -0.9911
 5169TIP3   OH237065   2.730   0.662   7.583 -0.6675 -0.0258 -0.3137
 5169TIP3    H137066   2.668   0.630   7.517  0.2458  2.3926 -2.5644
 5169TIP3    H237067   2.688   0.740   7.620  1.5694  3.0634 -3.5104
 5170TIP3   OH237068   2.881   2.822   0.999 -0.4162 -0.1200 -0.3886
 5170TIP3    H137069   2.967   2.783   1.013  0.7745  1.5562 -2.5560
 5170TIP3    H237070   2.846   2.777   0.922 -1.7672 -1.1355  0.7570
 5171TIP3   OH237071   3.117   2.275   2.057  0.1163 -0.0474  0.4548
 5171TIP3    H137072   3.171   2.352   2.077  0.9267 -0.6731  0.7226
 5171TIP3    H237073   3.035   2.290   2.105  0.3103  0.6002  0.5880
 5172TIP3   OH237074   2.212   2.936   0.792  0.0155  0.8929 -0.0833
 5172TIP3    H137075   2.233   2.893   0.875  1.7969  0.7802 -0.5350
 5172TIP3    H237076   2.130   2.897   0.764 -0.2240  0.3925  1.2664
 5173TIP3   OH237077   1.275   0.107   8.573 -0.0328 -0.3894  0.2557
 5173TIP3    H137078   1.288   0.189   8.526  0.6535  0.0864  1.2467
 5173TIP3    H237079   1.248   0.133   8.661  1.2704 -1.1806  0.9134
 5174TIP3   OH237080   2.459   3.654   8.109  0.0354 -0.2613 -0.2154
 5174TIP3    H137081   2.466   3.749   8.117 -0.1222 -0.3815  2.5671
 5174TIP3    H237082   2.377   3.639   8.063  0.1837  0.9331 -0.9043
 5175TIP3   OH237083   2.134   5.598   0.880  0.0273 -0.3903 -0.5032
 5175TIP3    H137084   2.220   5.604   0.837 -0.3320 -2.3156 -1.6022
 5175TIP3    H237085   2.079   5.552   0.817 -2.1585  1.6779 -0.2571
 5176TIP3   OH237086   0.334   3.556   1.708  0.5215  0.3368  0.2575
 5176TIP3    H137087   0.342   3.612   1.785  1.2539  0.0772  0.3718
 5176TIP3    H237088   0.250   3.582   1.669  0.1020  0.4099  1.1821
 5177TIP3   OH237089   2.453   3.015   1.417 -0.3115  0.2573  0.5046
 5177TIP3    H137090   2.460   3.010   1.321 -2.0702  1.0831  0.2712
 5177TIP3    H237091   2.362   2.989   1.435  0.4489 -1.4368  2.1228
 5178TIP3   OH237092   0.973   4.418   1.346  0.3496 -0.3622 -0.0209
 5178TIP3    H137093   1.033   4.348   1.373 -0.0311 -0.5351  0.3832
 5178TIP3    H237094   0.918   4.434   1.423  0.5463  0.5047 -0.0555
 5179TIP3   OH237095   5.382   0.564   8.577 -0.0354 -0.9189  0.0826
 5179TIP3    H137096   5.355   0.610   8.497 -0.1535 -0.2423  0.5073
 5179TIP3    H237097   5.478   0.558   8.570 -0.1873 -2.8394 -1.1603
 5180TIP3   OH237098   6.665   5.101   8.265 -0.3585 -0.0913  0.3339
 5180TIP3    H137099   6.582   5.080   8.221 -0.2775 -0.4739  0.3579
 5180TIP3    H237100   6.717   5.021   8.257  1.2494  1.1063 -2.4333
 5181TIP3   OH237101   2.455   0.158   7.537  0.0763  0.2493 -0.2573
 5181TIP3    H137102   2.489   0.214   7.467  0.2812 -0.9705 -1.1809
 5181TIP3    H237103   2.367   0.191   7.555  0.5051  1.3877 -0.1628
 5182TIP3   OH237104   2.252   3.623   2.475 -0.4182  0.2406 -0.3788
 5182TIP3    H137105   2.211   3.642   2.560 -0.2325 -0.8132 -0.0304
 5182TIP3    H237106   2.217   3.690   2.416 -3.9074 -1.4419 -0.4877
 5183TIP3   OH237107   0.414   5.763   2.572  0.0146  0.4489  0.3917
 5183TIP3    H137108   0.490   5.704   2.568 -0.2023  0.1062  1.1567
 5183TIP3    H237109   0.350   5.716   2.626 -0.5937  0.9064  0.0849
 5184TIP3   OH237110   6.067   5.451   0.424  0.3775  0.1158 -0.4466
 5184TIP3    H137111   6.010   5.374   0.422 -0.3440  0.5609  1.1427
 5184TIP3    H237112   6.083   5.473   0.332  1.2194 -2.3522 -0.9575
 5185TIP3   OH237113   0.748   5.387   6.657  0.2012 -0.4944 -0.1761
 5185TIP3    H137114   0.787   5.474   6.664  0.3756 -0.5671 -0.2554
 5185TIP3    H237115   0.656   5.401   6.680  0.6880 -0.6973  2.1594
 5186TIP3   OH237116   0.785   3.905   8.200  0.0081  0.9118 -0.1150
 5186TIP3    H137117   0.875   3.874   8.190 -1.2567 -2.9971 -1.3591
 5186TIP3    H237118   0.785   3.956   8.281  2.9071 -0.8805  1.1482
 5187TIP3   OH237119   5.775   6.645   2.331  0.1331  0.1040  0.3256
 5187TIP3    H137120   5.783   6.654   2.426  1.3380  1.2477  0.1382
 5187TIP3    H237121   5.859   6.674   2.297 -1.3559  2.9332 -1.2520
 5188TIP3   OH237122   3.292   6.261   7.644  0.0947  0.3084  0.4059
 5188TIP3    H137123   3.219   6.281   7.703 -1.1633 -1.2937 -0.5045
 5188TIP3    H237124   3.330   6.181   7.680  0.0927  0.0047 -0.2478
 5189TIP3   OH237125   0.595   5.278   1.083  0.2681 -0.2199 -0.3003
 5189TIP3    H137126   0.645   5.253   1.161  3.0647 -0.4348 -2.0238
 5189TIP3    H237127   0.538   5.203   1.066 -0.6526 -0.0388  1.6480
 5190TIP3   OH237128   6.832   0.368   8.361  0.3878 -0.8893 -0.5316
 5190TIP3    H137129   6.827   0.343   8.269  0.2903 -0.9716 -0.5059
 5190TIP3    H237130   6.920   0.402   8.373  0.9668 -2.3978 -0.2824
 5191TIP3   OH237131   1.466   0.206   1.828  0.0537 -0.3268  0.6927
 5191TIP3    H137132   1.428   0.258   1.899  4.6016  0.7825  2.7349
 5191TIP3    H237133   1.413   0.127   1.825 -2.9103  1.4187  2.3436
 5192TIP3   OH237134   1.915   4.150   1.591 -0.1614 -0.9736 -0.2853
 5192TIP3    H137135   1.879   4.189   1.671 -0.8335 -1.1987 -0.4766
 5192TIP3    H237136   1.922   4.223   1.530  0.1706 -0.8391 -0.0946
 5193TIP3   OH237137   5.758   6.493   6.714 -0.1061 -0.5566 -0.4882
 5193TIP3    H137138   5.724   6.497   6.804  0.1967 -1.0093 -0.3496
 5193TIP3    H237139   5.714   6.565   6.669  0.5168  0.3578  0.3001
 5194TIP3   OH237140   0.990   6.341   2.204 -0.2252 -0.5924 -0.1655
 5194TIP3    H137141   1.062   6.280   2.187  0.4672  0.0516  0.3556
 5194TIP3    H237142   0.942   6.300   2.277 -0.3925 -1.0194 -0.5073
 5195TIP3   OH237143   0.642   0.940   0.681  0.3509  0.4109 -0.3139
 5195TIP3    H137144   0.594   1.010   0.635 -0.9270 -0.0099  0.3380
 5195TIP3    H237145   0.656   0.873   0.614 -0.0608  0.4983 -0.4932
 5196TIP3   OH237146   1.636   1.394   2.448  0.1378 -0.6111 -0.0214
 5196TIP3    H137147   1.544   1.419   2.462 -0.0752 -1.0340 -0.6450
 5196TIP3    H237148   1.637   1.299   2.459  0.6863 -0.5147  0.9250
 5197TIP3   OH237149   3.518   2.112   1.426  0.1351  0.6040  0.2144
 5197TIP3    H137150   3.500   2.053   1.499 -1.6079  1.9176  0.9138
 5197TIP3    H237151   3.435   2.158   1.412 -0.1904 -0.7633 -3.7414
 5198TIP3   OH237152   2.631   2.353   2.636  0.0985  0.7748  0.1306
 5198TIP3    H137153   2.714   2.399   2.619  0.8144 -0.5755 -0.1752
 5198TIP3    H237154   2.655   2.284   2.699 -1.2115  1.6041  1.6107
 5199TIP3   OH237155   0.907   4.358   0.590 -0.1096  0.2016  0.5629
 5199TIP3    H137156   0.893   4.277   0.640  0.4588  0.1872  0.7160
 5199TIP3    H237157   0.984   4.339   0.536 -0.4124  0.3937  0.0587
 5200TIP3   OH237158   6.301   4.684   7.366  0.1357 -0.5891  0.1602
 5200TIP3    H137159   6.363   4.682   7.292 -0.0558 -0.4675 -0.0048
 5200TIP3    H237160   6.357   4.688   7.444  0.3364 -0.4568  0.0113
 5201TIP3   OH237161   1.044   2.557   7.499 -0.4001  0.1394 -0.6113
 5201TIP3    H137162   1.037   2.485   7.436 -2.2517  1.4517 -2.0215
 5201TIP3    H237163   0.985   2.624   7.465  1.7503  2.6439  0.2664
 5202TIP3   OH237164   1.413   4.159   0.063  0.6256  0.4702  0.3229
 5202TIP3    H137165   1.468   4.094   0.107 -0.1709 -0.1367  0.4326
 5202TIP3    H237166   1.469   4.193  -0.007  1.2623  0.1112  0.6475
 5203TIP3   OH237167   5.080   3.711   2.018 -0.2107  0.3418  0.5429
 5203TIP3    H137168   5.077   3.708   1.922 -0.2830  0.6083  0.5364
 5203TIP3    H237169   5.003   3.763   2.042 -1.0135 -0.9252  0.8104
 5204TIP3   OH237170   3.177   2.111   0.245  0.2686 -0.4104  0.3064
 5204TIP3    H137171   3.185   2.081   0.154  0.5451 -1.1317  0.5583
 5204TIP3    H237172   3.184   2.031   0.297 -1.4280 -0.1946  0.9084
 5205TIP3   OH237173   3.302   4.453   0.671 -0.1228  0.2028 -0.3349
 5205TIP3    H137174   3.357   4.530   0.654  1.0478 -0.8735 -1.6117
 5205TIP3    H237175   3.343   4.383   0.621 -3.1766 -0.4566 -2.1495
 5206TIP3   OH237176   0.138   1.550   2.898  0.2144 -0.3933  0.1373
 5206TIP3    H137177   0.045   1.558   2.919  0.0920  0.4469 -0.6699
 5206TIP3    H237178   0.162   1.635   2.861  0.9037 -1.1238 -1.1764
 5207TIP3   OH237179   2.854   3.008   0.468 -0.4871  0.2625 -0.9921
 5207TIP3    H137180   2.806   3.073   0.416  0.6774  1.0269 -1.1566
 5207TIP3    H237181   2.868   3.050   0.553 -2.0856 -0.8540 -0.1249
 5208TIP3   OH237182   6.718   3.598   1.556  0.6633 -0.2295 -0.6332
 5208TIP3    H137183   6.806   3.585   1.592  0.0979 -1.4183  0.4414
 5208TIP3    H237184   6.688   3.509   1.535 -0.2153  0.1702 -1.1133
 5209TIP3   OH237185   3.554   5.611   0.084 -0.4701 -0.4878  0.0131
 5209TIP3    H137186   3.623   5.614   0.017 -0.3693 -1.3270  0.0684
 5209TIP3    H237187   3.564   5.694   0.132 -1.2371  0.6385 -1.6626
 5210TIP3   OH237188   5.095   5.878   8.197  0.1294 -0.2943 -0.0433
 5210TIP3    H137189   5.085   5.812   8.266 -2.2552  0.6968  0.6729
 5210TIP3    H237190   5.096   5.828   8.116 -0.5425 -1.3007  0.5421
 5211TIP3   OH237191   1.959   4.875   7.884 -0.9058  0.0537  0.2856
 5211TIP3    H137192   1.892   4.829   7.834  0.0809  0.0487 -1.0613
 5211TIP3    H237193   1.918   4.959   7.907 -0.7439  0.9222 -2.2729
 5212TIP3   OH237194   3.560   5.737   7.961  0.2407 -0.4042  0.3397
 5212TIP3    H137195   3.557   5.643   7.944  0.0826 -1.0799  3.4551
 5212TIP3    H237196   3.652   5.760   7.952  0.1232 -0.5760 -1.5645
 5213TIP3   OH237197   3.193   3.175   2.471 -0.4153 -0.3298  0.3566
 5213TIP3    H137198   3.204   3.082   2.492  0.8732  0.1842  2.2431
 5213TIP3    H237199   3.124   3.204   2.531 -0.3519  0.0616  0.2392
 5214TIP3   OH237200   4.888   0.481   0.460 -0.2020 -0.2927  0.1493
 5214TIP3    H137201   4.884   0.472   0.556  0.1392  1.7527  0.4148
 5214TIP3    H237202   4.976   0.513   0.443 -0.7734  0.9451 -0.6493
 5215TIP3   OH237203   2.277   5.606   2.184  0.5557  0.3578  0.2461
 5215TIP3    H137204   2.316   5.612   2.097 -0.1067 -3.9046 -0.5445
 5215TIP3    H237205   2.186   5.578   2.167  0.1257  0.4061  2.2857
 5216TIP3   OH237206   4.152   5.030   2.542 -0.5359 -0.0520  0.4543
 5216TIP3    H137207   4.062   4.997   2.540  0.6323 -3.4962 -1.1537
 5216TIP3    H237208   4.180   5.017   2.633 -0.8346 -1.4722  0.3545
 5217TIP3   OH237209   4.029   6.256   0.298  0.2777  0.3958  0.2670
 5217TIP3    H137210   4.120   6.240   0.323  0.2083  0.1580  0.3704
 5217TIP3    H237211   4.017   6.350   0.314  1.0076  0.8034 -1.4086
 5218TIP3   OH237212   1.894   0.091   0.573 -0.1368 -0.1632 -0.0016
 5218TIP3    H137213   1.804   0.107   0.602 -0.9342 -0.8731 -1.9428
 5218TIP3    H237214   1.948   0.121   0.646 -1.9679 -0.5434  1.5928
 5219TIP3   OH237215   0.901   5.458   8.682 -0.3192 -0.2202  0.0029
 5219TIP3    H137216   0.879   5.547   8.653  0.0566 -1.0510 -3.1832
 5219TIP3    H237217   0.818   5.421   8.712 -0.4621  1.2001  1.4461
 5220TIP3   OH237218   6.706   6.244   7.969 -0.5402 -0.1925  0.3072
 5220TIP3    H137219   6.742   6.331   7.982 -1.3732  0.1048  0.7589
 5220TIP3    H237220   6.686   6.213   8.058  0.3984 -1.1423  0.2113
 5221TIP3   OH237221   6.556   4.618   2.177  0.4881  0.0038  0.5112
 5221TIP3    H137222   6.549   4.591   2.269 -2.2476  1.9961  1.0152
 5221TIP3    H237223   6.625   4.685   2.177  0.7667 -0.2782  1.0321
 5222TIP3   OH237224   5.434   5.511   2.739 -0.0515  0.3467 -0.1069
 5222TIP3    H137225   5.514   5.554   2.709  2.0590 -2.1985  1.3900
 5222TIP3    H237226   5.408   5.562   2.816 -0.2063  1.4738 -0.8727
 5223TIP3   OH237227   6.790   3.419   0.703 -0.1736 -0.4993 -0.2551
 5223TIP3    H137228   6.853   3.427   0.631 -1.5210 -0.7744 -1.5213
 5223TIP3    H237229   6.705   3.422   0.660 -1.0855  1.2499  1.5315
 5224TIP3   OH237230   5.302   2.633   1.341  0.3111  0.1591  0.3368
 5224TIP3    H137231   5.381   2.645   1.288  1.2619 -0.3146  1.5973
 5224TIP3    H237232   5.279   2.541   1.330 -0.9358  0.6135 -1.1576
 5225TIP3   OH237233   3.504   4.770   1.374  1.2479  0.1093 -0.9035
 5225TIP3    H137234   3.491   4.748   1.281 -0.1170  1.7062 -1.1298
 5225TIP3    H237235   3.599   4.780   1.383  1.3907  0.0170 -2.1478
 5226TIP3   OH237236   2.867   5.618   1.357  0.1688 -0.0145 -0.1687
 5226TIP3    H137237   2.923   5.542   1.373 -0.6068 -0.9163 -1.4566
 5226TIP3    H237238   2.823   5.598   1.274 -2.1438  0.5659  0.8158
 5227TIP3   OH237239   5.769   4.910   1.819  0.4775 -0.7621  0.3503
 5227TIP3    H137240   5.747   4.857   1.742 -0.3914  1.8535 -1.3356
 5227TIP3    H237241   5.688   4.913   1.870 -1.1044  2.5414 -1.9515
 5228TIP3   OH237242   1.908   5.170   1.260 -0.2016 -0.4197  0.1911
 5228TIP3    H137243   1.847   5.225   1.211  0.4464  1.6568  1.5786
 5228TIP3    H237244   1.991   5.218   1.257  0.6640 -1.8283  0.6365
 5229TIP3   OH237245   3.801   5.004   1.336 -0.4421  0.2410  0.1373
 5229TIP3    H137246   3.752   4.975   1.413 -0.3228 -1.6083 -0.4335
 5229TIP3    H237247   3.892   5.011   1.366 -0.2938 -1.0740  0.0520
 5230TIP3   OH237248   5.310   3.112   0.061  0.2831 -0.3591  0.8138
 5230TIP3    H137249   5.323   3.068  -0.023  0.4702  1.3188 -0.0751
 5230TIP3    H237250   5.351   3.054   0.125  0.2091 -1.6332 -0.2482
 5231TIP3   OH237251   0.944   1.555   1.031 -0.1271  0.1995 -0.1563
 5231TIP3    H137252   0.977   1.601   0.954 -0.4723 -0.5190 -0.7451
 5231TIP3    H237253   1.015   1.560   1.095 -0.0625  1.3059 -0.2995
 5232TIP3   OH237254   3.003   2.576   7.467 -0.0950  0.6186 -0.0778
 5232TIP3    H137255   2.937   2.541   7.407 -0.7371  0.6291  0.6107
 5232TIP3    H237256   3.072   2.609   7.409 -0.3049 -0.1317 -0.7886
 5233TIP3   OH237257   4.911   5.346   1.676  0.1680 -0.0385  0.4248
 5233TIP3    H137258   4.928   5.252   1.678  0.5083 -0.0566 -1.4268
 5233TIP3    H237259   4.984   5.385   1.724  0.3069 -0.6699  0.7358
 5234TIP3   OH237260   0.453   0.072   1.779  0.2101  0.4479 -0.3794
 5234TIP3    H137261   0.370   0.036   1.808  0.0539  0.7083 -0.4971
 5234TIP3    H237262   0.445   0.166   1.794  1.1589  0.3042  1.3183
 5235TIP3   OH237263   0.691   1.593   7.677  0.2404  0.2691 -0.1315
 5235TIP3    H137264   0.602   1.627   7.691  0.2851  0.1395  0.5086
 5235TIP3    H237265   0.748   1.668   7.689  0.1018  0.9606 -3.0634
 5236TIP3   OH237266   3.638   4.939   8.134  0.1603 -0.2100 -0.0836
 5236TIP3    H137267   3.677   4.863   8.177 -0.7563 -1.5724 -1.5488
 5236TIP3    H237268   3.682   4.943   8.048 -0.5847  0.2467 -0.4548
 5237TIP3   OH237269   6.628   0.100   2.534 -0.3846  0.8377  0.1269
 5237TIP3    H137270   6.618   0.009   2.563 -0.3743  0.9792  0.5882
 5237TIP3    H237271   6.712   0.127   2.570  1.6297 -0.2128 -3.3418
 5238TIP3   OH237272   2.360   2.363   6.882  0.4134 -0.4971 -0.8158
 5238TIP3    H137273   2.406   2.426   6.939 -1.1893 -0.1103  0.1230
 5238TIP3    H237274   2.337   2.414   6.804 -0.8732  0.1235 -0.0604
 5239TIP3   OH237275   0.656   1.020   7.839 -0.4084  0.0900  0.2391
 5239TIP3    H137276   0.704   0.950   7.794 -0.8922  0.3492 -0.7202
 5239TIP3    H237277   0.631   0.982   7.923 -0.0391 -0.6412  0.0277
 5240TIP3   OH237278   5.579   6.432   7.797 -0.1673 -0.2484  0.3724
 5240TIP3    H137279   5.498   6.484   7.794 -0.8762 -1.2657  0.9916
 5240TIP3    H237280   5.608   6.429   7.706 -0.3276  0.8825  0.2682
 5241TIP3   OH237281   5.768   0.275   8.653 -0.0727  0.5519  0.1094
 5241TIP3    H137282   5.690   0.241   8.695 -0.3301  1.6401  0.5612
 5241TIP3    H237283   5.782   0.218   8.577 -0.2225 -0.7782  1.0479
 5242TIP3   OH237284   2.806   4.195   2.621  0.0997  0.2227 -0.7252
 5242TIP3    H137285   2.843   4.119   2.666 -2.1776 -0.2723  0.4269
 5242TIP3    H237286   2.796   4.261   2.689 -0.8622  0.4342 -1.0669
 5243TIP3   OH237287   2.050   1.031   0.490  0.4403  0.1858 -0.3557
 5243TIP3    H137288   2.118   0.995   0.547 -1.4914 -0.1880  1.8624
 5243TIP3    H237289   1.971   1.031   0.543 -1.0290  1.9714 -2.3389
 5244TIP3   OH237290   3.760   0.265   0.503 -0.0863  0.6327  0.1617
 5244TIP3    H137291   3.706   0.344   0.512 -0.1042  0.7077 -0.5565
 5244TIP3    H237292   3.830   0.291   0.443  0.6221  0.4668  0.9007
 5245TIP3   OH237293   6.800   4.859   8.318 -0.0695 -0.6002 -0.5428
 5245TIP3    H137294   6.884   4.826   8.287  0.0680 -0.0870 -0.7219
 5245TIP3    H237295   6.735   4.815   8.263  0.0474 -1.3569 -0.0961
 5246TIP3   OH237296   2.991   2.770   0.092  0.0775 -0.0969 -0.1374
 5246TIP3    H137297   3.004   2.861   0.066 -1.4221 -0.0090 -0.6497
 5246TIP3    H237298   3.010   2.719   0.013 -2.0806  0.0041 -0.7627
 5247TIP3   OH237299   0.423   1.197   8.411 -0.0220 -0.1022 -0.0393
 5247TIP3    H137300   0.345   1.220   8.462 -0.1948 -0.1694 -0.2736
 5247TIP3    H237301   0.397   1.211   8.320 -0.1608 -1.3365 -0.1955
 5248TIP3   OH237302   2.285   3.563   7.905 -0.1300  0.2207 -0.4990
 5248TIP3    H137303   2.189   3.564   7.908 -0.2054 -1.2595 -1.4324
 5248TIP3    H237304   2.307   3.475   7.874  1.4549  1.1810 -2.3329
 5249TIP3   OH237305   1.848   2.816   0.189 -0.2744  0.2056 -0.0667
 5249TIP3    H137306   1.776   2.865   0.228  1.2264  2.1758  0.3929
 5249TIP3    H237307   1.887   2.877   0.126  1.0855 -0.7353 -0.1796
 5250TIP3   OH237308   4.441   5.170   8.214  1.0542 -0.3683 -0.4177
 5250TIP3    H137309   4.424   5.244   8.157 -1.7992  0.0810  0.8445
 5250TIP3    H237310   4.390   5.098   8.177  1.0455 -0.7117  0.2321
 5251TIP3   OH237311   3.616   2.729   8.472  0.2524 -0.8321 -0.5804
 5251TIP3    H137312   3.666   2.742   8.392  2.1548  0.5666  0.7223
 5251TIP3    H237313   3.683   2.716   8.540 -1.2254 -0.9063  0.9417
 5252TIP3   OH237314   3.822   6.089   8.229  0.0010 -0.8086 -0.4386
 5252TIP3    H137315   3.839   6.138   8.310 -0.4247  0.6715 -1.2188
 5252TIP3    H237316   3.903   6.097   8.179 -0.2517 -0.4498 -0.7941
 5253TIP3   OH237317   5.101   0.405   1.936 -0.5352 -0.5919  0.2798
 5253TIP3    H137318   5.096   0.464   1.861  0.8683 -0.1763  0.4838
 5253TIP3    H237319   5.101   0.317   1.898  0.1327 -0.3815 -0.2198
 5254TIP3   OH237320   1.216   5.106   0.307 -0.2099  0.6630  0.2499
 5254TIP3    H137321   1.292   5.134   0.255 -0.2151 -2.5286 -1.7342
 5254TIP3    H237322   1.253   5.077   0.391  1.1732 -2.4017 -1.2732
 5255TIP3   OH237323   5.508   3.340   0.843 -0.1016 -0.0240  0.7299
 5255TIP3    H137324   5.541   3.251   0.829 -0.7433  0.0242 -1.4129
 5255TIP3    H237325   5.501   3.377   0.756  0.5021  2.3008  1.6035
 5256TIP3   OH237326   0.869   1.332   1.656  0.1331 -0.3574  0.2069
 5256TIP3    H137327   0.843   1.407   1.710 -0.4641 -1.3814  1.4076
 5256TIP3    H237328   0.789   1.308   1.608  0.2504 -0.3689  0.0175
 5257TIP3   OH237329   6.416   4.448   2.017 -0.6184  0.6287  0.6224
 5257TIP3    H137330   6.481   4.509   2.050 -0.7271  0.4243  1.2422
 5257TIP3    H237331   6.347   4.449   2.084 -0.1450 -0.9398  1.1860
 5258TIP3   OH237332   2.689   0.931   7.462 -0.0735 -0.3389  0.3253
 5258TIP3    H137333   2.617   0.986   7.491 -0.8341 -0.4911 -1.1802
 5258TIP3    H237334   2.651   0.876   7.393  0.8445 -2.2201  1.2395
 5259TIP3   OH237335   1.586   5.911   2.961 -0.4481 -0.7286 -0.0329
 5259TIP3    H137336   1.660   5.875   2.912  1.3036 -1.6311  2.9982
 5259TIP3    H237337   1.535   5.834   2.986 -1.8238 -0.2054 -1.0731
 5260TIP3   OH237338   5.581   3.206   1.700 -0.9406  0.2131 -0.0719
 5260TIP3    H137339   5.656   3.265   1.704  0.2392 -1.2365 -0.1252
 5260TIP3    H237340   5.523   3.245   1.635  0.0693  0.9969 -0.5245
 5261TIP3   OH237341   4.692   0.878   8.002 -0.2394 -0.3555 -0.9372
 5261TIP3    H137342   4.626   0.849   7.939 -2.1589 -0.7215  1.1110
 5261TIP3    H237343   4.657   0.960   8.037 -0.5912 -1.4069  1.4201
 5262TIP3   OH237344   6.763   5.370   8.491  0.2585 -0.3854 -0.4359
 5262TIP3    H137345   6.709   5.307   8.538  0.2355 -1.2626 -1.5928
 5262TIP3    H237346   6.840   5.381   8.547 -1.3053  1.3614  1.5423
 5263TIP3   OH237347   3.422   2.679   1.331  0.1799  0.4115  0.0319
 5263TIP3    H137348   3.409   2.633   1.247  1.5935 -0.5567  0.2937
 5263TIP3    H237349   3.481   2.751   1.309 -1.2087  1.5055 -0.1860
 5264TIP3   OH237350   1.307   5.448   2.293 -0.0829  0.1028 -0.1273
 5264TIP3    H137351   1.343   5.373   2.340  0.2479  0.9882  1.0592
 5264TIP3    H237352   1.213   5.433   2.291 -0.0408 -0.2143  0.3309
 5265TIP3   OH237353   0.772   6.349   0.856  0.6959 -0.5022 -0.0787
 5265TIP3    H137354   0.695   6.325   0.907  1.0625  1.5943  1.6116
 5265TIP3    H237355   0.846   6.321   0.910  1.1765 -2.0596 -1.4638
 5266TIP3   OH237356   5.147   5.433   8.369 -0.8780 -0.5051 -0.6622
 5266TIP3    H137357   5.210   5.385   8.316 -0.9502 -0.2709 -0.9679
 5266TIP3    H237358   5.075   5.372   8.383  0.4462 -1.6268  1.7476
 5267TIP3   OH237359   0.262   5.362   2.968  0.3963 -0.0154  0.2978
 5267TIP3    H137360   0.286   5.270   2.981 -1.1581 -0.6084 -0.7354
 5267TIP3    H237361   0.166   5.362   2.967  0.3728  1.4184 -1.0052
 5268TIP3   OH237362   6.610   4.182   8.287 -0.6660 -0.3807 -0.2487
 5268TIP3    H137363   6.591   4.088   8.289  0.0879 -0.5306  0.3884
 5268TIP3    H237364   6.561   4.215   8.211 -1.5137 -1.1533 -0.0615
 5269TIP3   OH237365   0.798   6.276   7.046 -0.5636  0.7774 -0.2188
 5269TIP3    H137366   0.856   6.202   7.067 -3.3824 -1.0866  1.6974
 5269TIP3    H237367   0.781   6.266   6.952 -0.2459 -0.5354 -0.1705
 5270TIP3   OH237368   4.333   1.984   7.812  0.5762 -0.2671  0.0265
 5270TIP3    H137369   4.413   2.032   7.790  0.3837  0.3370  0.6172
 5270TIP3    H237370   4.358   1.926   7.883  0.3371  0.4320  0.6988
 5271TIP3   OH237371   0.896   0.991   8.651  0.0301  0.6835  0.0889
 5271TIP3    H137372   0.810   1.026   8.676 -1.0619 -1.8780  0.2013
 5271TIP3    H237373   0.932   0.957   8.733  1.1897  1.7172  0.0330
 5272TIP3   OH237374   0.747   0.348   7.665 -0.2850  0.3342 -0.3096
 5272TIP3    H137375   0.806   0.411   7.625 -0.2770  0.3457 -0.2794
 5272TIP3    H237376   0.663   0.362   7.621 -0.3186  0.4614 -0.2044
 5273TIP3   OH237377   1.236   1.856   2.895  0.4382 -0.5965 -0.0365
 5273TIP3    H137378   1.280   1.893   2.972  0.7154 -0.2314 -0.3634
 5273TIP3    H237379   1.153   1.903   2.889 -0.5052 -2.0154  1.1954
 5274TIP3   OH237380   4.803   0.856   2.314 -0.4219  0.0607  0.1223
 5274TIP3    H137381   4.839   0.769   2.297 -0.9827  0.1316 -1.6263
 5274TIP3    H237382   4.708   0.844   2.309 -0.4929  0.8533 -0.6085
 5275TIP3   OH237383   5.301   1.884   1.315 -0.3054 -0.1858  0.2543
 5275TIP3    H137384   5.207   1.901   1.321 -0.3782 -1.1314  2.8664
 5275TIP3    H237385   5.340   1.939   1.383  0.9341 -0.4668 -0.2098
 5276TIP3   OH237386   3.165   2.051   8.625  0.2586 -0.3336 -0.1645
 5276TIP3    H137387   3.185   1.982   8.562 -0.6575 -0.0155 -0.8220
 5276TIP3    H237388   3.072   2.039   8.646  0.6294 -0.6995  1.4674
 5277TIP3   OH237389   4.492   1.329   1.727  0.3460  0.3719  0.2904
 5277TIP3    H137390   4.456   1.349   1.814 -1.8573 -0.3016 -0.4214
 5277TIP3    H237391   4.449   1.391   1.668  1.8418  0.8436 -0.3752
 5278TIP3   OH237392   1.800   1.031   0.591 -0.1086 -0.0988  0.4335
 5278TIP3    H137393   1.762   1.015   0.678  0.9260  0.0753  0.9353
 5278TIP3    H237394   1.734   0.999   0.530 -0.8865 -0.1649  1.2821
 5279TIP3   OH237395   2.251   2.160   7.663 -0.0636  0.0128  0.1498
 5279TIP3    H137396   2.156   2.155   7.658  0.0157 -1.0992 -0.9203
 5279TIP3    H237397   2.279   2.068   7.670  1.0231 -0.0943 -3.3789
 5280TIP3   OH237398   4.862   6.142   7.604 -0.5332  0.3001 -0.0875
 5280TIP3    H137399   4.949   6.116   7.634  0.4358  0.8918 -2.1935
 5280TIP3    H237400   4.861   6.120   7.511 -2.0185  1.8379 -0.4912
 5281TIP3   OH237401   5.556   5.040   1.550  0.0453 -0.2972  0.1810
 5281TIP3    H137402   5.645   5.058   1.518 -0.2338  1.9603  0.5173
 5281TIP3    H237403   5.565   4.958   1.597  2.0121 -0.0693  0.3196
 5282TIP3   OH237404   1.221   2.166   2.575 -0.1010 -0.4545  0.2496
 5282TIP3    H137405   1.270   2.185   2.655  0.9795  0.0124 -0.4922
 5282TIP3    H237406   1.130   2.183   2.598  0.4019  1.9496  0.7674
 5283TIP3   OH237407   6.040   3.376   1.189  0.0124  0.3307  0.7026
 5283TIP3    H137408   6.057   3.452   1.243  2.5699  0.4126 -0.0386
 5283TIP3    H237409   5.952   3.389   1.154 -0.6300  1.5889  2.6465
 5284TIP3   OH237410   2.855   2.480   2.560 -0.1078 -0.1257  0.1099
 5284TIP3    H137411   2.846   2.575   2.555  1.0974 -0.0190 -0.5554
 5284TIP3    H237412   2.950   2.465   2.566 -0.0981 -1.3222 -1.8415
 5285TIP3   OH237413   1.490   1.627   1.047 -0.0829  0.6523  0.4585
 5285TIP3    H137414   1.458   1.685   1.116 -0.4941  0.9945 -0.0162
 5285TIP3    H237415   1.494   1.541   1.089  1.8852  1.2359  1.5775
 5286TIP3   OH237416   1.413   3.321   0.001  0.3127 -0.1835  0.0301
 5286TIP3    H137417   1.448   3.252  -0.055  1.9754  0.2186  0.5401
 5286TIP3    H237418   1.385   3.277   0.081  1.4645 -0.2628  0.3954
 5287TIP3   OH237419   0.095   1.779   1.024 -0.1070  0.7767  0.2833
 5287TIP3    H137420   0.052   1.707   1.069  0.0336  0.4488 -0.0943
 5287TIP3    H237421   0.180   1.787   1.067  0.3551 -0.0665 -0.4219
 5288TIP3   OH237422   4.464   4.733   7.638 -0.1046 -0.7647  0.1568
 5288TIP3    H137423   4.404   4.728   7.713 -0.6049 -1.5869 -0.2847
 5288TIP3    H237424   4.417   4.785   7.573 -0.0029 -0.7272  0.1129
 5289TIP3   OH237425   3.015   6.336   7.715 -0.3200 -0.0259 -0.4655
 5289TIP3    H137426   2.983   6.389   7.788  0.3083 -0.1953 -0.0587
 5289TIP3    H237427   3.041   6.401   7.649 -0.3681  0.1440 -0.3190
 5290TIP3   OH237428   5.592   3.960   0.203 -0.2586  0.4698  0.2012
 5290TIP3    H137429   5.514   3.997   0.162  0.3880  1.8260  0.1275
 5290TIP3    H237430   5.665   3.997   0.153  0.4742  0.5148  1.2599
 5291TIP3   OH237431   3.644   4.708   0.238 -0.7848 -0.6554  0.0341
 5291TIP3    H137432   3.646   4.615   0.257  0.7128 -0.2168  2.3715
 5291TIP3    H237433   3.687   4.716   0.152  0.6646 -1.9660  0.6060
 5292TIP3   OH237434   6.076   1.217   0.522 -0.4275 -0.0011  0.0925
 5292TIP3    H137435   6.105   1.154   0.456 -1.2531  0.9437 -1.2438
 5292TIP3    H237436   6.139   1.289   0.516 -1.0458  0.5146 -0.3650
 5293TIP3   OH237437   1.847   4.938   1.957  0.3066  0.0039 -0.9394
 5293TIP3    H137438   1.857   4.960   2.049 -0.1289  0.6938 -1.0504
 5293TIP3    H237439   1.754   4.916   1.948  0.4975 -0.7767 -1.0675
 5294TIP3   OH237440   6.167   1.367   8.156 -0.3268  0.6862 -0.3191
 5294TIP3    H137441   6.093   1.427   8.166  0.6728  2.2564 -1.7632
 5294TIP3    H237442   6.178   1.358   8.062 -0.1332 -1.4349 -0.1362
 5295TIP3   OH237443   2.168   3.542   0.864  0.1123  0.3267 -0.5409
 5295TIP3    H137444   2.191   3.571   0.952  0.8938 -2.1306  0.1534
 5295TIP3    H237445   2.191   3.615   0.808 -1.1006  2.2752  1.3256
 5296TIP3   OH237446   6.583   3.156   8.514  0.1243 -0.3951  0.3787
 5296TIP3    H137447   6.536   3.073   8.526 -0.4376  0.1044  1.8798
 5296TIP3    H237448   6.675   3.133   8.528  0.0438 -0.8759  0.1578
 5297TIP3   OH237449   0.600   5.609   1.410  0.1557 -0.4235 -0.2027
 5297TIP3    H137450   0.685   5.642   1.380  0.2244  1.2585  1.6805
 5297TIP3    H237451   0.620   5.526   1.452  1.0529  0.3518  0.9813
 5298TIP3   OH237452   2.465   4.434   8.133  0.0058 -0.0092 -0.1625
 5298TIP3    H137453   2.405   4.429   8.207  1.3257 -0.7230  0.8965
 5298TIP3    H237454   2.537   4.490   8.163  2.1962 -2.8998  0.3825
 5299TIP3   OH237455   0.387   1.327   0.179 -0.6367  0.4915  0.1760
 5299TIP3    H137456   0.376   1.296   0.269  1.7351  0.2876  0.4597
 5299TIP3    H237457   0.398   1.421   0.187  1.0118  0.3176  0.3039
 5300TIP3   OH237458   2.103   6.160   8.606  0.4931 -0.1866 -0.8016
 5300TIP3    H137459   2.163   6.092   8.636  1.9234  1.8596  1.4122
 5300TIP3    H237460   2.018   6.136   8.644  1.2614 -0.1483  1.0787
 5301TIP3   OH237461   2.905   0.868   0.428 -0.3003 -0.2697  0.0745
 5301TIP3    H137462   2.831   0.863   0.369 -0.1773  0.8291 -0.1927
 5301TIP3    H237463   2.875   0.826   0.508 -1.4126  0.6448  0.1631
 5302TIP3   OH237464   1.749   4.062   0.463  0.1436 -0.1108 -0.0491
 5302TIP3    H137465   1.807   4.027   0.530 -1.1671 -0.0584  1.1716
 5302TIP3    H237466   1.704   4.135   0.505  0.4461  0.9921 -1.5193
 5303TIP3   OH237467   1.793   0.327   0.291  0.1133 -0.1462  0.5074
 5303TIP3    H137468   1.821   0.355   0.378  2.0256 -0.0788 -0.0896
 5303TIP3    H237469   1.852   0.255   0.268  0.2453  0.4225 -1.0851
 5304TIP3   OH237470   5.072   5.964   0.400  0.2537  0.2099  0.3658
 5304TIP3    H137471   5.150   5.911   0.416  0.2986  0.1625 -0.0053
 5304TIP3    H237472   5.099   6.054   0.418  0.1780  0.1161  0.9966
 5305TIP3   OH237473   0.751   6.693   2.172  0.0686  0.5263 -0.3747
 5305TIP3    H137474   0.819   6.651   2.121  1.0588  1.0932  0.4447
 5305TIP3    H237475   0.671   6.647   2.148  0.8037 -0.4556 -1.0069
 5306TIP3   OH237476   0.800   2.009   0.323 -0.5637 -0.3384 -0.1887
 5306TIP3    H137477   0.749   1.962   0.257 -0.7139  1.1587 -1.1852
 5306TIP3    H237478   0.842   2.081   0.275  0.3918  0.0184  1.1072
 5307TIP3   OH237479   2.032   4.141   1.239 -0.0960  0.2512 -0.0243
 5307TIP3    H137480   1.949   4.161   1.196 -0.7409 -1.5659  0.2980
 5307TIP3    H237481   2.093   4.126   1.167 -0.4028  0.2246 -0.2805
 5308TIP3   OH237482   2.725   0.515   8.139 -0.6470  0.4482 -0.0806
 5308TIP3    H137483   2.706   0.452   8.208 -0.9017  0.4242 -0.1713
 5308TIP3    H237484   2.659   0.584   8.150 -0.5752  0.5350 -0.1848
 5309TIP3   OH237485   5.386   0.015   0.360  0.6580 -0.2280  0.1073
 5309TIP3    H137486   5.356   0.104   0.340 -1.1688 -0.3342  2.0007
 5309TIP3    H237487   5.475   0.026   0.392  1.1071  0.6896 -1.4084
 5310TIP3   OH237488   2.395   0.192   2.694  0.2804  0.1417  0.5353
 5310TIP3    H137489   2.338   0.172   2.620  0.0768 -0.4100  0.8330
 5310TIP3    H237490   2.350   0.154   2.769  1.5893 -1.3940  0.6171
 5311TIP3   OH237491   0.172   1.487   8.384 -0.4790  0.2359  0.5389
 5311TIP3    H137492   0.208   1.432   8.452 -2.0840 -1.3343  0.1856
 5311TIP3    H237493   0.227   1.471   8.308 -0.9327 -0.9309  0.4396
 5312TIP3   OH237494   2.644   3.441   0.026 -0.0144 -0.6276 -0.1954
 5312TIP3    H137495   2.605   3.484   0.102  1.4996 -1.0335  0.8728
 5312TIP3    H237496   2.651   3.349   0.052  2.4116 -0.4328  0.0700
 5313TIP3   OH237497   2.384   0.830   1.301 -0.2501  0.4168 -0.1718
 5313TIP3    H137498   2.441   0.885   1.356 -1.6301  1.0759  0.6542
 5313TIP3    H237499   2.301   0.877   1.298 -1.2678 -1.2923 -0.0024
 5314TIP3   OH237500   6.634   1.496   8.644 -0.2407 -0.0076 -0.1390
 5314TIP3    H137501   6.567   1.564   8.630  1.3081  1.6015 -0.0703
 5314TIP3    H237502   6.714   1.533   8.607  0.9173 -1.3154  0.9619
 5315TIP3   OH237503   1.272   1.235   2.329 -0.1347  0.4101  0.4673
 5315TIP3    H137504   1.178   1.217   2.318 -0.2594  2.2728 -2.6450
 5315TIP3    H237505   1.276   1.289   2.408 -1.6607  0.0887  0.8021
 5316TIP3   OH237506   1.896   4.723   2.252 -0.5984 -0.3341  0.6650
 5316TIP3    H137507   1.937   4.736   2.166  1.0667 -1.3530  1.2611
 5316TIP3    H237508   1.836   4.650   2.239  1.8680 -2.5456  0.9812
 5317TIP3   OH237509   5.097   6.744   7.763  0.4984 -0.1051  0.0946
 5317TIP3    H137510   5.075   6.773   7.674 -0.4522 -1.4783 -0.1599
 5317TIP3    H237511   5.111   6.825   7.812 -0.8937  0.7402 -0.8325
 5318TIP3   OH237512   3.774   1.335   1.920  0.6228 -0.1180  0.6446
 5318TIP3    H137513   3.702   1.399   1.928 -1.8433 -2.6963  0.7520
 5318TIP3    H237514   3.828   1.368   1.849 -0.0629  2.4766  1.2219
 5319TIP3   OH237515   1.551   1.012   2.029 -0.8342 -0.5160  0.2410
 5319TIP3    H137516   1.555   1.009   1.934 -0.7719  0.9318  0.1840
 5319TIP3    H237517   1.545   0.920   2.056 -2.0898 -0.8889 -1.1957
 5320TIP3   OH237518   6.328   1.693   2.760 -0.2172 -0.9277  0.0577
 5320TIP3    H137519   6.360   1.604   2.746  0.9628 -0.3862 -0.8266
 5320TIP3    H237520   6.397   1.749   2.725 -1.3540  0.3240 -0.2517
 5321TIP3   OH237521   4.037   4.675   0.975  0.1730  0.5030  0.5119
 5321TIP3    H137522   4.014   4.762   1.009  0.8668  0.2233  1.7502
 5321TIP3    H237523   4.005   4.676   0.884  0.2148  2.0688  0.4803
 5322TIP3   OH237524   6.637   2.664   0.512  0.7405  0.1816 -0.5334
 5322TIP3    H137525   6.544   2.646   0.498  1.1841 -0.6477 -2.8398
 5322TIP3    H237526   6.639   2.746   0.562 -1.2242 -0.1669  0.1625
 5323TIP3   OH237527   5.187   1.620   1.063  0.1288  0.0039 -0.4729
 5323TIP3    H137528   5.099   1.650   1.085  0.1532 -0.1834 -0.1106
 5323TIP3    H237529   5.238   1.634   1.143 -0.4455 -3.3299  0.6152
 5324TIP3   OH237530   5.794   6.034   2.378  0.4108 -0.1588 -0.3656
 5324TIP3    H137531   5.849   6.030   2.456  0.6030 -2.2664 -0.5589
 5324TIP3    H237532   5.795   6.127   2.352  2.9096  0.0617  0.2990
 5325TIP3   OH237533   5.013   4.615   2.590  0.2118 -0.1651  0.0105
 5325TIP3    H137534   5.034   4.677   2.659  0.6130  0.0861 -0.3320
 5325TIP3    H237535   5.082   4.627   2.524  0.3555 -1.0471 -0.0173
 5326TIP3   OH237536   4.003   4.219   1.939  0.5082 -0.2507  0.1014
 5326TIP3    H137537   4.037   4.302   1.973 -0.3661 -0.7451  2.3238
 5326TIP3    H237538   3.998   4.162   2.015 -2.7243 -1.0640 -0.5724
 5327TIP3   OH237539   3.977   3.315   0.977 -0.6585  0.7600  0.0101
 5327TIP3    H137540   3.979   3.276   0.889  0.7571 -1.2734  0.8621
 5327TIP3    H237541   4.053   3.374   0.978 -0.9387  1.1269 -0.2712
 5328TIP3   OH237542   6.264   1.646   0.982  0.1212  0.5848  0.2424
 5328TIP3    H137543   6.359   1.646   0.997 -0.1051  0.8808  1.8453
 5328TIP3    H237544   6.251   1.706   0.908  1.2162  0.1393 -0.3303
 5329TIP3   OH237545   0.916   2.713   1.665 -0.1179 -0.3505 -0.1539
 5329TIP3    H137546   0.989   2.676   1.715 -0.7657 -0.1284  0.9794
 5329TIP3    H237547   0.922   2.807   1.681  0.1417 -0.1797 -1.1646
 5330TIP3   OH237548   6.242   6.701   1.437 -0.4084  0.5977  0.0357
 5330TIP3    H137549   6.326   6.738   1.410  0.0750 -0.0181  0.6509
 5330TIP3    H237550   6.264   6.616   1.475 -1.2799  0.5560  0.4911
 5331TIP3   OH237551   2.372   2.893   6.936  0.1694  0.0967  0.5762
 5331TIP3    H137552   2.345   2.923   6.849 -0.1272  1.1045  1.0044
 5331TIP3    H237553   2.403   2.972   6.980 -0.1019 -0.3217  1.5458
 5332TIP3   OH237554   1.884   6.271   0.543  0.1255  0.0920  0.3466
 5332TIP3    H137555   1.846   6.204   0.485 -0.5295  0.5460  0.2431
 5332TIP3    H237556   1.922   6.336   0.484 -2.5506  1.7466  0.3024
 5333TIP3   OH237557   2.216   0.791   0.600  0.0839 -0.2208 -0.1113
 5333TIP3    H137558   2.125   0.760   0.601 -0.7700  2.0683 -0.5379
 5333TIP3    H237559   2.255   0.746   0.526 -0.3508 -2.0436  0.6994
 5334TIP3   OH237560   6.126   4.161   8.084 -0.2167  0.0671  0.1039
 5334TIP3    H137561   6.218   4.174   8.108  0.1475  1.7118 -1.9356
 5334TIP3    H237562   6.123   4.072   8.048  0.4818 -0.1275  0.5003
 5335TIP3   OH237563   1.181   1.619   2.007 -0.2296 -0.4040  0.4861
 5335TIP3    H137564   1.187   1.575   2.092 -2.2193  0.6267  1.2178
 5335TIP3    H237565   1.120   1.691   2.022  1.4250  1.4281 -1.1681
 5336TIP3   OH237566   4.155   5.293   2.442 -0.2390 -0.2828  0.7822
 5336TIP3    H137567   4.102   5.333   2.511  1.2274  0.0974  1.7359
 5336TIP3    H237568   4.161   5.200   2.468  1.8177  0.1839  2.2585
 5337TIP3   OH237569   6.740   6.329   3.232  0.3350  0.2111 -0.0893
 5337TIP3    H137570   6.754   6.345   3.139 -0.1063  0.1386 -0.1681
 5337TIP3    H237571   6.828   6.335   3.270  0.5410  0.0663 -0.5323
 5338TIP3   OH237572   3.664   5.691   0.839 -0.0820 -0.3250 -0.3042
 5338TIP3    H137573   3.609   5.615   0.822  0.7470 -1.2946  1.1362
 5338TIP3    H237574   3.666   5.698   0.935  0.5525  0.9898 -0.3942
 5339TIP3   OH237575   1.507   5.044   0.891  0.4909 -0.4941 -0.8177
 5339TIP3    H137576   1.428   4.995   0.868 -0.0339  0.4998 -1.1915
 5339TIP3    H237577   1.523   5.023   0.983  0.2350 -1.2908 -0.9488
 5340TIP3   OH237578   1.399   6.739   2.290 -0.6395 -0.1726  0.0748
 5340TIP3    H137579   1.488   6.708   2.273 -1.4934 -2.5047 -0.7041
 5340TIP3    H237580   1.360   6.745   2.203 -1.1329  1.2659  0.3782
 5341TIP3   OH237581   3.317   1.215   0.594 -0.1071 -0.0573 -0.1913
 5341TIP3    H137582   3.358   1.246   0.675 -0.8372  0.4721 -0.0114
 5341TIP3    H237583   3.355   1.129   0.579  2.1533  0.9875 -0.8290
 5342TIP3   OH237584   4.531   3.788   1.442  0.0299 -0.2713 -0.2256
 5342TIP3    H137585   4.531   3.762   1.534 -0.8106 -1.7680 -0.6133
 5342TIP3    H237586   4.622   3.782   1.415 -0.0587 -2.6134 -0.1977
 5343TIP3   OH237587   1.906   4.280   0.308  0.0307  0.1945 -0.3954
 5343TIP3    H137588   1.885   4.278   0.402 -0.1434  0.9766 -0.4143
 5343TIP3    H237589   1.832   4.324   0.267 -0.1829 -0.6871 -0.9926
 5344TIP3   OH237590   2.997   5.443   2.542  0.0174  0.1000 -0.2702
 5344TIP3    H137591   3.015   5.382   2.613 -0.0358  1.9636  1.4287
 5344TIP3    H237592   2.930   5.502   2.577  1.2846  2.1791 -1.1573
 5345TIP3   OH237593   6.494   1.025   1.137  0.1219 -0.2028  0.0478
 5345TIP3    H137594   6.423   1.050   1.078 -0.2618  0.5935  0.8252
 5345TIP3    H237595   6.574   1.053   1.092 -0.1635  0.3905 -0.1007
 5346TIP3   OH237596   3.382   4.740   0.618  0.1167  0.7616 -0.1011
 5346TIP3    H137597   3.374   4.788   0.700  0.2910  1.2624 -0.3696
 5346TIP3    H237598   3.474   4.714   0.615  0.3198  1.4891 -0.5341
 5347TIP3   OH237599   5.165   1.020   2.879 -0.3284 -0.4358  0.8703
 5347TIP3    H137600   5.187   1.074   2.956  0.3902 -0.9976  1.0709
 5347TIP3    H237601   5.249   0.992   2.845 -0.6045  0.4237 -0.6014
 5348TIP3   OH237602   1.631   5.490   7.431 -0.7511 -0.1537 -0.5154
 5348TIP3    H137603   1.630   5.532   7.345 -1.0763  0.0468 -0.4165
 5348TIP3    H237604   1.538   5.478   7.453 -0.6679 -0.3381 -0.2590
 5349TIP3   OH237605   2.417   1.681   1.981  0.6482 -0.4592 -0.0849
 5349TIP3    H137606   2.404   1.760   1.929  2.1147 -1.9136 -2.8824
 5349TIP3    H237607   2.493   1.702   2.036 -0.6721  0.9660  1.2711
 5350TIP3   OH237608   1.732   6.709   2.857 -1.0831  0.2972  0.1195
 5350TIP3    H137609   1.822   6.698   2.829 -1.0126  0.2942  0.3448
 5350TIP3    H237610   1.736   6.711   2.953 -1.6461 -2.7839  0.2940
 5351TIP3   OH237611   4.229   3.613   0.733 -0.8841 -0.3878 -0.4701
 5351TIP3    H137612   4.298   3.629   0.668  0.0444  0.1123  0.6052
 5351TIP3    H237613   4.148   3.609   0.682  0.0178 -1.9756 -1.8882
 5352TIP3   OH237614   5.111   2.595   0.431  0.6996 -0.6057 -0.3765
 5352TIP3    H137615   5.109   2.667   0.368  0.8973  2.3642  2.7402
 5352TIP3    H237616   5.195   2.552   0.415  1.4962  1.1279 -1.1194
 5353TIP3   OH237617   5.996   0.984   7.782  0.6871  0.3143 -0.0128
 5353TIP3    H137618   6.009   1.064   7.732  4.3213  0.0495  0.2921
 5353TIP3    H237619   6.040   0.999   7.865  3.0902 -2.5138 -0.5988
 5354TIP3   OH237620   6.360   4.748   7.802 -0.3492 -0.0935 -0.7032
 5354TIP3    H137621   6.334   4.720   7.890 -3.6785 -1.1556 -1.8543
 5354TIP3    H237622   6.383   4.668   7.756 -0.1228  0.2650 -1.2287
 5355TIP3   OH237623   0.799   0.716   2.003 -0.1041  0.3969 -0.1594
 5355TIP3    H137624   0.893   0.736   2.009 -0.0948 -0.1096  3.1089
 5355TIP3    H237625   0.772   0.701   2.094 -3.1418 -0.5557 -1.1154
 5356TIP3   OH237626   1.641   6.370   7.469 -0.2283 -0.7603 -0.2882
 5356TIP3    H137627   1.677   6.296   7.518 -1.6493 -0.7578  0.8288
 5356TIP3    H237628   1.603   6.427   7.536 -1.6208 -0.4040 -1.3210
 5357TIP3   OH237629   2.063   0.740   7.747  0.2159 -0.2012  0.0433
 5357TIP3    H137630   2.149   0.736   7.704 -0.8018  1.6342 -2.3727
 5357TIP3    H237631   2.075   0.802   7.818  0.4468  1.7923 -1.6392
 5358TIP3   OH237632   3.572   1.910   0.527 -0.6648 -0.3731 -0.1402
 5358TIP3    H137633   3.482   1.936   0.506 -0.5482  0.4402  0.3329
 5358TIP3    H237634   3.586   1.941   0.616 -0.0703 -0.9130 -0.0422
 5359TIP3   OH237635   0.205   3.020   0.602  0.1178 -0.0585 -0.5629
 5359TIP3    H137636   0.149   2.947   0.631 -1.3337  1.3854  0.4469
 5359TIP3    H237637   0.290   3.001   0.642  0.0015 -1.5822 -0.9638
 5360TIP3   OH237638   0.100   0.106   0.724 -0.3489 -0.3228  0.4821
 5360TIP3    H137639   0.126   0.167   0.655  0.8416 -0.3362  0.8961
 5360TIP3    H237640   0.005   0.098   0.715 -0.3401  0.5024 -0.4655
 5361TIP3   OH237641   1.763   4.006   8.530  0.3121 -0.8351 -0.2448
 5361TIP3    H137642   1.797   3.990   8.442 -0.8493 -0.8859 -0.7055
 5361TIP3    H237643   1.829   3.970   8.589  0.3325 -2.2948 -1.1265
 5362TIP3   OH237644   2.478   5.587   7.637  0.1708  0.2474  0.1928
 5362TIP3    H137645   2.404   5.624   7.589  0.1883  0.4023  0.2849
 5362TIP3    H237646   2.512   5.660   7.689  0.8561  0.3665 -0.4127
 5363TIP3   OH237647   2.724   3.504   7.616  0.2109 -0.0800 -0.1772
 5363TIP3    H137648   2.723   3.410   7.602  0.6233  0.1077 -1.6460
 5363TIP3    H237649   2.817   3.528   7.613  0.0439  0.5268 -1.1143
 5364TIP3   OH237650   6.681   1.338   1.630 -0.5423 -0.0103  0.1351
 5364TIP3    H137651   6.594   1.331   1.591  0.1963 -3.0756 -1.2642
 5364TIP3    H237652   6.738   1.369   1.560 -0.1815  0.1297  0.4813
 5365TIP3   OH237653   6.599   3.919   1.077  0.0639 -0.2128 -0.0182
 5365TIP3    H137654   6.560   3.845   1.125  1.2961  0.3142  1.9403
 5365TIP3    H237655   6.648   3.877   1.006 -0.7380 -1.1446 -0.0500
 5366TIP3   OH237656   4.418   0.326   7.706 -0.6680 -0.2370 -0.4928
 5366TIP3    H137657   4.498   0.378   7.694 -2.4712  2.9394  0.1386
 5366TIP3    H237658   4.446   0.235   7.693  3.1014  0.6720  0.1342
 5367TIP3   OH237659   2.342   2.359   8.324  0.2284  0.5906  0.5995
 5367TIP3    H137660   2.282   2.287   8.304  0.7687  0.1940  0.3758
 5367TIP3    H237661   2.354   2.404   8.240  0.6336  0.3569  0.5245
 5368TIP3   OH237662   2.584   2.526   8.343 -0.0155  0.4462  0.3954
 5368TIP3    H137663   2.519   2.458   8.362  0.4226 -0.3076 -0.6835
 5368TIP3    H237664   2.628   2.495   8.264  0.3242  1.9058 -0.0244
 5369TIP3   OH237665   4.394   4.318   8.356 -0.1927 -0.2266 -0.5043
 5369TIP3    H137666   4.468   4.363   8.315 -1.6523  1.8667 -0.9571
 5369TIP3    H237667   4.336   4.296   8.284 -2.1535  2.3078  0.1667
 5370TIP3   OH237668   4.721   2.903   0.325 -0.3395  0.2864 -0.2054
 5370TIP3    H137669   4.757   2.817   0.304 -1.2033 -0.2098  0.2933
 5370TIP3    H237670   4.684   2.934   0.242  0.7469  0.5808 -0.5992
 5371TIP3   OH237671   6.697   0.427   7.899 -0.1558 -0.0861 -0.2409
 5371TIP3    H137672   6.690   0.522   7.909  2.6394  0.4369 -2.2501
 5371TIP3    H237673   6.627   0.405   7.836  1.5909  1.3756 -2.8848
 5372TIP3   OH237674   0.311   6.206   1.397 -0.1218  0.1527  0.0593
 5372TIP3    H137675   0.252   6.153   1.345 -1.5835  1.9403 -0.1933
 5372TIP3    H237676   0.300   6.173   1.487  0.6317 -1.3425 -0.3529
 5373TIP3   OH237677   4.027   3.144   0.785  0.1414  0.2315  0.9741
 5373TIP3    H137678   4.000   3.077   0.722 -0.9015  1.2400  0.3098
 5373TIP3    H237679   4.110   3.177   0.749 -0.4359  0.7857  0.1100
 5374TIP3   OH237680   0.886   4.394   0.160 -0.7432 -0.1373  0.4430
 5374TIP3    H137681   0.882   4.480   0.201 -1.9331 -0.0162  0.1284
 5374TIP3    H237682   0.848   4.407   0.072  0.6306 -0.6379 -0.2548
 5375TIP3   OH237683   2.061   6.090   0.659 -0.5935 -0.1597  0.3123
 5375TIP3    H137684   2.076   6.142   0.738  0.2320  2.3409 -1.3864
 5375TIP3    H237685   1.983   6.128   0.619 -1.1304 -1.5330 -0.0065
 5376TIP3   OH237686   5.400   6.113   1.437 -0.5130 -0.1466  0.7166
 5376TIP3    H137687   5.418   6.022   1.411 -1.9417 -0.7619  1.7474
 5376TIP3    H237688   5.406   6.163   1.355  1.3529 -0.9736  0.3084
 5377TIP3   OH237689   3.351   2.435   7.862 -0.2683  0.1012 -0.4019
 5377TIP3    H137690   3.400   2.417   7.781  0.7661  2.2981 -0.3226
 5377TIP3    H237691   3.268   2.472   7.832 -0.9108 -1.3004 -0.4636
 5378TIP3   OH237692   6.230   5.900   0.959  0.0430  0.2154 -0.4807
 5378TIP3    H137693   6.197   5.887   0.871  1.3553 -0.7614 -0.8544
 5378TIP3    H237694   6.325   5.892   0.951  0.3064  1.4370  0.7981
 5379TIP3   OH237695   6.143   5.305   7.939 -0.3186 -0.3732 -0.2764
 5379TIP3    H137696   6.161   5.313   8.033  0.6238 -1.6817 -0.3210
 5379TIP3    H237697   6.080   5.375   7.921  0.9567  1.1658  0.9389
 5380TIP3   OH237698   0.841   3.246   1.554 -0.5740 -0.0635 -0.2431
 5380TIP3    H137699   0.753   3.281   1.538  0.1715  2.8564  1.4428
 5380TIP3    H237700   0.826   3.168   1.608 -2.1177  0.4586  0.1296
 5381TIP3   OH237701   5.996   6.069   1.047 -0.1546 -0.8166  0.6012
 5381TIP3    H137702   5.941   5.991   1.046  0.2588 -1.1122 -0.1502
 5381TIP3    H237703   6.085   6.035   1.033  0.0286 -0.2132  0.2892
 5382TIP3   OH237704   1.172   3.611   8.202  0.3501 -0.2348  0.4549
 5382TIP3    H137705   1.155   3.520   8.180  0.6603 -0.0718 -0.4758
 5382TIP3    H237706   1.209   3.649   8.123 -0.7458  0.9717  0.4873
 5383TIP3   OH237707   0.334   2.436   2.015 -0.7395  0.1217  0.1743
 5383TIP3    H137708   0.323   2.492   1.938  1.5303  0.0639 -0.2361
 5383TIP3    H237709   0.389   2.487   2.074  1.0612 -1.4470 -0.0437
 5384TIP3   OH237710   2.706   5.676   8.694 -0.0254  0.5959  0.0994
 5384TIP3    H137711   2.730   5.584   8.703  1.5753  0.9920  0.3231
 5384TIP3    H237712   2.612   5.676   8.680 -0.0264 -1.0784 -0.0448
 5385TIP3   OH237713   2.822   5.357   0.652  0.0918 -0.1468 -0.3031
 5385TIP3    H137714   2.875   5.357   0.572  2.1406 -0.0867  0.9871
 5385TIP3    H237715   2.764   5.432   0.641  0.1950 -0.2394 -1.7936
 5386TIP3   OH237716   3.450   5.386   8.641 -0.0745 -0.2264 -0.1678
 5386TIP3    H137717   3.402   5.467   8.653 -0.3506 -0.6158  1.6223
 5386TIP3    H237718   3.409   5.324   8.701  0.2526 -1.6479 -1.3500
 5387TIP3   OH237719   0.560   2.206   0.992 -0.0606  0.2601 -0.1602
 5387TIP3    H137720   0.497   2.217   0.921 -0.7720  0.8970  0.5522
 5387TIP3    H237721   0.636   2.256   0.965 -0.7562  1.4533  0.0160
 5388TIP3   OH237722   5.567   0.243   1.023 -0.3750  0.4969  0.2770
 5388TIP3    H137723   5.497   0.180   1.008  0.7511 -1.1107  1.4112
 5388TIP3    H237724   5.547   0.316   0.963 -2.6514 -0.1429  0.1689
 5389TIP3   OH237725   2.670   3.139   0.657  0.1668  0.3912  0.4993
 5389TIP3    H137726   2.593   3.087   0.632  0.4741  0.3415 -0.3805
 5389TIP3    H237727   2.643   3.183   0.738 -0.4915 -0.2671  0.6588
 5390TIP3   OH237728   5.762   6.854   2.120  0.1967 -0.3646  0.1801
 5390TIP3    H137729   5.725   6.907   2.190  0.6056 -1.0403  0.9231
 5390TIP3    H237730   5.696   6.788   2.103 -0.2250  0.2408 -0.6049
 5391TIP3   OH237731   5.670   0.493   0.123  0.2801  0.2976 -0.0911
 5391TIP3    H137732   5.694   0.541   0.044  1.2512  0.4513  0.2829
 5391TIP3    H237733   5.634   0.410   0.090  0.2269  0.5536 -0.6962
 5392TIP3   OH237734   1.720   0.205   1.365  0.7146 -0.0408 -0.2361
 5392TIP3    H137735   1.655   0.227   1.432  1.3094 -0.3599  0.4548
 5392TIP3    H237736   1.799   0.182   1.414  0.8320 -1.3753 -0.9934
 5393TIP3   OH237737   4.235   5.306   1.851  0.0492 -0.4290  0.7719
 5393TIP3    H137738   4.166   5.300   1.784 -0.3177 -1.9142  1.2358
 5393TIP3    H237739   4.317   5.297   1.802 -0.2467 -2.4701  0.5691
 5394TIP3   OH237740   0.914   6.091   7.559  0.1375 -0.1065 -0.2277
 5394TIP3    H137741   1.005   6.090   7.528  0.1343  1.1103 -0.3264
 5394TIP3    H237742   0.893   6.184   7.568 -1.2954 -0.3601 -0.7785
 5395TIP3   OH237743   4.727   0.552   2.661  0.6853  0.8417 -0.4804
 5395TIP3    H137744   4.690   0.640   2.649 -0.2856  0.4150 -0.7011
 5395TIP3    H237745   4.651   0.495   2.672  1.3267  0.1264  0.3881
 5396TIP3   OH237746   1.208   0.620   0.083  0.3513  0.6922 -0.0444
 5396TIP3    H137747   1.120   0.657   0.076 -0.2120 -0.4820  0.5281
 5396TIP3    H237748   1.247   0.666   0.158  1.4383  3.4767 -2.1237
 5397TIP3   OH237749   3.933   0.356   2.307  0.0002  0.0970 -0.0871
 5397TIP3    H137750   3.946   0.307   2.388 -0.5135 -0.7919 -0.5394
 5397TIP3    H237751   3.978   0.305   2.240 -0.3483  0.3578 -0.5248
 5398TIP3   OH237752   1.966   1.186   8.462  0.4861  0.3559  1.1979
 5398TIP3    H137753   1.924   1.263   8.500 -0.8581 -0.4878  1.4824
 5398TIP3    H237754   1.908   1.113   8.485  0.8567 -0.5113 -0.4975
 5399TIP3   OH237755   5.641   0.387   7.953 -0.6123  0.3892  0.1168
 5399TIP3    H137756   5.692   0.335   7.890 -2.3169 -2.6622  1.0209
 5399TIP3    H237757   5.677   0.363   8.038 -1.3472  0.8366  0.5574
 5400TIP3   OH237758   2.700   6.231   2.614  0.1253  0.3937  0.2253
 5400TIP3    H137759   2.783   6.193   2.585  0.2023 -0.9152  2.0235
 5400TIP3    H237760   2.717   6.265   2.701 -1.0261  0.9049  0.2808
 5401TIP3   OH237761   0.510   2.804   7.829 -0.3734 -0.8447 -0.8581
 5401TIP3    H137762   0.421   2.796   7.863 -0.1419  1.0681  0.3619
 5401TIP3    H237763   0.532   2.896   7.842  1.5187 -1.1127 -1.8458
 5402TIP3   OH237764   3.795   1.850   1.734  0.2093 -0.6138  0.7433
 5402TIP3    H137765   3.849   1.929   1.740 -2.1415  1.0844  0.7415
 5402TIP3    H237766   3.770   1.845   1.642 -1.7572  0.1773  1.1945
 5403TIP3   OH237767   1.948   1.858   1.620  0.2171  0.4336 -0.5071
 5403TIP3    H137768   1.892   1.856   1.543 -0.3324  0.6314 -0.1187
 5403TIP3    H237769   1.944   1.948   1.651 -0.9568 -0.0197  0.7433
 5404TIP3   OH237770   1.279   6.385   7.593 -0.1665 -0.1676 -0.3277
 5404TIP3    H137771   1.308   6.295   7.604 -0.2597 -0.2374 -0.6223
 5404TIP3    H237772   1.299   6.428   7.676 -2.6490 -1.1372  0.8646
 5405TIP3   OH237773   6.386   6.802   1.694 -0.3209 -0.2444  0.2417
 5405TIP3    H137774   6.373   6.709   1.673 -0.6885  0.2039 -1.6941
 5405TIP3    H237775   6.330   6.849   1.632  0.2595  1.3019  0.8387
 5406TIP3   OH237776   0.677   6.099   0.364 -0.4961 -0.1425 -0.2815
 5406TIP3    H137777   0.759   6.142   0.341  0.2403 -1.6588 -0.6047
 5406TIP3    H237778   0.634   6.081   0.279  0.1845 -1.8451 -0.3104
 5407TIP3   OH237779   3.347   1.279   7.213 -0.0868  0.1191  0.0397
 5407TIP3    H137780   3.397   1.309   7.137 -1.1964  0.8516 -0.4419
 5407TIP3    H237781   3.257   1.272   7.180 -0.4439 -0.3551  1.0807
 5408TIP3   OH237782   6.733   4.157   0.934  0.0929  0.2243  0.1147
 5408TIP3    H137783   6.734   4.117   0.847  0.6848  1.0327 -0.2591
 5408TIP3    H237784   6.769   4.089   0.991 -0.0427 -0.2176 -0.3097
 5409TIP3   OH237785   6.089   4.260   6.810 -0.5134 -0.1339  0.1777
 5409TIP3    H137786   6.085   4.167   6.831  0.5783  0.0623  1.4179
 5409TIP3    H237787   6.012   4.298   6.853 -0.8576 -0.4263 -0.1754
 5410TIP3   OH237788   1.704   4.916   0.391  0.2945  0.1500  0.5948
 5410TIP3    H137789   1.626   4.918   0.446 -1.9935  0.2434 -2.3563
 5410TIP3    H237790   1.720   4.823   0.375 -0.0839  0.1642  0.1113
 5411TIP3   OH237791   4.786   2.346   2.270  0.5978  0.5101  0.6263
 5411TIP3    H137792   4.764   2.279   2.335  0.3391 -1.4647 -1.3629
 5411TIP3    H237793   4.877   2.326   2.246  0.4574  0.7325 -0.1256
 5412TIP3   OH237794   4.417   5.567   1.434  0.0444 -0.4642  0.1814
 5412TIP3    H137795   4.425   5.633   1.502 -0.8363 -0.7440  0.5673
 5412TIP3    H237796   4.324   5.544   1.433  0.2601 -1.3745 -0.2444
 5413TIP3   OH237797   3.054   3.989   8.292 -0.3283  0.0445 -0.1945
 5413TIP3    H137798   2.965   3.963   8.270 -0.1282 -1.8419  1.0171
 5413TIP3    H237799   3.044   4.061   8.354 -0.9568  0.8077 -1.1525
 5414TIP3   OH237800   4.618   1.620   7.421  0.7467 -0.3622  0.0670
 5414TIP3    H137801   4.606   1.695   7.363  1.2305 -1.4780 -1.5652
 5414TIP3    H237802   4.680   1.564   7.374  0.7426 -1.5753  1.4427
 5415TIP3   OH237803   2.486   3.916   6.998  0.0762 -0.0427  0.0401
 5415TIP3    H137804   2.476   3.945   6.908  0.0750  1.1292  0.4038
 5415TIP3    H237805   2.526   3.990   7.043  0.8198 -0.8952  0.8371
 5416TIP3   OH237806   1.696   6.442   7.961  0.1818 -0.4582  0.1215
 5416TIP3    H137807   1.730   6.527   7.990  0.8071 -0.9220  0.7790
 5416TIP3    H237808   1.771   6.400   7.919 -0.7187  0.2304 -2.3185
 5417TIP3   OH237809   3.282   5.183   8.026  0.2744 -0.3720 -0.0644
 5417TIP3    H137810   3.203   5.197   7.974 -0.3774  0.8982  1.2118
 5417TIP3    H237811   3.307   5.093   8.008 -1.5509 -0.8467 -0.3880
 5418TIP3   OH237812   0.396   5.790   1.438  0.0680 -0.0069  0.0706
 5418TIP3    H137813   0.443   5.864   1.398 -1.6808  0.3212 -1.5167
 5418TIP3    H237814   0.460   5.720   1.442  1.6720  1.4449  1.2528
 5419TIP3   OH237815   3.052   5.786   1.964 -0.0412  0.0536  0.0089
 5419TIP3    H137816   3.013   5.715   1.912  0.9892 -1.3427  1.0706
 5419TIP3    H237817   3.123   5.819   1.909  0.0261 -0.3304 -0.1404
 5420TIP3   OH237818   5.083   5.230   7.289 -0.1134  0.0174 -0.3104
 5420TIP3    H137819   5.037   5.272   7.217  1.0623  0.8819 -0.5909
 5420TIP3    H237820   5.173   5.220   7.258 -0.1651 -2.0512  0.0402
 5421TIP3   OH237821   2.174   2.460   7.325 -0.2224  0.6532  0.2021
 5421TIP3    H137822   2.130   2.525   7.270  0.7034 -0.7270 -2.3629
 5421TIP3    H237823   2.266   2.465   7.298  0.0015 -1.1226  0.5514
 5422TIP3   OH237824   3.348   0.444   7.069 -0.0542 -0.3377  0.6502
 5422TIP3    H137825   3.407   0.515   7.042 -1.6076 -0.1325 -2.5803
 5422TIP3    H237826   3.281   0.488   7.121 -0.1347  0.3045  0.0227
 5423TIP3   OH237827   6.471   1.099   7.809  0.1084 -0.4926 -0.0086
 5423TIP3    H137828   6.445   1.087   7.900 -0.1259  0.9392  0.1409
 5423TIP3    H237829   6.484   1.010   7.776 -0.8273 -1.0771  1.1153
 5424TIP3   OH237830   2.831   2.730   0.715 -0.1437  0.2944  0.1720
 5424TIP3    H137831   2.760   2.743   0.652 -0.6703  0.0378  0.7072
 5424TIP3    H237832   2.892   2.801   0.697  0.3872 -0.5433 -1.5323
 5425TIP3   OH237833   5.755   4.415   0.502 -0.5144  0.3844 -0.1206
 5425TIP3    H137834   5.748   4.375   0.589 -1.3539  0.3603 -0.1924
 5425TIP3    H237835   5.693   4.366   0.448 -0.9216  1.2056 -0.4192
 5426TIP3   OH237836   5.641   2.442   0.883  0.4317 -0.1537 -0.0225
 5426TIP3    H137837   5.578   2.446   0.812  0.9961  1.4983 -0.4893
 5426TIP3    H237838   5.717   2.397   0.847 -0.2661 -1.7050  0.3893
 5427TIP3   OH237839   4.217   6.736   1.025  0.0925  0.1201  0.2310
 5427TIP3    H137840   4.150   6.766   1.086  1.1238 -1.6553  2.3890
 5427TIP3    H237841   4.211   6.640   1.028  0.8464 -0.0366 -1.7511
 5428TIP3   OH237842   3.761   3.944   8.064 -0.1354  0.0507 -0.5636
 5428TIP3    H137843   3.764   4.008   8.135 -2.5149  0.2234 -0.5312
 5428TIP3    H237844   3.680   3.965   8.016 -0.0587 -1.8229 -1.6257
 5429TIP3   OH237845   6.152   3.771   1.499 -0.4627 -0.2229  0.2337
 5429TIP3    H137846   6.200   3.712   1.441 -1.4792 -0.0182 -0.8424
 5429TIP3    H237847   6.200   3.767   1.582  0.9588 -0.5980 -0.5759
 5430TIP3   OH237848   4.012   2.894   0.636 -0.7338 -0.0701  0.3551
 5430TIP3    H137849   4.085   2.837   0.613 -1.9384 -0.8446 -1.9669
 5430TIP3    H237850   3.988   2.936   0.553 -2.6299  0.4642  1.1166
 5431TIP3   OH237851   2.123   5.616   2.837 -0.1730 -0.2352 -0.6509
 5431TIP3    H137852   2.079   5.623   2.922 -0.9118 -0.2926 -1.0220
 5431TIP3    H237853   2.215   5.636   2.856 -0.2912 -0.4500  0.1968
 5432TIP3   OH237854   0.787   0.892   0.918 -0.2694 -0.7452  0.2490
 5432TIP3    H137855   0.866   0.889   0.864  0.4733 -0.3712  1.2961
 5432TIP3    H237856   0.718   0.920   0.858  0.9061  1.5733 -0.1164
 5433TIP3   OH237857   4.903   1.513   2.251  0.0172  0.4840 -0.3026
 5433TIP3    H137858   4.856   1.594   2.269 -0.2575  0.1969  0.3034
 5433TIP3    H237859   4.964   1.536   2.181 -0.9979  0.8648 -1.0763
 5434TIP3   OH237860   2.716   1.275   7.739  0.4790  0.2042  0.0562
 5434TIP3    H137861   2.762   1.210   7.687 -0.8908  0.1329 -1.1206
 5434TIP3    H237862   2.632   1.287   7.695 -0.4978  0.6042  1.9052
 5435TIP3   OH237863   6.678   5.653   6.726 -0.4890 -0.0427  0.1619
 5435TIP3    H137864   6.698   5.573   6.774 -0.2705 -0.0388  0.0776
 5435TIP3    H237865   6.630   5.707   6.789 -2.9708 -1.2800 -0.5769
 5436TIP3   OH237866   3.077   3.150   0.361  0.0797  0.6983  0.4883
 5436TIP3    H137867   2.992   3.118   0.389  0.6335 -1.1531  0.1508
 5436TIP3    H237868   3.137   3.124   0.430  0.5658  0.9146  0.1562
 5437TIP3   OH237869   1.240   1.407   0.308 -0.1998  0.1994 -0.7129
 5437TIP3    H137870   1.305   1.475   0.325 -2.3100  2.4714 -1.1991
 5437TIP3    H237871   1.275   1.358   0.234  0.6793  1.7761 -1.3809
 5438TIP3   OH237872   2.119   3.073   0.483  0.1056  0.3014  0.2578
 5438TIP3    H137873   2.197   3.083   0.536 -0.0466  1.3988  0.2817
 5438TIP3    H237874   2.050   3.050   0.545 -0.1276  1.8307  0.5895
 5439TIP3   OH237875   3.394   4.638   2.266 -0.3784  0.0072 -0.2492
 5439TIP3    H137876   3.453   4.617   2.338  1.0497 -1.3053 -1.7031
 5439TIP3    H237877   3.397   4.560   2.209 -0.8468  1.2484 -2.0797
 5440TIP3   OH237878   1.749   5.988   1.852  0.3204  0.1569  0.4332
 5440TIP3    H137879   1.689   6.031   1.913 -1.1018 -0.3076 -0.5806
 5440TIP3    H237880   1.693   5.931   1.800  1.4300  0.8325 -1.5859
 5441TIP3   OH237881   4.584   4.870   2.021  0.1902  0.1508 -0.3367
 5441TIP3    H137882   4.656   4.917   1.979 -1.2593  0.5224 -2.4917
 5441TIP3    H237883   4.535   4.937   2.067 -0.7068  0.4705 -1.7173
 5442TIP3   OH237884   5.916   3.028   8.618 -0.1928 -0.0163 -0.1647
 5442TIP3    H137885   5.860   3.099   8.650 -0.0222 -0.0515  0.2256
 5442TIP3    H237886   5.880   3.006   8.533  0.0517  0.8789 -0.5162
 5443TIP3   OH237887   2.768   4.227   8.595 -0.2985  0.2620  0.1186
 5443TIP3    H137888   2.826   4.187   8.659 -1.3333 -0.5413  0.5870
 5443TIP3    H237889   2.690   4.172   8.595 -0.0143 -0.2806 -2.4872
 5444TIP3   OH237890   0.872   4.225   1.741  0.2310 -0.4307  0.2941
 5444TIP3    H137891   0.834   4.139   1.758  0.3751 -0.4591  0.4724
 5444TIP3    H237892   0.935   4.209   1.670 -0.0306 -0.3971  0.0521
 5445TIP3   OH237893   1.712   5.337   1.150  0.4239  0.3649 -0.3672
 5445TIP3    H137894   1.645   5.344   1.082  1.7221 -0.7769 -1.8283
 5445TIP3    H237895   1.768   5.413   1.136 -0.5307  1.3325  0.8693
 5446TIP3   OH237896   6.085   3.042   2.101 -0.4934  0.4419 -0.3371
 5446TIP3    H137897   6.135   3.123   2.089  0.8907 -0.3348 -0.0024
 5446TIP3    H237898   6.116   3.007   2.185  0.9510 -1.7837 -1.7101
 5447TIP3   OH237899   4.236   4.817   2.066 -0.4537 -0.1089  0.8961
 5447TIP3    H137900   4.227   4.813   2.161  1.2969 -0.9018  1.0794
 5447TIP3    H237901   4.285   4.737   2.043 -1.8116 -0.5223 -0.8159
 5448TIP3   OH237902   4.607   0.479   7.181  0.3446 -0.3562  0.1901
 5448TIP3    H137903   4.674   0.444   7.121 -0.9691 -0.4734 -1.2777
 5448TIP3    H237904   4.592   0.568   7.151  0.1621 -0.1839  0.7849
 5449TIP3   OH237905   6.753   1.569   7.627  0.2902 -0.4401  0.2528
 5449TIP3    H137906   6.766   1.481   7.592  0.5101 -0.0439 -0.6912
 5449TIP3    H237907   6.665   1.567   7.663 -0.7701 -0.3307 -2.1103
 5450TIP3   OH237908   2.939   4.637   8.228  0.2507  0.0527  0.0159
 5450TIP3    H137909   2.995   4.659   8.303  0.0497  0.8600 -0.0643
 5450TIP3    H237910   2.999   4.594   8.166  0.6638  0.3862  0.1750
 5451TIP3   OH237911   3.053   2.597   8.237 -0.4670 -0.4587  0.1276
 5451TIP3    H137912   2.976   2.555   8.275  0.3910 -1.2012  1.1005
 5451TIP3    H237913   3.083   2.657   8.305 -0.2530 -0.0824 -0.2957
 5452TIP3   OH237914   1.626   5.823   7.504  0.1223  0.1039  0.5245
 5452TIP3    H137915   1.618   5.789   7.415  0.6941  0.5415  0.2984
 5452TIP3    H237916   1.539   5.811   7.543 -0.0133 -0.4964  0.0577
 5453TIP3   OH237917   4.712   0.181   6.958  0.3555  0.7714  0.6793
 5453TIP3    H137918   4.656   0.107   6.934  1.4592  0.5114 -1.3183
 5453TIP3    H237919   4.663   0.258   6.931 -0.2878  0.7225  1.6708
 5454TIP3   OH237920   4.872   5.717   1.565  0.1873 -0.3729 -0.0486
 5454TIP3    H137921   4.922   5.752   1.639  0.0612 -1.2472  0.4605
 5454TIP3    H237922   4.880   5.784   1.497  1.4202 -0.1503  0.2917
 5455TIP3   OH237923   2.062   1.629   8.232 -0.2571 -0.2851  0.0978
 5455TIP3    H137924   2.102   1.651   8.316  0.7619 -1.0094 -0.1851
 5455TIP3    H237925   2.079   1.705   8.176  0.1596 -0.3180  0.1760
 5456TIP3   OH237926   3.405   2.673   8.031  0.0099  0.0024  0.1034
 5456TIP3    H137927   3.487   2.711   8.000 -1.5889  2.9900 -0.9482
 5456TIP3    H237928   3.379   2.612   7.962  0.7808 -0.0430 -0.1518
 5457TIP3   OH237929   6.499   6.106   8.266 -0.1696 -0.7752 -0.1091
 5457TIP3    H137930   6.526   6.020   8.298 -1.1016 -1.3591 -0.8449
 5457TIP3    H237931   6.569   6.165   8.294  0.4307 -1.7486  0.4956
 5458TIP3   OH237932   4.921   5.898   0.643  0.4112 -0.0695  0.0151
 5458TIP3    H137933   4.948   5.817   0.687  1.3068 -0.5028 -1.2632
 5458TIP3    H237934   5.003   5.944   0.626 -0.1083  1.2985  1.0151
 5459TIP3   OH237935   4.286   0.652   0.444 -0.0021 -0.5962 -0.2343
 5459TIP3    H137936   4.294   0.565   0.405  4.2525 -0.4102 -0.2502
 5459TIP3    H237937   4.254   0.707   0.372 -1.0637 -1.7693 -0.7146
 5460TIP3   OH237938   5.308   6.590   1.634 -0.1245 -0.4642 -0.7938
 5460TIP3    H137939   5.326   6.510   1.684 -0.5316 -0.3220 -0.4065
 5460TIP3    H237940   5.360   6.582   1.555  0.8355 -0.5160 -0.1696
 5461TIP3   OH237941   4.706   6.803   1.513  0.0478 -0.0140  0.3920
 5461TIP3    H137942   4.761   6.746   1.566  0.6285  1.1111  1.0467
 5461TIP3    H237943   4.696   6.757   1.430  0.3438 -1.1332  0.9586
 5462TIP3   OH237944   4.731   6.383   1.791 -0.3633 -0.1816  0.4667
 5462TIP3    H137945   4.785   6.305   1.804 -0.1190 -0.0057  0.5081
 5462TIP3    H237946   4.767   6.424   1.712 -1.5969 -1.0462 -0.5831
 5463TIP3   OH237947   1.398   6.459   1.442  0.0759 -0.6249 -0.4310
 5463TIP3    H137948   1.478   6.508   1.422 -0.8679  0.4595 -1.7632
 5463TIP3    H237949   1.412   6.373   1.404  1.3412 -1.1093  1.0146
 5464TIP3   OH237950   3.124   0.022   7.627 -0.0038 -0.2079  0.1223
 5464TIP3    H137951   3.082   0.108   7.615 -0.2712 -0.3697 -0.1057
 5464TIP3    H237952   3.165   0.004   7.543  0.8521  0.1252  0.4644
 5465TIP3   OH237953   5.218   2.327   0.866 -0.5182 -0.5244  0.0583
 5465TIP3    H137954   5.165   2.405   0.849 -0.9920 -0.8919 -0.1426
 5465TIP3    H237955   5.264   2.347   0.948 -1.6415 -0.5677  0.7084
 5466TIP3   OH237956   0.071   3.972   2.353  0.1827  0.2623  0.0613
 5466TIP3    H137957   0.070   4.055   2.400 -1.0553  0.0300  0.4987
 5466TIP3    H237958   0.094   3.907   2.420  0.2232  0.1392 -0.0711
 5467TIP3   OH237959   6.650   3.812   0.772  0.3273 -0.2395  0.5143
 5467TIP3    H137960   6.707   3.875   0.728 -1.3624 -0.7763 -2.7896
 5467TIP3    H237961   6.707   3.737   0.791  1.0238 -0.3943 -1.8508
 5468TIP3   OH237962   6.049   5.464   1.661  0.4681 -0.3612 -0.4505
 5468TIP3    H137963   6.011   5.392   1.711  0.1947  0.4424  0.5382
 5468TIP3    H237964   6.014   5.453   1.573 -1.4867 -0.1098  0.2456
 5469TIP3   OH237965   3.106   2.670   2.600 -0.7279  0.3862 -0.6973
 5469TIP3    H137966   3.064   2.637   2.680 -0.6541 -0.7894 -1.1220
 5469TIP3    H237967   3.034   2.704   2.547 -0.9515 -0.1485 -0.7392
 5470TIP3   OH237968   5.662   2.300   2.229 -0.3024  0.1224  0.4923
 5470TIP3    H137969   5.651   2.345   2.145  1.5705  2.3536  1.3311
 5470TIP3    H237970   5.574   2.296   2.266 -1.1931 -0.9801 -1.5381
 5471TIP3   OH237971   5.797   3.606   2.767 -0.3178 -0.2229 -0.1509
 5471TIP3    H137972   5.776   3.687   2.721 -0.9107 -0.0309  0.4439
 5471TIP3    H237973   5.888   3.588   2.743  0.0706  1.0221  0.2990
 5472TIP3   OH237974   2.798   1.266   2.286  0.2190 -0.5188  0.2803
 5472TIP3    H137975   2.778   1.277   2.193  1.7886 -0.3774 -0.0720
 5472TIP3    H237976   2.848   1.344   2.309 -2.3485  0.7758  1.9676
 5473TIP3   OH237977   1.217   0.973   1.851  0.5163  0.6484  0.3810
 5473TIP3    H137978   1.163   0.915   1.905 -1.2769  0.8928 -1.0580
 5473TIP3    H237979   1.239   1.046   1.909 -0.2950  0.3099  1.1422
 5474TIP3   OH237980   1.973   5.134   7.985  0.3905 -0.0696  0.3365
 5474TIP3    H137981   2.051   5.159   7.937  0.3619  1.3255  0.9502
 5474TIP3    H237982   2.005   5.100   8.068  0.3674  0.0600  0.3995
 5475TIP3   OH237983   1.085   1.027   1.403  0.1780 -0.3671  0.5410
 5475TIP3    H137984   1.140   1.089   1.450 -0.4139 -0.1573  0.9628
 5475TIP3    H237985   1.078   0.951   1.461  2.0899 -1.4755 -0.5674
 5476TIP3   OH237986   5.754   6.254   0.199  0.0116  0.2078 -0.0588
 5476TIP3    H137987   5.741   6.334   0.250 -1.2375 -0.3182  0.4948
 5476TIP3    H237988   5.743   6.281   0.108  1.6099  1.0326 -0.0375
 5477TIP3   OH237989   3.661   0.953   0.725 -0.5126 -0.1420 -0.1368
 5477TIP3    H137990   3.689   1.034   0.767  1.6641  0.0711 -1.8407
 5477TIP3    H237991   3.727   0.889   0.749 -0.7663 -0.7174 -0.9129
 5478TIP3   OH237992   2.319   4.465   0.520  0.5432  0.3842 -0.0288
 5478TIP3    H137993   2.361   4.522   0.457  0.7807  1.5691  1.1602
 5478TIP3    H237994   2.377   4.466   0.596  0.0557 -0.6748  0.3768
 5479TIP3   OH237995   0.893   6.251   2.618 -0.5097  0.2871 -0.5547
 5479TIP3    H137996   0.841   6.323   2.652  0.2920  0.1077  1.1655
 5479TIP3    H237997   0.983   6.271   2.646 -0.0702 -0.6976 -1.2114
 5480TIP3   OH237998   4.697   0.598   0.126 -0.1588  0.4140  0.6579
 5480TIP3    H137999   4.602   0.605   0.136 -0.2553  0.7892 -0.3767
 5480TIP3    H238000   4.730   0.685   0.150 -0.0222  0.1572  1.4410
 5481TIP3   OH238001   4.483   4.107   0.437 -0.3942  0.5367 -0.0822
 5481TIP3    H138002   4.561   4.067   0.399  0.3169  2.8039 -1.2021
 5481TIP3    H238003   4.512   4.140   0.522 -0.8936 -0.9345  0.6952
 5482TIP3   OH238004   5.482   0.234   1.940  0.2754  0.2277 -0.3672
 5482TIP3    H138005   5.455   0.169   1.874  0.7718 -1.0738  0.6630
 5482TIP3    H238006   5.423   0.218   2.014  0.0790  1.3108 -0.2769
 5483TIP3   OH238007   3.585   4.363   0.771 -0.0075 -1.0940 -0.2815
 5483TIP3    H138008   3.561   4.454   0.753 -1.4233 -1.2994  0.4166
 5483TIP3    H238009   3.649   4.342   0.703  0.8314  0.5995 -0.0746
 5484TIP3   OH238010   3.950   4.704   0.700 -0.6168  0.2938 -0.6087
 5484TIP3    H138011   3.927   4.794   0.676  2.9298  1.2249 -1.0438
 5484TIP3    H238012   3.981   4.664   0.619  2.0175  0.2078  0.3326
 5485TIP3   OH238013   6.189   4.201   0.133 -0.1717  0.0865  0.5243
 5485TIP3    H138014   6.268   4.148   0.118 -0.6503 -0.5072  0.0566
 5485TIP3    H238015   6.177   4.250   0.052 -0.8357 -0.5750  0.2059
 5486TIP3   OH238016   5.002   1.249   2.316 -0.2189 -0.3917  0.4025
 5486TIP3    H138017   5.097   1.254   2.307 -0.2747  1.8550  0.4625
 5486TIP3    H238018   4.969   1.326   2.270 -1.7907  0.6111  2.9813
 5487TIP3   OH238019   0.304   1.013   0.784  0.0023 -0.1539 -0.1376
 5487TIP3    H138020   0.322   0.979   0.696  1.7075 -1.8266  0.7729
 5487TIP3    H238021   0.228   0.963   0.814 -1.2980  1.2147 -1.0245
 5488TIP3   OH238022   4.843   4.476   8.682 -0.0837  0.1195 -0.0642
 5488TIP3    H138023   4.858   4.381   8.683 -1.2563 -0.0907 -0.8839
 5488TIP3    H238024   4.891   4.506   8.605  1.2402  0.3984  0.8194
 5489TIP3   OH238025   4.510   2.168   6.939 -0.3136 -0.1242  0.4554
 5489TIP3    H138026   4.568   2.138   7.009 -1.2205  0.0591  1.3067
 5489TIP3    H238027   4.438   2.104   6.939 -0.6790  0.2824  0.1750
 5490TIP3   OH238028   3.149   5.748   0.050 -0.4455 -0.3358 -0.2849
 5490TIP3    H138029   3.095   5.818   0.014 -3.1702 -2.6596 -1.1052
 5490TIP3    H238030   3.097   5.712   0.122  2.3506  0.4808  2.3355
 5491TIP3   OH238031   1.453   6.299   0.622 -0.3525  0.1441  0.1551
 5491TIP3    H138032   1.482   6.275   0.534  2.2916 -0.6500  1.1414
 5491TIP3    H238033   1.509   6.372   0.647 -0.9010  0.2033  1.2733
 5492TIP3   OH238034   4.662   5.987   1.990 -0.4771 -0.1919 -0.1432
 5492TIP3    H138035   4.700   5.899   1.993  1.6331  0.6600  0.2959
 5492TIP3    H238036   4.631   6.003   2.079  1.4056  0.3737  0.4637
 5493TIP3   OH238037   3.340   1.422   2.844 -0.1426  0.0141  0.0491
 5493TIP3    H138038   3.381   1.504   2.817 -0.7096  0.1132 -0.5338
 5493TIP3    H238039   3.398   1.354   2.810  0.0901  0.1608  0.1437
 5494TIP3   OH238040   6.180   2.485   2.551 -0.3296 -0.0521 -0.4912
 5494TIP3    H138041   6.098   2.499   2.599  0.5387 -1.8348  1.6508
 5494TIP3    H238042   6.156   2.425   2.480 -1.2850  1.2820 -1.3576
 5495TIP3   OH238043   1.478   4.146   1.251  0.2545  0.1049 -0.0692
 5495TIP3    H138044   1.506   4.057   1.276 -0.4279  0.1906  1.1121
 5495TIP3    H238045   1.425   4.175   1.325 -1.5681  0.5755 -1.5089
 5496TIP3   OH238046   1.279   3.839   7.784 -0.6392 -0.6043 -0.5539
 5496TIP3    H138047   1.196   3.806   7.751 -0.6415 -1.9798  0.7193
 5496TIP3    H238048   1.324   3.761   7.816  1.2385  0.0815 -1.3833
 5497TIP3   OH238049   6.449   0.470   1.562 -0.0931 -0.1222  0.2418
 5497TIP3    H138050   6.513   0.521   1.513 -0.1912  0.7968  1.0234
 5497TIP3    H238051   6.372   0.467   1.505  1.0130 -2.3097 -1.2385
 5498TIP3   OH238052   5.279   3.460   1.182 -0.3192  0.6697 -0.5553
 5498TIP3    H138053   5.319   3.528   1.236  2.2932 -0.1665 -1.2647
 5498TIP3    H238054   5.273   3.384   1.240 -1.5727  0.9741 -0.2647
 5499TIP3   OH238055   2.296   2.983   0.240 -0.0125  0.1499  0.1155
 5499TIP3    H138056   2.243   2.995   0.160 -0.2262  0.6433  0.3276
 5499TIP3    H238057   2.241   3.017   0.310  0.5652  0.6023  0.3515
 5500TIP3   OH238058   1.968   6.666   8.435 -0.0346  0.1964  0.2515
 5500TIP3    H138059   1.965   6.736   8.500  0.1079  0.1725  0.2827
 5500TIP3    H238060   2.010   6.593   8.480 -1.2887 -0.3269  0.6224
 5501TIP3   OH238061   3.462   6.658   2.051 -0.0761 -0.0551 -0.4162
 5501TIP3    H138062   3.540   6.647   2.105  1.4857 -0.3011 -2.5851
 5501TIP3    H238063   3.413   6.728   2.093  1.3987  0.2358  0.9140
 5502TIP3   OH238064   5.373   5.616   7.696  0.4676 -0.0661  0.2236
 5502TIP3    H138065   5.403   5.525   7.700  2.4583  0.5467  0.1705
 5502TIP3    H238066   5.302   5.615   7.632  1.4920 -1.3177 -0.9553
 5503TIP3   OH238067   3.466   2.972   2.335 -0.8180  0.0484 -0.1588
 5503TIP3    H138068   3.447   2.970   2.429 -0.2621 -1.8443 -0.0415
 5503TIP3    H238069   3.408   3.040   2.300 -0.2383  1.5708  1.6890
 5504TIP3   OH238070   6.703   6.707   7.066  0.0570  0.1769 -0.6028
 5504TIP3    H138071   6.711   6.766   7.141 -1.4678  0.3081 -0.5148
 5504TIP3    H238072   6.768   6.639   7.082 -0.2906  0.1583  0.8790
 5505TIP3   OH238073   2.691   6.343   0.035 -0.0712  0.4031  0.1290
 5505TIP3    H138074   2.685   6.369   0.127 -1.4790 -0.3657  0.2824
 5505TIP3    H238075   2.664   6.422  -0.013  2.0710  1.2888  0.2593
 5506TIP3   OH238076   5.611   6.595   1.853  0.1446 -0.1409  0.1139
 5506TIP3    H138077   5.588   6.606   1.945 -1.9818 -1.5451 -0.1590
 5506TIP3    H238078   5.528   6.570   1.811  1.3630 -1.0598 -1.8938
 5507TIP3   OH238079   6.509   4.824   8.634 -0.2081  0.4011 -0.3519
 5507TIP3    H138080   6.505   4.802   8.727 -0.4263 -2.0616 -0.8854
 5507TIP3    H238081   6.597   4.859   8.622 -0.0782  0.4854  0.7213
 5508TIP3   OH238082   3.506   0.907   1.978 -0.3500 -0.2257 -0.2558
 5508TIP3    H138083   3.420   0.897   2.020 -0.6182  0.9423 -0.4901
 5508TIP3    H238084   3.499   0.989   1.929  1.9465  1.7284  2.3988
 5509TIP3   OH238085   1.584   5.696   8.045  0.2015  0.1010 -0.2838
 5509TIP3    H138086   1.554   5.625   7.988 -0.5779  0.6529 -0.5771
 5509TIP3    H238087   1.677   5.680   8.057  0.0325 -0.9772 -0.3436
 5510TIP3   OH238088   3.963   1.964   2.608 -0.6246  0.4259 -0.3546
 5510TIP3    H138089   3.957   1.959   2.703  0.1589  0.2399 -0.3086
 5510TIP3    H238090   3.948   1.874   2.579  2.1711 -0.1785 -0.2024
 5511TIP3   OH238091   2.945   1.741   0.039 -0.6913  0.2329  0.3550
 5511TIP3    H138092   2.942   1.835   0.020  3.0457  0.0623 -2.1494
 5511TIP3    H238093   2.921   1.699  -0.044 -0.0815 -0.9651  0.7620
 5512TIP3   OH238094   6.177   1.798   1.747  0.0197 -0.4196  0.3233
 5512TIP3    H138095   6.111   1.851   1.702 -0.3122 -1.0343  0.0818
 5512TIP3    H238096   6.149   1.708   1.734  1.8739 -0.8222 -1.3395
 5513TIP3   OH238097   1.089   2.621   7.889 -0.6320 -0.2957 -0.2744
 5513TIP3    H138098   0.998   2.592   7.892 -0.1914 -1.6500  1.7511
 5513TIP3    H238099   1.121   2.610   7.979  1.1407  1.4746 -0.6276
 5514TIP3   OH238100   0.102   6.397   7.778  0.8920 -0.0589  0.2766
 5514TIP3    H138101   0.192   6.422   7.755  0.4944  0.9913 -0.2045
 5514TIP3    H238102   0.091   6.310   7.740  1.9399 -0.5222  0.9820
 5515TIP3   OH238103   0.359   6.818   7.127  0.3955  0.5186 -0.3099
 5515TIP3    H138104   0.443   6.822   7.083  1.0508 -1.8921  0.5943
 5515TIP3    H238105   0.373   6.862   7.211  0.7038  0.2989 -0.2471
 5516TIP3   OH238106   0.995   3.435   2.564 -0.2110  0.7028  0.3691
 5516TIP3    H138107   0.989   3.427   2.660  0.3460 -0.8858  0.3005
 5516TIP3    H238108   0.905   3.433   2.534 -0.4438  2.0686  0.8980
 5517TIP3   OH238109   2.940   5.129   3.241 -0.0439 -0.7856 -0.2272
 5517TIP3    H138110   3.016   5.170   3.199 -2.8836  0.8648 -4.4460
 5517TIP3    H238111   2.954   5.035   3.228  1.1102 -0.5054 -1.2785
 5518TIP3   OH238112   4.977   1.245   0.588  0.2786  0.2826  0.0997
 5518TIP3    H138113   5.072   1.241   0.580  0.3061  2.0535 -1.0262
 5518TIP3    H238114   4.960   1.225   0.680  1.7117 -0.2965  0.2674
 5519TIP3   OH238115   6.816   2.927   7.912  0.6815 -0.3712  0.2589
 5519TIP3    H138116   6.820   2.889   7.999  4.2069  0.5947  0.6617
 5519TIP3    H238117   6.759   2.868   7.863 -1.1880 -1.0978  3.0706
 5520TIP3   OH238118   2.995   4.920   1.446 -0.3285 -0.6779  0.3807
 5520TIP3    H138119   3.005   4.919   1.541 -0.5126  1.6886  0.5009
 5520TIP3    H238120   3.069   4.974   1.415 -1.7874  0.9265 -0.5008
 5521TIP3   OH238121   2.608   3.915   7.465  0.0489  0.5378 -0.1658
 5521TIP3    H138122   2.572   3.916   7.554  2.3538 -1.3696  0.8766
 5521TIP3    H238123   2.696   3.952   7.474  1.0432 -1.4341 -1.2359
 5522TIP3   OH238124   6.181   0.092   1.257  0.4066  0.3782  0.1104
 5522TIP3    H138125   6.164   0.162   1.194 -0.3991 -0.5869 -0.7927
 5522TIP3    H238126   6.263   0.053   1.229  1.2959  1.4675  1.1166
 5523TIP3   OH238127   3.000   3.850   8.044 -0.7857  0.1595  0.6473
 5523TIP3    H138128   2.915   3.871   8.006 -1.7967  1.0901  3.2638
 5523TIP3    H238129   3.015   3.758   8.022 -1.9709  0.2487 -0.6612
 5524TIP3   OH238130   5.144   6.214   2.088  0.1955  0.1971  0.5165
 5524TIP3    H138131   5.172   6.306   2.082 -2.2361  0.9806 -0.1683
 5524TIP3    H238132   5.160   6.178   2.001 -0.6937  0.5860  0.1810
 5525TIP3   OH238133   2.342   2.832   2.344  0.0681 -0.1640  0.2930
 5525TIP3    H138134   2.340   2.742   2.312 -1.4545 -0.5899  1.4794
 5525TIP3    H238135   2.253   2.865   2.327 -0.0569  0.3694  1.8464
 5526TIP3   OH238136   0.501   5.629   7.645  0.1406  0.0957 -0.0676
 5526TIP3    H138137   0.569   5.679   7.690  0.6281 -1.6722  1.2843
 5526TIP3    H238138   0.546   5.589   7.570 -0.1373  1.2447 -0.8696
 5527TIP3   OH238139   5.622   5.642   0.898 -0.2699 -0.5401  0.4450
 5527TIP3    H138140   5.639   5.558   0.856 -0.9839 -0.6497  0.3490
 5527TIP3    H238141   5.636   5.626   0.992  2.0520 -0.1040  0.2172
 5528TIP3   OH238142   6.262   2.334   8.679  0.7292  0.1458  0.3978
 5528TIP3    H138143   6.348   2.306   8.648  1.0768  0.4507  1.0768
 5528TIP3    H238144   6.221   2.253   8.710  0.4596 -0.1275 -0.6367
 5529TIP3   OH238145   0.639   0.272   1.631  0.0012 -0.0736 -0.0318
 5529TIP3    H138146   0.654   0.356   1.588 -0.9147 -0.9910 -2.2683
 5529TIP3    H238147   0.605   0.215   1.563  1.9959 -2.7579  1.0167
 5530TIP3   OH238148   5.229   3.972   0.259  0.5104  0.7711 -0.0667
 5530TIP3    H138149   5.245   4.057   0.218 -0.4181  1.4601  0.9249
 5530TIP3    H238150   5.142   3.946   0.228  0.8800  0.0522 -0.5443
 5531TIP3   OH238151   6.572   4.923   7.872 -0.6313 -0.0211 -0.0218
 5531TIP3    H138152   6.499   4.881   7.828  0.0139 -0.3507 -0.8052
 5531TIP3    H238153   6.572   5.013   7.838 -0.4419 -0.1324 -0.3242
 5532TIP3   OH238154   0.954   4.799   1.024 -0.4422 -0.0799  0.6471
 5532TIP3    H138155   0.897   4.810   0.948  0.3000  0.3546  0.1352
 5532TIP3    H238156   1.009   4.878   1.024  0.6975 -0.8489  0.6465
 5533TIP3   OH238157   5.057   0.970   0.399  0.1394  0.1092 -0.1941
 5533TIP3    H138158   5.148   0.996   0.389  0.5878 -1.1551  0.4466
 5533TIP3    H238159   5.052   0.931   0.486 -0.9678 -0.0466 -0.3117
 5534TIP3   OH238160   5.487   0.341   2.468 -0.2538 -0.2164  0.2845
 5534TIP3    H138161   5.534   0.378   2.543  1.0796  0.6244 -0.9102
 5534TIP3    H238162   5.510   0.248   2.469 -0.4173 -0.2589  1.0248
 5535TIP3   OH238163   5.112   2.945   7.587  0.6013 -0.0678  0.4695
 5535TIP3    H138164   5.056   2.903   7.652 -1.1594  0.3543 -0.6930
 5535TIP3    H238165   5.181   2.987   7.638 -1.1137  0.8733  2.1621
 5536TIP3   OH238166   2.249   5.731   8.108 -0.7520 -0.3852 -0.0610
 5536TIP3    H138167   2.234   5.756   8.199  0.4161  0.7648 -0.1399
 5536TIP3    H238168   2.342   5.748   8.094 -0.3745 -2.7762 -0.8194
 5537TIP3   OH238169   3.199   6.495   1.712 -0.6494 -0.3941 -0.1577
 5537TIP3    H138170   3.254   6.458   1.782 -1.1994 -0.6344  0.1505
 5537TIP3    H238171   3.248   6.571   1.681 -0.7367  0.1504  0.9906
 5538TIP3   OH238172   1.540   5.906   0.004 -1.0907  0.4948 -0.6321
 5538TIP3    H138173   1.530   5.810   0.004 -0.3207  0.4052 -0.5151
 5538TIP3    H238174   1.584   5.925   0.087  0.6760  0.7143 -1.5513
 5539TIP3   OH238175   2.108   2.640   2.130 -0.3861 -0.1610 -0.5853
 5539TIP3    H138176   2.082   2.719   2.177 -0.4348 -1.4741  1.7307
 5539TIP3    H238177   2.169   2.671   2.063 -0.4845  1.8475  0.1931
 5540TIP3   OH238178   2.963   1.486   1.105 -0.4369  0.3344 -0.1750
 5540TIP3    H138179   3.031   1.486   1.037 -0.2175  0.2618  0.0451
 5540TIP3    H238180   2.900   1.551   1.075 -1.6404 -1.4459 -1.7661
 5541TIP3   OH238181   6.313   2.312   0.343  1.0078  0.1330  0.0813
 5541TIP3    H138182   6.399   2.352   0.332  0.8179  0.4394 -0.2949
 5541TIP3    H238183   6.324   2.222   0.311  1.6138 -0.3522  1.5582
 5542TIP3   OH238184   5.912   2.614   8.657 -1.2950  0.7475  0.0819
 5542TIP3    H138185   5.963   2.686   8.621 -0.4985 -0.3644 -1.1222
 5542TIP3    H238186   5.904   2.633   8.750  1.3844  0.9557  0.3437
 5543TIP3   OH238187   2.599   1.870   0.177 -0.3130 -0.4502 -0.1280
 5543TIP3    H138188   2.551   1.945   0.212  0.0251  0.1174 -0.8459
 5543TIP3    H238189   2.594   1.881   0.082  0.5525 -0.8143 -0.2296
 5544TIP3   OH238190   6.608   2.192   7.977  0.4076  0.0306  0.0878
 5544TIP3    H138191   6.680   2.131   7.990  0.5562  0.4075  1.0660
 5544TIP3    H238192   6.564   2.160   7.897  3.3506  1.4621 -2.2927
 5545TIP3   OH238193   1.246   0.282   6.922  0.0518  0.0072  0.5631
 5545TIP3    H138194   1.272   0.372   6.941  2.3086 -0.1490 -1.3521
 5545TIP3    H238195   1.206   0.286   6.835  0.7734 -0.9067  0.1664
 5546TIP3   OH238196   6.801   0.005   8.520 -0.3752  0.2063 -0.0660
 5546TIP3    H138197   6.724  -0.044   8.491 -1.2853  1.5807 -0.0584
 5546TIP3    H238198   6.844   0.033   8.440  0.0568 -0.4420 -0.0695
 5547TIP3   OH238199   6.754   3.347   1.323 -0.2103 -0.5824  0.4276
 5547TIP3    H138200   6.808   3.381   1.394  0.0053 -0.3623  0.1573
 5547TIP3    H238201   6.757   3.252   1.334  1.9584 -0.7152 -0.8279
 5548TIP3   OH238202   2.274   6.403   2.092  0.0588 -0.1863 -0.2393
 5548TIP3    H138203   2.291   6.361   2.176 -1.5066 -0.1470  0.1191
 5548TIP3    H238204   2.212   6.472   2.112 -0.0715  0.0447 -1.3855
 5549TIP3   OH238205   4.694   6.321   8.110 -0.5345  0.0654  0.5545
 5549TIP3    H138206   4.637   6.291   8.038 -0.1607 -1.4534  0.8482
 5549TIP3    H238207   4.780   6.285   8.089 -0.2122  0.3808  1.2966
 5550TIP3   OH238208   3.970   5.463   0.662  0.7034 -0.2130  0.9777
 5550TIP3    H138209   4.039   5.499   0.606  0.3580 -1.2614 -0.1959
 5550TIP3    H238210   3.915   5.413   0.601 -1.1427  0.6531  1.8576
 5551TIP3   OH238211   0.938   3.244   8.366  0.4447  0.1262  0.2604
 5551TIP3    H138212   0.862   3.220   8.314 -0.1638  1.1924  0.6120
 5551TIP3    H238213   0.907   3.316   8.421  1.5934  0.2861  0.7280
 5552TIP3   OH238214   5.505   1.882   1.603  0.3081 -0.0325 -0.0600
 5552TIP3    H138215   5.506   1.968   1.561  0.5687  0.6145  1.2360
 5552TIP3    H238216   5.493   1.820   1.531  0.2234  1.0785 -1.0195
 5553TIP3   OH238217   0.803   6.370   8.316  0.8536 -0.0548 -0.4187
 5553TIP3    H138218   0.815   6.438   8.250  0.6579  1.1502  0.7519
 5553TIP3    H238219   0.856   6.398   8.391  1.1978 -1.4647 -0.0874
 5554TIP3   OH238220   5.710   5.148   7.554  0.9693 -0.2262 -0.3279
 5554TIP3    H138221   5.732   5.169   7.463  0.9437 -1.1724 -0.5726
 5554TIP3    H238222   5.721   5.230   7.602  0.0623  0.5204 -1.3527
 5555TIP3   OH238223   0.582   3.477   8.576  0.3678 -0.7119  0.0299
 5555TIP3    H138224   0.672   3.486   8.544  0.2839  0.2615  0.0309
 5555TIP3    H238225   0.527   3.506   8.503  0.1179  0.0947  0.5268
 5556TIP3   OH238226   3.967   3.677   6.922  0.0248  0.1078 -0.1847
 5556TIP3    H138227   3.952   3.663   6.828 -1.4340  0.3815 -0.0204
 5556TIP3    H238228   3.890   3.638   6.964 -0.6749  2.2856  0.7165
 5557TIP3   OH238229   4.503   4.106   0.875 -0.0897 -0.0206  0.5914
 5557TIP3    H138230   4.441   4.044   0.836 -1.9400  2.5986 -0.9457
 5557TIP3    H238231   4.537   4.156   0.800  0.9284  1.1906  1.8121
 5558TIP3   OH238232   1.120   5.257   7.377 -0.2228  0.0303  0.5040
 5558TIP3    H138233   1.118   5.203   7.298  1.0728 -0.1354  0.5649
 5558TIP3    H238234   1.122   5.347   7.344  0.3123 -0.0384  0.3479
 5559TIP3   OH238235   1.613   3.084   8.187  0.2062 -0.4299 -0.2258
 5559TIP3    H138236   1.646   3.159   8.138 -0.4668 -0.7524 -1.1988
 5559TIP3    H238237   1.570   3.121   8.264  1.9723  0.0450  0.5878
 5560TIP3   OH238238   2.601   1.671   2.467 -0.2952  0.1244  0.1381
 5560TIP3    H138239   2.642   1.609   2.526 -0.1048  1.5812  1.6218
 5560TIP3    H238240   2.571   1.742   2.524 -0.5435  1.3666 -1.4614
 5561TIP3   OH238241   4.658   0.498   7.974 -0.4951  0.0403 -0.0877
 5561TIP3    H138242   4.715   0.495   7.897  1.0829  1.1516  0.9726
 5561TIP3    H238243   4.590   0.433   7.956  0.9072 -1.1003 -1.5663
 5562TIP3   OH238244   4.214   5.247   8.644  0.0892 -0.1158  0.1045
 5562TIP3    H138245   4.176   5.329   8.613 -0.4423  0.3644  1.8588
 5562TIP3    H238246   4.301   5.272   8.675 -0.8637  0.3348  2.6884
 5563TIP3   OH238247   2.071   0.495   8.419  0.6360  0.0040  0.3443
 5563TIP3    H138248   1.991   0.467   8.465  0.5236  1.5058  1.1343
 5563TIP3    H238249   2.119   0.545   8.485  1.3979  0.5798 -0.6319
 5564TIP3   OH238250   6.533   2.465   1.715  0.9168 -0.1967  0.1585
 5564TIP3    H138251   6.487   2.518   1.649 -0.6547 -0.4731  0.9660
 5564TIP3    H238252   6.575   2.395   1.665 -0.0523 -0.2670 -0.5980
 5565TIP3   OH238253   2.370   6.372   8.653  0.5141  0.3263 -0.1956
 5565TIP3    H138254   2.379   6.409   8.565  0.5929 -0.3093 -0.4569
 5565TIP3    H238255   2.459   6.357   8.682  0.4647 -0.6949 -0.5385
 5566TIP3   OH238256   1.051   5.325   0.526  0.0152  0.2940 -0.2356
 5566TIP3    H138257   1.084   5.246   0.483  0.0742  0.6797 -0.9164
 5566TIP3    H238258   0.967   5.342   0.483  0.5022  1.2018 -0.8370
 5567TIP3   OH238259   2.661   0.749   1.696 -0.0025 -0.9142  0.4444
 5567TIP3    H138260   2.751   0.778   1.709 -0.8002  2.0193  0.1204
 5567TIP3    H238261   2.623   0.814   1.636 -2.4780 -1.7538  0.9652
 5568TIP3   OH238262   5.986   3.353   0.041  0.2085  0.1371 -0.0113
 5568TIP3    H138263   5.903   3.321   0.077  0.7489 -0.3840  0.8028
 5568TIP3    H238264   5.975   3.448   0.037 -0.1542  0.1361  0.7994
 5569TIP3   OH238265   3.674   6.060   1.364 -0.1267  0.3171 -0.6711
 5569TIP3    H138266   3.708   6.074   1.452 -0.4816 -1.1510 -0.2685
 5569TIP3    H238267   3.582   6.039   1.377  0.1448 -1.4022 -1.2195
 5570TIP3   OH238268   4.949   4.230   8.202 -0.1572  0.4198  0.2653
 5570TIP3    H138269   4.925   4.138   8.206 -1.7021  0.8139  0.8043
 5570TIP3    H238270   4.899   4.265   8.128 -0.4699  1.0511  0.7659
 5571TIP3   OH238271   6.449   0.968   1.728 -0.4763  0.2689  0.3630
 5571TIP3    H138272   6.398   0.965   1.809 -0.2740 -0.2174  0.4717
 5571TIP3    H238273   6.533   1.005   1.755  0.0986 -1.1850  0.6558
 5572TIP3   OH238274   5.778   4.897   0.313  0.6333  0.4910 -0.0607
 5572TIP3    H138275   5.723   4.892   0.235  0.9733 -2.1331 -0.2314
 5572TIP3    H238276   5.851   4.837   0.295  0.0039 -1.3523  2.7512
 5573TIP3   OH238277   6.369   6.383   1.139  0.2015 -0.1588  0.2668
 5573TIP3    H138278   6.398   6.347   1.055  1.3597  0.3909  0.4119
 5573TIP3    H238279   6.274   6.369   1.139  0.0312  0.6566 -1.5395
 5574TIP3   OH238280   3.721   5.676   1.363  0.1466  0.0300  0.2136
 5574TIP3    H138281   3.804   5.658   1.318  0.2759 -0.9726  0.8371
 5574TIP3    H238282   3.748   5.717   1.446  0.0453 -0.7512  0.6353
 5575TIP3   OH238283   0.207   4.638   1.083 -0.2766  0.1160  0.4340
 5575TIP3    H138284   0.285   4.661   1.031 -0.8168  0.1665 -0.3797
 5575TIP3    H238285   0.136   4.687   1.041 -0.4207  1.7456  2.4317
 5576TIP3   OH238286   2.764   5.682   7.839 -0.1483 -0.0758 -0.2684
 5576TIP3    H138287   2.673   5.711   7.832 -0.2930 -0.5398 -0.3152
 5576TIP3    H238288   2.782   5.683   7.933 -0.0497  0.4761 -0.2899
 5577TIP3   OH238289   1.973   0.702   0.563 -0.3256 -0.9800  0.0400
 5577TIP3    H138290   1.906   0.728   0.501 -0.0369 -0.4471 -0.0530
 5577TIP3    H238291   1.934   0.629   0.612 -1.9172  0.7976  1.6116
 5578TIP3   OH238292   0.850   5.095   2.035  0.0714 -0.6690 -0.5273
 5578TIP3    H138293   0.767   5.048   2.025  0.0801 -0.4789 -1.6627
 5578TIP3    H238294   0.835   5.155   2.108 -0.0930 -2.0838  0.6290
 5579TIP3   OH238295   4.251   5.647   0.011  0.1545 -0.1524 -0.4339
 5579TIP3    H138296   4.331   5.691  -0.017 -0.2397  1.4586  0.8176
 5579TIP3    H238297   4.277   5.595   0.087 -0.0997  0.9898  0.4614
 5580TIP3   OH238298   6.257   0.705   8.502 -0.1088 -0.5378 -0.5530
 5580TIP3    H138299   6.324   0.754   8.455 -0.1686 -0.2416 -0.3331
 5580TIP3    H238300   6.305   0.632   8.542  0.0978 -0.2845 -0.3332
 5581TIP3   OH238301   0.645   2.821   8.617 -0.5082  0.4648  0.1662
 5581TIP3    H138302   0.599   2.744   8.649  1.0366  0.3403  2.2858
 5581TIP3    H238303   0.593   2.895   8.649 -0.4154  0.3105  0.6782
 5582TIP3   OH238304   0.392   1.228   1.997 -0.1484 -0.0705 -0.1014
 5582TIP3    H138305   0.448   1.280   1.939  0.5327 -0.2586  0.3772
 5582TIP3    H238306   0.416   1.137   1.978  2.1719 -0.1274  2.4108
 5583TIP3   OH238307   1.288   5.090   0.573 -0.0672 -0.3073  0.3876
 5583TIP3    H138308   1.229   5.057   0.641 -0.5453 -0.3532 -0.0398
 5583TIP3    H238309   1.356   5.137   0.621  0.9841 -2.3892  1.0637
 5584TIP3   OH238310   5.173   1.144   7.908 -0.1004  0.0411  0.7303
 5584TIP3    H138311   5.082   1.160   7.883 -0.3164 -1.0218  0.7650
 5584TIP3    H238312   5.184   1.050   7.896  0.6832 -0.0090  1.7484
 5585TIP3   OH238313   2.250   5.048   0.160  0.5112 -0.2890 -0.3059
 5585TIP3    H138314   2.237   5.086   0.247  4.0492 -0.1940  0.3322
 5585TIP3    H238315   2.221   5.116   0.100 -0.0011  0.5108  0.7973
 5586TIP3   OH238316   5.062   5.678   8.019 -0.0610 -0.3784  0.4050
 5586TIP3    H138317   4.968   5.688   8.008 -0.0160  0.5900  0.8001
 5586TIP3    H238318   5.074   5.589   8.051 -0.8646 -0.4190  0.6001
 5587TIP3   OH238319   0.183   4.844   1.284 -0.2833  0.5867  0.1704
 5587TIP3    H138320   0.176   4.772   1.222  0.0404  0.2903  0.4732
 5587TIP3    H238321   0.158   4.806   1.368 -2.4498  1.4059 -0.0476
 5588TIP3   OH238322   4.254   2.167   1.181 -0.5082  0.2143  0.1405
 5588TIP3    H138323   4.251   2.162   1.277  0.2319 -0.9088  0.1192
 5588TIP3    H238324   4.309   2.243   1.163  1.1319 -0.8058  0.6424
 5589TIP3   OH238325   3.888   3.413   8.355  0.1314  0.0497 -0.2731
 5589TIP3    H138326   3.887   3.508   8.344 -1.1430  0.2786  1.4060
 5589TIP3    H238327   3.981   3.390   8.359  0.4689  1.4384  0.7181
 5590TIP3   OH238328   4.501   2.416   0.073  0.2440  0.6088 -0.1970
 5590TIP3    H138329   4.455   2.459   0.145 -0.7106  1.3999 -1.2328
 5590TIP3    H238330   4.457   2.332   0.062  0.2383  0.5882 -0.0101
 5591TIP3   OH238331   4.185   1.673   0.803 -0.5982  0.1816 -0.3197
 5591TIP3    H138332   4.187   1.766   0.784  0.6877  0.8623  2.5894
 5591TIP3    H238333   4.098   1.659   0.841 -0.3784  0.4552  0.2917
 5592TIP3   OH238334   3.016   1.858   2.075  0.5409 -0.1306  0.2005
 5592TIP3    H138335   2.953   1.822   2.137 -1.2071 -0.7445 -1.8397
 5592TIP3    H238336   3.062   1.926   2.125 -0.4909 -0.8736  2.2705
 5593TIP3   OH238337   0.703   0.297   3.238  0.3263 -0.7957  0.0451
 5593TIP3    H138338   0.762   0.227   3.263 -0.6781 -0.7312  2.9201
 5593TIP3    H238339   0.707   0.360   3.310 -1.9182  0.0486 -0.4605
 5594TIP3   OH238340   0.246   5.647   8.091 -0.0491  0.2260 -0.5429
 5594TIP3    H138341   0.320   5.697   8.057  1.0314 -1.2786 -0.5447
 5594TIP3    H238342   0.202   5.613   8.013 -0.0127  0.1377 -0.5261
 5595TIP3   OH238343   6.397   0.829   7.864 -0.3602  0.2877 -0.1546
 5595TIP3    H138344   6.339   0.754   7.880 -2.7639  1.8891 -0.8761
 5595TIP3    H238345   6.406   0.871   7.950 -2.3810  1.4224 -0.4531
 5596TIP3   OH238346   4.574   1.778   1.306  0.1879  0.0861  0.5579
 5596TIP3    H138347   4.646   1.786   1.243 -1.0074 -2.1226 -1.2876
 5596TIP3    H238348   4.566   1.683   1.320 -2.4882  0.2199  0.4352
 5597TIP3   OH238349   2.044   2.016   0.429 -0.5081 -0.1432 -0.1239
 5597TIP3    H138350   2.099   2.004   0.507  0.0496 -0.7781 -0.6013
 5597TIP3    H238351   2.044   2.110   0.413  1.7892 -0.2411 -1.0470
 5598TIP3   OH238352   2.162   5.108   0.425 -0.4235 -0.5909  0.3558
 5598TIP3    H138353   2.067   5.109   0.439 -0.5105  0.3814 -0.1748
 5598TIP3    H238354   2.197   5.163   0.495 -0.6781  2.6004 -1.8224
 5599TIP3   OH238355   4.863   3.908   6.495  0.2158 -0.7410 -0.6716
 5599TIP3    H138356   4.839   3.869   6.411  0.1409 -0.4218 -0.8006
 5599TIP3    H238357   4.814   3.859   6.560 -0.2698 -0.5344 -0.8747
 5600TIP3   OH238358   4.466   0.548   8.508 -0.8048 -0.5173 -0.3056
 5600TIP3    H138359   4.515   0.484   8.456  0.1497  0.5864 -0.8118
 5600TIP3    H238360   4.385   0.503   8.531  0.1803 -2.1984  0.0605
 5601TIP3   OH238361   5.655   6.126   0.843  0.0788  0.3676 -0.4364
 5601TIP3    H138362   5.622   6.210   0.875 -0.2628 -0.2028  0.7674
 5601TIP3    H238363   5.750   6.134   0.847  0.0582  0.0195  1.6181
 5602TIP3   OH238364   0.423   1.847   1.523 -0.3746 -0.4071  0.4511
 5602TIP3    H138365   0.444   1.758   1.552  0.5819 -0.6627 -0.9084
 5602TIP3    H238366   0.506   1.882   1.490 -0.8215  0.8580  0.6067
 5603TIP3   OH238367   1.794   6.521   1.732  0.0304 -0.2016  0.6087
 5603TIP3    H138368   1.753   6.460   1.794 -2.9833 -0.8850 -1.8343
 5603TIP3    H238369   1.736   6.596   1.729 -0.7485 -0.7828 -2.3077
 5604TIP3   OH238370   2.163   2.770   8.281  0.6166 -0.6963  0.2168
 5604TIP3    H138371   2.234   2.750   8.342  1.0492  0.8718  0.2612
 5604TIP3    H238372   2.204   2.772   8.195  0.5489 -0.2231  0.1925
 5605TIP3   OH238373   4.578   3.727   1.718 -0.3833 -0.2096  0.9675
 5605TIP3    H138374   4.513   3.749   1.784 -0.6940 -0.6485  0.8099
 5605TIP3    H238375   4.658   3.708   1.768  0.7831  3.9298  1.0572
 5606TIP3   OH238376   4.628   5.936   0.004 -0.7101 -0.6552  0.2077
 5606TIP3    H138377   4.560   5.869  -0.006  0.4663 -1.7968 -0.2951
 5606TIP3    H238378   4.708   5.894  -0.026 -0.0770  1.2373 -0.8807
 5607TIP3   OH238379   5.115   2.349   7.826 -0.2177  0.2027  0.8266
 5607TIP3    H138380   5.099   2.255   7.839  1.0650  0.3016  3.9402
 5607TIP3    H238381   5.205   2.353   7.793 -0.8038  0.3618 -0.9032
 5608TIP3   OH238382   1.012   2.238   7.046  0.7249  0.1622  0.3485
 5608TIP3    H138383   0.948   2.172   7.072  0.3764  1.2070  2.3695
 5608TIP3    H238384   0.963   2.320   7.045  1.4571  0.6114 -0.7298
 5609TIP3   OH238385   1.277   1.992   7.976 -0.1474 -0.1059 -0.1903
 5609TIP3    H138386   1.248   2.051   7.907  2.5610  1.7054  0.0411
 5609TIP3    H238387   1.326   1.924   7.930  0.8442  0.5813 -0.2077
 5610TIP3   OH238388   5.098   2.100   0.966  0.0821 -0.5207 -0.1169
 5610TIP3    H138389   5.112   2.180   0.916  2.4352 -1.4525 -1.1388
 5610TIP3    H238390   5.060   2.039   0.903  2.1778 -1.4099 -0.6205
 5611TIP3   OH238391   3.569   1.055   1.263  0.4810  0.0031 -0.4073
 5611TIP3    H138392   3.489   1.005   1.245 -0.2865  0.5479  1.2874
 5611TIP3    H238393   3.620   1.048   1.183 -0.8515 -1.1438 -1.2030
 5612TIP3   OH238394   3.700   3.013   7.992  0.3191 -0.5579 -0.1473
 5612TIP3    H138395   3.794   3.019   8.011  0.2910  0.3535 -0.2856
 5612TIP3    H238396   3.694   3.021   7.897  0.1106 -0.8536 -0.1616
 5613TIP3   OH238397   5.243   4.003   1.478  0.2180  0.3500 -0.4516
 5613TIP3    H138398   5.230   4.096   1.458  0.4398  0.2440 -1.0953
 5613TIP3    H238399   5.336   3.988   1.462  0.1953  0.0306 -0.2824
 5614TIP3   OH238400   3.012   3.349   2.280  0.1638 -0.2606  0.2155
 5614TIP3    H138401   3.097   3.394   2.277 -0.5363  1.1132 -0.1022
 5614TIP3    H238402   2.987   3.352   2.372 -0.3737  1.0338  0.0512
 5615TIP3   OH238403   0.387   2.495   1.222 -0.4347  0.3096  0.4545
 5615TIP3    H138404   0.375   2.492   1.127  0.6418 -1.3092  0.3382
 5615TIP3    H238405   0.298   2.503   1.257 -0.9163  0.0311 -0.6582
 5616TIP3   OH238406   6.369   4.489   0.638  0.1793 -0.4575 -0.2121
 5616TIP3    H138407   6.283   4.531   0.650  0.0633 -0.5257 -0.7548
 5616TIP3    H238408   6.365   4.411   0.694 -0.4715 -0.9570 -0.9227
 5617TIP3   OH238409   3.211   4.317   2.401 -0.4949  0.2755  0.2130
 5617TIP3    H138410   3.303   4.338   2.382  0.0124 -0.4079  1.7467
 5617TIP3    H238411   3.166   4.401   2.398  0.5111  0.8669  1.0573
 5618TIP3   OH238412   1.631   5.724   1.206 -0.2107 -0.2799 -0.4718
 5618TIP3    H138413   1.640   5.762   1.293  2.4814 -1.1269 -0.3076
 5618TIP3    H238414   1.574   5.648   1.219 -2.2267  1.2027 -0.0660
 5619TIP3   OH238415   2.745   0.300   1.316  0.4802 -0.3215 -0.1220
 5619TIP3    H138416   2.711   0.387   1.298 -0.4777  0.1625  3.2981
 5619TIP3    H238417   2.711   0.279   1.403  0.8414 -4.0474 -0.7236
 5620TIP3   OH238418   1.688   1.453   1.782 -0.5402  0.1090 -1.2876
 5620TIP3    H138419   1.622   1.384   1.788 -0.7485  0.4206  0.1857
 5620TIP3    H238420   1.751   1.433   1.850 -2.8711  3.6682  2.3971
 5621TIP3   OH238421   1.989   1.118   2.236  0.1850  0.4239 -0.1582
 5621TIP3    H138422   1.908   1.166   2.220 -1.7013 -2.4071  0.3492
 5621TIP3    H238423   2.041   1.131   2.156 -1.5577  0.7508 -1.2801
 5622TIP3   OH238424   2.920   0.241   2.625 -0.1428 -0.2527  0.2673
 5622TIP3    H138425   2.959   0.172   2.572 -1.8410  0.3720 -1.9635
 5622TIP3    H238426   2.879   0.194   2.698  2.5681 -1.1060  1.3450
 5623TIP3   OH238427   4.677   4.143   1.340 -0.4733  0.1613  0.4007
 5623TIP3    H138428   4.720   4.091   1.272 -0.7344  0.8817 -0.3344
 5623TIP3    H238429   4.584   4.125   1.329 -0.4171 -1.7556  2.2877
 5624TIP3   OH238430   0.002   3.076   8.518  0.3373 -1.0948 -0.1161
 5624TIP3    H138431   0.023   3.077   8.612  2.9911 -0.7398 -0.6201
 5624TIP3    H238432   0.034   3.160   8.486 -0.7009 -1.1424 -1.3420
 5625TIP3   OH238433   1.086   0.138   0.097  0.2450  0.3237  0.1688
 5625TIP3    H138434   1.044   0.079   0.035  0.0970  0.0190  0.5619
 5625TIP3    H238435   1.121   0.082   0.166  1.9825  0.4821 -0.5247
 5626TIP3   OH238436   6.113   0.911   7.057 -0.3616  0.4791 -0.3182
 5626TIP3    H138437   6.180   0.925   6.989 -0.8136  0.1451 -0.8389
 5626TIP3    H238438   6.161   0.868   7.128  0.2676  1.4489 -0.1311
 5627TIP3   OH238439   5.822   1.258   1.146 -0.1661  0.5201 -0.1982
 5627TIP3    H138440   5.810   1.299   1.232  0.7165  1.2986 -0.4358
 5627TIP3    H238441   5.843   1.330   1.087  1.1880 -0.2201 -0.6631
 5628TIP3   OH238442   6.622   5.608   0.481  0.4346  0.2224  0.2024
 5628TIP3    H138443   6.695   5.603   0.419  0.6187  2.4997  0.1770
 5628TIP3    H238444   6.645   5.545   0.550  2.1312  0.4819 -0.0959
 5629TIP3   OH238445   3.919   4.407   0.825 -0.3248 -0.4168 -0.4920
 5629TIP3    H138446   3.982   4.365   0.766 -1.4027 -1.4767 -0.9439
 5629TIP3    H238447   3.927   4.501   0.806  1.2291 -0.5074 -0.3936
 5630TIP3   OH238448   6.646   5.140   7.699 -0.6812 -0.0441 -1.0303
 5630TIP3    H138449   6.707   5.214   7.706 -0.2472 -0.4861  0.3556
 5630TIP3    H238450   6.679   5.089   7.625  1.4894 -0.9435  0.4185
 5631TIP3   OH238451   5.914   2.161   8.251  0.0485  0.3465 -1.0521
 5631TIP3    H138452   5.875   2.093   8.306 -1.0214  1.2762 -0.6299
 5631TIP3    H238453   5.914   2.240   8.305  1.2557  0.7108 -1.5376
 5632TIP3   OH238454   6.308   1.651   0.622 -0.7363 -0.1972 -0.0593
 5632TIP3    H138455   6.252   1.711   0.671  1.1632  1.0283  0.7062
 5632TIP3    H238456   6.366   1.613   0.688  0.2902 -0.3399 -1.0162
 5633TIP3   OH238457   0.660   4.815   8.152  0.0840  0.2045 -0.1895
 5633TIP3    H138458   0.726   4.745   8.151  0.2652  0.3814 -1.0008
 5633TIP3    H238459   0.593   4.784   8.212  0.5259 -0.3309  0.0354
 5634TIP3   OH238460   4.764   0.158   8.284 -0.2411  0.2143  0.4240
 5634TIP3    H138461   4.704   0.231   8.297  0.1845  0.4666  1.0497
 5634TIP3    H238462   4.730   0.111   8.208  0.3352  1.9532 -0.9854
 5635TIP3   OH238463   3.708   1.253   7.119 -0.4923  0.4119 -0.2808
 5635TIP3    H138464   3.709   1.157   7.119 -0.7040  0.4078 -0.9546
 5635TIP3    H238465   3.618   1.276   7.097 -0.4666  0.7739 -0.0260
 5636TIP3   OH238466   6.560   1.328   8.416 -0.2247  0.0459 -0.6496
 5636TIP3    H138467   6.581   1.400   8.475  1.1460 -1.9041  1.3922
 5636TIP3    H238468   6.465   1.330   8.408 -0.3103  1.3104  0.3957
 5637TIP3   OH238469   6.517   3.569   2.021 -0.0173 -0.2202 -0.1104
 5637TIP3    H138470   6.565   3.586   1.940  0.2507 -0.1596  0.0627
 5637TIP3    H238471   6.429   3.544   1.991  0.4151 -1.3836 -0.4728
 5638TIP3   OH238472   1.896   3.770   1.698  0.1424 -0.0500 -0.0984
 5638TIP3    H138473   1.983   3.756   1.662 -0.0245 -0.7800 -0.2350
 5638TIP3    H238474   1.845   3.808   1.626  0.3709  0.4555  0.0080
 5639TIP3   OH238475   3.183   0.932   8.327 -0.1500  0.2353 -0.4932
 5639TIP3    H138476   3.127   0.902   8.255 -0.5900  0.8480 -0.4188
 5639TIP3    H238477   3.136   0.907   8.406 -0.9981  1.8835 -0.4178
 5640TIP3   OH238478   3.091   4.819   7.317  0.0844 -0.3181 -0.5381
 5640TIP3    H138479   3.092   4.724   7.309  0.5801 -0.4453  0.7768
 5640TIP3    H238480   3.181   4.843   7.337 -0.6094  0.0249  2.7551
 5641TIP3   OH238481   3.916   6.486   0.657  0.2298 -0.0332  0.3706
 5641TIP3    H138482   3.943   6.578   0.655  0.6506 -0.0901 -3.2797
 5641TIP3    H238483   3.996   6.438   0.679  0.3672  0.3695  0.7658
 5642TIP3   OH238484   5.487   6.704   7.586  0.0540  0.4335  0.4380
 5642TIP3    H138485   5.413   6.654   7.620 -0.3195 -0.4611 -1.5496
 5642TIP3    H238486   5.500   6.670   7.498  0.8398  2.7685 -0.4089
 5643TIP3   OH238487   0.543   5.974   0.117 -0.1024  0.1050  0.4862
 5643TIP3    H138488   0.576   5.885   0.107 -0.9999 -0.0941 -0.9112
 5643TIP3    H238489   0.565   6.018   0.035 -1.9625  0.3881  0.1071
 5644TIP3   OH238490   3.281   3.733   0.757  0.1260 -0.4442 -0.0662
 5644TIP3    H138491   3.224   3.688   0.820  1.3474 -1.3261  0.4452
 5644TIP3    H238492   3.262   3.826   0.771 -0.8079 -0.6983  0.4512
 5645TIP3   OH238493   3.382   2.931   0.096  0.1132  0.2712  0.3402
 5645TIP3    H138494   3.430   2.955   0.175 -1.9840 -0.3452  1.9074
 5645TIP3    H238495   3.368   3.014   0.050  0.8842  0.7209  0.9088
 5646TIP3   OH238496   5.110   0.580   7.475  0.0457  0.1043 -0.0471
 5646TIP3    H138497   5.135   0.616   7.390 -1.3162  1.7417  0.2049
 5646TIP3    H238498   5.024   0.541   7.460  0.3130 -0.6568  0.3342
 5647TIP3   OH238499   1.243   6.184   1.620 -0.0593 -0.0006 -0.0087
 5647TIP3    H138500   1.152   6.178   1.649 -0.3710 -0.7428 -1.0730
 5647TIP3    H238501   1.237   6.219   1.531  0.7197  0.1167 -0.0250
 5648TIP3   OH238502   6.644   1.142   1.842  1.0193  0.3393  0.2746
 5648TIP3    H138503   6.621   1.208   1.776 -0.3204  0.6800  1.0419
 5648TIP3    H238504   6.676   1.194   1.917  0.3535  0.0986  0.7306
 5649TIP3   OH238505   1.635   4.362   0.254 -0.5380 -0.3732  0.1870
 5649TIP3    H138506   1.613   4.317   0.172 -0.4496  1.2778 -0.7999
 5649TIP3    H238507   1.583   4.318   0.321 -3.0033  0.1665 -1.2581
 5650TIP3   OH238508   6.700   5.609   7.661  0.0964  0.5241  0.3719
 5650TIP3    H138509   6.714   5.643   7.749  2.3008  0.1496  0.2041
 5650TIP3    H238510   6.749   5.667   7.604  0.7237 -0.6392 -0.3188
 5651TIP3   OH238511   1.042   5.916   1.282  0.5134  0.2978  0.6357
 5651TIP3    H138512   1.116   5.952   1.235  1.4031 -1.1218  0.8898
 5651TIP3    H238513   1.032   5.972   1.359 -0.9099  2.5981 -1.0856
 5652TIP3   OH238514   3.472   4.363   8.392  0.2300  0.2030  0.4771
 5652TIP3    H138515   3.440   4.443   8.352  0.8731  0.2455  0.0320
 5652TIP3    H238516   3.479   4.384   8.485  0.1033  0.5648  0.4054
 5653TIP3   OH238517   0.324   6.447   0.076  0.1366  0.4684 -0.0298
 5653TIP3    H138518   0.357   6.534   0.099  0.3056  0.2408  0.6160
 5653TIP3    H238519   0.343   6.393   0.153  2.0923 -0.7041 -1.2304
 5654TIP3   OH238520   6.077   2.124   0.796 -0.0180  0.3890 -0.1389
 5654TIP3    H138521   6.083   2.165   0.710  0.8346  0.1165 -0.2138
 5654TIP3    H238522   6.134   2.175   0.853  0.3290 -0.1239 -0.0144
 5655TIP3   OH238523   3.993   0.448   0.841 -0.3079 -0.1027 -0.0774
 5655TIP3    H138524   3.919   0.469   0.898 -0.7394 -2.2221  0.2106
 5655TIP3    H238525   4.064   0.505   0.872 -1.9387  2.5272 -0.8558
 5656TIP3   OH238526   4.691   3.622   7.405  0.5114  0.2247  0.2731
 5656TIP3    H138527   4.618   3.579   7.450 -1.3845  0.4693 -2.3528
 5656TIP3    H238528   4.754   3.552   7.390 -0.1266 -0.4750  0.7572
 5657TIP3   OH238529   3.094   3.374   0.041 -0.0339 -0.2826 -0.0906
 5657TIP3    H138530   3.152   3.448   0.025 -1.3906  0.9802  0.6487
 5657TIP3    H238531   3.009   3.402   0.007 -1.1390 -0.5383  2.2803
 5658TIP3   OH238532   1.658   1.491   7.851  0.2717 -0.0925  0.3966
 5658TIP3    H138533   1.701   1.544   7.784 -1.4647  3.6923  2.0173
 5658TIP3    H238534   1.715   1.497   7.928 -0.5359  0.5433  0.9678
 5659TIP3   OH238535   2.262   1.867   7.663  0.1595  0.2130 -0.0335
 5659TIP3    H138536   2.314   1.824   7.595 -1.5924 -0.5952 -0.9580
 5659TIP3    H238537   2.189   1.907   7.615  1.9229  4.8234  0.7060
 5660TIP3   OH238538   5.873   6.090   8.660  0.4660  0.6445 -0.0172
 5660TIP3    H138539   5.881   6.162   8.598 -0.8864 -0.5732 -1.6824
 5660TIP3    H238540   5.790   6.048   8.638 -0.4671  0.5936  3.1446
 5661TIP3   OH238541   4.680   6.705   7.126  0.2064 -0.2923 -0.7462
 5661TIP3    H138542   4.610   6.641   7.117  0.4045 -0.3675 -1.8717
 5661TIP3    H238543   4.733   6.695   7.047  2.7371 -1.6959  0.9534
 5662TIP3   OH238544   3.339   5.115   2.401  0.3359 -0.6421 -0.0764
 5662TIP3    H138545   3.257   5.102   2.354  0.1362  1.7434 -0.5163
 5662TIP3    H238546   3.402   5.139   2.333  0.7872 -0.1097  0.5131
 5663TIP3   OH238547   0.161   4.725   8.230 -0.1125  0.0101  0.1011
 5663TIP3    H138548   0.256   4.714   8.239 -0.2012 -1.6263 -0.5667
 5663TIP3    H238549   0.129   4.638   8.205 -1.6089  0.8610 -1.1397
 5664TIP3   OH238550   1.365   4.922   2.107 -0.5301  0.1221  0.1070
 5664TIP3    H138551   1.410   4.996   2.147  0.8244  0.4868 -1.9067
 5664TIP3    H238552   1.337   4.868   2.180  1.7692  0.7435  1.5384
 5665TIP3   OH238553   0.009   3.639   0.919  0.0717  0.3815 -0.1613
 5665TIP3    H138554  -0.031   3.612   1.001  1.3667  0.9371  0.6726
 5665TIP3    H238555  -0.004   3.565   0.860 -1.1229  0.0897  0.4290
 5666TIP3   OH238556   3.562   1.228   8.427 -0.2620  0.2052  0.7556
 5666TIP3    H138557   3.506   1.285   8.479 -2.4059 -0.4640 -0.6835
 5666TIP3    H238558   3.552   1.141   8.465  1.1980  0.3444  1.5313
 5667TIP3   OH238559   2.906   1.502   7.826 -0.3642 -0.2132 -0.6957
 5667TIP3    H138560   2.834   1.442   7.844 -0.2043  0.0235  0.8176
 5667TIP3    H238561   2.917   1.498   7.731 -2.8896  0.3369 -1.0851
 5668TIP3   OH238562   2.744   6.843   2.002  0.4779  0.5045 -0.5781
 5668TIP3    H138563   2.758   6.858   1.908 -0.5419  1.3366 -0.6034
 5668TIP3    H238564   2.793   6.913   2.045  0.0191  0.8001 -0.5313
 5669TIP3   OH238565   3.265   0.696   7.947 -0.1831 -0.0815  0.4375
 5669TIP3    H138566   3.357   0.672   7.933 -0.7227 -1.1016 -1.7961
 5669TIP3    H238567   3.235   0.638   8.016  1.0862  0.9771  1.9524
 5670TIP3   OH238568   0.063   0.819   1.294  0.3382  0.2599 -0.0888
 5670TIP3    H138569   0.060   0.733   1.337 -1.2782  0.8453  1.0907
 5670TIP3    H238570   0.069   0.881   1.366 -2.0570  1.2613 -0.6511
 5671TIP3   OH238571   3.363   5.994   1.387 -0.4886  0.0315  0.2047
 5671TIP3    H138572   3.344   6.012   1.479 -2.0953 -0.5970  0.0239
 5671TIP3    H238573   3.329   5.906   1.372  0.7981 -0.3335 -0.7153
 5672TIP3   OH238574   1.122   5.602   0.047  0.4504  0.4750 -0.1664
 5672TIP3    H138575   1.200   5.551   0.067 -0.0644  0.5820  2.3569
 5672TIP3    H238576   1.058   5.537   0.016  0.9254  0.1316 -0.4426
 5673TIP3   OH238577   2.611   4.728   7.226  0.5614  0.4387 -0.0629
 5673TIP3    H138578   2.628   4.791   7.155 -1.0124  0.9659 -0.0048
 5673TIP3    H238579   2.669   4.756   7.297  1.0722  0.8120 -0.6076
 5674TIP3   OH238580   2.033   5.672   2.608  0.1273  0.2085 -0.0592
 5674TIP3    H138581   2.085   5.657   2.687 -0.9886  0.3310  0.7215
 5674TIP3    H238582   2.091   5.722   2.551  1.0608 -0.1412  0.5480
 5675TIP3   OH238583   1.513   0.875   2.651  0.0449  0.3065  0.0515
 5675TIP3    H138584   1.496   0.862   2.744 -0.6349  1.2502  0.0756
 5675TIP3    H238585   1.433   0.915   2.617  0.0691 -0.5441 -1.0636
 5676TIP3   OH238586   2.285   4.925   7.222 -0.6149 -0.0504  0.2538
 5676TIP3    H138587   2.251   5.010   7.192  3.3950  1.4117 -0.6702
 5676TIP3    H238588   2.285   4.871   7.144 -0.2717  0.1356  0.1246
 5677TIP3   OH238589   0.838   6.378   6.533 -0.1830  0.2940 -0.1804
 5677TIP3    H138590   0.797   6.297   6.561 -0.5729 -0.3290 -2.3178
 5677TIP3    H238591   0.836   6.435   6.609  0.9675 -2.0095  1.6929
 5678TIP3   OH238592   3.332   5.665   2.717  0.3813 -0.5138 -0.1318
 5678TIP3    H138593   3.376   5.750   2.725 -2.2626  1.0722 -1.2825
 5678TIP3    H238594   3.245   5.686   2.685 -1.0687 -3.5361  1.4294
 5679TIP3   OH238595   2.661   1.974   7.951 -0.1603 -0.3281  0.9162
 5679TIP3    H138596   2.633   1.912   7.884  0.4013 -0.2261  0.5753
 5679TIP3    H238597   2.746   2.006   7.920 -0.1411  0.1235  1.4105
 5680TIP3   OH238598   4.481   3.036   1.639 -0.0413  0.7078  0.0187
 5680TIP3    H138599   4.393   3.000   1.629  0.8504 -1.6474 -0.2195
 5680TIP3    H238600   4.469   3.130   1.645 -2.5543  0.4539 -0.0969
 5681TIP3   OH238601   5.179   0.306   1.055  0.3206  0.2898 -0.3234
 5681TIP3    H138602   5.223   0.366   1.115 -0.4552  1.4720 -0.8981
 5681TIP3    H238603   5.089   0.340   1.049 -0.3443 -1.3494 -0.1240
 5682TIP3   OH238604   2.514   4.009   0.902 -0.4250 -0.2750 -0.5155
 5682TIP3    H138605   2.575   4.009   0.828 -2.0351 -1.8248 -1.9569
 5682TIP3    H238606   2.569   4.016   0.980  1.3579  1.3224 -1.8256
 5683TIP3   OH238607   1.881   1.539   2.309  0.6665 -0.5593 -0.4083
 5683TIP3    H138608   1.862   1.484   2.384 -3.6009  1.5129  0.3435
 5683TIP3    H238609   1.929   1.614   2.345  1.7985 -1.2158 -0.4932
 5684TIP3   OH238610   5.488   5.453   8.352 -0.2375  0.2328 -0.5011
 5684TIP3    H138611   5.507   5.512   8.425 -1.1303  0.4348 -0.4266
 5684TIP3    H238612   5.459   5.511   8.282 -4.6659 -0.2490  0.6603
 5685TIP3   OH238613   1.642   2.688   1.272  0.1776 -0.2093  0.3126
 5685TIP3    H138614   1.567   2.726   1.318 -0.8414 -2.7183  0.8668
 5685TIP3    H238615   1.716   2.743   1.299 -0.9924  0.6302  2.0396
 5686TIP3   OH238616   2.975   3.142   0.658 -0.7341 -0.0113 -0.0560
 5686TIP3    H138617   3.007   3.055   0.681 -0.0103  0.0906 -0.6592
 5686TIP3    H238618   2.960   3.185   0.743 -0.0953 -0.3527  0.2370
 5687TIP3   OH238619   1.427   2.118   0.915  0.5403 -0.3060 -0.3496
 5687TIP3    H138620   1.515   2.081   0.924  0.4187 -0.6650 -0.6201
 5687TIP3    H238621   1.408   2.156   1.001  0.6380 -0.9425 -0.0451
 5688TIP3   OH238622   2.405   2.419   0.555 -0.0210 -0.0935  0.2276
 5688TIP3    H138623   2.485   2.417   0.608  0.1795  0.3870 -0.0548
 5688TIP3    H238624   2.433   2.452   0.470 -0.1099 -2.0023 -0.6032
 5689TIP3   OH238625   0.500   0.788   1.219 -0.0742  0.3567 -0.0655
 5689TIP3    H138626   0.458   0.795   1.133  0.3209 -2.8102 -0.6169
 5689TIP3    H238627   0.579   0.841   1.211 -1.2848  2.1726 -0.7372
 5690TIP3   OH238628   4.737   2.480   8.122 -0.1060  0.9294 -0.3666
 5690TIP3    H138629   4.650   2.484   8.162  0.0129  1.2576 -0.1347
 5690TIP3    H238630   4.725   2.516   8.034 -0.2980  0.5368 -0.5018
 5691TIP3   OH238631   6.101   2.809   8.581  0.4967 -0.0012  0.0235
 5691TIP3    H138632   6.139   2.801   8.494 -1.7114 -0.8997 -0.9421
 5691TIP3    H238633   6.054   2.892   8.579 -2.2343 -1.4385 -0.8793
 5692TIP3   OH238634   6.802   4.653   0.956  0.0607 -0.1279 -0.1697
 5692TIP3    H138635   6.823   4.639   0.864 -0.0675  1.3025 -0.4318
 5692TIP3    H238636   6.753   4.575   0.982  2.0511 -1.6222 -0.6743
 5693TIP3   OH238637   4.278   0.206   7.359  0.0968  0.0813  0.2598
 5693TIP3    H138638   4.193   0.250   7.357  0.2610  0.3942 -1.8067
 5693TIP3    H238639   4.262   0.123   7.404 -1.2841  0.1649 -0.0410
 5694TIP3   OH238640   4.977   1.956   8.598 -1.0334  0.3309 -0.6050
 5694TIP3    H138641   5.011   1.973   8.510 -0.6238  1.2142 -0.2883
 5694TIP3    H238642   4.892   2.000   8.600 -2.1995 -1.7238 -1.3346
 5695TIP3   OH238643   3.673   1.526   8.293  0.1207  0.0659  0.2732
 5695TIP3    H138644   3.643   1.445   8.335  0.1833 -0.5259 -0.7793
 5695TIP3    H238645   3.656   1.512   8.200  3.4586 -0.2551 -0.4314
 5696TIP3   OH238646   1.747   3.824   7.100 -0.5313 -0.1362 -0.1469
 5696TIP3    H138647   1.751   3.731   7.123  1.4550  0.0645  0.5150
 5696TIP3    H238648   1.807   3.832   7.026 -1.2622  0.4989 -0.6749
 5697TIP3   OH238649   2.982   1.116   2.569 -0.2910 -0.1190  0.0412
 5697TIP3    H138650   2.894   1.147   2.590  0.9656  2.3859  2.2316
 5697TIP3    H238651   3.040   1.176   2.616  2.6109 -1.6269 -1.3724
 5698TIP3   OH238652   0.185   4.639   1.939  0.0809 -0.5098  0.4446
 5698TIP3    H138653   0.265   4.595   1.912 -0.0733  0.9771 -2.9730
 5698TIP3    H238654   0.201   4.664   2.030  2.3370 -2.6285  0.7380
 5699TIP3   OH238655   6.331   5.320   1.639  0.7570 -0.3598 -0.1585
 5699TIP3    H138656   6.301   5.250   1.698  0.2622 -0.9585 -1.0943
 5699TIP3    H238657   6.257   5.380   1.634  0.4632 -0.7728 -0.8600
 5700TIP3   OH238658   1.055   0.004   8.186 -0.3819 -0.5541 -0.4378
 5700TIP3    H138659   1.092  -0.080   8.214 -0.3354  0.2398  2.1900
 5700TIP3    H238660   1.124   0.067   8.203 -1.4667  0.3990  0.6090
 5701TIP3   OH238661   0.860   1.415   1.310 -0.7523 -0.1417 -0.2497
 5701TIP3    H138662   0.802   1.410   1.235  0.0596 -1.3444 -0.8354
 5701TIP3    H238663   0.926   1.480   1.285 -1.6074  0.9564  0.2703
 5702TIP3   OH238664   1.002   3.285   2.325  0.2100  0.3443 -0.1029
 5702TIP3    H138665   0.913   3.255   2.340  1.0180 -1.8841  0.5447
 5702TIP3    H238666   1.025   3.332   2.406  0.4826 -1.3422  0.8342
 5703TIP3   OH238667   5.764   3.605   1.466 -0.2556 -0.6257  0.2787
 5703TIP3    H138668   5.672   3.626   1.453 -0.1990  0.5299  1.5036
 5703TIP3    H238669   5.809   3.689   1.463  1.0634 -1.3292 -2.2581
 5704TIP3   OH238670   2.796   4.097   7.851  0.5205 -0.0911  0.2122
 5704TIP3    H138671   2.751   4.173   7.889  0.6795 -0.8263  1.9431
 5704TIP3    H238672   2.756   4.021   7.894  2.2040 -0.8493  0.5180
 5705TIP3   OH238673   4.047   5.769   7.350  0.0219 -0.0183 -0.1936
 5705TIP3    H138674   4.080   5.842   7.298  0.5096  0.2578  0.4962
 5705TIP3    H238675   3.956   5.758   7.322  0.8394 -1.2629 -2.6923
 5706TIP3   OH238676   0.601   6.674   1.833  0.1503  0.3656 -0.3903
 5706TIP3    H138677   0.627   6.665   1.925 -1.2660  0.6649  0.0560
 5706TIP3    H238678   0.540   6.748   1.833 -1.1206 -0.6470 -1.2989
 5707TIP3   OH238679   5.656   6.770   8.030  0.0679 -0.2301  0.6860
 5707TIP3    H138680   5.587   6.779   8.095 -1.4201  0.8436 -0.9512
 5707TIP3    H238681   5.626   6.700   7.972  0.2548  0.3283 -0.1106
 5708TIP3   OH238682   1.165   1.050   8.626  0.1335 -0.3066  0.1064
 5708TIP3    H138683   1.102   1.056   8.555 -0.5402  0.8355  0.7650
 5708TIP3    H238684   1.118   1.086   8.702  1.5017  0.3870  0.6497
 5709TIP3   OH238685   2.660   5.924   1.202 -0.8770  0.3576 -0.2506
 5709TIP3    H138686   2.729   5.980   1.239 -1.1752  1.3857 -1.1772
 5709TIP3    H238687   2.663   5.942   1.108  0.0774 -2.4112 -0.8461
 5710TIP3   OH238688   0.270   6.244   1.720 -0.1249  0.2984 -0.4529
 5710TIP3    H138689   0.248   6.242   1.813 -3.1938 -1.5326 -1.0689
 5710TIP3    H238690   0.313   6.160   1.704  0.5824  0.6964 -0.6734
 5711TIP3   OH238691   2.076   6.422   1.132 -0.5394  0.0997  0.2803
 5711TIP3    H138692   2.089   6.488   1.201  0.0944  0.7873 -0.4746
 5711TIP3    H238693   2.131   6.349   1.158  0.5187  0.7748 -0.0180
 5712TIP3   OH238694   5.508   4.461   7.225 -0.6300 -0.2970 -0.6668
 5712TIP3    H138695   5.580   4.429   7.171 -0.4084  1.1031 -1.2418
 5712TIP3    H238696   5.455   4.514   7.165 -0.6693  0.8634  0.3407
 5713TIP3   OH238697   5.121   5.448   2.799 -0.1170  0.0685  0.2525
 5713TIP3    H138698   5.193   5.471   2.858  0.3841 -0.2678 -0.2267
 5713TIP3    H238699   5.043   5.456   2.854  0.1846  1.3615  0.5233
 5714TIP3   OH238700   4.542   1.887   2.384  0.1122 -0.0062 -0.4328
 5714TIP3    H138701   4.574   1.977   2.377 -0.7939  0.3141 -0.6406
 5714TIP3    H238702   4.596   1.847   2.452  0.8987  0.5280 -0.7384
 5715TIP3   OH238703   1.781   1.296   0.056  0.3130 -0.2391  0.1654
 5715TIP3    H138704   1.735   1.243  -0.009  2.3419 -1.4573 -0.3757
 5715TIP3    H238705   1.724   1.371   0.070 -1.3837 -1.2009 -1.1100
 5716TIP3   OH238706   5.748   5.161   2.264 -0.3997 -0.0520  0.4149
 5716TIP3    H138707   5.803   5.083   2.271 -0.5751 -0.2100  0.0582
 5716TIP3    H238708   5.782   5.220   2.331  0.5492  0.0689 -0.1643
 5717TIP3   OH238709   6.853   3.685   1.885  0.2922 -0.5118 -0.1645
 5717TIP3    H138710   6.758   3.683   1.883  0.1167  2.6553 -0.3540
 5717TIP3    H238711   6.877   3.744   1.814  2.5322 -2.2999 -1.0252
 5718TIP3   OH238712   6.159   0.731   2.357  0.4785  0.2908 -0.5885
 5718TIP3    H138713   6.247   0.732   2.394  0.8440 -0.3672 -1.3855
 5718TIP3    H238714   6.171   0.699   2.267 -0.7790 -1.6324 -0.1493
 5719TIP3   OH238715   4.680   1.926   8.353 -0.0165  0.2078 -0.2482
 5719TIP3    H138716   4.757   1.885   8.313  1.5179  2.0883  0.6516
 5719TIP3    H238717   4.711   2.011   8.383 -1.1693 -0.7129  4.3338
 5720TIP3   OH238718   0.009   0.377   2.676  0.1834  0.0964 -0.1520
 5720TIP3    H138719   0.023   0.394   2.769  3.7749 -1.1249 -0.2930
 5720TIP3    H238720   0.022   0.283   2.667 -3.0832 -0.3266 -1.5600
 5721TIP3   OH238721   5.647   2.504   0.328  0.2593 -0.6204 -0.2316
 5721TIP3    H138722   5.701   2.573   0.290  0.7019 -0.9009 -0.1150
 5721TIP3    H238723   5.595   2.472   0.254 -1.3885  1.1285  0.0647
 5722TIP3   OH238724   1.652   6.615   2.196  0.0054  0.6010  0.1455
 5722TIP3    H138725   1.689   6.652   2.277 -0.6166 -0.1199  0.7744
 5722TIP3    H238726   1.723   6.623   2.132  1.2610 -0.6857  1.2976
 5723TIP3   OH238727   1.232   0.128   2.627  0.2940  0.6112 -0.0087
 5723TIP3    H138728   1.248   0.043   2.586 -1.3406 -0.4615  1.4511
 5723TIP3    H238729   1.316   0.150   2.669 -0.0785 -1.9781  2.4381
 5724TIP3   OH238730   5.866   0.793   1.461  0.3657 -0.3100 -0.6954
 5724TIP3    H138731   5.942   0.847   1.482 -0.8115  0.7702  0.9950
 5724TIP3    H238732   5.876   0.774   1.367  3.4899 -1.5261 -0.2475
 5725TIP3   OH238733   6.844   4.547   7.006  0.1957 -0.3302  0.0264
 5725TIP3    H138734   6.829   4.624   6.951  0.9351 -0.5090 -0.4433
 5725TIP3    H238735   6.932   4.518   6.982  0.6175 -0.2948  1.4486
 5726TIP3   OH238736   0.185   6.843   0.300 -0.1773  0.8500  0.0548
 5726TIP3    H138737   0.274   6.839   0.335  0.2479 -0.3036 -1.0692
 5726TIP3    H238738   0.187   6.914   0.237  0.0099  0.7044 -0.1053
 5727TIP3   OH238739   5.929   6.706   6.937  0.9627 -0.5254  0.6755
 5727TIP3    H138740   5.849   6.653   6.936  0.7281 -0.1726  0.3269
 5727TIP3    H238741   5.898   6.795   6.955  1.3249 -0.4602  0.9773
 5728TIP3   OH238742   0.290   2.414   2.357 -0.2110 -1.0472  0.4981
 5728TIP3    H138743   0.334   2.329   2.357  0.2815 -0.7949  0.3939
 5728TIP3    H238744   0.354   2.474   2.319 -0.6013 -0.6511  0.4624
 5729TIP3   OH238745   2.206   4.385   1.930  0.6815  0.1945  0.2090
 5729TIP3    H138746   2.184   4.292   1.933  1.5779 -0.0353 -0.1260
 5729TIP3    H238747   2.194   4.415   2.020  1.9459 -0.6202  0.6748
 5730TIP3   OH238748   2.941   4.545   0.406  0.1901 -0.4454  0.1678
 5730TIP3    H138749   3.007   4.612   0.421 -1.5812  1.4061  0.1619
 5730TIP3    H238750   2.862   4.594   0.380 -1.2727 -2.5131  0.4327
 5731TIP3   OH238751   0.987   4.965   6.746 -0.1624 -0.3556  0.5935
 5731TIP3    H138752   0.971   4.995   6.657  0.0479 -1.5559  0.1329
 5731TIP3    H238753   0.903   4.930   6.776 -0.1826 -0.1362  0.7993
 5732TIP3   OH238754   6.690   5.393   0.685  0.2241  0.8078 -0.0656
 5732TIP3    H138755   6.764   5.446   0.714  0.3954  1.3220 -1.3819
 5732TIP3    H238756   6.712   5.304   0.712  1.1383  1.0199 -0.0853
 5733TIP3   OH238757   2.970   4.273   1.083  0.3659 -0.3111 -0.5365
 5733TIP3    H138758   3.008   4.323   1.010  0.9184 -0.1489 -0.1375
 5733TIP3    H238759   3.027   4.197   1.093 -0.4072 -0.9795 -1.0617
 5734TIP3   OH238760   2.569   1.762   7.800  0.6490  0.2643  0.0089
 5734TIP3    H138761   2.561   1.685   7.857 -1.7434  0.9471  0.6989
 5734TIP3    H238762   2.606   1.728   7.719  0.8057 -1.3796  0.7198
 5735TIP3   OH238763   0.431   3.932   0.618  0.1438  0.2075  0.2145
 5735TIP3    H138764   0.463   3.919   0.529  1.5773 -1.7626  0.9652
 5735TIP3    H238765   0.386   3.851   0.640 -1.2440  1.1164  0.9172
 5736TIP3   OH238766   2.445   5.899   2.014  0.1193  0.2062 -0.1193
 5736TIP3    H138767   2.528   5.852   2.006 -0.4872 -0.6333 -1.9440
 5736TIP3    H238768   2.460   5.962   2.084  2.1860 -0.1539 -0.1817
 5737TIP3   OH238769   1.483   4.414   8.579  0.3427 -0.5615 -1.0026
 5737TIP3    H138770   1.558   4.470   8.601  0.2304 -1.2005  1.3183
 5737TIP3    H238771   1.411   4.448   8.632 -0.2122 -1.7312 -0.9616
 5738TIP3   OH238772   1.536   3.482   0.709 -0.0199  0.1862  0.3533
 5738TIP3    H138773   1.631   3.477   0.713  0.0745  1.6744  0.4143
 5738TIP3    H238774   1.510   3.401   0.666  1.2614 -0.2928  0.4334
 5739TIP3   OH238775   2.340   5.309   1.920  0.3905  0.1835  0.0990
 5739TIP3    H138776   2.309   5.253   1.991 -0.6932 -0.2598 -0.7070
 5739TIP3    H238777   2.349   5.250   1.845 -1.2608  1.1423 -0.9069
 5740TIP3   OH238778   0.010   5.709   0.366  0.1551 -0.3142 -0.0411
 5740TIP3    H138779   0.074   5.734   0.432 -0.2298 -0.2082  0.2944
 5740TIP3    H238780  -0.039   5.790   0.350  0.6906 -0.1527 -0.9600
 5741TIP3   OH238781   2.023   3.978   0.902 -0.0372 -0.9841  0.1001
 5741TIP3    H138782   2.109   3.996   0.864  0.2534 -2.0474  0.2340
 5741TIP3    H238783   1.990   4.065   0.926  0.0827 -0.3485 -1.8549
 5742TIP3   OH238784   2.465   3.275   1.209 -0.3263 -0.1000 -0.0021
 5742TIP3    H138785   2.393   3.315   1.258  0.6323  1.5840  0.1339
 5742TIP3    H238786   2.434   3.273   1.119 -0.2398  1.4860 -0.1031
 5743TIP3   OH238787   2.694   1.439   7.481  0.3733 -0.0155 -0.1797
 5743TIP3    H138788   2.752   1.380   7.433  2.1635  1.0870  0.5198
 5743TIP3    H238789   2.752   1.504   7.519 -1.3044  0.9045  0.9557
 5744TIP3   OH238790   5.156   6.363   7.549 -0.1887 -0.1837 -0.3207
 5744TIP3    H138791   5.250   6.345   7.547  0.7094  3.1299  2.2839
 5744TIP3    H238792   5.120   6.300   7.611  0.3687 -1.2181 -1.0311
 5745TIP3   OH238793   2.819   5.317   7.768  0.3586 -0.3427  0.3505
 5745TIP3    H138794   2.846   5.255   7.837 -0.7912 -0.5814  0.6066
 5745TIP3    H238795   2.731   5.343   7.793  0.6686  1.1083  0.0130
 5746TIP3   OH238796   3.835   4.537   0.462 -0.0370 -0.3683 -0.0026
 5746TIP3    H138797   3.773   4.486   0.408 -1.3647  1.2928 -0.1252
 5746TIP3    H238798   3.909   4.552   0.404 -0.0561 -1.2878 -0.2957
 5747TIP3   OH238799   2.820   0.495   0.042 -0.6257 -0.1115  0.3485
 5747TIP3    H138800   2.767   0.542   0.106 -0.2345 -1.9317  2.0866
 5747TIP3    H238801   2.802   0.403   0.058 -0.0250 -0.6588 -1.7767
 5748TIP3   OH238802   4.047   1.359   0.743 -0.4644 -0.1601 -0.3206
 5748TIP3    H138803   4.131   1.393   0.712  0.8817 -0.2189  2.8906
 5748TIP3    H238804   3.985   1.431   0.730  0.2905  0.2969 -1.6518
 5749TIP3   OH238805   6.385   3.837   0.834 -0.4340 -0.3143 -0.9743
 5749TIP3    H138806   6.478   3.837   0.813 -0.4877 -0.1546 -1.2189
 5749TIP3    H238807   6.358   3.746   0.822  0.4302 -1.1439  2.4682
 5750TIP3   OH238808   5.819   3.307   0.331 -0.5234 -0.6535 -0.1797
 5750TIP3    H138809   5.812   3.396   0.366  2.5533 -0.0404 -0.7911
 5750TIP3    H238810   5.808   3.250   0.408 -3.8223  0.0805  0.0247
 5751TIP3   OH238811   4.556   3.026   7.114  0.6133 -0.6241  0.5001
 5751TIP3    H138812   4.646   3.057   7.122  0.5418 -0.7448  2.1029
 5751TIP3    H238813   4.503   3.102   7.138  0.3071 -0.7774  0.3102
 5752TIP3   OH238814   5.989   4.108   2.947  0.3574 -0.0151 -0.1359
 5752TIP3    H138815   6.061   4.113   3.010  0.7457  0.7848 -0.6265
 5752TIP3    H238816   6.032   4.091   2.863 -0.0364  0.3791 -0.4220
 5753TIP3   OH238817   1.789   0.468   1.656 -0.1962 -0.1890  0.4205
 5753TIP3    H138818   1.837   0.546   1.684 -0.5411  0.6331 -1.2050
 5753TIP3    H238819   1.839   0.435   1.581 -1.4833 -0.0031 -0.5470
 5754TIP3   OH238820   2.680   4.766   0.770 -0.3025 -0.2038 -0.2182
 5754TIP3    H138821   2.610   4.770   0.835  0.9953  0.3456  1.2130
 5754TIP3    H238822   2.681   4.674   0.742  0.0616 -0.8150  1.6765
 5755TIP3   OH238823   2.165   3.190   2.609 -0.2070  0.6865  0.1159
 5755TIP3    H138824   2.121   3.174   2.526  0.9690  2.7386 -0.9986
 5755TIP3    H238825   2.139   3.279   2.633  2.0420  1.3994  0.1649
 5756TIP3   OH238826   1.473   4.451   2.452 -0.1994  0.0618 -0.4498
 5756TIP3    H138827   1.410   4.522   2.458  0.4251  0.4944  2.0793
 5756TIP3    H238828   1.422   4.373   2.475  0.2511  0.5222  2.4544
 5757TIP3   OH238829   6.337   4.082   0.702 -0.0257 -0.0806 -0.4683
 5757TIP3    H138830   6.347   3.990   0.726 -0.0575 -0.5432 -2.1153
 5757TIP3    H238831   6.417   4.124   0.734  0.4427 -0.8754 -0.5749
 5758TIP3   OH238832   4.151   0.623   0.993  0.1644 -0.3573 -0.0140
 5758TIP3    H138833   4.217   0.659   1.053  1.6021  1.7924 -2.6812
 5758TIP3    H238834   4.077   0.683   1.002  1.0432  1.0288 -1.5443
 5759TIP3   OH238835   4.761   6.829   0.556 -1.0477 -0.1285 -0.0117
 5759TIP3    H138836   4.835   6.826   0.617 -1.4311 -0.4869  0.4492
 5759TIP3    H238837   4.779   6.905   0.500 -0.4485 -0.0779  0.2408
 5760TIP3   OH238838   1.520   6.486   6.749 -0.0748  0.1250 -0.0577
 5760TIP3    H138839   1.570   6.493   6.831  0.2194 -0.3768 -0.1864
 5760TIP3    H238840   1.556   6.408   6.706 -1.6515 -0.8537  0.3093
 5761TIP3   OH238841   1.080   4.995   2.296  0.1641 -0.2703  0.2704
 5761TIP3    H138842   1.164   4.951   2.299 -0.8921 -2.5548 -0.8796
 5761TIP3    H238843   1.066   5.028   2.385  1.4309 -1.5117  0.9533
 5762TIP3   OH238844   4.075   5.410   7.734 -0.1366 -0.1391  0.3246
 5762TIP3    H138845   4.133   5.338   7.709 -0.2765  0.3672 -1.6436
 5762TIP3    H238846   4.026   5.377   7.809  1.1626 -1.3639  0.6693
 5763TIP3   OH238847   3.938   2.313   0.848  0.0170  0.2187 -0.6213
 5763TIP3    H138848   3.991   2.391   0.829 -1.2583  1.1702 -0.3882
 5763TIP3    H238849   3.874   2.309   0.777 -0.4274 -0.1542 -0.2035
 5764TIP3   OH238850   2.694   5.584   1.598 -0.0644 -0.1241  0.4013
 5764TIP3    H138851   2.749   5.593   1.519 -1.6815 -1.9758 -1.0394
 5764TIP3    H238852   2.651   5.669   1.607 -1.7671 -0.5604 -2.3040
 5765TIP3   OH238853   6.701   5.146   0.481 -0.0906  0.0133  0.1326
 5765TIP3    H138854   6.700   5.060   0.523 -0.2435 -0.1801 -0.2555
 5765TIP3    H238855   6.637   5.138   0.410 -0.9672  0.8084  0.7997
 5766TIP3   OH238856   1.127   1.830   1.144 -0.2240 -0.2524 -0.5877
 5766TIP3    H138857   1.068   1.872   1.208 -1.0482 -0.6688 -1.0635
 5766TIP3    H238858   1.107   1.874   1.061  0.7952  0.2359 -0.5955
 5767TIP3   OH238859   3.593   3.860   0.153  0.0034 -0.0978 -0.3820
 5767TIP3    H138860   3.542   3.894   0.227 -1.8604 -0.2850 -1.5116
 5767TIP3    H238861   3.666   3.921   0.144  0.9476 -0.6939  2.2778
 5768TIP3   OH238862   6.545   1.026   2.143 -0.0974  0.1656  0.0710
 5768TIP3    H138863   6.549   1.112   2.101  4.2983  0.8013  1.1971
 5768TIP3    H238864   6.480   1.036   2.213 -1.9263  1.5070 -1.7262
 5769TIP3   OH238865   3.483   4.650   1.102  0.0958 -0.4615  0.1568
 5769TIP3    H138866   3.547   4.587   1.069  1.0171 -0.1882  1.3487
 5769TIP3    H238867   3.398   4.608   1.085  0.6628 -1.7451  0.3416
 5770TIP3   OH238868   6.181   2.195   1.139 -0.0457  0.0706 -0.0534
 5770TIP3    H138869   6.177   2.263   1.071  1.2441  0.6301  0.3992
 5770TIP3    H238870   6.169   2.243   1.221 -1.6446 -0.6058  0.1546
 5771TIP3   OH238871   2.464   1.055   0.283 -0.2148 -0.4682 -0.4178
 5771TIP3    H138872   2.427   1.126   0.231 -1.6826 -1.4592 -0.7757
 5771TIP3    H238873   2.520   1.099   0.347  2.1037  0.7779 -3.0834
 5772TIP3   OH238874   0.971   6.504   8.574 -0.0815  0.0180 -0.0365
 5772TIP3    H138875   1.048   6.524   8.521 -0.0160  1.5469  0.5820
 5772TIP3    H238876   0.993   6.422   8.618  0.5563 -0.3651 -1.0191
 5773TIP3   OH238877   2.716   1.433   0.897  0.0940 -0.0534  0.3796
 5773TIP3    H138878   2.732   1.420   0.991 -0.5191 -2.3565  0.2397
 5773TIP3    H238879   2.621   1.428   0.889  0.2072 -1.1624 -0.4893
 5774TIP3   OH238880   6.428   3.898   0.349  0.2278 -0.0113  0.0238
 5774TIP3    H138881   6.382   3.921   0.268  0.7810 -1.9323 -0.9177
 5774TIP3    H238882   6.375   3.829   0.388 -0.2112  1.1324  1.5404
 5775TIP3   OH238883   6.399   4.190   8.055  0.0414  0.1102 -0.1313
 5775TIP3    H138884   6.464   4.124   8.033  0.4718  0.2470  0.6931
 5775TIP3    H238885   6.407   4.256   7.986 -0.5064 -0.7591 -1.0541
 5776TIP3   OH238886   6.526   0.850   1.438 -0.0191 -0.6222  0.1393
 5776TIP3    H138887   6.501   0.921   1.497 -0.4327 -0.2753 -0.4497
 5776TIP3    H238888   6.595   0.887   1.383  1.4191 -1.3865  1.3478
 5777TIP3   OH238889   4.377   4.337   7.134  0.3073 -0.0130 -0.1425
 5777TIP3    H138890   4.303   4.278   7.118 -0.8793  0.8433  1.8149
 5777TIP3    H238891   4.369   4.404   7.065 -0.5486 -0.1173 -0.1604
 5778TIP3   OH238892   1.800   5.347   7.952  0.1027 -0.1284  0.1319
 5778TIP3    H138893   1.853   5.267   7.950  0.1931 -0.0964  0.8560
 5778TIP3    H238894   1.760   5.351   7.865 -0.5365 -1.4061  0.3370
 5779TIP3   OH238895   1.167   1.856   8.504  0.0780 -0.1209  0.0336
 5779TIP3    H138896   1.232   1.796   8.542 -1.3117 -1.9141 -0.2582
 5779TIP3    H238897   1.215   1.905   8.438  1.4241 -0.4223  0.7513
 5780TIP3   OH238898   2.557   6.345   1.414 -0.6297 -0.7226 -0.5502
 5780TIP3    H138899   2.608   6.350   1.495 -1.0186  1.7942 -0.3950
 5780TIP3    H238900   2.622   6.338   1.345 -0.1691 -0.1819 -0.1797
 5781TIP3   OH238901   3.924   5.611   7.592 -0.2322  0.1886  0.1798
 5781TIP3    H138902   3.978   5.544   7.632 -1.1036 -0.4332  0.3461
 5781TIP3    H238903   3.984   5.663   7.539  0.4387 -0.7633 -0.0033
 5782TIP3   OH238904   1.118   6.550   1.130  0.0679 -0.1948  0.0576
 5782TIP3    H138905   1.130   6.543   1.035  0.4837 -1.7041  0.2049
 5782TIP3    H238906   1.204   6.575   1.163  0.1114 -0.4138  0.1090
 5783TIP3   OH238907   1.415   0.445   2.811 -0.2222  0.3010  0.0588
 5783TIP3    H138908   1.427   0.396   2.892 -0.9821  1.5431  0.9653
 5783TIP3    H238909   1.501   0.482   2.792  0.2279 -0.8797 -0.3428
 5784TIP3   OH238910   2.940   2.169   1.320 -0.0310 -0.2299  0.2106
 5784TIP3    H138911   2.886   2.184   1.397  0.2574 -0.4106  0.4475
 5784TIP3    H238912   2.878   2.162   1.248 -0.2184  2.6436 -0.0422
 5785TIP3   OH238913   1.265   3.613   0.107  0.0580  0.1354 -0.3225
 5785TIP3    H138914   1.273   3.665   0.187  0.5385  1.9101 -1.4709
 5785TIP3    H238915   1.172   3.618   0.085  0.0261  0.1524 -0.1830
 5786TIP3   OH238916   2.950   6.119   1.241 -0.0525  0.2290  0.0368
 5786TIP3    H138917   3.040   6.147   1.224  0.2678  0.7159  2.2397
 5786TIP3    H238918   2.957   6.024   1.257 -0.6465 -0.6779 -4.0391
 5787TIP3   OH238919   5.444   0.920   2.434  0.0194  0.3148  0.4994
 5787TIP3    H138920   5.445   0.899   2.341  1.1003  0.5099  0.4451
 5787TIP3    H238921   5.358   0.957   2.451  0.2884  1.5365 -0.7090
 5788TIP3   OH238922   1.628   4.661   7.099 -0.4894  0.3604 -0.8075
 5788TIP3    H138923   1.609   4.587   7.041 -1.6316  0.1013 -0.1440
 5788TIP3    H238924   1.723   4.659   7.110 -0.2315  0.4814 -2.7219
 5789TIP3   OH238925   6.660   0.191   0.475 -0.7280 -0.1292 -0.4543
 5789TIP3    H138926   6.752   0.209   0.456 -0.9986  0.4513 -1.2340
 5789TIP3    H238927   6.631   0.133   0.404 -1.0426 -0.0858 -0.3635
 5790TIP3   OH238928   6.635   3.166   0.770  0.1754 -0.0145  0.1084
 5790TIP3    H138929   6.638   3.183   0.864 -0.5513 -0.6437  0.2577
 5790TIP3    H238930   6.699   3.226   0.733  0.7916 -0.0677  1.0506
 5791TIP3   OH238931   6.231   6.701   0.472 -0.0419  0.2000  0.5273
 5791TIP3    H138932   6.228   6.761   0.397 -0.5320 -0.0225  0.3657
 5791TIP3    H238933   6.304   6.642   0.453  1.1130  1.3639  1.1724
 5792TIP3   OH238934   3.814   0.225   8.386 -0.0111 -0.4614  0.0821
 5792TIP3    H138935   3.747   0.181   8.333 -0.1130 -0.2184  0.0094
 5792TIP3    H238936   3.833   0.306   8.338  1.2581 -1.1148 -0.5734
 5793TIP3   OH238937   0.166   1.249   0.877 -0.0085 -0.3914 -0.2387
 5793TIP3    H138938   0.098   1.191   0.841 -0.4089 -0.3001  0.3564
 5793TIP3    H238939   0.242   1.234   0.821 -0.2780 -1.0861 -0.4330
 5794TIP3   OH238940   4.830   3.120   7.237 -0.1226  0.0893  0.0439
 5794TIP3    H138941   4.830   3.034   7.195 -0.0911  0.2844 -0.3637
 5794TIP3    H238942   4.919   3.129   7.273 -0.3101 -0.2971  0.6118
 5795TIP3   OH238943   5.563   1.089   1.899  0.2933 -0.0149  0.4046
 5795TIP3    H138944   5.600   1.001   1.903 -0.2783 -0.2050  3.1684
 5795TIP3    H238945   5.639   1.147   1.905  0.4763 -0.3858  2.2007
 5796TIP3   OH238946   1.209   0.594   1.962 -0.1587  0.2355 -0.1504
 5796TIP3    H138947   1.153   0.667   1.989 -0.9070 -0.7062  0.9856
 5796TIP3    H238948   1.147   0.528   1.930  0.3247 -0.6433  0.6872
 5797TIP3   OH238949   1.347   4.599   8.376  0.1008  0.2826 -0.1408
 5797TIP3    H138950   1.253   4.583   8.379  0.0081  0.9251  1.0000
 5797TIP3    H238951   1.383   4.544   8.446  0.6871 -0.5899 -1.0987
 5798TIP3   OH238952   1.849   6.717   1.995  0.2648 -0.0723 -0.2885
 5798TIP3    H138953   1.773   6.731   1.939 -1.2165 -0.0497  1.6122
 5798TIP3    H238954   1.854   6.796   2.049  0.2233 -1.0187  1.1617
 5799TIP3   OH238955   0.475   3.399   2.409  0.5711  0.4180 -0.0015
 5799TIP3    H138956   0.428   3.316   2.398 -0.2939  0.6499  1.6765
 5799TIP3    H238957   0.428   3.461   2.354  0.1389  0.1987  0.1215
 5800TIP3   OH238958   6.662   4.924   1.120 -0.3910 -0.4683  0.0251
 5800TIP3    H138959   6.676   4.990   1.188 -0.9119  0.0872 -0.3903
 5800TIP3    H238960   6.668   4.840   1.165  2.2247 -0.2424  0.2506
 5801TIP3   OH238961   4.644   6.352   0.050  0.1139  0.1482 -0.3530
 5801TIP3    H138962   4.640   6.441   0.015 -1.7056  0.7203  1.1471
 5801TIP3    H238963   4.611   6.360   0.140 -0.0543 -2.0508 -0.1573
 5802TIP3   OH238964   6.363   5.286   7.396 -0.3982 -0.6405 -0.1702
 5802TIP3    H138965   6.372   5.378   7.374 -0.4281 -0.7867 -0.8040
 5802TIP3    H238966   6.353   5.285   7.491 -0.6289  0.0241 -0.1843
 5803TIP3   OH238967   3.340   4.920   0.431 -0.5606  0.3355  0.0598
 5803TIP3    H138968   3.365   4.862   0.503  0.2018  0.3797 -0.1612
 5803TIP3    H238969   3.304   4.998   0.473 -1.1933 -0.1124  0.3656
 5804TIP3   OH238970   2.234   5.708   7.594  0.2333 -0.3976  0.0563
 5804TIP3    H138971   2.153   5.662   7.573 -0.3504  0.2077  0.9376
 5804TIP3    H238972   2.207   5.798   7.613  1.1973 -0.0153 -0.3188
 5805TIP3   OH238973   6.817   4.804   7.337  0.8984  0.6433  0.2767
 5805TIP3    H138974   6.838   4.712   7.352  0.4358  0.5589  0.4227
 5805TIP3    H238975   6.767   4.804   7.255  1.4908  0.8466 -0.0903
 5806TIP3   OH238976   2.067   2.828   1.749 -0.0023 -0.4067  0.0043
 5806TIP3    H138977   2.063   2.761   1.681 -0.5611 -1.6131  1.1858
 5806TIP3    H238978   1.995   2.807   1.808  1.1449 -0.0798  1.5884
 5807TIP3   OH238979   3.036   5.386   1.433  0.7940 -0.0549 -0.9738
 5807TIP3    H138980   3.125   5.416   1.452  1.0968 -0.3357 -1.9354
 5807TIP3    H238981   3.033   5.376   1.338 -1.1786  2.9448 -1.3796
 5808TIP3   OH238982   5.222   3.918   8.307  0.6737 -0.0979  0.1363
 5808TIP3    H138983   5.304   3.910   8.356  1.0724 -1.4406 -0.6837
 5808TIP3    H238984   5.173   3.839   8.330 -0.5145  0.7902  0.7770
 5809TIP3   OH238985   1.682   1.934   1.864 -0.3118 -0.0484  0.2426
 5809TIP3    H138986   1.704   1.859   1.809  0.1914 -0.3131  0.7960
 5809TIP3    H238987   1.643   1.896   1.942 -0.3215  0.2804  0.4008
 5810TIP3   OH238988   0.448   1.257   1.592 -0.2350 -0.0529 -0.5875
 5810TIP3    H138989   0.393   1.311   1.649  1.3917  0.6824  0.3474
 5810TIP3    H238990   0.512   1.319   1.555  2.0287 -1.3459  0.9296
 5811TIP3   OH238991   5.079   1.195   7.196  0.1235  0.1521  0.2853
 5811TIP3    H138992   5.006   1.253   7.217 -0.3718  0.0453 -1.0497
 5811TIP3    H238993   5.038   1.118   7.157  0.8370 -0.6998  1.1863
 5812TIP3   OH238994   3.718   4.110   1.796  0.0514  0.5099  0.3099
 5812TIP3    H138995   3.679   4.108   1.883  2.9022 -0.8165  1.6467
 5812TIP3    H238996   3.684   4.032   1.752  1.1924 -0.6920  1.4940
 5813TIP3   OH238997   1.353   5.961   0.944  0.3903 -0.2307  0.0464
 5813TIP3    H138998   1.354   5.973   0.849 -0.2005  0.0805  0.0781
 5813TIP3    H238999   1.445   5.971   0.970  0.4667  0.3021 -0.4162
 5814TIP3   OH239000   4.918   6.306   2.267  0.7337 -0.7963  0.4460
 5814TIP3    H139001   4.937   6.335   2.356 -1.4231 -1.2574  1.1279
 5814TIP3    H239002   4.908   6.387   2.217 -0.0889 -0.4417  1.1397
 5815TIP3   OH239003   3.443   4.451   2.068 -0.5058  0.1288  0.1502
 5815TIP3    H139004   3.515   4.440   2.005  0.4109 -0.1173  1.2028
 5815TIP3    H239005   3.388   4.374   2.054 -0.8070  0.5319 -0.9624
 5816TIP3   OH239006   1.317   0.116   8.240 -0.8137 -0.3627 -0.1030
 5816TIP3    H139007   1.341   0.187   8.300 -0.2901 -0.5932 -0.0353
 5816TIP3    H239008   1.398   0.094   8.195 -0.7849 -1.4907  0.4722
 5817TIP3   OH239009   6.628   2.919   0.653 -0.3040 -0.0833  0.6378
 5817TIP3    H139010   6.671   2.974   0.718 -0.9817  0.0991  0.9374
 5817TIP3    H239011   6.547   2.966   0.631 -0.3802 -0.4485  0.1270
 5818TIP3   OH239012   3.914   1.355   8.041 -0.2802 -0.4086  0.3872
 5818TIP3    H139013   3.936   1.445   8.017  0.0846 -0.8176 -0.8737
 5818TIP3    H239014   3.938   1.348   8.133 -2.9801  1.6178  1.3632
 5819TIP3   OH239015   0.362   3.148   1.854 -0.3895 -0.4577 -0.6203
 5819TIP3    H139016   0.273   3.124   1.828 -0.1589 -0.9815 -0.9572
 5819TIP3    H239017   0.406   3.064   1.868  0.5960 -0.2856 -2.3580
 5820TIP3   OH239018   2.013   2.352   1.965 -0.7052  0.2609  0.4472
 5820TIP3    H139019   2.006   2.272   2.017 -1.9672 -0.2299 -0.4204
 5820TIP3    H239020   1.959   2.416   2.012 -1.8634 -0.1886 -0.2239
 5821TIP3   OH239021   2.983   4.380   0.002  0.2522 -0.6171  0.1956
 5821TIP3    H139022   3.051   4.386  -0.065 -0.3646  0.7866 -0.3609
 5821TIP3    H239023   2.977   4.469   0.038 -0.0854 -1.1293  1.4531
 5822TIP3   OH239024   4.309   5.311   7.853  0.1026 -0.2182  0.1686
 5822TIP3    H139025   4.250   5.279   7.921 -0.9621 -1.1340 -1.1224
 5822TIP3    H239026   4.333   5.399   7.882  1.3775 -1.3151  2.7434
 5823TIP3   OH239027   1.659   0.460   8.077 -0.5525 -0.1172 -0.4331
 5823TIP3    H139028   1.729   0.495   8.132 -0.3510 -0.3398 -0.5440
 5823TIP3    H239029   1.679   0.366   8.070  0.0281  0.0922 -1.7720
 5824TIP3   OH239030   6.093   5.706   8.322  0.1896 -0.0828  0.0822
 5824TIP3    H139031   6.169   5.763   8.335  0.4439 -0.3628 -0.1476
 5824TIP3    H239032   6.080   5.664   8.407 -0.9614  1.4627  0.7041
 5825TIP3   OH239033   4.515   1.227   6.762  0.4612  0.0407 -0.6931
 5825TIP3    H139034   4.487   1.276   6.839  0.9571  1.5010 -1.3921
 5825TIP3    H239035   4.590   1.176   6.792  0.3663  0.2483 -0.0921
 5826TIP3   OH239036   4.810   2.672   0.228 -0.6141 -0.7501  0.3544
 5826TIP3    H139037   4.761   2.689   0.148  1.2322 -1.5314 -1.0325
 5826TIP3    H239038   4.845   2.584   0.216  3.9203  0.8447 -0.4687
 5827TIP3   OH239039   3.181   1.509   7.917  0.4924 -0.5509  0.6094
 5827TIP3    H139040   3.094   1.546   7.904  0.8479  1.0337  2.3499
 5827TIP3    H239041   3.179   1.425   7.870 -0.6856  1.1495 -2.7059
 5828TIP3   OH239042   3.028   5.860   1.344  0.1621  0.1365  0.1784
 5828TIP3    H139043   2.974   5.781   1.342  1.2341 -0.6078 -0.3194
 5828TIP3    H239044   3.118   5.828   1.349  0.6482  1.3122 -0.5140
 5829TIP3   OH239045   4.424   0.754   7.557 -0.2313  0.1790  0.4258
 5829TIP3    H139046   4.456   0.794   7.476 -0.3694  0.9673  0.7524
 5829TIP3    H239047   4.408   0.663   7.533  1.5869 -0.0879  0.0670
 5830TIP3   OH239048   6.149   4.287   0.673  0.4135  0.1348  0.5493
 5830TIP3    H139049   6.065   4.248   0.647  0.2984 -0.6755  2.0304
 5830TIP3    H239050   6.208   4.213   0.682  1.0186  0.6074  0.5117
 5831TIP3   OH239051   3.961   5.826   0.669  0.7420  0.5614 -0.0604
 5831TIP3    H139052   3.875   5.867   0.669  1.3456  1.8962 -0.7870
 5831TIP3    H239053   3.970   5.789   0.757  0.6343  3.1113  1.1104
 5832TIP3   OH239054   2.171   1.407   1.102 -0.3244  0.0206 -0.2470
 5832TIP3    H139055   2.169   1.413   1.197 -2.3554  1.8336 -0.3289
 5832TIP3    H239056   2.122   1.327   1.081 -1.3429  0.5145  0.2058
 5833TIP3   OH239057   1.020   6.058   0.661 -0.4606  0.5158 -0.2244
 5833TIP3    H139058   1.009   5.966   0.640 -1.2255  0.7239 -0.8097
 5833TIP3    H239059   0.931   6.090   0.676 -0.0902  0.7862  1.6549
 5834TIP3   OH239060   1.671   4.683   8.058 -0.1875  0.0943 -0.9562
 5834TIP3    H139061   1.620   4.754   8.018 -0.6940  0.1351 -0.2543
 5834TIP3    H239062   1.607   4.614   8.075 -0.0461  0.1950  0.0540
 5835TIP3   OH239063   3.996   2.399   2.926 -0.6267  0.5695  0.2384
 5835TIP3    H139064   3.940   2.339   2.975 -0.3630  0.2609  0.1592
 5835TIP3    H239065   3.956   2.404   2.839 -1.5737  1.7530  0.7060
 5836TIP3   OH239066   0.508   1.551   0.060  0.0836 -1.0146  0.0445
 5836TIP3    H139067   0.467   1.619   0.113  1.3869  2.0237 -2.5635
 5836TIP3    H239068   0.590   1.532   0.105 -0.2923 -0.9143  0.7973
 5837TIP3   OH239069   2.010   2.588   0.717 -0.3614  0.2978 -0.0689
 5837TIP3    H139070   2.106   2.591   0.710 -0.3593 -0.0230 -0.2227
 5837TIP3    H239071   1.990   2.494   0.723 -0.8131  0.1814 -2.3665
 5838TIP3   OH239072   1.524   2.641   8.418  0.3299  0.2814 -0.1617
 5838TIP3    H139073   1.566   2.707   8.362  1.7016  0.4552  1.0211
 5838TIP3    H239074   1.503   2.569   8.358  0.9722  0.8140 -1.0514
 5839TIP3   OH239075   0.188   6.043   8.605  0.2768 -0.4765  0.2738
 5839TIP3    H139076   0.217   6.024   8.516  0.0600  0.1208  0.0696
 5839TIP3    H239077   0.203   6.137   8.616 -0.4890 -0.3788  0.5646
 5840TIP3   OH239078   5.758   1.153   7.140  0.2862 -0.3478 -0.5453
 5840TIP3    H139079   5.732   1.210   7.068  2.8527  0.2426 -1.1204
 5840TIP3    H239080   5.748   1.065   7.105 -3.0730 -0.3539  0.1185
 5841TIP3   OH239081   5.332   6.555   7.775  0.4035  0.0338  0.2004
 5841TIP3    H139082   5.256   6.613   7.768  0.6072  0.2881  0.0410
 5841TIP3    H239083   5.308   6.490   7.840 -0.0157  0.0146  0.0285
 5842TIP3   OH239084   1.125   5.819   2.373 -0.0681  0.2415 -0.2659
 5842TIP3    H139085   1.217   5.839   2.359 -0.4625  0.8338 -2.4435
 5842TIP3    H239086   1.086   5.901   2.403  0.6122 -0.8156  4.2295
 5843TIP3   OH239087   6.156   0.540   0.287  0.2654  0.0316  0.2610
 5843TIP3    H139088   6.159   0.447   0.308 -1.3732 -0.1146 -0.0814
 5843TIP3    H239089   6.186   0.545   0.196 -0.5404 -0.2823 -0.0295
 5844TIP3   OH239090   3.573   0.442   1.992 -0.6196  0.0394 -0.2603
 5844TIP3    H139091   3.551   0.362   1.944 -0.6490 -0.2078  0.1480
 5844TIP3    H239092   3.667   0.433   2.010 -0.5035  0.3701 -0.7052
 5845TIP3   OH239093   6.023   6.449   2.051 -0.0529  0.1954  0.3826
 5845TIP3    H139094   5.970   6.388   2.103  2.3301 -0.2895  2.4017
 5845TIP3    H239095   6.011   6.420   1.961 -1.9306 -0.8521  0.9064
 5846TIP3   OH239096   3.521   3.265   8.140 -0.2005  0.2432  0.3689
 5846TIP3    H139097   3.486   3.353   8.149  0.9742  1.0112 -1.9188
 5846TIP3    H239098   3.489   3.235   8.054  3.5837  0.5384 -1.3325
 5847TIP3   OH239099   5.602   2.593   1.616 -0.9310 -0.2399 -0.1337
 5847TIP3    H139100   5.620   2.658   1.548 -0.5263 -0.1707  0.0349
 5847TIP3    H239101   5.661   2.616   1.688 -1.0553 -0.5635  0.0768
 5848TIP3   OH239102   6.750   6.147   7.463 -0.0961  0.5532  0.9714
 5848TIP3    H139103   6.740   6.241   7.452 -0.4482  0.2789 -1.7544
 5848TIP3    H239104   6.667   6.109   7.434  0.9318 -0.6780 -0.5669
 5849TIP3   OH239105   4.301   4.694   0.071 -0.6144  0.2488 -0.3404
 5849TIP3    H139106   4.310   4.604   0.040 -2.5484  0.1327 -0.7267
 5849TIP3    H239107   4.256   4.739  -0.001  1.7228  1.9635 -0.8361
 5850TIP3   OH239108   6.368   0.527   7.897 -0.1096 -0.3972  0.4109
 5850TIP3    H139109   6.420   0.482   7.831 -0.5968  0.1833 -0.3926
 5850TIP3    H239110   6.420   0.521   7.977  0.5259 -1.0506 -0.0360
 5851TIP3   OH239111   6.056   0.805   8.188  0.0211 -0.4301 -0.8955
 5851TIP3    H139112   6.103   0.747   8.128 -0.4800  0.2995 -2.0343
 5851TIP3    H239113   5.988   0.845   8.134 -0.2855  0.4527  0.1044
 5852TIP3   OH239114   5.691   0.399   0.774 -0.4521  0.0311 -0.0628
 5852TIP3    H139115   5.597   0.389   0.761 -0.4341 -0.7468  0.3535
 5852TIP3    H239116   5.730   0.356   0.698 -0.4281  0.7931 -0.4959
 5853TIP3   OH239117   3.179   2.832   2.308 -0.4336 -0.4059 -0.1114
 5853TIP3    H139118   3.224   2.890   2.370 -2.3021  1.1739 -0.1522
 5853TIP3    H239119   3.236   2.831   2.231 -0.3467  1.3699 -0.0924
 5854TIP3   OH239120   3.185   5.152   0.543 -0.2843  0.8928 -0.0513
 5854TIP3    H139121   3.205   5.140   0.635  2.2461  0.3950 -0.5774
 5854TIP3    H239122   3.091   5.141   0.536 -0.3924 -0.0898  2.3068
 5855TIP3   OH239123   0.131   0.343   0.919  0.8011  0.0274  0.5876
 5855TIP3    H139124   0.126   0.249   0.938 -1.4432  0.4452  2.4211
 5855TIP3    H239125   0.195   0.377   0.981  3.0676 -0.4806 -1.3269
 5856TIP3   OH239126   3.681   1.423   1.056 -0.4329 -0.1647  0.0944
 5856TIP3    H139127   3.657   1.467   0.975 -0.7126  1.1927  0.8764
 5856TIP3    H239128   3.600   1.422   1.108 -0.0659 -0.2751  0.6772
 5857TIP3   OH239129   1.493   2.277   1.999  0.2699 -0.2641  0.2220
 5857TIP3    H139130   1.416   2.221   2.005  0.1547 -0.0618  0.6692
 5857TIP3    H239131   1.461   2.364   2.023  0.7033 -0.2397  0.7201
 5858TIP3   OH239132   5.708   6.234   1.877  0.4020  0.0309  0.7510
 5858TIP3    H139133   5.637   6.212   1.816  1.4193 -1.7859  0.1318
 5858TIP3    H239134   5.667   6.289   1.943 -0.9222  1.4489 -1.1436
 5859TIP3   OH239135   5.073   4.880   0.781  0.4327 -0.2499  0.4893
 5859TIP3    H139136   5.046   4.789   0.798 -0.7958 -0.7770 -3.4047
 5859TIP3    H239137   4.992   4.926   0.760  1.2156  1.4211  0.9420
 5860TIP3   OH239138   0.559   2.594   0.738  0.1507  0.1087  0.3066
 5860TIP3    H139139   0.614   2.517   0.724 -0.7371 -0.3885 -0.5952
 5860TIP3    H239140   0.529   2.617   0.650 -2.5717 -0.7627  0.9221
 5861TIP3   OH239141   3.396   5.108   1.702  0.5699 -0.3029 -0.5752
 5861TIP3    H139142   3.471   5.053   1.682  0.3484 -0.7768 -0.1069
 5861TIP3    H239143   3.418   5.193   1.663  1.3904 -0.4008 -0.3456
 5862TIP3   OH239144   0.029   1.194   7.110 -0.0678  0.2946  0.0072
 5862TIP3    H139145  -0.045   1.236   7.067 -1.2243 -0.0818  1.5155
 5862TIP3    H239146   0.081   1.267   7.145  1.2417  0.6342 -2.4355
 5863TIP3   OH239147   5.431   4.197   1.988  0.1124 -0.2475 -0.0642
 5863TIP3    H139148   5.514   4.157   1.962  0.8171  0.5485  0.8836
 5863TIP3    H239149   5.364   4.139   1.951  1.0892 -1.3594 -0.1514
 5864TIP3   OH239150   4.870   5.364   0.691 -0.3131  0.4026  0.0861
 5864TIP3    H139151   4.831   5.304   0.628 -0.0322  1.0803 -0.7536
 5864TIP3    H239152   4.944   5.403   0.644  0.1033  0.6773  0.9494
 5865TIP3   OH239153   1.430   6.675   8.001 -0.2637  0.2626 -0.2328
 5865TIP3    H139154   1.438   6.601   8.061  0.7140  1.2144  0.8582
 5865TIP3    H239155   1.342   6.667   7.965 -0.4972 -0.9265  0.5359
 5866TIP3   OH239156   3.257   6.257   2.108  0.3732  0.2708  0.6018
 5866TIP3    H139157   3.256   6.162   2.121 -1.7562  0.2639  0.7843
 5866TIP3    H239158   3.316   6.271   2.034 -1.5267 -1.5401 -1.4160
 5867TIP3   OH239159   3.074   0.573   0.101  1.1640 -0.9561 -0.7751
 5867TIP3    H139160   2.982   0.592   0.081  0.9910 -0.8326  0.1094
 5867TIP3    H239161   3.071   0.523   0.182  1.9912  1.8033  1.1075
 5868TIP3   OH239162   2.905   4.889   0.772  0.4384 -0.7339 -0.0364
 5868TIP3    H139163   2.824   4.843   0.791  0.5812 -1.0257 -0.1132
 5868TIP3    H239164   2.970   4.819   0.763  0.5872 -0.5399 -0.5036
 5869TIP3   OH239165   5.159   5.378   8.072 -0.0395 -0.2342 -0.1579
 5869TIP3    H139166   5.096   5.329   8.019 -1.1687  2.8830 -1.9855
 5869TIP3    H239167   5.245   5.346   8.045 -0.6834 -0.3320 -2.2561
 5870TIP3   OH239168   0.587   2.635   8.175  0.2181 -0.0277 -0.7957
 5870TIP3    H139169   0.594   2.705   8.109  1.0669  0.9936  0.3370
 5870TIP3    H239170   0.670   2.639   8.223 -0.9751  0.3062  1.3408
 5871TIP3   OH239171   3.276   5.283   8.453  0.6564 -0.1233 -0.1778
 5871TIP3    H139172   3.329   5.345   8.503  0.0611 -0.2273  0.6022
 5871TIP3    H239173   3.216   5.245   8.518 -1.6243  1.3265 -1.2962
 5872TIP3   OH239174   3.228   6.201   1.280  0.1175 -0.0131  0.3776
 5872TIP3    H139175   3.254   6.263   1.348  1.4850 -0.4976  0.3324
 5872TIP3    H239176   3.279   6.122   1.298  0.3549 -0.2278 -1.0788
 5873TIP3   OH239177   0.495   0.968   2.341 -0.1508  0.2131  0.0625
 5873TIP3    H139178   0.431   0.904   2.308 -0.5328  0.7215 -0.2096
 5873TIP3    H239179   0.522   0.935   2.426 -0.8722  0.0496  0.2298
 5874TIP3   OH239180   0.494   5.481   2.931  0.5319 -0.4105  0.3709
 5874TIP3    H139181   0.414   5.435   2.958  0.5351 -0.1301  0.8818
 5874TIP3    H239182   0.513   5.539   3.004  0.6787  0.2131 -0.1593
 5875TIP3   OH239183   2.268   5.081   8.442  0.1140  0.0709 -0.2695
 5875TIP3    H139184   2.362   5.072   8.460  0.1817  0.4920 -0.3869
 5875TIP3    H239185   2.245   5.165   8.482 -0.5515 -0.7271  1.1016
 5876TIP3   OH239186   4.437   6.483   8.447  0.5235 -0.6350  0.2647
 5876TIP3    H139187   4.409   6.571   8.424  0.3075 -0.8537 -0.3446
 5876TIP3    H239188   4.356   6.432   8.450  0.3400 -0.3456  2.9433
 5877TIP3   OH239189   5.672   1.434   7.896  0.3892  0.5646  0.2008
 5877TIP3    H139190   5.584   1.397   7.883  0.4870  0.4028  0.0013
 5877TIP3    H239191   5.657   1.512   7.949  0.1521  0.3939  0.3866
 5878TIP3   OH239192   4.609   1.264   8.550  0.4984  0.3982  0.2536
 5878TIP3    H139193   4.635   1.351   8.521  0.8194  0.2094 -0.0330
 5878TIP3    H239194   4.659   1.250   8.631 -0.1622  0.7992  0.7442
 5879TIP3   OH239195   5.859   5.569   0.151 -0.1053 -0.2319  0.2037
 5879TIP3    H139196   5.780   5.604   0.110 -0.2813 -1.4825 -0.6010
 5879TIP3    H239197   5.924   5.639   0.142 -1.0667  0.7382  0.7223
 5880TIP3   OH239198   2.209   3.097   0.001  0.9893  0.5445  0.2905
 5880TIP3    H139199   2.204   3.117  -0.092  0.8678  0.2039  0.2217
 5880TIP3    H239200   2.120   3.069   0.024  1.3904 -0.9383  0.1375
 5881TIP3   OH239201   1.067   3.425   1.615  0.8848  0.1173 -0.2570
 5881TIP3    H139202   1.050   3.496   1.553  1.5965 -0.4987 -1.1883
 5881TIP3    H239203   0.989   3.370   1.610  0.4875  0.6312  0.1951
 5882TIP3   OH239204   2.235   3.375   1.834  0.7352 -0.6432 -0.1600
 5882TIP3    H139205   2.183   3.303   1.800  0.6913 -0.5549 -0.2819
 5882TIP3    H239206   2.234   3.441   1.764 -2.2827  1.0607  1.2724
 5883TIP3   OH239207   3.339   1.769   2.770 -0.0243  0.4987  0.2092
 5883TIP3    H139208   3.336   1.719   2.689 -1.4428 -1.2424  1.2478
 5883TIP3    H239209   3.247   1.784   2.792  0.2515 -0.3543  2.1965
 5884TIP3   OH239210   0.453   2.358   1.572 -0.0879 -0.0003 -0.9478
 5884TIP3    H139211   0.518   2.371   1.504 -0.9333 -0.5352 -1.8855
 5884TIP3    H239212   0.372   2.339   1.525 -1.2971  2.0722  0.1116
 5885TIP3   OH239213   5.578   0.887   8.014  0.2431 -0.1225 -0.1156
 5885TIP3    H139214   5.530   0.804   8.004 -0.2268  0.2940 -1.5520
 5885TIP3    H239215   5.524   0.939   8.074 -1.1007  0.2912 -1.6188
 5886TIP3   OH239216   6.192   2.165   7.627 -0.6209  0.3504 -0.1676
 5886TIP3    H139217   6.121   2.188   7.686  0.5863 -1.4270  2.1473
 5886TIP3    H239218   6.233   2.249   7.605 -1.0609  1.0739  1.6139
 5887TIP3   OH239219   1.848   2.318   1.136  0.4260  0.0083 -0.0269
 5887TIP3    H139220   1.778   2.383   1.138 -0.3931 -0.8583  0.4932
 5887TIP3    H239221   1.849   2.281   1.224  2.2884  0.7401  0.3071
 5888TIP3   OH239222   1.957   3.219   1.507  0.1914  0.1782  0.1863
 5888TIP3    H139223   1.958   3.314   1.505 -0.1256  0.1831 -1.3028
 5888TIP3    H239224   1.959   3.193   1.415 -1.5205 -1.2084  0.4782
 5889TIP3   OH239225   4.572   0.420   6.828  0.2821  0.4389  0.2518
 5889TIP3    H139226   4.505   0.466   6.879 -0.9021 -0.5173 -0.3925
 5889TIP3    H239227   4.615   0.489   6.778  0.4053  1.1832  1.3473
 5890TIP3   OH239228   5.642   0.534   1.419  0.5246 -0.2097  0.7133
 5890TIP3    H139229   5.644   0.457   1.362  0.1011 -0.6798  1.3154
 5890TIP3    H239230   5.733   0.565   1.421  0.8566 -1.1624  1.0820
 5891TIP3   OH239231   4.507   6.633   2.477  0.3240 -0.0230 -0.1719
 5891TIP3    H139232   4.437   6.605   2.537 -0.7236  1.5807 -0.5795
 5891TIP3    H239233   4.554   6.701   2.526 -0.6421  1.4221 -1.1646
 5892TIP3   OH239234   6.320   0.924   0.054 -0.5075 -0.3013  0.3923
 5892TIP3    H139235   6.353   0.840   0.023 -0.3566  0.3984 -1.4550
 5892TIP3    H239236   6.344   0.986  -0.014 -0.8070  1.2183  1.6160
 5893TIP3   OH239237   3.010   0.550   0.415 -0.3855  0.3476 -0.2695
 5893TIP3    H139238   2.973   0.462   0.421  1.0484 -0.2271  0.7342
 5893TIP3    H239239   2.947   0.606   0.460  0.1507 -0.6987  1.9290
 5894TIP3   OH239240   4.714   2.297   7.851  0.5183 -0.5401 -0.4051
 5894TIP3    H139241   4.775   2.334   7.787  0.3412  1.1738  0.3662
 5894TIP3    H239242   4.636   2.353   7.845  0.3491 -0.5978  1.0183
 5895TIP3   OH239243   5.837   3.647   0.873 -0.1136  0.6297  0.3200
 5895TIP3    H139244   5.765   3.637   0.935 -0.5545  0.5535 -0.1934
 5895TIP3    H239245   5.831   3.570   0.817  0.8802  0.1972  0.7789
 5896TIP3   OH239246   3.972   5.660   1.203  0.5189 -0.4919  0.5011
 5896TIP3    H139247   4.047   5.719   1.216 -0.5858  0.7601  1.4990
 5896TIP3    H239248   3.967   5.648   1.108  1.6731 -0.2049  0.3823
 5897TIP3   OH239249   2.302   3.506   1.621 -0.3878  0.4002  0.1750
 5897TIP3    H139250   2.357   3.581   1.601  0.1860 -0.1025 -0.1604
 5897TIP3    H239251   2.287   3.464   1.536  0.4886 -0.6728  0.5222
 5898TIP3   OH239252   0.428   2.195   2.074 -0.2969  1.0994  0.2665
 5898TIP3    H139253   0.404   2.279   2.035 -1.6517  0.1770 -0.9845
 5898TIP3    H239254   0.385   2.130   2.019  2.4823 -0.5583 -0.1054
 5899TIP3   OH239255   1.634   6.486   2.595 -0.0476  0.2969  0.2652
 5899TIP3    H139256   1.665   6.395   2.592  0.5648  0.5111 -0.0461
 5899TIP3    H239257   1.541   6.480   2.576  0.0551 -0.2406 -0.0849
 5900TIP3   OH239258   2.347   0.309   0.282 -0.2883  0.0958 -0.3826
 5900TIP3    H139259   2.343   0.234   0.341  0.8165 -0.7778 -1.3687
 5900TIP3    H239260   2.414   0.366   0.320 -0.7742  0.3511  0.0997
 5901TIP3   OH239261   3.973   5.762   2.331 -0.5605  0.7141 -0.4682
 5901TIP3    H139262   3.995   5.836   2.387  1.0678 -0.8288  1.0751
 5901TIP3    H239263   4.057   5.731   2.296 -1.0905 -0.8264 -0.4815
 5902TIP3   OH239264   4.208   1.656   2.284 -0.0361  0.1176 -0.1547
 5902TIP3    H139265   4.139   1.703   2.238 -1.1591 -0.2082  1.1288
 5902TIP3    H239266   4.225   1.579   2.230 -0.3520  0.4350 -0.7146
 5903TIP3   OH239267   6.630   2.468   7.385 -0.0992  0.0066 -0.0466
 5903TIP3    H139268   6.596   2.400   7.326 -1.1835  0.3349  0.1659
 5903TIP3    H239269   6.689   2.520   7.331 -0.3650 -0.2528 -0.5966
 5904TIP3   OH239270   5.009   0.127   7.009  0.2035 -0.0823  0.3687
 5904TIP3    H139271   4.922   0.138   6.970  0.6165  0.3288 -0.4498
 5904TIP3    H239272   5.026   0.210   7.052  0.5767  0.1674 -0.2563
 5905TIP3   OH239273   0.118   5.071   0.496  0.4714 -0.2915  0.2223
 5905TIP3    H139274   0.029   5.101   0.481  0.3234  0.4724  2.3628
 5905TIP3    H239275   0.165   5.095   0.416 -0.6447  1.7820  0.1218
 5906TIP3   OH239276   4.257   0.970   7.926 -0.2516 -0.4288  0.3079
 5906TIP3    H139277   4.227   0.958   8.016 -2.5644  0.6590 -0.2381
 5906TIP3    H239278   4.290   0.884   7.900  1.8980 -0.3863  2.6225
 5907TIP3   OH239279   1.701   2.166   0.516  0.4583 -0.8981  0.1636
 5907TIP3    H139280   1.711   2.071   0.513  0.7317 -0.8437 -1.4949
 5907TIP3    H239281   1.613   2.182   0.481  1.3692 -0.4412 -2.0669
 5908TIP3   OH239282   6.167   6.260   7.331  0.7401  0.3774  0.0980
 5908TIP3    H139283   6.199   6.171   7.341 -1.4537 -0.8970 -2.6069
 5908TIP3    H239284   6.073   6.254   7.347  0.4610  2.0602 -0.6316
 5909TIP3   OH239285   0.271   1.428   0.659 -0.8791 -0.4221 -0.2071
 5909TIP3    H139286   0.329   1.455   0.730  0.8425 -0.8521 -1.3771
 5909TIP3    H239287   0.249   1.510   0.614 -1.8389 -0.1693  0.6892
 5910TIP3   OH239288   0.182   4.812   1.713  0.4500  0.0410  0.6337
 5910TIP3    H139289   0.200   4.797   1.806 -1.0139 -2.5709  0.6151
 5910TIP3    H239290   0.088   4.799   1.705  0.7342 -1.2124 -1.4023
 5911TIP3   OH239291   3.093   4.542   1.814 -0.2017 -0.2968  0.9687
 5911TIP3    H139292   3.052   4.529   1.728 -0.3479 -0.4702  1.0625
 5911TIP3    H239293   3.088   4.456   1.855  0.0101 -0.2518  1.0909
 5912TIP3   OH239294   3.243   2.924   2.575  0.6571  0.0008  0.1908
 5912TIP3    H139295   3.285   2.934   2.660  0.8082 -1.1986  0.2719
 5912TIP3    H239296   3.174   2.858   2.590  0.3062  0.2038 -0.4830
 5913TIP3   OH239297   4.708   1.390   2.599  0.4707  0.2594  0.3548
 5913TIP3    H139298   4.699   1.445   2.676  0.6621 -0.8466  1.1941
 5913TIP3    H239299   4.799   1.402   2.571  0.0827  1.5499 -0.4132
 5914TIP3   OH239300   6.687   1.862   0.937  0.1794  0.1708 -1.1050
 5914TIP3    H139301   6.623   1.810   0.985 -3.3373  4.5092 -0.4032
 5914TIP3    H239302   6.674   1.838   0.846  0.9251 -2.2331 -0.6357
 5915TIP3   OH239303   4.142   5.534   1.457 -0.1924  0.2222  0.4264
 5915TIP3    H139304   4.083   5.586   1.511  0.2584  1.7519 -0.5085
 5915TIP3    H239305   4.132   5.445   1.490 -3.0937  0.3821  0.2340
 5916TIP3   OH239306   4.731   0.360   2.953  0.0937  0.6994 -0.9628
 5916TIP3    H139307   4.778   0.442   2.965 -0.1950  1.0571 -2.0948
 5916TIP3    H239308   4.656   0.383   2.899  0.4801 -0.4412 -2.0509
 5917TIP3   OH239309   0.502   6.026   7.592  0.0599 -0.0210 -0.2962
 5917TIP3    H139310   0.522   6.084   7.665  0.2062  1.7905 -1.7099
 5917TIP3    H239311   0.580   5.971   7.583  0.2515  0.1016  0.5627
 5918TIP3   OH239312   6.793   3.441   0.402 -0.3084 -0.6126 -0.2719
 5918TIP3    H139313   6.741   3.361   0.404 -0.0160 -0.8835  3.1897
 5918TIP3    H239314   6.736   3.507   0.442  0.9335 -0.2069  0.8973
 5919TIP3   OH239315   5.018   3.256   7.609  0.5481 -0.5511  0.6591
 5919TIP3    H139316   5.076   3.242   7.535  0.6743  2.4692  0.0896
 5919TIP3    H239317   4.931   3.271   7.570  0.5219  0.5717  1.1144
 5920TIP3   OH239318   5.474   6.146   2.427 -0.5764 -0.4281 -0.0767
 5920TIP3    H139319   5.464   6.101   2.343  0.3178  0.3048 -0.5871
 5920TIP3    H239320   5.546   6.207   2.413  0.6424 -1.3815  1.6860
 5921TIP3   OH239321   4.008   3.696   2.109  0.5345 -0.0768 -0.5558
 5921TIP3    H139322   3.981   3.777   2.066 -0.5116  0.8466  1.6565
 5921TIP3    H239323   3.975   3.705   2.199  0.7692 -2.7786 -0.1251
 5922TIP3   OH239324   2.465   0.746   1.970  0.0799 -0.4810 -0.0806
 5922TIP3    H139325   2.559   0.767   1.965 -0.0923  1.0063  1.8703
 5922TIP3    H239326   2.461   0.668   2.026  0.1199  0.0829  0.7326
 5923TIP3   OH239327   6.577   2.748   7.813  0.1812  0.0700 -0.1718
 5923TIP3    H139328   6.598   2.655   7.802 -0.3649 -0.0338 -0.3869
 5923TIP3    H239329   6.496   2.748   7.865  0.3798  0.4373  0.1449
 5924TIP3   OH239330   0.735   2.017   1.695  0.6894 -0.4392 -0.1140
 5924TIP3    H139331   0.693   2.013   1.610  1.8268  2.0642 -0.8897
 5924TIP3    H239332   0.735   2.110   1.718 -0.0847 -1.0533  2.9199
 5925TIP3   OH239333   3.445   1.301   6.947  0.3648 -0.0706  0.0242
 5925TIP3    H139334   3.491   1.246   6.884 -3.2260 -1.8551 -1.3371
 5925TIP3    H239335   3.421   1.379   6.897 -1.4512 -0.9619 -0.5977
 5926TIP3   OH239336   1.306   5.200   0.035 -0.3025  0.3841  0.3145
 5926TIP3    H139337   1.242   5.211  -0.036 -0.4601 -2.2692 -0.0737
 5926TIP3    H239338   1.385   5.245   0.004 -0.8603  0.5997 -0.8386
 5927TIP3   OH239339   1.564   1.264   8.471  0.7643 -1.1172 -0.1123
 5927TIP3    H139340   1.627   1.195   8.451  1.3053 -0.4001 -1.0105
 5927TIP3    H239341   1.498   1.223   8.526  0.4571 -2.6444 -1.5522
 5928TIP3   OH239342   1.286   0.233   0.630 -0.1543  0.4901  0.2315
 5928TIP3    H139343   1.201   0.204   0.600  0.0131  2.2648 -2.2103
 5928TIP3    H239344   1.270   0.318   0.671  0.4438  0.8282 -0.2213
 5929TIP3   OH239345   2.984   5.611   0.234  0.0423 -0.0096  0.2005
 5929TIP3    H139346   2.966   5.677   0.300  0.8741 -0.7960  1.2536
 5929TIP3    H239347   2.904   5.559   0.229 -0.9143  1.5292 -1.2292
 5930TIP3   OH239348   6.766   2.602   8.411 -0.8207 -0.3145 -0.1187
 5930TIP3    H139349   6.771   2.634   8.501 -1.7267 -0.3948 -0.0363
 5930TIP3    H239350   6.702   2.658   8.369  0.0558  0.1279 -0.9068
 5931TIP3   OH239351   5.668   5.693   1.356 -0.1189 -0.6561 -0.2045
 5931TIP3    H139352   5.647   5.602   1.335 -0.7599 -0.3660 -0.8866
 5931TIP3    H239353   5.761   5.701   1.336 -0.0949 -1.1176 -0.2986
 5932TIP3   OH239354   3.430   6.440   7.501  0.6499 -0.1786  0.4573
 5932TIP3    H139355   3.365   6.377   7.532  0.8857 -0.2460  0.8171
 5932TIP3    H239356   3.454   6.490   7.579  0.7365  0.1126  0.2470
 5933TIP3   OH239357   3.673   2.834   8.183 -0.4333  0.1144  0.4007
 5933TIP3    H139358   3.688   2.903   8.119 -3.4802  1.9402  1.4755
 5933TIP3    H239359   3.748   2.775   8.173  0.9607  2.1692 -2.3541
 5934TIP3   OH239360   6.797   0.982   1.076 -0.6545 -0.4281 -0.0752
 5934TIP3    H139361   6.835   0.936   1.150 -0.9753  0.7712  0.8771
 5934TIP3    H239362   6.847   1.064   1.070 -0.8406 -0.3678 -0.9873
 5935TIP3   OH239363   3.241   0.522   0.939 -0.0745  0.0389  0.0006
 5935TIP3    H139364   3.329   0.534   0.976 -0.2509 -2.1124  1.3242
 5935TIP3    H239365   3.254   0.469   0.861 -0.2382 -1.4426  0.9314
 5936TIP3   OH239366   1.073   6.366   8.118  0.3784 -0.4780 -0.4124
 5936TIP3    H139367   1.073   6.320   8.034  2.9717 -0.0406 -0.7468
 5936TIP3    H239368   1.096   6.300   8.182  1.5758 -0.2105 -0.5384
 5937TIP3   OH239369   1.797   1.619   0.408  0.3409 -0.5093 -0.5383
 5937TIP3    H139370   1.741   1.541   0.408  1.2238 -1.1602 -0.8723
 5937TIP3    H239371   1.851   1.610   0.330  0.0456  0.7541 -0.9195
 5938TIP3   OH239372   4.733   5.135   1.518 -0.4556  0.0418  0.0550
 5938TIP3    H139373   4.784   5.149   1.597 -0.5969 -0.9389  0.3298
 5938TIP3    H239374   4.680   5.057   1.536 -0.8117  0.0599 -0.8371
 5939TIP3   OH239375   3.686   2.621   7.516 -0.3893  0.3919  0.7019
 5939TIP3    H139376   3.782   2.619   7.522 -0.2162  3.4964  0.6166
 5939TIP3    H239377   3.665   2.551   7.455  2.0976  1.2439 -1.3457
 5940TIP3   OH239378   4.764   6.590   7.988  0.1476 -0.0848 -0.3415
 5940TIP3    H139379   4.737   6.579   8.079  0.4593 -0.8727 -0.3409
 5940TIP3    H239380   4.689   6.561   7.936 -0.3820  1.2365 -0.3506
 5941TIP3   OH239381   4.160   3.610   7.823 -0.3092 -0.2675 -0.0330
 5941TIP3    H139382   4.083   3.658   7.856 -0.4652 -1.7237  1.9022
 5941TIP3    H239383   4.149   3.521   7.856  2.6099 -0.3478  1.0164
 5942TIP3   OH239384   1.637   3.288   0.922  0.2219  0.3547 -0.0921
 5942TIP3    H139385   1.675   3.209   0.961  2.0401  0.7983 -0.8605
 5942TIP3    H239386   1.630   3.267   0.829  0.2558  0.9217 -0.2249
 5943TIP3   OH239387   2.228   1.545   0.217 -0.2439 -0.4882  0.2272
 5943TIP3    H139388   2.218   1.625   0.165 -0.4612 -1.6602 -1.6096
 5943TIP3    H239389   2.147   1.539   0.267 -0.1407  0.5235  0.5506
 5944TIP3   OH239390   4.855   6.473   0.944  0.2752 -0.3690 -0.7672
 5944TIP3    H139391   4.889   6.522   0.869 -0.7360  2.5166  0.5082
 5944TIP3    H239392   4.934   6.441   0.989  0.9504 -0.5834 -2.0542
 5945TIP3   OH239393   3.345   3.795   7.718 -0.3965  0.0981  0.2254
 5945TIP3    H139394   3.322   3.812   7.627 -1.9718 -1.6899  0.2251
 5945TIP3    H239395   3.262   3.795   7.765  0.0785 -1.5995  1.1681
 5946TIP3   OH239396   4.243   4.723   0.760 -0.2022 -0.2590  0.5888
 5946TIP3    H139397   4.321   4.671   0.740  0.9111  2.1140 -1.8601
 5946TIP3    H239398   4.183   4.706   0.688 -0.7390  0.1513  0.9273
 5947TIP3   OH239399   1.787   4.655   0.407 -0.4980  0.5248  0.5396
 5947TIP3    H139400   1.700   4.629   0.439 -0.5158  2.9226  2.8013
 5947TIP3    H239401   1.848   4.610   0.466 -0.3007  0.5785  0.3749
 5948TIP3   OH239402   2.510   4.349   2.870  0.0878  0.2290  0.3303
 5948TIP3    H139403   2.498   4.439   2.842 -0.5045 -0.7357 -2.9991
 5948TIP3    H239404   2.603   4.331   2.858 -0.1502 -0.1591 -1.2843
 5949TIP3   OH239405   4.379   2.983   1.345  0.6702  0.1317 -0.3599
 5949TIP3    H139406   4.383   3.078   1.337 -0.9375  0.5652  2.6419
 5949TIP3    H239407   4.469   2.956   1.360  0.8337  1.5823  1.5774
 5950TIP3   OH239408   2.126   5.339   8.233 -0.0044  0.3698  0.1724
 5950TIP3    H139409   2.101   5.249   8.215  0.4705  0.2706 -0.0016
 5950TIP3    H239410   2.056   5.373   8.290 -1.0771  0.4202 -1.1235
 5951TIP3   OH239411   4.403   1.971   2.119  0.1964 -0.2734 -0.1618
 5951TIP3    H139412   4.354   2.042   2.078  1.5654  0.4170 -0.6739
 5951TIP3    H239413   4.425   2.005   2.206  0.6298 -0.1573 -0.3124
 5952TIP3   OH239414   2.985   0.719   7.681 -0.7274  0.4034 -0.6739
 5952TIP3    H139415   2.939   0.704   7.764 -0.6402 -1.2693 -0.8953
 5952TIP3    H239416   2.921   0.698   7.614 -0.4803  0.7374 -1.0148
 5953TIP3   OH239417   3.285   5.486   2.910  0.5144 -0.3697  0.1672
 5953TIP3    H139418   3.301   5.559   2.851  2.8989 -0.7707  0.2215
 5953TIP3    H239419   3.333   5.413   2.871  0.5845 -1.1346  1.6222
 5954TIP3   OH239420   4.528   6.565   7.803  0.4688 -0.1357 -0.4783
 5954TIP3    H139421   4.503   6.475   7.823  2.5437 -1.2603 -2.4786
 5954TIP3    H239422   4.532   6.568   7.708  0.8970  1.9685 -0.4411
 5955TIP3   OH239423   6.034   1.624   0.368 -0.3710  0.0712 -0.1883
 5955TIP3    H139424   6.118   1.580   0.381 -0.3603 -0.0286 -0.5821
 5955TIP3    H239425   5.982   1.561   0.318 -1.3522 -0.6455  1.6451
 5956TIP3   OH239426   3.743   2.951   1.020 -0.0255  0.0552  0.2521
 5956TIP3    H139427   3.655   2.979   1.045  0.0387  0.6644 -0.1917
 5956TIP3    H239428   3.798   2.979   1.094  0.0529  1.2226 -0.2231
 5957TIP3   OH239429   3.236   5.179   0.066 -0.6214  0.3927  0.0435
 5957TIP3    H139430   3.323   5.168   0.104 -0.3514 -0.4141 -0.7565
 5957TIP3    H239431   3.176   5.161   0.139 -0.1303  1.2283  0.6701
 5958TIP3   OH239432   3.596   3.893   7.518  0.0507 -0.3886  0.0346
 5958TIP3    H139433   3.516   3.864   7.474 -1.3018  1.4991  1.0904
 5958TIP3    H239434   3.659   3.905   7.447 -1.5530  0.9609 -1.2412
 5959TIP3   OH239435   0.974   2.821   8.097  0.4135  0.0697 -0.2593
 5959TIP3    H139436   0.922   2.841   8.019  0.2130  1.8415  0.2688
 5959TIP3    H239437   0.911   2.784   8.158 -0.3633  2.3364  0.4260
 5960TIP3   OH239438   4.934   0.412   1.090 -0.4858  0.2004 -0.0280
 5960TIP3    H139439   4.893   0.467   1.023  1.1256 -0.0720 -1.2762
 5960TIP3    H239440   4.906   0.452   1.173 -0.6884  1.9233 -0.8821
 5961TIP3   OH239441   0.172   0.462   6.722 -0.2469 -0.0195 -0.4198
 5961TIP3    H139442   0.093   0.415   6.697 -0.4208 -0.6741  1.2214
 5961TIP3    H239443   0.236   0.393   6.741  0.5267  0.4916 -1.1053
 5962TIP3   OH239444   6.659   0.051   1.705 -0.1586 -0.3562  0.1674
 5962TIP3    H139445   6.683  -0.041   1.710  3.2074  0.3088 -0.7708
 5962TIP3    H239446   6.563   0.052   1.704 -0.3401 -3.9807 -1.9160
 5963TIP3   OH239447   0.366   3.828   7.124  0.4346  0.7354  0.6215
 5963TIP3    H139448   0.436   3.769   7.094  0.0858 -0.4191  1.9888
 5963TIP3    H239449   0.413   3.904   7.159  0.9348  0.6935  0.0667
 5964TIP3   OH239450   1.215   3.664   1.936 -0.4723  0.3764  1.2586
 5964TIP3    H139451   1.290   3.672   1.994  0.6587  0.4509 -0.1594
 5964TIP3    H239452   1.195   3.570   1.934  0.1666  0.2431  0.9454
 5965TIP3   OH239453   6.137   4.071   7.796 -0.3373 -0.0862  0.4594
 5965TIP3    H139454   6.045   4.095   7.812 -0.2159  0.2482  0.6778
 5965TIP3    H239455   6.158   4.008   7.865 -0.2922  0.1257  0.6410
 5966TIP3   OH239456   2.682   2.847   0.318  0.0810  0.5648 -0.3136
 5966TIP3    H139457   2.745   2.828   0.247 -0.3243  1.9255 -1.0897
 5966TIP3    H239458   2.732   2.900   0.380  0.7318 -1.4579  1.0015
 5967TIP3   OH239459   4.816   2.842   7.556  0.1780  0.3661  0.5465
 5967TIP3    H139460   4.878   2.851   7.629 -1.0044 -1.8526  1.9274
 5967TIP3    H239461   4.740   2.894   7.583 -0.0600 -0.0458  0.6792
 5968TIP3   OH239462   3.198   3.574   2.706 -0.3050 -0.6153  0.2482
 5968TIP3    H139463   3.235   3.564   2.618 -0.4533 -1.2060  0.2443
 5968TIP3    H239464   3.262   3.532   2.764 -1.1300 -2.0292  0.1940
 5969TIP3   OH239465   2.530   0.949   1.565  0.4222  0.1561 -0.2435
 5969TIP3    H139466   2.595   1.003   1.520 -1.1231 -0.3221 -3.3036
 5969TIP3    H239467   2.478   1.011   1.616  0.9194  1.0529 -0.8040
 5970TIP3   OH239468   4.747   6.653   8.298 -0.2944 -0.4140 -0.1637
 5970TIP3    H139469   4.831   6.697   8.311 -0.0662 -0.6529 -0.7603
 5970TIP3    H239470   4.764   6.561   8.320  0.2070 -0.9098 -2.3176
 5971TIP3   OH239471   2.639   6.062   7.170  0.2510 -0.1333 -0.6738
 5971TIP3    H139472   2.612   6.153   7.155 -1.3896 -0.2007  1.4018
 5971TIP3    H239473   2.734   6.066   7.175  0.2126  1.4788 -0.6488
 5972TIP3   OH239474   6.102   0.353   1.707 -0.2094 -0.0473  0.4411
 5972TIP3    H139475   6.088   0.448   1.711 -2.1345 -0.2699  0.0586
 5972TIP3    H239476   6.121   0.328   1.797  0.1076  0.6701  0.5813
 5973TIP3   OH239477   1.708   6.843   0.272  0.6541  0.7049  0.7946
 5973TIP3    H139478   1.697   6.881   0.359 -0.4070  0.5078  0.7623
 5973TIP3    H239479   1.619   6.837   0.238  1.0179  0.2904 -0.0973
 5974TIP3   OH239480   6.032   4.621   1.052 -0.4914 -0.3145  0.1545
 5974TIP3    H139481   6.013   4.551   0.990 -0.1986 -0.3194  0.0689
 5974TIP3    H239482   5.983   4.598   1.131 -1.7949  0.2704 -0.4369
 5975TIP3   OH239483   6.260   1.212   7.316 -0.1959  0.1111 -0.5051
 5975TIP3    H139484   6.168   1.188   7.312 -0.5785  1.2493  0.7204
 5975TIP3    H239485   6.293   1.169   7.394 -0.1640  1.1720  0.0808
 5976TIP3   OH239486   6.636   4.825   1.793  0.2394 -1.1299  0.2341
 5976TIP3    H139487   6.589   4.866   1.720 -1.5843 -1.1047  1.3558
 5976TIP3    H239488   6.569   4.810   1.859  1.7840 -1.3684  1.8316
 5977TIP3   OH239489   3.621   3.100   8.331 -0.2592  0.5647 -0.3468
 5977TIP3    H139490   3.663   3.031   8.279 -0.4109  1.6806 -2.0650
 5977TIP3    H239491   3.577   3.155   8.266 -0.2681  2.1906  0.9545
 5978TIP3   OH239492   0.467   4.669   7.821 -0.4749  0.4141  0.1292
 5978TIP3    H139493   0.429   4.608   7.885 -0.9141  1.2147  0.6388
 5978TIP3    H239494   0.556   4.683   7.853 -0.6228  0.6425  0.4397
 5979TIP3   OH239495   4.417   3.504   7.935 -0.8186 -0.0514 -0.5504
 5979TIP3    H139496   4.421   3.574   8.001 -0.7265 -0.0196 -0.5895
 5979TIP3    H239497   4.415   3.550   7.852 -0.3065 -0.1058 -0.5941
 5980TIP3   OH239498   2.229   2.520   8.513  0.0533 -0.3429  0.1659
 5980TIP3    H139499   2.274   2.603   8.528 -0.8974  0.3008 -0.4427
 5980TIP3    H239500   2.288   2.470   8.458  0.5946 -0.0416  0.4664
 5981TIP3   OH239501   3.838   0.672   1.937 -0.6671 -0.2152  0.3839
 5981TIP3    H139502   3.823   0.641   2.027 -1.3625 -2.1499 -0.3317
 5981TIP3    H239503   3.754   0.659   1.893 -0.4211  0.9851 -0.4908
 5982TIP3   OH239504   1.458   3.872   1.315  0.2641 -0.1874  0.2888
 5982TIP3    H139505   1.395   3.801   1.332  1.5193 -1.8300 -1.4183
 5982TIP3    H239506   1.504   3.884   1.397 -0.7737 -0.5004  0.9430
 5983TIP3   OH239507   6.476   0.059   6.630  0.2434 -0.1929 -0.4227
 5983TIP3    H139508   6.537   0.096   6.566  0.7848 -0.4137 -0.0318
 5983TIP3    H239509   6.531   0.016   6.695 -0.3472 -3.4405 -1.8374
 5984TIP3   OH239510   4.128   3.793   0.196 -0.3020 -0.1043  0.4726
 5984TIP3    H139511   4.034   3.792   0.216 -0.5884  0.0381 -0.7757
 5984TIP3    H239512   4.149   3.886   0.184  0.0410 -0.1225  0.9211
 5985TIP3   OH239513   3.260   5.716   0.867  0.3009 -0.3981  0.2156
 5985TIP3    H139514   3.224   5.632   0.838  0.1955 -0.4417  0.4652
 5985TIP3    H239515   3.297   5.755   0.788 -1.2823  0.1465 -0.2980
 5986TIP3   OH239516   3.543   1.690   0.379  0.0712  0.1125  0.5782
 5986TIP3    H139517   3.533   1.726   0.291  0.3404 -1.0532  0.0580
 5986TIP3    H239518   3.561   1.767   0.434  0.7164  0.7622 -0.5021
 5987TIP3   OH239519   5.099   0.753   2.143 -0.2487  0.1378  1.0299
 5987TIP3    H139520   5.082   0.676   2.198  2.0397 -0.0506  1.5553
 5987TIP3    H239521   5.135   0.818   2.203  3.3599 -0.4338 -0.2560
 5988TIP3   OH239522   1.279   1.872   2.449  0.4091 -0.2944 -0.3287
 5988TIP3    H139523   1.186   1.851   2.445  0.5953 -1.1613 -0.3581
 5988TIP3    H239524   1.284   1.965   2.425 -0.5146 -0.0292  0.4576
 5989TIP3   OH239525   3.561   2.879   0.539 -0.2387 -0.5349 -0.3718
 5989TIP3    H139526   3.615   2.806   0.509 -0.0105 -1.2253  1.5701
 5989TIP3    H239527   3.611   2.957   0.515 -0.2906 -0.9974 -2.1062
 5990TIP3   OH239528   3.679   0.649   0.161  0.0661  0.7588 -0.1272
 5990TIP3    H139529   3.770   0.660   0.188  0.4111  0.3222 -1.0816
 5990TIP3    H239530   3.667   0.712   0.090 -0.5405  1.1763  0.3230
 5991TIP3   OH239531   3.837   3.779   2.332 -0.4392 -1.0315  0.0539
 5991TIP3    H139532   3.755   3.777   2.282 -0.2152 -2.5763 -0.3290
 5991TIP3    H239533   3.811   3.804   2.421 -1.5717 -2.7839  0.2754
 5992TIP3   OH239534   4.584   5.282   7.896 -0.7586  0.0541  0.2326
 5992TIP3    H139535   4.503   5.231   7.892 -1.4706  1.0988  0.6130
 5992TIP3    H239536   4.571   5.352   7.832  0.0708 -0.0790 -0.0850
 5993TIP3   OH239537   4.267   3.147   0.649 -0.2115 -0.0242  0.2406
 5993TIP3    H139538   4.339   3.174   0.705  0.5655  0.1390 -0.8109
 5993TIP3    H239539   4.292   3.176   0.561  0.9706 -4.3592 -1.1619
 5994TIP3   OH239540   4.528   5.691   8.619 -0.3785  0.6086 -0.5383
 5994TIP3    H139541   4.527   5.692   8.524 -1.1158  0.4975 -0.5386
 5994TIP3    H239542   4.581   5.615   8.642  0.4543  1.0825 -0.8470
 5995TIP3   OH239543   1.104   4.339   7.055 -0.4804 -0.2967  0.5382
 5995TIP3    H139544   1.167   4.405   7.025 -0.9866 -0.1209 -0.1544
 5995TIP3    H239545   1.130   4.259   7.010  0.3827 -0.6909  1.6877
 5996TIP3   OH239546   6.828   1.417   1.404  0.1925 -0.3175 -0.4056
 5996TIP3    H139547   6.917   1.440   1.429  0.0050  0.8062 -0.7084
 5996TIP3    H239548   6.838   1.349   1.337  0.7755 -0.8880  0.2430
 5997TIP3   OH239549   4.847   1.259   1.468  0.4537 -0.2752  0.7099
 5997TIP3    H139550   4.932   1.271   1.510  0.8127 -2.3076  0.6383
 5997TIP3    H239551   4.786   1.249   1.540  0.6093 -0.8615  0.7639
 5998TIP3   OH239552   2.439   5.900   0.259 -0.4094  0.2784  0.2120
 5998TIP3    H139553   2.446   5.976   0.317 -1.3441  1.9686 -1.7431
 5998TIP3    H239554   2.405   5.830   0.315  0.1127  1.3938  2.0027
 5999TIP3   OH239555   5.273   2.165   1.174 -0.0465  0.6929 -0.0400
 5999TIP3    H139556   5.303   2.074   1.177 -0.5107  0.5252 -0.3270
 5999TIP3    H239557   5.208   2.167   1.104 -1.7372  0.7125  1.4546
 6000TIP3   OH239558   5.617   4.760   0.923  0.3080 -0.0971 -0.3860
 6000TIP3    H139559   5.613   4.728   0.833  0.4442 -1.1726 -0.0173
 6000TIP3    H239560   5.529   4.793   0.940 -0.1987 -1.3909 -0.3830
 6001TIP3   OH239561   3.125   2.237   7.743 -0.5948 -0.1028 -0.0217
 6001TIP3    H139562   3.121   2.326   7.778 -1.2177 -0.2157  0.2185
 6001TIP3    H239563   3.061   2.237   7.671  2.8106  1.0426 -3.4110
 6002TIP3   OH239564   4.067   4.593   0.241 -0.2464  0.0032  0.0482
 6002TIP3    H139565   4.035   4.683   0.253 -1.5303 -0.1305 -1.9680
 6002TIP3    H239566   4.140   4.601   0.180 -0.2709 -0.3122 -0.0240
 6003TIP3   OH239567   1.547   1.629   1.336 -0.5862  0.8832 -0.0969
 6003TIP3    H139568   1.512   1.715   1.360 -1.1841  0.1141  2.0127
 6003TIP3    H239569   1.509   1.569   1.400  0.4843 -0.8430 -0.9997
 6004TIP3   OH239570   5.282   5.194   1.091 -0.4118 -0.5279  0.5367
 6004TIP3    H139571   5.211   5.229   1.145 -0.3476  2.0137 -0.8816
 6004TIP3    H239572   5.327   5.132   1.149 -2.5928 -0.8037  2.0939
 6005TIP3   OH239573   4.132   5.900   2.808 -0.6864 -0.2285  0.6521
 6005TIP3    H139574   4.071   5.834   2.840 -0.0974 -2.9068 -3.1340
 6005TIP3    H239575   4.077   5.963   2.762 -0.9054 -0.7668  0.1663
 6006TIP3   OH239576   4.300   4.084   1.973  0.1727  0.3632 -0.1287
 6006TIP3    H139577   4.304   4.115   2.064  2.2663  0.3534 -0.1602
 6006TIP3    H239578   4.241   4.145   1.930 -1.9669 -0.4465  1.4990
 6007TIP3   OH239579   4.154   5.807   0.486  0.1826 -0.0708  0.9331
 6007TIP3    H139580   4.093   5.817   0.559  0.8396  0.8258  1.3849
 6007TIP3    H239581   4.178   5.715   0.486 -1.5620 -0.5694  0.4089
 6008TIP3   OH239582   0.943   6.776   8.675  0.4235  0.0283  0.1820
 6008TIP3    H139583   0.940   6.820   8.591 -0.4801  0.9854  0.6847
 6008TIP3    H239584   0.985   6.692   8.657  1.1200  0.6118 -1.0206
 6009TIP3   OH239585   3.382   1.796   7.175  0.2251 -0.5637  0.8177
 6009TIP3    H139586   3.377   1.805   7.080 -2.3928 -1.9458  0.7221
 6009TIP3    H239587   3.437   1.869   7.203  1.7666 -0.5912 -1.7808
 6010TIP3   OH239588   5.300   6.433   1.203  0.3749 -0.5587 -0.1226
 6010TIP3    H139589   5.336   6.468   1.285 -2.5801  0.8603  0.7026
 6010TIP3    H239590   5.273   6.344   1.225  0.2058 -0.4136  0.2774
 6011TIP3   OH239591   1.816   1.114   7.605  0.2881 -0.9593  0.0387
 6011TIP3    H139592   1.876   1.104   7.532  0.1070 -1.9338  0.0088
 6011TIP3    H239593   1.737   1.151   7.567  1.1113  1.0991  0.2105
 6012TIP3   OH239594   3.172   6.431   2.527  0.4446 -0.6846 -0.1095
 6012TIP3    H139595   3.255   6.477   2.517  0.3578 -0.6339 -0.6786
 6012TIP3    H239596   3.106   6.500   2.526  0.0951 -0.8806 -3.6841
 6013TIP3   OH239597   4.040   4.667   8.421  0.5489  0.3484 -0.0298
 6013TIP3    H139598   4.012   4.700   8.336 -0.9719  2.5276  1.2071
 6013TIP3    H239599   3.985   4.591   8.437  0.4882  0.2345 -0.7892
 6014TIP3   OH239600   4.245   5.577   7.554  0.4053  0.1181 -0.3093
 6014TIP3    H139601   4.192   5.522   7.496 -0.0683  0.5545 -0.3061
 6014TIP3    H239602   4.252   5.660   7.507  0.7595  0.1897 -0.1292
 6015TIP3   OH239603   4.914   0.197   7.368  0.3256 -0.4363 -0.4746
 6015TIP3    H139604   4.906   0.292   7.375  1.5551 -0.0764 -2.9594
 6015TIP3    H239605   4.835   0.170   7.321  0.9701 -0.3324 -1.6480
 6016TIP3   OH239606   5.754   0.948   7.633  0.4982  0.6508  0.0190
 6016TIP3    H139607   5.843   0.936   7.666  0.2592 -0.5362  0.2763
 6016TIP3    H239608   5.750   0.894   7.555 -0.3747 -0.3473  0.7273
 6017TIP3   OH239609   4.450   5.644   0.861  0.5683  0.4220 -0.1025
 6017TIP3    H139610   4.412   5.580   0.921 -0.1489 -0.5979 -1.5679
 6017TIP3    H239611   4.533   5.605   0.834  0.6273  0.6049 -0.1834
 6018TIP3   OH239612   4.950   2.905   1.940 -0.0006 -0.2575 -0.0644
 6018TIP3    H139613   5.031   2.918   1.989  1.3767 -0.2436 -2.1773
 6018TIP3    H239614   4.881   2.937   1.997  1.6773  1.3879  1.1397
 6019TIP3   OH239615   1.491   6.330   1.058 -0.1054  0.1389 -0.2425
 6019TIP3    H139616   1.486   6.316   1.152  0.7102  1.1086 -0.0366
 6019TIP3    H239617   1.545   6.258   1.026 -1.2468 -0.7912 -0.1341
 6020TIP3   OH239618   5.919   1.827   8.256  0.1190 -0.3624 -0.4319
 6020TIP3    H139619   5.844   1.848   8.312 -0.2894  0.4256 -1.2347
 6020TIP3    H239620   5.881   1.821   8.168  0.7964 -1.2675 -0.6805
 6021TIP3   OH239621   6.724   4.387   0.547 -0.0066  0.7218  0.0902
 6021TIP3    H139622   6.633   4.380   0.517  0.2264 -1.4148 -0.2876
 6021TIP3    H239623   6.777   4.367   0.470  0.7564  0.7843  0.5872
 6022TIP3   OH239624   2.524   2.061   8.358  0.4167  0.6853 -0.4147
 6022TIP3    H139625   2.538   1.972   8.326 -0.5355  0.5239 -0.4272
 6022TIP3    H239626   2.538   2.116   8.281  1.7688  0.6255 -0.2283
 6023TIP3   OH239627   1.458   5.049   7.693 -0.3683  1.1787  0.1174
 6023TIP3    H139628   1.424   5.085   7.611  0.0998 -0.0388 -0.6251
 6023TIP3    H239629   1.381   5.008   7.734 -0.3627  0.7928 -0.2577
 6024TIP3   OH239630   2.555   5.331   8.351 -0.4425 -0.0280 -0.5877
 6024TIP3    H139631   2.503   5.294   8.280 -0.8793 -1.8811  0.6013
 6024TIP3    H239632   2.494   5.336   8.425  0.6898 -1.0193  0.4709
 6025TIP3   OH239633   1.976   3.423   2.475  0.1686 -1.0688  0.2034
 6025TIP3    H139634   2.041   3.413   2.545  0.3120 -2.2487 -0.0742
 6025TIP3    H239635   1.911   3.483   2.512  0.2882 -1.6023  1.3317
 6026TIP3   OH239636   4.687   5.949   1.222 -0.2446 -0.4683 -0.3396
 6026TIP3    H139637   4.602   5.936   1.264  0.3270  0.1742  1.0861
 6026TIP3    H239638   4.714   5.861   1.195 -0.8128 -0.8530  0.2954
 6027TIP3   OH239639   5.877   4.937   7.404  0.5690  0.2299 -0.1010
 6027TIP3    H139640   5.869   4.881   7.327  0.9348 -0.2435  0.1917
 6027TIP3    H239641   5.954   4.991   7.387  0.7044  0.0605 -0.0312
 6028TIP3   OH239642   3.101   4.335   8.442  0.1302  0.5871  0.2229
 6028TIP3    H139643   3.112   4.311   8.350 -1.6952  0.4323  0.0104
 6028TIP3    H239644   3.123   4.256   8.491 -0.8210  0.0487 -0.2021
 6029TIP3   OH239645   0.699   0.293   8.535 -0.1462 -0.5171  0.0640
 6029TIP3    H139646   0.675   0.332   8.451 -0.2794  1.2753  0.8936
 6029TIP3    H239647   0.624   0.309   8.591  0.2983 -0.9222  0.7931
 6030TIP3   OH239648   2.974   5.273   0.864  0.2793 -0.4166  0.2604
 6030TIP3    H139649   2.924   5.296   0.785  0.4054 -2.0482 -0.3502
 6030TIP3    H239650   2.908   5.237   0.924  0.6328 -2.6421 -0.5746
 6031TIP3   OH239651   1.221   4.809   7.106  0.1086  0.2468  0.0117
 6031TIP3    H139652   1.264   4.894   7.100  1.1624 -0.2756 -0.0560
 6031TIP3    H239653   1.191   4.792   7.016  2.4731 -0.7320 -0.6714
 6032TIP3   OH239654   0.517   5.589   8.208 -1.1266 -0.2924  0.5677
 6032TIP3    H139655   0.479   5.635   8.282 -0.4490  0.9434  0.1706
 6032TIP3    H239656   0.609   5.577   8.232 -1.2687 -1.3779  0.6229
 6033TIP3   OH239657   2.844   1.015   7.683 -0.1053 -0.3180 -0.0697
 6033TIP3    H139658   2.924   0.986   7.641  1.5919  3.0794  0.5016
 6033TIP3    H239659   2.775   0.997   7.619  1.4575 -1.0104 -1.6163
 6034TIP3   OH239660   6.618   0.907   0.842 -0.5340 -0.2537 -0.1551
 6034TIP3    H139661   6.596   0.823   0.884 -3.3108 -0.2205 -1.3313
 6034TIP3    H239662   6.662   0.957   0.911 -0.1495 -2.1177  1.0254
 6035TIP3   OH239663   1.934   4.753   0.123  0.1479  0.5384 -0.1695
 6035TIP3    H139664   1.960   4.782   0.210 -1.5365 -1.1358  0.9776
 6035TIP3    H239665   1.924   4.658   0.132  0.1556  0.3020 -2.2643
 6036TIP3   OH239666   6.746   4.930   8.579 -0.4999  0.0835  0.2443
 6036TIP3    H139667   6.800   4.870   8.630  3.6185  3.3680  0.2698
 6036TIP3    H239668   6.774   4.917   8.489 -2.1295 -0.3282 -0.2463
 6037TIP3   OH239669   6.251   6.009   8.358 -0.0277 -0.1894 -0.2307
 6037TIP3    H139670   6.221   6.100   8.361 -0.6621 -0.2026 -2.9754
 6037TIP3    H239671   6.318   6.009   8.290  0.7205 -1.5978  0.4748
 6038TIP3   OH239672   2.298   2.185   2.366  0.8567  0.5662 -0.6925
 6038TIP3    H139673   2.336   2.127   2.432  1.7393 -0.6121 -2.1585
 6038TIP3    H239674   2.212   2.210   2.402  1.8083  1.0199  1.4377
 6039TIP3   OH239675   5.215   4.128   8.152 -0.6314  0.0118  0.0796
 6039TIP3    H139676   5.131   4.172   8.166 -1.0244  0.0132 -1.9435
 6039TIP3    H239677   5.208   4.048   8.204 -1.9717 -0.0538 -0.1485
 6040TIP3   OH239678   1.460   6.535   0.346 -0.1714  0.6448 -0.1729
 6040TIP3    H139679   1.536   6.551   0.402  0.0512 -0.5712 -0.1038
 6040TIP3    H239680   1.485   6.572   0.261  2.1466 -2.9658 -1.2964
 6041TIP3   OH239681   4.343   4.239   0.221  0.0852  0.1281  0.0987
 6041TIP3    H139682   4.330   4.317   0.275 -0.9136 -0.9729  1.5467
 6041TIP3    H239683   4.399   4.182   0.273  1.0799 -0.0109 -1.0802
 6042TIP3   OH239684   2.655   1.216   8.551 -0.5615  0.3658  1.0138
 6042TIP3    H139685   2.570   1.243   8.518 -0.0826  0.7348  0.0642
 6042TIP3    H239686   2.660   1.256   8.638 -0.9783  1.0886  0.7109
 6043TIP3   OH239687   5.545   0.092   7.700  0.6409  0.3500 -0.2198
 6043TIP3    H139688   5.532  -0.001   7.682  1.7019  0.0758  0.3213
 6043TIP3    H239689   5.457   0.126   7.716  0.3357 -0.8759  0.9483
 6044TIP3   OH239690   1.510   5.650   8.615 -0.0326  0.0279  0.1377
 6044TIP3    H139691   1.574   5.668   8.546  0.3688  0.5401  0.6330
 6044TIP3    H239692   1.449   5.588   8.576  0.8252 -0.5507 -0.3196
 6045TIP3   OH239693   5.553   3.638   7.535 -0.2827 -0.1486 -0.3315
 6045TIP3    H139694   5.609   3.710   7.506  0.5026  0.0170  1.4858
 6045TIP3    H239695   5.502   3.615   7.457 -1.8583  3.5121 -0.5943
 6046TIP3   OH239696   5.802   0.491   8.342  0.4780  0.1791 -0.1747
 6046TIP3    H139697   5.743   0.416   8.345 -0.4263  0.8832  2.0356
 6046TIP3    H239698   5.867   0.469   8.275  0.3997 -2.6853  0.5553
 6047TIP3   OH239699   2.181   0.084   8.275  0.5876  0.1783 -0.3667
 6047TIP3    H139700   2.152   0.146   8.208 -0.8594 -0.3573 -0.2568
 6047TIP3    H239701   2.137   0.113   8.355 -0.0488 -0.9485 -0.3000
 6048TIP3   OH239702   5.723   6.503   0.321  1.3666  0.4147 -0.6209
 6048TIP3    H139703   5.796   6.565   0.334  1.4403  0.8195 -2.6335
 6048TIP3    H239704   5.664   6.520   0.394  1.1962  3.1731 -1.3086
 6049TIP3   OH239705   4.225   5.558   0.570 -0.0767 -0.3496 -0.2956
 6049TIP3    H139706   4.312   5.598   0.564  0.3598 -1.4591 -1.9877
 6049TIP3    H239707   4.237   5.482   0.626 -0.0144 -0.3383 -0.2941
 6050TIP3   OH239708   0.442   4.049   8.207  0.2947  0.2552 -0.1504
 6050TIP3    H139709   0.437   4.079   8.298 -4.5500 -0.3305  0.0113
 6050TIP3    H239710   0.451   3.954   8.214  0.9721  0.2939 -0.3748
 6051TIP3   OH239711   1.113   4.749   0.248 -0.1742  0.0849 -0.0543
 6051TIP3    H139712   1.127   4.843   0.236  0.4321 -0.1236 -1.0057
 6051TIP3    H239713   1.201   4.712   0.260 -0.4542 -0.2781  1.0892
 6052TIP3   OH239714   0.955   2.254   2.634  0.0216  0.1997  0.1981
 6052TIP3    H139715   0.863   2.229   2.638  0.0960 -0.0765  3.8142
 6052TIP3    H239716   0.958   2.340   2.676  1.2320  1.1050 -1.6307
 6053TIP3   OH239717   3.592   1.463   8.057  0.2848  0.3384 -0.0358
 6053TIP3    H139718   3.547   1.382   8.080  0.3192  0.5089  0.6699
 6053TIP3    H239719   3.636   1.444   7.974  2.1266 -1.1047  1.1852
 6054TIP3   OH239720   3.382   0.394   8.517 -0.0767 -0.9071 -0.9555
 6054TIP3    H139721   3.401   0.424   8.428 -0.4956  2.1179 -0.1224
 6054TIP3    H239722   3.292   0.420   8.533  0.2389 -0.6772  0.6197
 6055TIP3   OH239723   5.689   3.888   7.513  0.3016 -0.0054 -0.2397
 6055TIP3    H139724   5.749   3.904   7.586  0.2508  0.6242 -0.3335
 6055TIP3    H239725   5.743   3.902   7.435  0.4113 -0.8852 -0.3283
 6056TIP3   OH239726   2.871   4.094   1.447  0.0582 -0.0832  0.0141
 6056TIP3    H139727   2.868   4.184   1.414  0.0762  0.3377  1.0937
 6056TIP3    H239728   2.940   4.052   1.397 -1.2175 -0.0748 -1.8446
 6057TIP3   OH239729   5.363   1.785   7.874 -0.5741  0.0372 -0.4780
 6057TIP3    H139730   5.310   1.783   7.954  2.5839 -0.2968  1.8087
 6057TIP3    H239731   5.344   1.701   7.831 -0.5601 -0.9167  1.2667
 6058TIP3   OH239732   2.122   5.334   1.222  0.9539 -0.1329  0.2165
 6058TIP3    H139733   2.145   5.341   1.315  0.5725  0.5471  0.2737
 6058TIP3    H239734   2.200   5.363   1.175  0.8721  0.3262  0.3556
 6059TIP3   OH239735   3.122   0.914   7.859  0.8175  0.1429  0.1696
 6059TIP3    H139736   3.074   0.891   7.779  2.7037  0.3682 -1.0908
 6059TIP3    H239737   3.186   0.844   7.870  2.4846  1.5486 -0.1906
 6060TIP3   OH239738   3.317   3.175   2.228 -0.1441 -0.3503  0.1522
 6060TIP3    H139739   3.262   3.211   2.298 -0.6477 -0.5849 -0.1177
 6060TIP3    H239740   3.304   3.235   2.155  2.1329  1.1992  0.9297
 6061TIP3   OH239741   2.059   1.894   7.091 -0.0470  0.4042  0.6074
 6061TIP3    H139742   1.985   1.955   7.084  0.3855  0.8526 -0.1394
 6061TIP3    H239743   2.028   1.827   7.153 -2.1380 -0.9228 -1.6904
 6062TIP3   OH239744   0.163   4.690   7.860  0.2074 -0.4863 -0.3839
 6062TIP3    H139745   0.251   4.663   7.835 -0.1688 -1.0934 -1.1117
 6062TIP3    H239746   0.132   4.743   7.786  0.2734  0.4469  0.2441
 6063TIP3   OH239747   3.627   1.618   6.989 -0.3485 -0.1935 -0.7082
 6063TIP3    H139748   3.581   1.637   7.071 -1.2448  0.2641 -1.3042
 6063TIP3    H239749   3.713   1.587   7.017 -0.5032  0.3174  0.4020
 6064TIP3   OH239750   0.248   1.972   0.292  0.1164 -0.0197 -0.1536
 6064TIP3    H139751   0.237   2.038   0.360  2.3205  0.0738  0.2063
 6064TIP3    H239752   0.328   1.999   0.246 -0.8424 -0.5581 -2.2434
 6065TIP3   OH239753   3.536   5.750   2.466  0.7211 -0.1865 -0.1996
 6065TIP3    H139754   3.472   5.736   2.535  0.7270  0.8742  0.0348
 6065TIP3    H239755   3.484   5.757   2.386  0.5605  0.4026 -0.0465
 6066TIP3   OH239756   3.670   6.319   0.317 -0.2233 -0.0727 -0.6833
 6066TIP3    H139757   3.670   6.415   0.326  1.0327 -0.1030 -0.1638
 6066TIP3    H239758   3.729   6.289   0.386  0.2431 -1.1503 -1.5336
 6067TIP3   OH239759   0.542   1.736   7.437 -0.1961 -0.0194 -0.4349
 6067TIP3    H139760   0.632   1.740   7.406 -0.4910  2.9374 -1.1978
 6067TIP3    H239761   0.516   1.828   7.447 -3.1130 -0.7788 -0.2125
 6068TIP3   OH239762   3.996   1.077   7.840 -0.3109 -0.2396 -0.2229
 6068TIP3    H139763   4.090   1.063   7.848 -0.1282  0.7602 -0.4953
 6068TIP3    H239764   3.986   1.141   7.769 -1.0695  0.9345  0.8716
 6069TIP3   OH239765   0.373   5.608   8.494  0.2358 -0.1291 -0.1564
 6069TIP3    H139766   0.286   5.634   8.524  0.6067  0.5722  0.3345
 6069TIP3    H239767   0.369   5.512   8.490 -1.3238 -0.0360 -2.5379
 6070TIP3   OH239768   5.211   3.261   0.277 -0.2119 -0.1217 -0.5873
 6070TIP3    H139769   5.187   3.341   0.230 -1.8005 -0.1880  0.0435
 6070TIP3    H239770   5.218   3.194   0.209  1.9268  0.6592 -1.2265
 6071TIP3   OH239771   0.483   3.007   2.194 -0.2025 -0.4158  0.0489
 6071TIP3    H139772   0.486   2.951   2.116  1.9209 -1.1137  0.5660
 6071TIP3    H239773   0.399   2.986   2.235 -0.7621 -1.0203 -1.3319
 6072TIP3   OH239774   5.416   0.043   0.657 -0.3350  0.0392  0.1085
 6072TIP3    H139775   5.491  -0.013   0.635  0.4450  0.5161  1.4813
 6072TIP3    H239776   5.446   0.097   0.730 -1.9853  0.3173  0.6244
 6073TIP3   OH239777   5.553   0.883   6.962  0.5173 -0.1855  0.1551
 6073TIP3    H139778   5.484   0.840   7.012  0.1311 -0.0314 -0.2378
 6073TIP3    H239779   5.512   0.962   6.928  0.4759 -0.7743 -1.2215
 6074TIP3   OH239780   4.528   2.724   1.823 -0.4713 -0.0384 -0.0661
 6074TIP3    H139781   4.487   2.759   1.744  0.2277 -1.8486 -1.2906
 6074TIP3    H239782   4.475   2.760   1.895 -1.3158  1.4063 -1.3424
 6075TIP3   OH239783   6.039   1.596   0.706  0.3268 -0.0638  0.2196
 6075TIP3    H139784   6.006   1.550   0.783 -0.0875  1.1207  0.7665
 6075TIP3    H239785   6.125   1.556   0.690  1.0309  0.5563  2.1264
 6076TIP3   OH239786   0.424   3.869   1.190 -0.4630  0.2337 -0.8150
 6076TIP3    H139787   0.491   3.916   1.240  1.1575 -2.3416 -0.3520
 6076TIP3    H239788   0.410   3.923   1.112  0.2648  2.1001  0.2726
 6077TIP3   OH239789   3.776   3.374   8.106  0.1726 -0.5820 -0.0155
 6077TIP3    H139790   3.695   3.330   8.131  0.0225  0.0520  0.6482
 6077TIP3    H239791   3.834   3.363   8.182  0.6566 -0.8875 -0.4178
 6078TIP3   OH239792   1.389   1.839   1.195 -0.3160 -0.4282  0.1559
 6078TIP3    H139793   1.297   1.833   1.169  0.1980  1.0439 -2.3089
 6078TIP3    H239794   1.402   1.931   1.218  1.3433  0.3816 -3.3804
 6079TIP3   OH239795   4.678   2.895   1.077 -0.6549  0.1001 -0.6176
 6079TIP3    H139796   4.614   2.925   1.012 -0.0085  0.8468 -0.9295
 6079TIP3    H239797   4.750   2.859   1.025  0.1969  1.3645 -0.3648
 6080TIP3   OH239798   2.834   6.083   0.861 -0.1155  0.4333  0.2071
 6080TIP3    H139799   2.839   6.137   0.782  0.1468  0.5942  0.3348
 6080TIP3    H239800   2.769   6.016   0.839  0.3841  0.1272 -0.3633
 6081TIP3   OH239801   2.037   1.200   0.999 -0.2214 -0.0522 -0.3287
 6081TIP3    H139802   2.034   1.270   0.933  0.4580  0.4171  0.1165
 6081TIP3    H239803   1.953   1.157   0.992 -0.6148  0.7489 -0.6987
 6082TIP3   OH239804   6.643   3.345   2.143  0.4751 -0.4050 -0.1027
 6082TIP3    H139805   6.607   3.420   2.096 -0.4449 -0.8703 -0.1568
 6082TIP3    H239806   6.584   3.334   2.218  0.2081 -1.4875 -0.4627
 6083TIP3   OH239807   3.792   1.000   1.074 -0.3289  0.3904  0.2907
 6083TIP3    H139808   3.859   1.011   1.141  1.5109 -2.1482 -0.9453
 6083TIP3    H239809   3.822   1.053   1.000 -0.3816  0.2681  0.1811
 6084TIP3   OH239810   1.204   1.636   0.913 -0.0541  0.0378 -0.4566
 6084TIP3    H139811   1.164   1.720   0.935 -1.2751 -0.5045 -0.5189
 6084TIP3    H239812   1.287   1.635   0.961  0.9377  2.0946 -1.9604
 6085TIP3   OH239813   3.846   3.569   2.532  0.0095 -0.2645 -0.3200
 6085TIP3    H139814   3.900   3.544   2.608  0.7633 -0.7766 -1.0011
 6085TIP3    H239815   3.816   3.657   2.552 -0.2537 -0.5839  0.8172
 6086TIP3   OH239816   2.103   6.554   1.363  0.3653  0.1389  0.5997
 6086TIP3    H139817   2.045   6.496   1.412  2.1042 -0.0785  2.5469
 6086TIP3    H239818   2.099   6.638   1.410  2.0293 -0.0572  1.1639
 6087TIP3   OH239819   5.931   4.730   1.398 -0.0729 -0.2971  0.0336
 6087TIP3    H139820   5.992   4.718   1.472  0.6852 -1.3526 -0.7253
 6087TIP3    H239821   5.918   4.641   1.364 -2.4394 -0.1794  0.4534
 6088TIP3   OH239822   0.783   3.124   1.889  0.2260  0.1871 -0.3233
 6088TIP3    H139823   0.719   3.169   1.834 -1.0441 -0.7576  0.3493
 6088TIP3    H239824   0.779   3.169   1.973 -0.2842 -0.4978  0.0259
 6089TIP3   OH239825   6.651   0.423   8.581 -0.4368  0.3851 -0.4136
 6089TIP3    H139826   6.627   0.334   8.607  0.4332  0.5303  0.9739
 6089TIP3    H239827   6.699   0.412   8.499 -3.2188 -0.0907 -2.1417
 6090TIP3   OH239828   1.909   2.151   2.184 -0.0802  0.4416 -0.0072
 6090TIP3    H139829   1.919   2.066   2.227 -1.4374  0.4009  0.2622
 6090TIP3    H239830   1.818   2.153   2.156 -0.4086  2.3034  1.0525
 6091TIP3   OH239831   3.063   4.671   7.796  0.0231 -0.9036 -0.0893
 6091TIP3    H139832   3.041   4.620   7.718 -1.6931 -0.1852 -0.1150
 6091TIP3    H239833   2.981   4.713   7.821  1.1483  1.0762  0.4919
 6092TIP3   OH239834   4.315   4.821   0.988  0.3691  0.0590  0.1045
 6092TIP3    H139835   4.245   4.870   1.031  0.4864 -0.9191  1.4819
 6092TIP3    H239836   4.279   4.798   0.902 -0.0005  1.7647 -0.2335
 6093TIP3   OH239837   6.051   3.472   2.700 -0.3797 -0.0755 -0.1767
 6093TIP3    H139838   6.144   3.468   2.677 -0.8917  0.0952 -2.6032
 6093TIP3    H239839   6.031   3.386   2.735  0.4704 -0.4907 -0.6746
 6094TIP3   OH239840   6.094   3.675   7.372 -0.2057  0.3570  0.4522
 6094TIP3    H139841   6.103   3.606   7.307  1.5568  0.2572  0.7526
 6094TIP3    H239842   6.051   3.747   7.325  0.1262 -0.0731 -0.5402
 6095TIP3   OH239843   4.357   4.020   1.564  0.0258 -0.3466  0.2900
 6095TIP3    H139844   4.344   4.077   1.489 -0.6694  0.0083  0.6660
 6095TIP3    H239845   4.414   3.950   1.532  0.9850  0.6084 -0.1506
 6096TIP3   OH239846   0.255   4.434   0.400  0.1877 -0.1270  0.3500
 6096TIP3    H139847   0.345   4.402   0.391  0.1358 -0.2498  0.2621
 6096TIP3    H239848   0.259   4.499   0.470  0.1062 -1.0015  1.1674
 6097TIP3   OH239849   1.977   1.542   1.776  0.4725 -0.2773  0.0987
 6097TIP3    H139850   1.912   1.570   1.841  1.3101  0.9733  0.4329
 6097TIP3    H239851   2.054   1.519   1.828  0.5106 -1.2160 -0.3363
 6098TIP3   OH239852   1.301   2.822   2.669 -0.3485 -0.2185 -0.1211
 6098TIP3    H139853   1.273   2.758   2.735  1.8743 -0.2458  0.8599
 6098TIP3    H239854   1.379   2.862   2.705  0.4115  0.4563 -2.3445
 6099TIP3   OH239855   3.097   0.845   1.403 -0.4490  0.6297  0.5402
 6099TIP3    H139856   3.185   0.881   1.388  0.4079 -2.1791 -2.4813
 6099TIP3    H239857   3.039   0.904   1.356  0.3565  0.4998 -0.6795
 6100TIP3   OH239858   3.298   1.929   0.508 -0.1544  0.3852 -0.2483
 6100TIP3    H139859   3.232   1.953   0.573  0.3111  2.3146 -0.4426
 6100TIP3    H239860   3.249   1.883   0.440 -0.9415 -0.0169  0.5598
 6101TIP3   OH239861   6.395   3.845   1.705  0.5903  0.2022  0.0706
 6101TIP3    H139862   6.455   3.918   1.718 -0.3867  0.9864  0.2738
 6101TIP3    H239863   6.359   3.827   1.792 -0.6039  0.7552 -0.2886
 6102TIP3   OH239864   5.811   0.212   2.447  0.1517  0.3393  0.0742
 6102TIP3    H139865   5.807   0.299   2.487 -0.5943  1.0024 -1.3679
 6102TIP3    H239866   5.733   0.167   2.480 -1.4986  1.5349 -1.9669
 6103TIP3   OH239867   0.640   0.097   0.178  0.3606  0.6278  0.0645
 6103TIP3    H139868   0.722   0.059   0.148 -0.2783 -0.5497 -0.2476
 6103TIP3    H239869   0.647   0.190   0.156  1.8868  0.6831  0.6890
 6104TIP3   OH239870   3.231   6.491   0.273 -0.0902 -0.2424  0.4986
 6104TIP3    H139871   3.300   6.489   0.207  0.2381 -0.4416  0.8440
 6104TIP3    H239872   3.274   6.524   0.352 -0.1292 -1.3465  1.0009
 6105TIP3   OH239873   5.651   1.002   1.343  0.4629  0.1383  0.0045
 6105TIP3    H139874   5.611   0.974   1.425  0.6581 -0.6135 -0.1486
 6105TIP3    H239875   5.668   0.921   1.295  0.7720  0.5387 -0.5831
 6106TIP3   OH239876   1.612   5.670   0.923 -0.1749  0.5476  0.3875
 6106TIP3    H139877   1.606   5.692   1.016 -0.9707  0.1844  0.4293
 6106TIP3    H239878   1.674   5.597   0.920  0.0610  0.7337  0.5915
 6107TIP3   OH239879   0.850   5.659   1.276 -0.1399  0.2315  0.0174
 6107TIP3    H139880   0.914   5.594   1.248  0.7100  0.8954  0.3625
 6107TIP3    H239881   0.894   5.743   1.263 -0.9477  0.7059  0.2547
 6108TIP3   OH239882   2.303   6.765   2.832  0.0050  0.2040 -0.0567
 6108TIP3    H139883   2.253   6.834   2.875 -1.0721 -2.0578  2.7225
 6108TIP3    H239884   2.262   6.755   2.746 -0.2125  2.5147 -0.2762
 6109TIP3   OH239885   1.212   2.076   1.840  0.3018  0.2056  0.1682
 6109TIP3    H139886   1.128   2.029   1.839  0.7388 -0.6160  0.7333
 6109TIP3    H239887   1.224   2.103   1.931 -0.5505  2.6078 -0.3576
 6110TIP3   OH239888   3.774   5.125   0.942 -0.4511  0.0038  0.2798
 6110TIP3    H139889   3.737   5.207   0.974  0.5528  1.1948 -1.4270
 6110TIP3    H239890   3.706   5.059   0.959 -1.1372  1.0888  2.0063
 6111TIP3   OH239891   4.311   0.787   0.765 -0.8860  0.3554  0.0879
 6111TIP3    H139892   4.391   0.741   0.739 -1.6437  0.8555 -3.6653
 6111TIP3    H239893   4.242   0.723   0.753 -1.4086  0.9804 -0.3046
 6112TIP3   OH239894   2.601   0.780   1.048 -0.6955  0.0549  0.2361
 6112TIP3    H139895   2.542   0.705   1.039 -0.3099 -0.3331  0.8883
 6112TIP3    H239896   2.557   0.839   1.108 -0.9362  0.2949 -0.1701
 6113TIP3   OH239897   6.803   0.013   7.701  0.1541 -0.1693  0.5185
 6113TIP3    H139898   6.809  -0.072   7.746  1.0443 -0.3747  0.0416
 6113TIP3    H239899   6.711   0.037   7.706 -0.2153 -1.4414  0.1911
 6114TIP3   OH239900   3.373   1.537   6.805 -0.2940  0.1534  0.3221
 6114TIP3    H139901   3.290   1.580   6.822 -0.2310 -0.3811  2.2818
 6114TIP3    H239902   3.439   1.602   6.828 -0.2040 -0.6462  2.5430
 6115TIP3   OH239903   0.461   5.354   1.537  0.2471 -0.1784 -0.0369
 6115TIP3    H139904   0.552   5.371   1.564  0.1171 -0.8435  0.9067
 6115TIP3    H239905   0.440   5.270   1.579  0.1723 -1.5738 -2.6509
 6116TIP3   OH239906   1.800   0.266   8.404  0.4900  0.5931 -0.3171
 6116TIP3    H139907   1.858   0.263   8.480  0.3037 -0.3840 -0.2104
 6116TIP3    H239908   1.790   0.360   8.386  1.4424  0.8001  0.1594
 6117TIP3   OH239909   1.860   5.840   2.477 -0.1742  0.3379 -0.1301
 6117TIP3    H139910   1.955   5.840   2.464 -0.0689  1.4381  0.4659
 6117TIP3    H239911   1.841   5.757   2.519  0.4467 -0.1221 -0.7301
 6118TIP3   OH239912   4.778   3.984   1.110 -0.0565  0.1121  0.2139
 6118TIP3    H139913   4.759   3.895   1.082  0.8908 -0.0549  0.0638
 6118TIP3    H239914   4.761   4.038   1.033 -0.0325 -0.0136  0.1203
 6119TIP3   OH239915   2.530   0.576   7.427 -0.1422 -0.2099 -0.7719
 6119TIP3    H139916   2.511   0.630   7.351 -0.2111 -0.1243 -0.6934
 6119TIP3    H239917   2.538   0.487   7.391 -0.0889 -0.1570 -0.8906
 6120TIP3   OH239918   5.084   4.512   0.520 -0.4769 -0.2922  0.4713
 6120TIP3    H139919   5.071   4.483   0.430  0.8624 -1.7020  0.6891
 6120TIP3    H239920   5.152   4.454   0.554 -0.1927  0.9110  2.0633
 6121TIP3   OH239921   4.322   6.342   7.617 -0.4948  0.0452 -0.0185
 6121TIP3    H139922   4.392   6.344   7.552 -0.1791 -0.3219  0.2998
 6121TIP3    H239923   4.364   6.308   7.696 -1.0374 -0.1905  0.1741
 6122TIP3   OH239924   2.792   3.840   7.050  0.3528  0.1214 -0.1263
 6122TIP3    H139925   2.743   3.848   7.132  0.4569  2.1601 -0.2079
 6122TIP3    H239926   2.881   3.817   7.077  0.2540  0.2423  0.3113
 6123TIP3   OH239927   4.547   4.644   1.866 -0.0490  0.5736  0.2018
 6123TIP3    H139928   4.632   4.652   1.824 -0.9995  1.6520 -1.6202
 6123TIP3    H239929   4.551   4.704   1.940  1.1444 -0.2367  0.8285
 6124TIP3   OH239930   1.946   4.328   7.135 -0.8745  0.2457  0.5310
 6124TIP3    H139931   1.881   4.288   7.192  1.1441 -0.1349  2.6902
 6124TIP3    H239932   1.934   4.422   7.146  0.2288  0.1931  2.5792
 6125TIP3   OH239933   6.215   5.232   6.527 -0.5711 -0.0671  0.2682
 6125TIP3    H139934   6.163   5.293   6.579 -1.2126  0.1184 -0.5681
 6125TIP3    H239935   6.202   5.147   6.569 -2.2830 -0.1861 -0.4187
 6126TIP3   OH239936   6.078   5.119   7.340  0.4737  0.1159  0.0824
 6126TIP3    H139937   6.169   5.148   7.334  0.4013  0.2213 -0.5828
 6126TIP3    H239938   6.034   5.160   7.265  0.2954 -1.4107 -0.7081
 6127TIP3   OH239939   2.007   5.500   7.773  0.0073  0.1600  0.3932
 6127TIP3    H139940   2.039   5.513   7.862  2.5870  0.1292 -0.4701
 6127TIP3    H239941   1.985   5.589   7.743  1.5516  0.5142  0.2343
 6128TIP3   OH239942   3.353   2.316   0.873 -0.5995 -0.4533 -0.1011
 6128TIP3    H139943   3.331   2.223   0.887 -3.2134  0.1947  0.7344
 6128TIP3    H239944   3.275   2.363   0.903  1.2142  2.1275  0.8474
 6129TIP3   OH239945   5.961   2.165   0.524 -0.2088 -0.1300 -0.4190
 6129TIP3    H139946   5.980   2.201   0.438  1.1829 -0.7377 -0.3957
 6129TIP3    H239947   5.964   2.070   0.512  0.1701 -0.2237  0.3214
 6130TIP3   OH239948   5.985   3.636   8.698 -0.3785  0.1708 -0.3422
 6130TIP3    H139949   6.000   3.715   8.751  0.2577  0.4108 -0.8588
 6130TIP3    H239950   5.892   3.638   8.679 -0.8536 -0.4949  1.6446
 6131TIP3   OH239951   5.919   5.306   1.824 -0.8595 -0.3113  0.3248
 6131TIP3    H139952   5.932   5.222   1.867  1.1381 -0.6712 -0.8398
 6131TIP3    H239953   5.846   5.290   1.763 -0.2286 -1.3544 -0.1934
 6132TIP3   OH239954   3.247   6.057   1.623 -0.5707 -0.3092 -0.1441
 6132TIP3    H139955   3.310   6.042   1.694  0.4751 -1.3275 -1.2322
 6132TIP3    H239956   3.180   5.991   1.636 -0.8193  0.0391  0.3628
 6133TIP3   OH239957   4.948   6.575   7.491 -0.0775  0.0995 -0.2819
 6133TIP3    H139958   4.890   6.513   7.536 -0.1971  0.3399 -0.1037
 6133TIP3    H239959   5.034   6.558   7.528 -0.3777  1.1481  0.9660
 6134TIP3   OH239960   5.627   4.177   1.097  0.2276 -0.4361  0.2743
 6134TIP3    H139961   5.594   4.218   1.177  0.2002  1.1925 -0.5184
 6134TIP3    H239962   5.695   4.117   1.126  0.5078  0.4449  1.4985
 6135TIP3   OH239963   1.466   6.434   8.201 -0.2345  0.8289  0.2857
 6135TIP3    H139964   1.544   6.459   8.250  0.6900 -0.8448 -0.2435
 6135TIP3    H239965   1.500   6.379   8.130 -1.7663  1.2532 -0.8251
 6136TIP3   OH239966   4.457   6.599   7.027  0.0940  0.0695  0.2066
 6136TIP3    H139967   4.410   6.572   6.948 -0.0986  1.9845 -0.3857
 6136TIP3    H239968   4.462   6.520   7.080  0.1999 -1.2606 -1.6993
 6137TIP3   OH239969   5.485   0.298   0.339  0.2723  0.2816  0.1222
 6137TIP3    H139970   5.470   0.385   0.300  1.0684  0.4656  0.2189
 6137TIP3    H239971   5.579   0.295   0.355  0.4393 -1.0572 -0.9686
 6138TIP3   OH239972   0.821   2.106   2.389  0.0541  0.3133  0.2515
 6138TIP3    H139973   0.862   2.075   2.470  0.9424  0.0386 -0.2898
 6138TIP3    H239974   0.870   2.063   2.319 -1.1909 -0.0580 -0.4342
 6139TIP3   OH239975   6.344   0.046   2.476  0.2017  0.5171  0.1826
 6139TIP3    H139976   6.362  -0.030   2.530 -0.2997  0.9189  0.9278
 6139TIP3    H239977   6.429   0.090   2.467  0.9165 -1.0977 -1.8376
 6140TIP3   OH239978   1.625   0.681   2.499  0.0131 -0.0434 -0.4190
 6140TIP3    H139979   1.646   0.612   2.561 -0.7669 -0.7501 -0.9092
 6140TIP3    H239980   1.576   0.745   2.550  1.9640  0.8964  0.3757
 6141TIP3   OH239981   5.945   6.488   8.226  0.3768  0.4889  0.5906
 6141TIP3    H139982   5.995   6.519   8.302 -0.0256  1.9835  0.2707
 6141TIP3    H239983   5.953   6.558   8.161 -1.5284  0.4585  0.2686
 6142TIP3   OH239984   5.655   6.388   1.505 -0.0726  0.1964  0.3481
 6142TIP3    H139985   5.702   6.454   1.555  1.3714 -0.9445  0.5718
 6142TIP3    H239986   5.723   6.346   1.451 -0.9592 -1.0261  0.1449
 6143TIP3   OH239987   5.175   2.191   8.257  0.3452  0.2861  0.0220
 6143TIP3    H139988   5.122   2.269   8.237  0.5923  0.0859 -1.5689
 6143TIP3    H239989   5.111   2.122   8.272  0.1417  0.4530 -0.0736
 6144TIP3   OH239990   2.109   4.484   7.846 -0.3221 -0.0680 -0.4379
 6144TIP3    H139991   2.129   4.396   7.814  1.6730 -0.6932  2.1907
 6144TIP3    H239992   2.079   4.471   7.936 -2.3281  1.8134 -0.7604
 6145TIP3   OH239993   3.079   4.534   7.300  0.9119  0.1185 -0.4661
 6145TIP3    H139994   3.119   4.455   7.264 -0.4955  0.1780 -2.3311
 6145TIP3    H239995   2.988   4.531   7.270  0.4371  1.7355  0.6456
 6146TIP3   OH239996   2.649   4.617   8.317  0.2426  0.1553 -0.1511
 6146TIP3    H139997   2.734   4.577   8.335  1.2655  2.2471 -0.0916
 6146TIP3    H239998   2.589   4.575   8.379  1.4337 -0.6573  0.4895
 6147TIP3   OH239999   4.921   2.204   0.337 -0.0074 -0.2018 -0.5006
 6147TIP3    H140000   4.967   2.134   0.290  1.2816 -0.2349  0.7401
 6147TIP3    H240001   4.985   2.237   0.400 -0.6541  1.9642 -0.8975
 6148TIP3   OH240002   2.375   6.315   7.349 -0.2308  0.5174 -0.1381
 6148TIP3    H140003   2.467   6.344   7.354  0.0504 -0.0964 -1.3645
 6148TIP3    H240004   2.381   6.220   7.343 -0.9544  0.4791 -0.2310
 6149TIP3   OH240005   5.451   2.360   7.306 -0.2129  0.3530  0.2785
 6149TIP3    H140006   5.459   2.428   7.373  0.0519  0.5140  0.0846
 6149TIP3    H240007   5.541   2.330   7.292 -0.2836  0.2293  0.0862
 6150TIP3   OH240008   6.578   3.550   7.876  0.4774  0.2632 -0.4691
 6150TIP3    H140009   6.656   3.553   7.821 -0.2627  1.7882 -1.5028
 6150TIP3    H240010   6.527   3.477   7.841  0.1641  1.0143 -1.6356
 6151TIP3   OH240011   4.629   0.784   7.131 -0.2749  0.2626 -0.5759
 6151TIP3    H140012   4.654   0.796   7.040 -1.2392 -0.0969 -0.9053
 6151TIP3    H240013   4.561   0.849   7.147 -0.8132 -0.3234 -0.4137
 6152TIP3   OH240014   4.229   1.634   2.883  0.1351 -0.0792  0.8770
 6152TIP3    H140015   4.200   1.570   2.818  0.3040 -2.5117  3.0480
 6152TIP3    H240016   4.323   1.643   2.868  0.0795 -0.1676  0.4563
 6153TIP3   OH240017   1.788   4.509   1.845  0.3979  0.1505  0.6212
 6153TIP3    H140018   1.796   4.414   1.847 -0.3045  0.0728  0.0590
 6153TIP3    H240019   1.701   4.527   1.880  0.2349  0.5330  0.0356
 6154TIP3   OH240020   5.211   1.253   1.224  0.9855  0.4828  0.9314
 6154TIP3    H140021   5.202   1.271   1.130  2.2138  1.6371  0.9909
 6154TIP3    H240022   5.297   1.211   1.231  1.2531  1.1282  1.6102
 6155TIP3   OH240023   1.567   3.313   7.345  0.2075  0.2357 -0.7021
 6155TIP3    H140024   1.514   3.355   7.278 -0.0642  0.7558 -0.1687
 6155TIP3    H240025   1.596   3.385   7.401  0.8565 -0.1303 -0.5537
 6156TIP3   OH240026   3.377   6.101   0.546 -0.0113  0.4900 -0.3321
 6156TIP3    H140027   3.429   6.089   0.467 -1.0321  0.0053 -0.9533
 6156TIP3    H240028   3.289   6.074   0.521 -0.8208  2.3056  0.3671
 6157TIP3   OH240029   5.847   0.838   1.191 -0.0015 -0.2886 -0.1979
 6157TIP3    H140030   5.828   0.910   1.130 -1.5665  0.3761  1.0124
 6157TIP3    H240031   5.827   0.759   1.140 -0.6446  0.2261 -0.7756
 6158TIP3   OH240032   4.823   2.617   8.448  0.4190 -0.4864 -0.2285
 6158TIP3    H140033   4.872   2.667   8.383  0.1290 -0.1337 -0.1801
 6158TIP3    H240034   4.851   2.652   8.532 -1.9365  1.6899 -0.2535
 6159TIP3   OH240035   3.019   0.828   8.119 -0.3742 -0.0738 -0.4736
 6159TIP3    H140036   3.065   0.846   8.037  0.5879 -0.4715 -0.0507
 6159TIP3    H240037   2.932   0.866   8.108 -0.0907  0.3075 -1.4834
 6160TIP3   OH240038   3.730   4.266   0.549  0.0574  0.7385  0.4538
 6160TIP3    H140039   3.685   4.280   0.466  0.2930  0.9228  0.3575
 6160TIP3    H240040   3.807   4.323   0.545  1.6979 -1.4005 -0.4386
 6161TIP3   OH240041   5.193   1.628   7.209 -0.5985  0.4297 -0.1209
 6161TIP3    H140042   5.176   1.538   7.183 -0.1893  0.1111  0.6911
 6161TIP3    H240043   5.157   1.635   7.298 -0.5149  1.0281 -0.1253
 6162TIP3   OH240044   0.169   0.650   6.943  0.2400  0.0179 -0.5167
 6162TIP3    H140045   0.082   0.632   6.980  1.7083 -3.8224  1.6752
 6162TIP3    H240046   0.173   0.596   6.864  0.6984  0.0311 -0.5031
 6163TIP3   OH240047   4.781   6.385   8.374 -0.3818 -0.3144 -0.3496
 6163TIP3    H140048   4.802   6.384   8.467 -2.8184  1.9623  0.3317
 6163TIP3    H240049   4.867   6.385   8.330  0.8208 -1.5480  1.8286
 6164TIP3   OH240050   4.888   0.593   2.242  0.2711 -0.6892  0.3073
 6164TIP3    H140051   4.797   0.570   2.224  0.6540 -1.9507 -0.1263
 6164TIP3    H240052   4.918   0.524   2.302  1.2556 -0.9338 -0.4504
 6165TIP3   OH240053   0.497   5.726   0.952  0.4613 -0.0241  0.4225
 6165TIP3    H140054   0.484   5.786   0.878 -1.5182 -1.2715 -0.3148
 6165TIP3    H240055   0.460   5.773   1.027  0.5963  0.3975  0.2327
 6166TIP3   OH240056   1.816   2.414   8.520 -0.1875 -0.3525 -0.5297
 6166TIP3    H140057   1.783   2.504   8.517  0.9499  0.2717  2.3740
 6166TIP3    H240058   1.771   2.375   8.595 -0.7885 -2.3058 -1.8614
 6167TIP3   OH240059   5.786   2.714   0.221 -0.0679  0.7790 -0.3391
 6167TIP3    H140060   5.864   2.768   0.233  0.5101  1.3098 -4.7433
 6167TIP3    H240061   5.723   2.773   0.179 -2.6141  0.0872  2.1769
 6168TIP3   OH240062   0.853   0.413   8.183 -0.0300  0.2919  0.2408
 6168TIP3    H140063   0.759   0.407   8.200  0.0928 -1.1562  0.4940
 6168TIP3    H240064   0.891   0.443   8.265 -0.1827  0.0277  0.4091
 6169TIP3   OH240065   3.278   4.526   7.051 -0.5631  0.1369  0.0073
 6169TIP3    H140066   3.352   4.508   6.993  0.0918 -0.6973  1.0678
 6169TIP3    H240067   3.202   4.490   7.004  0.1257 -1.6249  0.1652
 6170TIP3   OH240068   5.972   1.148   7.316  0.4476 -0.0993 -0.2883
 6170TIP3    H140069   5.916   1.140   7.239  3.4690  1.9316 -2.9471
 6170TIP3    H240070   5.975   1.242   7.334 -0.6690 -0.5418  2.8679
 6171TIP3   OH240071   6.718   5.469   1.738  0.3134  0.2063  0.4743
 6171TIP3    H140072   6.711   5.563   1.725 -1.0259  0.0710  0.0195
 6171TIP3    H240073   6.810   5.449   1.721  0.4089  1.2876 -0.4031
 6172TIP3   OH240074   0.622   0.648   8.636  0.2072 -0.7221  0.5602
 6172TIP3    H140075   0.649   0.636   8.545 -0.0219  2.5955 -0.0554
 6172TIP3    H240076   0.678   0.718   8.669 -1.1833 -0.3513  2.2994
 6173TIP3   OH240077   3.088   1.783   2.865  0.3813 -0.2736  0.0832
 6173TIP3    H140078   3.059   1.866   2.902 -0.5562 -0.4363 -0.2644
 6173TIP3    H240079   3.112   1.730   2.942  0.5479  0.1566  0.3308
 6174TIP3   OH240080   0.994   0.504   2.443  0.1752  0.8680  0.9872
 6174TIP3    H140081   0.966   0.468   2.359  0.3166 -0.2643  1.4171
 6174TIP3    H240082   0.994   0.430   2.503 -2.0612  2.0102  2.5623
 6175TIP3   OH240083   2.975   4.302   0.297  0.1242  0.5068 -0.5753
 6175TIP3    H140084   2.977   4.384   0.347 -0.6322 -0.1116  0.5139
 6175TIP3    H240085   2.950   4.328   0.209 -1.8157  1.2898  0.1475
 6176TIP3   OH240086   3.240   4.490   1.013  0.1070  0.6820 -0.2338
 6176TIP3    H140087   3.263   4.402   0.982  0.5710  0.8822 -0.4742
 6176TIP3    H240088   3.172   4.519   0.953 -2.0931 -0.5759  1.4821
 6177TIP3   OH240089   5.763   1.417   2.993  0.5857 -0.1620 -0.3482
 6177TIP3    H140090   5.801   1.408   3.080 -1.5142 -1.2373  0.5347
 6177TIP3    H240091   5.839   1.419   2.934  2.0948  1.1933  1.4928
 6178TIP3   OH240092   1.146   2.873   7.269 -0.1269 -0.0961  0.6063
 6178TIP3    H140093   1.123   2.956   7.310  0.0222 -0.3088  1.1210
 6178TIP3    H240094   1.063   2.826   7.261 -0.1423 -0.0912  0.7419
 6179TIP3   OH240095   6.794   1.063   7.918  0.0723 -0.1297  0.1818
 6179TIP3    H140096   6.744   1.000   7.970 -1.4823  1.0083  0.1361
 6179TIP3    H240097   6.885   1.044   7.939 -0.2768 -2.7942 -0.3149
 6180TIP3   OH240098   2.798   0.803   2.123 -0.3246  0.1424  0.6298
 6180TIP3    H140099   2.883   0.846   2.138 -0.5544  0.8800 -0.1618
 6180TIP3    H240100   2.781   0.757   2.206 -0.7080  2.6610  2.0583
 6181TIP3   OH240101   2.751   4.572   2.285  0.2346  0.1892 -0.0743
 6181TIP3    H140102   2.706   4.573   2.369  1.0540  3.8895  0.4768
 6181TIP3    H240103   2.836   4.533   2.303  0.4530  1.0708  0.8786
 6182TIP3   OH240104   6.035   3.092   0.747 -0.0919 -0.4477  0.6674
 6182TIP3    H140105   6.053   2.999   0.761  1.2026 -0.5937 -1.5665
 6182TIP3    H240106   6.087   3.136   0.814  1.4953 -1.2593  0.0266
 6183TIP3   OH240107   3.113   3.794   0.339 -0.0187  0.0158  0.8588
 6183TIP3    H140108   3.179   3.770   0.404  1.0083 -1.4856 -0.6558
 6183TIP3    H240109   3.118   3.890   0.334  2.1209 -0.0478  0.7537
 6184TIP3   OH240110   5.387   2.692   0.754  0.1199 -0.4275 -0.2863
 6184TIP3    H140111   5.431   2.747   0.819  0.5434 -0.1435 -0.8057
 6184TIP3    H240112   5.450   2.622   0.736 -0.4109 -1.0849  0.3625
 6185TIP3   OH240113   3.995   4.121   2.195 -0.4312  0.0330  0.5413
 6185TIP3    H140114   4.080   4.104   2.235  0.4391 -0.6828 -1.4773
 6185TIP3    H240115   3.957   4.192   2.247  1.4012  0.3697  1.4678
 6186TIP3   OH240116   2.037   4.602   7.608  0.3339 -0.2785  0.2177
 6186TIP3    H140117   1.941   4.608   7.610  0.3452  0.1588 -0.3750
 6186TIP3    H240118   2.061   4.570   7.695 -0.1748  2.0378  1.2661
 6187TIP3   OH240119   5.533   5.583   1.633  0.5402  0.2271 -0.4551
 6187TIP3    H140120   5.626   5.599   1.617  0.5390  0.0121 -0.6950
 6187TIP3    H240121   5.509   5.518   1.567  0.2927  0.0568 -0.1973
 6188TIP3   OH240122   3.899   4.398   1.679  0.1805  0.0805  0.3469
 6188TIP3    H140123   3.981   4.447   1.683  0.1784  0.0049  1.6950
 6188TIP3    H240124   3.844   4.448   1.619  1.1233  0.2482 -0.3977
 6189TIP3   OH240125   1.246   5.699   6.844  0.1320  0.1384  0.3606
 6189TIP3    H140126   1.315   5.765   6.844 -0.7016  1.0782  1.7299
 6189TIP3    H240127   1.166   5.749   6.824 -0.9211  0.1174  3.8872
 6190TIP3   OH240128   0.580   5.052   0.438 -0.7427 -0.1856 -0.1758
 6190TIP3    H140129   0.608   5.064   0.347  0.2180 -1.0009 -0.0076
 6190TIP3    H240130   0.524   5.127   0.456 -0.6246  0.1972 -1.3161
 6191TIP3   OH240131   5.713   5.287   2.002 -0.2195  0.9059 -0.2304
 6191TIP3    H140132   5.760   5.245   2.074  2.5449 -1.1258 -2.9440
 6191TIP3    H240133   5.775   5.353   1.969  0.2092 -0.6846 -2.8825
 6192TIP3   OH240134   0.046   4.208   8.182  0.0512 -0.4691 -0.3422
 6192TIP3    H140135  -0.009   4.197   8.259 -0.1565 -0.2599 -0.4584
 6192TIP3    H240136  -0.015   4.235   8.113  0.5869  1.7542  0.0082
 6193TIP3   OH240137   2.489   2.801   7.441 -0.2325  0.2483 -0.3865
 6193TIP3    H140138   2.398   2.775   7.433 -0.2363 -0.4628  1.4895
 6193TIP3    H240139   2.487   2.878   7.498  0.2412  1.1357 -1.5201
 6194TIP3   OH240140   3.277   2.702   0.418 -0.3854 -0.2968 -0.3587
 6194TIP3    H140141   3.314   2.786   0.445  0.0676 -0.0149 -1.7681
 6194TIP3    H240142   3.183   2.718   0.411 -0.2240  0.3067 -1.2920
 6195TIP3   OH240143   2.460   3.501   0.686 -0.0448  0.4154  0.4900
 6195TIP3    H140144   2.516   3.508   0.608  0.0741  0.8760  0.6135
 6195TIP3    H240145   2.373   3.482   0.651  0.0865  0.2208  0.2666
 6196TIP3   OH240146   1.114   4.011   2.755  0.0500 -0.6153  0.4186
 6196TIP3    H140147   1.169   4.087   2.770  0.9076 -1.1647  0.1811
 6196TIP3    H240148   1.100   4.010   2.660  0.3927 -0.9766  0.3675
 6197TIP3   OH240149   1.684   4.708   1.372 -0.2006 -0.1955 -0.2468
 6197TIP3    H140150   1.748   4.721   1.441 -0.4831  2.0490 -0.3042
 6197TIP3    H240151   1.603   4.685   1.417 -0.3102  0.9714  0.1957
 6198TIP3   OH240152   1.559   4.577   0.507  0.7429  0.0569  0.2010
 6198TIP3    H140153   1.476   4.568   0.460  0.7861 -0.0908  0.1545
 6198TIP3    H240154   1.537   4.628   0.585  0.5900 -0.0669  0.2383
 6199TIP3   OH240155   3.650   4.333   1.037 -0.3858  0.3972  0.2499
 6199TIP3    H140156   3.631   4.240   1.048  3.7335 -0.7831 -0.7017
 6199TIP3    H240157   3.647   4.347   0.942  0.8543  0.6792  0.2307
 6200TIP3   OH240158   5.601   2.935   0.089 -0.0579  0.1504  0.1002
 6200TIP3    H140159   5.527   2.959   0.144  1.6555  3.0399  1.3684
 6200TIP3    H240160   5.572   2.952  -0.000 -0.8002  1.6785  0.6097
 6201TIP3   OH240161   0.910   3.765   8.514 -0.3967  0.1249  0.2547
 6201TIP3    H140162   0.966   3.805   8.447 -0.1802  1.4737  1.2177
 6201TIP3    H240163   0.957   3.686   8.540 -0.0558  0.0494 -0.5403
 6202TIP3   OH240164   4.914   4.202   2.054  0.1703  0.3105  0.3597
 6202TIP3    H140165   4.871   4.282   2.022 -1.4317 -0.7667 -0.3472
 6202TIP3    H240166   4.995   4.197   2.003 -0.6131  0.5285 -0.9749
 6203TIP3   OH240167   4.295   3.918   8.535  0.6276 -0.2963 -0.7819
 6203TIP3    H140168   4.203   3.919   8.508  0.4282 -0.3958 -0.1230
 6203TIP3    H240169   4.316   4.010   8.550  0.5312 -0.3064 -0.5848
 6204TIP3   OH240170   0.864   5.432   7.956  0.8842 -0.6448 -0.1764
 6204TIP3    H140171   0.860   5.337   7.957 -0.0292 -0.6069  0.1815
 6204TIP3    H240172   0.957   5.452   7.964  1.0492 -1.5005  0.1276
 6205TIP3   OH240173   0.390   2.169   2.343 -0.0082  0.4165 -0.0795
 6205TIP3    H140174   0.315   2.117   2.370 -0.5225  0.8482 -0.6489
 6205TIP3    H240175   0.393   2.161   2.247  0.3257  0.8536 -0.1138
 6206TIP3   OH240176   0.270   4.589   0.630  0.5708 -0.2250  0.0238
 6206TIP3    H140177   0.215   4.523   0.673  1.9204 -0.3676  1.6507
 6206TIP3    H240178   0.211   4.663   0.615 -0.2315 -0.6105  1.1233
 6207TIP3   OH240179   2.306   3.773   7.454 -0.0497 -0.2870 -0.1085
 6207TIP3    H140180   2.234   3.760   7.393 -0.1954 -0.5175  0.1112
 6207TIP3    H240181   2.361   3.839   7.412  0.0840 -0.7595 -0.6930
 6208TIP3   OH240182   5.848   4.388   7.285  0.0398  0.1279 -0.2968
 6208TIP3    H140183   5.821   4.426   7.368  0.0073  0.0446 -0.2693
 6208TIP3    H240184   5.893   4.460   7.240  1.3835 -0.2329  0.4175
 6209TIP3   OH240185   5.255   2.045   6.546  0.6096  0.1236 -0.0911
 6209TIP3    H140186   5.328   1.991   6.518 -1.5407 -2.3677 -1.3360
 6209TIP3    H240187   5.282   2.135   6.524  3.5500 -0.5556  0.2935
 6210TIP3   OH240188   6.484   3.683   1.167  0.1901 -0.4777 -0.1480
 6210TIP3    H140189   6.394   3.674   1.135  0.1768  1.3349 -0.7438
 6210TIP3    H240190   6.474   3.718   1.255  0.3018  1.1125 -0.7435
 6211TIP3   OH240191   1.494   4.844   7.288  0.4222  0.1494 -0.2367
 6211TIP3    H140192   1.513   4.771   7.229  0.3236 -0.2899  0.2682
 6211TIP3    H240193   1.441   4.904   7.236 -1.0488 -0.9891 -0.1341
 6212TIP3   OH240194   6.840   2.896   0.498 -0.2497 -0.0523  0.0599
 6212TIP3    H140195   6.853   2.986   0.469  2.1354  0.2583  1.7947
 6212TIP3    H240196   6.777   2.903   0.570  0.2026  0.3068  0.4285
 6213TIP3   OH240197   0.983   0.280   1.090  0.1046 -0.1564 -0.1393
 6213TIP3    H140198   0.950   0.304   1.177 -0.9583 -1.0230 -0.2831
 6213TIP3    H240199   0.988   0.185   1.092 -0.3221 -0.2123 -1.1706
 6214TIP3   OH240200   1.842   2.865   1.361 -0.2277  0.2337  0.4242
 6214TIP3    H140201   1.894   2.919   1.302 -1.2937  1.9704  0.9907
 6214TIP3    H240202   1.790   2.928   1.411  0.2034 -1.1777  2.8105
 6215TIP3   OH240203   1.637   5.742   0.211  0.3612  0.1754 -0.2299
 6215TIP3    H140204   1.674   5.830   0.216 -1.9023  1.6326 -4.4049
 6215TIP3    H240205   1.568   5.741   0.278 -1.4714  2.8181 -1.8687
 6216TIP3   OH240206   4.767   2.057   1.199 -0.5089 -0.2999 -0.3251
 6216TIP3    H140207   4.714   2.115   1.144 -0.8384 -0.1843  0.1063
 6216TIP3    H240208   4.825   2.116   1.247  0.4707 -0.4726 -1.2655
 6217TIP3   OH240209   2.481   0.717   7.216 -0.0075  0.0237  0.4697
 6217TIP3    H140210   2.485   0.671   7.132  0.7918  0.4761  0.2556
 6217TIP3    H240211   2.529   0.798   7.201  1.2935 -0.4786  1.7369
 6218TIP3   OH240212   0.753   5.725   8.309  0.0645 -0.0113 -0.5525
 6218TIP3    H140213   0.796   5.640   8.314 -1.9133 -1.0101  0.1653
 6218TIP3    H240214   0.775   5.757   8.221 -0.6282 -2.0895 -1.5500
 6219TIP3   OH240215   3.513   3.901   0.414 -0.1691  0.1587  0.0271
 6219TIP3    H140216   3.577   3.872   0.479 -0.9898 -1.6589  0.0802
 6219TIP3    H240217   3.436   3.846   0.430 -1.8172  2.3587  0.0550
 6220TIP3   OH240218   6.097   5.857   1.940  0.0308  0.2707 -0.1388
 6220TIP3    H140219   6.008   5.892   1.945 -0.0808 -0.0994  0.6015
 6220TIP3    H240220   6.084   5.762   1.931  0.3559  0.1895  0.2461
 6221TIP3   OH240221   4.401   2.808   2.060 -0.2655  0.1493 -0.6083
 6221TIP3    H140222   4.330   2.775   2.115 -2.5074  1.4944 -2.5299
 6221TIP3    H240223   4.429   2.889   2.103  0.9432 -0.9314  0.7407
 6222TIP3   OH240224   0.657   5.612   2.330  0.3387  0.1646  0.2057
 6222TIP3    H140225   0.591   5.652   2.273 -1.2401 -1.6018  0.6985
 6222TIP3    H240226   0.618   5.613   2.417  0.7313 -1.3429  0.4265
 6223TIP3   OH240227   1.384   4.187   8.176 -0.0375  0.2914 -0.1102
 6223TIP3    H140228   1.326   4.223   8.243  0.8331  0.7874  0.3785
 6223TIP3    H240229   1.327   4.128   8.126 -0.8793  0.4870  0.5846
 6224TIP3   OH240230   0.867   4.437   7.883 -0.1938 -0.2074 -0.3080
 6224TIP3    H140231   0.876   4.389   7.801 -2.0587  0.8991 -1.2380
 6224TIP3    H240232   0.913   4.383   7.948 -1.6996 -2.9450 -1.3574
 6225TIP3   OH240233   3.735   4.946   8.559  0.1230 -0.8116  0.0884
 6225TIP3    H140234   3.786   5.023   8.536 -1.2753 -0.7542 -3.5708
 6225TIP3    H240235   3.652   4.980   8.592 -0.3595 -0.6933 -1.1937
 6226TIP3   OH240236   5.381   0.553   0.245 -0.3969  0.2650  0.1011
 6226TIP3    H140237   5.350   0.587   0.161  1.0614 -1.5253 -1.2434
 6226TIP3    H240238   5.301   0.524   0.290 -1.0958  0.1429 -1.1871
 6227TIP3   OH240239   6.191   5.716   7.990 -0.0081 -0.5716  0.1787
 6227TIP3    H140240   6.174   5.708   7.896 -0.2183  1.0107  0.0422
 6227TIP3    H240241   6.155   5.637   8.029  1.5415 -2.0519 -1.2455
 6228TIP3   OH240242   3.946   6.773   1.134  0.2767 -0.3856  0.2497
 6228TIP3    H140243   3.936   6.829   1.211  0.7422 -0.2154  0.1891
 6228TIP3    H240244   3.902   6.820   1.063  1.6893  0.4905 -0.0816
 6229TIP3   OH240245   2.779   6.350   1.662 -0.1334 -0.0285 -0.1687
 6229TIP3    H140246   2.824   6.273   1.629  1.3157  0.5302  0.4247
 6229TIP3    H240247   2.800   6.353   1.755 -2.6779 -0.5772  0.5035
 6230TIP3   OH240248   5.455   6.539   1.410 -0.0768  0.6946  0.5176
 6230TIP3    H140249   5.514   6.468   1.437  0.3674  0.5834 -0.6896
 6230TIP3    H240250   5.514   6.608   1.379 -0.5570  0.1616 -1.7329
 6231TIP3   OH240251   5.045   4.859   8.558  0.1546 -0.4337  0.0119
 6231TIP3    H140252   5.107   4.850   8.486 -0.9289  0.2783 -1.0470
 6231TIP3    H240253   4.962   4.880   8.516 -0.6209 -0.4903  1.4483
 6232TIP3   OH240254   6.830   6.680   0.174  0.1279  0.3906 -0.0531
 6232TIP3    H140255   6.921   6.708   0.160 -0.6964  2.2345 -2.3015
 6232TIP3    H240256   6.780   6.761   0.180 -1.5621 -0.5866 -0.3295
 6233TIP3   OH240257   1.561   3.720   8.409  0.5034  0.2098 -0.0514
 6233TIP3    H140258   1.533   3.796   8.359 -1.3262 -0.0175  0.5670
 6233TIP3    H240259   1.514   3.726   8.492  1.2513 -0.9561  0.4933
 6234TIP3   OH240260   0.504   4.054   7.231  0.4678 -0.0772 -0.1848
 6234TIP3    H140261   0.516   4.046   7.326  0.2660 -0.4977 -0.1933
 6234TIP3    H240262   0.421   4.101   7.222  0.5487  0.0712 -0.1498
 6235TIP3   OH240263   4.583   3.520   0.779  0.0511  0.8311  0.3675
 6235TIP3    H140264   4.521   3.555   0.716 -0.2512 -0.1516  0.0914
 6235TIP3    H240265   4.537   3.522   0.863  0.0213  1.0572  0.3444
 6236TIP3   OH240266   6.820   6.268   0.020 -0.0389 -0.4970 -0.3518
 6236TIP3    H140267   6.835   6.192   0.076 -0.7984 -1.2117 -1.0818
 6236TIP3    H240268   6.906   6.288  -0.017  0.5033  0.0733  1.1428
 6237TIP3   OH240269   4.024   1.374   8.314  0.1770  0.6612 -0.5835
 6237TIP3    H140270   4.115   1.358   8.338 -0.3114 -0.5474  0.6068
 6237TIP3    H240271   3.984   1.407   8.394 -1.0825 -1.6556 -0.1841
 6238TIP3   OH240272   5.033   6.426   8.292 -0.5799  0.6792 -0.5411
 6238TIP3    H140273   5.108   6.474   8.256 -1.7004  2.8632 -0.0956
 6238TIP3    H240274   5.056   6.410   8.383  1.1911 -2.6803 -1.4002
 6239TIP3   OH240275   5.976   1.868   6.932  0.0433  0.0436 -0.2800
 6239TIP3    H140276   5.914   1.816   6.881  1.3903  0.1280 -2.1184
 6239TIP3    H240277   5.981   1.823   7.017 -1.0739 -1.0482 -0.7640
 6240TIP3   OH240278   4.186   2.445   8.564 -0.1116  0.2080  0.2453
 6240TIP3    H140279   4.213   2.423   8.475 -2.1755 -0.1763 -0.3379
 6240TIP3    H240280   4.230   2.381   8.620  1.9396  1.0274 -0.3555
 6241TIP3   OH240281   0.052   3.901   0.248  0.3787 -1.1162 -0.1976
 6241TIP3    H140282   0.065   3.907   0.343  1.1929 -0.9675 -0.3081
 6241TIP3    H240283  -0.008   3.972   0.227  1.5203 -0.0461 -0.0126
 6242TIP3   OH240284   1.974   1.762   7.755  0.2342  0.5874 -0.0695
 6242TIP3    H140285   1.944   1.735   7.669  0.8562  0.2751 -0.1885
 6242TIP3    H240286   2.053   1.712   7.771  0.0603  0.5437  0.7423
 6243TIP3   OH240287   5.650   5.478   0.629 -0.1084  0.3785 -0.2466
 6243TIP3    H140288   5.626   5.440   0.545 -0.4583 -3.2710  1.3180
 6243TIP3    H240289   5.675   5.403   0.683  0.9531  2.6345  2.6578
 6244TIP3   OH240290   5.824   1.784   0.692 -0.2977  0.2182  0.4257
 6244TIP3    H140291   5.767   1.739   0.754 -1.2628 -0.7958 -1.1065
 6244TIP3    H240292   5.912   1.751   0.711 -0.7716 -1.1622  0.3716
 6245TIP3   OH240293   5.677   4.284   7.056  0.3062  0.4631  0.5879
 6245TIP3    H140294   5.707   4.322   6.973 -0.7996 -0.7436 -0.4039
 6245TIP3    H240295   5.755   4.281   7.110  1.3701  0.0099 -0.8984
 6246TIP3   OH240296   0.321   3.972   0.193  0.3594 -0.3546  0.5537
 6246TIP3    H140297   0.260   3.911   0.234  0.2001 -0.2227  0.5126
 6246TIP3    H240298   0.333   3.937   0.104 -0.1392 -0.0375  0.3567
 6247TIP3   OH240299   3.926   3.907   1.132  0.1553  0.2715 -0.8020
 6247TIP3    H140300   3.916   3.991   1.088  1.3018  0.7540 -0.2099
 6247TIP3    H240301   4.009   3.872   1.098  0.0205 -0.3054 -0.5526
 6248TIP3   OH240302   6.216   4.744   2.669 -0.2262 -0.6416 -0.4168
 6248TIP3    H140303   6.259   4.681   2.610  0.4267  0.5356 -1.2340
 6248TIP3    H240304   6.284   4.769   2.731 -0.2630 -0.1892 -0.5545
 6249TIP3   OH240305   5.456   4.202   7.320  0.3844  0.3637 -0.0964
 6249TIP3    H140306   5.471   4.146   7.244 -0.5690 -0.4023  0.2525
 6249TIP3    H240307   5.451   4.291   7.285 -1.4002 -0.1031 -1.1495
 6250TIP3   OH240308   1.086   0.726   8.347  0.6348  0.2478 -0.4227
 6250TIP3    H140309   0.991   0.719   8.355  0.6325  0.9815  0.2782
 6250TIP3    H240310   1.120   0.654   8.399  0.4935  1.2756  1.1338
 6251TIP3   OH240311   5.361   4.573   1.192 -0.3642  0.0696  0.0213
 6251TIP3    H140312   5.293   4.587   1.126  0.1994 -0.7113 -0.7414
 6251TIP3    H240313   5.443   4.577   1.144  0.1089  0.4110  0.8338
 6252TIP3   OH240314   5.805   5.331   1.545  0.6924  0.2919 -0.5432
 6252TIP3    H140315   5.710   5.326   1.535  0.7115  0.9020 -1.1337
 6252TIP3    H240316   5.834   5.381   1.469  1.5464 -0.3564 -0.6589
 6253TIP3   OH240317   0.437   6.183   2.547 -0.0498 -0.1469 -0.0625
 6253TIP3    H140318   0.504   6.148   2.606  0.1559 -0.0507 -0.2384
 6253TIP3    H240319   0.428   6.275   2.574 -1.4601 -0.6159  1.2119
 6254TIP3   OH240320   5.134   5.087   7.532 -0.0795  0.2350 -0.0560
 6254TIP3    H140321   5.119   5.140   7.610  1.9330  2.5109 -1.1152
 6254TIP3    H240322   5.101   5.140   7.460 -2.3853 -2.0428 -0.8338
 6255TIP3   OH240323   1.064   0.806   2.063 -0.0264 -0.0643  0.4777
 6255TIP3    H140324   1.076   0.794   2.157  1.3340  2.5462  0.7234
 6255TIP3    H240325   1.008   0.884   2.056  0.8473  0.4826 -0.8346
 6256TIP3   OH240326   5.484   4.560   8.515 -0.5072  0.3463  0.2041
 6256TIP3    H140327   5.568   4.516   8.524  0.3329  0.7583 -3.8415
 6256TIP3    H240328   5.506   4.654   8.511 -1.3450  0.5714  0.5781
 6257TIP3   OH240329   0.937   6.035   7.161  0.8374  0.0942  0.1170
 6257TIP3    H140330   0.989   5.957   7.180  1.0263  0.3301  0.5827
 6257TIP3    H240331   0.862   6.029   7.220 -0.0434 -0.5956 -1.0216
 6258TIP3   OH240332   2.698   2.249   2.052  0.1384 -0.1673 -0.3928
 6258TIP3    H140333   2.658   2.308   1.989 -0.6110  0.9375  1.0400
 6258TIP3    H240334   2.792   2.267   2.046  0.1328 -0.4304 -1.4961
 6259TIP3   OH240335   2.237   3.965   1.346  0.6394 -0.3254  0.6149
 6259TIP3    H140336   2.270   3.972   1.257  0.1121 -0.8809  0.3660
 6259TIP3    H240337   2.166   4.029   1.350  1.2579  0.3467  0.9217
 6260TIP3   OH240338   5.445   0.578   0.893 -0.2277 -0.1926  0.6515
 6260TIP3    H140339   5.527   0.602   0.850  0.5760 -1.9891  1.0822
 6260TIP3    H240340   5.449   0.619   0.979 -0.1855  0.4071  0.3707
 6261TIP3   OH240341   3.053   5.009   8.411 -0.2115 -0.1258  0.0789
 6261TIP3    H140342   2.989   4.945   8.380  0.4600 -0.8676  0.1892
 6261TIP3    H240343   3.023   5.092   8.375 -1.9082 -0.2398  1.1209
 6262TIP3   OH240344   4.508   1.000   8.544  0.0441 -0.7874  0.4520
 6262TIP3    H140345   4.484   0.999   8.637  0.8334 -0.9729  0.6599
 6262TIP3    H240346   4.531   1.091   8.525  1.3384 -1.0133  0.8341
 6263TIP3   OH240347   3.314   5.048   6.803 -0.1586  0.3851  0.1445
 6263TIP3    H140348   3.373   4.974   6.794 -0.3698  0.2446 -0.1019
 6263TIP3    H240349   3.365   5.114   6.850  0.3965  0.4866 -0.5722
 6264TIP3   OH240350   3.912   0.102   1.575 -0.3170 -0.5298  0.7993
 6264TIP3    H140351   3.932   0.010   1.560  0.5628 -0.5355  1.8651
 6264TIP3    H240352   3.992   0.149   1.553 -0.2508 -0.1862  1.7072
 6265TIP3   OH240353   4.445   6.399   1.191  0.0547 -0.0554 -0.3613
 6265TIP3    H140354   4.439   6.486   1.230 -1.2575 -0.2753 -0.0417
 6265TIP3    H240355   4.451   6.416   1.097  1.4748  0.4182 -0.2023
 6266TIP3   OH240356   6.035   3.511   8.027  0.1642 -0.0531 -0.3607
 6266TIP3    H140357   5.984   3.560   8.092  1.4209  0.2892  0.4118
 6266TIP3    H240358   5.973   3.448   7.991 -0.6902  0.0387  0.8646
 6267TIP3   OH240359   3.475   3.867   0.929 -0.2820 -0.1412  0.3757
 6267TIP3    H140360   3.456   3.796   0.867 -1.6954  0.5671 -0.0295
 6267TIP3    H240361   3.414   3.852   1.002  2.3328 -1.8522  2.4301
 6268TIP3   OH240362   3.209   2.017   1.249 -0.5541  0.8116  0.4890
 6268TIP3    H140363   3.164   1.960   1.311  0.8636 -1.0613 -0.1201
 6268TIP3    H240364   3.244   2.088   1.302 -1.1783  0.3889  1.4890
 6269TIP3   OH240365   1.530   0.457   8.648 -0.2754 -0.5112  0.2160
 6269TIP3    H140366   1.506   0.550   8.649  0.4448 -0.3242  1.1790
 6269TIP3    H240367   1.469   0.416   8.708 -0.9707 -0.7720 -0.6509
 6270TIP3   OH240368   0.957   3.524   1.338  0.5538 -0.8422 -0.1015
 6270TIP3    H140369   0.915   3.606   1.312  1.4268 -0.3186  0.0741
 6270TIP3    H240370   1.050   3.545   1.341  0.5844 -0.8060  3.4835
 6271TIP3   OH240371   4.243   0.374   7.910 -0.4577  0.1723  0.0779
 6271TIP3    H140372   4.268   0.341   7.825 -0.5827 -0.1229  0.1554
 6271TIP3    H240373   4.320   0.361   7.965 -0.0181  1.2949 -0.2400
 6272TIP3   OH240374   1.103   4.548   8.113  0.0518 -0.9995 -0.2461
 6272TIP3    H140375   1.024   4.496   8.095  0.0807 -1.2771  0.4001
 6272TIP3    H240376   1.111   4.546   8.209 -0.0031  0.2823 -0.1966
 6273TIP3   OH240377   1.381   2.491   1.624  0.8877 -0.1165  0.2120
 6273TIP3    H140378   1.292   2.458   1.612  0.8513  0.9023 -3.7021
 6273TIP3    H240379   1.437   2.415   1.606  0.7904 -0.0176 -0.5333
 6274TIP3   OH240380   0.590   4.611   1.607  0.5143  0.7852 -0.3415
 6274TIP3    H140381   0.502   4.613   1.570  0.5702  1.3506 -0.4547
 6274TIP3    H240382   0.584   4.660   1.689  0.5253  0.0446  0.1170
 6275TIP3   OH240383   1.898   1.257   0.304  0.1245  0.1149 -0.4393
 6275TIP3    H140384   1.985   1.216   0.298  1.2213  2.1892  0.4704
 6275TIP3    H240385   1.866   1.259   0.214  1.0898 -0.5082 -0.8094
 6276TIP3   OH240386   4.659   3.877   0.549  0.3409  0.5375  0.3024
 6276TIP3    H140387   4.710   3.837   0.620 -1.6614  1.7609  2.5747
 6276TIP3    H240388   4.721   3.886   0.477  2.5179 -0.7046  1.9027
 6277TIP3   OH240389   3.255   3.008   0.564  0.8555  0.0345 -0.3428
 6277TIP3    H140390   3.339   2.962   0.552  1.2062  0.7530 -0.7335
 6277TIP3    H240391   3.279   3.091   0.607  0.2482 -0.0899  0.2489
 6278TIP3   OH240392   5.888   2.093   8.681  0.0764 -0.0499 -0.1681
 6278TIP3    H140393   5.983   2.098   8.667  0.0945  0.7999  0.2212
 6278TIP3    H240394   5.879   2.044   8.763  0.2236  0.6520  0.2771
 6279TIP3   OH240395   3.466   6.630   8.380 -0.4099  0.4132  0.3101
 6279TIP3    H140396   3.451   6.536   8.369 -0.2823  0.3263  0.8528
 6279TIP3    H240397   3.558   6.636   8.406  0.0429  0.8090 -1.2876
 6280TIP3   OH240398   6.486   5.423   1.022 -0.8651  0.3497 -0.1314
 6280TIP3    H140399   6.455   5.340   1.059 -0.2558 -0.5906 -1.6124
 6280TIP3    H240400   6.445   5.428   0.936 -1.4748  1.9868  0.2157
 6281TIP3   OH240401   6.500   6.492   0.135  0.0619  0.1158 -0.1741
 6281TIP3    H140402   6.545   6.519   0.054  1.6602 -0.8724  0.3453
 6281TIP3    H240403   6.529   6.555   0.201  0.5953 -0.4426  0.1325
 6282TIP3   OH240404   3.553   6.038   2.507  0.1561 -0.3981 -0.1535
 6282TIP3    H140405   3.569   5.945   2.490  0.2953 -0.0971 -1.9075
 6282TIP3    H240406   3.462   6.051   2.482 -0.2607 -0.3019  1.3309
 6283TIP3   OH240407   2.679   1.614   1.275 -0.0411 -0.1590  0.3449
 6283TIP3    H140408   2.681   1.529   1.319  0.6205 -0.7631 -0.7737
 6283TIP3    H240409   2.641   1.674   1.338 -2.1807 -1.6271  0.5604
 6284TIP3   OH240410   3.610   2.214   0.963  0.1589  0.3262  0.3556
 6284TIP3    H140411   3.568   2.299   0.948 -0.3664  0.1007  0.5235
 6284TIP3    H240412   3.542   2.160   1.003  0.1224 -0.5387 -0.8120
 6285TIP3   OH240413   4.219   0.566   2.133 -0.6483 -0.4420  0.1707
 6285TIP3    H140414   4.170   0.572   2.215  1.3044  0.1444  1.3642
 6285TIP3    H240415   4.289   0.631   2.142  0.2066 -1.0593 -1.5506
 6286TIP3   OH240416   2.493   0.686   8.205 -0.1561 -0.9055  0.0930
 6286TIP3    H140417   2.534   0.761   8.248  0.1190 -1.2983  0.5191
 6286TIP3    H240418   2.404   0.683   8.241  0.7959 -2.6744  2.5040
 6287TIP3   OH240419   4.476   2.674   0.423 -0.6752  0.4391  0.7677
 6287TIP3    H140420   4.451   2.761   0.392  0.2287  0.7387  0.8690
 6287TIP3    H240421   4.542   2.690   0.490  1.1262 -0.3685 -0.7210
 6288TIP3   OH240422   5.856   4.564   2.442 -0.6089  0.8743 -0.0801
 6288TIP3    H140423   5.833   4.545   2.351  0.3285 -1.2049  0.0678
 6288TIP3    H240424   5.801   4.506   2.494  1.0779 -0.2959  0.4888
 6289TIP3   OH240425   1.926   3.119   1.253 -0.4331  0.1165  0.0548
 6289TIP3    H140426   1.879   3.196   1.221 -0.2750 -0.3035 -1.2531
 6289TIP3    H240427   2.012   3.126   1.211 -0.8205 -1.3945 -1.0765
 6290TIP3   OH240428   5.407   3.525   8.580  0.6399  0.2848  0.0614
 6290TIP3    H140429   5.455   3.571   8.511  0.4182 -0.3336 -0.5175
 6290TIP3    H240430   5.402   3.588   8.652  1.0346  0.8747 -0.4183
 6291TIP3   OH240431   4.360   0.340   7.148 -0.7813 -0.2031  0.4598
 6291TIP3    H140432   4.340   0.303   7.234 -1.1411  2.6841  1.7209
 6291TIP3    H240433   4.445   0.382   7.160 -0.4863 -0.3886 -0.8453
 6292TIP3   OH240434   0.851   3.926   0.924 -0.0123 -0.4495  0.2169
 6292TIP3    H140435   0.918   3.860   0.942  1.1170  0.1834 -1.3982
 6292TIP3    H240436   0.846   3.977   1.005  1.0783 -0.8429  0.5524
 6293TIP3   OH240437   6.504   6.635   2.093 -0.0917 -0.4045  0.4186
 6293TIP3    H140438   6.518   6.600   2.005 -1.0035 -1.4513  0.6705
 6293TIP3    H240439   6.418   6.677   2.088  0.2827  0.4000  0.5601
 6294TIP3   OH240440   4.135   0.187   1.063  0.3161  0.0700  0.2063
 6294TIP3    H140441   4.066   0.159   1.002 -0.7337  0.6102  1.0981
 6294TIP3    H240442   4.091   0.189   1.148  1.7669 -0.7305  0.9961
 6295TIP3   OH240443   5.576   2.628   2.304 -0.1064 -0.2469 -0.1132
 6295TIP3    H140444   5.548   2.606   2.393 -0.0402 -0.7581 -0.2169
 6295TIP3    H240445   5.539   2.715   2.288  0.3319  0.0757  0.6035
 6296TIP3   OH240446   6.755   3.613   2.388  0.3077 -0.2711  0.2007
 6296TIP3    H140447   6.756   3.645   2.297 -2.4083  0.3826  0.3159
 6296TIP3    H240448   6.805   3.678   2.437  2.5300 -1.0541 -0.8653
 6297TIP3   OH240449   4.277   6.119   2.957  0.6330  0.1048 -0.0720
 6297TIP3    H140450   4.240   6.205   2.936 -1.0663 -0.8290 -1.0630
 6297TIP3    H240451   4.234   6.058   2.897  2.7418 -1.2951 -0.2771
 6298TIP3   OH240452   4.006   6.529   1.881 -0.3078 -0.1112  0.5228
 6298TIP3    H140453   4.061   6.451   1.871  0.0231  0.0870  0.7639
 6298TIP3    H240454   3.980   6.528   1.973 -1.5727 -0.7692  0.1758
 6299TIP3   OH240455   6.858   3.669   0.113 -0.2323  0.1494 -0.2559
 6299TIP3    H140456   6.762   3.677   0.111 -0.1917  0.6559 -0.4642
 6299TIP3    H240457   6.887   3.742   0.167  0.0538  0.2097 -0.4859
 6300TIP3   OH240458   3.411   6.293   0.985  0.4550  0.1819  0.4472
 6300TIP3    H140459   3.380   6.205   0.965 -1.6265  0.6753  1.1991
 6300TIP3    H240460   3.377   6.348   0.914  2.6089  0.3043 -0.5899
 6301TIP3   OH240461   5.204   4.734   1.736 -0.2095 -0.2764 -0.3231
 6301TIP3    H140462   5.287   4.716   1.694 -0.3924 -1.1590 -0.3280
 6301TIP3    H240463   5.151   4.778   1.669  0.5354  1.0623 -0.0520
 6302TIP3   OH240464   4.405   1.235   0.368  0.2410  0.6205 -0.0784
 6302TIP3    H140465   4.323   1.188   0.352 -1.1699  2.6762  0.6842
 6302TIP3    H240466   4.392   1.321   0.327  2.1542  0.8933 -0.2078
 6303TIP3   OH240467   0.217   1.154   2.572 -0.1600 -0.1481  0.9154
 6303TIP3    H140468   0.238   1.242   2.602  0.4783  1.5387 -3.6320
 6303TIP3    H240469   0.298   1.104   2.585  2.0202  2.0367 -2.4893
 6304TIP3   OH240470   4.695   3.031   8.542 -0.9223  0.3996  0.0219
 6304TIP3    H140471   4.622   3.055   8.485 -1.0135 -1.8651 -0.9094
 6304TIP3    H240472   4.773   3.063   8.496 -1.2024  1.3296  0.1829
 6305TIP3   OH240473   6.321   1.124   2.650 -0.6096 -0.0769  0.0828
 6305TIP3    H140474   6.332   1.031   2.632 -1.2438  0.1925 -1.9517
 6305TIP3    H240475   6.407   1.162   2.631 -0.3737 -0.2309  0.8326
 6306TIP3   OH240476   3.537   3.531   0.494 -0.2496  0.2720 -0.7179
 6306TIP3    H140477   3.487   3.449   0.490 -2.6374  1.6138 -0.2809
 6306TIP3    H240478   3.602   3.523   0.424 -0.4919 -1.9233 -0.7628
 6307TIP3   OH240479   2.554   0.963   7.093  0.0323  0.5565 -0.3367
 6307TIP3    H140480   2.649   0.971   7.094  0.0770  0.0658 -0.4442
 6307TIP3    H240481   2.523   1.052   7.075  0.4572  0.7757 -0.0178
 6308TIP3   OH240482   5.516   0.614   8.121  0.2991  0.5418  0.0384
 6308TIP3    H140483   5.584   0.641   8.183  0.7543  1.8636 -0.9907
 6308TIP3    H240484   5.520   0.519   8.121  0.3121  0.4976  1.9972
 6309TIP3   OH240485   1.393   3.589   7.850  0.1862 -0.1937 -0.5371
 6309TIP3    H140486   1.362   3.501   7.872 -0.0859  0.2803  1.0560
 6309TIP3    H240487   1.488   3.582   7.854  0.1571 -0.3162 -0.0088
 6310TIP3   OH240488   5.318   2.656   7.740  0.1320 -0.2203  0.1792
 6310TIP3    H140489   5.363   2.726   7.787 -0.0920  1.4811 -1.9479
 6310TIP3    H240490   5.311   2.689   7.650  0.0114 -3.0018 -0.9385
 6311TIP3   OH240491   3.050   3.561   1.636 -0.1588  0.1761 -0.7044
 6311TIP3    H140492   2.966   3.606   1.627 -0.3395  0.1763  0.8384
 6311TIP3    H240493   3.110   3.628   1.669  0.1302 -0.1556 -0.5511
 6312TIP3   OH240494   6.855   4.754   0.078  0.0509  0.7300 -0.6048
 6312TIP3    H140495   6.775   4.715   0.113  0.9772 -0.2616  0.5372
 6312TIP3    H240496   6.910   4.768   0.155  0.4678  2.6929 -1.2007
 6313TIP3   OH240497   2.832   2.802   8.508 -0.1366  0.1802  0.4902
 6313TIP3    H140498   2.831   2.712   8.474  2.2022  0.0579  0.5597
 6313TIP3    H240499   2.893   2.848   8.451 -2.4384  2.2041 -0.5000
 6314TIP3   OH240500   5.145   3.243   0.980  0.0721 -0.4645 -0.1519
 6314TIP3    H140501   5.202   3.320   0.984  0.7088 -0.9751  0.9320
 6314TIP3    H240502   5.105   3.247   0.893  0.5556  0.7620 -0.3260
 6315TIP3   OH240503   0.044   1.187   0.061 -0.2412  0.3899 -0.3080
 6315TIP3    H140504  -0.052   1.192   0.067 -0.4428 -1.7954 -0.6303
 6315TIP3    H240505   0.069   1.122   0.127  0.9177  0.3252 -0.7886
 6316TIP3   OH240506   4.538   6.113   3.221 -0.3290 -0.0593  0.4916
 6316TIP3    H140507   4.538   6.110   3.317  1.1454  4.0960  0.8103
 6316TIP3    H240508   4.537   6.206   3.200 -4.1825 -0.6853 -3.6793
 6317TIP3   OH240509   1.447   2.532   7.925  0.6063 -0.0452 -0.2704
 6317TIP3    H140510   1.451   2.591   7.850 -1.8479  2.6600  1.5109
 6317TIP3    H240511   1.519   2.561   7.981 -0.3933  1.1228  0.4518
 6318TIP3   OH240512   3.503   3.793   8.585 -0.2512 -0.1875 -0.1436
 6318TIP3    H140513   3.411   3.784   8.610  0.3004 -0.5494  1.9684
 6318TIP3    H240514   3.549   3.807   8.668  1.7337 -1.1350 -1.0113
 6319TIP3   OH240515   6.232   2.580   8.230  0.0690  0.1578 -0.2708
 6319TIP3    H140516   6.154   2.533   8.261  0.9769 -0.9214  0.4368
 6319TIP3    H240517   6.288   2.511   8.193  0.0631  1.1088 -2.1569
 6320TIP3   OH240518   6.001   6.534   7.608 -0.2330 -0.2682  0.3049
 6320TIP3    H140519   6.047   6.554   7.526 -0.7371 -2.2674 -0.5513
 6320TIP3    H240520   5.980   6.440   7.600 -0.9930 -0.3149  2.3891
 6321TIP3   OH240521   2.355   2.276   1.740 -0.3445 -0.0823  0.2696
 6321TIP3    H140522   2.282   2.275   1.678  0.0886  0.3921 -0.2634
 6321TIP3    H240523   2.341   2.200   1.795 -1.8499  0.6097  0.8975
 6322TIP3   OH240524   4.463   2.001   0.786  0.4006 -0.1011  0.1290
 6322TIP3    H140525   4.447   2.028   0.877  0.2023  1.2031 -0.2643
 6322TIP3    H240526   4.557   1.988   0.781  0.4272 -0.0762  0.4968
 6323TIP3   OH240527   5.955   2.253   7.989 -0.0601 -0.0224  0.0828
 6323TIP3    H140528   5.905   2.250   8.071 -0.1755 -0.5104 -0.0045
 6323TIP3    H240529   5.889   2.261   7.921  0.0788  3.3955  0.1383
 6324TIP3   OH240530   4.421   2.929   0.338 -0.1150  0.0431  0.4024
 6324TIP3    H140531   4.435   3.010   0.386 -0.8902 -0.3501  1.3057
 6324TIP3    H240532   4.486   2.932   0.267  0.0212  1.3305  0.5629
 6325TIP3   OH240533   3.856   0.454   8.221  0.4524  0.4060  0.1923
 6325TIP3    H140534   3.846   0.549   8.229 -1.0519  0.4425 -1.4109
 6325TIP3    H240535   3.891   0.441   8.133  0.8567 -0.5305  0.4777
 6326TIP3   OH240536   2.059   6.607   2.156 -0.0984 -0.1448  0.1814
 6326TIP3    H140537   2.075   6.681   2.216  1.1455 -1.3224  1.3753
 6326TIP3    H240538   1.993   6.640   2.096 -1.5943  1.0662  2.3219
 6327TIP3   OH240539   4.653   6.403   2.342  0.3388  0.2556 -0.6303
 6327TIP3    H140540   4.698   6.394   2.258  2.5703 -0.0543  0.5171
 6327TIP3    H240541   4.683   6.488   2.376  1.8237 -0.8779  1.0948
 6328TIP3   OH240542   2.641   2.650   2.071 -0.2198  0.4280 -0.5138
 6328TIP3    H140543   2.561   2.611   2.036 -0.2677 -0.2633  0.3557
 6328TIP3    H240544   2.663   2.597   2.147  0.2816  1.4822  0.1016
 6329TIP3   OH240545   6.622   1.085   7.462 -0.4672  0.0136 -0.1702
 6329TIP3    H140546   6.636   0.996   7.430  0.2560 -0.5167  1.4864
 6329TIP3    H240547   6.710   1.120   7.476 -0.7489  0.9149 -0.5880
 6330TIP3   OH240548   0.011   3.667   2.152 -0.6517  0.2984  0.1084
 6330TIP3    H140549   0.055   3.751   2.149  0.5856 -0.3224  0.2527
 6330TIP3    H240550   0.005   3.640   2.060 -1.5758  0.7984  0.0149
 6331TIP3   OH240551   1.585   3.818   2.087 -0.0530  0.3885  0.8819
 6331TIP3    H140552   1.505   3.776   2.117  0.2805 -1.5953 -0.8313
 6331TIP3    H240553   1.655   3.758   2.112  0.3145 -1.0248 -2.8816
 6332TIP3   OH240554   1.680   5.945   8.232  0.5878 -0.6084  0.1081
 6332TIP3    H140555   1.588   5.970   8.218  0.3660 -1.4839 -0.0059
 6332TIP3    H240556   1.729   6.010   8.181 -0.0437 -1.2123 -1.3494
 6333TIP3   OH240557   4.753   3.430   0.414 -0.7674 -0.4694 -0.3802
 6333TIP3    H140558   4.796   3.508   0.381  0.1422 -0.8202 -0.0562
 6333TIP3    H240559   4.664   3.435   0.380 -0.3366  0.0288 -1.4685
 6334TIP3   OH240560   6.569   2.151   8.355  0.2417  0.2163 -0.3298
 6334TIP3    H140561   6.517   2.070   8.356 -1.2696  1.1420  0.4306
 6334TIP3    H240562   6.630   2.141   8.428  0.3493 -0.4062 -0.4960
 6335TIP3   OH240563   2.445   2.749   8.315 -0.5578 -0.6194  0.2505
 6335TIP3    H140564   2.488   2.798   8.386  0.4482  0.8821 -1.3351
 6335TIP3    H240565   2.494   2.667   8.310  2.2221  0.9878 -1.4129
 6336TIP3   OH240566   1.740   6.493   7.238 -0.1793 -0.1420 -0.4414
 6336TIP3    H140567   1.745   6.585   7.266  1.7026 -0.8835  2.0128
 6336TIP3    H240568   1.696   6.448   7.311  0.0496 -1.3918 -1.0503
 6337TIP3   OH240569   0.817   5.178   6.912 -0.9235 -0.0536  0.3814
 6337TIP3    H140570   0.828   5.090   6.875  1.7464 -0.7225  2.4624
 6337TIP3    H240571   0.852   5.236   6.844  0.0150 -0.8666  0.1480
 6338TIP3   OH240572   0.688   4.262   0.325  0.0709 -0.5298  0.5007
 6338TIP3    H140573   0.759   4.282   0.264  0.9401 -1.8246  1.0326
 6338TIP3    H240574   0.636   4.342   0.329  1.2644  0.3129 -0.2318
 6339TIP3   OH240575   4.428   4.947   8.629  0.2022  0.4974 -0.2836
 6339TIP3    H140576   4.474   4.865   8.611 -0.4824  0.0381 -0.0090
 6339TIP3    H240577   4.337   4.920   8.644 -0.0768  1.3365 -0.4384
 6340TIP3   OH240578   5.230   0.942   1.454 -0.3169 -0.3937 -0.6095
 6340TIP3    H140579   5.262   0.915   1.540 -0.3319 -1.9684 -1.0690
 6340TIP3    H240580   5.137   0.960   1.467 -0.9754 -3.1416 -0.7285
 6341TIP3   OH240581   2.444   0.327   8.037  0.5620 -0.0998  0.6972
 6341TIP3    H140582   2.450   0.255   7.974 -0.6114 -0.4046  0.9109
 6341TIP3    H240583   2.459   0.406   7.985 -2.6033 -0.1463 -0.5073
 6342TIP3   OH240584   2.891   3.487   2.957 -0.3571  0.0889 -0.0606
 6342TIP3    H140585   2.910   3.472   2.864  0.7672  1.7800 -0.1436
 6342TIP3    H240586   2.816   3.548   2.956  0.5143  1.1976  0.0820
 6343TIP3   OH240587   5.703   3.125   8.376  0.8583  0.2536  0.5138
 6343TIP3    H140588   5.729   3.172   8.296  0.3924  1.4140  1.0157
 6343TIP3    H240589   5.718   3.033   8.355  0.3004  0.4822 -1.0944
 6344TIP3   OH240590   0.293   4.447   7.892  0.3363 -0.0317  0.2350
 6344TIP3    H140591   0.261   4.383   7.828  1.3946  0.4031 -0.7672
 6344TIP3    H240592   0.215   4.495   7.918 -0.2460 -0.7622 -0.1048
 6345TIP3   OH240593   6.532   3.276   7.725  0.1299 -0.0732  0.5074
 6345TIP3    H140594   6.514   3.203   7.784 -1.1888 -0.1538  0.0402
 6345TIP3    H240595   6.446   3.300   7.689  0.6637  1.1100 -0.0461
 6346TIP3   OH240596   1.176   6.018   7.493 -0.2457 -0.5740 -0.3348
 6346TIP3    H140597   1.216   6.034   7.579 -0.2425  1.9584 -0.7209
 6346TIP3    H240598   1.228   5.947   7.456  2.9997  1.4666 -0.1659
 6347TIP3   OH240599   0.911   1.365   2.028 -0.4587 -0.6927 -0.5277
 6347TIP3    H140600   0.976   1.324   1.972 -0.6172  0.1658 -1.3735
 6347TIP3    H240601   0.861   1.421   1.969  0.7030  1.8836  0.7820
 6348TIP3   OH240602   4.107   5.763   2.010  0.0630 -0.4172 -0.5241
 6348TIP3    H140603   4.175   5.698   2.026 -0.8288 -1.3574 -0.3671
 6348TIP3    H240604   4.112   5.823   2.084  0.6172 -0.5675 -0.4369
 6349TIP3   OH240605   4.346   6.224   0.251  0.5535  0.5376 -0.1280
 6349TIP3    H140606   4.354   6.166   0.327 -0.8981  1.3394  0.6866
 6349TIP3    H240607   4.426   6.276   0.252  0.9070  0.0041  0.3842
 6350TIP3   OH240608   0.143   3.843   0.548  0.9466  0.1519 -0.0051
 6350TIP3    H140609   0.151   3.822   0.641 -1.5062  0.1804  0.2689
 6350TIP3    H240610   0.160   3.937   0.544  0.7549  0.2103  0.4503
 6351TIP3   OH240611   1.278   4.593   1.980  0.3532 -0.0350 -0.2005
 6351TIP3    H140612   1.281   4.530   1.908 -0.6290  0.3538 -0.5906
 6351TIP3    H240613   1.262   4.677   1.938  1.7464  0.5260  0.2999
 6352TIP3   OH240614   5.650   2.751   7.653 -0.0833 -0.0839  0.0548
 6352TIP3    H140615   5.680   2.729   7.741 -0.8776 -0.9712  0.1180
 6352TIP3    H240616   5.710   2.820   7.624 -0.5176  1.0816  1.7498
 6353TIP3   OH240617   5.318   2.666   1.937 -0.1622 -0.0903 -0.3041
 6353TIP3    H140618   5.332   2.664   1.842 -3.4177 -0.9012 -0.8998
 6353TIP3    H240619   5.257   2.593   1.954 -2.0054  1.7913  1.9146
 6354TIP3   OH240620   4.039   6.753   0.708  0.3551 -0.1319  0.3159
 6354TIP3    H140621   4.016   6.809   0.634 -0.3482  1.1150  1.4362
 6354TIP3    H240622   4.133   6.740   0.699  0.5112  1.1135 -0.0668
 6355TIP3   OH240623   0.537   4.113   7.957  0.3889  0.3675 -0.1659
 6355TIP3    H140624   0.478   4.105   7.882  0.5272  1.4202 -0.4160
 6355TIP3    H240625   0.482   4.095   8.033  0.0835 -0.0569 -0.4826
 6356TIP3   OH240626   3.170   3.824   1.589  0.5765 -0.0200  0.4536
 6356TIP3    H140627   3.212   3.747   1.551  0.7321  0.0302  0.5229
 6356TIP3    H240628   3.162   3.885   1.517 -0.1554 -0.3523  0.2413
 6357TIP3   OH240629   3.384   2.639   2.523 -0.3743  0.1011  0.2664
 6357TIP3    H140630   3.291   2.630   2.540 -0.1981  0.2031  1.3804
 6357TIP3    H240631   3.404   2.730   2.542 -0.3166  0.4937 -1.4761
 6358TIP3   OH240632   5.407   1.705   7.516  0.4399 -0.0977 -0.5920
 6358TIP3    H140633   5.339   1.657   7.564  1.0234 -1.1763 -0.8279
 6358TIP3    H240634   5.482   1.706   7.575  0.1293  1.4470 -0.1650
 6359TIP3   OH240635   2.513   6.288   0.646  0.3699  0.0758  0.9049
 6359TIP3    H140636   2.527   6.382   0.653  0.2914  0.3651 -1.8280
 6359TIP3    H240637   2.441   6.279   0.585  2.9521 -1.7425 -2.1747
 6360TIP3   OH240638   3.107   1.222   3.140 -0.0672  0.5651  0.1363
 6360TIP3    H140639   3.049   1.275   3.086  1.6977  0.0529 -2.4663
 6360TIP3    H240640   3.176   1.283   3.169  1.0044  0.1311 -1.3867
 6361TIP3   OH240641   3.446   0.440   2.758 -0.8401  0.7603 -0.6400
 6361TIP3    H140642   3.415   0.460   2.670  1.2000  2.3256 -1.0781
 6361TIP3    H240643   3.540   0.458   2.755 -0.5051 -0.2840  1.5551
 6362TIP3   OH240644   5.745   2.879   0.551  0.1838 -0.2039 -0.1305
 6362TIP3    H140645   5.795   2.812   0.598  0.4144  1.0104  1.4617
 6362TIP3    H240646   5.777   2.874   0.461 -0.1121 -2.4783 -0.1567
 6363TIP3   OH240647   4.983   6.595   0.743 -0.4269 -0.3705 -0.1821
 6363TIP3    H140648   5.074   6.569   0.723 -0.2945 -0.2971  0.3152
 6363TIP3    H240649   4.991   6.684   0.778 -0.9207  0.5651 -2.2932
 6364TIP3   OH240650   4.591   4.172   7.319  0.4190  0.1135 -0.0421
 6364TIP3    H140651   4.621   4.230   7.249 -1.5985 -1.1023 -2.0741
 6364TIP3    H240652   4.505   4.206   7.343  0.5148 -0.2785  0.8982
 6365TIP3   OH240653   0.753   3.924   0.025  0.3809  0.1023  0.1200
 6365TIP3    H140654   0.808   3.871  -0.033  0.5403 -0.3104  0.6405
 6365TIP3    H240655   0.667   3.925  -0.018  0.1347 -1.3124  0.5200
 6366TIP3   OH240656   1.344   0.658   1.731  0.5014  0.2829  0.1335
 6366TIP3    H140657   1.284   0.671   1.805 -1.8196 -0.7325 -1.4314
 6366TIP3    H240658   1.414   0.603   1.766 -0.6155 -0.2959  1.5623
 6367TIP3   OH240659   3.101   0.163   1.622 -0.5148  0.2900  0.2165
 6367TIP3    H140660   3.086   0.245   1.576  1.8659 -0.5593 -2.3425
 6367TIP3    H240661   3.066   0.095   1.563 -1.3451 -0.6488  1.7201
 6368TIP3   OH240662   1.454   2.718   2.150 -0.4634  0.6974 -0.3249
 6368TIP3    H140663   1.542   2.749   2.129  0.2202 -1.0010 -0.1681
 6368TIP3    H240664   1.420   2.782   2.213  1.7600 -0.0346  1.7850
 6369TIP3   OH240665   1.685   6.177   2.995  0.1410 -0.7507 -0.4535
 6369TIP3    H140666   1.661   6.086   3.014 -0.3839 -0.5718 -0.2476
 6369TIP3    H240667   1.638   6.228   3.061  1.4341 -0.4208  0.2435
 6370TIP3   OH240668   6.684   6.725   2.271 -0.1546  0.2104  0.1989
 6370TIP3    H140669   6.732   6.642   2.269  1.0708  0.9126 -0.3551
 6370TIP3    H240670   6.608   6.710   2.214  0.2931 -0.3921 -0.2450
 6371TIP3   OH240671   2.852   3.276   1.037  0.2844 -0.1851  0.4955
 6371TIP3    H140672   2.905   3.273   0.958  0.2926 -0.7888  0.5156
 6371TIP3    H240673   2.910   3.243   1.106  0.0183 -0.4474  0.5950
 6372TIP3   OH240674   2.704   2.392   8.147  0.0575  0.1798  0.1147
 6372TIP3    H140675   2.788   2.376   8.104  0.7876  0.1422  1.5172
 6372TIP3    H240676   2.650   2.317   8.121  0.6023 -0.0490 -0.4025
 6373TIP3   OH240677   1.424   4.539   1.320 -0.5425  0.3165 -0.0195
 6373TIP3    H140678   1.375   4.621   1.309 -2.7913 -0.8675  0.7162
 6373TIP3    H240679   1.359   4.470   1.309  1.2312 -1.4115 -0.2708
 6374TIP3   OH240680   2.912   0.838   1.614  0.3982 -0.2202 -0.0266
 6374TIP3    H140681   2.986   0.808   1.561 -0.3022  0.4440 -1.4311
 6374TIP3    H240682   2.931   0.806   1.702  1.9720 -0.7172 -0.5176
 6375TIP3   OH240683   4.891   2.411   7.646 -0.1260 -0.6509  0.1218
 6375TIP3    H140684   4.933   2.421   7.561 -0.7173  3.1564  0.1027
 6375TIP3    H240685   4.963   2.411   7.709  0.2040 -1.4900 -0.2435
 6376TIP3   OH240686   3.036   3.311   1.740 -0.7222  0.0606  0.0609
 6376TIP3    H140687   3.057   3.395   1.702 -0.9344  0.9781  1.8436
 6376TIP3    H240688   2.983   3.332   1.817  0.6105 -1.5639  1.5142
 6377TIP3   OH240689   3.395   1.313   1.352  0.2083  0.1039 -0.0961
 6377TIP3    H140690   3.478   1.341   1.391 -1.1493  1.5775  2.0160
 6377TIP3    H240691   3.355   1.257   1.419 -0.9204  0.2359 -0.6372
 6378TIP3   OH240692   5.556   6.467   0.536 -0.2095  0.4129  0.7185
 6378TIP3    H140693   5.524   6.396   0.592 -1.0093  0.9980  1.0126
 6378TIP3    H240694   5.555   6.544   0.593  1.1020  0.5918  0.5444
 6379TIP3   OH240695   4.823   0.207   0.393  0.0169  0.5152 -0.2636
 6379TIP3    H140696   4.843   0.295   0.424 -0.6159  0.6563 -0.2537
 6379TIP3    H240697   4.768   0.220   0.316  0.6352  0.1411 -0.7906
 6380TIP3   OH240698   4.517   5.092   7.514 -0.1618  0.4832  0.2512
 6380TIP3    H140699   4.472   5.171   7.545  0.1523  0.4511  0.7980
 6380TIP3    H240700   4.452   5.022   7.525 -0.3995  0.6425 -0.1192
 6381TIP3   OH240701   3.212   1.520   1.900 -0.3534  0.2842  0.1286
 6381TIP3    H140702   3.144   1.582   1.875 -0.3725  0.8628  1.5199
 6381TIP3    H240703   3.212   1.522   1.996  1.8593  0.5743  0.1664
 6382TIP3   OH240704   3.700   6.040   0.039 -0.5174 -0.0103  0.3371
 6382TIP3    H140705   3.744   6.124   0.050 -1.0307  0.1514  1.2157
 6382TIP3    H240706   3.771   5.978   0.021 -0.1302  0.5825 -0.2213
 6383TIP3   OH240707   4.280   3.864   1.247  0.1556 -0.2678  0.1808
 6383TIP3    H140708   4.261   3.800   1.315  0.0141  1.1110  1.4756
 6383TIP3    H240709   4.237   3.828   1.169 -0.2980 -1.5137  0.9680
 6384TIP3   OH240710   6.564   3.695   0.089  0.1557 -0.0618  0.3409
 6384TIP3    H140711   6.514   3.614   0.092 -0.9951  0.5013 -1.4776
 6384TIP3    H240712   6.504   3.762   0.122  0.6998  0.2279  0.7720
 6385TIP3   OH240713   0.419   5.069   7.700 -0.2536  0.1022 -0.1043
 6385TIP3    H140714   0.447   5.060   7.791 -1.5962  1.0956  0.4346
 6385TIP3    H240715   0.433   4.982   7.662 -0.0025 -0.4191  1.1408
 6386TIP3   OH240716   4.711   2.903   2.146 -0.2571  0.7655 -0.3073
 6386TIP3    H140717   4.672   2.899   2.233  1.5802 -0.9513  0.5227
 6386TIP3    H240718   4.673   2.982   2.106 -2.0679  0.9209  1.5618
 6387TIP3   OH240719   0.764   0.806   7.703 -0.1286 -0.0859  0.4305
 6387TIP3    H140720   0.795   0.719   7.677 -0.5627 -0.1049 -0.0317
 6387TIP3    H240721   0.779   0.861   7.627 -1.4219 -0.1467  0.1080
 6388TIP3   OH240722   6.392   2.592   1.516  0.0589 -0.1168 -0.1793
 6388TIP3    H140723   6.422   2.557   1.432  0.0807 -0.9725  0.1790
 6388TIP3    H240724   6.298   2.573   1.519  0.0274  0.0485 -0.0749
 6389TIP3   OH240725   0.424   6.758   8.137  0.3600  0.0411  0.3363
 6389TIP3    H140726   0.439   6.733   8.228 -0.1166  0.0553  0.4210
 6389TIP3    H240727   0.460   6.686   8.085  0.2698 -0.1560  0.5473
 6390TIP3   OH240728   0.341   6.304   7.704  0.1653 -0.1441 -0.7591
 6390TIP3    H140729   0.383   6.303   7.790  1.9075  0.2272 -1.5505
 6390TIP3    H240730   0.301   6.217   7.695  1.6017 -0.8768 -0.3297
 6391TIP3   OH240731   0.045   0.628   7.948 -0.2708  0.1651  0.0653
 6391TIP3    H140732   0.007   0.702   7.901 -1.2606  0.7748  1.7717
 6391TIP3    H240733   0.128   0.661   7.983  0.5454 -0.3358 -1.2784
 6392TIP3   OH240734   0.924   0.406   0.080 -0.3132  0.4440 -0.0261
 6392TIP3    H140735   0.834   0.379   0.062 -0.1356  0.9718 -2.0409
 6392TIP3    H240736   0.975   0.325   0.078 -0.5466  0.3041 -0.4010
 6393TIP3   OH240737   5.590   2.977   2.393  0.3437  0.4324  0.5687
 6393TIP3    H140738   5.506   2.968   2.348  2.0736 -1.0285 -2.7484
 6393TIP3    H240739   5.571   2.952   2.483 -2.1361 -4.0616 -0.8702
 6394TIP3   OH240740   5.578   1.762   8.627  0.0460  0.2173 -0.1233
 6394TIP3    H140741   5.483   1.772   8.636 -0.2467 -1.9888 -0.3165
 6394TIP3    H240742   5.600   1.811   8.547 -1.1226 -0.2072 -0.7236
 6395TIP3   OH240743   1.508   5.011   2.569 -0.0570  0.0969 -0.3392
 6395TIP3    H140744   1.570   5.070   2.527 -0.3241 -0.0381 -0.9246
 6395TIP3    H240745   1.563   4.951   2.620  0.2094  0.9053  0.3486
 6396TIP3   OH240746   5.860   1.620   2.200  0.8035 -0.6412  0.0597
 6396TIP3    H140747   5.949   1.617   2.236  0.5500  1.0002  0.9113
 6396TIP3    H240748   5.803   1.608   2.277  0.2658 -1.9028 -0.5041
 6397TIP3   OH240749   2.736   0.708   2.388  0.0923  0.3950 -0.2830
 6397TIP3    H140750   2.653   0.690   2.433 -0.1883  2.2483  0.0151
 6397TIP3    H240751   2.803   0.671   2.446 -0.5072 -3.5463 -1.7586
 6398TIP3   OH240752   3.137   3.586   7.463  1.0280 -1.3595 -0.1771
 6398TIP3    H140753   3.051   3.557   7.435  0.3710 -1.1788  1.5325
 6398TIP3    H240754   3.189   3.590   7.383 -0.6027 -1.2735 -1.2551
 6399TIP3   OH240755   6.029   2.323   0.310 -0.4697  0.1121  0.2617
 6399TIP3    H140756   6.118   2.325   0.344 -0.7241  0.8703  0.8914
 6399TIP3    H240757   6.026   2.392   0.244 -0.8037  0.6006  0.7829
 6400TIP3   OH240758   0.721   3.577   2.824 -0.2021  0.4804 -0.2726
 6400TIP3    H140759   0.796   3.518   2.809 -0.3659 -0.2327  1.4845
 6400TIP3    H240760   0.750   3.661   2.789  0.9638 -0.0638 -0.6853
 6401TIP3   OH240761   0.390   3.296   1.027  0.5146 -0.5598 -0.3919
 6401TIP3    H140762   0.409   3.244   0.949  0.0919 -0.7526 -0.3666
 6401TIP3    H240763   0.376   3.231   1.096 -0.3730 -0.4200 -0.4412
 6402TIP3   OH240764   2.097   6.004   1.425  0.1858  0.0617 -0.6428
 6402TIP3    H140765   2.101   6.099   1.422 -1.2074  0.1564 -0.3913
 6402TIP3    H240766   2.080   5.978   1.335  0.0333  0.0895 -0.6223
 6403TIP3   OH240767   2.899   2.018   8.669 -0.0977  0.3752  0.1474
 6403TIP3    H140768   2.882   2.107   8.638  0.5139  1.0237  1.6169
 6403TIP3    H240769   2.826   1.966   8.634  0.1803  1.1785 -1.7626
 6404TIP3   OH240770   5.691   3.319   8.131 -0.3512 -0.4221 -1.0397
 6404TIP3    H140771   5.699   3.354   8.043 -1.0073  0.6798 -0.6721
 6404TIP3    H240772   5.597   3.311   8.146 -0.2572 -0.2562 -0.3112
 6405TIP3   OH240773   0.220   5.636   1.972  0.1258  0.2096 -0.8216
 6405TIP3    H140774   0.278   5.634   1.896  0.2043  0.8694 -0.7850
 6405TIP3    H240775   0.160   5.708   1.955  1.3336  1.6347  0.5877
 6406TIP3   OH240776   0.507   3.320   8.302  0.3814  0.8030  0.3953
 6406TIP3    H140777   0.583   3.309   8.244  0.0357  0.5923 -0.0201
 6406TIP3    H240778   0.534   3.280   8.384  0.0970 -0.8669 -0.2776
 6407TIP3   OH240779   2.864   3.278   7.823 -0.0414 -0.3542 -0.2919
 6407TIP3    H140780   2.774   3.267   7.793 -0.0606 -0.1144 -0.3211
 6407TIP3    H240781   2.918   3.254   7.747 -0.0932  0.8341 -0.7337
 6408TIP3   OH240782   4.003   3.398   2.391  0.2252 -0.1406 -0.3513
 6408TIP3    H140783   3.958   3.329   2.440  1.5357 -0.7646  0.0105
 6408TIP3    H240784   3.946   3.475   2.400 -0.1726 -0.5739  1.1056
 6409TIP3   OH240785   5.865   1.121   1.912  0.7682 -0.1904 -0.3051
 6409TIP3    H140786   5.889   1.212   1.929 -0.4257 -0.0613  0.8600
 6409TIP3    H240787   5.922   1.069   1.968  2.5194 -0.3119 -2.0818
 6410TIP3   OH240788   4.865   0.521   7.064  0.1552 -0.0177 -0.0090
 6410TIP3    H140789   4.902   0.586   7.004 -0.7231  0.2077 -0.3274
 6410TIP3    H240790   4.821   0.573   7.131  0.2311 -0.2794  0.2447
 6411TIP3   OH240791   3.594   6.831   0.905 -0.1026 -0.6634  0.2628
 6411TIP3    H140792   3.535   6.828   0.830  1.6893  0.1420 -1.2891
 6411TIP3    H240793   3.569   6.909   0.953  0.1782  0.1325 -0.8421
 6412TIP3   OH240794   2.169   1.610   2.315  0.1049 -0.0393 -0.4989
 6412TIP3    H140795   2.151   1.584   2.225  1.3866  1.0413 -1.1055
 6412TIP3    H240796   2.215   1.694   2.307  1.7660 -0.7250  1.0558
 6413TIP3   OH240797   6.109   6.404   1.451 -0.2079  0.4090  0.0683
 6413TIP3    H140798   6.161   6.355   1.515 -1.6422 -0.0266  0.9450
 6413TIP3    H240799   6.136   6.369   1.366 -0.4531 -1.1815  0.6174
 6414TIP3   OH240800   5.090   3.046   2.520  0.3015  0.9712  0.5148
 6414TIP3    H140801   5.065   3.136   2.540 -2.3956  0.8046 -1.5046
 6414TIP3    H240802   5.118   3.049   2.428 -0.2842 -0.2744  0.2681
 6415TIP3   OH240803   1.126   5.130   2.533 -0.1721 -0.1773  0.3197
 6415TIP3    H140804   1.041   5.089   2.550 -0.8804  1.6288  1.3870
 6415TIP3    H240805   1.133   5.198   2.599  1.1071  1.1775 -1.1485
 6416TIP3   OH240806   5.424   5.195   1.713 -0.0758 -0.0793 -0.2447
 6416TIP3    H140807   5.486   5.147   1.658  1.0781 -0.5362  1.4032
 6416TIP3    H240808   5.339   5.159   1.689  0.4713 -0.8514 -1.1210
 6417TIP3   OH240809   2.251   6.014   0.469 -0.2022 -0.2626  0.1682
 6417TIP3    H140810   2.185   6.046   0.531  0.3082  0.7227  0.2179
 6417TIP3    H240811   2.330   6.002   0.521  0.0781  0.0348 -0.1830
 6418TIP3   OH240812   5.237   3.653   0.176 -0.1941 -0.4492  0.1373
 6418TIP3    H140813   5.256   3.635   0.268  0.3505 -0.6998 -0.0193
 6418TIP3    H240814   5.159   3.708   0.177 -0.6586 -1.1197  0.7148
 6419TIP3   OH240815   6.063   2.703   1.175  0.1191 -0.0546 -0.0587
 6419TIP3    H140816   5.989   2.711   1.235 -1.7117  1.2862 -2.3463
 6419TIP3    H240817   6.066   2.610   1.152 -0.4461 -0.2191  0.5130
 6420TIP3   OH240818   4.346   4.571   2.015  0.2040  0.1797  0.2661
 6420TIP3    H140819   4.397   4.593   1.937 -0.0016  1.1542  0.3952
 6420TIP3    H240820   4.378   4.485   2.040 -0.0541 -0.3701 -1.1652
 6421TIP3   OH240821   4.143   6.702   0.287  0.4843 -0.0038  0.1839
 6421TIP3    H140822   4.166   6.795   0.293  1.8523 -0.2995 -0.2861
 6421TIP3    H240823   4.154   6.680   0.195  0.1651 -0.6406  0.2919
 6422TIP3   OH240824   1.929   1.926   2.877  0.5066  0.0723 -0.3513
 6422TIP3    H140825   1.903   2.018   2.871  1.6968  0.6449  2.2662
 6422TIP3    H240826   1.849   1.881   2.905  0.6390  0.8004  1.2836
 6423TIP3   OH240827   1.271   5.808   0.143  0.2954  0.0473 -0.3827
 6423TIP3    H140828   1.253   5.882   0.084 -1.5239 -0.2118 -0.2095
 6423TIP3    H240829   1.218   5.737   0.108  0.9834 -0.7958  0.2536
 6424TIP3   OH240830   0.671   3.401   1.016  0.0031 -0.3971 -0.6918
 6424TIP3    H140831   0.701   3.492   1.009  0.3285 -0.4069  0.3822
 6424TIP3    H240832   0.583   3.401   0.978  0.2001  0.2570 -1.1616
 6425TIP3   OH240833   3.130   2.547   7.759 -0.2637 -0.6494 -0.5642
 6425TIP3    H140834   3.065   2.559   7.689 -0.5608  0.5272 -0.1055
 6425TIP3    H240835   3.101   2.604   7.829  0.8529 -0.6907 -0.0449
 6426TIP3   OH240836   1.061   3.467   7.769 -0.3211 -0.0116 -0.6442
 6426TIP3    H140837   1.052   3.537   7.833 -1.0645  0.8866 -1.7017
 6426TIP3    H240838   0.993   3.484   7.704  1.6303  0.2723 -2.7365
 6427TIP3   OH240839   5.564   6.137   0.566 -0.8470  0.0669 -0.3839
 6427TIP3    H140840   5.646   6.120   0.519 -1.4184  1.0865 -1.7981
 6427TIP3    H240841   5.591   6.144   0.658  1.1328  3.0942 -1.0800
 6428TIP3   OH240842   2.068   6.241   2.259  0.1675 -0.0793 -0.1857
 6428TIP3    H140843   2.003   6.267   2.194  0.8310 -0.7656 -1.1492
 6428TIP3    H240844   2.050   6.297   2.335 -0.5498  0.8116 -0.9916
 6429TIP3   OH240845   0.157   2.003   2.200 -0.3071 -0.0688 -0.7501
 6429TIP3    H140846   0.238   1.964   2.234 -0.2093 -0.4148 -1.3715
 6429TIP3    H240847   0.142   2.079   2.257 -0.8022 -1.3007  0.8408
 6430TIP3   OH240848   4.500   6.262   2.066 -0.0121 -0.0811  0.3410
 6430TIP3    H140849   4.524   6.200   2.136 -0.1635 -1.3445 -0.6936
 6430TIP3    H240850   4.419   6.302   2.097  0.7761  0.6208  1.6316
 6431TIP3   OH240851   0.088   5.348   7.104  0.5236 -0.2740 -0.2863
 6431TIP3    H140852   0.009   5.375   7.152 -0.0218 -0.9300 -0.7905
 6431TIP3    H240853   0.160   5.391   7.150  0.0887 -1.2709  1.4519
 6432TIP3   OH240854   3.150   4.497   1.511 -0.1873  0.2268 -0.0220
 6432TIP3    H140855   3.067   4.449   1.515 -0.0868  0.0442 -0.1024
 6432TIP3    H240856   3.146   4.547   1.429 -0.6106  0.9477  0.4290
 6433TIP3   OH240857   2.732   0.904   0.226  0.5189  0.2813 -0.3818
 6433TIP3    H140858   2.780   0.912   0.144 -0.0991 -0.0367 -0.7836
 6433TIP3    H240859   2.670   0.978   0.225 -0.1243 -0.2483 -0.6436
 6434TIP3   OH240860   3.364   4.311   1.577 -0.4551  0.4460  0.1613
 6434TIP3    H140861   3.279   4.339   1.542 -0.5009  1.5155  1.0686
 6434TIP3    H240862   3.391   4.382   1.635  1.0829  0.1347 -0.1233
 6435TIP3   OH240863   1.540   4.964   1.197 -0.1341 -0.4887  0.2836
 6435TIP3    H140864   1.570   5.017   1.271 -0.1740  0.5897 -0.4573
 6435TIP3    H240865   1.614   4.907   1.177 -0.0254 -0.5956  0.9790
 6436TIP3   OH240866   4.383   3.247   1.358 -0.2384  0.6603  0.8124
 6436TIP3    H140867   4.418   3.256   1.447 -1.8448  0.4228  1.4999
 6436TIP3    H240868   4.340   3.331   1.341  1.5772  1.4050 -0.4917
 6437TIP3   OH240869   0.588   2.830   0.857  0.1192  0.0323  0.5413
 6437TIP3    H140870   0.617   2.744   0.827 -0.4788  0.0615 -0.1612
 6437TIP3    H240871   0.575   2.820   0.951 -2.7692 -1.5119  0.0759
 6438TIP3   OH240872   3.692   4.978   7.400 -0.2418  0.0782  0.4166
 6438TIP3    H140873   3.784   4.979   7.425  0.4042 -1.1029 -1.6893
 6438TIP3    H240874   3.682   5.049   7.338 -0.1208 -1.2419 -1.1911
 6439TIP3   OH240875   0.608   3.134   0.373 -0.5348  0.3950 -0.4856
 6439TIP3    H140876   0.690   3.164   0.335 -0.1757  1.3137  0.9322
 6439TIP3    H240877   0.547   3.206   0.358 -1.2049 -0.4065 -1.8033
 6440TIP3   OH240878   4.102   1.517   1.094 -0.1531 -0.4130 -0.3403
 6440TIP3    H140879   4.090   1.595   1.040 -0.9038  0.4344  0.9753
 6440TIP3    H240880   4.185   1.532   1.140 -0.5114 -0.1610  0.2401
 6441TIP3   OH240881   5.938   1.014   6.856 -0.4485  0.5750 -0.1265
 6441TIP3    H140882   5.996   1.007   6.932  0.7265  3.2630 -0.6410
 6441TIP3    H240883   5.919   0.923   6.832  1.1328 -0.3791  1.8827
 6442TIP3   OH240884   6.713   2.398   8.187  0.3901 -0.5772  0.0955
 6442TIP3    H140885   6.759   2.448   8.254  1.1633  1.1019 -1.5957
 6442TIP3    H240886   6.782   2.361   8.133 -0.2081 -2.4143  0.5249
 6443TIP3   OH240887   5.688   6.540   6.973  0.0647  0.6934  0.1334
 6443TIP3    H140888   5.612   6.482   6.979  1.4066 -1.2768 -0.6280
 6443TIP3    H240889   5.664   6.618   7.023 -1.4803 -0.9087  2.0390
 6444TIP3   OH240890   2.461   4.650   0.132 -0.0997  0.2378  0.6169
 6444TIP3    H140891   2.403   4.662   0.056  1.1861 -0.3517 -0.4979
 6444TIP3    H240892   2.507   4.568   0.114  1.7070  1.1217  1.0437
 6445TIP3   OH240893   6.698   5.140   0.836  0.3410 -0.0335  0.9083
 6445TIP3    H140894   6.788   5.115   0.859  1.0095  1.4907  0.1045
 6445TIP3    H240895   6.669   5.070   0.777  1.5101  0.1297  0.0957
 6446TIP3   OH240896   2.834   3.817   8.605  0.5072  0.0525  0.8371
 6446TIP3    H140897   2.840   3.913   8.602  1.7942 -0.0409 -0.2864
 6446TIP3    H240898   2.787   3.793   8.525 -0.3678 -0.2428  1.4211
 6447TIP3   OH240899   5.423   5.825   1.793 -0.2373  0.0246  0.2079
 6447TIP3    H140900   5.472   5.760   1.743 -0.3834 -0.0330  0.1390
 6447TIP3    H240901   5.447   5.807   1.884 -0.4494 -0.2760  0.2086
 6448TIP3   OH240902   6.794   4.089   7.116 -0.0695  0.1579 -0.0202
 6448TIP3    H140903   6.699   4.097   7.111  0.0413  0.9902 -2.2546
 6448TIP3    H240904   6.821   4.162   7.172 -0.7775 -0.8067  1.6490
 6449TIP3   OH240905   2.361   5.122   1.200  0.3195 -0.2077  0.5421
 6449TIP3    H140906   2.311   5.164   1.270 -0.6952 -2.9444  1.5956
 6449TIP3    H240907   2.445   5.100   1.241  1.8590  2.7675 -0.7114
 6450TIP3   OH240908   3.398   3.880   8.313  0.5463  0.1770  0.4294
 6450TIP3    H140909   3.437   3.858   8.398  0.3539 -0.5232  0.3426
 6450TIP3    H240910   3.446   3.958   8.285 -0.0084  0.9750  1.5931
 6451TIP3   OH240911   3.439   3.694   1.914 -0.1346 -0.4041 -0.6355
 6451TIP3    H140912   3.464   3.635   1.843  1.5300 -1.3043  0.6306
 6451TIP3    H240913   3.366   3.650   1.958  0.9760 -1.4805  0.1863
 6452TIP3   OH240914   1.560   1.422   2.157 -0.0030 -0.2000 -0.1748
 6452TIP3    H140915   1.592   1.497   2.207 -5.4357  1.1795  1.9506
 6452TIP3    H240916   1.603   1.347   2.196  0.5919  1.3575  2.3797
 6453TIP3   OH240917   2.344   1.047   8.259 -0.4722  0.3044  0.2854
 6453TIP3    H140918   2.264   0.996   8.273 -0.4520  0.7716  2.6409
 6453TIP3    H240919   2.319   1.115   8.197 -1.3133 -0.7823 -0.5940
 6454TIP3   OH240920   0.627   4.224   1.407 -0.9913  0.1740 -0.3597
 6454TIP3    H140921   0.682   4.295   1.441  1.8479 -1.9809 -0.0255
 6454TIP3    H240922   0.589   4.259   1.327 -1.9316  2.9233  1.1589
 6455TIP3   OH240923   1.507   3.919   8.199  0.2960  0.3302  0.5141
 6455TIP3    H140924   1.516   3.923   8.103 -1.5095 -1.1684  0.2165
 6455TIP3    H240925   1.446   3.990   8.219  1.8889  1.6878  0.8182
 6456TIP3   OH240926   4.661   0.622   0.450 -0.2306  0.2838 -0.4104
 6456TIP3    H140927   4.584   0.565   0.450 -0.6305  0.7889 -1.9261
 6456TIP3    H240928   4.735   0.563   0.456 -0.6865 -0.1683  2.8019
 6457TIP3   OH240929   1.350   6.645   1.228  0.4620 -0.1197  0.2457
 6457TIP3    H140930   1.350   6.578   1.297  0.4446  1.7370  2.1484
 6457TIP3    H240931   1.431   6.630   1.180  0.5793 -1.3396  0.7897
 6458TIP3   OH240932   5.774   1.232   1.438  0.3153  0.0255  0.2714
 6458TIP3    H140933   5.757   1.149   1.394 -0.3309 -1.1782  2.6512
 6458TIP3    H240934   5.864   1.224   1.471 -0.6216 -0.9070  2.7940
 6459TIP3   OH240935   3.999   2.060   1.629  0.2179 -0.3154 -0.1791
 6459TIP3    H140936   3.951   2.136   1.594 -0.3620 -0.0783  1.0516
 6459TIP3    H240937   4.050   2.027   1.555 -0.2720  0.6880 -0.9915
 6460TIP3   OH240938   1.451   2.071   7.536 -0.2474  0.6841  0.0414
 6460TIP3    H140939   1.372   2.021   7.516  0.3260  0.4860 -1.9933
 6460TIP3    H240940   1.434   2.158   7.498  0.2469  0.8473  0.1833
 6461TIP3   OH240941   1.167   5.353   2.690 -0.0942  0.1800  0.6902
 6461TIP3    H140942   1.263   5.350   2.683 -0.0161  0.3290  1.5910
 6461TIP3    H240943   1.143   5.436   2.649  0.2237  0.4506  1.0455
 6462TIP3   OH240944   0.897   1.500   7.930 -0.4725 -0.0628 -0.0192
 6462TIP3    H140945   0.891   1.420   7.878  0.0744 -0.7977  0.9973
 6462TIP3    H240946   0.852   1.478   8.012  1.3088  0.0130  1.0211
 6463TIP3   OH240947   1.666   1.898   1.114  0.0483  0.4896  0.3102
 6463TIP3    H140948   1.687   1.933   1.027  1.0259  0.4996  0.5417
 6463TIP3    H240949   1.578   1.861   1.104  0.8312 -1.0869 -1.1759
 6464TIP3   OH240950   4.216   5.024   1.157  0.0555  0.2767  0.2955
 6464TIP3    H140951   4.179   5.019   1.246 -0.2670  1.0304  0.2197
 6464TIP3    H240952   4.307   4.999   1.167 -0.1663 -0.3847  0.7121
 6465TIP3   OH240953   2.910   1.108   1.545  0.2824  0.2020 -0.2444
 6465TIP3    H140954   2.890   1.021   1.578 -0.7343  0.8115  0.8431
 6465TIP3    H240955   2.874   1.110   1.456 -0.7580 -0.1101  0.1574
 6466TIP3   OH240956   1.947   3.493   1.522 -0.3078  0.2217 -0.7668
 6466TIP3    H140957   2.031   3.533   1.503  0.2302 -0.4686  0.0582
 6466TIP3    H240958   1.884   3.542   1.470  0.6316  0.6091 -1.5652
 6467TIP3   OH240959   4.203   0.628   8.255  0.2709  0.1802  0.1933
 6467TIP3    H140960   4.201   0.568   8.329  2.2587  1.5943  1.5133
 6467TIP3    H240961   4.286   0.611   8.211  0.7438  1.6898  0.4176
 6468TIP3   OH240962   2.491   2.093   8.697 -0.3223  0.3481 -0.4658
 6468TIP3    H140963   2.427   2.165   8.699 -2.2300 -1.2616 -0.2889
 6468TIP3    H240964   2.504   2.075   8.604 -2.2419 -1.0063 -0.5404
 6469TIP3   OH240965   3.949   5.078   7.500  0.0238  0.4140 -0.6621
 6469TIP3    H140966   4.027   5.112   7.456  1.3669 -1.3711  0.2108
 6469TIP3    H240967   3.979   5.056   7.588 -1.9949  1.5610  0.4023
 6470TIP3   OH240968   0.979   1.466   8.632 -0.3710 -0.5119 -0.0112
 6470TIP3    H140969   0.953   1.533   8.695 -1.0676 -0.4776 -0.3190
 6470TIP3    H240970   1.021   1.399   8.684 -3.6037 -1.9337  1.0269
 6471TIP3   OH240971   3.211   3.431   8.095 -0.0900 -0.2857 -0.5895
 6471TIP3    H140972   3.122   3.411   8.125 -0.5798  1.8531 -0.4188
 6471TIP3    H240973   3.223   3.378   8.017 -1.4830 -0.6919 -0.5510
 6472TIP3   OH240974   1.709   1.018   1.079 -0.0269  0.2016 -0.5685
 6472TIP3    H140975   1.617   1.026   1.056 -0.1155  1.2326  0.0848
 6472TIP3    H240976   1.751   0.983   1.001 -0.7378  1.1857 -1.4170
 6473TIP3   OH240977   2.207   1.939   7.398  0.6909 -0.1842 -0.2800
 6473TIP3    H140978   2.197   1.993   7.319  1.0848 -1.3120 -1.1270
 6473TIP3    H240979   2.147   1.865   7.385  0.2203 -0.0245  0.8240
 6474TIP3   OH240980   0.019   2.490   7.588  0.5769 -0.5969  0.2348
 6474TIP3    H140981   0.022   2.570   7.536 -2.6222  0.0451  0.8215
 6474TIP3    H240982   0.028   2.419   7.524 -2.0599  0.2059 -1.2052
 6475TIP3   OH240983   3.815   5.806   1.575 -0.9670  0.0127 -0.2358
 6475TIP3    H140984   3.775   5.875   1.629  2.1652  2.5853 -0.8606
 6475TIP3    H240985   3.878   5.763   1.633 -1.2667 -0.7782 -0.4842
 6476TIP3   OH240986   2.700   3.869   7.970 -0.4532  0.1895  0.2507
 6476TIP3    H140987   2.672   3.792   7.920  1.1786  0.8133 -1.8243
 6476TIP3    H240988   2.630   3.885   8.032 -2.0571 -1.4110 -1.0355
 6477TIP3   OH240989   1.036   0.293   6.725  0.5670  0.1834 -0.0097
 6477TIP3    H140990   0.969   0.355   6.697  0.4541 -0.5713 -1.5240
 6477TIP3    H240991   1.005   0.208   6.692  0.1654 -0.9147  2.9317
 6478TIP3   OH240992   6.064   0.026   2.470  0.1505  0.4785  0.0630
 6478TIP3    H140993   6.010   0.105   2.470  0.4031  0.6508  0.1890
 6478TIP3    H240994   6.154   0.058   2.465  0.2551  0.2007  0.1496
 6479TIP3   OH240995   4.300   1.627   1.244 -0.4056 -0.0672  0.5432
 6479TIP3    H140996   4.263   1.657   1.327  1.2923  0.7478  1.0682
 6479TIP3    H240997   4.380   1.580   1.269  0.2794  0.4285 -0.6158
 6480TIP3   OH240998   3.066   3.921   1.997  0.1336  0.3929  0.6123
 6480TIP3    H140999   3.041   3.937   1.906  1.4473 -1.3727 -0.1287
 6480TIP3    H241000   2.988   3.942   2.048 -0.9609  0.4558 -1.0193
 6481TIP3   OH241001   2.504   4.526   6.620 -0.3289  0.0015  0.5391
 6481TIP3    H141002   2.409   4.540   6.626 -0.3949  0.3397 -0.9830
 6481TIP3    H241003   2.512   4.432   6.604 -0.7606  0.4801 -3.8709
 6482TIP3   OH241004   0.031   2.282   8.018  0.0526 -0.0355  0.7764
 6482TIP3    H141005   0.047   2.189   8.031 -1.0807 -0.4920 -0.7679
 6482TIP3    H241006   0.054   2.298   7.926 -2.3342  0.5556  0.2108
 6483TIP3   OH241007   0.777   4.239   0.815  0.3456 -0.2878  0.4016
 6483TIP3    H141008   0.729   4.157   0.803  0.1029  0.0660 -1.3776
 6483TIP3    H241009   0.711   4.308   0.799  0.6961  0.2458  1.2146
 6484TIP3   OH241010   6.397   5.510   1.824  0.3626 -0.0006 -0.5589
 6484TIP3    H141011   6.468   5.476   1.879 -0.4031 -0.2129  0.3230
 6484TIP3    H241012   6.360   5.432   1.783  0.2501  0.0448 -0.5436
 6485TIP3   OH241013   0.786   2.364   8.298 -0.0047  0.2019 -0.1830
 6485TIP3    H141014   0.717   2.430   8.288  0.3186  0.6875  0.6665
 6485TIP3    H241015   0.843   2.399   8.367  0.2875 -0.8748  0.1440
 6486TIP3   OH241016   3.158   2.062   2.207  0.5374  0.0053  0.1915
 6486TIP3    H141017   3.171   2.143   2.159 -0.7666  1.2156  1.7386
 6486TIP3    H241018   3.198   2.078   2.293  0.8671 -1.2509  0.2973
 6487TIP3   OH241019   2.088   2.361   7.046 -0.4240  0.3917 -0.2747
 6487TIP3    H141020   2.165   2.362   6.990  0.3810 -1.0539  0.7514
 6487TIP3    H241021   2.083   2.450   7.082  1.1606  0.3206  0.1795
 6488TIP3   OH241022   1.879   5.977   2.115 -0.1477  0.2342  0.3508
 6488TIP3    H141023   1.880   6.008   2.025  1.4955  0.2074  0.3318
 6488TIP3    H241024   1.834   6.047   2.164 -2.9094 -0.6592 -0.7328
 6489TIP3   OH241025   2.849   6.004   8.280 -0.6653 -0.2196 -0.0055
 6489TIP3    H141026   2.771   6.012   8.335 -1.4905 -1.2454 -0.9728
 6489TIP3    H241027   2.815   5.979   8.194  0.6699  0.2977 -0.7106
 6490TIP3   OH241028   2.574   4.710   7.522  0.8786  0.2985  0.8344
 6490TIP3    H141029   2.604   4.780   7.581 -0.1347  1.5628 -0.0798
 6490TIP3    H241030   2.654   4.678   7.480  1.6870 -0.9431  3.1482
 6491TIP3   OH241031   1.422   1.474   7.692 -0.0162 -0.5997 -0.7923
 6491TIP3    H141032   1.507   1.461   7.734 -0.9646  0.0947  1.4650
 6491TIP3    H241033   1.422   1.567   7.666 -0.0081 -0.6526 -0.9831
 6492TIP3   OH241034   3.893   3.063   1.690  0.1277  0.5801  0.5107
 6492TIP3    H141035   3.969   3.086   1.638  2.2319 -0.3889  2.9503
 6492TIP3    H241036   3.906   3.108   1.773 -1.7572  0.0566  1.1433
 6493TIP3   OH241037   4.505   3.488   0.328 -0.1251 -0.3436 -0.1311
 6493TIP3    H141038   4.515   3.482   0.233 -1.2126  1.8381 -0.4447
 6493TIP3    H241039   4.412   3.503   0.342 -0.1962 -1.8588  1.4161
 6494TIP3   OH241040   4.506   0.346   0.424  0.3254  0.0320 -0.1609
 6494TIP3    H141041   4.430   0.365   0.370  0.3706 -1.3363 -0.7498
 6494TIP3    H241042   4.482   0.267   0.473  1.3124 -0.3483 -0.2688
 6495TIP3   OH241043   5.334   4.838   0.998 -0.1532 -0.1167  0.0454
 6495TIP3    H141044   5.257   4.874   1.041  1.2008  1.6124  1.2058
 6495TIP3    H241045   5.358   4.904   0.933  0.3768 -0.5801 -0.2304
 6496TIP3   OH241046   1.123   0.957   2.834  0.0645 -0.0161  0.5023
 6496TIP3    H141047   1.171   0.951   2.917  2.4538  0.3430 -0.7703
 6496TIP3    H241048   1.132   0.870   2.795  2.3477  0.8344 -1.0665
 6497TIP3   OH241049   4.567   1.359   0.592  0.2370 -0.5395 -0.0242
 6497TIP3    H141050   4.533   1.395   0.510 -1.1950 -3.0698 -0.6311
 6497TIP3    H241051   4.512   1.398   0.660  0.6693  0.6587 -0.3310
 6498TIP3   OH241052   2.800   5.924   0.093 -0.0854  0.1206  0.1618
 6498TIP3    H141053   2.796   5.832   0.070  1.2813  0.2569 -0.7187
 6498TIP3    H241054   2.713   5.958   0.071 -0.0238 -0.5688 -1.2592
 6499TIP3   OH241055   4.810   0.836   1.762 -0.0183  0.4464  0.2409
 6499TIP3    H141056   4.859   0.771   1.813 -0.2760  0.9579  1.1687
 6499TIP3    H241057   4.737   0.786   1.725 -0.4475  0.2637  1.2826
 6500TIP3   OH241058   0.861   6.085   6.828  0.1585  0.0092 -0.4980
 6500TIP3    H141059   0.850   6.142   6.752 -1.6919  1.8337  1.0392
 6500TIP3    H241060   0.775   6.046   6.842  0.0176  0.9318  1.5396
 6501TIP3   OH241061   6.464   3.596   2.337 -0.8494  0.3287  0.4657
 6501TIP3    H141062   6.556   3.596   2.365 -1.0610  0.3811  1.1668
 6501TIP3    H241063   6.448   3.506   2.309 -0.6929  0.2296  0.6927
 6502TIP3   OH241064   1.083   5.283   1.569  0.3523  0.4427  0.7654
 6502TIP3    H141065   1.058   5.244   1.653  1.0263 -0.5234  0.5436
 6502TIP3    H241066   1.097   5.207   1.512  0.1130  1.0839 -0.1555
 6503TIP3   OH241067   0.812   5.741   0.883 -0.2031  0.7668  0.2622
 6503TIP3    H141068   0.781   5.812   0.938 -0.0082  0.5587  0.6422
 6503TIP3    H241069   0.837   5.672   0.944 -2.7304 -0.6318 -0.1212
 6504TIP3   OH241070   4.353   1.253   7.932  0.0384  0.1228  0.5614
 6504TIP3    H141071   4.444   1.225   7.937  0.5155  1.6950  1.2195
 6504TIP3    H241072   4.303   1.172   7.941  1.3324 -0.5466  2.2647
 6505TIP3   OH241073   0.039   2.216   7.453 -0.8562 -0.3869  0.6997
 6505TIP3    H141074  -0.047   2.175   7.458 -0.2742 -1.6378  0.9395
 6505TIP3    H241075   0.095   2.160   7.507 -0.2816  1.4859  2.1302
 6506TIP3   OH241076   5.374   0.877   2.743 -0.5579  0.3996  0.3839
 6506TIP3    H141077   5.393   0.913   2.656 -1.5510  1.3285  0.5252
 6506TIP3    H241078   5.330   0.794   2.725  1.0758 -0.4306  0.0411
 6507TIP3   OH241079   6.644   6.268   0.443  0.2321  0.1767 -0.0635
 6507TIP3    H141080   6.705   6.318   0.388  1.2083  0.6970  1.4389
 6507TIP3    H241081   6.579   6.332   0.472  1.1127  0.4917  1.3295
 6508TIP3   OH241082   5.175   2.277   0.490  0.3049  0.1762 -0.4761
 6508TIP3    H141083   5.195   2.370   0.479  0.1626  0.2233 -0.3381
 6508TIP3    H241084   5.260   2.236   0.507  0.5352  0.1040 -1.6842
 6509TIP3   OH241085   4.858   2.537   0.548  1.0527 -0.7487  0.0725
 6509TIP3    H141086   4.808   2.490   0.482  1.2359  0.0451 -0.6560
 6509TIP3    H241087   4.941   2.558   0.505 -0.0489  2.6796 -0.7083
 6510TIP3   OH241088   1.567   0.170   8.605 -0.8411  0.4416 -0.1396
 6510TIP3    H141089   1.535   0.170   8.515  1.0882  2.6524 -0.9135
 6510TIP3    H241090   1.585   0.262   8.624  2.6130 -0.3397  1.0491
 6511TIP3   OH241091   1.460   4.734   7.558 -0.5954 -0.0067 -0.3398
 6511TIP3    H141092   1.465   4.797   7.486  2.9991 -0.4365 -0.6464
 6511TIP3    H241093   1.433   4.652   7.517  0.6991 -0.0701 -1.1090
 6512TIP3   OH241094   3.007   5.058   0.176 -0.6227 -0.3277 -0.1458
 6512TIP3    H141095   3.022   5.003   0.098 -1.1076  0.5022 -0.8462
 6512TIP3    H241096   2.914   5.079   0.171 -0.5264  0.2074  0.3516
 6513TIP3   OH241097   4.754   6.221   0.770  0.0690  0.4798  0.0963
 6513TIP3    H141098   4.814   6.215   0.845  2.2441  0.9230 -1.4818
 6513TIP3    H241099   4.736   6.315   0.762 -0.6903  0.3658  0.4456
 6514TIP3   OH241100   3.867   3.775   0.340  0.0976  0.0617 -0.0727
 6514TIP3    H141101   3.815   3.702   0.306 -1.4284 -0.1637  2.4634
 6514TIP3    H241102   3.816   3.853   0.317 -1.2243 -0.1272  1.9993
 6515TIP3   OH241103   5.226   0.357   2.501 -0.2785 -0.3111  0.1849
 6515TIP3    H141104   5.318   0.369   2.477 -0.6780 -1.1726 -1.9910
 6515TIP3    H241105   5.225   0.360   2.597  1.8228  0.9006  0.2187
 6516TIP3   OH241106   6.198   2.328   1.466  0.2748  0.1900 -0.5417
 6516TIP3    H141107   6.119   2.380   1.478 -0.9840 -1.7874  0.2181
 6516TIP3    H241108   6.182   2.247   1.515  1.9097 -1.1540 -2.0646
 6517TIP3   OH241109   4.005   4.620   8.116  0.0833 -0.1341 -0.3678
 6517TIP3    H141110   4.096   4.609   8.089  0.0761 -3.2147  0.5596
 6517TIP3    H241111   3.954   4.610   8.036  0.4385 -1.5552 -0.4402
 6518TIP3   OH241112   6.442   2.056   1.592 -0.5088 -0.2380 -0.0701
 6518TIP3    H141113   6.529   2.087   1.616 -0.9197  1.3989 -0.5713
 6518TIP3    H241114   6.456   1.966   1.562  0.6441 -0.8325  2.0202
 6519TIP3   OH241115   1.243   5.745   0.668  0.5622 -0.0589  0.3185
 6519TIP3    H141116   1.282   5.709   0.588 -0.8488  0.4367 -0.6284
 6519TIP3    H241117   1.284   5.831   0.677  0.3563  0.0982 -0.1804
 6520TIP3   OH241118   1.261   5.670   1.565 -0.1539 -0.7945 -0.3778
 6520TIP3    H141119   1.249   5.742   1.628 -3.8614 -0.8100 -0.8426
 6520TIP3    H241120   1.276   5.593   1.620 -1.3635 -0.4785  0.4457
 6521TIP3   OH241121   0.445   3.618   0.862  0.5381  0.1100 -0.5763
 6521TIP3    H141122   0.527   3.632   0.910 -0.0104 -1.4697  0.9025
 6521TIP3    H241123   0.470   3.561   0.789  0.2754 -3.4974  1.9168
 6522TIP3   OH241124   0.019   1.494   1.846  0.2765  0.2631  0.0387
 6522TIP3    H141125  -0.029   1.474   1.766  0.3207 -0.1152  0.1033
 6522TIP3    H241126  -0.043   1.542   1.901  0.6168  1.5859 -0.6973
 6523TIP3   OH241127   1.901   3.325   7.370 -0.5773  0.2973 -0.2838
 6523TIP3    H141128   1.963   3.369   7.312 -0.1581 -1.9842 -1.7076
 6523TIP3    H241129   1.829   3.387   7.380  0.6333  1.8782 -0.9084
 6524TIP3   OH241130   3.407   2.328   8.435  0.0797  0.5084 -0.5171
 6524TIP3    H141131   3.404   2.412   8.390 -0.2095  1.9116  1.9598
 6524TIP3    H241132   3.495   2.295   8.421  0.1214  1.1010 -1.6991
 6525TIP3   OH241133   3.063   4.195   7.790  0.5848 -0.0249  0.1390
 6525TIP3    H141134   2.986   4.152   7.829  0.8222 -1.3817 -0.8317
 6525TIP3    H241135   3.056   4.175   7.696  2.5967 -0.9606  0.1501
 6526TIP3   OH241136   3.333   2.811   0.961 -0.4404  0.0646 -0.1121
 6526TIP3    H141137   3.331   2.860   1.043  0.1277 -0.8186  0.4424
 6526TIP3    H241138   3.247   2.768   0.957 -1.4680  2.0662 -1.2408
 6527TIP3   OH241139   5.873   0.992   0.237  0.0523  0.2858 -0.0221
 6527TIP3    H141140   5.951   0.937   0.232  0.0954  0.0807  1.9729
 6527TIP3    H241141   5.825   0.973   0.156  0.0399 -2.7914  0.5575
 6528TIP3   OH241142   1.216   6.564   8.249 -0.4343  0.1960  0.0977
 6528TIP3    H141143   1.153   6.510   8.201 -0.5980  0.4139  0.0646
 6528TIP3    H241144   1.301   6.527   8.226 -0.5878 -0.5405  0.6919
 6529TIP3   OH241145   6.674   6.332   2.493  0.4131 -0.7663  0.0301
 6529TIP3    H141146   6.699   6.247   2.530  1.7281 -0.2352  0.4353
 6529TIP3    H241147   6.636   6.380   2.566  1.2516 -0.4061  0.2438
 6530TIP3   OH241148   5.786   4.076   8.427  0.4395  0.3560 -0.2012
 6530TIP3    H141149   5.835   4.123   8.359 -0.3909  0.5884 -0.6580
 6530TIP3    H241150   5.767   3.991   8.389  0.2227  0.3790 -0.1454
 6531TIP3   OH241151   2.895   0.354   1.822  0.0183  0.6694  0.3244
 6531TIP3    H141152   2.931   0.395   1.743 -0.9679 -1.1693 -1.1439
 6531TIP3    H241153   2.968   0.304   1.858  0.0674  0.2966 -0.2858
 6532TIP3   OH241154   6.332   4.613   8.039  0.4922  0.2491 -0.2470
 6532TIP3    H141155   6.252   4.565   8.060 -2.2136  3.4818 -2.0835
 6532TIP3    H241156   6.369   4.637   8.124 -2.3091  1.2691  0.8172
 6533TIP3   OH241157   3.441   2.173   8.650  0.3291 -0.0843 -0.3952
 6533TIP3    H141158   3.433   2.220   8.567  1.1848  2.3214  0.7770
 6533TIP3    H241159   3.351   2.159   8.680  0.0068  2.0732 -0.1883
 6534TIP3   OH241160   4.021   5.539   0.291  0.2529 -0.4426 -0.8964
 6534TIP3    H141161   3.978   5.619   0.321  0.5096 -0.7639  0.3770
 6534TIP3    H241162   3.971   5.513   0.214 -0.6493  0.2332 -0.5582
 6535TIP3   OH241163   2.524   4.388   2.315  0.5181  0.5962  0.1355
 6535TIP3    H141164   2.502   4.437   2.236  0.2537 -0.2184 -0.3155
 6535TIP3    H241165   2.615   4.362   2.302 -0.2189 -1.6366 -1.0914
 6536TIP3   OH241166   0.800   1.415   8.163  0.0253  0.3281 -0.0570
 6536TIP3    H141167   0.854   1.335   8.158 -1.8932 -1.0473  0.0525
 6536TIP3    H241168   0.801   1.438   8.256 -0.0669 -0.0676  0.0467
 6537TIP3   OH241169   0.745   0.909   1.223 -0.4760  0.6006  0.3510
 6537TIP3    H141170   0.762   0.904   1.129 -0.4289 -0.2143  0.3978
 6537TIP3    H241171   0.768   0.999   1.247 -0.5774  0.8367 -0.4320
 6538TIP3   OH241172   0.178   6.191   1.984 -0.2954 -0.0097  0.0502
 6538TIP3    H141173   0.125   6.204   2.062 -1.2884 -1.5537 -0.3147
 6538TIP3    H241174   0.117   6.158   1.918  0.9014 -0.7468 -0.7408
 6539TIP3   OH241175   1.625   5.035   2.225  0.3731 -0.0121  0.4366
 6539TIP3    H141176   1.632   5.089   2.305  0.2843 -0.4226  0.7247
 6539TIP3    H241177   1.715   5.017   2.201  0.4388  1.1396 -0.2682
 6540TIP3   OH241178   6.233   4.362   1.274 -0.2407  0.2113  0.0450
 6540TIP3    H141179   6.217   4.323   1.360 -1.2296  1.4867  0.4641
 6540TIP3    H241180   6.162   4.328   1.218 -0.3298  0.3680  0.0627
 6541TIP3   OH241181   4.230   4.245   8.178  0.1445 -0.7997  0.0306
 6541TIP3    H141182   4.142   4.245   8.215  0.5782 -0.2059  1.0907
 6541TIP3    H241183   4.221   4.294   8.096  0.1603  2.6011  1.8934
 6542TIP3   OH241184   6.517   2.192   2.236  0.5877 -0.0960 -0.0564
 6542TIP3    H141185   6.518   2.286   2.220  1.3022  0.1011  1.0151
 6542TIP3    H241186   6.461   2.181   2.313 -1.1704 -0.7944 -1.3613
 6543TIP3   OH241187   2.044   5.835   0.385 -0.4830 -0.1196  0.6706
 6543TIP3    H141188   2.119   5.893   0.403  1.7691 -1.8696 -2.1346
 6543TIP3    H241189   2.061   5.758   0.439  1.8342 -1.9349 -2.2709
 6544TIP3   OH241190   6.561   2.649   1.091  0.3931 -0.4399  0.4011
 6544TIP3    H141191   6.600   2.673   1.175  1.8787  0.6159 -0.5393
 6544TIP3    H241192   6.622   2.682   1.025 -0.9888 -0.7566 -1.1249
 6545TIP3   OH241193   4.496   6.710   1.747  0.2383  0.9514  0.1074
 6545TIP3    H141194   4.545   6.786   1.716 -1.2107  0.5237 -3.8351
 6545TIP3    H241195   4.524   6.639   1.690 -0.0993 -0.9786  2.2127
 6546TIP3   OH241196   4.788   1.249   0.057  0.2199  0.3540  0.3733
 6546TIP3    H141197   4.842   1.196   0.115 -0.8471 -0.8229  0.3304
 6546TIP3    H241198   4.756   1.321   0.112 -0.2999 -0.4200  1.0956
 6547TIP3   OH241199   3.975   1.112   7.309 -0.4730 -0.4546 -0.0212
 6547TIP3    H141200   4.067   1.136   7.295 -0.5776  1.0094  1.4226
 6547TIP3    H241201   3.964   1.116   7.404 -2.3953  0.9234 -0.2367
 6548TIP3   OH241202   1.618   4.634   0.175 -0.1572  0.2372 -0.2667
 6548TIP3    H141203   1.603   4.540   0.185 -1.4113  0.6284  2.1131
 6548TIP3    H241204   1.695   4.652   0.229 -0.3901  0.6873 -0.0815
 6549TIP3   OH241205   3.252   0.073   1.838  0.4887  0.2574 -0.3090
 6549TIP3    H141206   3.226   0.119   1.758  0.2053 -0.7110 -0.7834
 6549TIP3    H241207   3.192  -0.002   1.843  2.8699 -1.8422 -1.2356
 6550TIP3   OH241208   3.647   5.597   0.514  0.2076  0.0507  0.2409
 6550TIP3    H141209   3.565   5.628   0.476 -0.1507 -2.0498 -0.8114
 6550TIP3    H241210   3.686   5.675   0.554 -1.2495  1.5293 -1.1105
 6551TIP3   OH241211   1.762   3.326   1.177 -0.2789 -0.5451  0.7725
 6551TIP3    H141212   1.736   3.392   1.241  1.2823  0.8542  0.0456
 6551TIP3    H241213   1.728   3.358   1.093  0.8420 -0.4048  0.3476
 6552TIP3   OH241214   0.962   2.601   0.695  0.3372  0.0203 -0.4516
 6552TIP3    H141215   0.908   2.654   0.637 -0.4491  0.5421  0.7274
 6552TIP3    H241216   0.933   2.511   0.678  1.1133  0.0072 -1.8702
 6553TIP3   OH241217   5.049   1.949   1.210  0.1745  0.2468  0.6566
 6553TIP3    H141218   5.088   1.987   1.131 -0.0129  2.4228  1.5363
 6553TIP3    H241219   4.958   1.980   1.208  0.0770  0.0203  1.5448
 6554TIP3   OH241220   0.088   1.627   7.824  0.2488 -0.0521 -0.4522
 6554TIP3    H141221   0.019   1.575   7.784  0.9099 -2.6006  1.4240
 6554TIP3    H241222   0.146   1.649   7.751 -0.0790 -1.9970 -1.3788
 6555TIP3   OH241223   1.221   1.891   0.330  0.0440 -0.0571  0.2830
 6555TIP3    H141224   1.249   1.892   0.238  0.7668 -0.0087  0.5015
 6555TIP3    H241225   1.193   1.801   0.345  0.7393 -0.2845  0.2538
 6556TIP3   OH241226   2.375   4.353   0.801  0.1385  0.5650  0.0279
 6556TIP3    H141227   2.375   4.448   0.812 -1.1787  0.5004  0.7984
 6556TIP3    H241228   2.466   4.327   0.815  0.8130  1.8321 -1.5747
 6557TIP3   OH241229   4.131   6.547   7.640 -0.8290 -0.8871 -0.6367
 6557TIP3    H141230   4.189   6.471   7.638  0.2767 -0.2172  1.8266
 6557TIP3    H241231   4.060   6.521   7.698  1.4478  1.0033  3.3975
 6558TIP3   OH241232   3.395   6.534   0.472  0.0049  0.3804 -0.5859
 6558TIP3    H141233   3.482   6.558   0.502  1.3294 -1.4381 -2.6408
 6558TIP3    H241234   3.369   6.460   0.528 -0.8204  1.6486  0.8009
 6559TIP3   OH241235   0.227   5.675   2.261  0.0644 -0.3203  0.8507
 6559TIP3    H141236   0.273   5.672   2.177  2.7289  0.8804  2.1508
 6559TIP3    H241237   0.248   5.592   2.303 -0.3283 -0.4465  0.8016
 6560TIP3   OH241238   3.079   4.489   8.031 -0.0448 -0.1109  0.4555
 6560TIP3    H141239   3.097   4.529   7.946 -1.6301  0.0107  0.1480
 6560TIP3    H241240   3.019   4.416   8.011  1.3847 -1.5524  1.2076
 6561TIP3   OH241241   4.170   1.660   1.544  0.0887 -0.2260  0.2026
 6561TIP3    H141242   4.191   1.655   1.638  0.5408 -2.5361  0.0514
 6561TIP3    H241243   4.077   1.639   1.539 -0.1723  0.8906  0.1861
 6562TIP3   OH241244   6.585   4.444   7.137 -0.0633  0.2744 -0.3970
 6562TIP3    H141245   6.659   4.460   7.079 -0.8759 -0.6394 -1.7455
 6562TIP3    H241246   6.623   4.408   7.216  1.0746  1.4848 -0.3663
 6563TIP3   OH241247   4.381   5.434   1.028 -0.2390 -0.2200  0.4092
 6563TIP3    H141248   4.342   5.437   1.116  1.2579  0.6266  1.0816
 6563TIP3    H241249   4.444   5.363   1.032 -0.3295 -0.3276 -0.0593
 6564TIP3   OH241250   1.480   1.799   7.864 -0.0571  0.1633  0.7309
 6564TIP3    H141251   1.553   1.827   7.809  0.0465 -0.4103  0.5714
 6564TIP3    H241252   1.423   1.751   7.805  0.0640 -0.4701  1.1210
 6565TIP3   OH241253   1.935   4.142   2.938 -0.0985 -0.1676  0.2807
 6565TIP3    H141254   1.935   4.220   2.994  0.9387 -0.6963  1.0524
 6565TIP3    H241255   1.855   4.096   2.963 -0.6229  0.5489 -0.0485
 6566TIP3   OH241256   4.425   2.345   7.969  0.4487 -0.0786 -0.5835
 6566TIP3    H141257   4.394   2.380   7.885  0.3296  0.9155 -0.1285
 6566TIP3    H241258   4.433   2.421   8.026 -0.1794 -0.8406  0.5437
 6567TIP3   OH241259   0.521   4.653   0.677  0.2173  0.5134  0.4154
 6567TIP3    H141260   0.430   4.629   0.661  0.9338 -1.7603 -0.6011
 6567TIP3    H241261   0.525   4.671   0.771 -1.2908  0.8084  0.4486
 6568TIP3   OH241262   6.601   4.005   1.754  0.3851  0.4217  0.1465
 6568TIP3    H141263   6.684   3.989   1.708  0.5289  0.9321  0.2236
 6568TIP3    H241264   6.561   4.077   1.706  0.6096  1.0683  0.9128
 6569TIP3   OH241265   2.605   6.631   8.665 -0.1712 -0.2513  0.0700
 6569TIP3    H141266   2.619   6.675   8.749 -0.7550  0.0448  0.0104
 6569TIP3    H241267   2.625   6.697   8.599  1.4628 -0.8223 -0.0537
 6570TIP3   OH241268   2.724   2.909   8.095 -0.1673 -0.2872 -0.0623
 6570TIP3    H141269   2.664   2.844   8.133 -1.5518  0.1183 -1.4538
 6570TIP3    H241270   2.806   2.862   8.083 -0.0624 -0.7993  2.1284
 6571TIP3   OH241271   1.711   2.292   0.048 -0.7879  0.2972  0.0224
 6571TIP3    H141272   1.751   2.293   0.135 -0.8662 -1.4930  0.1117
 6571TIP3    H241273   1.626   2.251   0.062 -0.8869  0.1973 -0.8759
 6572TIP3   OH241274   0.395   5.952   0.769 -0.4365 -0.1690 -0.1101
 6572TIP3    H141275   0.453   5.958   0.693 -0.8632 -0.0888 -0.4345
 6572TIP3    H241276   0.405   6.037   0.813  0.6571 -0.6272  0.5560
 6573TIP3   OH241277   4.957   6.721   0.006 -0.2486  0.1409  0.7947
 6573TIP3    H141278   4.908   6.639   0.005  0.9761 -0.6214  0.4870
 6573TIP3    H241279   4.925   6.767   0.083 -2.2425  0.2042  0.0097
 6574TIP3   OH241280   5.048   0.334   0.176 -0.1472 -0.1972 -0.1091
 6574TIP3    H141281   5.119   0.337   0.112  1.2126  1.7958  1.3960
 6574TIP3    H241282   4.969   0.352   0.125  0.4109 -1.9372 -1.7250
 6575TIP3   OH241283   1.478   3.127   1.124  0.6961 -0.5645  0.4758
 6575TIP3    H141284   1.427   3.115   1.044  1.1355  0.3880  0.0362
 6575TIP3    H241285   1.426   3.086   1.192 -1.8449  2.3490  0.4755
 6576TIP3   OH241286   5.746   6.212   1.123 -0.0919 -0.4835 -0.0205
 6576TIP3    H141287   5.821   6.165   1.087 -0.4739 -0.0862 -1.4013
 6576TIP3    H241288   5.776   6.244   1.208  1.0693 -0.9058 -0.2543
 6577TIP3   OH241289   1.893   0.997   7.843  0.1373  0.8978 -0.0235
 6577TIP3    H141290   1.802   0.973   7.859  0.4257  0.4193  0.9451
 6577TIP3    H241291   1.888   1.067   7.778 -0.9077  0.7265 -0.1385
 6578TIP3   OH241292   0.961   1.966   8.682 -0.3015  0.0115  0.3995
 6578TIP3    H141293   1.043   1.959   8.633  1.1490 -0.6138  2.7089
 6578TIP3    H241294   0.892   1.958   8.617  1.4762 -0.7416 -1.4880
 6579TIP3   OH241295   1.591   4.935   7.897  0.1234  0.1424 -0.0721
 6579TIP3    H141296   1.556   4.975   7.818 -1.3490 -1.2222 -0.1703
 6579TIP3    H241297   1.609   5.008   7.956 -1.8261  1.0181 -0.4772
 6580TIP3   OH241298   3.862   3.042   1.271  0.1729 -0.1015  0.6007
 6580TIP3    H141299   3.922   3.056   1.344  0.1620 -0.1132  0.6116
 6580TIP3    H241300   3.835   3.130   1.246  0.4003 -0.0798  0.4251
 6581TIP3   OH241301   2.535   1.549   8.460  0.4387 -0.0015  0.4175
 6581TIP3    H141302   2.505   1.460   8.441 -2.1049  0.7627  0.4826
 6581TIP3    H241303   2.585   1.541   8.541 -2.1767 -1.0571  2.0613
 6582TIP3   OH241304   0.877   1.923   0.571  0.3050  0.1565  0.1352
 6582TIP3    H141305   0.864   1.969   0.489  0.4288  1.0564  0.6034
 6582TIP3    H241306   0.820   1.968   0.633 -0.1622 -0.8272  0.4345
 6583TIP3   OH241307   2.675   1.854   1.429 -0.7170 -0.4639  0.5181
 6583TIP3    H141308   2.598   1.902   1.398  0.7324  3.0553  1.7745
 6583TIP3    H241309   2.740   1.865   1.359  0.3768  1.6788  1.7435
 6584TIP3   OH241310   5.626   3.270   3.148  0.2442  0.0391 -0.0879
 6584TIP3    H141311   5.682   3.195   3.171  1.7950  1.6593  1.7727
 6584TIP3    H241312   5.683   3.328   3.098 -0.3017  0.8928  0.2600
 6585TIP3   OH241313   4.593   0.842   6.861  0.6643 -0.4190  0.4430
 6585TIP3    H141314   4.625   0.932   6.863  1.6918 -0.7533 -0.1834
 6585TIP3    H241315   4.653   0.796   6.802 -2.1784 -0.6268 -2.6111
 6586TIP3   OH241316   3.528   1.318   0.014  0.4840 -0.8504  0.6524
 6586TIP3    H141317   3.443   1.286  -0.015 -0.2004  0.0660  1.5853
 6586TIP3    H241318   3.528   1.305   0.109  0.7107  0.6339  0.8837
 6587TIP3   OH241319   6.267   0.374   1.334  0.5604  0.4983 -0.3645
 6587TIP3    H141320   6.333   0.307   1.317 -0.4524 -0.2026 -1.8006
 6587TIP3    H241321   6.271   0.432   1.258 -1.6122 -0.5960 -1.4321
 6588TIP3   OH241322   1.260   4.537   0.004 -0.1959  0.1094  0.0766
 6588TIP3    H141323   1.182   4.551  -0.050 -0.5705 -1.0729  0.2749
 6588TIP3    H241324   1.226   4.512   0.090  0.3985 -0.0383  0.2744
 6589TIP3   OH241325   0.408   6.574   6.948  0.6355  0.6106 -0.9754
 6589TIP3    H141326   0.452   6.504   6.900 -0.4035 -2.7101  2.4319
 6589TIP3    H241327   0.473   6.605   7.011 -0.0117 -0.0344  0.0375
 6590TIP3   OH241328   3.165   5.274   3.112 -0.0547 -0.0011 -0.4176
 6590TIP3    H141329   3.217   5.227   3.047 -0.3070 -0.4897 -0.2693
 6590TIP3    H241330   3.159   5.363   3.078 -0.6510 -0.3862 -1.3551
 6591TIP3   OH241331   6.273   0.142   0.662  0.5575  0.1610  0.4428
 6591TIP3    H141332   6.267   0.047   0.652 -0.4895  0.2122  0.4890
 6591TIP3    H241333   6.253   0.178   0.576 -0.2564  0.3707  0.7154
 6592TIP3   OH241334   0.131   6.432   2.548  0.3261  0.4853 -0.6374
 6592TIP3    H141335   0.222   6.415   2.571  0.2793  1.1069  0.0368
 6592TIP3    H241336   0.081   6.364   2.594  0.4519  0.0779 -1.0950
 6593TIP3   OH241337   3.034   5.898   2.212 -0.6999  0.1455  0.4672
 6593TIP3    H141338   3.002   5.979   2.173 -2.0068 -0.3404  0.4860
 6593TIP3    H241339   3.059   5.844   2.137  0.7039  0.7444  0.4689
 6594TIP3   OH241340   2.203   6.504   0.158 -0.0114 -0.2831  0.3636
 6594TIP3    H141341   2.276   6.462   0.111  0.5261 -1.1910  1.9272
 6594TIP3    H241342   2.245   6.562   0.220 -0.6657 -0.0062  0.5496
 6595TIP3   OH241343   6.414   1.632   1.360 -0.3602 -0.2603  0.5115
 6595TIP3    H141344   6.452   1.545   1.356 -0.8308 -0.4261 -0.4417
 6595TIP3    H241345   6.332   1.621   1.409 -1.2764 -0.6915 -1.0471
 6596TIP3   OH241346   0.244   4.910   8.404  0.0077  0.3122 -0.3244
 6596TIP3    H141347   0.300   4.879   8.476  0.4140 -1.5769 -1.3740
 6596TIP3    H241348   0.205   4.830   8.368 -1.6111  1.3838 -1.0706
 6597TIP3   OH241349   0.822   2.919   7.582 -0.1131 -0.0642  0.4016
 6597TIP3    H141350   0.809   3.014   7.578 -1.2401 -0.1093  1.8028
 6597TIP3    H241351   0.836   2.892   7.492 -2.4087  1.1161 -0.3962
 6598TIP3   OH241352   2.735   6.158   7.966  0.5525  0.3574 -0.0660
 6598TIP3    H141353   2.735   6.239   8.016  1.8634  0.4972 -0.2760
 6598TIP3    H241354   2.686   6.179   7.886  1.7780  1.2735 -0.6096
 6599TIP3   OH241355   6.074   4.431   2.094 -0.1366  0.0980 -0.3061
 6599TIP3    H141356   6.104   4.359   2.037 -1.6235 -1.7486  1.1321
 6599TIP3    H241357   6.135   4.431   2.167  2.4215  3.1532 -2.1448
 6600TIP3   OH241358   5.529   0.676   1.209 -0.2658  0.2219 -0.3575
 6600TIP3    H141359   5.601   0.652   1.150 -2.1480 -1.2152 -2.2370
 6600TIP3    H241360   5.544   0.625   1.288 -0.1660 -1.5275 -1.4474
 6601TIP3   OH241361   4.935   3.588   7.599  0.2984 -0.3733  0.2181
 6601TIP3    H141362   4.891   3.572   7.683 -0.3673 -0.3545 -0.1232
 6601TIP3    H241363   4.882   3.654   7.556  2.1917  1.7450  0.9666
 6602TIP3   OH241364   0.261   3.538   8.569  0.5847  0.5497 -0.2134
 6602TIP3    H141365   0.248   3.612   8.629 -0.4783  0.0724  0.1777
 6602TIP3    H241366   0.310   3.575   8.496  0.7049  1.4727  0.3154
 6603TIP3   OH241367   4.231   3.438   2.266  0.6032 -0.1118 -0.2999
 6603TIP3    H141368   4.149   3.406   2.303 -0.0777  0.7814 -0.9822
 6603TIP3    H241369   4.295   3.431   2.338 -0.3839  0.4445  0.6554
 6604TIP3   OH241370   2.447   4.362   1.697 -0.1574  0.0109 -0.3322
 6604TIP3    H141371   2.477   4.441   1.742 -0.2859  0.2734 -0.6977
 6604TIP3    H241372   2.365   4.339   1.742 -0.0071 -0.0451 -0.0822
 6605TIP3   OH241373   5.102   2.598   7.907 -0.0088  0.3115 -0.2690
 6605TIP3    H141374   5.081   2.507   7.885  0.3951  0.0705  0.3197
 6605TIP3    H241375   5.176   2.619   7.851  0.4234  0.0062  0.1844
 6606TIP3   OH241376   6.211   3.185   8.660 -0.1897  0.4290 -0.3407
 6606TIP3    H141377   6.130   3.220   8.697 -0.0515  0.3880 -0.0006
 6606TIP3    H241378   6.187   3.100   8.623 -0.3194  0.4566 -0.3179
 6607TIP3   OH241379   5.861   6.745   0.382 -0.0836  0.3344 -0.5210
 6607TIP3    H141380   5.911   6.749   0.464 -0.7650 -0.8968 -0.0102
 6607TIP3    H241381   5.927   6.759   0.314  0.8521 -0.5322  0.1650
 6608TIP3   OH241382   4.977   0.685   6.842 -0.1923 -0.2983  0.2280
 6608TIP3    H141383   5.009   0.765   6.883  0.8601  0.0767 -1.2478
 6608TIP3    H241384   5.056   0.636   6.821 -0.8221 -1.8926  1.3513
 6609TIP3   OH241385   1.092   0.481   1.330  0.0337  0.5656 -0.1821
 6609TIP3    H141386   1.087   0.567   1.372  0.6097 -0.0324  1.1400
 6609TIP3    H241387   1.011   0.437   1.356  1.1943 -0.4802  1.9018
 6610TIP3   OH241388   4.859   0.184   8.545  0.6241  0.3689 -0.1950
 6610TIP3    H141389   4.837   0.198   8.453 -1.7519  0.5396  0.3218
 6610TIP3    H241390   4.874   0.271   8.580 -3.1225  0.8830  0.5308
 6611TIP3   OH241391   1.655   1.836   8.136 -0.4286  0.8660  0.1369
 6611TIP3    H141392   1.687   1.851   8.047  0.7073 -2.1610 -0.1158
 6611TIP3    H241393   1.570   1.793   8.125 -0.3776  0.6628  0.4938
 6612TIP3   OH241394   1.284   4.485   0.919 -0.4360  0.2803  0.3692
 6612TIP3    H141395   1.207   4.429   0.925  0.1625 -0.5992 -0.0084
 6612TIP3    H241396   1.356   4.431   0.951  0.1711  0.7827 -0.1084
 6613TIP3   OH241397   5.797   6.589   0.952  0.3975 -0.0674  0.1140
 6613TIP3    H141398   5.817   6.665   1.008  1.1213  0.3572 -0.7054
 6613TIP3    H241399   5.865   6.526   0.973  0.0122 -0.3553  0.5214
 6614TIP3   OH241400   6.356   1.077   1.402 -0.4847  0.3266  0.1826
 6614TIP3    H141401   6.301   1.007   1.439 -1.4100  1.5865  1.2967
 6614TIP3    H241402   6.391   1.039   1.321 -0.9665 -1.4097  0.7317
 6615TIP3   OH241403   3.965   5.490   1.954  0.5922 -0.1638 -0.4787
 6615TIP3    H141404   3.901   5.421   1.971 -0.5559  1.4546  2.6274
 6615TIP3    H241405   4.011   5.500   2.038  0.2150  3.2512 -0.5459
 6616TIP3   OH241406   2.404   1.248   0.683 -0.7975  0.4282 -0.6153
 6616TIP3    H141407   2.368   1.295   0.608 -2.1492  0.2376 -0.1212
 6616TIP3    H241408   2.499   1.256   0.675 -0.9664  1.3712 -1.7144
 6617TIP3   OH241409   4.949   1.536   7.076  0.0044  0.2607  0.0024
 6617TIP3    H141410   4.911   1.466   7.023  0.1804  0.4263 -0.3440
 6617TIP3    H241411   4.894   1.539   7.154 -2.2366  2.1165 -1.5288
 6618TIP3   OH241412   0.821   6.633   0.880  0.9205  0.0613 -0.1685
 6618TIP3    H141413   0.837   6.638   0.975 -2.9454 -1.0664  0.7081
 6618TIP3    H241414   0.808   6.540   0.863  0.5685  0.3579 -1.6422
 6619TIP3   OH241415   5.190   1.126   8.173 -0.2049  0.4122 -0.0657
 6619TIP3    H141416   5.180   1.145   8.080 -0.6195 -0.2607 -0.1683
 6619TIP3    H241417   5.100   1.123   8.207 -0.0233  1.4853  0.5375
 6620TIP3   OH241418   5.218   5.814   1.601  0.0612  0.1216  0.3069
 6620TIP3    H141419   5.200   5.733   1.552 -2.0425 -0.4103  1.8018
 6620TIP3    H241420   5.290   5.790   1.660 -1.7243 -1.3619  2.0493
 6621TIP3   OH241421   5.129   2.663   2.894 -0.2098  0.2290  0.2901
 6621TIP3    H141422   5.041   2.648   2.929 -0.4236 -0.6602 -0.5720
 6621TIP3    H241423   5.123   2.750   2.854 -1.3413 -0.5982 -1.5091
 6622TIP3   OH241424   2.697   0.378   1.027  0.2916 -0.4847 -0.3432
 6622TIP3    H141425   2.779   0.345   0.992 -0.8877 -2.9519 -1.0052
 6622TIP3    H241426   2.703   0.365   1.121  0.0176 -2.3819 -0.5515
 6623TIP3   OH241427   5.590   1.617   8.114 -0.5105  0.3796 -0.1349
 6623TIP3    H141428   5.601   1.602   8.208 -0.6292 -0.6810 -0.2817
 6623TIP3    H241429   5.506   1.577   8.093  0.6077 -1.5722 -1.1345
 6624TIP3   OH241430   0.843   2.345   1.285  0.1389 -0.0891  0.8829
 6624TIP3    H141431   0.857   2.250   1.278 -2.1905 -0.4283 -0.0283
 6624TIP3    H241432   0.846   2.363   1.379 -2.6812 -1.7260  1.3962
 6625TIP3   OH241433   0.404   4.485   1.893 -0.6185 -0.4888 -0.7056
 6625TIP3    H141434   0.487   4.526   1.915  0.1851 -1.4530 -1.8367
 6625TIP3    H241435   0.401   4.487   1.798 -2.2803  0.2383 -0.6827
 6626TIP3   OH241436   4.749   6.448   2.106  0.2429  0.0661  0.5233
 6626TIP3    H141437   4.655   6.432   2.094  0.2976  0.2256 -0.1513
 6626TIP3    H241438   4.791   6.395   2.037  0.6892 -0.5329  1.2404
 6627TIP3   OH241439   1.689   6.783   8.594 -0.2496 -0.9383 -0.2224
 6627TIP3    H141440   1.675   6.777   8.499  0.5050 -0.5695 -0.3623
 6627TIP3    H241441   1.646   6.865   8.619 -0.3821 -0.9966 -0.2597
 6628TIP3   OH241442   6.077   3.071   1.264  0.3120 -0.1920 -0.0779
 6628TIP3    H141443   6.039   3.107   1.343 -0.6911  0.6117 -0.8969
 6628TIP3    H241444   6.134   3.000   1.294  0.6676  0.6980  1.4043
 6629TIP3   OH241445   1.078   0.394   7.383 -0.3224  0.0304 -0.0044
 6629TIP3    H141446   1.056   0.308   7.419 -2.5731  1.2704  1.8559
 6629TIP3    H241447   1.146   0.428   7.442 -0.0615 -0.1317 -0.2132
 6630TIP3   OH241448   0.727   5.401   1.554  0.1761 -0.1706 -0.4570
 6630TIP3    H141449   0.742   5.312   1.587  1.2201 -0.0152 -0.4934
 6630TIP3    H241450   0.802   5.451   1.585 -0.0936  0.5579 -0.9685
 6631TIP3   OH241451   0.672   0.420   0.710  0.0069  0.0682  0.0109
 6631TIP3    H141452   0.692   0.337   0.752 -0.8853  0.2446  0.8220
 6631TIP3    H241453   0.635   0.395   0.625  1.3414 -0.3016 -0.4814
 6632TIP3   OH241454   0.918   0.104   3.187  0.0027  0.8232  0.0438
 6632TIP3    H141455   0.888   0.052   3.113  3.0144 -0.6422 -0.3142
 6632TIP3    H241456   0.954   0.040   3.248 -0.8332  2.1449  2.0458
 6633TIP3   OH241457   1.711   5.484   7.703  0.1777  0.0138 -0.0742
 6633TIP3    H141458   1.702   5.494   7.608  2.1678 -0.5072 -0.3591
 6633TIP3    H241459   1.795   5.524   7.724  1.3363 -2.6950  0.9370
 6634TIP3   OH241460   6.282   4.532   0.294 -0.5135 -0.1125 -0.4623
 6634TIP3    H141461   6.197   4.508   0.331  0.1457 -1.9758 -0.0854
 6634TIP3    H241462   6.324   4.583   0.364 -0.7647 -0.3806 -0.1084
 6635TIP3   OH241463   4.478   6.747   7.449  0.5182 -0.0447  0.1125
 6635TIP3    H141464   4.572   6.727   7.455  0.3283 -0.8643  0.4620
 6635TIP3    H241465   4.462   6.758   7.356  0.9199 -0.1283  0.0316
 6636TIP3   OH241466   4.919   1.146   8.457  0.0265  0.0547  0.1760
 6636TIP3    H141467   4.865   1.078   8.415  0.9834 -2.2244  2.3473
 6636TIP3    H241468   4.877   1.161   8.541  1.4856 -0.0771  0.9579
 6637TIP3   OH241469   6.693   5.453   7.359 -0.0360  0.2779  0.2441
 6637TIP3    H141470   6.685   5.362   7.332  1.3151 -0.3357  1.7384
 6637TIP3    H241471   6.615   5.496   7.324 -0.6778 -1.4315 -0.5131
 6638TIP3   OH241472   0.469   1.599   1.602 -0.5519 -0.2601  0.0936
 6638TIP3    H141473   0.472   1.534   1.673  2.2896 -0.6948 -0.2949
 6638TIP3    H241474   0.523   1.561   1.533  1.1541  2.3976 -0.1910
 6639TIP3   OH241475   6.856   4.169   8.466 -0.9712 -0.1465 -0.5307
 6639TIP3    H141476   6.908   4.232   8.516  0.1069 -0.1111 -1.6293
 6639TIP3    H241477   6.799   4.128   8.530  1.5809 -1.4073  1.1122
 6640TIP3   OH241478   1.183   2.339   0.218 -0.2771  0.2573 -0.0147
 6640TIP3    H141479   1.110   2.400   0.225 -0.7899 -0.3610  0.0825
 6640TIP3    H241480   1.142   2.253   0.206  0.4347 -0.0650 -0.2112
 6641TIP3   OH241481   2.971   0.272   0.408  0.7957 -0.3895 -0.4673
 6641TIP3    H141482   2.980   0.227   0.324  2.7819  0.7801 -0.9504
 6641TIP3    H241483   3.034   0.229   0.466 -0.6700 -1.2933  0.5235
 6642TIP3   OH241484   3.966   5.124   2.184 -0.0852  0.1910  0.3204
 6642TIP3    H141485   3.945   5.117   2.277  2.6464 -0.3284  0.9653
 6642TIP3    H241486   4.058   5.149   2.181 -0.5281  1.9275 -2.2766
 6643TIP3   OH241487   0.209   0.889   7.996  0.6818  0.0767  0.2595
 6643TIP3    H141488   0.232   0.840   8.075  0.9526  0.4176  0.3987
 6643TIP3    H241489   0.284   0.877   7.938  0.7713  0.3554  0.3130
 6644TIP3   OH241490   6.733   5.766   1.687 -0.0511 -0.2909  0.0535
 6644TIP3    H141491   6.736   5.758   1.591 -1.6215  0.5620 -0.1014
 6644TIP3    H241492   6.663   5.829   1.703 -0.1132 -0.7748  1.7954
 6645TIP3   OH241493   3.448   1.469   7.502  0.1511  0.3523 -0.1839
 6645TIP3    H141494   3.362   1.439   7.473  1.2199 -1.8308 -1.3674
 6645TIP3    H241495   3.492   1.498   7.422  1.3512 -0.9139 -0.0160
 6646TIP3   OH241496   1.862   0.096   1.574 -0.3175  0.2390 -0.1973
 6646TIP3    H141497   1.942   0.133   1.612 -0.7497  1.5661 -0.5421
 6646TIP3    H241498   1.812   0.065   1.649 -0.2230  0.9175  0.1478
 6647TIP3   OH241499   1.904   5.829   1.216 -0.1839  0.2948 -0.4301
 6647TIP3    H141500   1.953   5.751   1.244 -0.2606 -0.2217 -1.6439
 6647TIP3    H241501   1.814   5.797   1.205 -0.4750  0.8628  0.2618
 6648TIP3   OH241502   1.554   1.947   8.498 -0.1350  0.0496 -0.0231
 6648TIP3    H141503   1.605   2.012   8.451  1.5163 -1.1132  0.0899
 6648TIP3    H241504   1.526   1.992   8.578  0.3379  0.8418 -0.2956
 6649TIP3   OH241505   4.229   3.258   0.146  0.0288  0.4455 -0.3713
 6649TIP3    H141506   4.267   3.283   0.062  1.4028  0.3080  0.1884
 6649TIP3    H241507   4.208   3.165   0.137  1.7884 -0.0167 -0.0129
 6650TIP3   OH241508   0.687   6.733   1.559 -0.2153  0.1297 -0.0610
 6650TIP3    H141509   0.604   6.775   1.539 -0.7711 -0.7651  0.2991
 6650TIP3    H241510   0.685   6.720   1.654  0.4084  0.2565 -0.0282
 6651TIP3   OH241511   6.853   5.678   7.242  0.8273  0.2380  0.4287
 6651TIP3    H141512   6.810   5.758   7.271 -0.9414 -0.0525 -1.1934
 6651TIP3    H241513   6.801   5.607   7.279 -0.0439 -0.1207 -1.3557
 6652TIP3   OH241514   6.710   6.604   7.466 -0.2611  0.4366  0.0813
 6652TIP3    H141515   6.711   6.684   7.413 -0.1538  0.1602 -0.3448
 6652TIP3    H241516   6.673   6.538   7.407  0.9166 -0.1386 -0.0399
 6653TIP3   OH241517   5.629   3.886   1.683 -0.0411 -0.5223  0.5710
 6653TIP3    H141518   5.695   3.819   1.699 -1.3312 -1.9923  0.0321
 6653TIP3    H241519   5.628   3.938   1.764  1.3930 -0.7845  0.7762
 6654TIP3   OH241520   4.635   0.759   8.530 -0.3091 -0.4538  0.1993
 6654TIP3    H141521   4.576   0.685   8.515  0.5752 -1.3541  1.0215
 6654TIP3    H241522   4.576   0.834   8.541 -1.5031 -1.6360  3.0391
 6655TIP3   OH241523   2.014   2.514   7.849 -0.6943 -0.2383  0.8249
 6655TIP3    H141524   2.002   2.525   7.944  0.5968 -1.0638  1.1070
 6655TIP3    H241525   2.021   2.419   7.837  0.7379 -0.0590  0.1142
 6656TIP3   OH241526   6.796   0.799   0.589 -0.7182  0.2558 -0.0369
 6656TIP3    H141527   6.716   0.836   0.553 -1.4299 -1.8295 -0.7548
 6656TIP3    H241528   6.802   0.711   0.551  1.8271  0.2532  0.1377
 6657TIP3   OH241529   5.444   2.975   6.975  0.3925  0.2945 -0.1297
 6657TIP3    H141530   5.353   2.964   7.002 -0.0269 -1.8135 -2.0209
 6657TIP3    H241531   5.441   3.046   6.911  0.1883  0.6700  0.2951
 6658TIP3   OH241532   1.060   1.469   2.390 -0.4443 -0.0110  0.1314
 6658TIP3    H141533   1.131   1.475   2.326 -0.2196  1.0231  0.4493
 6658TIP3    H241534   1.103   1.438   2.470 -0.6709 -1.0127 -0.1194
 6659TIP3   OH241535   2.454   2.517   0.295  0.5229 -0.8202  0.5943
 6659TIP3    H141536   2.509   2.466   0.236  0.3365  0.4849 -0.7497
 6659TIP3    H241537   2.463   2.607   0.266  0.2224 -0.1535  2.4187
 6660TIP3   OH241538   1.286   4.563   6.992  0.3854  0.2498 -0.7516
 6660TIP3    H141539   1.252   4.628   6.931 -2.1328  0.6635  0.9368
 6660TIP3    H241540   1.289   4.608   7.077 -0.1145 -1.3959  0.1981
 6661TIP3   OH241541   1.837   1.488   7.333 -0.2496 -0.0119 -0.5654
 6661TIP3    H141542   1.794   1.404   7.314  0.2913  0.1018 -2.4610
 6661TIP3    H241543   1.778   1.554   7.297 -0.5823  0.4447  0.7603
 6662TIP3   OH241544   2.998   1.893   1.090 -0.0147  0.6427 -0.5516
 6662TIP3    H141545   3.074   1.891   1.149 -0.5546 -0.2745  0.1406
 6662TIP3    H241546   2.983   1.986   1.074  0.2291  0.9103  0.6644
 6663TIP3   OH241547   5.853   4.024   0.366  0.0574 -0.0571 -0.2642
 6663TIP3    H141548   5.847   4.098   0.305 -1.6136 -0.0445 -0.1110
 6663TIP3    H241549   5.850   4.064   0.453  0.3554 -0.2341 -0.1694
 6664TIP3   OH241550   4.015   4.985   0.489  0.1360  0.8378  0.3276
 6664TIP3    H141551   4.091   5.043   0.482 -1.2985  2.8614  0.6078
 6664TIP3    H241552   3.961   5.024   0.558 -1.0140 -0.7233  0.3741
 6665TIP3   OH241553   2.878   5.340   7.495  0.4650  0.1366  0.8686
 6665TIP3    H141554   2.846   5.346   7.585  1.5686 -1.0339  1.3628
 6665TIP3    H241555   2.969   5.368   7.500  0.3056  0.8473 -0.0428
 6666TIP3   OH241556   3.659   6.701   2.243  0.1722  0.2409  0.2270
 6666TIP3    H141557   3.709   6.782   2.238  0.4209  0.2085  1.7651
 6666TIP3    H241558   3.654   6.681   2.336  0.6208 -1.8394 -0.1446
 6667TIP3   OH241559   4.584   2.673   1.196 -0.3197  0.0088 -0.0086
 6667TIP3    H141560   4.644   2.608   1.233  0.7819  1.0890  0.1392
 6667TIP3    H241561   4.641   2.736   1.151 -1.1890  1.9380  1.4758
 6668TIP3   OH241562   2.567   5.416   7.849  0.5090  0.5630 -0.3186
 6668TIP3    H141563   2.527   5.476   7.786 -0.5234  0.7999  0.5414
 6668TIP3    H241564   2.555   5.459   7.933 -0.2144 -0.8157  0.3112
 6669TIP3   OH241565   5.275   1.276   2.177  0.0486 -0.8821 -0.2118
 6669TIP3    H141566   5.297   1.276   2.270 -1.0669 -0.6083  0.0621
 6669TIP3    H241567   5.331   1.344   2.139 -1.8688  1.4184  0.8675
 6670TIP3   OH241568   5.211   4.587   1.417  0.1869  0.4713  0.6439
 6670TIP3    H141569   5.257   4.572   1.334 -1.1404 -0.2942  0.0103
 6670TIP3    H241570   5.224   4.680   1.436  1.0620  0.5076 -0.0670
 6671TIP3   OH241571   5.939   0.478   8.578 -0.4980 -0.1930 -0.3941
 6671TIP3    H141572   5.862   0.449   8.628 -0.0766 -2.5761 -1.0031
 6671TIP3    H241573   5.912   0.469   8.486 -0.1967  1.0758 -0.6214
 6672TIP3   OH241574   6.126   2.459   2.183 -0.0017  0.1848  0.3332
 6672TIP3    H141575   6.190   2.390   2.165 -0.0130  0.6375 -1.6080
 6672TIP3    H241576   6.082   2.430   2.263  0.5473 -1.6535  0.0149
 6673TIP3   OH241577   0.048   0.521   2.926 -0.3182 -0.1053  0.4836
 6673TIP3    H141578  -0.031   0.573   2.940  1.6349  2.7444  1.7878
 6673TIP3    H241579   0.083   0.507   3.014  1.5874  0.3146 -0.1772
 6674TIP3   OH241580   2.384   2.551   2.314  0.7748  0.8012 -0.1345
 6674TIP3    H141581   2.374   2.485   2.245 -0.4991 -0.4656  1.2002
 6674TIP3    H241582   2.476   2.547   2.338  0.5804 -1.0493  0.4260
 6675TIP3   OH241583   5.984   0.544   2.247  0.3910 -0.3553 -0.0405
 6675TIP3    H141584   6.047   0.593   2.299 -0.9993  1.7131 -0.2018
 6675TIP3    H241585   5.942   0.486   2.309  0.1750  0.6170  0.7427
 6676TIP3   OH241586   5.885   2.947   6.697 -0.1254  0.2449  0.8159
 6676TIP3    H141587   5.964   2.999   6.685  0.2851 -0.0849  1.9100
 6676TIP3    H241588   5.917   2.860   6.720 -0.8030 -0.4630 -0.7960
 6677TIP3   OH241589   1.968   0.540   2.143 -0.0001  0.3449 -0.5143
 6677TIP3    H141590   1.880   0.562   2.173 -0.0491 -0.4237 -0.0552
 6677TIP3    H241591   2.007   0.491   2.216  0.5431  0.0414 -0.9909
 6678TIP3   OH241592   6.207   3.919   8.336 -0.4990 -0.4689 -0.2429
 6678TIP3    H141593   6.145   3.974   8.288 -0.1767 -0.1037 -0.2481
 6678TIP3    H241594   6.218   3.842   8.281  0.1650  0.1206 -0.9642
 6679TIP3   OH241595   1.712   2.212   1.818 -0.1866  0.7288  0.1886
 6679TIP3    H141596   1.686   2.120   1.825 -0.4079  0.8841  1.7463
 6679TIP3    H241597   1.644   2.260   1.865 -0.4757  1.7911 -1.2561
 6680TIP3   OH241598   3.897   3.939   0.016  0.1102  0.7004 -0.0016
 6680TIP3    H141599   3.830   3.986   0.066 -0.5978 -0.1681 -0.1130
 6680TIP3    H241600   3.979   3.958   0.062 -0.5066  0.0639  1.3964
 6681TIP3   OH241601   6.539   5.708   0.173  0.1774 -0.1661 -0.3673
 6681TIP3    H141602   6.554   5.683   0.264 -1.6964  0.8524  0.2857
 6681TIP3    H241603   6.576   5.796   0.166 -2.4569  1.0981  0.3969
 6682TIP3   OH241604   2.540   1.224   7.206 -0.5374  0.4409 -0.8172
 6682TIP3    H141605   2.482   1.202   7.279  1.1407  0.3339  0.5529
 6682TIP3    H241606   2.501   1.302   7.167 -2.4015 -0.4816 -0.9205
 6683TIP3   OH241607   3.781   6.230   7.933 -0.6820  0.1499 -0.2094
 6683TIP3    H141608   3.843   6.191   7.996 -0.7005  0.7380  0.1794
 6683TIP3    H241609   3.744   6.155   7.887  0.2926 -0.2218 -0.4241
 6684TIP3   OH241610   0.681   3.955   1.402 -0.0704 -0.3745 -0.4207
 6684TIP3    H141611   0.691   4.050   1.410 -1.2064 -0.1602 -1.3098
 6684TIP3    H241612   0.710   3.921   1.486  0.8853  0.7110 -0.2740
 6685TIP3   OH241613   5.104   2.868   1.623  0.2015  0.2743  0.2409
 6685TIP3    H141614   5.159   2.909   1.556  1.1136  0.3557  1.0301
 6685TIP3    H241615   5.088   2.780   1.589  0.1512  0.5118 -0.3663
 6686TIP3   OH241616   6.689   0.684   2.863 -0.4514  0.3495 -0.3286
 6686TIP3    H141617   6.718   0.705   2.774 -0.4002 -1.1645 -0.7000
 6686TIP3    H241618   6.609   0.736   2.875  0.5706  2.0433 -0.5162
 6687TIP3   OH241619   2.063   4.869   0.605  0.1237  0.1778  0.4369
 6687TIP3    H141620   2.055   4.962   0.626  0.1190 -0.2281  2.4780
 6687TIP3    H241621   2.153   4.847   0.629  0.1261 -0.3456 -0.0446
 6688TIP3   OH241622   1.381   2.561   7.431 -0.1568 -0.5145  0.1218
 6688TIP3    H141623   1.405   2.652   7.417  1.7320 -0.9343  0.3045
 6688TIP3    H241624   1.369   2.553   7.526 -0.0580 -0.5083  0.1353
 6689TIP3   OH241625   5.710   0.857   1.942 -0.0464  0.0910 -0.6908
 6689TIP3    H141626   5.801   0.886   1.937  0.2415 -0.8433 -1.2817
 6689TIP3    H241627   5.711   0.784   2.003 -0.4252  0.1667 -0.5909
 6690TIP3   OH241628   4.450   1.551   2.498 -0.4759 -0.4953 -0.1424
 6690TIP3    H141629   4.380   1.485   2.503  0.4293 -1.5489 -0.8726
 6690TIP3    H241630   4.511   1.526   2.568  0.5498 -1.2888 -1.2767
 6691TIP3   OH241631   1.493   1.205   1.688  0.0138  0.6241  0.2172
 6691TIP3    H141632   1.446   1.252   1.757  2.4193  0.5244  2.0697
 6691TIP3    H241633   1.425   1.159   1.639 -1.9567  2.1370  1.3865
 6692TIP3   OH241634   4.520   5.784   7.870  0.1535 -0.6874 -0.5051
 6692TIP3    H141635   4.456   5.713   7.866 -0.5456 -0.1585  0.6323
 6692TIP3    H241636   4.499   5.830   7.951  0.8812  0.5483 -0.9909
 6693TIP3   OH241637   1.906   4.658   1.168  0.3109 -0.7268  0.0504
 6693TIP3    H141638   1.914   4.564   1.184 -0.4077 -1.0390 -1.2669
 6693TIP3    H241639   1.831   4.685   1.221  1.9216 -0.3638  2.3147
 6694TIP3   OH241640   4.500   3.403   2.548 -0.4625  0.2878 -0.2748
 6694TIP3    H141641   4.422   3.371   2.503 -0.4067  2.3767 -2.0327
 6694TIP3    H241642   4.473   3.415   2.639 -2.0669  0.5322 -0.7544
 6695TIP3   OH241643   1.781   2.036   1.398  0.7723 -0.2144  0.6154
 6695TIP3    H141644   1.744   2.021   1.311 -0.7586  1.4964  0.9083
 6695TIP3    H241645   1.711   2.009   1.458  0.2846  2.0998  1.2052
 6696TIP3   OH241646   0.698   0.076   2.361 -0.1715 -0.1841  0.0646
 6696TIP3    H141647   0.604   0.057   2.365 -0.2387 -0.0799 -0.7445
 6696TIP3    H241648   0.702   0.166   2.328  0.1942  0.2420  1.2327
 6697TIP3   OH241649   0.591   1.759   8.120  0.2054  0.0032 -0.4965
 6697TIP3    H141650   0.677   1.732   8.089  0.3584 -0.4970  0.3288
 6697TIP3    H241651   0.574   1.704   8.196 -0.6021  0.4820 -0.3102
 6698TIP3   OH241652   1.565   0.902   8.382  0.6490  0.3451  0.3103
 6698TIP3    H141653   1.472   0.923   8.373  0.1496 -1.7020  0.1194
 6698TIP3    H241654   1.594   0.880   8.294  1.5265  1.5825  0.2550
 6699TIP3   OH241655   1.307   3.059   8.050 -0.2807  0.3362  0.2425
 6699TIP3    H141656   1.213   3.075   8.059 -0.6569 -1.6648  0.3699
 6699TIP3    H241657   1.341   3.061   8.139 -0.4962 -0.3781  0.3523
 6700TIP3   OH241658   3.738   2.383   1.895 -0.0474  0.3602  0.7866
 6700TIP3    H141659   3.719   2.430   1.977  1.7764  1.6993  0.4973
 6700TIP3    H241660   3.783   2.303   1.923  1.7913  1.4528  1.0908
 6701TIP3   OH241661   6.197   0.698   0.535  0.4237 -0.4713  0.6771
 6701TIP3    H141662   6.173   0.666   0.448 -0.0418  0.1562  0.5713
 6701TIP3    H241663   6.283   0.657   0.552  0.4941 -0.6436 -0.0472
 6702TIP3   OH241664   5.539   4.833   8.586  0.1426  0.4776  1.1525
 6702TIP3    H141665   5.608   4.873   8.533  0.8867 -1.0182  0.9490
 6702TIP3    H241666   5.547   4.876   8.671  0.9630  0.7195  0.9637
 6703TIP3   OH241667   6.788   5.785   0.967  0.0677  0.0369  0.2011
 6703TIP3    H141668   6.843   5.864   0.965  0.7477 -0.4330 -0.5592
 6703TIP3    H241669   6.851   5.712   0.963 -0.5363 -0.5543  1.2306
 6704TIP3   OH241670   0.678   5.503   7.458  0.1262 -0.1664  0.0722
 6704TIP3    H141671   0.624   5.430   7.487 -0.2001 -0.4158 -1.0785
 6704TIP3    H241672   0.739   5.463   7.395  0.7369  0.3448  0.3333
 6705TIP3   OH241673   0.024   3.337   1.631 -0.1878  0.1080 -0.1433
 6705TIP3    H141674   0.103   3.383   1.605 -0.9281  1.6176  0.1482
 6705TIP3    H241675   0.046   3.298   1.716  0.1736  0.7683  0.0791
 6706TIP3   OH241676   6.642   0.399   1.801  0.2344 -0.6389  0.0510
 6706TIP3    H141677   6.585   0.406   1.724 -0.9576  0.5949  0.9927
 6706TIP3    H241678   6.601   0.332   1.855  2.1317 -2.9369 -1.1745
 6707TIP3   OH241679   6.439   1.384   7.203 -0.0031  0.5166  0.3533
 6707TIP3    H141680   6.491   1.395   7.282  1.2130 -1.1762 -0.1776
 6707TIP3    H241681   6.380   1.311   7.222  2.0193 -1.6287 -1.0785
 6708TIP3   OH241682   0.804   4.588   8.238 -0.0218  0.0691  0.3262
 6708TIP3    H141683   0.884   4.593   8.290  0.7782  1.4700 -0.9627
 6708TIP3    H241684   0.817   4.512   8.182  0.2219  0.0514  0.4050
 6709TIP3   OH241685   6.009   6.737   0.161 -0.2076 -0.0792  0.3589
 6709TIP3    H141686   6.103   6.751   0.149 -0.2610  1.3370  1.4049
 6709TIP3    H241687   5.996   6.646   0.134  1.3226 -0.0863 -0.5220
 6710TIP3   OH241688   3.958   6.019   1.338  0.6636 -0.1053  0.4259
 6710TIP3    H141689   3.866   6.015   1.363  0.1865 -1.0899 -1.3355
 6710TIP3    H241690   4.002   6.055   1.415 -1.4242  2.1748  0.6984
 6711TIP3   OH241691   2.295   2.812   8.019  0.4800 -0.3140 -0.2301
 6711TIP3    H141692   2.362   2.784   7.957  1.0832  1.9526 -0.6551
 6711TIP3    H241693   2.213   2.801   7.972  0.6367 -1.5743 -0.2670
 6712TIP3   OH241694   5.848   5.984   1.998  0.0153 -0.3371 -0.2060
 6712TIP3    H141695   5.782   5.921   2.027  0.4303 -1.2723 -1.1981
 6712TIP3    H241696   5.813   6.018   1.915  0.4221 -0.2696 -0.3525
 6713TIP3   OH241697   5.373   6.102   2.160 -0.0196 -0.0656  0.6641
 6713TIP3    H141698   5.288   6.141   2.139  0.2874  0.1586 -0.2137
 6713TIP3    H241699   5.368   6.013   2.125  0.6028  0.4058 -0.7340
 6714TIP3   OH241700   3.891   1.883   2.879 -0.0966 -0.0114 -0.6285
 6714TIP3    H141701   3.913   1.791   2.894 -0.3147 -0.1576 -1.1742
 6714TIP3    H241702   3.799   1.881   2.851 -0.5326  0.5015  0.6853
 6715TIP3   OH241703   6.182   3.650   7.856  0.0435 -0.0539  0.2136
 6715TIP3    H141704   6.149   3.603   7.933 -0.0154 -0.0402  0.1970
 6715TIP3    H241705   6.118   3.630   7.787  1.2207 -1.8271 -0.4303
 6716TIP3   OH241706   6.850   6.441   1.827  0.6679  0.4699 -0.1726
 6716TIP3    H141707   6.843   6.381   1.753 -2.9284 -0.3810  0.6598
 6716TIP3    H241708   6.939   6.430   1.859  0.7876 -2.8957 -1.3330
 6717TIP3   OH241709   0.225   3.782   0.819 -0.0744 -0.1340  0.0457
 6717TIP3    H141710   0.140   3.758   0.857 -0.7167  0.4633 -0.9637
 6717TIP3    H241711   0.279   3.704   0.829 -1.1625 -0.9790 -0.4567
 6718TIP3   OH241712   3.379   2.911   7.708 -0.6970 -0.2311 -0.6538
 6718TIP3    H141713   3.418   2.846   7.767  0.9597  0.7257 -0.6491
 6718TIP3    H241714   3.415   2.890   7.622 -1.4740 -0.3206 -0.9732
 6719TIP3   OH241715   4.212   3.786   0.988  0.5124  0.1757 -0.5918
 6719TIP3    H141716   4.211   3.694   0.961 -0.7382  0.3728 -1.2746
 6719TIP3    H241717   4.250   3.832   0.913  0.0683  0.3534 -0.7051
 6720TIP3   OH241718   2.269   0.857   0.328 -0.0640 -0.0261  0.3722
 6720TIP3    H141719   2.348   0.908   0.308 -1.1617  1.6283  0.1122
 6720TIP3    H241720   2.211   0.918   0.373 -1.1345 -1.2737  0.7500
 6721TIP3   OH241721   1.523   6.221   1.591 -0.2665 -0.4093 -0.4201
 6721TIP3    H141722   1.542   6.265   1.675  1.1057 -2.3524  0.3584
 6721TIP3    H241723   1.431   6.194   1.599 -0.2746 -0.2057  0.2896
 6722TIP3   OH241724   4.163   3.434   8.355 -0.0271  0.1465 -0.0920
 6722TIP3    H141725   4.233   3.369   8.359  0.6117  0.7402 -1.1538
 6722TIP3    H241726   4.209   3.518   8.355 -0.8169  0.5960  0.6771
 6723TIP3   OH241727   4.120   4.451   2.050 -0.1821 -0.2671 -0.0950
 6723TIP3    H141728   4.193   4.502   2.016 -2.9449  2.6428 -2.3277
 6723TIP3    H241729   4.121   4.468   2.144  2.3621 -0.9582  0.0753
 6724TIP3   OH241730   4.293   4.562   1.067  0.5707  0.2749  0.1388
 6724TIP3    H141731   4.308   4.655   1.047 -0.1808 -0.0578 -2.3274
 6724TIP3    H241732   4.200   4.549   1.050  0.7565 -1.0211  0.0450
 6725TIP3   OH241733   6.699   3.076   2.379 -0.5158  0.1021 -0.2348
 6725TIP3    H141734   6.709   3.164   2.415  0.2374 -0.9440  2.2874
 6725TIP3    H241735   6.605   3.066   2.367 -0.5855  1.3816 -1.0640
 6726TIP3   OH241736   4.653   3.185   2.061  0.1809 -0.0321 -1.4791
 6726TIP3    H141737   4.560   3.208   2.069  0.3193 -0.0012  0.5859
 6726TIP3    H241738   4.682   3.231   1.982 -0.9969  2.0025 -0.8180
 6727TIP3   OH241739   5.744   5.737   8.160  0.3004  0.4238 -0.1063
 6727TIP3    H141740   5.771   5.786   8.238 -0.9613 -1.3904  1.5817
 6727TIP3    H241741   5.771   5.791   8.087  3.5334  1.2258  1.5143
 6728TIP3   OH241742   2.138   1.706   1.293 -0.3078  0.0566  0.4025
 6728TIP3    H141743   2.147   1.787   1.344  1.2333  1.0479 -1.3344
 6728TIP3    H241744   2.056   1.718   1.244  0.8071  1.4433 -1.2217
 6729TIP3   OH241745   5.732   3.212   2.356  0.2369  0.1140  0.4094
 6729TIP3    H141746   5.797   3.196   2.426  1.4150  0.1263 -0.6473
 6729TIP3    H241747   5.678   3.133   2.357 -0.4216  0.5400  1.9940
 6730TIP3   OH241748   1.866   6.373   1.455  0.3513  0.0820 -0.8945
 6730TIP3    H141749   1.819   6.292   1.434 -0.2585  0.2206 -0.1156
 6730TIP3    H241750   1.909   6.355   1.539  0.6661  0.3827 -0.9886
 6731TIP3   OH241751   3.850   4.792   2.286 -0.6116  0.1569 -0.0461
 6731TIP3    H141752   3.810   4.836   2.211  0.4449 -0.1868 -0.8347
 6731TIP3    H241753   3.833   4.699   2.272 -1.9926  0.1947  1.1130
 6732TIP3   OH241754   3.253   6.412   8.513  0.1074 -1.1739  0.3541
 6732TIP3    H141755   3.238   6.348   8.583  2.2319 -0.5086  1.5036
 6732TIP3    H241756   3.332   6.380   8.468  2.2629  1.3809  2.0145
 6733TIP3   OH241757   3.629   4.166   7.637  0.0274 -0.0195  0.1417
 6733TIP3    H141758   3.570   4.102   7.598 -0.5978  0.7669 -0.2115
 6733TIP3    H241759   3.704   4.169   7.577  0.2244 -0.6667  0.3434
 6734TIP3   OH241760   1.188   2.683   1.493  0.1423  0.2129  0.4013
 6734TIP3    H141761   1.166   2.641   1.576 -0.4466 -0.1560  0.0691
 6734TIP3    H241762   1.107   2.723   1.464  0.1771 -0.2051 -0.3048
 6735TIP3   OH241763   1.047   4.978   0.033 -0.2874 -0.7988 -0.2564
 6735TIP3    H141764   1.130   4.952  -0.008 -0.5558 -0.5644 -0.9545
 6735TIP3    H241765   1.028   5.064  -0.005 -0.0662 -0.1279  1.0572
 6736TIP3   OH241766   3.676   3.397   8.587 -0.0227 -0.1367  0.6258
 6736TIP3    H141767   3.715   3.483   8.605  0.7885 -0.3626  0.0187
 6736TIP3    H241768   3.582   3.412   8.591  0.1159  0.5647  1.5029
 6737TIP3   OH241769   5.317   4.814   7.966  0.1973  0.1831 -0.0144
 6737TIP3    H141770   5.307   4.723   7.938  1.0045  0.2495 -0.5657
 6737TIP3    H241771   5.385   4.849   7.908 -0.9348  1.4859 -0.6133
 6738TIP3   OH241772   6.488   3.079   1.171 -0.3602  0.1584 -0.2747
 6738TIP3    H141773   6.556   3.032   1.123  0.7195  0.3468  1.0022
 6738TIP3    H241774   6.430   3.011   1.204  0.3465 -0.1827  0.2923
 6739TIP3   OH241775   5.246   3.642   2.423 -0.3244 -0.0150 -0.0041
 6739TIP3    H141776   5.255   3.562   2.474  3.8126  1.7229  2.5062
 6739TIP3    H241777   5.299   3.626   2.344 -0.3636 -0.1222 -0.0084
 6740TIP3   OH241778   0.906   4.938   7.281 -0.0468  0.0522 -0.0309
 6740TIP3    H141779   0.955   4.988   7.346 -0.6961  0.8447 -0.1266
 6740TIP3    H241780   0.878   4.859   7.327 -1.7393  1.2712  1.1343
 6741TIP3   OH241781   0.508   4.216   0.603  0.0673  0.4943  0.0497
 6741TIP3    H141782   0.466   4.242   0.685  1.8572 -0.2410  1.2685
 6741TIP3    H241783   0.498   4.121   0.600  0.4749  0.4575 -0.2904
 6742TIP3   OH241784   1.459   2.799   0.804 -0.6789  0.5015 -0.0270
 6742TIP3    H141785   1.440   2.717   0.759  1.4967  0.7457 -1.5623
 6742TIP3    H241786   1.438   2.867   0.739  2.7814  0.8452 -0.9725
 6743TIP3   OH241787   3.365   6.048   7.802 -0.1831 -0.7446 -0.0193
 6743TIP3    H141788   3.328   6.108   7.866  0.9111 -1.9236  1.8311
 6743TIP3    H241789   3.312   5.968   7.810  0.5492 -1.2302  0.1491
 6744TIP3   OH241790   0.951   6.045   1.913  0.1091 -0.1241 -0.0047
 6744TIP3    H141791   0.931   6.075   1.824  0.4747  1.5433  0.4570
 6744TIP3    H241792   0.868   6.007   1.944  0.0542 -1.0175 -1.1343
 6745TIP3   OH241793   6.331   2.920   6.638 -0.4626  0.4582 -0.1100
 6745TIP3    H141794   6.252   2.949   6.685  0.1443 -0.5767  1.6194
 6745TIP3    H241795   6.378   3.001   6.619 -1.5582  1.0318 -0.5277
 6746TIP3   OH241796   4.779   4.947   0.749 -0.5492 -0.3244 -0.1644
 6746TIP3    H141797   4.746   5.014   0.809  0.0471  1.1121 -1.3552
 6746TIP3    H241798   4.751   4.978   0.662 -0.7013 -1.9084 -0.7091
 6747TIP3   OH241799   2.741   1.009   8.153  0.1054  0.0845  0.4421
 6747TIP3    H141800   2.819   1.026   8.100  0.4136  0.6600  1.0756
 6747TIP3    H241801   2.699   1.095   8.162 -0.3368 -0.1355  0.5292
 6748TIP3   OH241802   3.638   3.023   0.220 -0.4707  0.4715  1.1155
 6748TIP3    H141803   3.632   3.115   0.196 -0.8177  0.0125 -0.7005
 6748TIP3    H241804   3.657   2.978   0.137 -1.9967 -1.2628  1.6550
 6749TIP3   OH241805   5.314   5.433   3.025  0.5604  0.0377  0.4551
 6749TIP3    H141806   5.403   5.402   3.045  0.8622  1.4158  1.4074
 6749TIP3    H241807   5.326   5.524   2.997 -0.4750 -0.0528 -0.3634
 6750TIP3   OH241808   4.464   3.590   7.604 -0.3775 -0.0942 -0.1092
 6750TIP3    H141809   4.397   3.527   7.576 -0.8534  0.5763 -0.4978
 6750TIP3    H241810   4.417   3.673   7.609  0.1433  0.1454  0.8541
 6751TIP3   OH241811   4.869   6.212   1.998  0.3736  0.0346  0.0493
 6751TIP3    H141812   4.810   6.138   2.011  1.0334 -0.3349  1.1511
 6751TIP3    H241813   4.912   6.224   2.083  1.6542  0.4759 -0.6196
 6752TIP3   OH241814   5.346   3.854   2.056 -0.2114 -0.0644  0.5800
 6752TIP3    H141815   5.302   3.789   2.111  0.3895  0.9788  2.4189
 6752TIP3    H241816   5.439   3.843   2.076  0.5574 -2.2329 -3.2260
 6753TIP3   OH241817   5.516   4.793   2.799  0.7379 -0.3478 -0.0784
 6753TIP3    H141818   5.605   4.790   2.765  0.8464 -0.2131  0.1861
 6753TIP3    H241819   5.483   4.704   2.788  1.2289 -0.6347  0.6569
 6754TIP3   OH241820   3.606   2.261   0.171 -0.2811  0.0263 -0.2560
 6754TIP3    H141821   3.553   2.233   0.097 -0.4649 -0.0958 -0.0789
 6754TIP3    H241822   3.620   2.354   0.156 -0.5755  0.0667 -0.2854
 6755TIP3   OH241823   5.144   5.633   2.394  0.0580 -0.1738 -0.2794
 6755TIP3    H141824   5.170   5.549   2.355  0.0735 -1.0767  1.5358
 6755TIP3    H241825   5.066   5.611   2.446 -0.0883  0.9926  0.0154
 6756TIP3   OH241826   4.139   2.207   2.232 -0.1770  0.5655  0.4706
 6756TIP3    H141827   4.229   2.189   2.259 -0.7598 -1.4980  1.2876
 6756TIP3    H241828   4.129   2.301   2.241  2.2982  1.0644 -1.0050
 6757TIP3   OH241829   2.072   5.059   8.222  0.1573 -0.4485  0.9048
 6757TIP3    H141830   2.124   4.987   8.186 -0.0157 -1.1735  2.0421
 6757TIP3    H241831   2.004   5.016   8.274 -1.8689  0.4503 -0.8456
 6758TIP3   OH241832   5.653   2.521   8.657 -0.0804  0.3866  0.1086
 6758TIP3    H141833   5.744   2.551   8.662  0.2866 -0.5751 -0.3672
 6758TIP3    H241834   5.660   2.431   8.623 -1.2029  0.2595  0.1805
 6759TIP3   OH241835   1.880   4.421   2.973 -0.0979  0.0054  0.0385
 6759TIP3    H141836   1.831   4.494   3.010 -0.2166 -0.7725  1.5034
 6759TIP3    H241837   1.846   4.412   2.884  1.0597  2.7256 -0.7740
 6760TIP3   OH241838   2.419   6.032   7.323  0.7550 -0.3342 -0.3675
 6760TIP3    H141839   2.359   5.976   7.273  1.4391 -0.6457 -0.8480
 6760TIP3    H241840   2.495   6.041   7.267  1.6425 -0.8826  0.7124
 6761TIP3   OH241841   4.010   4.864   0.237  0.2766  0.1957  0.4640
 6761TIP3    H141842   4.029   4.933   0.172  2.1381 -0.6641  0.0264
 6761TIP3    H241843   3.986   4.912   0.316  0.1655  1.3189 -0.2248
 6762TIP3   OH241844   2.743   0.294   8.467  0.3383 -0.1836  0.2164
 6762TIP3    H141845   2.718   0.307   8.376  0.0514 -0.3125  0.2739
 6762TIP3    H241846   2.661   0.307   8.516 -0.1975 -2.9646  0.2231
 6763TIP3   OH241847   3.238   3.701   8.024  0.1237  0.0320 -0.5895
 6763TIP3    H141848   3.333   3.699   8.013  0.0591  0.1423 -1.1778
 6763TIP3    H241849   3.211   3.610   8.011  0.2664 -0.2110  0.7101
 6764TIP3   OH241850   6.254   5.633   7.525 -0.2492  0.1513 -0.8752
 6764TIP3    H141851   6.326   5.621   7.463 -0.2453  2.1657 -1.3519
 6764TIP3    H241852   6.285   5.593   7.606  0.9880  0.0791 -1.3550
 6765TIP3   OH241853   1.900   4.738   1.583 -0.4553  0.0731  0.1502
 6765TIP3    H141854   1.977   4.765   1.632 -1.0178  0.2586  0.9408
 6765TIP3    H241855   1.883   4.810   1.523 -0.2620  0.2068  0.2557
 6766TIP3   OH241856   0.686   5.962   2.007  0.0299 -0.1667  0.5364
 6766TIP3    H141857   0.619   6.016   2.051 -0.0734  0.8613 -0.8036
 6766TIP3    H241858   0.674   5.875   2.043 -1.5679  0.1549  0.8679
 6767TIP3   OH241859   3.836   5.161   7.864  0.0162  0.2903 -0.1227
 6767TIP3    H141860   3.754   5.205   7.841 -0.8154 -1.3684 -0.4556
 6767TIP3    H241861   3.882   5.224   7.920 -2.7802  0.2156  2.5392
 6768TIP3   OH241862   1.373   0.662   1.155  0.6350 -1.0039  0.1488
 6768TIP3    H141863   1.285   0.696   1.145  0.3928 -1.6516  0.0274
 6768TIP3    H241864   1.361   0.570   1.181  1.2694 -1.3618 -0.7668
 6769TIP3   OH241865   0.972   6.264   1.145  0.4611  0.6339  0.1078
 6769TIP3    H141866   0.960   6.319   1.223 -2.2505  1.3131 -0.6994
 6769TIP3    H241867   1.028   6.317   1.088  2.1261  0.3106  1.3554
 6770TIP3   OH241868   2.548   2.583   1.558  0.0034 -0.0508 -0.2267
 6770TIP3    H141869   2.613   2.585   1.487 -0.5155  0.9224 -0.6877
 6770TIP3    H241870   2.522   2.674   1.569 -1.6275 -0.4829 -0.3520
 6771TIP3   OH241871   1.772   6.003   0.522  0.5202  0.0977  0.1748
 6771TIP3    H141872   1.684   5.996   0.485 -0.2858  2.1122  1.5537
 6771TIP3    H241873   1.796   5.913   0.542 -1.0125 -0.5505 -0.6598
 6772TIP3   OH241874   6.380   1.785   0.382  0.4280  0.0186  0.2379
 6772TIP3    H141875   6.364   1.719   0.450 -0.6424  0.3442  0.3283
 6772TIP3    H241876   6.419   1.736   0.310 -0.1454 -0.6853  0.3867
 6773TIP3   OH241877   4.457   1.532   2.142  0.4555  0.3694 -0.6197
 6773TIP3    H141878   4.546   1.558   2.168  1.1812 -2.2927 -0.1643
 6773TIP3    H241879   4.441   1.451   2.190 -2.3970  0.9393 -0.4352
 6774TIP3   OH241880   5.147   1.645   8.534 -0.3204 -0.4151 -0.3215
 6774TIP3    H141881   5.070   1.637   8.591  0.6210  1.9588  1.4119
 6774TIP3    H241882   5.197   1.565   8.550 -1.4551 -1.0839  0.0114
 6775TIP3   OH241883   0.564   0.398   8.175 -0.3977  0.1204 -0.6112
 6775TIP3    H141884   0.530   0.484   8.151  0.0677  0.4672 -0.0451
 6775TIP3    H241885   0.590   0.358   8.092  0.2966  0.9191 -0.7924
 6776TIP3   OH241886   2.766   3.130   1.476  0.3223 -0.0884  0.1456
 6776TIP3    H141887   2.743   3.191   1.406  1.3108 -0.1881 -0.2871
 6776TIP3    H241888   2.686   3.082   1.494 -0.4577  1.2909  0.4445
 6777TIP3   OH241889   4.523   5.726   1.164  0.5340  0.1945 -0.3893
 6777TIP3    H141890   4.593   5.675   1.124 -1.1085 -1.6712 -1.0614
 6777TIP3    H241891   4.496   5.675   1.241 -0.4852  0.5457 -0.4952
 6778TIP3   OH241892   2.123   0.918   1.137  0.3325 -0.2633 -0.3282
 6778TIP3    H141893   2.169   0.960   1.209  0.5060 -1.1989  0.1262
 6778TIP3    H241894   2.107   0.988   1.074 -0.9526  0.8527  1.1633
 6779TIP3   OH241895   1.012   0.613   7.725 -0.2205  0.2787  0.3037
 6779TIP3    H141896   0.999   0.572   7.640 -0.6570 -0.2524  0.6257
 6779TIP3    H241897   1.022   0.706   7.705 -3.5134  0.6581 -0.0836
 6780TIP3   OH241898   4.650   2.348   1.218 -0.3384  0.1417 -0.4127
 6780TIP3    H141899   4.683   2.326   1.131  1.0271  2.8487 -0.6856
 6780TIP3    H241900   4.560   2.378   1.203 -0.3260 -0.0102 -0.7967
 6781TIP3   OH241901   5.306   3.444   7.557 -0.4083 -0.4649  0.1782
 6781TIP3    H141902   5.231   3.398   7.519 -0.3825 -1.6514  1.4947
 6781TIP3    H241903   5.271   3.529   7.583 -1.5039 -1.2613  1.4215
 6782TIP3   OH241904   5.141   4.548   8.206  0.3803  0.1680 -0.0445
 6782TIP3    H141905   5.216   4.490   8.222  0.2318 -0.0267 -0.0456
 6782TIP3    H241906   5.079   4.494   8.156 -0.8102 -0.4910  1.9916
 6783TIP3   OH241907   4.443   2.405   2.590  0.4691 -0.4419  0.1481
 6783TIP3    H141908   4.371   2.458   2.557  0.8929 -0.2146 -0.4247
 6783TIP3    H241909   4.509   2.406   2.520 -0.0115 -2.7756 -0.4252
 6784TIP3   OH241910   4.422   0.748   2.148 -0.0153  0.2783  0.3091
 6784TIP3    H141911   4.428   0.833   2.193  0.4038  1.1697 -1.3600
 6784TIP3    H241912   4.502   0.743   2.096 -1.2472  0.0797 -1.6497
 6785TIP3   OH241913   1.648   0.062   8.285 -0.1661  0.0461 -0.2906
 6785TIP3    H141914   1.707   0.124   8.329  1.1285 -0.0942 -1.7391
 6785TIP3    H241915   1.632   0.101   8.199 -0.4607 -0.9525 -0.7031
 6786TIP3   OH241916   6.166   6.262   8.321  0.2575 -0.4333 -0.5145
 6786TIP3    H141917   6.085   6.278   8.273  0.6394  1.8562 -0.5198
 6786TIP3    H241918   6.235   6.264   8.254  0.5980  0.8241 -0.1572
 6787TIP3   OH241919   1.870   4.448   1.559  0.2376  0.3454 -0.2692
 6787TIP3    H141920   1.780   4.435   1.590  0.0413 -0.7220 -1.2108
 6787TIP3    H241921   1.882   4.543   1.558 -1.5505  0.6235 -1.8775
 6788TIP3   OH241922   0.258   5.447   0.406  0.6598 -0.0799 -0.3499
 6788TIP3    H141923   0.162   5.444   0.403  0.5806  1.3860 -0.2885
 6788TIP3    H241924   0.279   5.473   0.496  1.1087 -0.1856 -0.4201
 6789TIP3   OH241925   3.741   0.786   8.620  0.2383  0.0449  0.2865
 6789TIP3    H141926   3.694   0.739   8.551  0.5243 -2.0311  1.4112
 6789TIP3    H241927   3.821   0.817   8.578 -1.1581  1.9406 -1.1546
 6790TIP3   OH241928   4.332   0.182   2.892 -0.0920 -0.0887  0.0197
 6790TIP3    H141929   4.371   0.119   2.952 -1.1381 -1.9352 -1.1114
 6790TIP3    H241930   4.294   0.249   2.948  1.1339 -0.4206  1.2800
 6791TIP3   OH241931   0.438   2.891   1.948  0.8997 -0.0425 -0.1295
 6791TIP3    H141932   0.373   2.827   1.976  0.5648 -0.3229 -1.5029
 6791TIP3    H241933   0.475   2.856   1.867 -0.8293  2.4297 -2.1425
 6792TIP3   OH241934   5.187   5.083   1.852  0.0877 -0.4244  0.1555
 6792TIP3    H141935   5.134   5.044   1.921  0.1989  1.0780  1.1613
 6792TIP3    H241936   5.241   5.149   1.898  0.9706 -0.1523 -1.2041
 6793TIP3   OH241937   3.183   3.659   2.016  0.4120 -0.2058  0.1850
 6793TIP3    H141938   3.142   3.649   2.102 -2.5458 -1.6098 -1.2530
 6793TIP3    H241939   3.163   3.749   1.990  1.2072  0.1823  0.8377
 6794TIP3   OH241940   6.000   1.584   1.299 -0.4711 -0.4246  0.5904
 6794TIP3    H141941   6.062   1.648   1.265 -0.3465 -0.3188  1.0090
 6794TIP3    H241942   5.915   1.626   1.294 -0.6262 -0.8515 -0.7053
 6795TIP3   OH241943   1.939   1.885   2.252  0.5750  0.5374  0.8781
 6795TIP3    H141944   1.920   1.877   2.346  1.0886  1.9836  1.1246
 6795TIP3    H241945   2.029   1.854   2.243  0.3932  0.0272  0.7937
 6796TIP3   OH241946   0.120   4.744   0.341  0.2324 -0.2226 -0.3703
 6796TIP3    H141947   0.094   4.658   0.373  0.3485 -0.3606 -0.6438
 6796TIP3    H241948   0.122   4.800   0.419  0.2958 -0.5000 -0.1737
 6797TIP3   OH241949   2.862   0.009   1.739 -0.0712 -0.0152 -0.0016
 6797TIP3    H141950   2.909  -0.072   1.758 -0.1993 -0.2628 -0.7086
 6797TIP3    H241951   2.930   0.070   1.711 -0.1773 -0.4566 -1.2919
 6798TIP3   OH241952   5.090   0.898   7.741  0.9204 -0.0703 -0.2129
 6798TIP3    H141953   5.074   0.911   7.647 -0.1959  0.3840  0.0178
 6798TIP3    H241954   5.185   0.900   7.750  1.0214  0.4829 -1.2618
 6799TIP3   OH241955   5.295   1.345   7.126 -0.5870  0.9227  0.0902
 6799TIP3    H141956   5.217   1.294   7.150 -0.6190  2.0763  2.6888
 6799TIP3    H241957   5.296   1.342   7.030 -2.5835 -0.9398  0.0426
 6800TIP3   OH241958   2.551   2.321   1.180  0.3255 -0.0830  0.4852
 6800TIP3    H141959   2.621   2.375   1.217  0.4896  0.0578 -0.0288
 6800TIP3    H241960   2.470   2.361   1.212  0.4605  0.1397  0.5455
 6801TIP3   OH241961   0.444   4.631   8.287  0.5489 -0.5128 -0.4272
 6801TIP3    H141962   0.451   4.560   8.223  0.3242 -0.3287 -0.6591
 6801TIP3    H241963   0.484   4.596   8.366  0.3308 -0.9434 -0.5036
 6802TIP3   OH241964   4.051   3.513   0.549  0.1457  0.5542 -0.4385
 6802TIP3    H141965   3.981   3.571   0.578  1.1870  1.6890 -0.1177
 6802TIP3    H241966   4.012   3.426   0.552 -0.7241  0.9502  1.4538
 6803TIP3   OH241967   1.487   4.328   1.773  0.0643 -0.4512 -0.2614
 6803TIP3    H141968   1.513   4.394   1.709  0.8089 -1.3202 -0.8661
 6803TIP3    H241969   1.397   4.352   1.797  0.8741  1.8312  0.8632
 6804TIP3   OH241970   5.990   0.758   7.286  0.5414  0.4055 -0.3332
 6804TIP3    H141971   6.067   0.810   7.312  2.2325 -0.5438 -3.0020
 6804TIP3    H241972   6.027   0.678   7.249 -1.8246 -0.5243 -0.8410
 6805TIP3   OH241973   5.872   4.514   1.265  0.0804  0.5666 -0.8030
 6805TIP3    H141974   5.777   4.515   1.269  0.0505  0.3976 -1.4584
 6805TIP3    H241975   5.894   4.428   1.229  0.4494  0.9473 -1.5006
 6806TIP3   OH241976   3.991   3.129   2.467  0.0785  0.0204 -0.0323
 6806TIP3    H141977   3.896   3.121   2.476 -0.2467  1.1359 -1.9789
 6806TIP3    H241978   4.027   3.068   2.532 -1.9384  0.1533  1.2731
 6807TIP3   OH241979   1.867   3.894   1.448 -0.6816 -0.0982 -0.0989
 6807TIP3    H141980   1.841   3.921   1.360 -0.9538  0.3427  0.1112
 6807TIP3    H241981   1.894   3.975   1.491  2.2529 -0.6535 -0.6722
 6808TIP3   OH241982   1.504   1.524   8.341  0.3159  0.3914 -0.6367
 6808TIP3    H141983   1.495   1.486   8.254 -2.3029  0.1838 -0.3748
 6808TIP3    H241984   1.531   1.452   8.397  0.7417  0.2288 -1.0458
 6809TIP3   OH241985   3.042   0.368   1.416 -0.2214  0.9074 -0.9667
 6809TIP3    H141986   3.059   0.440   1.357  0.8204 -0.4771 -2.4496
 6809TIP3    H241987   3.000   0.301   1.361 -0.4705  0.0926  0.1694
 6810TIP3   OH241988   2.359   1.031   1.988  0.3287 -0.1630  0.3200
 6810TIP3    H141989   2.281   0.978   1.970  1.4282 -1.8950  0.4408
 6810TIP3    H241990   2.422   0.969   2.024  1.8298  1.1701  0.0841
 6811TIP3   OH241991   1.800   6.179   2.745 -0.3439 -0.0758 -0.0010
 6811TIP3    H141992   1.812   6.087   2.768  2.5772  0.3910  0.6987
 6811TIP3    H241993   1.762   6.218   2.824  1.2648 -0.1721  0.8699
 6812TIP3   OH241994   6.722   5.305   1.066  0.0976  0.3481 -0.3853
 6812TIP3    H141995   6.651   5.369   1.064  1.8437  2.4167 -0.9301
 6812TIP3    H241996   6.721   5.263   0.980 -0.7911 -0.0579 -0.1835
 6813TIP3   OH241997   6.034   3.589   7.617 -0.3077  0.1199 -0.2940
 6813TIP3    H141998   5.950   3.548   7.597  0.0637 -0.1770 -1.3208
 6813TIP3    H241999   6.058   3.636   7.537  1.5237 -1.6063 -0.8560
 6814TIP3   OH242000   2.895   4.819   8.026 -0.7972 -0.0325 -0.0265
 6814TIP3    H142001   2.915   4.747   8.085 -0.8841 -0.8819 -1.0038
 6814TIP3    H242002   2.800   4.827   8.030 -0.8145 -0.1765 -0.1492
 6815TIP3   OH242003   2.469   0.741   2.484  0.5061 -0.0827 -0.6762
 6815TIP3    H142004   2.406   0.712   2.418 -0.3356  1.9276 -0.8526
 6815TIP3    H242005   2.466   0.674   2.551 -1.1711 -0.5057 -1.1173
 6816TIP3   OH242006   2.972   0.493   1.048 -0.6806 -0.3323  0.0428
 6816TIP3    H142007   3.059   0.466   1.019 -0.4429  1.1212 -0.7056
 6816TIP3    H242008   2.987   0.543   1.128 -0.5987  1.2523 -0.8975
 6817TIP3   OH242009   4.963   6.380   0.285 -0.1548  0.0235  0.4400
 6817TIP3    H142010   4.904   6.425   0.345 -0.1871  1.1583 -0.4140
 6817TIP3    H242011   4.916   6.300   0.261 -0.5903  0.0740  1.0988
 6818TIP3   OH242012   2.120   4.237   7.299 -0.2757  0.1745  0.1254
 6818TIP3    H142013   2.082   4.296   7.364 -2.0184 -0.3828 -0.3409
 6818TIP3    H242014   2.072   4.256   7.218 -0.0887 -1.0765 -0.2957
 6819TIP3   OH242015   3.870   1.524   2.426 -0.0554 -0.8211 -0.0664
 6819TIP3    H142016   3.881   1.558   2.337  1.1016 -0.4883  0.1873
 6819TIP3    H242017   3.926   1.446   2.429  1.3414  0.1758  0.8896
 6820TIP3   OH242018   6.177   5.819   0.654 -0.3164  0.4851  0.4517
 6820TIP3    H142019   6.140   5.732   0.671 -1.1473  0.5543 -0.8863
 6820TIP3    H242020   6.237   5.806   0.580 -2.1393  1.3898 -1.2893
 6821TIP3   OH242021   1.146   0.518   8.505 -0.5822  0.9449  0.2822
 6821TIP3    H142022   1.139   0.427   8.476 -1.2678  0.4052  2.0078
 6821TIP3    H242023   1.164   0.512   8.599 -1.0865  2.5988  0.5255
 6822TIP3   OH242024   2.961   2.650   2.267 -0.0311  0.1299  0.2469
 6822TIP3    H142025   2.912   2.682   2.342 -0.1574  0.8763 -0.1408
 6822TIP3    H242026   3.043   2.699   2.268 -0.3209  0.6537 -0.4867
 6823TIP3   OH242027   0.258   4.726   2.192 -0.3533  0.2925  0.4774
 6823TIP3    H142028   0.299   4.648   2.229 -1.2957 -0.5355 -0.1566
 6823TIP3    H242029   0.329   4.790   2.185  0.3006 -0.2727  1.6158
 6824TIP3   OH242030   6.666   6.308   2.873  0.3843 -0.0175 -0.1533
 6824TIP3    H142031   6.722   6.367   2.921  1.0379  0.5030 -1.4995
 6824TIP3    H242032   6.626   6.363   2.805  0.2563 -0.9042 -0.8157
 6825TIP3   OH242033   1.943   1.613   7.094 -0.4362 -0.1938 -0.4218
 6825TIP3    H142034   1.938   1.544   7.161 -2.3001  1.1046  0.9121
 6825TIP3    H242035   1.851   1.636   7.077  0.0832  0.9687 -1.8912
 6826TIP3   OH242036   5.683   6.360   8.649  0.4415 -0.1177  0.3953
 6826TIP3    H142037   5.641   6.321   8.572 -1.8380 -1.8767  2.3601
 6826TIP3    H242038   5.634   6.441   8.664 -0.6581 -0.9082  1.2336
 6827TIP3   OH242039   3.193   4.446   2.680 -0.3140 -0.4890  0.0749
 6827TIP3    H142040   3.182   4.380   2.748 -0.4209 -0.3523  0.1931
 6827TIP3    H242041   3.287   4.464   2.679 -0.4352  0.3192  0.9715
 6828TIP3   OH242042   5.268   2.973   1.846 -0.1551 -0.9370 -0.0416
 6828TIP3    H142043   5.214   2.914   1.793  0.1068 -0.0014 -1.4015
 6828TIP3    H242044   5.244   2.953   1.936 -1.4392 -1.8087 -0.5473
 6829TIP3   OH242045   6.457   5.164   1.970 -0.2248 -0.2933 -0.4135
 6829TIP3    H142046   6.515   5.186   2.043 -0.8611  1.3683 -0.3598
 6829TIP3    H242047   6.516   5.143   1.898  0.4738  1.1581 -0.3009
 6830TIP3   OH242048   2.863   3.713   6.620  0.2692  0.6214  0.2066
 6830TIP3    H142049   2.934   3.776   6.627  1.0874 -0.2962  0.2560
 6830TIP3    H242050   2.795   3.747   6.679  2.1905 -0.5152  3.2754
 6831TIP3   OH242051   4.919   2.668   1.774  0.0338 -0.1675 -0.4201
 6831TIP3    H142052   4.919   2.757   1.808 -0.2881 -0.2027 -0.3291
 6831TIP3    H242053   4.837   2.660   1.726 -0.1547 -0.5620 -0.0382
 6832TIP3   OH242054   1.662   6.541   6.980  0.4711  0.1391  0.0940
 6832TIP3    H142055   1.678   6.539   7.075  1.2084 -0.0756 -0.0263
 6832TIP3    H242056   1.669   6.633   6.957  1.3086  0.0804  0.0911
 6833TIP3   OH242057   3.033   2.402   1.182 -0.0622  0.0129  0.1663
 6833TIP3    H142058   3.037   2.365   1.094 -0.0231  1.6659 -0.5668
 6833TIP3    H242059   2.991   2.334   1.235 -1.2007 -0.5471 -1.3821
 6834TIP3   OH242060   2.291   1.779   0.044  0.2450 -0.6604 -0.2484
 6834TIP3    H142061   2.330   1.832   0.113  0.6690 -0.8731 -0.3215
 6834TIP3    H242062   2.352   1.789  -0.030 -1.8942  2.4326 -1.8421
 6835TIP3   OH242063   0.271   0.189   2.089 -0.4824  0.6587  0.4249
 6835TIP3    H142064   0.318   0.272   2.084  0.3041  0.3382  2.0740
 6835TIP3    H242065   0.210   0.200   2.162 -1.0325  0.1018  0.0613
 6836TIP3   OH242066   3.217   3.979   7.188 -0.2352  0.1284 -0.9586
 6836TIP3    H142067   3.298   3.948   7.147 -0.6371  0.7059 -2.2202
 6836TIP3    H242068   3.192   4.056   7.137 -0.4969  1.1846  0.6932
 6837TIP3   OH242069   6.213   0.978   8.318  0.1400  0.2851 -0.1040
 6837TIP3    H142070   6.137   1.036   8.325 -1.0532 -1.4454  2.4833
 6837TIP3    H242071   6.180   0.900   8.274  0.4069 -0.4325  0.9379
 6838TIP3   OH242072   5.322   2.315   6.535  0.2172  0.2438  0.4337
 6838TIP3    H142073   5.337   2.369   6.613 -2.1980  0.7685  0.6253
 6838TIP3    H242074   5.296   2.378   6.468 -0.4419 -0.4564  0.0147
 6839TIP3   OH242075   5.324   0.110   0.932  0.5648 -0.1868 -0.0124
 6839TIP3    H142076   5.301   0.175   0.998  1.7190 -0.0642  0.2817
 6839TIP3    H242077   5.248   0.108   0.873 -0.2487  0.0908  1.0010
 6840TIP3   OH242078   5.644   4.642   1.159  0.0052  0.0699 -0.1763
 6840TIP3    H142079   5.659   4.724   1.205 -2.2134  0.0908  0.6722
 6840TIP3    H242080   5.650   4.665   1.066  0.1599  1.0256  0.0605
 6841TIP3   OH242081   5.065   3.679   1.740 -0.5396  0.2632  0.2117
 6841TIP3    H142082   5.157   3.696   1.718 -0.3110  0.1835  1.0696
 6841TIP3    H242083   5.017   3.748   1.695 -0.4151 -1.5007 -2.9030
 6842TIP3   OH242084   4.342   2.700   1.313 -0.1772  0.0193 -0.2209
 6842TIP3    H142085   4.413   2.689   1.250  0.4474 -0.0813  0.4800
 6842TIP3    H242086   4.327   2.794   1.317 -0.5300 -0.0036 -0.8404
 6843TIP3   OH242087   0.619   5.241   8.092 -0.1767 -0.1813 -0.1341
 6843TIP3    H142088   0.709   5.215   8.113 -0.3377  0.1750  1.1054
 6843TIP3    H242089   0.575   5.242   8.177 -1.6915 -1.5879 -0.8650
 6844TIP3   OH242090   0.037   1.154   7.526 -0.0837  0.3316  0.2897
 6844TIP3    H142091   0.131   1.165   7.541 -0.1124 -0.3259  1.0355
 6844TIP3    H242092   0.002   1.243   7.529  0.6121  0.6614 -0.7853
 6845TIP3   OH242093   5.834   5.152   7.878  0.1531 -0.6199 -0.3054
 6845TIP3    H142094   5.914   5.198   7.851  0.2494 -0.9512 -0.6048
 6845TIP3    H242095   5.829   5.077   7.818 -0.8024 -0.1774 -0.7905
 6846TIP3   OH242096   2.056   1.997   7.887  0.1616  0.1381 -0.0417
 6846TIP3    H142097   2.015   1.922   7.844 -1.1956 -0.3983  2.0536
 6846TIP3    H242098   2.028   1.991   7.978 -0.3553  3.4301  0.1413
 6847TIP3   OH242099   6.205   3.409   6.623  0.9734  0.1500 -0.4124
 6847TIP3    H142100   6.245   3.479   6.572  2.0596  1.0769  1.5702
 6847TIP3    H242101   6.203   3.443   6.713 -1.3196 -1.1752  0.1069
 6848TIP3   OH242102   5.413   4.989   0.787  0.1084  0.1351 -0.2344
 6848TIP3    H142103   5.432   5.079   0.811 -0.1441  0.2592 -0.4881
 6848TIP3    H242104   5.404   4.991   0.692 -3.0073  0.4707 -0.0384
 6849TIP3   OH242105   5.088   4.793   1.148 -0.4568  0.4307 -0.4402
 6849TIP3    H142106   5.057   4.737   1.077 -1.0197  1.0449 -0.6936
 6849TIP3    H242107   5.031   4.870   1.145 -1.0518  0.1106  1.2046
 6850TIP3   OH242108   6.337   2.259   1.777  0.2267 -0.0870  0.7340
 6850TIP3    H142109   6.289   2.200   1.720 -1.4321 -0.1336  2.1218
 6850TIP3    H242110   6.429   2.243   1.755 -0.2973 -0.9609 -1.0429
 6851TIP3   OH242111   4.195   6.802   7.751 -0.2946  0.2127 -0.4085
 6851TIP3    H142112   4.250   6.856   7.694  0.2838  0.9914  0.8290
 6851TIP3    H242113   4.192   6.717   7.708  2.0688  0.0804 -0.4690
 6852TIP3   OH242114   0.983   6.784   0.337 -0.2957  0.4643  0.4980
 6852TIP3    H142115   0.957   6.722   0.269  2.7009 -2.2757  1.5489
 6852TIP3    H242116   1.072   6.809   0.313 -0.3739  2.0458  1.7075
 6853TIP3   OH242117   1.955   5.737   8.369  0.2985 -1.0876 -0.3381
 6853TIP3    H142118   1.899   5.814   8.361 -0.3945 -1.7422 -2.3632
 6853TIP3    H242119   2.028   5.765   8.424  0.0456  0.9924 -1.0059
 6854TIP3   OH242120   2.312   6.153   0.966 -0.3686  0.1283  0.6816
 6854TIP3    H142121   2.300   6.222   0.900  1.6065  0.5100  0.6625
 6854TIP3    H242122   2.258   6.081   0.934 -0.4835  0.7699 -0.6740
 6855TIP3   OH242123   3.594   5.121   0.407  0.0518  0.5390  0.0856
 6855TIP3    H142124   3.665   5.057   0.399 -0.2737  0.1762  0.0444
 6855TIP3    H242125   3.520   5.070   0.439 -0.7125  0.5325 -1.5621
 6856TIP3   OH242126   3.154   1.288   0.954  0.2671 -0.1996 -0.7572
 6856TIP3    H142127   3.074   1.235   0.960 -0.0593  0.0852 -2.1477
 6856TIP3    H242128   3.178   1.285   0.861  1.4820  0.3048 -0.4844
 6857TIP3   OH242129   5.244   4.621   7.674 -0.1559  0.3710  0.0972
 6857TIP3    H142130   5.226   4.554   7.608  0.0220 -0.2595  0.6796
 6857TIP3    H242131   5.287   4.574   7.745  2.3033  1.5269 -0.5121
 6858TIP3   OH242132   0.835   5.774   0.402  0.1813 -0.2908  0.2256
 6858TIP3    H142133   0.846   5.683   0.373  0.3713 -0.2833  0.2760
 6858TIP3    H242134   0.844   5.769   0.497 -2.8829 -0.7203  0.5967
 6859TIP3   OH242135   5.910   5.222   0.399  0.6374 -0.5460  0.0067
 6859TIP3    H142136   5.816   5.206   0.409  0.4454 -0.0916 -0.9590
 6859TIP3    H242137   5.951   5.153   0.450 -0.2221 -0.5263  0.7609
 6860TIP3   OH242138   5.118   0.155   0.384  0.2827  0.4614  0.3422
 6860TIP3    H142139   5.085   0.208   0.311 -0.8215 -0.4740  0.1322
 6860TIP3    H242140   5.041   0.142   0.440  0.1073 -2.1848 -0.4074
 6861TIP3   OH242141   0.495   4.349   8.681 -0.4127 -0.7033 -0.0663
 6861TIP3    H142142   0.565   4.402   8.720 -0.0451 -0.4080 -1.0870
 6861TIP3    H242143   0.419   4.365   8.737 -0.5669  1.6352 -0.8373
 6862TIP3   OH242144   2.553   0.928   2.236  0.3519  0.2560  0.0250
 6862TIP3    H142145   2.628   0.873   2.210 -0.0445 -0.1907 -0.1952
 6862TIP3    H242146   2.582   0.973   2.315  0.2975 -1.1364  0.8800
 6863TIP3   OH242147   3.601   0.318   3.261  0.3749 -0.2811 -0.0918
 6863TIP3    H142148   3.659   0.275   3.323  4.2348  1.8643 -1.8852
 6863TIP3    H242149   3.609   0.266   3.181 -1.1231 -0.5480 -0.1075
 6864TIP3   OH242150   1.728   3.356   8.108  0.0133 -0.4529  0.8015
 6864TIP3    H142151   1.740   3.443   8.147  0.7704 -0.2800  0.1798
 6864TIP3    H242152   1.812   3.313   8.118  1.3334  0.6948 -3.3692
 6865TIP3   OH242153   6.475   6.640   1.233 -0.1040  0.2441  0.4934
 6865TIP3    H142154   6.422   6.696   1.177  1.1505  1.1319  0.1628
 6865TIP3    H242155   6.453   6.551   1.205  0.4930  0.6627 -1.4284
 6866TIP3   OH242156   3.568   2.692   7.766 -0.6136 -0.2017 -0.1085
 6866TIP3    H142157   3.590   2.624   7.830 -0.4434 -0.0866 -0.0459
 6866TIP3    H242158   3.611   2.664   7.686  1.3394  0.9597  0.4643
 6867TIP3   OH242159   3.051   2.296   0.915 -0.3244  0.0907 -0.3187
 6867TIP3    H142160   3.069   2.209   0.879 -1.6805 -0.8418  1.1468
 6867TIP3    H242161   2.973   2.326   0.868 -0.4926  0.0535 -0.0627
 6868TIP3   OH242162   4.062   6.229   1.564  0.7889  0.3125 -0.3951
 6868TIP3    H142163   4.139   6.285   1.558  1.2155 -0.0975  0.9761
 6868TIP3    H242164   4.097   6.141   1.578  0.0892 -0.0203 -0.6731
 6869TIP3   OH242165   2.382   1.946   1.714  0.8823 -0.0016 -0.2261
 6869TIP3    H142166   2.354   1.979   1.628 -0.1228 -2.4877 -0.9257
 6869TIP3    H242167   2.318   1.879   1.737  2.0045 -0.4727  1.7711
 6870TIP3   OH242168   0.861   5.025   2.571  0.2142 -0.6670  0.0485
 6870TIP3    H142169   0.793   4.960   2.550 -3.8151  2.9924  0.3798
 6870TIP3    H242170   0.863   5.028   2.666  0.5734 -0.4379  0.0347
 6871TIP3   OH242171   2.640   4.999   8.191  0.0583 -0.2390 -0.1304
 6871TIP3    H142172   2.651   5.066   8.124 -0.2175 -0.8453 -0.7896
 6871TIP3    H242173   2.548   4.972   8.184  0.0261 -0.3031  0.4925
 6872TIP3   OH242174   1.116   6.113   2.478 -0.0960  1.0700 -0.4423
 6872TIP3    H142175   1.203   6.136   2.447 -0.1117  0.7050 -0.7660
 6872TIP3    H242176   1.064   6.192   2.466  0.0196  1.0794 -0.9126
 6873TIP3   OH242177   5.736   2.670   0.971 -0.1110 -0.3508  0.2245
 6873TIP3    H142178   5.710   2.588   0.930  0.8530 -1.3411  1.5171
 6873TIP3    H242179   5.769   2.724   0.899 -2.1378 -0.4581 -0.8801
 6874TIP3   OH242180   4.871   0.435   0.740 -0.2470  0.1586  0.0838
 6874TIP3    H142181   4.842   0.349   0.769  0.0865  0.0958  0.2293
 6874TIP3    H242182   4.952   0.451   0.787  0.9404 -0.4458 -1.6373
 6875TIP3   OH242183   6.765   3.028   0.094  0.5754  0.6736 -0.2830
 6875TIP3    H142184   6.760   2.940   0.133  0.2128 -0.1964 -2.1878
 6875TIP3    H242185   6.684   3.071   0.122 -0.5295 -0.5603 -1.4455
 6876TIP3   OH242186   5.665   5.364   0.232  0.3938  0.4031  0.6911
 6876TIP3    H142187   5.704   5.306   0.167  1.4535  1.5527  0.2455
 6876TIP3    H242188   5.736   5.424   0.256 -0.5106  1.1870  1.5102
 6877TIP3   OH242189   5.208   4.784   0.573  0.1807 -0.0866  0.0793
 6877TIP3    H142190   5.154   4.705   0.563 -1.9596  1.4188 -1.1446
 6877TIP3    H242191   5.162   4.836   0.639  1.2311  0.3959  0.4395
 6878TIP3   OH242192   6.221   2.339   0.897  0.2880  0.2627 -1.1414
 6878TIP3    H142193   6.260   2.307   0.815  0.9924 -1.4034 -0.2010
 6878TIP3    H242194   6.295   2.372   0.948 -0.0649  0.7146 -0.9156
 6879TIP3   OH242195   3.231   1.620   0.953 -0.0930 -0.0997  0.2466
 6879TIP3    H142196   3.266   1.622   1.042 -0.1889  1.1030  0.2701
 6879TIP3    H242197   3.240   1.528   0.926  0.4747 -0.3629  1.2739
 6880TIP3   OH242198   1.737   2.519   7.249  0.6057  0.5233  0.0075
 6880TIP3    H142199   1.768   2.497   7.161  0.2772  2.6038 -0.6795
 6880TIP3    H242200   1.694   2.604   7.239  0.3648  0.7053  2.1481
 6881TIP3   OH242201   3.355   0.322   2.975  0.1872  0.2506 -0.0953
 6881TIP3    H142202   3.390   0.378   2.905 -0.2380  0.0012 -0.5187
 6881TIP3    H242203   3.432   0.286   3.018  0.4710  1.2502  0.2577
 6882TIP3   OH242204   1.403   6.211   1.321  0.0516  0.1898  0.1743
 6882TIP3    H142205   1.465   6.148   1.359 -0.7235  0.3709  1.7953
 6882TIP3    H242206   1.354   6.160   1.256  1.2044 -0.2016 -0.4166
 6883TIP3   OH242207   1.639   6.011   0.251  0.7331 -0.0537  0.2928
 6883TIP3    H142208   1.557   6.030   0.297 -0.4602  0.5984 -1.9331
 6883TIP3    H242209   1.689   6.092   0.255  0.7675 -0.0951  0.6906
 6884TIP3   OH242210   2.114   1.288   0.737  0.3173  0.1115 -0.0406
 6884TIP3    H142211   2.161   1.213   0.701 -3.2982 -2.5732  0.2547
 6884TIP3    H242212   2.061   1.320   0.663 -1.8217 -0.8922  0.9652
 6885TIP3   OH242213   2.130   4.270   8.566  0.2207 -0.5596  0.2424
 6885TIP3    H142214   2.146   4.364   8.557  0.8337 -0.5946  0.8343
 6885TIP3    H242215   2.154   4.233   8.481 -0.7358 -0.0996 -0.2390
 6886TIP3   OH242216   2.707   2.226   0.231  0.3053 -0.7055 -0.3015
 6886TIP3    H142217   2.776   2.197   0.172  0.9363  0.8912 -0.4167
 6886TIP3    H242218   2.725   2.180   0.313  0.1027 -2.0676 -0.9997
 6887TIP3   OH242219   5.988   1.591   1.597  0.8031  0.5653 -0.2819
 6887TIP3    H142220   5.966   1.673   1.552 -1.9970 -0.1209 -0.3632
 6887TIP3    H242221   5.906   1.565   1.639  1.6245 -2.2107 -0.2423
 6888TIP3   OH242222   2.632   4.027   1.161 -0.0042  0.4746  0.0826
 6888TIP3    H142223   2.552   4.078   1.153  1.0410  2.1530 -0.4027
 6888TIP3    H242224   2.693   4.086   1.205  1.1295 -0.5463 -0.0637
 6889TIP3   OH242225   2.216   4.029   8.418 -0.4172 -0.0875  0.1997
 6889TIP3    H142226   2.302   3.988   8.417  0.3675  1.2347  3.1497
 6889TIP3    H242227   2.160   3.965   8.461 -0.8370 -0.6892 -1.1671
 6890TIP3   OH242228   2.060   0.048   0.896 -0.0364 -0.2757 -0.6594
 6890TIP3    H142229   2.113  -0.025   0.930 -0.2399  0.0921  0.4918
 6890TIP3    H242230   2.003   0.072   0.969  0.0543  1.0636 -1.0072
 6891TIP3   OH242231   6.617   2.132   0.205  0.4403  0.1062 -0.2581
 6891TIP3    H142232   6.703   2.093   0.187 -0.2658 -2.9321  2.1833
 6891TIP3    H242233   6.637   2.213   0.251  2.0585 -0.5440  0.2750
 6892TIP3   OH242234   3.186   1.810   2.453 -0.4328 -0.4515  0.0474
 6892TIP3    H142235   3.097   1.794   2.485  0.0678 -0.6103  1.4753
 6892TIP3    H242236   3.200   1.904   2.465  0.1975 -0.6976  1.6575
 6893TIP3   OH242237   1.647   6.480   0.787  0.1415  0.4367 -0.3924
 6893TIP3    H142238   1.711   6.527   0.841 -2.5861  0.7919  2.8950
 6893TIP3    H242239   1.684   6.392   0.778  0.9237  0.4458  1.8864
 6894TIP3   OH242240   2.859   5.213   7.020 -0.3610  0.5427  0.3545
 6894TIP3    H142241   2.777   5.198   7.067 -0.1300 -0.9895  0.3192
 6894TIP3    H242242   2.905   5.278   7.073 -0.8220  0.0757  1.3621
 6895TIP3   OH242243   0.995   5.167   1.800 -0.3180  0.0166 -0.6687
 6895TIP3    H142244   1.077   5.119   1.812 -1.0448 -1.6376 -1.9703
 6895TIP3    H242245   0.931   5.120   1.853 -0.8842  0.0126 -1.3499
 6896TIP3   OH242246   4.967   2.848   7.795  0.3341 -0.5913  0.2120
 6896TIP3    H142247   5.010   2.768   7.826  0.8206 -0.1092  0.7939
 6896TIP3    H242248   4.913   2.876   7.869  2.5222  1.3109  1.1994
 6897TIP3   OH242249   5.015   2.150   0.689 -0.3010  0.1604 -0.0306
 6897TIP3    H142250   5.062   2.104   0.620 -0.2611  0.1667 -0.0079
 6897TIP3    H242251   5.056   2.236   0.693  0.8829 -0.4109  1.1692
 6898TIP3   OH242252   4.659   1.828   3.207  0.6159 -0.1162 -0.7108
 6898TIP3    H142253   4.583   1.859   3.157  1.4444 -0.1699 -2.0741
 6898TIP3    H242254   4.633   1.742   3.239 -0.6131  0.6839  0.5764
 6899TIP3   OH242255   4.485   3.781   7.040 -0.5620  0.5110  0.0416
 6899TIP3    H142256   4.395   3.764   7.015 -0.9704  2.2567  0.2235
 6899TIP3    H242257   4.536   3.718   6.988 -1.8756 -0.8993  0.3624
 6900TIP3   OH242258   2.353   4.976   6.806  0.7887 -0.0076 -0.1753
 6900TIP3    H142259   2.436   5.011   6.772  0.8884 -0.2434 -0.1804
 6900TIP3    H242260   2.285   5.025   6.760  0.8996  1.3946  1.0441
 6901TIP3   OH242261   0.287   6.320   8.333  0.7196  1.0162  0.0282
 6901TIP3    H142262   0.227   6.361   8.271 -1.4888  0.1793  1.4837
 6901TIP3    H242263   0.347   6.270   8.279  0.6038  2.4791 -1.5314
 6902TIP3   OH242264   6.375   0.252   0.886 -0.4135 -0.1999  0.2557
 6902TIP3    H142265   6.359   0.336   0.844 -1.3630 -0.7887 -0.5993
 6902TIP3    H242266   6.351   0.187   0.820  1.3135 -1.1627  0.5025
 6903TIP3   OH242267   6.244   4.921   0.824 -0.2779 -0.1174  0.2871
 6903TIP3    H142268   6.183   4.917   0.898  0.5790 -1.0723  0.9774
 6903TIP3    H242269   6.330   4.905   0.864  0.5689  2.0668 -0.5150
 6904TIP3   OH242270   6.659   5.479   6.486  0.1014  0.2563 -0.0936
 6904TIP3    H142271   6.641   5.517   6.572  0.8865  1.5347 -0.4657
 6904TIP3    H242272   6.748   5.445   6.493 -0.5879 -1.6198  0.2346
 6905TIP3   OH242273   5.289   2.828   0.041  0.5576  0.3832  0.3567
 6905TIP3    H142274   5.257   2.830   0.131 -1.0898 -2.3876 -0.0577
 6905TIP3    H242275   5.357   2.760   0.042 -0.1056 -0.3140 -0.6492
 6906TIP3   OH242276   1.275   1.780   3.218 -0.3259 -0.4630 -0.4743
 6906TIP3    H142277   1.276   1.839   3.294  0.6637  0.1025 -0.8937
 6906TIP3    H242278   1.187   1.744   3.216 -1.0702  1.2701 -0.3840
 6907TIP3   OH242279   0.907   3.427   0.811  0.6418 -0.2642  0.3445
 6907TIP3    H142280   0.848   3.412   0.884  1.6609 -2.0410  0.8599
 6907TIP3    H242281   0.859   3.394   0.734 -0.4858  1.7370  0.1161
 6908TIP3   OH242282   4.559   1.444   7.616 -0.1405 -0.5312  0.5752
 6908TIP3    H142283   4.563   1.509   7.546 -2.3694 -1.9017 -0.9554
 6908TIP3    H242284   4.648   1.410   7.623  0.4462  0.6933 -0.5420
 6909TIP3   OH242285   3.628   4.598   0.633 -0.3723 -0.4473  0.4073
 6909TIP3    H142286   3.682   4.585   0.555 -2.8658 -0.2661 -1.4826
 6909TIP3    H242287   3.672   4.669   0.681  3.9384 -3.7016  1.9302
 6910TIP3   OH242288   3.636   1.484   2.218  0.0118 -0.2018 -0.3359
 6910TIP3    H142289   3.660   1.495   2.310  0.5629  0.2899 -0.5280
 6910TIP3    H242290   3.640   1.573   2.182  2.4545 -0.6664 -1.4456
 6911TIP3   OH242291   1.182   4.758   6.829  0.1721  0.1611  0.0151
 6911TIP3    H142292   1.130   4.827   6.789 -0.7262 -0.1565  0.6042
 6911TIP3    H242293   1.225   4.714   6.755  0.9119  1.4594 -0.3450
 6912TIP3   OH242294   6.150   0.427   6.771 -0.2949 -0.5566 -0.2130
 6912TIP3    H142295   6.079   0.366   6.791  0.7931 -1.9046 -0.2959
 6912TIP3    H242296   6.202   0.382   6.705 -0.9772  1.6585 -2.4208
 6913TIP3   OH242297   0.480   3.630   2.585 -0.6774 -0.1744  0.6713
 6913TIP3    H142298   0.574   3.628   2.605 -0.6506 -1.2695  0.5004
 6913TIP3    H242299   0.460   3.542   2.555 -1.6428  0.2196  0.1040
 6914TIP3   OH242300   0.089   6.130   7.663 -0.2266  0.0905  0.1357
 6914TIP3    H142301   0.017   6.124   7.600 -0.8666 -1.6467  0.9659
 6914TIP3    H242302   0.146   6.055   7.642  0.5147  0.5439  0.4798
 6915TIP3   OH242303   3.045   0.829   8.551 -0.4293  0.3300  0.0749
 6915TIP3    H142304   3.051   0.812   8.645 -0.3321  1.0975  0.2138
 6915TIP3    H242305   2.982   0.765   8.519 -1.2105  0.6993  0.8404
 6916TIP3   OH242306   4.372   5.808   0.229 -0.3695 -0.8108  0.1124
 6916TIP3    H142307   4.340   5.863   0.158  2.5923 -0.5605 -1.1523
 6916TIP3    H242308   4.381   5.867   0.304  0.9669  0.0532 -0.6974
 6917TIP3   OH242309   2.024   4.485   8.122 -0.4655  0.2689 -0.6106
 6917TIP3    H142310   2.092   4.429   8.159 -1.1091 -0.0564  0.0933
 6917TIP3    H242311   1.945   4.464   8.171 -1.5232 -0.6399 -2.5788
 6918TIP3   OH242312   1.180   0.351   1.585  0.0269  0.4724  0.0832
 6918TIP3    H142313   1.129   0.274   1.559 -1.2216  0.8222  1.3821
 6918TIP3    H242314   1.166   0.414   1.515 -0.4533  0.1745 -0.0925
 6919TIP3   OH242315   5.536   5.248   7.848  0.3425 -0.4877  0.0767
 6919TIP3    H142316   5.630   5.251   7.864  0.5531  1.3345 -1.2346
 6919TIP3    H242317   5.524   5.293   7.764 -1.8647  0.8975  1.0492
 6920TIP3   OH242318   2.307   0.339   1.815  0.1544  0.0756  0.1773
 6920TIP3    H142319   2.380   0.401   1.815 -0.3263  0.6875  1.6056
 6920TIP3    H242320   2.333   0.271   1.752  0.7631  1.6188 -1.3152
 6921TIP3   OH242321   5.312   6.192   0.073 -0.1006 -0.2657  0.3639
 6921TIP3    H142322   5.317   6.171   0.166 -1.5663 -0.4884  0.4156
 6921TIP3    H242323   5.338   6.284   0.068  0.6833 -0.4505  0.8881
 6922TIP3   OH242324   1.549   5.831   2.652  0.1783 -0.3414 -0.0643
 6922TIP3    H142325   1.590   5.778   2.585  3.9482 -0.4643  2.0452
 6922TIP3    H242326   1.474   5.779   2.683 -0.6578 -0.9776 -2.8780
 6923TIP3   OH242327   3.604   0.700   1.280  0.0196  0.1367  0.7861
 6923TIP3    H142328   3.698   0.683   1.291 -0.0999 -0.6628  0.6342
 6923TIP3    H242329   3.594   0.722   1.188 -0.0452 -0.5521  0.6212
 6924TIP3   OH242330   2.298   4.029   7.246  0.2457  0.5698 -0.1093
 6924TIP3    H142331   2.356   4.106   7.238 -0.1991  1.0062  0.6967
 6924TIP3    H242332   2.210   4.067   7.253 -0.1692 -0.0926 -1.4295
 6925TIP3   OH242333   5.778   0.348   0.324 -0.1972  0.6535  0.4366
 6925TIP3    H142334   5.732   0.402   0.260  0.5443  0.4237 -0.3088
 6925TIP3    H242335   5.840   0.297   0.272  1.6637  1.7330  1.5227
 6926TIP3   OH242336   5.669   4.022   1.942 -0.4906  0.3178  0.4925
 6926TIP3    H142337   5.762   3.999   1.944  0.0460  2.2003 -0.0603
 6926TIP3    H242338   5.632   3.979   2.019  0.7604 -0.7307  0.5581
 6927TIP3   OH242339   6.837   5.365   7.604 -0.0572  0.1399  0.6551
 6927TIP3    H142340   6.775   5.437   7.617 -0.3777  0.2355 -1.0594
 6927TIP3    H242341   6.851   5.363   7.509  0.9572 -1.2291  0.8030
 6928TIP3   OH242342   1.273   3.640   1.371 -0.4085 -0.1694 -0.1838
 6928TIP3    H142343   1.260   3.618   1.279  1.4160  0.2722 -0.5942
 6928TIP3    H242344   1.329   3.571   1.405  0.0958  0.4152  0.2089
 6929TIP3   OH242345   1.138   6.056   0.106 -0.1152 -0.2975  0.3622
 6929TIP3    H142346   1.105   6.006   0.181 -0.0642 -0.7668  0.0763
 6929TIP3    H242347   1.212   6.106   0.141 -2.4667  2.6471  1.6381
 6930TIP3   OH242348   6.613   3.277   1.038  0.1100 -0.1730  0.2847
 6930TIP3    H142349   6.550   3.228   1.089  0.3970 -0.8377  0.0145
 6930TIP3    H242350   6.699   3.248   1.070  0.2864 -0.0272 -0.0417
 6931TIP3   OH242351   3.845   6.776   8.069 -0.5290  0.2474  0.3968
 6931TIP3    H142352   3.764   6.747   8.110 -0.2680  0.1101  0.8139
 6931TIP3    H242353   3.838   6.872   8.067  0.4576  0.4504  2.8986
 6932TIP3   OH242354   0.646   5.042   2.355 -0.4569 -0.0919  0.2390
 6932TIP3    H142355   0.721   5.100   2.371 -2.5421  2.2695  2.2544
 6932TIP3    H242356   0.650   4.978   2.426 -0.6209  0.3248  0.6254
 6933TIP3   OH242357   5.897   5.257   0.130  0.3183  0.5516 -0.0699
 6933TIP3    H142358   5.911   5.277   0.222  1.0483 -3.0961  0.7784
 6933TIP3    H242359   5.986   5.248   0.094  0.1324 -1.8373 -0.0739
 6934TIP3   OH242360   3.432   6.204   8.314 -0.0449  0.0246 -0.0737
 6934TIP3    H142361   3.490   6.236   8.245  0.4996 -0.4834  0.1420
 6934TIP3    H242362   3.371   6.146   8.268  1.0320 -1.2330  0.0090
 6935TIP3   OH242363   5.442   3.129   1.385 -0.4466 -0.7899  0.5004
 6935TIP3    H142364   5.374   3.152   1.321 -0.4314  0.8306  1.0178
 6935TIP3    H242365   5.523   3.127   1.335 -0.1239  2.4033  0.7101
 6936TIP3   OH242366   5.300   2.756   8.360 -0.0868 -0.3544 -0.9040
 6936TIP3    H142367   5.252   2.673   8.368  0.8785 -0.7278  2.7746
 6936TIP3    H242368   5.233   2.823   8.358 -0.8244 -1.0838 -1.1951
 6937TIP3   OH242369   6.480   3.835   7.828 -0.4931  0.0192 -0.5963
 6937TIP3    H142370   6.491   3.744   7.857 -0.5637 -0.0170 -0.6836
 6937TIP3    H242371   6.510   3.887   7.903 -0.9476 -0.0742 -0.3457
 6938TIP3   OH242372   5.179   1.349   0.970  0.9172 -0.3463  0.7942
 6938TIP3    H142373   5.160   1.442   0.983  0.9151 -0.6243  3.2147
 6938TIP3    H242374   5.253   1.348   0.910  0.5739  1.1788  0.3013
 6939TIP3   OH242375   1.059   2.929   0.769  0.2546  0.2705 -0.0643
 6939TIP3    H142376   1.011   2.978   0.836 -1.4881 -1.0089 -0.2962
 6939TIP3    H242377   1.027   2.839   0.779  1.4698 -0.3275 -1.3069
 6940TIP3   OH242378   5.624   2.044   1.192 -0.3831  0.1728 -0.4501
 6940TIP3    H142379   5.608   1.952   1.173  0.3681  0.4271 -2.4805
 6940TIP3    H242380   5.689   2.072   1.128 -1.8564  2.5609 -1.0546
 6941TIP3   OH242381   3.089   2.089   7.291  0.1693  0.5696  0.1068
 6941TIP3    H142382   3.120   2.088   7.201  0.1944 -0.1102  0.1191
 6941TIP3    H242383   3.017   2.152   7.290  0.1419  0.5381 -0.3984
 6942TIP3   OH242384   4.761   5.288   8.115 -0.3573 -0.1349 -0.3326
 6942TIP3    H142385   4.791   5.199   8.099 -1.4481 -0.6999  0.5813
 6942TIP3    H242386   4.684   5.298   8.059  0.9685  1.0239 -2.0673
 6943TIP3   OH242387   6.141   3.027   6.800 -0.0495 -0.3637  0.1006
 6943TIP3    H142388   6.084   3.104   6.808  1.6954  0.9966  0.1363
 6943TIP3    H242389   6.133   2.982   6.884 -0.8546 -0.0352  0.2038
 6944TIP3   OH242390   1.310   3.387   1.474 -0.3657  0.6767  0.2273
 6944TIP3    H142391   1.223   3.374   1.510 -0.7012  0.6003 -0.5896
 6944TIP3    H242392   1.354   3.303   1.486 -1.3802 -0.2393 -1.9398
 6945TIP3   OH242393   1.061   2.595   2.112  0.2946  0.6812  0.9600
 6945TIP3    H142394   1.106   2.648   2.178  1.1609 -0.1423  1.0618
 6945TIP3    H242395   0.997   2.544   2.162 -0.1493  1.2077  0.9375
 6946TIP3   OH242396   4.134   4.568   2.294 -0.5377  0.4137 -0.5443
 6946TIP3    H142397   4.208   4.573   2.354 -0.9921 -0.0404  0.0692
 6946TIP3    H242398   4.057   4.579   2.350 -1.0392 -1.3351 -0.8376
 6947TIP3   OH242399   0.117   2.340   2.779 -0.0082  0.4771 -0.3056
 6947TIP3    H142400   0.031   2.341   2.822 -1.2157  0.1389 -2.5782
 6947TIP3    H242401   0.117   2.418   2.723 -0.2063 -1.2067 -2.7689
 6948TIP3   OH242402   0.200   5.976   2.825 -0.7498 -0.1437  0.1118
 6948TIP3    H142403   0.121   5.958   2.774 -1.2420  1.9384  0.0792
 6948TIP3    H242404   0.168   6.011   2.908  0.1172  0.4973  0.1940
 6949TIP3   OH242405   3.584   6.045   8.107 -0.2915 -0.0649  0.2781
 6949TIP3    H142406   3.664   6.070   8.153 -0.5909  0.6040  0.4460
 6949TIP3    H242407   3.608   6.048   8.014  0.0683 -0.5390  0.3565
 6950TIP3   OH242408   1.748   4.713   2.975 -0.0586  0.4876  0.2156
 6950TIP3    H142409   1.799   4.793   2.990 -1.1316  1.4327 -0.9013
 6950TIP3    H242410   1.745   4.705   2.879 -1.7392  0.3103  0.2494
 6951TIP3   OH242411   4.214   4.902   8.230  0.8529  0.2199  0.1446
 6951TIP3    H142412   4.154   4.965   8.270  1.4884  2.3652 -2.0393
 6951TIP3    H242413   4.300   4.926   8.265  0.7609 -1.6098  1.7810
 6952TIP3   OH242414   2.873   3.306   8.428  0.3026 -0.0349  0.2192
 6952TIP3    H142415   2.925   3.233   8.463  0.6997  0.3635  0.4649
 6952TIP3    H242416   2.860   3.364   8.503 -1.4690 -0.6671  0.4508
 6953TIP3   OH242417   5.726   4.481   1.928  0.4461 -0.1212  0.6155
 6953TIP3    H142418   5.726   4.394   1.887  0.3213  0.5100 -0.7794
 6953TIP3    H242419   5.667   4.533   1.873  0.3078  0.7828  1.5952
 6954TIP3   OH242420   0.397   5.390   8.024 -0.1376 -0.2890  0.6137
 6954TIP3    H142421   0.479   5.341   8.029  0.2277  0.3125  0.5790
 6954TIP3    H242422   0.411   5.466   8.080 -0.7793 -0.3362  0.8390
 6955TIP3   OH242423   6.778   4.401   7.648  0.3603  0.2371 -0.2774
 6955TIP3    H142424   6.854   4.361   7.692  0.4363 -1.1109 -1.5502
 6955TIP3    H242425   6.784   4.494   7.671  0.8228 -0.2492  1.8915
 6956TIP3   OH242426   0.279   5.912   0.125  0.0104 -0.3563  0.8264
 6956TIP3    H142427   0.374   5.924   0.117  0.1696 -2.2514 -0.6799
 6956TIP3    H242428   0.243   5.947   0.044 -0.2879 -1.9902  0.2112
 6957TIP3   OH242429   1.822   3.500   0.726  0.1088 -0.5718 -0.5270
 6957TIP3    H142430   1.830   3.559   0.801 -2.0320  1.0819 -1.4785
 6957TIP3    H242431   1.875   3.424   0.750  2.1873  1.2728  1.2081
 6958TIP3   OH242432   6.745   0.299   0.826 -0.4445  0.0702  0.7635
 6958TIP3    H142433   6.722   0.342   0.909 -1.1924  0.4933  0.3532
 6958TIP3    H242434   6.836   0.324   0.811 -0.5916  0.7897  0.9892
 6959TIP3   OH242435   1.470   5.533   1.322  0.6484  0.0988  0.6965
 6959TIP3    H142436   1.428   5.529   1.407  0.4059 -3.9090  0.5674
 6959TIP3    H242437   1.467   5.443   1.289 -0.6636  1.6341 -4.2669
 6960TIP3   OH242438   3.136   1.802   7.982 -0.0249 -0.0487  0.7859
 6960TIP3    H142439   3.170   1.845   8.059 -1.6713  2.2907  0.3235
 6960TIP3    H242440   3.187   1.722   7.974  3.3768  1.8628  1.6178
 6961TIP3   OH242441   5.875   5.338   1.173  0.1017  0.4255  0.1436
 6961TIP3    H142442   5.964   5.305   1.160 -0.3748 -0.6471 -0.5521
 6961TIP3    H242443   5.818   5.268   1.139 -1.0079  1.0671  0.6230
 6962TIP3   OH242444   2.287   3.273   8.019  0.0567 -0.0264 -0.2766
 6962TIP3    H142445   2.359   3.282   7.957 -0.0585  0.0661 -0.3971
 6962TIP3    H242446   2.227   3.212   7.977 -1.2324  1.9128 -1.3912
 6963TIP3   OH242447   5.500   6.249   7.980 -0.4537 -0.0842 -0.1225
 6963TIP3    H142448   5.408   6.268   7.964 -0.3530  1.9426  1.2772
 6963TIP3    H242449   5.547   6.307   7.921 -0.1232  0.8058  0.9663
 6964TIP3   OH242450   0.416   6.407   6.608  0.0674 -0.3630  0.1962
 6964TIP3    H142451   0.398   6.322   6.569 -0.1766 -0.3235  0.2182
 6964TIP3    H242452   0.485   6.444   6.554  0.8708 -0.9836  0.7865
 6965TIP3   OH242453   1.566   0.828   1.488  0.1393 -0.1766 -0.0506
 6965TIP3    H142454   1.648   0.831   1.438 -0.2560  1.3263 -0.6792
 6965TIP3    H242455   1.540   0.736   1.487  1.9080 -0.7126  0.3395
 6966TIP3   OH242456   2.563   6.348   2.074 -0.2930  0.5318  0.3039
 6966TIP3    H142457   2.596   6.435   2.054 -0.0582  0.5505  0.7446
 6966TIP3    H242458   2.468   6.354   2.061 -0.1169  0.4159 -1.1823
 6967TIP3   OH242459   1.666   4.688   8.600  0.1083  0.1338  0.0718
 6967TIP3    H142460   1.739   4.626   8.596  1.6049  1.8613 -1.4090
 6967TIP3    H242461   1.633   4.681   8.689  2.0354 -0.7898  0.7606
 6968TIP3   OH242462   5.185   2.049   6.823 -0.2653 -0.2942 -0.8133
 6968TIP3    H142463   5.210   1.957   6.832  0.3744 -0.1617 -1.1570
 6968TIP3    H242464   5.197   2.068   6.730  1.0122  0.5147 -0.5069
 6969TIP3   OH242465   5.151   5.180   1.582 -0.0505  0.5624 -0.4594
 6969TIP3    H142466   5.139   5.116   1.651  1.5292 -0.0136 -0.6802
 6969TIP3    H242467   5.083   5.159   1.518 -0.3865 -0.0367  0.0838
 6970TIP3   OH242468   3.574   1.143   1.814 -0.3268  1.1658  0.1676
 6970TIP3    H142469   3.527   1.211   1.766  0.7037  1.5601 -0.3113
 6970TIP3    H242470   3.667   1.164   1.801  0.0408 -0.6723 -0.5181
 6971TIP3   OH242471   5.418   1.170   1.686  0.0164 -0.2330 -0.3065
 6971TIP3    H142472   5.399   1.077   1.675 -1.5719 -0.4722  3.0286
 6971TIP3    H242473   5.472   1.175   1.765 -1.1328  1.6958  0.4546
 6972TIP3   OH242474   3.670   0.049   7.672 -0.3863 -1.0154 -0.6833
 6972TIP3    H142475   3.709   0.134   7.654  0.8088 -1.0240  1.5559
 6972TIP3    H242476   3.577   0.066   7.681  0.0488  0.4936  1.7480
 6973TIP3   OH242477   0.924   3.230   0.408  0.0330  0.0668  0.3099
 6973TIP3    H142478   0.959   3.310   0.370 -1.8559  0.7219 -0.1833
 6973TIP3    H242479   0.911   3.172   0.333 -0.6004  0.1178  0.3717
 6974TIP3   OH242480   6.422   2.110   7.806 -0.0491  0.6574 -0.0192
 6974TIP3    H142481   6.412   2.022   7.771  0.3901  0.3255  0.6721
 6974TIP3    H242482   6.429   2.166   7.729  0.7199 -0.0380 -0.4673
 6975TIP3   OH242483   3.713   2.141   7.713  0.0207  0.0339 -0.5121
 6975TIP3    H142484   3.680   2.096   7.791 -1.3740 -1.0818 -1.6784
 6975TIP3    H242485   3.658   2.219   7.706 -0.3321 -0.2286 -0.7416
 6976TIP3   OH242486   4.346   1.168   0.669 -0.3641 -0.3678  0.1833
 6976TIP3    H142487   4.345   1.134   0.759 -1.3446 -0.6825  0.0586
 6976TIP3    H242488   4.254   1.185   0.648 -0.4529 -2.6223 -1.6302
 6977TIP3   OH242489   0.426   1.530   7.285  0.4495 -0.2083 -0.3529
 6977TIP3    H142490   0.479   1.594   7.332 -0.4803  0.6032 -0.3801
 6977TIP3    H242491   0.489   1.469   7.248  1.3554  0.6976 -0.3339
 6978TIP3   OH242492   6.655   6.625   1.724 -0.3209  0.0543 -0.4248
 6978TIP3    H142493   6.729   6.568   1.745 -1.6510 -1.3476  0.6408
 6978TIP3    H242494   6.591   6.567   1.682 -1.2865  0.9748 -0.2675
 6979TIP3   OH242495   2.396   3.505   7.577 -0.0867 -0.5182  0.6311
 6979TIP3    H142496   2.368   3.590   7.544  1.2642  0.4726  1.9121
 6979TIP3    H242497   2.429   3.459   7.499  2.1177  1.3738  0.3416
 6980TIP3   OH242498   1.328   0.069   7.066 -0.0473 -0.0254  0.4562
 6980TIP3    H142499   1.306   0.151   7.024 -0.4038 -0.6458 -0.6080
 6980TIP3    H242500   1.403   0.036   7.017 -1.1946 -1.3278 -0.5201
 6981TIP3   OH242501   2.970   3.683   7.668 -0.3676  0.0218  0.1065
 6981TIP3    H142502   3.039   3.676   7.602 -1.0262  2.7036 -1.0198
 6981TIP3    H242503   2.940   3.774   7.662 -2.2291 -0.3342  2.3615
 6982TIP3   OH242504   5.152   1.124   8.652 -0.7718  0.2993 -0.0348
 6982TIP3    H142505   5.081   1.108   8.714  0.4145  0.9841  1.5627
 6982TIP3    H242506   5.172   1.038   8.615 -0.5851 -0.3721  1.5822
 6983TIP3   OH242507   6.067   6.055   0.702 -1.0887  0.6276  0.1724
 6983TIP3    H142508   6.096   6.102   0.624 -0.7378  1.1631  0.6141
 6983TIP3    H242509   6.089   5.963   0.685 -0.8096  0.7743 -0.2631
 6984TIP3   OH242510   5.080   5.903   0.082  0.4078  0.1788  0.4207
 6984TIP3    H142511   5.035   5.913   0.166 -1.7178 -0.1184 -0.6150
 6984TIP3    H242512   5.014   5.866   0.023  1.9368  0.0336 -1.3087
 6985TIP3   OH242513   1.691   3.209   6.991 -0.1927  0.0491 -0.7345
 6985TIP3    H142514   1.703   3.164   7.075  0.7007  2.0468  0.2865
 6985TIP3    H242515   1.780   3.216   6.955 -0.3621  0.5705 -1.0648
 6986TIP3   OH242516   4.641   4.809   0.237 -0.3945 -0.3352  0.0137
 6986TIP3    H142517   4.617   4.892   0.279 -1.6107 -0.3142 -0.6731
 6986TIP3    H242518   4.607   4.742   0.297  2.2746 -0.4458  1.5708
 6987TIP3   OH242519   5.715   2.228   7.852  0.3831  0.5021 -0.4156
 6987TIP3    H142520   5.674   2.146   7.877 -0.3002  1.2618  1.0984
 6987TIP3    H242521   5.673   2.253   7.770  0.1431 -0.3427 -0.5484
 6988TIP3   OH242522   2.346   6.437   8.145  0.2476  0.4583  0.2128
 6988TIP3    H142523   2.371   6.473   8.060 -0.5957  1.0461  0.2002
 6988TIP3    H242524   2.359   6.509   8.206  1.7298 -0.2355  0.7553
 6989TIP3   OH242525   6.672   6.807   1.389 -0.5851  0.0504 -0.2855
 6989TIP3    H142526   6.721   6.780   1.468 -0.6412 -0.2775 -0.3627
 6989TIP3    H242527   6.666   6.727   1.337 -0.8247  0.1961 -0.4782
 6990TIP3   OH242528   5.611   6.372   0.959  0.0025  0.1416  0.2626
 6990TIP3    H142529   5.679   6.416   0.907  0.0893  1.5687  1.5217
 6990TIP3    H242530   5.659   6.318   1.021 -0.0748 -0.5414 -0.2640
 6991TIP3   OH242531   1.394   4.847   0.235 -0.4070  0.6314  0.1749
 6991TIP3    H142532   1.461   4.908   0.204  1.1199 -1.2343 -0.3527
 6991TIP3    H242533   1.409   4.767   0.185 -1.7782 -0.4901  1.4643
 6992TIP3   OH242534   4.935   6.064   8.343 -0.4302  0.6194  0.3563
 6992TIP3    H142535   4.994   6.127   8.385 -0.8050  0.4380  1.1897
 6992TIP3    H242536   4.993   5.997   8.308  0.0123  1.6702 -1.0023
 6993TIP3   OH242537   2.534   4.291   1.222 -0.6319  0.2807  1.0075
 6993TIP3    H142538   2.444   4.323   1.214 -0.5183  0.5571  0.7934
 6993TIP3    H242539   2.551   4.289   1.316 -0.9469 -0.0192  1.0597
 6994TIP3   OH242540   3.629   1.188   8.133  0.0507  0.2034  0.1990
 6994TIP3    H142541   3.619   1.195   8.228  0.8880 -0.3911  0.3381
 6994TIP3    H242542   3.548   1.148   8.103  0.6539 -1.6796  0.9341
 6995TIP3   OH242543   0.652   4.230   8.243  0.4217  0.2267  0.6853
 6995TIP3    H142544   0.591   4.168   8.202 -0.4556  0.9582  0.8671
 6995TIP3    H242545   0.715   4.174   8.289  0.3189 -0.5584 -0.0873
 6996TIP3   OH242546   2.209   1.358   3.096  0.2703  0.2404 -0.4222
 6996TIP3    H142547   2.221   1.294   3.166  0.1931  1.5415  0.8298
 6996TIP3    H242548   2.285   1.416   3.103 -0.8396  1.6851  0.0379
 6997TIP3   OH242549   0.981   4.786   2.099  0.8049 -0.3324 -0.4215
 6997TIP3    H142550   1.023   4.862   2.138 -0.5658 -1.3669  3.6023
 6997TIP3    H242551   1.041   4.713   2.116  0.3660 -0.7492 -0.6198
 6998TIP3   OH242552   1.598   6.068   2.059  0.2237 -0.5198 -0.2373
 6998TIP3    H142553   1.606   6.021   2.142  0.0150  0.7903  0.5447
 6998TIP3    H242554   1.597   6.161   2.083  0.9081 -0.0781 -1.7610
 6999TIP3   OH242555   5.655   5.823   2.275 -0.2862  0.0656  0.0113
 6999TIP3    H142556   5.605   5.798   2.352  0.2095 -0.0420  0.3046
 6999TIP3    H242557   5.701   5.903   2.301 -1.0396  0.7023 -0.5716
 7000TIP3   OH242558   3.661   5.230   1.325  0.1912 -0.1032  0.5125
 7000TIP3    H142559   3.730   5.269   1.378  0.7797 -0.3792 -0.0412
 7000TIP3    H242560   3.689   5.140   1.310  1.2862  0.6283 -2.3202
 7001TIP3   OH242561   5.446   1.133   6.923 -0.3507  0.1554  0.4997
 7001TIP3    H142562   5.351   1.124   6.917 -0.3135  0.0575  0.0190
 7001TIP3    H242563   5.463   1.224   6.900 -0.3604  0.2837  0.9926
 7002TIP3   OH242564   1.614   4.204   7.573 -0.0424  0.0288 -0.7358
 7002TIP3    H142565   1.607   4.300   7.567 -2.3732 -0.0682 -0.7398
 7002TIP3    H242566   1.557   4.181   7.647 -1.6159 -1.5093 -2.3210
 7003TIP3   OH242567   4.535   1.085   1.182  0.5942 -0.3118 -0.2466
 7003TIP3    H142568   4.568   1.091   1.272  0.8606  1.1377 -0.4059
 7003TIP3    H242569   4.612   1.094   1.127  0.3370 -0.3386 -0.6178
 7004TIP3   OH242570   0.829   4.798   7.037 -0.1262  0.4470 -0.6673
 7004TIP3    H142571   0.816   4.845   7.119 -2.8544 -0.9811 -0.1674
 7004TIP3    H242572   0.758   4.829   6.981  0.4184 -0.1971 -1.7412
 7005TIP3   OH242573   6.817   6.489   2.324  0.9577 -0.2348 -0.7656
 7005TIP3    H142574   6.757   6.428   2.368  1.3036  0.5577  0.8930
 7005TIP3    H242575   6.898   6.484   2.376  0.3757  3.0451  0.6602
 7006TIP3   OH242576   0.195   5.648   7.542  0.4342 -0.4972 -0.4915
 7006TIP3    H142577   0.220   5.571   7.492 -0.0856 -0.3511 -0.9779
 7006TIP3    H242578   0.115   5.679   7.501  0.7780  0.4589 -0.4715
 7007TIP3   OH242579   0.081   5.153   6.563 -0.1245 -0.6379  0.2036
 7007TIP3    H142580   0.002   5.188   6.605  0.1967 -0.3633  0.5892
 7007TIP3    H242581   0.108   5.223   6.503 -0.1011 -0.6795  0.1659
 7008TIP3   OH242582   3.258   3.948   0.094 -0.2021 -0.1555 -0.2875
 7008TIP3    H142583   3.328   4.013   0.097 -1.7310  1.5922 -0.4597
 7008TIP3    H242584   3.201   3.971   0.168 -2.4154  0.7529 -2.1306
 7009TIP3   OH242585   0.913   2.943   2.667 -0.3794 -0.0407  0.1495
 7009TIP3    H142586   0.928   2.977   2.755 -1.0119 -2.4224  1.2701
 7009TIP3    H242587   0.994   2.962   2.619  0.0008  1.2319  1.2540
 7010TIP3   OH242588   2.612   4.207   1.513  0.2053 -0.7099  0.0182
 7010TIP3    H142589   2.705   4.192   1.499  1.1277  2.8742  1.0906
 7010TIP3    H242590   2.608   4.259   1.594 -2.6512 -0.0833 -0.3946
 7011TIP3   OH242591   6.483   4.242   1.641 -0.2073 -0.2468  0.2223
 7011TIP3    H142592   6.459   4.310   1.704 -0.0268 -0.0904  0.1243
 7011TIP3    H242593   6.401   4.219   1.598 -0.0621  0.8881 -0.7074
 7012TIP3   OH242594   0.875   4.923   8.061 -0.7339  0.0510 -0.2450
 7012TIP3    H142595   0.781   4.927   8.076 -1.1236 -1.7762 -1.8048
 7012TIP3    H242596   0.910   4.882   8.140 -1.4087 -0.3692 -0.1559
 7013TIP3   OH242597   2.142   4.308   0.651  0.1065 -0.2547 -0.5684
 7013TIP3    H142598   2.193   4.336   0.575 -0.5369 -0.2592 -1.0149
 7013TIP3    H242599   2.207   4.288   0.718  0.6642  4.3886  0.6124
 7014TIP3   OH242600   2.634   3.643   7.829 -0.4805  0.1496 -0.4447
 7014TIP3    H142601   2.647   3.586   7.753 -0.6415 -0.4537 -0.0301
 7014TIP3    H242602   2.539   3.639   7.845 -0.2419 -1.1150  0.8244
 7015TIP3   OH242603   6.562   5.953   1.743  0.7523  0.1409  0.1774
 7015TIP3    H142604   6.520   5.902   1.812 -1.8573 -0.3625 -1.6424
 7015TIP3    H242605   6.515   6.036   1.743  1.0429  0.3099 -0.6878
 7016TIP3   OH242606   0.035   2.851   2.732  0.6441 -0.6428  0.7000
 7016TIP3    H142607   0.109   2.792   2.747  2.0506  0.6289 -0.8340
 7016TIP3    H242608   0.068   2.937   2.759  0.5739  0.3438 -2.0833
 7017TIP3   OH242609   0.811   4.957   0.199  1.0039 -0.5784  0.6313
 7017TIP3    H142610   0.831   4.986   0.288  2.1075 -4.7009  1.9455
 7017TIP3    H242611   0.896   4.951   0.155  0.5352  0.7287 -0.5317
 7018TIP3   OH242612   5.847   2.932   1.069 -0.1496  0.2749 -0.4492
 7018TIP3    H142613   5.892   2.945   1.153 -1.5415 -0.5296  0.4666
 7018TIP3    H242614   5.815   2.842   1.073 -0.9672  0.5018 -1.4915
 7019TIP3   OH242615   4.701   5.108   0.029 -0.1768 -0.3509  0.0848
 7019TIP3    H142616   4.611   5.082   0.046 -0.1495  0.4459  1.6698
 7019TIP3    H242617   4.695   5.169  -0.045 -0.7014 -1.5832 -0.9271
 7020TIP3   OH242618   0.845   5.568   7.046  0.6562  0.3426 -0.4038
 7020TIP3    H142619   0.867   5.579   6.953  0.5609 -2.6347 -0.8776
 7020TIP3    H242620   0.930   5.558   7.089  0.6435 -0.6903 -0.5891
 7021TIP3   OH242621   5.997   0.365   1.441 -0.4167 -0.1990  0.0177
 7021TIP3    H142622   6.021   0.372   1.533 -1.2606 -0.8056  0.2974
 7021TIP3    H242623   6.077   0.386   1.393  0.2012 -0.5299  0.8887
 7022TIP3   OH242624   2.588   4.052   7.212  0.0206  0.4747  0.2789
 7022TIP3    H142625   2.675   4.046   7.249  0.5061 -0.6700 -0.9513
 7022TIP3    H242626   2.536   3.989   7.262 -0.0862  1.0799  0.9419
 7023TIP3   OH242627   5.401   3.186   0.465 -0.0795  0.0427  0.5762
 7023TIP3    H142628   5.330   3.213   0.406  0.1884  2.0541  1.0844
 7023TIP3    H242629   5.444   3.268   0.489  0.5827 -0.8369  2.5968
 7024TIP3   OH242630   4.048   6.447   2.174  0.2354  0.1604  0.2846
 7024TIP3    H142631   3.987   6.449   2.248  0.4940 -2.1587  0.6577
 7024TIP3    H242632   4.064   6.353   2.159  2.5953  0.6410 -0.7148
 7025TIP3   OH242633   2.703   3.642   1.867 -0.6487  0.6173  0.6826
 7025TIP3    H142634   2.644   3.566   1.862 -0.1764  0.1642  1.8209
 7025TIP3    H242635   2.779   3.611   1.916 -0.2297  1.6962  0.7432
 7026TIP3   OH242636   6.663   2.216   1.646  0.3333 -0.4298 -0.4158
 7026TIP3    H142637   6.716   2.205   1.567  0.9043 -2.4103  0.2067
 7026TIP3    H242638   6.726   2.217   1.718 -0.3702 -2.2175  0.2825
 7027TIP3   OH242639   1.904   1.333   0.581  0.3480 -0.7784 -0.1182
 7027TIP3    H142640   1.903   1.287   0.496 -0.0335  0.6812 -0.9365
 7027TIP3    H242641   1.824   1.304   0.624  0.8113 -1.9539 -0.0007
 7028TIP3   OH242642   5.696   4.765   1.572  0.8130 -0.3168 -0.0509
 7028TIP3    H142643   5.757   4.798   1.505  2.6159  1.2880  2.2041
 7028TIP3    H242644   5.743   4.692   1.612  0.7641  0.1882  0.9472
 7029TIP3   OH242645   2.462   1.187   3.260  0.0883 -0.3910 -0.0536
 7029TIP3    H142646   2.457   1.276   3.292  1.2052 -0.8917  1.6281
 7029TIP3    H242647   2.372   1.154   3.265  0.0859 -0.1873  1.8780
 7030TIP3   OH242648   4.270   2.750   8.465 -0.0675  0.5181 -0.1110
 7030TIP3    H142649   4.233   2.671   8.424 -1.1231  0.9259  0.0194
 7030TIP3    H242650   4.363   2.731   8.473 -0.1772 -0.3985 -0.8099
 7031TIP3   OH242651   1.820   1.947   7.503  0.2374 -0.8795  0.7580
 7031TIP3    H142652   1.754   1.910   7.561  0.8113 -2.1290  0.6425
 7031TIP3    H242653   1.774   1.962   7.420 -0.5438  0.7707  1.4619
 7032TIP3   OH242654   4.650   4.810   1.493 -0.0557 -0.5860 -0.2301
 7032TIP3    H142655   4.726   4.816   1.435  1.2526 -0.6428  1.3800
 7032TIP3    H242656   4.618   4.721   1.481 -0.3778 -0.3146 -1.5099
 7033TIP3   OH242657   5.961   2.862   1.445 -0.2758  0.6348 -0.3070
 7033TIP3    H142658   5.962   2.950   1.482  0.2670  0.2185  0.6909
 7033TIP3    H242659   5.872   2.830   1.462 -0.0898  0.5207  0.4654
 7034TIP3   OH242660   5.427   4.085   0.033 -0.0519 -0.4195  0.6057
 7034TIP3    H142661   5.336   4.060   0.020  0.0003 -0.0140 -0.7339
 7034TIP3    H242662   5.435   4.170  -0.010  0.9976 -0.5387  0.5295
 7035TIP3   OH242663   4.869   4.078   0.566  0.2986 -1.2410 -0.1024
 7035TIP3    H142664   4.868   3.998   0.513  0.9116  0.3747 -2.7350
 7035TIP3    H242665   4.962   4.097   0.580  0.2340  0.0290 -1.2190
 7036TIP3   OH242666   3.265   1.331   8.593  0.0459  0.5863  0.3612
 7036TIP3    H142667   3.251   1.334   8.498 -0.6349 -2.3031  0.2920
 7036TIP3    H242668   3.178   1.316   8.630  0.6873 -1.4854  1.1618
 7037TIP3   OH242669   3.822   1.258   8.473  0.5902  0.1432 -0.3862
 7037TIP3    H142670   3.870   1.262   8.390  1.7776  1.1516  0.3064
 7037TIP3    H242671   3.732   1.241   8.448  1.0735 -0.4715 -1.8253
 7038TIP3   OH242672   5.913   3.292   2.165  0.3222 -0.3906  0.7019
 7038TIP3    H142673   5.845   3.276   2.231 -0.5589  0.0316 -0.0841
 7038TIP3    H242674   5.992   3.308   2.216 -0.2552 -0.4790  1.6495
 7039TIP3   OH242675   2.809   0.484   2.549  0.3022 -0.0030 -0.0772
 7039TIP3    H142676   2.857   0.406   2.578  1.1179  1.0883  1.6802
 7039TIP3    H242677   2.751   0.505   2.622  1.6583  2.2483  0.4430
 7040TIP3   OH242678   6.101   6.437   7.116 -0.3076 -0.1207 -0.1398
 7040TIP3    H142679   6.141   6.403   7.196  0.1163 -0.8875 -0.6678
 7040TIP3    H242680   6.014   6.397   7.114 -0.4401  0.1518  0.0994
 7041TIP3   OH242681   0.521   3.945   8.594 -0.2298  0.7221  0.2190
 7041TIP3    H142682   0.517   4.021   8.537  0.4740  1.6026  1.2958
 7041TIP3    H242683   0.443   3.895   8.572  0.4499  0.5613 -2.1015
 7042TIP3   OH242684   5.158   6.265   0.481 -0.5089  0.4492 -0.0254
 7042TIP3    H142685   5.103   6.318   0.424 -3.9542 -2.7601 -0.0088
 7042TIP3    H242686   5.127   6.284   0.569 -2.0533 -1.6982 -0.0421
 7043TIP3   OH242687   0.275   0.224   2.563 -0.3085  0.8748 -0.2950
 7043TIP3    H142688   0.202   0.234   2.501 -0.9509  0.1029  0.3024
 7043TIP3    H242689   0.232   0.212   2.648  0.5390  0.9771  0.1589
 7044TIP3   OH242690   0.713   5.009   7.529  0.7835 -0.2905  0.6710
 7044TIP3    H142691   0.634   4.973   7.568  0.3530 -1.0038 -0.7954
 7044TIP3    H242692   0.695   5.011   7.436  2.5080 -0.5118  0.2981
 7045TIP3   OH242693   3.449   0.564   8.298  0.4183  0.1539  0.3797
 7045TIP3    H142694   3.364   0.582   8.258  0.1901  0.5956  1.0523
 7045TIP3    H242695   3.467   0.642   8.350  1.0619 -0.1034  0.5413
 7046TIP3   OH242696   4.052   2.017   7.745  0.2265  0.4622 -0.4927
 7046TIP3    H142697   4.022   1.942   7.693 -1.1103  0.4966  0.1994
 7046TIP3    H242698   4.140   1.992   7.775  0.3369 -0.2476 -1.3780
 7047TIP3   OH242699   3.734   6.459   0.027  0.2484 -0.3866  0.0114
 7047TIP3    H142700   3.779   6.377   0.048  0.4498 -0.1466  0.5399
 7047TIP3    H242701   3.749   6.515   0.103  0.3019  0.2276 -0.4441
 7048TIP3   OH242702   6.843   0.200   1.826 -0.1465 -0.5288  0.5047
 7048TIP3    H142703   6.774   0.139   1.802 -0.3187  0.6174 -2.3308
 7048TIP3    H242704   6.798   0.284   1.836  0.6986  0.1565 -1.0179
 7049TIP3   OH242705   5.327   2.523   1.614 -0.0676  0.1701  0.2141
 7049TIP3    H142706   5.422   2.529   1.627 -0.1204  0.3285  0.5449
 7049TIP3    H242707   5.311   2.570   1.532  0.1703 -0.0700  0.0304
 7050TIP3   OH242708   4.393   0.013   8.158  0.9906 -0.7442 -0.1545
 7050TIP3    H142709   4.413  -0.023   8.072 -0.7549 -2.0716 -0.0489
 7050TIP3    H242710   4.320  -0.039   8.190  2.7753 -1.5883  2.9684
 7051TIP3   OH242711   0.313   4.775   2.947  0.0724 -0.0909 -0.2045
 7051TIP3    H142712   0.387   4.795   3.005 -1.0826  1.6545  0.7632
 7051TIP3    H242713   0.303   4.680   2.953  2.5760 -0.4649 -0.8433
 7052TIP3   OH242714   5.249   2.178   2.136  0.1305 -0.2668 -0.3734
 7052TIP3    H142715   5.309   2.213   2.070  0.3886  0.2126  0.1165
 7052TIP3    H242716   5.205   2.106   2.091  0.0816  0.2467 -1.1703
 7053TIP3   OH242717   5.581   2.961   2.664  0.8162 -0.2597 -0.4998
 7053TIP3    H142718   5.656   3.001   2.708  0.5823 -0.6849  0.3128
 7053TIP3    H242719   5.508   2.974   2.726  0.1905  0.2415 -1.3188
 7054TIP3   OH242720   5.915   5.813   7.668  0.2078  0.0026  0.0509
 7054TIP3    H142721   5.895   5.790   7.758  1.3901 -0.1861  0.2804
 7054TIP3    H242722   6.000   5.859   7.673  1.0011 -1.2582 -1.1057
 7055TIP3   OH242723   1.732   6.488   8.501 -0.4936  0.0638  0.3743
 7055TIP3    H142724   1.821   6.477   8.470 -1.0000 -0.2608 -1.0178
 7055TIP3    H242725   1.690   6.542   8.434 -1.6438 -0.7381  0.4215
 7056TIP3   OH242726   3.747   4.910   6.815  0.4015  1.1123 -0.0374
 7056TIP3    H142727   3.698   4.832   6.840  0.4804  1.2691  0.6252
 7056TIP3    H242728   3.719   4.977   6.877  2.1134  0.9731  0.9575
 7057TIP3   OH242729   2.423   4.621   0.867  0.5659  0.1626 -0.0529
 7057TIP3    H142730   2.493   4.559   0.886 -0.0116 -0.2345  0.7841
 7057TIP3    H242731   2.398   4.657   0.952  0.3288  0.9403 -0.4395
 7058TIP3   OH242732   6.747   0.638   6.966  0.3672  0.3753  0.0569
 7058TIP3    H142733   6.695   0.711   7.000 -0.4761 -0.2153  0.0493
 7058TIP3    H242734   6.720   0.631   6.874 -1.1105 -1.2594  0.5713
 7059TIP3   OH242735   3.236   0.080   7.893 -0.5274 -0.4147  0.0170
 7059TIP3    H142736   3.204   0.036   7.814  0.8956 -1.7354  0.1104
 7059TIP3    H242737   3.332   0.074   7.886 -0.3707 -0.4485  1.7633
 7060TIP3   OH242738   2.676   5.575   0.559 -0.0124 -0.1469 -0.4816
 7060TIP3    H142739   2.610   5.594   0.625 -0.6955 -2.2013 -0.4902
 7060TIP3    H242740   2.674   5.650   0.500 -1.4610  0.3920  0.2117
 7061TIP3   OH242741   2.542   5.944   0.917  0.0527 -0.9624  0.2952
 7061TIP3    H142742   2.489   5.874   0.878  0.1197 -2.0552  2.0450
 7061TIP3    H242743   2.485   5.983   0.983  0.7744 -0.8771  0.8860
 7062TIP3   OH242744   1.613   3.132   8.633 -0.5252 -0.4776 -0.4720
 7062TIP3    H142745   1.618   3.135   8.537 -2.0961 -2.5593 -0.6974
 7062TIP3    H242746   1.703   3.117   8.661 -0.3525 -2.4161 -1.8395
 7063TIP3   OH242747   2.221   5.697   1.353 -0.1235  0.1606  0.0810
 7063TIP3    H142748   2.146   5.649   1.318 -1.0156  2.1495 -0.9526
 7063TIP3    H242749   2.197   5.717   1.443 -1.1399  1.2248 -0.3873
 7064TIP3   OH242750   6.576   6.105   7.777  0.1822 -0.4278  0.0837
 7064TIP3    H142751   6.634   6.145   7.841  0.4273 -1.7939  0.7577
 7064TIP3    H242752   6.611   6.132   7.692  0.7506  0.1738  0.5054
 7065TIP3   OH242753   3.502   4.475   7.640  0.0069  0.3387 -0.1712
 7065TIP3    H142754   3.502   4.508   7.730  0.8907  0.3583 -0.1742
 7065TIP3    H242755   3.595   4.468   7.617 -0.1707 -1.2536 -0.5052
 7066TIP3   OH242756   6.611   4.019   7.984  0.4204 -0.0487  0.7612
 7066TIP3    H142757   6.619   4.085   7.915 -1.0170  1.7054  2.1605
 7066TIP3    H242758   6.701   3.991   8.000  1.0763  1.4787  0.0118
 7067LIG     C142759   2.499   5.672   6.218  0.1168 -0.5752 -0.5609
 7067LIG     N142760   2.390   5.591   6.267 -0.1474 -0.4024 -0.3854
 7067LIG     C242761   2.369   5.553   6.402  0.5412 -0.0049  0.4965
 7067LIG     N242762   2.270   5.469   6.412  0.9180  0.2026  0.1666
 7067LIG     C342763   2.223   5.446   6.287  0.2870 -0.5989 -0.3551
 7067LIG     C442764   2.303   5.514   6.196  0.5692 -0.2889 -0.6521
 7067LIG     C542765   2.276   5.497   6.058 -0.5827  0.0954 -0.4233
 7067LIG     O142766   2.340   5.548   5.962  0.6062  0.2080 -0.0524
 7067LIG     N342767   2.157   5.423   6.030 -0.2861  0.2547  0.0746
 7067LIG     C642768   2.076   5.361   6.119  0.0781  0.2106 -0.8305
 7067LIG     O242769   1.979   5.297   6.082 -0.3104  0.6098 -0.0306
 7067LIG     N442770   2.115   5.372   6.254 -0.5598 -0.1650  0.1000
 7067LIG     C742771   2.030   5.303   6.348 -0.0256 -0.0233  0.0744
 7067LIG     C842772   2.123   5.399   5.888 -0.0471 -0.3814 -0.2591
 7067LIG     H142773   2.555   5.730   6.293 -1.4771  0.2690  0.0256
 7067LIG     H242774   2.463   5.749   6.147 -1.2216  0.3381  1.0431
 7067LIG     H342775   2.565   5.595   6.173 -1.2236 -2.0959 -0.0336
 7067LIG     H442776   2.412   5.607   6.486  0.6532  1.4889 -0.4831
 7067LIG     H542777   2.061   5.320   6.453 -3.7845  2.3404  0.9900
 7067LIG     H642778   2.046   5.197   6.320  1.2141  0.6147 -1.8625
 7067LIG     H742779   1.922   5.322   6.332 -0.1393  1.4308  2.0873
 7067LIG     H842780   2.205   5.340   5.842  0.2684  0.4309 -0.7627
 7067LIG     H942781   2.134   5.497   5.836  0.6845 -0.8366 -0.9922
 7067LIG    H1042782   2.020   5.363   5.866 -0.2034 -0.3518  0.3943
   6.85783   6.85783   8.69982
